<event>
 6    1  0.9190795E-004  0.4229634E+03  0.7818608E-02  0.1036124E+00
         21   -1    0    0  503  502  0.00000000000E+00  0.00000000000E+00  0.11044931005E+04  0.11044931005E+04  0.00000000000E+00 0.  1.
         21   -1    0    0  501  503 -0.00000000000E+00 -0.00000000000E+00 -0.25317734241E+03  0.25317734241E+03  0.00000000000E+00 0.  1.
    9000007    2    1    2  501    0 -0.13284275593E+03  0.32668212343E+02  0.18105734218E+02  0.42335071510E+03  0.40022943477E+03 0.  0.
    9000005    1    3    3    0    0 -0.11576546529E+03 -0.26269206043E+02  0.19933961913E+03  0.23201077106E+03  0.99999687468E+00 0.  0.
          4    1    3    3  501    0 -0.17077290645E+02  0.58937418386E+02 -0.18123388491E+03  0.19133994403E+03  0.00000000000E+00 0.  1.
   -9000007    1    1    2    0  502  0.13284275593E+03 -0.32668212343E+02  0.83321002384E+03  0.93431972778E+03  0.40000000000E+03 0.  1.
<mgrwt>
<rscale>  2 0.42290908E+03</rscale>
<asrwt>0</asrwt>
<pdfrwt beam="1">  1       21 0.16992201E+00 0.42296337E+03</pdfrwt>
<pdfrwt beam="2">  1       21 0.38950361E-01 0.42296337E+03</pdfrwt>
<totfact> 0.11588911E+03</totfact>
</mgrwt>
</event>
<event>
 6    1  0.9190795E-004  0.4599569E+03  0.7818608E-02  0.1024796E+00
         21   -1    0    0  503  502  0.00000000000E+00  0.00000000000E+00  0.27200728538E+03  0.27200728538E+03  0.00000000000E+00 0.  1.
         21   -1    0    0  501  503 -0.00000000000E+00 -0.00000000000E+00 -0.84311110438E+03  0.84311110438E+03  0.00000000000E+00 0.  1.
    9000007    2    1    2  501    0  0.42517128398E+01  0.22702914873E+03 -0.44081872424E+03  0.63706555027E+03  0.39996381870E+03 0.  0.
    9000005    1    3    3    0    0 -0.19616407275E+03  0.90431211494E+02 -0.23233450000E+03  0.31723566529E+03  0.99999687468E+00 0.  0.
          4    1    3    3  501    0  0.20041578559E+03  0.13659793724E+03 -0.20848422423E+03  0.31982988498E+03  0.00000000000E+00 0.  1.
   -9000007    1    1    2    0  502 -0.42517128398E+01 -0.22702914873E+03 -0.13028509476E+03  0.47805283950E+03  0.40000000000E+03 0.  1.
<mgrwt>
<rscale>  2 0.45994899E+03</rscale>
<asrwt>0</asrwt>
<pdfrwt beam="1">  1       21 0.41847275E-01 0.45995686E+03</pdfrwt>
<pdfrwt beam="2">  1       21 0.12970940E+00 0.45995686E+03</pdfrwt>
<totfact> 0.20466264E+03</totfact>
</mgrwt>
</event>
<event>
 6    1  0.9190795E-004  0.5742394E+03  0.7818608E-02  0.9960433E-01
         21   -1    0    0  503  502  0.00000000000E+00  0.00000000000E+00  0.21293437553E+04  0.21293437553E+04  0.00000000000E+00 0.  1.
         21   -1    0    0  501  503 -0.00000000000E+00 -0.00000000000E+00 -0.17264684885E+03  0.17264684885E+03  0.00000000000E+00 0. -1.
    9000007    2    1    2  501    0  0.38633898105E+03  0.14315386010E+03  0.60831535984E+03  0.83642462776E+03  0.39975960896E+03 0.  0.
    9000005    1    3    3    0    0  0.15026046499E+03  0.85609234962E+02 -0.88303752515E+01  0.17316501948E+03  0.99999687468E+00 0.  0.
          4    1    3    3  501    0  0.23607851606E+03  0.57544625136E+02  0.61714573510E+03  0.66325960828E+03  0.00000000000E+00 0.  1.
   -9000007    1    1    2    0  502 -0.38633898105E+03 -0.14315386010E+03  0.13483815466E+04  0.14655659764E+04  0.40000000000E+03 0.  1.
<mgrwt>
<rscale>  2 0.57419749E+03</rscale>
<asrwt>0</asrwt>
<pdfrwt beam="1">  1       21 0.32759133E+00 0.57423935E+03</pdfrwt>
<pdfrwt beam="2">  1       21 0.26561055E-01 0.57423935E+03</pdfrwt>
<totfact> 0.23251232E+02</totfact>
</mgrwt>
</event>
<event>
 6    1  0.9190795E-004  0.5284096E+03  0.7818608E-02  0.1006625E+00
         21   -1    0    0  503  502  0.00000000000E+00  0.00000000000E+00  0.11218191647E+04  0.11218191647E+04  0.00000000000E+00 0.  1.
         21   -1    0    0  501  503 -0.00000000000E+00 -0.00000000000E+00 -0.28497085559E+03  0.28497085559E+03  0.00000000000E+00 0.  1.
    9000007    2    1    2  501    0 -0.22441148388E+03 -0.26240472135E+03  0.66881703471E+03  0.85230714315E+03  0.39986808882E+03 0.  0.
    9000005    1    3    3    0    0 -0.10693833126E+03 -0.14455320184E+02 -0.20989694980E+02  0.10993784727E+03  0.99999687468E+00 0.  0.
          4    1    3    3  501    0 -0.11747315262E+03 -0.24794940117E+03  0.68980672969E+03  0.74236929587E+03  0.00000000000E+00 0.  1.
   -9000007    1    1    2    0  502  0.22441148388E+03  0.26240472135E+03  0.16803127443E+03  0.55448287717E+03  0.40000000000E+03 0.  1.
<mgrwt>
<rscale>  2 0.52838468E+03</rscale>
<asrwt>0</asrwt>
<pdfrwt beam="1">  1       21 0.17258756E+00 0.52840964E+03</pdfrwt>
<pdfrwt beam="2">  1       21 0.43841671E-01 0.52840964E+03</pdfrwt>
<totfact> 0.83011927E+02</totfact>
</mgrwt>
</event>
<event>
 6    1  0.9190795E-004  0.4524379E+03  0.7818608E-02  0.1027131E+00
         21   -1    0    0  503  502  0.00000000000E+00  0.00000000000E+00  0.13001617622E+04  0.13001617622E+04  0.00000000000E+00 0. -1.
         21   -1    0    0  501  503 -0.00000000000E+00 -0.00000000000E+00 -0.23663478602E+03  0.23663478602E+03  0.00000000000E+00 0.  1.
    9000007    2    1    2  501    0  0.11381404667E+03 -0.17355521522E+03  0.86195530452E+02  0.46057547206E+03  0.40202617582E+03 0.  0.
    9000005    1    3    3    0    0  0.75147898892E+02  0.12506044665E+03 -0.49041858996E+01  0.14598757843E+03  0.99999687468E+00 0.  0.
          4    1    3    3  501    0  0.38666147778E+02 -0.29861566187E+03  0.91099716352E+02  0.31458789363E+03  0.00000000000E+00 0.  1.
   -9000007    1    1    2    0  502 -0.11381404667E+03  0.17355521522E+03  0.97733144577E+03  0.10762210762E+04  0.40000000000E+03 0. -1.
<mgrwt>
<rscale>  2 0.45198741E+03</rscale>
<asrwt>0</asrwt>
<pdfrwt beam="1">  1       21 0.20002488E+00 0.45243795E+03</pdfrwt>
<pdfrwt beam="2">  1       21 0.36405352E-01 0.45243795E+03</pdfrwt>
<totfact> 0.81081263E+02</totfact>
</mgrwt>
</event>
<event>
 6    1  0.9190795E-004  0.8182685E+03  0.7818608E-02  0.9534059E-01
         21   -1    0    0  503  502  0.00000000000E+00  0.00000000000E+00  0.82992225210E+03  0.82992225210E+03  0.00000000000E+00 0. -1.
         21   -1    0    0  501  503 -0.00000000000E+00 -0.00000000000E+00 -0.11491827108E+04  0.11491827108E+04  0.00000000000E+00 0. -1.
    9000007    2    1    2  501    0 -0.28336112386E+03 -0.65518685913E+03  0.38079413653E+03  0.90223924093E+03  0.39933460476E+03 0.  0.
    9000005    1    3    3    0    0 -0.65461202033E+02 -0.18480522640E+03  0.32671250401E+03  0.38102519726E+03  0.99999687468E+00 0.  0.
          4    1    3    3  501    0 -0.21789992183E+03 -0.47038163273E+03  0.54081632523E+02  0.52121404367E+03  0.00000000000E+00 0.  1.
   -9000007    1    1    2    0  502  0.28336112386E+03  0.65518685913E+03 -0.70005459527E+03  0.10768657220E+04  0.40000000000E+03 0. -1.
<mgrwt>
<rscale>  2 0.81818723E+03</rscale>
<asrwt>0</asrwt>
<pdfrwt beam="1">  1       21 0.12768035E+00 0.81826851E+03</pdfrwt>
<pdfrwt beam="2">  1       21 0.17679734E+00 0.81826851E+03</pdfrwt>
<totfact> 0.58725040E+01</totfact>
</mgrwt>
</event>
<event>
 6    1  0.9190795E-004  0.4277282E+03  0.7818608E-02  0.1034641E+00
         21   -1    0    0  503  502  0.00000000000E+00  0.00000000000E+00  0.30766034025E+03  0.30766034025E+03  0.00000000000E+00 0. -1.
         21   -1    0    0  501  503 -0.00000000000E+00 -0.00000000000E+00 -0.71373917534E+03  0.71373917534E+03  0.00000000000E+00 0. -1.
    9000007    2    1    2  501    0  0.48824826478E+02  0.14341376555E+03 -0.41242940548E+03  0.59362422228E+03  0.39917456199E+03 0.  0.
    9000005    1    3    3    0    0  0.10891372745E+03 -0.66356868657E+02 -0.34092439304E+03  0.36399982941E+03  0.99999687468E+00 0.  0.
          4    1    3    3  501    0 -0.60088900973E+02  0.20977063421E+03 -0.71505012442E+02  0.22962439287E+03  0.00000000000E+00 0.  1.
   -9000007    1    1    2    0  502 -0.48824826478E+02 -0.14341376555E+03  0.63505703946E+01  0.42777529332E+03  0.40000000000E+03 0. -1.
<mgrwt>
<rscale>  2 0.42753506E+03</rscale>
<asrwt>0</asrwt>
<pdfrwt beam="1">  1       21 0.47332360E-01 0.42772815E+03</pdfrwt>
<pdfrwt beam="2">  1       21 0.10980603E+00 0.42772815E+03</pdfrwt>
<totfact> 0.24428475E+03</totfact>
</mgrwt>
</event>
<event>
 6    1  0.9190795E-004  0.6117962E+03  0.7818608E-02  0.9881316E-01
         21   -1    0    0  503  502  0.00000000000E+00  0.00000000000E+00  0.96164475819E+03  0.96164475819E+03  0.00000000000E+00 0. -1.
         21   -1    0    0  501  503 -0.00000000000E+00 -0.00000000000E+00 -0.59490463801E+03  0.59490463801E+03  0.00000000000E+00 0.  1.
    9000007    2    1    2  501    0  0.21235215039E+03  0.41134072180E+03 -0.27438715213E+03  0.67035596106E+03  0.39974264231E+03 0.  0.
    9000005    1    3    3    0    0 -0.77979303576E+02  0.25478914594E+03 -0.19748094106E+03  0.33165946806E+03  0.99999687468E+00 0.  0.
          4    1    3    3  501    0  0.29033145397E+03  0.15655157586E+03 -0.76906211068E+02  0.33869649300E+03  0.00000000000E+00 0.  1.
   -9000007    1    1    2    0  502 -0.21235215039E+03 -0.41134072180E+03  0.64112727231E+03  0.88619343514E+03  0.40000000000E+03 0. -1.
<mgrwt>
<rscale>  2 0.61175417E+03</rscale>
<asrwt>0</asrwt>
<pdfrwt beam="1">  1       21 0.14794535E+00 0.61179623E+03</pdfrwt>
<pdfrwt beam="2">  1       21 0.91523790E-01 0.61179623E+03</pdfrwt>
<totfact> 0.24023589E+02</totfact>
</mgrwt>
</event>
<event>
 6    1  0.9190795E-004  0.4082949E+03  0.7818608E-02  0.1040972E+00
         21   -1    0    0  503  502  0.00000000000E+00  0.00000000000E+00  0.10924195300E+04  0.10924195300E+04  0.00000000000E+00 0. -1.
         21   -1    0    0  501  503 -0.00000000000E+00 -0.00000000000E+00 -0.22907137739E+03  0.22907137739E+03  0.00000000000E+00 0. -1.
    9000007    2    1    2  501    0  0.35927085308E+02  0.73579959430E+02  0.49493983200E+02  0.41096173436E+03  0.39966877142E+03 0.  0.
    9000005    1    3    3    0    0  0.10224322994E+03 -0.12684917173E+03 -0.59398765173E+02  0.17341742627E+03  0.99999687468E+00 0.  0.
          4    1    3    3  501    0 -0.66316144634E+02  0.20042913116E+03  0.10889274837E+03  0.23754430809E+03  0.00000000000E+00 0.  1.
   -9000007    1    1    2    0  502 -0.35927085308E+02 -0.73579959430E+02  0.81385416945E+03  0.91052917308E+03  0.40000000000E+03 0. -1.
<mgrwt>
<rscale>  2 0.40821380E+03</rscale>
<asrwt>0</asrwt>
<pdfrwt beam="1">  1       21 0.16806454E+00 0.40829495E+03</pdfrwt>
<pdfrwt beam="2">  1       21 0.35241751E-01 0.40829495E+03</pdfrwt>
<totfact> 0.14754296E+03</totfact>
</mgrwt>
</event>
<event>
 6    1  0.9190795E-004  0.4816767E+03  0.7818608E-02  0.1018786E+00
         21   -1    0    0  503  502  0.00000000000E+00  0.00000000000E+00  0.82283192404E+03  0.82283192404E+03  0.00000000000E+00 0. -1.
         21   -1    0    0  501  503 -0.00000000000E+00 -0.00000000000E+00 -0.28500726844E+03  0.28500726844E+03  0.00000000000E+00 0.  1.
    9000007    2    1    2  501    0  0.53290286959E+02  0.26003533533E+03  0.20386517053E+03  0.52304250304E+03  0.40193808221E+03 0.  0.
    9000005    1    3    3    0    0 -0.77079469225E+02  0.16140997044E+03  0.28812420281E+03  0.33913268697E+03  0.99999687468E+00 0.  0.
          4    1    3    3  501    0  0.13036975618E+03  0.98625364890E+02 -0.84259032279E+02  0.18390981607E+03  0.00000000000E+00 0.  1.
   -9000007    1    1    2    0  502 -0.53290286959E+02 -0.26003533533E+03  0.33395948507E+03  0.58479668944E+03  0.40000000000E+03 0. -1.
<mgrwt>
<rscale>  2 0.48127219E+03</rscale>
<asrwt>0</asrwt>
<pdfrwt beam="1">  1       21 0.12658953E+00 0.48167671E+03</pdfrwt>
<pdfrwt beam="2">  1       21 0.43847273E-01 0.48167671E+03</pdfrwt>
<totfact> 0.19620158E+03</totfact>
</mgrwt>
</event>
<event>
 6    1  0.9190795E-004  0.5733092E+03  0.7818608E-02  0.9962428E-01
         21   -1    0    0  503  502  0.00000000000E+00  0.00000000000E+00  0.91206044796E+03  0.91206044796E+03  0.00000000000E+00 0.  1.
         21   -1    0    0  501  503 -0.00000000000E+00 -0.00000000000E+00 -0.11179964515E+04  0.11179964515E+04  0.00000000000E+00 0. -1.
    9000007    2    1    2  501    0  0.95440910652E+02  0.39946779746E+03 -0.93856680309E+03  0.10997712567E+04  0.39988208822E+03 0.  0.
    9000005    1    3    3    0    0 -0.51105775163E+02 -0.48562448302E+01 -0.43298663581E+03  0.43602042401E+03  0.99999687468E+00 0.  0.
          4    1    3    3  501    0  0.14654668581E+03  0.40432404229E+03 -0.50558016728E+03  0.66375083265E+03  0.00000000000E+00 0.  1.
   -9000007    1    1    2    0  502 -0.95440910652E+02 -0.39946779746E+03  0.73263079959E+03  0.93028564277E+03  0.40000000000E+03 0.  1.
<mgrwt>
<rscale>  2 0.57328868E+03</rscale>
<asrwt>0</asrwt>
<pdfrwt beam="1">  1       21 0.14031699E+00 0.57330924E+03</pdfrwt>
<pdfrwt beam="2">  1       21 0.17199945E+00 0.57330924E+03</pdfrwt>
<totfact> 0.54317596E+01</totfact>
</mgrwt>
</event>
<event>
 6    1  0.9190795E-004  0.5092478E+03  0.7818608E-02  0.1011433E+00
         21   -1    0    0  503  502  0.00000000000E+00  0.00000000000E+00  0.39735544131E+03  0.39735544131E+03  0.00000000000E+00 0. -1.
         21   -1    0    0  501  503 -0.00000000000E+00 -0.00000000000E+00 -0.65215763219E+03  0.65215763219E+03  0.00000000000E+00 0. -1.
    9000007    2    1    2  501    0 -0.49873631842E+02 -0.31120077452E+03 -0.11579850839E+03  0.52163493893E+03  0.39919971662E+03 0.  0.
    9000005    1    3    3    0    0 -0.13128382949E+03 -0.35710159259E+03 -0.16650213045E+03  0.41530825991E+03  0.99999687468E+00 0.  0.
          4    1    3    3  501    0  0.81410197647E+02  0.45900818068E+02  0.50703622063E+02  0.10632667902E+03  0.00000000000E+00 0.  1.
   -9000007    1    1    2    0  502  0.49873631842E+02  0.31120077452E+03 -0.13900368250E+03  0.52787813458E+03  0.40000000000E+03 0. -1.
<mgrwt>
<rscale>  2 0.50909062E+03</rscale>
<asrwt>0</asrwt>
<pdfrwt beam="1">  1       21 0.61131607E-01 0.50924778E+03</pdfrwt>
<pdfrwt beam="2">  1       21 0.10033194E+00 0.50924778E+03</pdfrwt>
<totfact> 0.17068761E+03</totfact>
</mgrwt>
</event>
<event>
 6    1  0.9190795E-004  0.4603346E+03  0.7818608E-02  0.1024714E+00
         21   -1    0    0  503  502  0.00000000000E+00  0.00000000000E+00  0.10354347203E+04  0.10354347203E+04  0.00000000000E+00 0.  1.
         21   -1    0    0  501  503 -0.00000000000E+00 -0.00000000000E+00 -0.28386584517E+03  0.28386584517E+03  0.00000000000E+00 0.  1.
    9000007    2    1    2  501    0 -0.10656320292E+03  0.20137586119E+03  0.26811891331E+02  0.46070832276E+03  0.39953138482E+03 0.  0.
    9000005    1    3    3    0    0 -0.20084264398E+03 -0.12285995102E+02 -0.62456547805E+02  0.21069061126E+03  0.99999687468E+00 0.  0.
          4    1    3    3  501    0  0.94279441052E+02  0.21366185629E+03  0.89268439136E+02  0.25001771150E+03  0.00000000000E+00 0.  1.
   -9000007    1    1    2    0  502  0.10656320292E+03 -0.20137586119E+03  0.72475698380E+03  0.85859224271E+03  0.40000000000E+03 0.  1.
<mgrwt>
<rscale>  2 0.46023279E+03</rscale>
<asrwt>0</asrwt>
<pdfrwt beam="1">  1       21 0.15929765E+00 0.46033461E+03</pdfrwt>
<pdfrwt beam="2">  1       21 0.43671669E-01 0.46033461E+03</pdfrwt>
<totfact> 0.10788817E+03</totfact>
</mgrwt>
</event>
<event>
 6    1  0.9190795E-004  0.4585230E+03  0.7818608E-02  0.1025233E+00
         21   -1    0    0  503  502  0.00000000000E+00  0.00000000000E+00  0.65175221418E+03  0.65175221418E+03  0.00000000000E+00 0. -1.
         21   -1    0    0  501  503 -0.00000000000E+00 -0.00000000000E+00 -0.68818151355E+03  0.68818151355E+03  0.00000000000E+00 0. -1.
    9000007    2    1    2  501    0  0.16005777876E+03  0.15692294192E+03 -0.50667444040E+03  0.68314320183E+03  0.39965277855E+03 0.  0.
    9000005    1    3    3    0    0  0.16004895312E+03  0.24564969617E+03 -0.51646021732E+03  0.59387843596E+03  0.99999687468E+00 0.  0.
          4    1    3    3  501    0  0.88256402365E-02 -0.88726754243E+02  0.97857769203E+01  0.89264765872E+02  0.00000000000E+00 0.  1.
   -9000007    1    1    2    0  502 -0.16005777876E+03 -0.15692294192E+03  0.47024514104E+03  0.65679052590E+03  0.40000000000E+03 0. -1.
<mgrwt>
<rscale>  2 0.45844722E+03</rscale>
<asrwt>0</asrwt>
<pdfrwt beam="1">  1       21 0.10026957E+00 0.45852296E+03</pdfrwt>
<pdfrwt beam="2">  1       21 0.10587408E+00 0.45852296E+03</pdfrwt>
<totfact> 0.48670723E+02</totfact>
</mgrwt>
</event>
<event>
 6    1  0.9190795E-004  0.5065612E+03  0.7818608E-02  0.1012083E+00
         21   -1    0    0  503  502  0.00000000000E+00  0.00000000000E+00  0.13995057770E+04  0.13995057770E+04  0.00000000000E+00 0.  1.
         21   -1    0    0  501  503 -0.00000000000E+00 -0.00000000000E+00 -0.26490347970E+03  0.26490347970E+03  0.00000000000E+00 0.  1.
    9000007    2    1    2  501    0 -0.25503815633E+03 -0.17765070083E+03  0.10551380998E+03  0.51740125873E+03  0.39995833002E+03 0.  0.
    9000005    1    3    3    0    0  0.57993668581E+02 -0.17271583250E+03  0.91836834702E+02  0.20403193033E+03  0.99999687468E+00 0.  0.
          4    1    3    3  501    0 -0.31303182491E+03 -0.49348683276E+01  0.13676975280E+02  0.31336932840E+03  0.00000000000E+00 0.  1.
   -9000007    1    1    2    0  502  0.25503815633E+03  0.17765070083E+03  0.10290884873E+04  0.11470079979E+04  0.40000000000E+03 0.  1.
<mgrwt>
<rscale>  2 0.50655296E+03</rscale>
<asrwt>0</asrwt>
<pdfrwt beam="1">  1       21 0.21530858E+00 0.50656118E+03</pdfrwt>
<pdfrwt beam="2">  1       21 0.40754382E-01 0.50656118E+03</pdfrwt>
<totfact> 0.49794970E+02</totfact>
</mgrwt>
</event>
<event>
 6    1  0.9190795E-004  0.6176389E+03  0.7818608E-02  0.9869586E-01
         21   -1    0    0  503  502  0.00000000000E+00  0.00000000000E+00  0.87432897584E+03  0.87432897584E+03  0.00000000000E+00 0.  1.
         21   -1    0    0  501  503 -0.00000000000E+00 -0.00000000000E+00 -0.43616110793E+03  0.43616110793E+03  0.00000000000E+00 0. -1.
    9000007    2    1    2  501    0  0.42716372397E+03  0.19750683133E+03  0.21546823502E+03  0.65392864568E+03  0.39964774220E+03 0.  0.
    9000005    1    3    3    0    0  0.25149770753E+03  0.31489008528E+03  0.17230736968E+03  0.43828950745E+03  0.99999687468E+00 0.  0.
          4    1    3    3  501    0  0.17566601644E+03 -0.11738325395E+03  0.43160865341E+02  0.21563913823E+03  0.00000000000E+00 0.  1.
   -9000007    1    1    2    0  502 -0.42716372397E+03 -0.19750683133E+03  0.22269963289E+03  0.65656143809E+03  0.40000000000E+03 0.  1.
<mgrwt>
<rscale>  2 0.61758186E+03</rscale>
<asrwt>0</asrwt>
<pdfrwt beam="1">  1       21 0.13451215E+00 0.61763889E+03</pdfrwt>
<pdfrwt beam="2">  1       21 0.67101709E-01 0.61763889E+03</pdfrwt>
<totfact> 0.63642994E+02</totfact>
</mgrwt>
</event>
<event>
 6    1  0.9190795E-004  0.4999306E+03  0.7818608E-02  0.1013852E+00
         21   -1    0    0  503  502  0.00000000000E+00  0.00000000000E+00  0.26917482503E+03  0.26917482503E+03  0.00000000000E+00 0. -1.
         21   -1    0    0  501  503 -0.00000000000E+00 -0.00000000000E+00 -0.12858689978E+04  0.12858689978E+04  0.00000000000E+00 0.  1.
    9000007    2    1    2  501    0 -0.49601779351E+02  0.29575372709E+03 -0.97251690742E+02  0.50847558266E+03  0.39894726871E+03 0.  0.
    9000005    1    3    3    0    0 -0.21068850723E+03  0.25882985439E+03 -0.69391964027E+02  0.34087942922E+03  0.99999687468E+00 0.  0.
          4    1    3    3  501    0  0.16108672788E+03  0.36923872695E+02 -0.27859726715E+02  0.16759615344E+03  0.00000000000E+00 0.  1.
   -9000007    1    1    2    0  502  0.49601779351E+02 -0.29575372709E+03 -0.91944248205E+03  0.10465682402E+04  0.40000000000E+03 0.  1.
<mgrwt>
<rscale>  2 0.49971999E+03</rscale>
<asrwt>0</asrwt>
<pdfrwt beam="1">  1       21 0.41411511E-01 0.49993060E+03</pdfrwt>
<pdfrwt beam="2">  1       21 0.19782600E+00 0.49993060E+03</pdfrwt>
<totfact> 0.63015919E+02</totfact>
</mgrwt>
</event>
<event>
 6    1  0.9190795E-004  0.5114506E+03  0.7818608E-02  0.1010872E+00
         21   -1    0    0  503  502  0.00000000000E+00  0.00000000000E+00  0.33346407172E+03  0.33346407172E+03  0.00000000000E+00 0.  1.
         21   -1    0    0  501  503 -0.00000000000E+00 -0.00000000000E+00 -0.78638960474E+03  0.78638960474E+03  0.00000000000E+00 0.  1.
    9000007    2    1    2  501    0  0.27931736156E+03  0.15144172005E+03 -0.19262294043E+03  0.54652111787E+03  0.40078541897E+03 0.  0.
    9000005    1    3    3    0    0 -0.10028590505E+03 -0.19378952132E+01 -0.20449232430E+02  0.10237279566E+03  0.99999687468E+00 0.  0.
          4    1    3    3  501    0  0.37960326661E+03  0.15337961526E+03 -0.17217370800E+03  0.44414832221E+03  0.00000000000E+00 0.  1.
   -9000007    1    1    2    0  502 -0.27931736156E+03 -0.15144172005E+03 -0.26030259259E+03  0.57333255860E+03  0.40000000000E+03 0.  1.
<mgrwt>
<rscale>  2 0.51129674E+03</rscale>
<asrwt>0</asrwt>
<pdfrwt beam="1">  1       21 0.51302165E-01 0.51145062E+03</pdfrwt>
<pdfrwt beam="2">  1       21 0.12098301E+00 0.51145062E+03</pdfrwt>
<totfact> 0.15650657E+03</totfact>
</mgrwt>
</event>
<event>
 6    1  0.9190795E-004  0.8174825E+03  0.7818608E-02  0.9535164E-01
         21   -1    0    0  503  502  0.00000000000E+00  0.00000000000E+00  0.10799395872E+04  0.10799395872E+04  0.00000000000E+00 0.  1.
         21   -1    0    0  501  503 -0.00000000000E+00 -0.00000000000E+00 -0.67113276548E+03  0.67113276548E+03  0.00000000000E+00 0. -1.
    9000007    2    1    2  501    0 -0.14065102254E+03  0.69855003298E+03 -0.40588325153E+02  0.81848945728E+03  0.40065286823E+03 0.  0.
    9000005    1    3    3    0    0  0.38657933618E+02  0.65925526385E+02  0.11939392353E+03  0.14176219464E+03  0.99999687468E+00 0.  0.
          4    1    3    3  501    0 -0.17930895616E+03  0.63262450660E+03 -0.15998224868E+03  0.67672726264E+03  0.00000000000E+00 0.  1.
   -9000007    1    1    2    0  502  0.14065102254E+03 -0.69855003298E+03  0.44939514683E+03  0.93258289536E+03  0.40000000000E+03 0. -1.
<mgrwt>
<rscale>  2 0.81740251E+03</rscale>
<asrwt>0</asrwt>
<pdfrwt beam="1">  1       21 0.16614455E+00 0.81748246E+03</pdfrwt>
<pdfrwt beam="2">  1       21 0.10325119E+00 0.81748246E+03</pdfrwt>
<totfact> 0.12110788E+02</totfact>
</mgrwt>
</event>
<event>
 6    1  0.9190795E-004  0.4026687E+03  0.7818608E-02  0.1042894E+00
         21   -1    0    0  503  502  0.00000000000E+00  0.00000000000E+00  0.69051057039E+03  0.69051057039E+03  0.00000000000E+00 0.  1.
         21   -1    0    0  501  503 -0.00000000000E+00 -0.00000000000E+00 -0.23645232210E+03  0.23645232210E+03  0.00000000000E+00 0. -1.
    9000007    2    1    2  501    0  0.51111706847E+01 -0.42333503316E+02  0.26838214553E+03  0.48391225801E+03  0.40040460518E+03 0.  0.
    9000005    1    3    3    0    0 -0.16928587247E+03 -0.12073482532E+03  0.17164350635E+03  0.26962399360E+03  0.99999687468E+00 0.  0.
          4    1    3    3  501    0  0.17439704315E+03  0.78401322006E+02  0.96738639183E+02  0.21428826441E+03  0.00000000000E+00 0.  1.
   -9000007    1    1    2    0  502 -0.51111706847E+01  0.42333503316E+02  0.18567610276E+03  0.44305063447E+03  0.40000000000E+03 0. -1.
<mgrwt>
<rscale>  2 0.40256810E+03</rscale>
<asrwt>0</asrwt>
<pdfrwt beam="1">  1       21 0.10623239E+00 0.40266872E+03</pdfrwt>
<pdfrwt beam="2">  1       21 0.36377281E-01 0.40266872E+03</pdfrwt>
<totfact> 0.46124253E+03</totfact>
</mgrwt>
</event>
<event>
 6    1  0.9190795E-004  0.4112546E+03  0.7818608E-02  0.1039963E+00
         21   -1    0    0  503  502  0.00000000000E+00  0.00000000000E+00  0.80061400054E+03  0.80061400054E+03  0.00000000000E+00 0. -1.
         21   -1    0    0  501  503 -0.00000000000E+00 -0.00000000000E+00 -0.23653320466E+03  0.23653320466E+03  0.00000000000E+00 0. -1.
    9000007    2    1    2  501    0  0.60783484860E+02  0.73727349270E+02  0.45178267144E+03  0.61083602447E+03  0.39985336377E+03 0.  0.
    9000005    1    3    3    0    0 -0.37043665880E+02 -0.28832603335E+02  0.46602805970E+03  0.46838734464E+03  0.99999687468E+00 0.  0.
          4    1    3    3  501    0  0.97827150740E+02  0.10255995261E+03 -0.14245388257E+02  0.14244867984E+03  0.00000000000E+00 0.  1.
   -9000007    1    1    2    0  502 -0.60783484860E+02 -0.73727349270E+02  0.11229812444E+03  0.42631118073E+03  0.40000000000E+03 0. -1.
<mgrwt>
<rscale>  2 0.41121895E+03</rscale>
<asrwt>0</asrwt>
<pdfrwt beam="1">  1       21 0.12317138E+00 0.41125461E+03</pdfrwt>
<pdfrwt beam="2">  1       21 0.36389724E-01 0.41125461E+03</pdfrwt>
<totfact> 0.31737013E+03</totfact>
</mgrwt>
</event>
<event>
 6    1  0.9190795E-004  0.7463642E+03  0.7818608E-02  0.9641441E-01
         21   -1    0    0  503  502  0.00000000000E+00  0.00000000000E+00  0.78113629258E+03  0.78113629258E+03  0.00000000000E+00 0. -1.
         21   -1    0    0  501  503 -0.00000000000E+00 -0.00000000000E+00 -0.73410431667E+03  0.73410431667E+03  0.00000000000E+00 0. -1.
    9000007    2    1    2  501    0  0.24702784059E+03 -0.57848255017E+03 -0.10719858768E+03  0.75402324107E+03  0.40173958729E+03 0.  0.
    9000005    1    3    3    0    0  0.11392734177E+03 -0.31330351386E+03  0.14601990276E+03  0.36395239111E+03  0.99999687468E+00 0.  0.
          4    1    3    3  501    0  0.13310049882E+03 -0.26517903632E+03 -0.25321849045E+03  0.39007084996E+03  0.00000000000E+00 0.  1.
   -9000007    1    1    2    0  502 -0.24702784059E+03  0.57848255017E+03  0.15423056359E+03  0.76121736818E+03  0.40000000000E+03 0. -1.
<mgrwt>
<rscale>  2 0.74613036E+03</rscale>
<asrwt>0</asrwt>
<pdfrwt beam="1">  1       21 0.12017481E+00 0.74636419E+03</pdfrwt>
<pdfrwt beam="2">  1       21 0.11293913E+00 0.74636419E+03</pdfrwt>
<totfact> 0.23793946E+02</totfact>
</mgrwt>
</event>
<event>
 6    1  0.9190795E-004  0.4153577E+03  0.7818608E-02  0.1038626E+00
         21   -1    0    0  503  502  0.00000000000E+00  0.00000000000E+00  0.15884497720E+04  0.15884497720E+04  0.00000000000E+00 0. -1.
         21   -1    0    0  501  503 -0.00000000000E+00 -0.00000000000E+00 -0.28018527566E+03  0.28018527566E+03  0.00000000000E+00 0. -1.
    9000007    2    1    2  501    0  0.61024215948E+02  0.91755146693E+02 -0.77119737816E+02  0.42245648395E+03  0.40047355093E+03 0.  0.
    9000005    1    3    3    0    0  0.18020912404E+03  0.63178340027E+02 -0.18000816309E+03  0.26243240998E+03  0.99999687468E+00 0.  0.
          4    1    3    3  501    0 -0.11918490809E+03  0.28576806667E+02  0.10288842527E+03  0.16002407397E+03  0.00000000000E+00 0.  1.
   -9000007    1    1    2    0  502 -0.61024215948E+02 -0.91755146693E+02  0.13853842342E+04  0.14461785638E+04  0.40000000000E+03 0. -1.
<mgrwt>
<rscale>  2 0.41524352E+03</rscale>
<asrwt>0</asrwt>
<pdfrwt beam="1">  1       21 0.24437688E+00 0.41535771E+03</pdfrwt>
<pdfrwt beam="2">  1       21 0.43105428E-01 0.41535771E+03</pdfrwt>
<totfact> 0.30458981E+02</totfact>
</mgrwt>
</event>
<event>
 6    1  0.9190795E-004  0.4900876E+03  0.7818608E-02  0.1016415E+00
         21   -1    0    0  503  502  0.00000000000E+00  0.00000000000E+00  0.29790992140E+03  0.29790992140E+03  0.00000000000E+00 0. -1.
         21   -1    0    0  501  503 -0.00000000000E+00 -0.00000000000E+00 -0.81152143062E+03  0.81152143062E+03  0.00000000000E+00 0. -1.
    9000007    2    1    2  501    0  0.22676411417E+03 -0.16959933822E+03 -0.30312058017E+03  0.57605312766E+03  0.39971142186E+03 0.  0.
    9000005    1    3    3    0    0  0.27918011500E+03  0.25572801655E+02 -0.12612969079E+03  0.30741698666E+03  0.99999687468E+00 0.  0.
          4    1    3    3  501    0 -0.52416000831E+02 -0.19517213988E+03 -0.17699088938E+03  0.26863614100E+03  0.00000000000E+00 0.  1.
   -9000007    1    1    2    0  502 -0.22676411417E+03  0.16959933822E+03 -0.21049092905E+03  0.53337822435E+03  0.40000000000E+03 0. -1.
<mgrwt>
<rscale>  2 0.49002876E+03</rscale>
<asrwt>0</asrwt>
<pdfrwt beam="1">  1       21 0.45832296E-01 0.49008764E+03</pdfrwt>
<pdfrwt beam="2">  1       21 0.12484945E+00 0.49008764E+03</pdfrwt>
<totfact> 0.18474424E+03</totfact>
</mgrwt>
</event>
<event>
 6    1  0.9190795E-004  0.8601255E+03  0.7818608E-02  0.9476889E-01
         21   -1    0    0  503  502  0.00000000000E+00  0.00000000000E+00  0.13351707702E+04  0.13351707702E+04  0.00000000000E+00 0. -1.
         21   -1    0    0  501  503 -0.00000000000E+00 -0.00000000000E+00 -0.64366256946E+03  0.64366256946E+03  0.00000000000E+00 0.  1.
    9000007    2    1    2  501    0  0.27300859965E+02 -0.76096686906E+03 -0.23514503275E+02  0.86031942379E+03  0.39972573888E+03 0.  0.
    9000005    1    3    3    0    0  0.11134875451E+03 -0.24382133035E+03  0.15154114007E+03  0.30791736455E+03  0.99999687468E+00 0.  0.
          4    1    3    3  501    0 -0.84047894547E+02 -0.51714553871E+03 -0.17505564334E+03  0.55240205924E+03  0.00000000000E+00 0.  1.
   -9000007    1    1    2    0  502 -0.27300859965E+02  0.76096686906E+03  0.71502270406E+03  0.11185139159E+04  0.40000000000E+03 0. -1.
<mgrwt>
<rscale>  2 0.86009364E+03</rscale>
<asrwt>0</asrwt>
<pdfrwt beam="1">  1       21 0.20541089E+00 0.86012552E+03</pdfrwt>
<pdfrwt beam="2">  1       21 0.99025011E-01 0.86012552E+03</pdfrwt>
<totfact> 0.69772259E+01</totfact>
</mgrwt>
</event>
<event>
 6    1  0.9190795E-004  0.4083114E+03  0.7818608E-02  0.1040939E+00
         21   -1    0    0  503  502  0.00000000000E+00  0.00000000000E+00  0.16676619211E+03  0.16676619211E+03  0.00000000000E+00 0. -1.
         21   -1    0    0  501  503 -0.00000000000E+00 -0.00000000000E+00 -0.14778223209E+04  0.14778223209E+04  0.00000000000E+00 0. -1.
    9000007    2    1    2  501    0  0.76120442798E+02 -0.30348496033E+02 -0.18781205258E+03  0.44943471214E+03  0.40000355043E+03 0.  0.
    9000005    1    3    3    0    0  0.14325698256E+03 -0.15508563578E+03 -0.21920060248E+03  0.30434194847E+03  0.99999687468E+00 0.  0.
          4    1    3    3  501    0 -0.67136539760E+02  0.12473713975E+03  0.31388549895E+02  0.14509276367E+03  0.00000000000E+00 0.  1.
   -9000007    1    1    2    0  502 -0.76120442798E+02  0.30348496033E+02 -0.11232440762E+04  0.11951538009E+04  0.40000000000E+03 0. -1.
<mgrwt>
<rscale>  2 0.40831052E+03</rscale>
<asrwt>0</asrwt>
<pdfrwt beam="1">  1       21 0.25656336E-01 0.40831139E+03</pdfrwt>
<pdfrwt beam="2">  1       21 0.22735729E+00 0.40831139E+03</pdfrwt>
<totfact> 0.11066770E+03</totfact>
</mgrwt>
</event>
<event>
 6    1  0.9190795E-004  0.4538497E+03  0.7818608E-02  0.1026634E+00
         21   -1    0    0  503  502  0.00000000000E+00  0.00000000000E+00  0.82027224267E+03  0.82027224267E+03  0.00000000000E+00 0.  1.
         21   -1    0    0  501  503 -0.00000000000E+00 -0.00000000000E+00 -0.25169464648E+03  0.25169464648E+03  0.00000000000E+00 0. -1.
    9000007    2    1    2  501    0 -0.21279186632E+02  0.21336992788E+03  0.25054259642E+03  0.51777757946E+03  0.39917727799E+03 0.  0.
    9000005    1    3    3    0    0 -0.94161621618E+02  0.17904795397E+03 -0.48533977517E+02  0.20804116846E+03  0.99999687468E+00 0.  0.
          4    1    3    3  501    0  0.72882434985E+02  0.34321973906E+02  0.29907657393E+03  0.30973641100E+03  0.00000000000E+00 0.  1.
   -9000007    1    1    2    0  502  0.21279186632E+02 -0.21336992788E+03  0.31803499977E+03  0.55418930970E+03  0.40000000000E+03 0.  1.
<mgrwt>
<rscale>  2 0.45366833E+03</rscale>
<asrwt>0</asrwt>
<pdfrwt beam="1">  1       21 0.12619573E+00 0.45384968E+03</pdfrwt>
<pdfrwt beam="2">  1       21 0.38722254E-01 0.45384968E+03</pdfrwt>
<totfact> 0.25847052E+03</totfact>
</mgrwt>
</event>
<event>
 6    1  0.9190795E-004  0.4299705E+03  0.7818608E-02  0.1033896E+00
         21   -1    0    0  503  502  0.00000000000E+00  0.00000000000E+00  0.46086727683E+03  0.46086727683E+03  0.00000000000E+00 0. -1.
         21   -1    0    0  501  503 -0.00000000000E+00 -0.00000000000E+00 -0.69076482956E+03  0.69076482956E+03  0.00000000000E+00 0. -1.
    9000007    2    1    2  501    0  0.77921525524E+01  0.15660819837E+03 -0.48802452783E+03  0.65041720168E+03  0.40035952722E+03 0.  0.
    9000005    1    3    3    0    0  0.64127033048E+02  0.21851866307E+03 -0.51448021519E+03  0.56263093969E+03  0.99999687468E+00 0.  0.
          4    1    3    3  501    0 -0.56334880496E+02 -0.61910464701E+02  0.26455687362E+02  0.87786261987E+02  0.00000000000E+00 0.  1.
   -9000007    1    1    2    0  502 -0.77921525524E+01 -0.15660819837E+03  0.25812697510E+03  0.50121490472E+03  0.40000000000E+03 0. -1.
<mgrwt>
<rscale>  2 0.42988675E+03</rscale>
<asrwt>0</asrwt>
<pdfrwt beam="1">  1       21 0.70902658E-01 0.42997046E+03</pdfrwt>
<pdfrwt beam="2">  1       21 0.10627151E+00 0.42997046E+03</pdfrwt>
<totfact> 0.10975328E+03</totfact>
</mgrwt>
</event>
<event>
 6    1  0.9190795E-004  0.4353418E+03  0.7818608E-02  0.1032248E+00
         21   -1    0    0  503  502  0.00000000000E+00  0.00000000000E+00  0.89355992097E+03  0.89355992097E+03  0.00000000000E+00 0. -1.
         21   -1    0    0  501  503 -0.00000000000E+00 -0.00000000000E+00 -0.22637952300E+03  0.22637952300E+03  0.00000000000E+00 0. -1.
    9000007    2    1    2  501    0 -0.14295278414E+03  0.91589136327E+02  0.19131928570E+03  0.47552663640E+03  0.40087210486E+03 0.  0.
    9000005    1    3    3    0    0 -0.17020967725E+03  0.16740973705E+03 -0.29413762746E+02  0.24054838125E+03  0.99999687468E+00 0.  0.
          4    1    3    3  501    0  0.27256893109E+02 -0.75820600726E+02  0.22073304844E+03  0.23497825515E+03  0.00000000000E+00 0.  1.
   -9000007    1    1    2    0  502  0.14295278414E+03 -0.91589136327E+02  0.47586111228E+03  0.64441280757E+03  0.40000000000E+03 0. -1.
<mgrwt>
<rscale>  2 0.43514097E+03</rscale>
<asrwt>0</asrwt>
<pdfrwt beam="1">  1       21 0.13747076E+00 0.43534183E+03</pdfrwt>
<pdfrwt beam="2">  1       21 0.34827619E-01 0.43534183E+03</pdfrwt>
<totfact> 0.25848737E+03</totfact>
</mgrwt>
</event>
<event>
 6    1  0.9190795E-004  0.4326782E+03  0.7818608E-02  0.1033377E+00
         21   -1    0    0  503  502  0.00000000000E+00  0.00000000000E+00  0.37069811567E+03  0.37069811567E+03  0.00000000000E+00 0.  1.
         21   -1    0    0  501  503 -0.00000000000E+00 -0.00000000000E+00 -0.68359840538E+03  0.68359840538E+03  0.00000000000E+00 0.  1.
    9000007    2    1    2  501    0  0.12031598690E+03  0.93835526044E+02 -0.43046274382E+03  0.61033484109E+03  0.40488196031E+03 0.  0.
    9000005    1    3    3    0    0 -0.98344253046E+02 -0.70501874419E+02 -0.28814493282E+02  0.12439204726E+03  0.99999687468E+00 0.  0.
          4    1    3    3  501    0  0.21866023995E+03  0.16433740046E+03 -0.40164825054E+03  0.48594279384E+03  0.00000000000E+00 0.  1.
   -9000007    1    1    2    0  502 -0.12031598690E+03 -0.93835526044E+02  0.11756245412E+03  0.44396167996E+03  0.40000000000E+03 0.  1.
<mgrwt>
<rscale>  2 0.43153246E+03</rscale>
<asrwt>0</asrwt>
<pdfrwt beam="1">  1       21 0.57030480E-01 0.43267822E+03</pdfrwt>
<pdfrwt beam="2">  1       21 0.10516898E+00 0.43267822E+03</pdfrwt>
<totfact> 0.18207325E+03</totfact>
</mgrwt>
</event>
<event>
 6    1  0.9190795E-004  0.4853271E+03  0.7818608E-02  0.1017713E+00
         21   -1    0    0  503  502  0.00000000000E+00  0.00000000000E+00  0.13723361014E+04  0.13723361014E+04  0.00000000000E+00 0.  1.
         21   -1    0    0  501  503 -0.00000000000E+00 -0.00000000000E+00 -0.17360497971E+03  0.17360497971E+03  0.00000000000E+00 0.  1.
    9000007    2    1    2  501    0 -0.28160591219E+02 -0.27257174924E+03  0.51394439190E+03  0.70688134386E+03  0.40056712166E+03 0.  0.
    9000005    1    3    3    0    0 -0.86013528161E+02  0.73736225111E+02  0.46996094907E+02  0.12265802400E+03  0.99999687468E+00 0.  0.
          4    1    3    3  501    0  0.57852936941E+02 -0.34630797435E+03  0.46694829699E+03  0.58422331986E+03  0.00000000000E+00 0.  1.
   -9000007    1    1    2    0  502  0.28160591219E+02  0.27257174924E+03  0.68478672980E+03  0.83905973726E+03  0.40000000000E+03 0.  1.
<mgrwt>
<rscale>  2 0.48521007E+03</rscale>
<asrwt>0</asrwt>
<pdfrwt beam="1">  1       21 0.21112862E+00 0.48532710E+03</pdfrwt>
<pdfrwt beam="2">  1       21 0.26708459E-01 0.48532710E+03</pdfrwt>
<totfact> 0.12534038E+03</totfact>
</mgrwt>
</event>
<event>
 6    1  0.9190795E-004  0.4016383E+03  0.7818608E-02  0.1043239E+00
         21   -1    0    0  503  502  0.00000000000E+00  0.00000000000E+00  0.11309855995E+03  0.11309855995E+03  0.00000000000E+00 0. -1.
         21   -1    0    0  501  503 -0.00000000000E+00 -0.00000000000E+00 -0.17880324165E+04  0.17880324165E+04  0.00000000000E+00 0. -1.
    9000007    2    1    2  501    0 -0.32725184599E+02  0.23751555632E+01 -0.12658769048E+04  0.13280653879E+04  0.40029583715E+03 0.  0.
    9000005    1    3    3    0    0 -0.62204811293E+02 -0.77404091937E+02 -0.12328236206E+04  0.12368168464E+04  0.99999687468E+00 0.  0.
          4    1    3    3  501    0  0.29479626694E+02  0.79779247500E+02 -0.33053284179E+02  0.91248541450E+02  0.00000000000E+00 0.  1.
   -9000007    1    1    2    0  502  0.32725184599E+02 -0.23751555632E+01 -0.40905695177E+03  0.57306558862E+03  0.40000000000E+03 0. -1.
<mgrwt>
<rscale>  2 0.40156458E+03</rscale>
<asrwt>0</asrwt>
<pdfrwt beam="1">  1       21 0.17399782E-01 0.40163832E+03</pdfrwt>
<pdfrwt beam="2">  1       21 0.27508186E+00 0.40163832E+03</pdfrwt>
<totfact> 0.11903287E+03</totfact>
</mgrwt>
</event>
<event>
 6    1  0.9190795E-004  0.6725971E+03  0.7818608E-02  0.9765316E-01
         21   -1    0    0  503  502  0.00000000000E+00  0.00000000000E+00  0.45566237370E+03  0.45566237370E+03  0.00000000000E+00 0.  1.
         21   -1    0    0  501  503 -0.00000000000E+00 -0.00000000000E+00 -0.99357361191E+03  0.99357361191E+03  0.00000000000E+00 0. -1.
    9000007    2    1    2  501    0 -0.53562862271E+03  0.74086688075E+02 -0.24728634959E+03  0.71653571626E+03  0.39985751859E+03 0.  0.
    9000005    1    3    3    0    0 -0.78934346904E+01  0.99459640127E+02 -0.14869778065E+03  0.17907137206E+03  0.99999687468E+00 0.  0.
          4    1    3    3  501    0 -0.52773518802E+03 -0.25372952052E+02 -0.98588568940E+02  0.53746434421E+03  0.00000000000E+00 0.  1.
   -9000007    1    1    2    0  502  0.53562862271E+03 -0.74086688075E+02 -0.29062488862E+03  0.73270026935E+03  0.40000000000E+03 0.  1.
<mgrwt>
<rscale>  2 0.67257592E+03</rscale>
<asrwt>0</asrwt>
<pdfrwt beam="1">  1       21 0.70101905E-01 0.67259710E+03</pdfrwt>
<pdfrwt beam="2">  1       21 0.15285748E+00 0.67259710E+03</pdfrwt>
<totfact> 0.40082845E+02</totfact>
</mgrwt>
</event>
<event>
 6    1  0.9190795E-004  0.5206967E+03  0.7818608E-02  0.1008694E+00
         21   -1    0    0  503  502  0.00000000000E+00  0.00000000000E+00  0.11276628818E+04  0.11276628818E+04  0.00000000000E+00 0. -1.
         21   -1    0    0  501  503 -0.00000000000E+00 -0.00000000000E+00 -0.24539088089E+03  0.24539088089E+03  0.00000000000E+00 0.  1.
    9000007    2    1    2  501    0  0.64105116153E+02 -0.32713236531E+03  0.32998500689E+03  0.61401096146E+03  0.39622506946E+03 0.  0.
    9000005    1    3    3    0    0 -0.67453320084E+02 -0.16266605599E+03  0.36048927486E+03  0.40120283330E+03  0.99999687468E+00 0.  0.
          4    1    3    3  501    0  0.13155843624E+03 -0.16446630932E+03 -0.30504267975E+02  0.21280812816E+03  0.00000000000E+00 0.  1.
   -9000007    1    1    2    0  502 -0.64105116153E+02  0.32713236531E+03  0.55228699407E+03  0.75904280127E+03  0.40000000000E+03 0. -1.
<mgrwt>
<rscale>  2 0.51997162E+03</rscale>
<asrwt>0</asrwt>
<pdfrwt beam="1">  1       21 0.17348659E+00 0.52069670E+03</pdfrwt>
<pdfrwt beam="2">  1       21 0.37752444E-01 0.52069670E+03</pdfrwt>
<totfact> 0.11179942E+03</totfact>
</mgrwt>
</event>
<event>
 6    1  0.9190795E-004  0.4955766E+03  0.7818608E-02  0.1014952E+00
         21   -1    0    0  503  502  0.00000000000E+00  0.00000000000E+00  0.26584194201E+03  0.26584194201E+03  0.00000000000E+00 0. -1.
         21   -1    0    0  501  503 -0.00000000000E+00 -0.00000000000E+00 -0.14192942994E+04  0.14192942994E+04  0.00000000000E+00 0. -1.
    9000007    2    1    2  501    0  0.25315794292E+03  0.14665333427E+03 -0.10746433309E+04  0.11833324878E+04  0.39977661686E+03 0.  0.
    9000005    1    3    3    0    0  0.34482717085E+03  0.28792339016E+02 -0.75870985962E+03  0.83389233575E+03  0.99999687468E+00 0.  0.
          4    1    3    3  501    0 -0.91669227931E+02  0.11786099526E+03 -0.31593347131E+03  0.34944015203E+03  0.00000000000E+00 0.  1.
   -9000007    1    1    2    0  502 -0.25315794292E+03 -0.14665333427E+03 -0.78809026469E+02  0.50180375364E+03  0.40000000000E+03 0. -1.
<mgrwt>
<rscale>  2 0.49553150E+03</rscale>
<asrwt>0</asrwt>
<pdfrwt beam="1">  1       21 0.40898759E-01 0.49557658E+03</pdfrwt>
<pdfrwt beam="2">  1       21 0.21835298E+00 0.49557658E+03</pdfrwt>
<totfact> 0.47470674E+02</totfact>
</mgrwt>
</event>
<event>
 6    1  0.9190795E-004  0.4404431E+03  0.7818608E-02  0.1030722E+00
         21   -1    0    0  503  502  0.00000000000E+00  0.00000000000E+00  0.53715298591E+03  0.53715298591E+03  0.00000000000E+00 0.  1.
         21   -1    0    0  501  503 -0.00000000000E+00 -0.00000000000E+00 -0.42840088687E+03  0.42840088687E+03  0.00000000000E+00 0.  1.
    9000007    2    1    2  501    0 -0.14598275065E+03 -0.11260184536E+03  0.24726358514E+03  0.50384447191E+03  0.39840912674E+03 0.  0.
    9000005    1    3    3    0    0 -0.17697657394E+02 -0.95357106932E+02 -0.96317298522E+02  0.13669018585E+03  0.99999687468E+00 0.  0.
          4    1    3    3  501    0 -0.12828509325E+03 -0.17244738429E+02  0.34358088366E+03  0.36715428606E+03  0.00000000000E+00 0.  1.
   -9000007    1    1    2    0  502  0.14598275065E+03  0.11260184536E+03 -0.13851148610E+03  0.46170940086E+03  0.40000000000E+03 0.  1.
<mgrwt>
<rscale>  2 0.44008160E+03</rscale>
<asrwt>0</asrwt>
<pdfrwt beam="1">  1       21 0.82638921E-01 0.44044312E+03</pdfrwt>
<pdfrwt beam="2">  1       21 0.65907829E-01 0.44044312E+03</pdfrwt>
<totfact> 0.23488908E+03</totfact>
</mgrwt>
</event>
<event>
 6    1  0.9190795E-004  0.4167225E+03  0.7818608E-02  0.1038687E+00
         21   -1    0    0  503  502  0.00000000000E+00  0.00000000000E+00  0.58849231938E+03  0.58849231938E+03  0.00000000000E+00 0.  1.
         21   -1    0    0  501  503 -0.00000000000E+00 -0.00000000000E+00 -0.37176726587E+03  0.37176726587E+03  0.00000000000E+00 0. -1.
    9000007    2    1    2  501    0 -0.87532712179E+02 -0.22753129625E+02 -0.11555094583E+03  0.43244615198E+03  0.40678983846E+03 0.  0.
    9000005    1    3    3    0    0 -0.13652300537E+02  0.59463257876E+01 -0.26386271403E+03  0.26428446029E+03  0.99999687468E+00 0.  0.
          4    1    3    3  501    0 -0.73880411642E+02 -0.28699455413E+02  0.14831176820E+03  0.16816169169E+03  0.00000000000E+00 0.  1.
   -9000007    1    1    2    0  502  0.87532712179E+02  0.22753129625E+02  0.33227599934E+03  0.52781343327E+03  0.40000000000E+03 0.  1.
<mgrwt>
<rscale>  2 0.41505621E+03</rscale>
<asrwt>0</asrwt>
<pdfrwt beam="1">  1       21 0.90537280E-01 0.41672251E+03</pdfrwt>
<pdfrwt beam="2">  1       21 0.57194964E-01 0.41672251E+03</pdfrwt>
<totfact> 0.26131669E+03</totfact>
</mgrwt>
</event>
<event>
 6    1  0.9190795E-004  0.4243280E+03  0.7818608E-02  0.1035696E+00
         21   -1    0    0  503  502  0.00000000000E+00  0.00000000000E+00  0.27516128504E+03  0.27516128504E+03  0.00000000000E+00 0. -1.
         21   -1    0    0  501  503 -0.00000000000E+00 -0.00000000000E+00 -0.68400417240E+03  0.68400417240E+03  0.00000000000E+00 0. -1.
    9000007    2    1    2  501    0  0.98249209360E+01  0.14019430384E+03 -0.10373818826E+03  0.43682471682E+03  0.40037888258E+03 0.  0.
    9000005    1    3    3    0    0  0.14570275015E+03  0.96407987556E+02  0.89713569658E+02  0.19640090641E+03  0.99999687468E+00 0.  0.
          4    1    3    3  501    0 -0.13587782921E+03  0.43786316288E+02 -0.19345175792E+03  0.24042381040E+03  0.00000000000E+00 0.  1.
   -9000007    1    1    2    0  502 -0.98249209360E+01 -0.14019430384E+03 -0.30510469910E+03  0.52234074062E+03  0.40000000000E+03 0. -1.
<mgrwt>
<rscale>  2 0.42423857E+03</rscale>
<asrwt>0</asrwt>
<pdfrwt beam="1">  1       21 0.42332505E-01 0.42432796E+03</pdfrwt>
<pdfrwt beam="2">  1       21 0.10523141E+00 0.42432796E+03</pdfrwt>
<totfact> 0.34311394E+03</totfact>
</mgrwt>
</event>
<event>
 6    1  0.9190795E-004  0.4833996E+03  0.7818608E-02  0.1018227E+00
         21   -1    0    0  503  502  0.00000000000E+00  0.00000000000E+00  0.27683752926E+03  0.27683752926E+03  0.00000000000E+00 0. -1.
         21   -1    0    0  501  503 -0.00000000000E+00 -0.00000000000E+00 -0.84447452228E+03  0.84447452228E+03  0.00000000000E+00 0. -1.
    9000007    2    1    2  501    0 -0.20267036568E+03  0.17970401742E+03 -0.30261857229E+03  0.57030971550E+03  0.40038276723E+03 0.  0.
    9000005    1    3    3    0    0 -0.25516854641E+03  0.59347092349E+02 -0.34421409963E+03  0.43257070038E+03  0.99999687468E+00 0.  0.
          4    1    3    3  501    0  0.52498180738E+02  0.12035692507E+03  0.41595527332E+02  0.13773901513E+03  0.00000000000E+00 0.  1.
   -9000007    1    1    2    0  502  0.20267036568E+03 -0.17970401742E+03 -0.26501842072E+03  0.55100233604E+03  0.40000000000E+03 0. -1.
<mgrwt>
<rscale>  2 0.48332033E+03</rscale>
<asrwt>0</asrwt>
<pdfrwt beam="1">  1       21 0.42590390E-01 0.48339960E+03</pdfrwt>
<pdfrwt beam="2">  1       21 0.12991916E+00 0.48339960E+03</pdfrwt>
<totfact> 0.19478350E+03</totfact>
</mgrwt>
</event>
<event>
 6    1  0.9190795E-004  0.5290392E+03  0.7818608E-02  0.1006470E+00
         21   -1    0    0  503  502  0.00000000000E+00  0.00000000000E+00  0.13428459662E+04  0.13428459662E+04  0.00000000000E+00 0. -1.
         21   -1    0    0  501  503 -0.00000000000E+00 -0.00000000000E+00 -0.30129061121E+03  0.30129061121E+03  0.00000000000E+00 0.  1.
    9000007    2    1    2  501    0 -0.30806543919E+03  0.15780086676E+03  0.97727010673E+03  0.11112782271E+04  0.40009624851E+03 0.  0.
    9000005    1    3    3    0    0  0.71680413131E+02  0.12533196428E+03  0.21418273812E+03  0.25830491323E+03  0.99999687468E+00 0.  0.
          4    1    3    3  501    0 -0.37974585232E+03  0.32468902471E+02  0.76308736861E+03  0.85297331383E+03  0.00000000000E+00 0.  1.
   -9000007    1    1    2    0  502  0.30806543919E+03 -0.15780086676E+03  0.64285248250E+02  0.53285835033E+03  0.40000000000E+03 0.  1.
<mgrwt>
<rscale>  2 0.52902097E+03</rscale>
<asrwt>0</asrwt>
<pdfrwt beam="1">  1       21 0.20659168E+00 0.52903916E+03</pdfrwt>
<pdfrwt beam="2">  1       21 0.46352402E-01 0.52903916E+03</pdfrwt>
<totfact> 0.42974378E+02</totfact>
</mgrwt>
</event>
<event>
 6    1  0.9190795E-004  0.4014570E+03  0.7818608E-02  0.1043293E+00
         21   -1    0    0  503  502  0.00000000000E+00  0.00000000000E+00  0.86397735766E+03  0.86397735766E+03  0.00000000000E+00 0.  1.
         21   -1    0    0  501  503 -0.00000000000E+00 -0.00000000000E+00 -0.25949431538E+03  0.25949431538E+03  0.00000000000E+00 0.  1.
    9000007    2    1    2  501    0 -0.31758658814E+02  0.15242404429E+01  0.42651078903E+01  0.40147963398E+03  0.40019591406E+03 0.  0.
    9000005    1    3    3    0    0  0.63434383315E+02 -0.14623160275E+03 -0.10834343793E+03  0.19273531894E+03  0.99999687468E+00 0.  0.
          4    1    3    3  501    0 -0.95193042129E+02  0.14775584319E+03  0.11260854582E+03  0.20874431504E+03  0.00000000000E+00 0.  1.
   -9000007    1    1    2    0  502  0.31758658814E+02 -0.15242404429E+01  0.60021793438E+03  0.72199203906E+03  0.40000000000E+03 0.  1.
<mgrwt>
<rscale>  2 0.40140814E+03</rscale>
<asrwt>0</asrwt>
<pdfrwt beam="1">  1       21 0.13291959E+00 0.40145698E+03</pdfrwt>
<pdfrwt beam="2">  1       21 0.39922203E-01 0.40145698E+03</pdfrwt>
<totfact> 0.21674849E+03</totfact>
</mgrwt>
</event>
<event>
 6    1  0.9190795E-004  0.5151380E+03  0.7818608E-02  0.1010029E+00
         21   -1    0    0  503  502  0.00000000000E+00  0.00000000000E+00  0.23159980410E+03  0.23159980410E+03  0.00000000000E+00 0. -1.
         21   -1    0    0  501  503 -0.00000000000E+00 -0.00000000000E+00 -0.17737473534E+04  0.17737473534E+04  0.00000000000E+00 0.  1.
    9000007    2    1    2  501    0  0.29728105210E+03  0.13034994209E+03 -0.13688210549E+04  0.14618315597E+04  0.39738306137E+03 0.  0.
    9000005    1    3    3    0    0  0.26781682368E+03 -0.62463433862E+02 -0.49262728944E+03  0.56418984209E+03  0.99999687468E+00 0.  0.
          4    1    3    3  501    0  0.29464228417E+02  0.19281337595E+03 -0.87619376542E+03  0.89764171764E+03  0.00000000000E+00 0.  1.
   -9000007    1    1    2    0  502 -0.29728105210E+03 -0.13034994209E+03 -0.17332649443E+03  0.54351559776E+03  0.40000000000E+03 0. -1.
<mgrwt>
<rscale>  2 0.51462988E+03</rscale>
<asrwt>0</asrwt>
<pdfrwt beam="1">  1       21 0.35630739E-01 0.51513797E+03</pdfrwt>
<pdfrwt beam="2">  1       21 0.27288421E+00 0.51513797E+03</pdfrwt>
<totfact> 0.28578402E+02</totfact>
</mgrwt>
</event>
<event>
 6    1  0.9190795E-004  0.4013110E+03  0.7818608E-02  0.1043437E+00
         21   -1    0    0  503  502  0.00000000000E+00  0.00000000000E+00  0.85600858265E+03  0.85600858265E+03  0.00000000000E+00 0.  1.
         21   -1    0    0  501  503 -0.00000000000E+00 -0.00000000000E+00 -0.20663995997E+03  0.20663995997E+03  0.00000000000E+00 0.  1.
    9000007    2    1    2  501    0  0.54947650485E+01 -0.69657163492E+00  0.16363816565E+03  0.43339123869E+03  0.40127277364E+03 0.  0.
    9000005    1    3    3    0    0  0.74144345253E+02  0.19140049419E+02  0.28360074562E+03  0.29375858853E+03  0.99999687468E+00 0.  0.
          4    1    3    3  501    0 -0.68649580204E+02 -0.19836621053E+02 -0.11996257997E+03  0.13963265016E+03  0.00000000000E+00 0.  1.
   -9000007    1    1    2    0  502 -0.54947650485E+01  0.69657163492E+00  0.48573045703E+03  0.62925730393E+03  0.40000000000E+03 0.  1.
<mgrwt>
<rscale>  2 0.40099246E+03</rscale>
<asrwt>0</asrwt>
<pdfrwt beam="1">  1       21 0.13169363E+00 0.40131100E+03</pdfrwt>
<pdfrwt beam="2">  1       21 0.31790764E-01 0.40131100E+03</pdfrwt>
<totfact> 0.35204983E+03</totfact>
</mgrwt>
</event>
<event>
 6    1  0.9190795E-004  0.4015293E+03  0.7818608E-02  0.1043258E+00
         21   -1    0    0  503  502  0.00000000000E+00  0.00000000000E+00  0.27343891748E+03  0.27343891748E+03  0.00000000000E+00 0.  1.
         21   -1    0    0  501  503 -0.00000000000E+00 -0.00000000000E+00 -0.60635336213E+03  0.60635336213E+03  0.00000000000E+00 0.  1.
    9000007    2    1    2  501    0 -0.29056135661E+00  0.34188400453E+02 -0.23976910956E+03  0.46766974371E+03  0.40007103386E+03 0.  0.
    9000005    1    3    3    0    0 -0.20079256852E+02  0.15815079751E+03 -0.29122126978E+03  0.33200252902E+03  0.99999687468E+00 0.  0.
          4    1    3    3  501    0  0.19788695495E+02 -0.12396239705E+03  0.51452160219E+02  0.13566721470E+03  0.00000000000E+00 0.  1.
   -9000007    1    1    2    0  502  0.29056135661E+00 -0.34188400453E+02 -0.93145335089E+02  0.41212253590E+03  0.40000000000E+03 0. -1.
<mgrwt>
<rscale>  2 0.40151159E+03</rscale>
<asrwt>0</asrwt>
<pdfrwt beam="1">  1       21 0.42067526E-01 0.40152928E+03</pdfrwt>
<pdfrwt beam="2">  1       21 0.93285131E-01 0.40152928E+03</pdfrwt>
<totfact> 0.46925350E+03</totfact>
</mgrwt>
</event>
<event>
 6    1  0.9190795E-004  0.4920992E+03  0.7818608E-02  0.1015887E+00
         21   -1    0    0  503  502  0.00000000000E+00  0.00000000000E+00  0.47876695785E+03  0.47876695785E+03  0.00000000000E+00 0. -1.
         21   -1    0    0  501  503 -0.00000000000E+00 -0.00000000000E+00 -0.53158547066E+03  0.53158547066E+03  0.00000000000E+00 0. -1.
    9000007    2    1    2  501    0 -0.28426228644E+03  0.31430622993E+02 -0.13850206257E+03  0.51121857647E+03  0.40046058487E+03 0.  0.
    9000005    1    3    3    0    0 -0.37786545990E+03  0.27979137842E+02 -0.16589708462E+03  0.41362782863E+03  0.99999687468E+00 0.  0.
          4    1    3    3  501    0  0.93603173455E+02  0.34514851511E+01  0.27395022043E+02  0.97590747837E+02  0.00000000000E+00 0.  1.
   -9000007    1    1    2    0  502  0.28426228644E+03 -0.31430622993E+02  0.85683549771E+02  0.49913385204E+03  0.40000000000E+03 0. -1.
<mgrwt>
<rscale>  2 0.49200548E+03</rscale>
<asrwt>0</asrwt>
<pdfrwt beam="1">  1       21 0.73656455E-01 0.49209919E+03</pdfrwt>
<pdfrwt beam="2">  1       21 0.81782380E-01 0.49209919E+03</pdfrwt>
<totfact> 0.18389454E+03</totfact>
</mgrwt>
</event>
<event>
 6    1  0.9190795E-004  0.4215996E+03  0.7818608E-02  0.1036648E+00
         21   -1    0    0  503  502  0.00000000000E+00  0.00000000000E+00  0.14722278897E+04  0.14722278897E+04  0.00000000000E+00 0.  1.
         21   -1    0    0  501  503 -0.00000000000E+00 -0.00000000000E+00 -0.12194378597E+03  0.12194378597E+03  0.00000000000E+00 0. -1.
    9000007    2    1    2  501    0 -0.55040691483E+02 -0.11690912569E+03  0.76649925404E+03  0.87479557647E+03  0.40130907388E+03 0.  0.
    9000005    1    3    3    0    0 -0.62627183442E+02 -0.18306843508E+03  0.12611756504E+03  0.23096072444E+03  0.99999687468E+00 0.  0.
          4    1    3    3  501    0  0.75864919585E+01  0.66159309393E+02  0.64038168901E+03  0.64383485203E+03  0.00000000000E+00 0.  1.
   -9000007    1    1    2    0  502  0.55040691483E+02  0.11690912569E+03  0.58378484973E+03  0.71937609924E+03  0.40000000000E+03 0. -1.
<mgrwt>
<rscale>  2 0.42128775E+03</rscale>
<asrwt>0</asrwt>
<pdfrwt beam="1">  1       21 0.22649659E+00 0.42159957E+03</pdfrwt>
<pdfrwt beam="2">  1       21 0.18760584E-01 0.42159957E+03</pdfrwt>
<totfact> 0.20289633E+03</totfact>
</mgrwt>
</event>
<event>
 6    1  0.9190795E-004  0.4316571E+03  0.7818608E-02  0.1033359E+00
         21   -1    0    0  503  502  0.00000000000E+00  0.00000000000E+00  0.81773969978E+03  0.81773969978E+03  0.00000000000E+00 0. -1.
         21   -1    0    0  501  503 -0.00000000000E+00 -0.00000000000E+00 -0.50491523885E+03  0.50491523885E+03  0.00000000000E+00 0.  1.
    9000007    2    1    2  501    0 -0.14749204639E+03  0.65886429696E+02 -0.33357500595E+03  0.54552740974E+03  0.40029107512E+03 0.  0.
    9000005    1    3    3    0    0 -0.24335530025E+03  0.12694734117E+03 -0.33342533545E+03  0.43186905875E+03  0.99999687468E+00 0.  0.
          4    1    3    3  501    0  0.95863253856E+02 -0.61060911472E+02 -0.14967049887E+00  0.11365835099E+03  0.00000000000E+00 0.  1.
   -9000007    1    1    2    0  502  0.14749204639E+03 -0.65886429696E+02  0.64639946688E+03  0.77712752889E+03  0.40000000000E+03 0. -1.
<mgrwt>
<rscale>  2 0.43158963E+03</rscale>
<asrwt>0</asrwt>
<pdfrwt beam="1">  1       21 0.12580611E+00 0.43165712E+03</pdfrwt>
<pdfrwt beam="2">  1       21 0.77679267E-01 0.43165712E+03</pdfrwt>
<totfact> 0.58328966E+02</totfact>
</mgrwt>
</event>
<event>
 6    1  0.9190795E-004  0.5055399E+03  0.7818608E-02  0.1012359E+00
         21   -1    0    0  503  502  0.00000000000E+00  0.00000000000E+00  0.83947802572E+03  0.83947802572E+03  0.00000000000E+00 0.  1.
         21   -1    0    0  501  503 -0.00000000000E+00 -0.00000000000E+00 -0.31651235256E+03  0.31651235256E+03  0.00000000000E+00 0. -1.
    9000007    2    1    2  501    0  0.29932115224E+03 -0.77313635578E+02  0.14782896730E+03  0.52646825912E+03  0.39968096509E+03 0.  0.
    9000005    1    3    3    0    0 -0.40228255053E+01 -0.27641173163E+02 -0.11727251196E+03  0.12055728777E+03  0.99999687468E+00 0.  0.
          4    1    3    3  501    0  0.30334397775E+03 -0.49672462415E+02  0.26510147926E+03  0.40591097135E+03  0.00000000000E+00 0.  1.
   -9000007    1    1    2    0  502 -0.29932115224E+03  0.77313635578E+02  0.37513670587E+03  0.62952211916E+03  0.40000000000E+03 0. -1.
<mgrwt>
<rscale>  2 0.50547675E+03</rscale>
<asrwt>0</asrwt>
<pdfrwt beam="1">  1       21 0.12915046E+00 0.50553986E+03</pdfrwt>
<pdfrwt beam="2">  1       21 0.48694209E-01 0.50553986E+03</pdfrwt>
<totfact> 0.14808593E+03</totfact>
</mgrwt>
</event>
<event>
 6    1  0.9190795E-004  0.4996605E+03  0.7818608E-02  0.1013874E+00
         21   -1    0    0  503  502  0.00000000000E+00  0.00000000000E+00  0.41996267706E+03  0.41996267706E+03  0.00000000000E+00 0.  1.
         21   -1    0    0  501  503 -0.00000000000E+00 -0.00000000000E+00 -0.59474210930E+03  0.59474210930E+03  0.00000000000E+00 0.  1.
    9000007    2    1    2  501    0  0.17600628025E+02  0.29891612915E+03 -0.74679595215E+02  0.50511611719E+03  0.39988075164E+03 0.  0.
    9000005    1    3    3    0    0 -0.14259419809E+03  0.58389848428E+02 -0.14072045181E+03  0.20867612533E+03  0.99999687468E+00 0.  0.
          4    1    3    3  501    0  0.16019482612E+03  0.24052628072E+03  0.66040856600E+02  0.29643999186E+03  0.00000000000E+00 0.  1.
   -9000007    1    1    2    0  502 -0.17600628025E+02 -0.29891612915E+03 -0.10009983702E+03  0.50958866917E+03  0.40000000000E+03 0.  1.
<mgrwt>
<rscale>  2 0.49963665E+03</rscale>
<asrwt>0</asrwt>
<pdfrwt beam="1">  1       21 0.64609643E-01 0.49966052E+03</pdfrwt>
<pdfrwt beam="2">  1       21 0.91498785E-01 0.49966052E+03</pdfrwt>
<totfact> 0.18914297E+03</totfact>
</mgrwt>
</event>
<event>
 6    1  0.9190795E-004  0.6326285E+03  0.7818608E-02  0.9839950E-01
         21   -1    0    0  503  502  0.00000000000E+00  0.00000000000E+00  0.24529325099E+03  0.24529325099E+03  0.00000000000E+00 0.  1.
         21   -1    0    0  501  503 -0.00000000000E+00 -0.00000000000E+00 -0.20991518003E+04  0.20991518003E+04  0.00000000000E+00 0. -1.
    9000007    2    1    2  501    0  0.38709279027E+03  0.30055663586E+03 -0.14802321575E+04  0.16097534151E+04  0.40005461820E+03 0.  0.
    9000005    1    3    3    0    0  0.32204943810E+03  0.37854180083E+03 -0.13812479274E+04  0.14679429732E+04  0.99999687468E+00 0.  0.
          4    1    3    3  501    0  0.65043352177E+02 -0.77985164969E+02 -0.98984230103E+02  0.14181044188E+03  0.00000000000E+00 0.  1.
   -9000007    1    1    2    0  502 -0.38709279027E+03 -0.30055663586E+03 -0.37362639175E+03  0.73469163617E+03  0.40000000000E+03 0.  1.
<mgrwt>
<rscale>  2 0.63261986E+03</rscale>
<asrwt>0</asrwt>
<pdfrwt beam="1">  1       21 0.37737423E-01 0.63262850E+03</pdfrwt>
<pdfrwt beam="2">  1       21 0.32294643E+00 0.63262850E+03</pdfrwt>
<totfact> 0.11922540E+02</totfact>
</mgrwt>
</event>
<event>
 6    1  0.9190795E-004  0.4039669E+03  0.7818608E-02  0.1042433E+00
         21   -1    0    0  503  502  0.00000000000E+00  0.00000000000E+00  0.24949253375E+03  0.24949253375E+03  0.00000000000E+00 0.  1.
         21   -1    0    0  501  503 -0.00000000000E+00 -0.00000000000E+00 -0.66796174710E+03  0.66796174710E+03  0.00000000000E+00 0.  1.
    9000007    2    1    2  501    0  0.34920142293E+02 -0.44382517938E+02 -0.14222499801E+03  0.42806681600E+03  0.39977997032E+03 0.  0.
    9000005    1    3    3    0    0  0.18832706904E+03 -0.11315513970E+03 -0.20814406921E+02  0.22069302232E+03  0.99999687468E+00 0.  0.
          4    1    3    3  501    0 -0.15340692675E+03  0.68772621758E+02 -0.12141059109E+03  0.20737379368E+03  0.00000000000E+00 0.  1.
   -9000007    1    1    2    0  502 -0.34920142293E+02  0.44382517938E+02 -0.27624421534E+03  0.48938746484E+03  0.40000000000E+03 0. -1.
<mgrwt>
<rscale>  2 0.40391238E+03</rscale>
<asrwt>0</asrwt>
<pdfrwt beam="1">  1       21 0.38383467E-01 0.40396686E+03</pdfrwt>
<pdfrwt beam="2">  1       21 0.10276334E+00 0.40396686E+03</pdfrwt>
<totfact> 0.44832914E+03</totfact>
</mgrwt>
</event>
<event>
 6    1  0.9190795E-004  0.4243000E+03  0.7818608E-02  0.1035857E+00
         21   -1    0    0  503  502  0.00000000000E+00  0.00000000000E+00  0.11507922480E+04  0.11507922480E+04  0.00000000000E+00 0.  1.
         21   -1    0    0  501  503 -0.00000000000E+00 -0.00000000000E+00 -0.35654754633E+03  0.35654754633E+03  0.00000000000E+00 0.  1.
    9000007    2    1    2  501    0 -0.11763502395E+03  0.65461082995E+02 -0.16820139366E+03  0.45642322359E+03  0.40237705943E+03 0.  0.
    9000005    1    3    3    0    0 -0.25876811009E+03  0.17981502902E+02 -0.45237090764E+02  0.26330906482E+03  0.99999687468E+00 0.  0.
          4    1    3    3  501    0  0.14113308614E+03  0.47479580092E+02 -0.12296430290E+03  0.19311415876E+03  0.00000000000E+00 0.  1.
   -9000007    1    1    2    0  502  0.11763502395E+03 -0.65461082995E+02  0.96244609534E+03  0.10509165708E+04  0.40000000000E+03 0.  1.
<mgrwt>
<rscale>  2 0.42373544E+03</rscale>
<asrwt>0</asrwt>
<pdfrwt beam="1">  1       21 0.17704496E+00 0.42429995E+03</pdfrwt>
<pdfrwt beam="2">  1       21 0.54853469E-01 0.42429995E+03</pdfrwt>
<totfact> 0.50145462E+02</totfact>
</mgrwt>
</event>
<event>
 6    1  0.9190795E-004  0.5573939E+03  0.7818608E-02  0.9998812E-01
         21   -1    0    0  503  502  0.00000000000E+00  0.00000000000E+00  0.13424788648E+04  0.13424788648E+04  0.00000000000E+00 0.  1.
         21   -1    0    0  501  503 -0.00000000000E+00 -0.00000000000E+00 -0.24956457517E+03  0.24956457517E+03  0.00000000000E+00 0. -1.
    9000007    2    1    2  501    0  0.38501768776E+03  0.28312642500E+02  0.76531905324E+03  0.94678468217E+03  0.40205441860E+03 0.  0.
    9000005    1    3    3    0    0  0.70049355754E+02 -0.63659112595E+02 -0.19043732896E+02  0.96555986942E+02  0.99999687468E+00 0.  0.
          4    1    3    3  501    0  0.31496833201E+03  0.91971755095E+02  0.78436278614E+03  0.85022869522E+03  0.00000000000E+00 0.  1.
   -9000007    1    1    2    0  502 -0.38501768776E+03 -0.28312642500E+02  0.32759523639E+03  0.64525875780E+03  0.40000000000E+03 0. -1.
<mgrwt>
<rscale>  2 0.55702354E+03</rscale>
<asrwt>0</asrwt>
<pdfrwt beam="1">  1       21 0.20653521E+00 0.55739392E+03</pdfrwt>
<pdfrwt beam="2">  1       21 0.38394551E-01 0.55739392E+03</pdfrwt>
<totfact> 0.62967203E+02</totfact>
</mgrwt>
</event>
<event>
 6    1  0.9190795E-004  0.4774062E+03  0.7818608E-02  0.1019871E+00
         21   -1    0    0  503  502  0.00000000000E+00  0.00000000000E+00  0.77761546489E+03  0.77761546489E+03  0.00000000000E+00 0.  1.
         21   -1    0    0  501  503 -0.00000000000E+00 -0.00000000000E+00 -0.86816917107E+03  0.86816917107E+03  0.00000000000E+00 0.  1.
    9000007    2    1    2  501    0  0.43163802642E+01  0.26002532710E+03 -0.71512183383E+03  0.85983479791E+03  0.40035589242E+03 0.  0.
    9000005    1    3    3    0    0 -0.18448486829E+03  0.11598279548E+03 -0.21464910541E+03  0.30587892036E+03  0.99999687468E+00 0.  0.
          4    1    3    3  501    0  0.18880124856E+03  0.14404253162E+03 -0.50047272842E+03  0.55395587754E+03  0.00000000000E+00 0.  1.
   -9000007    1    1    2    0  502 -0.43163802642E+01 -0.26002532710E+03  0.62456812765E+03  0.78594983806E+03  0.40000000000E+03 0.  1.
<mgrwt>
<rscale>  2 0.47733154E+03</rscale>
<asrwt>0</asrwt>
<pdfrwt beam="1">  1       21 0.11963315E+00 0.47740616E+03</pdfrwt>
<pdfrwt beam="2">  1       21 0.13356449E+00 0.47740616E+03</pdfrwt>
<totfact> 0.17258440E+02</totfact>
</mgrwt>
</event>
<event>
 6    1  0.9190795E-004  0.5957852E+03  0.7818608E-02  0.9914255E-01
         21   -1    0    0  503  502  0.00000000000E+00  0.00000000000E+00  0.52721971317E+03  0.52721971317E+03  0.00000000000E+00 0. -1.
         21   -1    0    0  501  503 -0.00000000000E+00 -0.00000000000E+00 -0.15626269819E+04  0.15626269819E+04  0.00000000000E+00 0. -1.
    9000007    2    1    2  501    0 -0.11449697950E+02  0.44139427151E+03 -0.13060501762E+04  0.14354709760E+04  0.39981228299E+03 0.  0.
    9000005    1    3    3    0    0  0.75205377282E+02  0.44692840609E+03 -0.77842205357E+03  0.90074565912E+03  0.99999687468E+00 0.  0.
          4    1    3    3  501    0 -0.86655075232E+02 -0.55341345800E+01 -0.52762812260E+03  0.53472531684E+03  0.00000000000E+00 0.  1.
   -9000007    1    1    2    0  502  0.11449697950E+02 -0.44139427151E+03  0.27064290739E+03  0.65437571916E+03  0.40000000000E+03 0. -1.
<mgrwt>
<rscale>  2 0.59575369E+03</rscale>
<asrwt>0</asrwt>
<pdfrwt beam="1">  1       21 0.81110726E-01 0.59578519E+03</pdfrwt>
<pdfrwt beam="2">  1       21 0.24040415E+00 0.59578519E+03</pdfrwt>
<totfact> 0.73294674E+01</totfact>
</mgrwt>
</event>
<event>
 6    1  0.9190795E-004  0.4803792E+03  0.7818608E-02  0.1019157E+00
         21   -1    0    0  503  502  0.00000000000E+00  0.00000000000E+00  0.63488259769E+03  0.63488259769E+03  0.00000000000E+00 0. -1.
         21   -1    0    0  501  503 -0.00000000000E+00 -0.00000000000E+00 -0.40856351737E+03  0.40856351737E+03  0.00000000000E+00 0. -1.
    9000007    2    1    2  501    0 -0.23087110548E+03 -0.13214649871E+03 -0.62990678336E+02  0.48267494879E+03  0.39779783328E+03 0.  0.
    9000005    1    3    3    0    0 -0.42258950376E+02 -0.22861262862E+03 -0.12228147862E+03  0.26268481657E+03  0.99999687468E+00 0.  0.
          4    1    3    3  501    0 -0.18861215511E+03  0.96466129907E+02  0.59290800281E+02  0.21999013221E+03  0.00000000000E+00 0.  1.
   -9000007    1    1    2    0  502  0.23087110548E+03  0.13214649871E+03  0.28930975866E+03  0.56077116627E+03  0.40000000000E+03 0. -1.
<mgrwt>
<rscale>  2 0.47992050E+03</rscale>
<asrwt>0</asrwt>
<pdfrwt beam="1">  1       21 0.97674246E-01 0.48037919E+03</pdfrwt>
<pdfrwt beam="2">  1       21 0.62855926E-01 0.48037919E+03</pdfrwt>
<totfact> 0.17305035E+03</totfact>
</mgrwt>
</event>
<event>
 6    1  0.9190795E-004  0.4080444E+03  0.7818608E-02  0.1041119E+00
         21   -1    0    0  503  502  0.00000000000E+00  0.00000000000E+00  0.74374671764E+03  0.74374671764E+03  0.00000000000E+00 0.  1.
         21   -1    0    0  501  503 -0.00000000000E+00 -0.00000000000E+00 -0.22505013624E+03  0.22505013624E+03  0.00000000000E+00 0.  1.
    9000007    2    1    2  501    0  0.74672505379E+02 -0.74703460674E+01  0.21675644147E+03  0.46204283344E+03  0.40108407583E+03 0.  0.
    9000005    1    3    3    0    0 -0.56257750779E+02 -0.37655325734E+02 -0.98398164452E+02  0.11944059963E+03  0.99999687468E+00 0.  0.
          4    1    3    3  501    0  0.13093025616E+03  0.30184979666E+02  0.31515460593E+03  0.34260223381E+03  0.00000000000E+00 0.  1.
   -9000007    1    1    2    0  502 -0.74672505379E+02  0.74703460674E+01  0.30194013992E+03  0.50675402043E+03  0.40000000000E+03 0.  1.
<mgrwt>
<rscale>  2 0.40777775E+03</rscale>
<asrwt>0</asrwt>
<pdfrwt beam="1">  1       21 0.11442257E+00 0.40804439E+03</pdfrwt>
<pdfrwt beam="2">  1       21 0.34623098E-01 0.40804439E+03</pdfrwt>
<totfact> 0.42325318E+03</totfact>
</mgrwt>
</event>
<event>
 6    1  0.9190795E-004  0.6093018E+03  0.7818608E-02  0.9886345E-01
         21   -1    0    0  503  502  0.00000000000E+00  0.00000000000E+00  0.18432591234E+04  0.18432591234E+04  0.00000000000E+00 0. -1.
         21   -1    0    0  501  503 -0.00000000000E+00 -0.00000000000E+00 -0.38698291826E+03  0.38698291826E+03  0.00000000000E+00 0.  1.
    9000007    2    1    2  501    0  0.45878843299E+03 -0.25267732590E+02 -0.44108846316E+02  0.61089631353E+03  0.40015425901E+03 0.  0.
    9000005    1    3    3    0    0  0.39519353749E+03  0.12413907731E+03  0.59196425893E+02  0.41844194271E+03  0.99999687468E+00 0.  0.
          4    1    3    3  501    0  0.63594895500E+02 -0.14940680990E+03 -0.10330527221E+03  0.19245437081E+03  0.00000000000E+00 0.  1.
   -9000007    1    1    2    0  502 -0.45878843299E+03  0.25267732590E+02  0.15003850514E+04  0.16193457281E+04  0.40000000000E+03 0. -1.
<mgrwt>
<rscale>  2 0.60927650E+03</rscale>
<asrwt>0</asrwt>
<pdfrwt beam="1">  1       21 0.28357832E+00 0.60930183E+03</pdfrwt>
<pdfrwt beam="2">  1       21 0.59535835E-01 0.60930183E+03</pdfrwt>
<totfact> 0.79459482E+01</totfact>
</mgrwt>
</event>
<event>
 6    1  0.9190795E-004  0.4811949E+03  0.7818608E-02  0.1018834E+00
         21   -1    0    0  503  502  0.00000000000E+00  0.00000000000E+00  0.12483313080E+03  0.12483313080E+03  0.00000000000E+00 0. -1.
         21   -1    0    0  501  503 -0.00000000000E+00 -0.00000000000E+00 -0.18533778775E+04  0.18533778775E+04  0.00000000000E+00 0. -1.
    9000007    2    1    2  501    0 -0.21573504982E+03 -0.15813577376E+03 -0.85987765010E+03  0.98516969023E+03  0.39952623286E+03 0.  0.
    9000005    1    3    3    0    0 -0.42436895889E+02 -0.23859374104E+01 -0.70298243200E+03  0.70426691142E+03  0.99999687468E+00 0.  0.
          4    1    3    3  501    0 -0.17329815393E+03 -0.15574983635E+03 -0.15689521811E+03  0.28090277881E+03  0.00000000000E+00 0.  1.
   -9000007    1    1    2    0  502  0.21573504982E+03  0.15813577376E+03 -0.86866709660E+03  0.99304131807E+03  0.40000000000E+03 0. -1.
<mgrwt>
<rscale>  2 0.48109643E+03</rscale>
<asrwt>0</asrwt>
<pdfrwt beam="1">  1       21 0.19205099E-01 0.48119490E+03</pdfrwt>
<pdfrwt beam="2">  1       21 0.28513502E+00 0.48119490E+03</pdfrwt>
<totfact> 0.82371604E+02</totfact>
</mgrwt>
</event>
<event>
 6    1  0.9190795E-004  0.6167061E+03  0.7818608E-02  0.9871351E-01
         21   -1    0    0  503  502  0.00000000000E+00  0.00000000000E+00  0.56768079904E+03  0.56768079904E+03  0.00000000000E+00 0. -1.
         21   -1    0    0  501  503 -0.00000000000E+00 -0.00000000000E+00 -0.71240778032E+03  0.71240778032E+03  0.00000000000E+00 0. -1.
    9000007    2    1    2  501    0 -0.41674420819E+03  0.21592264494E+03  0.83904298085E+02  0.62238759444E+03  0.40003507699E+03 0.  0.
    9000005    1    3    3    0    0 -0.24058560578E+03 -0.46268710860E+01  0.20416150256E+03  0.31557211659E+03  0.99999687468E+00 0.  0.
          4    1    3    3  501    0 -0.17615860241E+03  0.22054951602E+03 -0.12025720448E+03  0.30681547785E+03  0.00000000000E+00 0.  1.
   -9000007    1    1    2    0  502  0.41674420819E+03 -0.21592264494E+03 -0.22863127937E+03  0.65770098492E+03  0.40000000000E+03 0. -1.
<mgrwt>
<rscale>  2 0.61670039E+03</rscale>
<asrwt>0</asrwt>
<pdfrwt beam="1">  1       21 0.87335507E-01 0.61670608E+03</pdfrwt>
<pdfrwt beam="2">  1       21 0.10960120E+00 0.61670608E+03</pdfrwt>
<totfact> 0.58648930E+02</totfact>
</mgrwt>
</event>
<event>
 6    1  0.9190795E-004  0.4054971E+03  0.7818608E-02  0.1041978E+00
         21   -1    0    0  503  502  0.00000000000E+00  0.00000000000E+00  0.10730010694E+04  0.10730010694E+04  0.00000000000E+00 0. -1.
         21   -1    0    0  501  503 -0.00000000000E+00 -0.00000000000E+00 -0.15515220795E+03  0.15515220795E+03  0.00000000000E+00 0. -1.
    9000007    2    1    2  501    0 -0.29522776606E+02 -0.52431184885E+02  0.53404343259E+03  0.67054478503E+03  0.40100785198E+03 0.  0.
    9000005    1    3    3    0    0  0.16411112408E+03  0.67003869970E+02  0.25389929112E+03  0.30965760069E+03  0.99999687468E+00 0.  0.
          4    1    3    3  501    0 -0.19363390068E+03 -0.11943505486E+03  0.28014414147E+03  0.36088718434E+03  0.00000000000E+00 0.  1.
   -9000007    1    1    2    0  502  0.29522776606E+02  0.52431184885E+02  0.38380542887E+03  0.55760849233E+03  0.40000000000E+03 0.  1.
<mgrwt>
<rscale>  2 0.40524773E+03</rscale>
<asrwt>0</asrwt>
<pdfrwt beam="1">  1       21 0.16507708E+00 0.40549713E+03</pdfrwt>
<pdfrwt beam="2">  1       21 0.23869571E-01 0.40549713E+03</pdfrwt>
<totfact> 0.33547633E+03</totfact>
</mgrwt>
</event>
<event>
 6    1  0.9190795E-004  0.4342729E+03  0.7818608E-02  0.1032567E+00
         21   -1    0    0  503  502  0.00000000000E+00  0.00000000000E+00  0.35756665623E+03  0.35756665623E+03  0.00000000000E+00 0.  1.
         21   -1    0    0  501  503 -0.00000000000E+00 -0.00000000000E+00 -0.60106166631E+03  0.60106166631E+03  0.00000000000E+00 0.  1.
    9000007    2    1    2  501    0 -0.11991478060E+03  0.11695000727E+03  0.46785446518E+02  0.43678581537E+03  0.40066957920E+03 0.  0.
    9000005    1    3    3    0    0 -0.19761965367E+03 -0.67117633209E+02  0.97936574465E+02  0.23054473929E+03  0.99999687468E+00 0.  0.
          4    1    3    3  501    0  0.77704873069E+02  0.18406764048E+03 -0.51151127947E+02  0.20624107608E+03  0.00000000000E+00 0.  1.
   -9000007    1    1    2    0  502  0.11991478060E+03 -0.11695000727E+03 -0.29028045660E+03  0.52184250717E+03  0.40000000000E+03 0.  1.
<mgrwt>
<rscale>  2 0.43411842E+03</rscale>
<asrwt>0</asrwt>
<pdfrwt beam="1">  1       21 0.55010256E-01 0.43427292E+03</pdfrwt>
<pdfrwt beam="2">  1       21 0.92471024E-01 0.43427292E+03</pdfrwt>
<totfact> 0.26856770E+03</totfact>
</mgrwt>
</event>
<event>
 6    1  0.9190795E-004  0.4361338E+03  0.7818608E-02  0.1032974E+00
         21   -1    0    0  503  502  0.00000000000E+00  0.00000000000E+00  0.68564197125E+03  0.68564197125E+03  0.00000000000E+00 0.  1.
         21   -1    0    0  501  503 -0.00000000000E+00 -0.00000000000E+00 -0.31551449781E+03  0.31551449781E+03  0.00000000000E+00 0. -1.
    9000007    2    1    2  501    0  0.29047263683E+02  0.17137379486E+03 -0.92301888625E+01  0.42312104018E+03  0.38565982052E+03 0.  0.
    9000005    1    3    3    0    0 -0.62913298496E+02 -0.96955372207E+02 -0.67071285154E+02  0.13363377048E+03  0.99999687468E+00 0.  0.
          4    1    3    3  501    0  0.91960562180E+02  0.26832916707E+03  0.57841096292E+02  0.28948726970E+03  0.00000000000E+00 0.  1.
   -9000007    1    1    2    0  502 -0.29047263683E+02 -0.17137379486E+03  0.37935766231E+03  0.57803542888E+03  0.40000000000E+03 0.  1.
<mgrwt>
<rscale>  2 0.43281784E+03</rscale>
<asrwt>0</asrwt>
<pdfrwt beam="1">  1       21 0.10548338E+00 0.43613383E+03</pdfrwt>
<pdfrwt beam="2">  1       21 0.48540692E-01 0.43613383E+03</pdfrwt>
<totfact> 0.25494316E+03</totfact>
</mgrwt>
</event>
<event>
 6    1  0.9190795E-004  0.4433706E+03  0.7818608E-02  0.1029904E+00
         21   -1    0    0  503  502  0.00000000000E+00  0.00000000000E+00  0.93458271571E+03  0.93458271571E+03  0.00000000000E+00 0.  1.
         21   -1    0    0  501  503 -0.00000000000E+00 -0.00000000000E+00 -0.25447189146E+03  0.25447189146E+03  0.00000000000E+00 0.  1.
    9000007    2    1    2  501    0  0.18913501982E+03  0.28380639810E+02  0.88450255140E+02  0.44970371248E+03  0.39728134231E+03 0.  0.
    9000005    1    3    3    0    0  0.18827230961E+03  0.15939732863E+03 -0.57779310156E+02  0.25336420350E+03  0.99999687468E+00 0.  0.
          4    1    3    3  501    0  0.86271020956E+00 -0.13101668882E+03  0.14622956530E+03  0.19633950898E+03  0.00000000000E+00 0.  1.
   -9000007    1    1    2    0  502 -0.18913501982E+03 -0.28380639810E+02  0.59166056911E+03  0.73935089469E+03  0.40000000000E+03 0.  1.
<mgrwt>
<rscale>  2 0.44275657E+03</rscale>
<asrwt>0</asrwt>
<pdfrwt beam="1">  1       21 0.14378195E+00 0.44337063E+03</pdfrwt>
<pdfrwt beam="2">  1       21 0.39149522E-01 0.44337063E+03</pdfrwt>
<totfact> 0.18016879E+03</totfact>
</mgrwt>
</event>
<event>
 6    1  0.9190795E-004  0.8168373E+03  0.7818608E-02  0.9536008E-01
         21   -1    0    0  503  502  0.00000000000E+00  0.00000000000E+00  0.96221805382E+03  0.96221805382E+03  0.00000000000E+00 0.  1.
         21   -1    0    0  501  503 -0.00000000000E+00 -0.00000000000E+00 -0.83970090597E+03  0.83970090597E+03  0.00000000000E+00 0.  1.
    9000007    2    1    2  501    0 -0.48571600679E+03 -0.52065679101E+03 -0.31492371664E+03  0.87544281697E+03  0.40027446236E+03 0.  0.
    9000005    1    3    3    0    0 -0.20252683252E+03 -0.47291509645E+03 -0.11974239321E+03  0.52820928340E+03  0.99999687468E+00 0.  0.
          4    1    3    3  501    0 -0.28318917427E+03 -0.47741694554E+02 -0.19518132343E+03  0.34723353358E+03  0.00000000000E+00 0.  1.
   -9000007    1    1    2    0  502  0.48571600679E+03  0.52065679101E+03  0.43744086449E+03  0.92647614281E+03  0.40000000000E+03 0.  1.
<mgrwt>
<rscale>  2 0.81680369E+03</rscale>
<asrwt>0</asrwt>
<pdfrwt beam="1">  1       21 0.14803355E+00 0.81683730E+03</pdfrwt>
<pdfrwt beam="2">  1       21 0.12918475E+00 0.81683730E+03</pdfrwt>
<totfact> 0.94562430E+01</totfact>
</mgrwt>
</event>
<event>
 6    1  0.9190795E-004  0.4192631E+03  0.7818608E-02  0.1037527E+00
         21   -1    0    0  503  502  0.00000000000E+00  0.00000000000E+00  0.32412517129E+03  0.32412517129E+03  0.00000000000E+00 0. -1.
         21   -1    0    0  501  503 -0.00000000000E+00 -0.00000000000E+00 -0.67489849723E+03  0.67489849723E+03  0.00000000000E+00 0. -1.
    9000007    2    1    2  501    0 -0.12031949485E+03 -0.36122049990E+02 -0.39920462964E+03  0.57697251698E+03  0.39717926140E+03 0.  0.
    9000005    1    3    3    0    0 -0.22789681304E+03 -0.69745487635E+02 -0.10223636664E+03  0.25933504409E+03  0.99999687468E+00 0.  0.
          4    1    3    3  501    0  0.10757731819E+03  0.33623437644E+02 -0.29696826301E+03  0.31763747288E+03  0.00000000000E+00 0.  1.
   -9000007    1    1    2    0  502  0.12031949485E+03  0.36122049990E+02  0.48431303706E+02  0.42205115154E+03  0.40000000000E+03 0. -1.
<mgrwt>
<rscale>  2 0.41858895E+03</rscale>
<asrwt>0</asrwt>
<pdfrwt beam="1">  1       21 0.49865411E-01 0.41926314E+03</pdfrwt>
<pdfrwt beam="2">  1       21 0.10383054E+00 0.41926314E+03</pdfrwt>
<totfact> 0.25195689E+03</totfact>
</mgrwt>
</event>
<event>
 6    1  0.9190795E-004  0.4327242E+03  0.7818608E-02  0.1033134E+00
         21   -1    0    0  503  502  0.00000000000E+00  0.00000000000E+00  0.25408563414E+03  0.25408563414E+03  0.00000000000E+00 0. -1.
         21   -1    0    0  501  503 -0.00000000000E+00 -0.00000000000E+00 -0.73935363542E+03  0.73935363542E+03  0.00000000000E+00 0. -1.
    9000007    2    1    2  501    0  0.15486153838E+03 -0.42780026203E+02 -0.28487087239E+03  0.51807495035E+03  0.40179349613E+03 0.  0.
    9000005    1    3    3    0    0 -0.68512144374E+00 -0.20076248604E+03 -0.19169461830E+03  0.27758579191E+03  0.99999687468E+00 0.  0.
          4    1    3    3  501    0  0.15554665982E+03  0.15798245984E+03 -0.93176254096E+02  0.24048915844E+03  0.00000000000E+00 0.  1.
   -9000007    1    1    2    0  502 -0.15486153838E+03  0.42780026203E+02 -0.20039712889E+03  0.47536431921E+03  0.40000000000E+03 0.  1.
<mgrwt>
<rscale>  2 0.43230741E+03</rscale>
<asrwt>0</asrwt>
<pdfrwt beam="1">  1       21 0.39090097E-01 0.43272421E+03</pdfrwt>
<pdfrwt beam="2">  1       21 0.11374671E+00 0.43272421E+03</pdfrwt>
<totfact> 0.33252168E+03</totfact>
</mgrwt>
</event>
<event>
 6    1  0.9190795E-004  0.4794317E+03  0.7818608E-02  0.1019293E+00
         21   -1    0    0  503  502  0.00000000000E+00  0.00000000000E+00  0.12969751741E+04  0.12969751741E+04  0.00000000000E+00 0.  1.
         21   -1    0    0  501  503 -0.00000000000E+00 -0.00000000000E+00 -0.85320241148E+03  0.85320241148E+03  0.00000000000E+00 0.  1.
    9000007    2    1    2  501    0  0.36581711267E+02 -0.26170453927E+03 -0.73505991467E+03  0.87759204090E+03  0.40003402933E+03 0.  0.
    9000005    1    3    3    0    0  0.98956812361E+02 -0.19568305315E+03 -0.10882044889E+03  0.24480032291E+03  0.99999687468E+00 0.  0.
          4    1    3    3  501    0 -0.62375101094E+02 -0.66021486113E+02 -0.62623946577E+03  0.63279171799E+03  0.00000000000E+00 0.  1.
   -9000007    1    1    2    0  502 -0.36581711267E+02  0.26170453927E+03  0.11788326772E+04  0.12725855446E+04  0.40000000000E+03 0.  1.
<mgrwt>
<rscale>  2 0.47942456E+03</rscale>
<asrwt>0</asrwt>
<pdfrwt beam="1">  1       21 0.19953464E+00 0.47943166E+03</pdfrwt>
<pdfrwt beam="2">  1       21 0.13126191E+00 0.47943166E+03</pdfrwt>
<totfact> 0.43695815E+01</totfact>
</mgrwt>
</event>
<event>
 6    1  0.9190795E-004  0.4483458E+03  0.7818608E-02  0.1028254E+00
         21   -1    0    0  503  502  0.00000000000E+00  0.00000000000E+00  0.56990669308E+03  0.56990669308E+03  0.00000000000E+00 0.  1.
         21   -1    0    0  501  503 -0.00000000000E+00 -0.00000000000E+00 -0.46345043650E+03  0.46345043650E+03  0.00000000000E+00 0.  1.
    9000007    2    1    2  501    0  0.16996481654E+03  0.11011772766E+03  0.30621862899E+03  0.54252216929E+03  0.39943272603E+03 0.  0.
    9000005    1    3    3    0    0  0.11168112417E+02  0.10561230866E+03 -0.74672978407E+02  0.12982965830E+03  0.99999687468E+00 0.  0.
          4    1    3    3  501    0  0.15879670413E+03  0.45054189961E+01  0.38089160740E+03  0.41269251099E+03  0.00000000000E+00 0.  1.
   -9000007    1    1    2    0  502 -0.16996481654E+03 -0.11011772766E+03 -0.19976237242E+03  0.49083496029E+03  0.40000000000E+03 0.  1.
<mgrwt>
<rscale>  2 0.44821923E+03</rscale>
<asrwt>0</asrwt>
<pdfrwt beam="1">  1       21 0.87677953E-01 0.44834580E+03</pdfrwt>
<pdfrwt beam="2">  1       21 0.71300067E-01 0.44834580E+03</pdfrwt>
<totfact> 0.17092751E+03</totfact>
</mgrwt>
</event>
<event>
 6    1  0.9190795E-004  0.4553323E+03  0.7818608E-02  0.1026236E+00
         21   -1    0    0  503  502  0.00000000000E+00  0.00000000000E+00  0.17695758832E+03  0.17695758832E+03  0.00000000000E+00 0.  1.
         21   -1    0    0  501  503 -0.00000000000E+00 -0.00000000000E+00 -0.12627111387E+04  0.12627111387E+04  0.00000000000E+00 0.  1.
    9000007    2    1    2  501    0 -0.15023515531E+03 -0.15365718774E+03 -0.74031861363E+03  0.86913701996E+03  0.40143041309E+03 0.  0.
    9000005    1    3    3    0    0 -0.63313642266E+02 -0.77649039670E+02 -0.74679720122E+03  0.75348858678E+03  0.99999687468E+00 0.  0.
          4    1    3    3  501    0 -0.86921513041E+02 -0.76008148067E+02  0.64785875895E+01  0.11564843319E+03  0.00000000000E+00 0.  1.
   -9000007    1    1    2    0  502  0.15023515531E+03  0.15365718774E+03 -0.34543493676E+03  0.57053170707E+03  0.40000000000E+03 0.  1.
<mgrwt>
<rscale>  2 0.45501683E+03</rscale>
<asrwt>0</asrwt>
<pdfrwt beam="1">  1       21 0.27224244E-01 0.45533231E+03</pdfrwt>
<pdfrwt beam="2">  1       21 0.19426325E+00 0.45533231E+03</pdfrwt>
<totfact> 0.15826319E+03</totfact>
</mgrwt>
</event>
<event>
 6    1  0.9190795E-004  0.5393492E+03  0.7818608E-02  0.1004107E+00
         21   -1    0    0  503  502  0.00000000000E+00  0.00000000000E+00  0.36534447708E+03  0.36534447708E+03  0.00000000000E+00 0. -1.
         21   -1    0    0  501  503 -0.00000000000E+00 -0.00000000000E+00 -0.94056424518E+03  0.94056424518E+03  0.00000000000E+00 0.  1.
    9000007    2    1    2  501    0  0.36010698084E+03 -0.34935690828E+02 -0.54552414321E+03  0.76574266419E+03  0.39732568103E+03 0.  0.
    9000005    1    3    3    0    0  0.15381377685E+03  0.13392976311E+03 -0.61274614575E+02  0.21295877014E+03  0.99999687468E+00 0.  0.
          4    1    3    3  501    0  0.20629320399E+03 -0.16886545394E+03 -0.48424952863E+03  0.55278389405E+03  0.00000000000E+00 0.  1.
   -9000007    1    1    2    0  502 -0.36010698084E+03  0.34935690828E+02 -0.29695624895E+02  0.54016605806E+03  0.40000000000E+03 0. -1.
<mgrwt>
<rscale>  2 0.53885341E+03</rscale>
<asrwt>0</asrwt>
<pdfrwt beam="1">  1       21 0.56206843E-01 0.53934918E+03</pdfrwt>
<pdfrwt beam="2">  1       21 0.14470219E+00 0.53934918E+03</pdfrwt>
<totfact> 0.79540057E+02</totfact>
</mgrwt>
</event>
<event>
 6    1  0.9190795E-004  0.5190834E+03  0.7818608E-02  0.1008942E+00
         21   -1    0    0  503  502  0.00000000000E+00  0.00000000000E+00  0.65898996913E+03  0.65898996913E+03  0.00000000000E+00 0. -1.
         21   -1    0    0  501  503 -0.00000000000E+00 -0.00000000000E+00 -0.63863804605E+03  0.63863804605E+03  0.00000000000E+00 0. -1.
    9000007    2    1    2  501    0 -0.24240278855E+03 -0.22413123795E+03  0.39963044568E+03  0.65509698759E+03  0.40056665651E+03 0.  0.
    9000005    1    3    3    0    0 -0.11520931209E+02  0.11122987336E+03  0.80840860787E+02  0.13798935231E+03  0.99999687468E+00 0.  0.
          4    1    3    3  501    0 -0.23088185734E+03 -0.33536111131E+03  0.31878958489E+03  0.51710763528E+03  0.00000000000E+00 0.  1.
   -9000007    1    1    2    0  502  0.24240278855E+03  0.22413123795E+03 -0.37927852260E+03  0.64253102760E+03  0.40000000000E+03 0.  1.
<mgrwt>
<rscale>  2 0.51897407E+03</rscale>
<asrwt>0</asrwt>
<pdfrwt beam="1">  1       21 0.10138307E+00 0.51908339E+03</pdfrwt>
<pdfrwt beam="2">  1       21 0.98252007E-01 0.51908339E+03</pdfrwt>
<totfact> 0.55483226E+02</totfact>
</mgrwt>
</event>
<event>
 6    1  0.9190795E-004  0.4041390E+03  0.7818608E-02  0.1042370E+00
         21   -1    0    0  503  502  0.00000000000E+00  0.00000000000E+00  0.79517984284E+03  0.79517984284E+03  0.00000000000E+00 0.  1.
         21   -1    0    0  501  503 -0.00000000000E+00 -0.00000000000E+00 -0.20576862801E+03  0.20576862801E+03  0.00000000000E+00 0.  1.
    9000007    2    1    2  501    0  0.46473067091E+02 -0.34184239477E+02  0.27113807261E+03  0.48653025456E+03  0.39983437320E+03 0.  0.
    9000005    1    3    3    0    0 -0.31645730411E+02  0.17481068174E+03  0.15081047400E+03  0.23303438752E+03  0.99999687468E+00 0.  0.
          4    1    3    3  501    0  0.78118797503E+02 -0.20899492122E+03  0.12032759861E+03  0.25349586704E+03  0.00000000000E+00 0.  1.
   -9000007    1    1    2    0  502 -0.46473067091E+02  0.34184239477E+02  0.31827314221E+03  0.51441821629E+03  0.40000000000E+03 0.  1.
<mgrwt>
<rscale>  2 0.40409798E+03</rscale>
<asrwt>0</asrwt>
<pdfrwt beam="1">  1       21 0.12233536E+00 0.40413897E+03</pdfrwt>
<pdfrwt beam="2">  1       21 0.31656713E-01 0.40413897E+03</pdfrwt>
<totfact> 0.42865184E+03</totfact>
</mgrwt>
</event>
<event>
 6    1  0.9190795E-004  0.1001515E+04  0.7818608E-02  0.9306970E-01
         21   -1    0    0  503  502  0.00000000000E+00  0.00000000000E+00  0.12099326782E+04  0.12099326782E+04  0.00000000000E+00 0. -1.
         21   -1    0    0  501  503 -0.00000000000E+00 -0.00000000000E+00 -0.82877675184E+03  0.82877675184E+03  0.00000000000E+00 0. -1.
    9000007    2    1    2  501    0 -0.91797905188E+03 -0.18615141496E+02  0.19722928072E+03  0.10204456753E+04  0.39922164769E+03 0.  0.
    9000005    1    3    3    0    0 -0.54077593996E+03  0.88737273159E+02  0.28628085495E+03  0.61828039658E+03  0.99999687468E+00 0.  0.
          4    1    3    3  501    0 -0.37720311192E+03 -0.10735241465E+03 -0.89051574239E+02  0.40216527877E+03  0.00000000000E+00 0.  1.
   -9000007    1    1    2    0  502  0.91797905188E+03  0.18615141496E+02  0.18392664567E+03  0.10182637547E+04  0.40000000000E+03 0. -1.
<mgrwt>
<rscale>  2 0.10014372E+04</rscale>
<asrwt>0</asrwt>
<pdfrwt beam="1">  1       21 0.18614349E+00 0.10015149E+04</pdfrwt>
<pdfrwt beam="2">  1       21 0.12750412E+00 0.10015149E+04</pdfrwt>
<totfact> 0.47970484E+01</totfact>
</mgrwt>
</event>
<event>
 6    1  0.9190795E-004  0.5784396E+03  0.7818608E-02  0.9951639E-01
         21   -1    0    0  503  502  0.00000000000E+00  0.00000000000E+00  0.12357101230E+03  0.12357101230E+03  0.00000000000E+00 0. -1.
         21   -1    0    0  501  503 -0.00000000000E+00 -0.00000000000E+00 -0.27248200296E+04  0.27248200296E+04  0.00000000000E+00 0. -1.
    9000007    2    1    2  501    0  0.41769457088E+03 -0.11119375328E+02 -0.14250738513E+04  0.15376735223E+04  0.39876306808E+03 0.  0.
    9000005    1    3    3    0    0  0.17534366860E+03 -0.20048936017E+03 -0.74835318727E+03  0.79433927169E+03  0.99999687468E+00 0.  0.
          4    1    3    3  501    0  0.24235090228E+03  0.18936998485E+03 -0.67672066405E+03  0.74333425062E+03  0.00000000000E+00 0.  1.
   -9000007    1    1    2    0  502 -0.41769457088E+03  0.11119375328E+02 -0.11761751659E+04  0.13107175195E+04  0.40000000000E+03 0. -1.
<mgrwt>
<rscale>  2 0.57822584E+03</rscale>
<asrwt>0</asrwt>
<pdfrwt beam="1">  1       21 0.19010927E-01 0.57843962E+03</pdfrwt>
<pdfrwt beam="2">  1       21 0.41920303E+00 0.57843962E+03</pdfrwt>
<totfact> 0.11675505E+02</totfact>
</mgrwt>
</event>
<event>
 6    1  0.9190795E-004  0.4991181E+03  0.7818608E-02  0.1014025E+00
         21   -1    0    0  503  502  0.00000000000E+00  0.00000000000E+00  0.40318388915E+03  0.40318388915E+03  0.00000000000E+00 0.  1.
         21   -1    0    0  501  503 -0.00000000000E+00 -0.00000000000E+00 -0.99670405218E+03  0.99670405218E+03  0.00000000000E+00 0. -1.
    9000007    2    1    2  501    0 -0.25442066054E+03 -0.15616971872E+03 -0.72840061788E+03  0.88286609397E+03  0.39970767594E+03 0.  0.
    9000005    1    3    3    0    0 -0.35130432595E+03 -0.67136953370E+02 -0.60304333210E+03  0.70113077262E+03  0.99999687468E+00 0.  0.
          4    1    3    3  501    0  0.96883665407E+02 -0.89032765345E+02 -0.12535728578E+03  0.18173532135E+03  0.00000000000E+00 0.  1.
   -9000007    1    1    2    0  502  0.25442066054E+03  0.15616971872E+03  0.13488045485E+03  0.51702184737E+03  0.40000000000E+03 0.  1.
<mgrwt>
<rscale>  2 0.49905950E+03</rscale>
<asrwt>0</asrwt>
<pdfrwt beam="1">  1       21 0.62028291E-01 0.49911808E+03</pdfrwt>
<pdfrwt beam="2">  1       21 0.15333908E+00 0.49911808E+03</pdfrwt>
<totfact> 0.55571365E+02</totfact>
</mgrwt>
</event>
<event>
 6    1  0.9190795E-004  0.4018794E+03  0.7818608E-02  0.1043146E+00
         21   -1    0    0  503  502  0.00000000000E+00  0.00000000000E+00  0.18135230611E+04  0.18135230611E+04  0.00000000000E+00 0.  1.
         21   -1    0    0  501  503 -0.00000000000E+00 -0.00000000000E+00 -0.19185067268E+03  0.19185067268E+03  0.00000000000E+00 0.  1.
    9000007    2    1    2  501    0  0.35622929750E+02 -0.15429241837E+02  0.76663199519E+02  0.40895259623E+03  0.39982236703E+03 0.  0.
    9000005    1    3    3    0    0  0.17837248434E+03 -0.10005985823E+03 -0.36953033809E+02  0.20783465809E+03  0.99999687468E+00 0.  0.
          4    1    3    3  501    0 -0.14274955459E+03  0.84630616394E+02  0.11361623333E+03  0.20111793814E+03  0.00000000000E+00 0.  1.
   -9000007    1    1    2    0  502 -0.35622929750E+02  0.15429241837E+02  0.15450091889E+04  0.15964211376E+04  0.40000000000E+03 0.  1.
<mgrwt>
<rscale>  2 0.40183520E+03</rscale>
<asrwt>0</asrwt>
<pdfrwt beam="1">  1       21 0.27900354E+00 0.40187940E+03</pdfrwt>
<pdfrwt beam="2">  1       21 0.29515489E-01 0.40187940E+03</pdfrwt>
<totfact> 0.40797575E+02</totfact>
</mgrwt>
</event>
<event>
 6    1  0.9190795E-004  0.4010510E+03  0.7818608E-02  0.1043455E+00
         21   -1    0    0  503  502  0.00000000000E+00  0.00000000000E+00  0.10898215598E+04  0.10898215598E+04  0.00000000000E+00 0. -1.
         21   -1    0    0  501  503 -0.00000000000E+00 -0.00000000000E+00 -0.16415326185E+03  0.16415326185E+03  0.00000000000E+00 0. -1.
    9000007    2    1    2  501    0  0.12017635192E+02 -0.18336444225E+02  0.26288459940E+03  0.47953122795E+03  0.40045129197E+03 0.  0.
    9000005    1    3    3    0    0  0.67005364317E+02 -0.98224342267E+02 -0.66449486555E+02  0.13621407606E+03  0.99999687468E+00 0.  0.
          4    1    3    3  501    0 -0.54987729125E+02  0.79887898042E+02  0.32933408595E+03  0.34331715189E+03  0.00000000000E+00 0.  1.
   -9000007    1    1    2    0  502 -0.12017635192E+02  0.18336444225E+02  0.66278369853E+03  0.77444359367E+03  0.40000000000E+03 0. -1.
<mgrwt>
<rscale>  2 0.40093828E+03</rscale>
<asrwt>0</asrwt>
<pdfrwt beam="1">  1       21 0.16766485E+00 0.40105098E+03</pdfrwt>
<pdfrwt beam="2">  1       21 0.25254349E-01 0.40105098E+03</pdfrwt>
<totfact> 0.28843476E+03</totfact>
</mgrwt>
</event>
<event>
 6    1  0.9190795E-004  0.4453955E+03  0.7818608E-02  0.1029107E+00
         21   -1    0    0  503  502  0.00000000000E+00  0.00000000000E+00  0.19894799488E+03  0.19894799488E+03  0.00000000000E+00 0. -1.
         21   -1    0    0  501  503 -0.00000000000E+00 -0.00000000000E+00 -0.11980522851E+04  0.11980522851E+04  0.00000000000E+00 0. -1.
    9000007    2    1    2  501    0 -0.17675426716E+03  0.84469235384E+02 -0.21343448196E+03  0.49386453698E+03  0.39996347348E+03 0.  0.
    9000005    1    3    3    0    0 -0.16371859037E+02  0.81123587958E+02  0.10714495405E+03  0.13538875679E+03  0.99999687468E+00 0.  0.
          4    1    3    3  501    0 -0.16038240812E+03  0.33456474257E+01 -0.32057943602E+03  0.35847578020E+03  0.00000000000E+00 0.  1.
   -9000007    1    1    2    0  502  0.17675426716E+03 -0.84469235384E+02 -0.78566980829E+03  0.90313574304E+03  0.40000000000E+03 0. -1.
<mgrwt>
<rscale>  2 0.44538727E+03</rscale>
<asrwt>0</asrwt>
<pdfrwt beam="1">  1       21 0.30607384E-01 0.44539547E+03</pdfrwt>
<pdfrwt beam="2">  1       21 0.18431574E+00 0.44539547E+03</pdfrwt>
<totfact> 0.14750330E+03</totfact>
</mgrwt>
</event>
<event>
 6    1  0.9190795E-004  0.4125579E+03  0.7818608E-02  0.1039524E+00
         21   -1    0    0  503  502  0.00000000000E+00  0.00000000000E+00  0.23134029401E+03  0.23134029401E+03  0.00000000000E+00 0. -1.
         21   -1    0    0  501  503 -0.00000000000E+00 -0.00000000000E+00 -0.75616315859E+03  0.75616315859E+03  0.00000000000E+00 0. -1.
    9000007    2    1    2  501    0  0.87099880950E+02 -0.50413164752E+02 -0.18094884350E+03  0.45049580012E+03  0.40009512059E+03 0.  0.
    9000005    1    3    3    0    0  0.17729663148E+03 -0.17834843781E+03 -0.78631338658E+02  0.26348842140E+03  0.99999687468E+00 0.  0.
          4    1    3    3  501    0 -0.90196750529E+02  0.12793527305E+03 -0.10231750484E+03  0.18700737872E+03  0.00000000000E+00 0.  1.
   -9000007    1    1    2    0  502 -0.87099880950E+02  0.50413164752E+02 -0.34387402109E+03  0.53700765248E+03  0.40000000000E+03 0. -1.
<mgrwt>
<rscale>  2 0.41253479E+03</rscale>
<asrwt>0</asrwt>
<pdfrwt beam="1">  1       21 0.35590815E-01 0.41255785E+03</pdfrwt>
<pdfrwt beam="2">  1       21 0.11633279E+00 0.41255785E+03</pdfrwt>
<totfact> 0.38345289E+03</totfact>
</mgrwt>
</event>
<event>
 6    1  0.9190795E-004  0.5974912E+03  0.7818608E-02  0.9910710E-01
         21   -1    0    0  503  502  0.00000000000E+00  0.00000000000E+00  0.16060471521E+04  0.16060471521E+04  0.00000000000E+00 0. -1.
         21   -1    0    0  501  503 -0.00000000000E+00 -0.00000000000E+00 -0.30443350952E+03  0.30443350952E+03  0.00000000000E+00 0. -1.
    9000007    2    1    2  501    0 -0.37643901422E+03 -0.23513686099E+03  0.15433921462E+03  0.61694508504E+03  0.39975613812E+03 0.  0.
    9000005    1    3    3    0    0 -0.29209494045E+03  0.37449655185E+02  0.15243566308E+03  0.33160151128E+03  0.99999687468E+00 0.  0.
          4    1    3    3  501    0 -0.84344073775E+02 -0.27258651617E+03  0.19035515331E+01  0.28534357376E+03  0.00000000000E+00 0.  1.
   -9000007    1    1    2    0  502  0.37643901422E+03  0.23513686099E+03  0.11472744279E+04  0.12935355766E+04  0.40000000000E+03 0. -1.
<mgrwt>
<rscale>  2 0.59745034E+03</rscale>
<asrwt>0</asrwt>
<pdfrwt beam="1">  1       21 0.24708417E+00 0.59749115E+03</pdfrwt>
<pdfrwt beam="2">  1       21 0.46835925E-01 0.59749115E+03</pdfrwt>
<totfact> 0.22494811E+02</totfact>
</mgrwt>
</event>
<event>
 6    1  0.9190795E-004  0.4949091E+03  0.7818608E-02  0.1015183E+00
         21   -1    0    0  503  502  0.00000000000E+00  0.00000000000E+00  0.45247151789E+03  0.45247151789E+03  0.00000000000E+00 0. -1.
         21   -1    0    0  501  503 -0.00000000000E+00 -0.00000000000E+00 -0.64891478082E+03  0.64891478082E+03  0.00000000000E+00 0. -1.
    9000007    2    1    2  501    0  0.23526013540E+03  0.16907647967E+03 -0.32368732781E+03  0.59136155486E+03  0.40124906866E+03 0.  0.
    9000005    1    3    3    0    0 -0.37957846900E+02 -0.55857667038E+02 -0.20853622778E+03  0.21920135811E+03  0.99999687468E+00 0.  0.
          4    1    3    3  501    0  0.27321798230E+03  0.22493414671E+03 -0.11515110003E+03  0.37216019675E+03  0.00000000000E+00 0.  1.
   -9000007    1    1    2    0  502 -0.23526013540E+03 -0.16907647967E+03  0.12724406488E+03  0.51002474384E+03  0.40000000000E+03 0. -1.
<mgrwt>
<rscale>  2 0.49465585E+03</rscale>
<asrwt>0</asrwt>
<pdfrwt beam="1">  1       21 0.69611003E-01 0.49490908E+03</pdfrwt>
<pdfrwt beam="2">  1       21 0.99833043E-01 0.49490908E+03</pdfrwt>
<totfact> 0.12997648E+03</totfact>
</mgrwt>
</event>
<event>
 6    1  0.9190795E-004  0.4102503E+03  0.7818608E-02  0.1040292E+00
         21   -1    0    0  503  502  0.00000000000E+00  0.00000000000E+00  0.59738095979E+03  0.59738095979E+03  0.00000000000E+00 0.  1.
         21   -1    0    0  501  503 -0.00000000000E+00 -0.00000000000E+00 -0.14635438429E+04  0.14635438429E+04  0.00000000000E+00 0.  1.
    9000007    2    1    2  501    0  0.84157767258E+02  0.34968348192E+02 -0.13590722410E+04  0.14196253794E+04  0.39994192869E+03 0.  0.
    9000005    1    3    3    0    0  0.77208247281E+01 -0.12511115561E+03 -0.14083933946E+03  0.18854477432E+03  0.99999687468E+00 0.  0.
          4    1    3    3  501    0  0.76436942530E+02  0.16007950380E+03 -0.12182329016E+04  0.12310806051E+04  0.00000000000E+00 0.  1.
   -9000007    1    1    2    0  502 -0.84157767258E+02 -0.34968348192E+02  0.49290935794E+03  0.64129942329E+03  0.40000000000E+03 0.  1.
<mgrwt>
<rscale>  2 0.41023615E+03</rscale>
<asrwt>0</asrwt>
<pdfrwt beam="1">  1       21 0.91904764E-01 0.41025031E+03</pdfrwt>
<pdfrwt beam="2">  1       21 0.22516059E+00 0.41025031E+03</pdfrwt>
<totfact> 0.75427286E+01</totfact>
</mgrwt>
</event>
<event>
 6    1  0.9190795E-004  0.4252566E+03  0.7818608E-02  0.1035720E+00
         21   -1    0    0  503  502  0.00000000000E+00  0.00000000000E+00  0.93487910839E+03  0.93487910839E+03  0.00000000000E+00 0. -1.
         21   -1    0    0  501  503 -0.00000000000E+00 -0.00000000000E+00 -0.45398767637E+03  0.45398767637E+03  0.00000000000E+00 0. -1.
    9000007    2    1    2  501    0  0.44716495773E+02  0.13727198548E+03 -0.28814535953E+03  0.51008310845E+03  0.39536548447E+03 0.  0.
    9000005    1    3    3    0    0  0.64392886280E+02  0.27152412837E+03 -0.23329418625E+03  0.36372925840E+03  0.99999687468E+00 0.  0.
          4    1    3    3  501    0 -0.19676390507E+02 -0.13425214288E+03 -0.54851173282E+02  0.14635385004E+03  0.00000000000E+00 0.  1.
   -9000007    1    1    2    0  502 -0.44716495773E+02 -0.13727198548E+03  0.76903679155E+03  0.87878367631E+03  0.40000000000E+03 0. -1.
<mgrwt>
<rscale>  2 0.42416329E+03</rscale>
<asrwt>0</asrwt>
<pdfrwt beam="1">  1       21 0.14382755E+00 0.42525658E+03</pdfrwt>
<pdfrwt beam="2">  1       21 0.69844258E-01 0.42525658E+03</pdfrwt>
<totfact> 0.52448494E+02</totfact>
</mgrwt>
</event>
<event>
 6    1  0.9190795E-004  0.4776210E+03  0.7818608E-02  0.1019808E+00
         21   -1    0    0  503  502  0.00000000000E+00  0.00000000000E+00  0.11248476241E+04  0.11248476241E+04  0.00000000000E+00 0. -1.
         21   -1    0    0  501  503 -0.00000000000E+00 -0.00000000000E+00 -0.21868344214E+03  0.21868344214E+03  0.00000000000E+00 0. -1.
    9000007    2    1    2  501    0  0.25856235097E+03  0.32084718857E+02  0.27156045611E+03  0.54942414184E+03  0.40029724929E+03 0.  0.
    9000005    1    3    3    0    0  0.33524265267E+02  0.18819292661E+02 -0.10428880291E+03  0.11115393175E+03  0.99999687468E+00 0.  0.
          4    1    3    3  501    0  0.22503808570E+03  0.13265426196E+02  0.37584925902E+03  0.43827021009E+03  0.00000000000E+00 0.  1.
   -9000007    1    1    2    0  502 -0.25856235097E+03 -0.32084718857E+02  0.63460372589E+03  0.79410692444E+03  0.40000000000E+03 0. -1.
<mgrwt>
<rscale>  2 0.47755870E+03</rscale>
<asrwt>0</asrwt>
<pdfrwt beam="1">  1       21 0.17305348E+00 0.47762099E+03</pdfrwt>
<pdfrwt beam="2">  1       21 0.33643607E-01 0.47762099E+03</pdfrwt>
<totfact> 0.14470403E+03</totfact>
</mgrwt>
</event>
<event>
 6    1  0.9190795E-004  0.4097420E+03  0.7818608E-02  0.1040463E+00
         21   -1    0    0  503  502  0.00000000000E+00  0.00000000000E+00  0.10617431456E+04  0.10617431456E+04  0.00000000000E+00 0. -1.
         21   -1    0    0  501  503 -0.00000000000E+00 -0.00000000000E+00 -0.66842399300E+03  0.66842399300E+03  0.00000000000E+00 0. -1.
    9000007    2    1    2  501    0  0.85371550892E+02  0.24499230961E+02 -0.55922748223E+03  0.69323242245E+03  0.39993412036E+03 0.  0.
    9000005    1    3    3    0    0  0.13283579684E+03 -0.64275455946E+02 -0.25088453976E+02  0.14969005871E+03  0.99999687468E+00 0.  0.
          4    1    3    3  501    0 -0.47464245945E+02  0.88774686907E+02 -0.53413902825E+03  0.54354236374E+03  0.00000000000E+00 0.  1.
   -9000007    1    1    2    0  502 -0.85371550892E+02 -0.24499230961E+02  0.95254663483E+03  0.10369347161E+04  0.40000000000E+03 0. -1.
<mgrwt>
<rscale>  2 0.40972593E+03</rscale>
<asrwt>0</asrwt>
<pdfrwt beam="1">  1       21 0.16334510E+00 0.40974201E+03</pdfrwt>
<pdfrwt beam="2">  1       21 0.10283446E+00 0.40974201E+03</pdfrwt>
<totfact> 0.15121650E+02</totfact>
</mgrwt>
</event>
<event>
 6    1  0.9190795E-004  0.5085359E+03  0.7818608E-02  0.1011705E+00
         21   -1    0    0  503  502  0.00000000000E+00  0.00000000000E+00  0.17859754855E+03  0.17859754855E+03  0.00000000000E+00 0.  1.
         21   -1    0    0  501  503 -0.00000000000E+00 -0.00000000000E+00 -0.14662260333E+04  0.14662260333E+04  0.00000000000E+00 0.  1.
    9000007    2    1    2  501    0  0.24431158760E+03 -0.19197884149E+03 -0.53983164068E+03  0.74163802649E+03  0.40257264517E+03 0.  0.
    9000005    1    3    3    0    0 -0.36850710143E+02 -0.57340697624E+02 -0.38972933791E+03  0.39564616423E+03  0.99999687468E+00 0.  0.
          4    1    3    3  501    0  0.28116229774E+03 -0.13463814387E+03 -0.15010230276E+03  0.34599186226E+03  0.00000000000E+00 0.  1.
   -9000007    1    1    2    0  502 -0.24431158760E+03  0.19197884149E+03 -0.74779684409E+03  0.90318555538E+03  0.40000000000E+03 0.  1.
<mgrwt>
<rscale>  2 0.50802660E+03</rscale>
<asrwt>0</asrwt>
<pdfrwt beam="1">  1       21 0.27476545E-01 0.50853590E+03</pdfrwt>
<pdfrwt beam="2">  1       21 0.22557324E+00 0.50853590E+03</pdfrwt>
<totfact> 0.94741142E+02</totfact>
</mgrwt>
</event>
<event>
 6    1  0.9190795E-004  0.4320804E+03  0.7818608E-02  0.1033444E+00
         21   -1    0    0  503  502  0.00000000000E+00  0.00000000000E+00  0.25953071244E+03  0.25953071244E+03  0.00000000000E+00 0.  1.
         21   -1    0    0  501  503 -0.00000000000E+00 -0.00000000000E+00 -0.11298061333E+04  0.11298061333E+04  0.00000000000E+00 0.  1.
    9000007    2    1    2  501    0  0.12840184615E+03  0.10102678428E+03 -0.85543514751E+03  0.95700169921E+03  0.39672347482E+03 0.  0.
    9000005    1    3    3    0    0  0.10885447903E+03  0.15633050743E+03 -0.13333881053E+03  0.23252690930E+03  0.99999687468E+00 0.  0.
          4    1    3    3  501    0  0.19547367112E+02 -0.55303723149E+02 -0.72209633697E+03  0.72447478992E+03  0.00000000000E+00 0.  1.
   -9000007    1    1    2    0  502 -0.12840184615E+03 -0.10102678428E+03 -0.14840273383E+02  0.43233514656E+03  0.40000000000E+03 0.  1.
<mgrwt>
<rscale>  2 0.43132050E+03</rscale>
<asrwt>0</asrwt>
<pdfrwt beam="1">  1       21 0.39927802E-01 0.43208037E+03</pdfrwt>
<pdfrwt beam="2">  1       21 0.17381633E+00 0.43208037E+03</pdfrwt>
<totfact> 0.10281116E+03</totfact>
</mgrwt>
</event>
<event>
 6    1  0.9190795E-004  0.6096465E+03  0.7818608E-02  0.9885713E-01
         21   -1    0    0  503  502  0.00000000000E+00  0.00000000000E+00  0.73957942695E+03  0.73957942695E+03  0.00000000000E+00 0. -1.
         21   -1    0    0  501  503 -0.00000000000E+00 -0.00000000000E+00 -0.77956579139E+03  0.77956579139E+03  0.00000000000E+00 0. -1.
    9000007    2    1    2  501    0 -0.44405468559E+03 -0.11914514211E+03 -0.47295096869E+03  0.77159021887E+03  0.40036073533E+03 0.  0.
    9000005    1    3    3    0    0 -0.54878353004E+02 -0.18855716321E+03 -0.24941155366E+03  0.31744694127E+03  0.99999687468E+00 0.  0.
          4    1    3    3  501    0 -0.38917633259E+03  0.69412021103E+02 -0.22353941503E+03  0.45414327760E+03  0.00000000000E+00 0.  1.
   -9000007    1    1    2    0  502  0.44405468559E+03  0.11914514211E+03  0.43296460425E+03  0.74755499946E+03  0.40000000000E+03 0. -1.
<mgrwt>
<rscale>  2 0.60958728E+03</rscale>
<asrwt>0</asrwt>
<pdfrwt beam="1">  1       21 0.11378145E+00 0.60964649E+03</pdfrwt>
<pdfrwt beam="2">  1       21 0.11993320E+00 0.60964649E+03</pdfrwt>
<totfact> 0.24513565E+02</totfact>
</mgrwt>
</event>
<event>
 6    1  0.9190795E-004  0.4052074E+03  0.7818608E-02  0.1042039E+00
         21   -1    0    0  503  502  0.00000000000E+00  0.00000000000E+00  0.57606908601E+03  0.57606908601E+03  0.00000000000E+00 0. -1.
         21   -1    0    0  501  503 -0.00000000000E+00 -0.00000000000E+00 -0.29739863816E+03  0.29739863816E+03  0.00000000000E+00 0. -1.
    9000007    2    1    2  501    0 -0.61046808829E+02 -0.40491078811E+01  0.48941671560E+02  0.40815232704E+03  0.40056201357E+03 0.  0.
    9000005    1    3    3    0    0 -0.19911578430E+03 -0.81929032096E+02  0.10559446560E+03  0.23981378821E+03  0.99999687468E+00 0.  0.
          4    1    3    3  501    0  0.13806897547E+03  0.77879924215E+02 -0.56652794040E+02  0.16833853883E+03  0.00000000000E+00 0.  1.
   -9000007    1    1    2    0  502  0.61046808829E+02  0.40491078811E+01  0.22972877630E+03  0.46531539712E+03  0.40000000000E+03 0. -1.
<mgrwt>
<rscale>  2 0.40506844E+03</rscale>
<asrwt>0</asrwt>
<pdfrwt beam="1">  1       21 0.88626013E-01 0.40520740E+03</pdfrwt>
<pdfrwt beam="2">  1       21 0.45753637E-01 0.40520740E+03</pdfrwt>
<totfact> 0.44412840E+03</totfact>
</mgrwt>
</event>
<event>
 6    1  0.9190795E-004  0.4619502E+03  0.7818608E-02  0.1024373E+00
         21   -1    0    0  503  502  0.00000000000E+00  0.00000000000E+00  0.19301894574E+03  0.19301894574E+03  0.00000000000E+00 0. -1.
         21   -1    0    0  501  503 -0.00000000000E+00 -0.00000000000E+00 -0.11466504414E+04  0.11466504414E+04  0.00000000000E+00 0. -1.
    9000007    2    1    2  501    0 -0.21976715341E+03 -0.55791931516E+02 -0.34339691628E+03  0.57560356326E+03  0.40247692927E+03 0.  0.
    9000005    1    3    3    0    0 -0.44723523060E+02  0.11927846479E+03 -0.29775694081E+03  0.32386376993E+03  0.99999687468E+00 0.  0.
          4    1    3    3  501    0 -0.17504363035E+03 -0.17507039630E+03 -0.45639975465E+02  0.25173979333E+03  0.00000000000E+00 0.  1.
   -9000007    1    1    2    0  502  0.21976715341E+03  0.55791931516E+02 -0.61023457942E+03  0.76406582391E+03  0.40000000000E+03 0. -1.
<mgrwt>
<rscale>  2 0.46141018E+03</rscale>
<asrwt>0</asrwt>
<pdfrwt beam="1">  1       21 0.29695223E-01 0.46195024E+03</pdfrwt>
<pdfrwt beam="2">  1       21 0.17640776E+00 0.46195024E+03</pdfrwt>
<totfact> 0.17685606E+03</totfact>
</mgrwt>
</event>
<event>
 6    1  0.9190795E-004  0.5253940E+03  0.7818608E-02  0.1007368E+00
         21   -1    0    0  503  502  0.00000000000E+00  0.00000000000E+00  0.56810352942E+03  0.56810352942E+03  0.00000000000E+00 0. -1.
         21   -1    0    0  501  503 -0.00000000000E+00 -0.00000000000E+00 -0.57010560268E+03  0.57010560268E+03  0.00000000000E+00 0.  1.
    9000007    2    1    2  501    0 -0.10393354227E+03  0.32407417184E+03 -0.21996835080E+03  0.56958311422E+03  0.40026566001E+03 0.  0.
    9000005    1    3    3    0    0 -0.73874152659E+02  0.33197980272E+02  0.10487200740E+03  0.13250899688E+03  0.99999687468E+00 0.  0.
          4    1    3    3  501    0 -0.30059389612E+02  0.29087619157E+03 -0.32484035820E+03  0.43707411733E+03  0.00000000000E+00 0.  1.
   -9000007    1    1    2    0  502  0.10393354227E+03 -0.32407417184E+03  0.21796627755E+03  0.56862601788E+03  0.40000000000E+03 0. -1.
<mgrwt>
<rscale>  2 0.52534340E+03</rscale>
<asrwt>0</asrwt>
<pdfrwt beam="1">  1       21 0.87400543E-01 0.52539399E+03</pdfrwt>
<pdfrwt beam="2">  1       21 0.87708554E-01 0.52539399E+03</pdfrwt>
<totfact> 0.10376295E+03</totfact>
</mgrwt>
</event>
<event>
 6    1  0.9190795E-004  0.4714063E+03  0.7818608E-02  0.1021554E+00
         21   -1    0    0  503  502  0.00000000000E+00  0.00000000000E+00  0.33857904993E+03  0.33857904993E+03  0.00000000000E+00 0.  1.
         21   -1    0    0  501  503 -0.00000000000E+00 -0.00000000000E+00 -0.65633191060E+03  0.65633191060E+03  0.00000000000E+00 0.  1.
    9000007    2    1    2  501    0 -0.14789760301E+03  0.19986633886E+03 -0.17380426162E+03  0.50242598254E+03  0.40050429734E+03 0.  0.
    9000005    1    3    3    0    0 -0.55582632059E+02  0.14143487223E+03  0.11699120461E+03  0.19178423819E+03  0.99999687468E+00 0.  0.
          4    1    3    3  501    0 -0.92314970948E+02  0.58431466628E+02 -0.29079546623E+03  0.31064174435E+03  0.00000000000E+00 0.  1.
   -9000007    1    1    2    0  502  0.14789760301E+03 -0.19986633886E+03 -0.14394859905E+03  0.49248497800E+03  0.40000000000E+03 0.  1.
<mgrwt>
<rscale>  2 0.47129922E+03</rscale>
<asrwt>0</asrwt>
<pdfrwt beam="1">  1       21 0.52089084E-01 0.47140635E+03</pdfrwt>
<pdfrwt beam="2">  1       21 0.10097414E+00 0.47140635E+03</pdfrwt>
<totfact> 0.24107150E+03</totfact>
</mgrwt>
</event>
<event>
 6    1  0.9190795E-004  0.4914894E+03  0.7818608E-02  0.1016034E+00
         21   -1    0    0  503  502  0.00000000000E+00  0.00000000000E+00  0.10016404315E+04  0.10016404315E+04  0.00000000000E+00 0.  1.
         21   -1    0    0  501  503 -0.00000000000E+00 -0.00000000000E+00 -0.24530274346E+03  0.24530274346E+03  0.00000000000E+00 0. -1.
    9000007    2    1    2  501    0 -0.22395171892E+03  0.17722147075E+03  0.45978041223E+03  0.67291526631E+03  0.39981884154E+03 0.  0.
    9000005    1    3    3    0    0 -0.12848335719E+03  0.76609780828E+02 -0.39506707734E+02  0.15472172292E+03  0.99999687468E+00 0.  0.
          4    1    3    3  501    0 -0.95468361730E+02  0.10061168992E+03  0.49928711997E+03  0.51819354338E+03  0.00000000000E+00 0.  1.
   -9000007    1    1    2    0  502  0.22395171892E+03 -0.17722147075E+03  0.29655727586E+03  0.57402790870E+03  0.40000000000E+03 0. -1.
<mgrwt>
<rscale>  2 0.49145253E+03</rscale>
<asrwt>0</asrwt>
<pdfrwt beam="1">  1       21 0.15409853E+00 0.49148939E+03</pdfrwt>
<pdfrwt beam="2">  1       21 0.37738884E-01 0.49148939E+03</pdfrwt>
<totfact> 0.15795979E+03</totfact>
</mgrwt>
</event>
<event>
 6    1  0.9190795E-004  0.5533013E+03  0.7818608E-02  0.1000734E+00
         21   -1    0    0  503  502  0.00000000000E+00  0.00000000000E+00  0.39529621796E+03  0.39529621796E+03  0.00000000000E+00 0. -1.
         21   -1    0    0  501  503 -0.00000000000E+00 -0.00000000000E+00 -0.78627239809E+03  0.78627239809E+03  0.00000000000E+00 0.  1.
    9000007    2    1    2  501    0  0.19732863457E+03 -0.32741980207E+03 -0.12294738040E+03  0.56676640860E+03  0.39995723116E+03 0.  0.
    9000005    1    3    3    0    0 -0.24704639027E+01 -0.41776320232E+02  0.12967657590E+03  0.13626583745E+03  0.99999687468E+00 0.  0.
          4    1    3    3  501    0  0.19979909847E+03 -0.28564348184E+03 -0.25262395630E+03  0.43050057116E+03  0.00000000000E+00 0.  1.
   -9000007    1    1    2    0  502 -0.19732863457E+03  0.32741980207E+03 -0.26802879973E+03  0.61480220746E+03  0.40000000000E+03 0. -1.
<mgrwt>
<rscale>  2 0.55329356E+03</rscale>
<asrwt>0</asrwt>
<pdfrwt beam="1">  1       21 0.60814803E-01 0.55330129E+03</pdfrwt>
<pdfrwt beam="2">  1       21 0.12096498E+00 0.55330129E+03</pdfrwt>
<totfact> 0.10667132E+03</totfact>
</mgrwt>
</event>
<event>
 6    1  0.9190795E-004  0.5565944E+03  0.7818608E-02  0.1000027E+00
         21   -1    0    0  503  502  0.00000000000E+00  0.00000000000E+00  0.10949292772E+04  0.10949292772E+04  0.00000000000E+00 0.  1.
         21   -1    0    0  501  503 -0.00000000000E+00 -0.00000000000E+00 -0.43880366701E+03  0.43880366701E+03  0.00000000000E+00 0.  1.
    9000007    2    1    2  501    0  0.25839689811E+03  0.28814647814E+03 -0.12977252056E+03  0.57069960015E+03  0.39882298919E+03 0.  0.
    9000005    1    3    3    0    0 -0.96756058386E+02  0.25428677403E+01  0.16110061965E+00  0.96794767203E+02  0.99999687468E+00 0.  0.
          4    1    3    3  501    0  0.35515295650E+03  0.28560361040E+03 -0.12993362118E+03  0.47390483295E+03  0.00000000000E+00 0.  1.
   -9000007    1    1    2    0  502 -0.25839689811E+03 -0.28814647814E+03  0.78589813072E+03  0.96303334401E+03  0.40000000000E+03 0.  1.
<mgrwt>
<rscale>  2 0.55638299E+03</rscale>
<asrwt>0</asrwt>
<pdfrwt beam="1">  1       21 0.16845066E+00 0.55659442E+03</pdfrwt>
<pdfrwt beam="2">  1       21 0.67508257E-01 0.55659442E+03</pdfrwt>
<totfact> 0.34552716E+02</totfact>
</mgrwt>
</event>
<event>
 6    1  0.9190795E-004  0.4351691E+03  0.7818608E-02  0.1032285E+00
         21   -1    0    0  503  502  0.00000000000E+00  0.00000000000E+00  0.41762464611E+03  0.41762464611E+03  0.00000000000E+00 0. -1.
         21   -1    0    0  501  503 -0.00000000000E+00 -0.00000000000E+00 -0.75467172051E+03  0.75467172051E+03  0.00000000000E+00 0. -1.
    9000007    2    1    2  501    0 -0.84449492699E+02 -0.14742232457E+03 -0.53927922671E+03  0.69296046975E+03  0.40063333570E+03 0.  0.
    9000005    1    3    3    0    0  0.44410710993E+02 -0.21654342112E+03 -0.12570298827E+03  0.25429432895E+03  0.99999687468E+00 0.  0.
          4    1    3    3  501    0 -0.12886020369E+03  0.69121096549E+02 -0.41357623844E+03  0.43866614080E+03  0.00000000000E+00 0.  1.
   -9000007    1    1    2    0  502  0.84449492699E+02  0.14742232457E+03  0.20223215231E+03  0.47933589687E+03  0.40000000000E+03 0. -1.
<mgrwt>
<rscale>  2 0.43502326E+03</rscale>
<asrwt>0</asrwt>
<pdfrwt beam="1">  1       21 0.64249947E-01 0.43516908E+03</pdfrwt>
<pdfrwt beam="2">  1       21 0.11610334E+00 0.43516908E+03</pdfrwt>
<totfact> 0.10956772E+03</totfact>
</mgrwt>
</event>
<event>
 6    1  0.9190795E-004  0.5688744E+03  0.7818608E-02  0.9972311E-01
         21   -1    0    0  503  502  0.00000000000E+00  0.00000000000E+00  0.30405803508E+03  0.30405803508E+03  0.00000000000E+00 0. -1.
         21   -1    0    0  501  503 -0.00000000000E+00 -0.00000000000E+00 -0.11784958495E+04  0.11784958495E+04  0.00000000000E+00 0. -1.
    9000007    2    1    2  501    0  0.28156846245E+03  0.28992060684E+03 -0.66849532232E+03  0.87778362460E+03  0.40035401627E+03 0.  0.
    9000005    1    3    3    0    0  0.25916713835E+03  0.12057926284E+03 -0.64481582722E+03  0.70533354894E+03  0.99999687468E+00 0.  0.
          4    1    3    3  501    0  0.22401324107E+02  0.16934134400E+03 -0.23679495096E+02  0.17245007567E+03  0.00000000000E+00 0.  1.
   -9000007    1    1    2    0  502 -0.28156846245E+03 -0.28992060684E+03 -0.20594249214E+03  0.60477026001E+03  0.40000000000E+03 0. -1.
<mgrwt>
<rscale>  2 0.56881213E+03</rscale>
<asrwt>0</asrwt>
<pdfrwt beam="1">  1       21 0.46778159E-01 0.56887441E+03</pdfrwt>
<pdfrwt beam="2">  1       21 0.18130705E+00 0.56887441E+03</pdfrwt>
<totfact> 0.61768745E+02</totfact>
</mgrwt>
</event>
<event>
 6    1  0.9190795E-004  0.4596109E+03  0.7818608E-02  0.1024907E+00
         21   -1    0    0  503  502  0.00000000000E+00  0.00000000000E+00  0.14446853613E+03  0.14446853613E+03  0.00000000000E+00 0.  1.
         21   -1    0    0  501  503 -0.00000000000E+00 -0.00000000000E+00 -0.20709924876E+04  0.20709924876E+04  0.00000000000E+00 0.  1.
    9000007    2    1    2  501    0  0.12178499395E+03  0.19038377799E+03 -0.15642664129E+04  0.16303900093E+04  0.40020570242E+03 0.  0.
    9000005    1    3    3    0    0 -0.31331702178E+02 -0.22191918958E+02  0.56002473657E+01  0.38813909783E+02  0.99999687468E+00 0.  0.
          4    1    3    3  501    0  0.15311669613E+03  0.21257569695E+03 -0.15698666602E+04  0.15915760995E+04  0.00000000000E+00 0.  1.
   -9000007    1    1    2    0  502 -0.12178499395E+03 -0.19038377799E+03 -0.36225753860E+03  0.58507101444E+03  0.40000000000E+03 0.  1.
<mgrwt>
<rscale>  2 0.45956611E+03</rscale>
<asrwt>0</asrwt>
<pdfrwt beam="1">  1       21 0.22225929E-01 0.45961089E+03</pdfrwt>
<pdfrwt beam="2">  1       21 0.31861422E+00 0.45961089E+03</pdfrwt>
<totfact> 0.39605293E+02</totfact>
</mgrwt>
</event>
<event>
 6    1  0.9190795E-004  0.4469933E+03  0.7818608E-02  0.1028689E+00
         21   -1    0    0  503  502  0.00000000000E+00  0.00000000000E+00  0.18355313367E+03  0.18355313367E+03  0.00000000000E+00 0. -1.
         21   -1    0    0  501  503 -0.00000000000E+00 -0.00000000000E+00 -0.11964355651E+04  0.11964355651E+04  0.00000000000E+00 0. -1.
    9000007    2    1    2  501    0 -0.18907537289E+03  0.57160236782E+02 -0.29763100480E+03  0.53701693615E+03  0.40098152748E+03 0.  0.
    9000005    1    3    3    0    0  0.33644343080E+02 -0.14338867003E+03 -0.97675154225E+02  0.17673055271E+03  0.99999687468E+00 0.  0.
          4    1    3    3  501    0 -0.22271971597E+03  0.20054890681E+03 -0.19995585058E+03  0.36028638343E+03  0.00000000000E+00 0.  1.
   -9000007    1    1    2    0  502  0.18907537289E+03 -0.57160236782E+02 -0.71525142662E+03  0.84297176263E+03  0.40000000000E+03 0. -1.
<mgrwt>
<rscale>  2 0.44677303E+03</rscale>
<asrwt>0</asrwt>
<pdfrwt beam="1">  1       21 0.28238945E-01 0.44699326E+03</pdfrwt>
<pdfrwt beam="2">  1       21 0.18406700E+00 0.44699326E+03</pdfrwt>
<totfact> 0.17360419E+03</totfact>
</mgrwt>
</event>
<event>
 6    1  0.9190795E-004  0.4968690E+03  0.7818608E-02  0.1015211E+00
         21   -1    0    0  503  502  0.00000000000E+00  0.00000000000E+00  0.53249391540E+03  0.53249391540E+03  0.00000000000E+00 0.  1.
         21   -1    0    0  501  503 -0.00000000000E+00 -0.00000000000E+00 -0.45637651828E+03  0.45637651828E+03  0.00000000000E+00 0.  1.
    9000007    2    1    2  501    0  0.21069919004E+03  0.18280349439E+03  0.64832741644E+02  0.50108091996E+03  0.41117823108E+03 0.  0.
    9000005    1    3    3    0    0 -0.38626652089E+02 -0.97546923371E+02  0.69536313285E+02  0.12587183708E+03  0.99999687468E+00 0.  0.
          4    1    3    3  501    0  0.24932584213E+03  0.28035041776E+03 -0.47035716411E+01  0.37520908288E+03  0.00000000000E+00 0.  1.
   -9000007    1    1    2    0  502 -0.21069919004E+03 -0.18280349439E+03  0.11284655474E+02  0.48778951372E+03  0.40000000000E+03 0.  1.
<mgrwt>
<rscale>  2 0.49455031E+03</rscale>
<asrwt>0</asrwt>
<pdfrwt beam="1">  1       21 0.81922141E-01 0.49686900E+03</pdfrwt>
<pdfrwt beam="2">  1       21 0.70211772E-01 0.49686900E+03</pdfrwt>
<totfact> 0.20385499E+03</totfact>
</mgrwt>
</event>
<event>
 6    1  0.9190795E-004  0.8390034E+03  0.7818608E-02  0.9505340E-01
         21   -1    0    0  503  502  0.00000000000E+00  0.00000000000E+00  0.98700050821E+03  0.98700050821E+03  0.00000000000E+00 0.  1.
         21   -1    0    0  501  503 -0.00000000000E+00 -0.00000000000E+00 -0.78126429323E+03  0.78126429323E+03  0.00000000000E+00 0. -1.
    9000007    2    1    2  501    0  0.14875308156E+03 -0.72235676571E+03  0.36440591574E+03  0.91438960553E+03  0.39923665042E+03 0.  0.
    9000005    1    3    3    0    0 -0.70579377273E+02 -0.55587323384E+02 -0.46372504072E+02  0.10110790347E+03  0.99999687468E+00 0.  0.
          4    1    3    3  501    0  0.21933245883E+03 -0.66676944233E+03  0.41077841982E+03  0.81328170206E+03  0.00000000000E+00 0.  1.
   -9000007    1    1    2    0  502 -0.14875308156E+03  0.72235676571E+03 -0.15866970077E+03  0.85387519591E+03  0.40000000000E+03 0. -1.
<mgrwt>
<rscale>  2 0.83891251E+03</rscale>
<asrwt>0</asrwt>
<pdfrwt beam="1">  1       21 0.15184623E+00 0.83900344E+03</pdfrwt>
<pdfrwt beam="2">  1       21 0.12019451E+00 0.83900344E+03</pdfrwt>
<totfact> 0.10575822E+02</totfact>
</mgrwt>
</event>
<event>
 6    1  0.9190795E-004  0.5454362E+03  0.7818608E-02  0.1002630E+00
         21   -1    0    0  503  502  0.00000000000E+00  0.00000000000E+00  0.10812900436E+04  0.10812900436E+04  0.00000000000E+00 0. -1.
         21   -1    0    0  501  503 -0.00000000000E+00 -0.00000000000E+00 -0.42095885834E+03  0.42095885834E+03  0.00000000000E+00 0.  1.
    9000007    2    1    2  501    0  0.17914619857E+03 -0.32466490325E+03 -0.11313291028E+03  0.55580959224E+03  0.39827702366E+03 0.  0.
    9000005    1    3    3    0    0  0.48843262726E+02 -0.26587745804E+03  0.10914666988E+03  0.29153127198E+03  0.99999687468E+00 0.  0.
          4    1    3    3  501    0  0.13030293585E+03 -0.58787445215E+02 -0.22227958016E+03  0.26427832026E+03  0.00000000000E+00 0.  1.
   -9000007    1    1    2    0  502 -0.17914619857E+03  0.32466490325E+03  0.77346409554E+03  0.94643930971E+03  0.40000000000E+03 0. -1.
<mgrwt>
<rscale>  2 0.54512036E+03</rscale>
<asrwt>0</asrwt>
<pdfrwt beam="1">  1       21 0.16635231E+00 0.54543621E+03</pdfrwt>
<pdfrwt beam="2">  1       21 0.64762902E-01 0.54543621E+03</pdfrwt>
<totfact> 0.39470850E+02</totfact>
</mgrwt>
</event>
<event>
 6    1  0.9190795E-004  0.4272734E+03  0.7818608E-02  0.1034763E+00
         21   -1    0    0  503  502  0.00000000000E+00  0.00000000000E+00  0.55843693080E+03  0.55843693080E+03  0.00000000000E+00 0.  1.
         21   -1    0    0  501  503 -0.00000000000E+00 -0.00000000000E+00 -0.32859732453E+03  0.32859732453E+03  0.00000000000E+00 0. -1.
    9000007    2    1    2  501    0 -0.91420640792E+02 -0.11918405905E+03  0.14982592104E+03  0.45233348087E+03  0.39949367681E+03 0.  0.
    9000005    1    3    3    0    0  0.95262484674E+01  0.45219888509E+02 -0.11542952803E+03  0.12434051496E+03  0.99999687468E+00 0.  0.
          4    1    3    3  501    0 -0.10094688926E+03 -0.16440394756E+03  0.26525544907E+03  0.32799296591E+03  0.00000000000E+00 0.  1.
   -9000007    1    1    2    0  502  0.91420640792E+02  0.11918405905E+03  0.80013685224E+02  0.43470077446E+03  0.40000000000E+03 0.  1.
<mgrwt>
<rscale>  2 0.42715488E+03</rscale>
<asrwt>0</asrwt>
<pdfrwt beam="1">  1       21 0.85913374E-01 0.42727342E+03</pdfrwt>
<pdfrwt beam="2">  1       21 0.50553435E-01 0.42727342E+03</pdfrwt>
<totfact> 0.38389244E+03</totfact>
</mgrwt>
</event>
<event>
 6    1  0.9190795E-004  0.5668935E+03  0.7818608E-02  0.9979470E-01
         21   -1    0    0  503  502  0.00000000000E+00  0.00000000000E+00  0.47605873022E+03  0.47605873022E+03  0.00000000000E+00 0.  1.
         21   -1    0    0  501  503 -0.00000000000E+00 -0.00000000000E+00 -0.97196702367E+03  0.97196702367E+03  0.00000000000E+00 0. -1.
    9000007    2    1    2  501    0  0.40170137040E+03 -0.20528549730E+01 -0.65144464339E+03  0.86018244028E+03  0.39263914982E+03 0.  0.
    9000005    1    3    3    0    0  0.20382173312E+03 -0.90015037028E+02 -0.59652071442E+03  0.63677623111E+03  0.99999687468E+00 0.  0.
          4    1    3    3  501    0  0.19787963728E+03  0.87962182055E+02 -0.54923928972E+02  0.22340620917E+03  0.00000000000E+00 0.  1.
   -9000007    1    1    2    0  502 -0.40170137040E+03  0.20528549730E+01  0.15553634994E+03  0.58784331360E+03  0.40000000000E+03 0.  1.
<mgrwt>
<rscale>  2 0.56559663E+03</rscale>
<asrwt>0</asrwt>
<pdfrwt beam="1">  1       21 0.73239805E-01 0.56689347E+03</pdfrwt>
<pdfrwt beam="2">  1       21 0.14953339E+00 0.56689347E+03</pdfrwt>
<totfact> 0.39930256E+02</totfact>
</mgrwt>
</event>
<event>
 6    1  0.9190795E-004  0.5580560E+03  0.7818608E-02  0.9996598E-01
         21   -1    0    0  503  502  0.00000000000E+00  0.00000000000E+00  0.14915855126E+03  0.14915855126E+03  0.00000000000E+00 0. -1.
         21   -1    0    0  501  503 -0.00000000000E+00 -0.00000000000E+00 -0.25338605453E+04  0.25338605453E+04  0.00000000000E+00 0. -1.
    9000007    2    1    2  501    0  0.33090589787E+03 -0.20476275816E+03 -0.62878087140E+03  0.84055186774E+03  0.39966931048E+03 0.  0.
    9000005    1    3    3    0    0  0.19692777519E+03 -0.15548724804E+02 -0.56727605532E+03  0.60068746818E+03  0.99999687468E+00 0.  0.
          4    1    3    3  501    0  0.13397812268E+03 -0.18921403336E+03 -0.61504816077E+02  0.23986439956E+03  0.00000000000E+00 0.  1.
   -9000007    1    1    2    0  502 -0.33090589787E+03  0.20476275816E+03 -0.17559211226E+04  0.18424672288E+04  0.40000000000E+03 0. -1.
<mgrwt>
<rscale>  2 0.55799675E+03</rscale>
<asrwt>0</asrwt>
<pdfrwt beam="1">  1       21 0.22947470E-01 0.55805600E+03</pdfrwt>
<pdfrwt beam="2">  1       21 0.38982469E+00 0.55805600E+03</pdfrwt>
<totfact> 0.12758028E+02</totfact>
</mgrwt>
</event>
<event>
 6    1  0.9190795E-004  0.4824931E+03  0.7818608E-02  0.1018954E+00
         21   -1    0    0  503  502  0.00000000000E+00  0.00000000000E+00  0.44324998335E+03  0.44324998335E+03  0.00000000000E+00 0. -1.
         21   -1    0    0  501  503 -0.00000000000E+00 -0.00000000000E+00 -0.20955092898E+04  0.20955092898E+04  0.00000000000E+00 0. -1.
    9000007    2    1    2  501    0 -0.72710056845E+02 -0.25983233611E+03 -0.19261814588E+04  0.19839323265E+04  0.39116859334E+03 0.  0.
    9000005    1    3    3    0    0 -0.12518075535E+03  0.58514741064E+02 -0.82366726815E+03  0.83517840312E+03  0.99999687468E+00 0.  0.
          4    1    3    3  501    0  0.52470698505E+02 -0.31834707717E+03 -0.11025141907E+04  0.11487539234E+04  0.00000000000E+00 0.  1.
   -9000007    1    1    2    0  502  0.72710056845E+02  0.25983233611E+03  0.27392215235E+03  0.55482694672E+03  0.40000000000E+03 0. -1.
<mgrwt>
<rscale>  2 0.48065872E+03</rscale>
<asrwt>0</asrwt>
<pdfrwt beam="1">  1       21 0.68192307E-01 0.48249310E+03</pdfrwt>
<pdfrwt beam="2">  1       21 0.32238604E+00 0.48249310E+03</pdfrwt>
<totfact> 0.36616569E+01</totfact>
</mgrwt>
</event>
<event>
 6    1  0.9190795E-004  0.4466499E+03  0.7818608E-02  0.1028749E+00
         21   -1    0    0  503  502  0.00000000000E+00  0.00000000000E+00  0.14672526565E+03  0.14672526565E+03  0.00000000000E+00 0.  1.
         21   -1    0    0  501  503 -0.00000000000E+00 -0.00000000000E+00 -0.28677523348E+04  0.28677523348E+04  0.00000000000E+00 0. -1.
    9000007    2    1    2  501    0  0.18070060324E+03 -0.81077425582E+02 -0.24540784768E+04  0.24943931766E+04  0.40033722340E+03 0.  0.
    9000005    1    3    3    0    0  0.24714606985E+03  0.89197103404E+02 -0.15329834537E+04  0.15553380894E+04  0.99999687468E+00 0.  0.
          4    1    3    3  501    0 -0.66445466610E+02 -0.17027452899E+03 -0.92109502305E+03  0.93905508717E+03  0.00000000000E+00 0.  1.
   -9000007    1    1    2    0  502 -0.18070060324E+03  0.81077425582E+02 -0.26694859238E+03  0.52008442384E+03  0.40000000000E+03 0.  1.
<mgrwt>
<rscale>  2 0.44657434E+03</rscale>
<asrwt>0</asrwt>
<pdfrwt beam="1">  1       21 0.22573119E-01 0.44664992E+03</pdfrwt>
<pdfrwt beam="2">  1       21 0.44119264E+00 0.44664992E+03</pdfrwt>
<totfact> 0.65178027E+01</totfact>
</mgrwt>
</event>
<event>
 6    1  0.9190795E-004  0.4337968E+03  0.7818608E-02  0.1032691E+00
         21   -1    0    0  503  502  0.00000000000E+00  0.00000000000E+00  0.45581786175E+03  0.45581786175E+03  0.00000000000E+00 0.  1.
         21   -1    0    0  501  503 -0.00000000000E+00 -0.00000000000E+00 -0.42025384491E+03  0.42025384491E+03  0.00000000000E+00 0.  1.
    9000007    2    1    2  501    0  0.87834748533E+01 -0.16684799498E+03 -0.41520335671E+02  0.43577930353E+03  0.40033018903E+03 0.  0.
    9000005    1    3    3    0    0 -0.59165919622E+02 -0.23449894770E+03  0.10257047848E+03  0.26270147614E+03  0.99999687468E+00 0.  0.
          4    1    3    3  501    0  0.67949394475E+02  0.67650952716E+02 -0.14409081415E+03  0.17307782739E+03  0.00000000000E+00 0.  1.
   -9000007    1    1    2    0  502 -0.87834748533E+01  0.16684799498E+03  0.77084352512E+02  0.44029240314E+03  0.40000000000E+03 0.  1.
<mgrwt>
<rscale>  2 0.43372061E+03</rscale>
<asrwt>0</asrwt>
<pdfrwt beam="1">  1       21 0.70125825E-01 0.43379680E+03</pdfrwt>
<pdfrwt beam="2">  1       21 0.64654438E-01 0.43379680E+03</pdfrwt>
<totfact> 0.35768343E+03</totfact>
</mgrwt>
</event>
<event>
 6    1  0.9190795E-004  0.5130103E+03  0.7818608E-02  0.1010490E+00
         21   -1    0    0  503  502  0.00000000000E+00  0.00000000000E+00  0.69091023947E+03  0.69091023947E+03  0.00000000000E+00 0. -1.
         21   -1    0    0  501  503 -0.00000000000E+00 -0.00000000000E+00 -0.67490556832E+03  0.67490556832E+03  0.00000000000E+00 0. -1.
    9000007    2    1    2  501    0 -0.16891561005E+03  0.27321614020E+03  0.45918619438E+03  0.68788557162E+03  0.39894242184E+03 0.  0.
    9000005    1    3    3    0    0 -0.25450647129E+03  0.38891392612E+02  0.18399876410E+03  0.31645320275E+03  0.99999687468E+00 0.  0.
          4    1    3    3  501    0  0.85590861236E+02  0.23432474758E+03  0.27518743029E+03  0.37143236887E+03  0.00000000000E+00 0.  1.
   -9000007    1    1    2    0  502  0.16891561005E+03 -0.27321614020E+03 -0.44318152323E+03  0.67793023617E+03  0.40000000000E+03 0. -1.
<mgrwt>
<rscale>  2 0.51280411E+03</rscale>
<asrwt>0</asrwt>
<pdfrwt beam="1">  1       21 0.10629388E+00 0.51301028E+03</pdfrwt>
<pdfrwt beam="2">  1       21 0.10383163E+00 0.51301028E+03</pdfrwt>
<totfact> 0.43236588E+02</totfact>
</mgrwt>
</event>
<event>
 6    1  0.9190795E-004  0.5024431E+03  0.7818608E-02  0.1013143E+00
         21   -1    0    0  503  502  0.00000000000E+00  0.00000000000E+00  0.51962401494E+03  0.51962401494E+03  0.00000000000E+00 0. -1.
         21   -1    0    0  501  503 -0.00000000000E+00 -0.00000000000E+00 -0.75439376454E+03  0.75439376454E+03  0.00000000000E+00 0.  1.
    9000007    2    1    2  501    0  0.12851144546E+03  0.27555877947E+03 -0.49746137006E+03  0.70704800954E+03  0.40000155067E+03 0.  0.
    9000005    1    3    3    0    0  0.10530198794E+01  0.18443808438E+03  0.10996602611E+01  0.18444707931E+03  0.99999687468E+00 0.  0.
          4    1    3    3  501    0  0.12745842558E+03  0.91120695097E+02 -0.49856103032E+03  0.52260093023E+03  0.00000000000E+00 0.  1.
   -9000007    1    1    2    0  502 -0.12851144546E+03 -0.27555877947E+03  0.26269162046E+03  0.56696976993E+03  0.40000000000E+03 0. -1.
<mgrwt>
<rscale>  2 0.50244280E+03</rscale>
<asrwt>0</asrwt>
<pdfrwt beam="1">  1       21 0.79942157E-01 0.50244310E+03</pdfrwt>
<pdfrwt beam="2">  1       21 0.11606058E+00 0.50244310E+03</pdfrwt>
<totfact> 0.65048408E+02</totfact>
</mgrwt>
</event>
<event>
 6    1  0.9190795E-004  0.4398018E+03  0.7818608E-02  0.1030816E+00
         21   -1    0    0  503  502  0.00000000000E+00  0.00000000000E+00  0.66846948585E+03  0.66846948585E+03  0.00000000000E+00 0. -1.
         21   -1    0    0  501  503 -0.00000000000E+00 -0.00000000000E+00 -0.41792428892E+03  0.41792428892E+03  0.00000000000E+00 0. -1.
    9000007    2    1    2  501    0  0.11807660627E+02  0.18244517738E+03 -0.17610931836E+03  0.47364607871E+03  0.39987554598E+03 0.  0.
    9000005    1    3    3    0    0 -0.92395778097E+02 -0.62735812327E+02  0.51744263229E+02  0.12309033565E+03  0.99999687468E+00 0.  0.
          4    1    3    3  501    0  0.10420343872E+03  0.24518098971E+03 -0.22785358159E+03  0.35055574307E+03  0.00000000000E+00 0.  1.
   -9000007    1    1    2    0  502 -0.11807660627E+02 -0.18244517738E+03  0.42665451529E+03  0.61274769605E+03  0.40000000000E+03 0. -1.
<mgrwt>
<rscale>  2 0.43977355E+03</rscale>
<asrwt>0</asrwt>
<pdfrwt beam="1">  1       21 0.10284146E+00 0.43980185E+03</pdfrwt>
<pdfrwt beam="2">  1       21 0.64296044E-01 0.43980185E+03</pdfrwt>
<totfact> 0.14744048E+03</totfact>
</mgrwt>
</event>
<event>
 6    1  0.9190795E-004  0.5967310E+03  0.7818608E-02  0.9912883E-01
         21   -1    0    0  503  502  0.00000000000E+00  0.00000000000E+00  0.85674628601E+03  0.85674628601E+03  0.00000000000E+00 0. -1.
         21   -1    0    0  501  503 -0.00000000000E+00 -0.00000000000E+00 -0.42672219359E+03  0.42672219359E+03  0.00000000000E+00 0. -1.
    9000007    2    1    2  501    0  0.27750637012E+03  0.34285077973E+03  0.10767488625E+03  0.60636770915E+03  0.40190978460E+03 0.  0.
    9000005    1    3    3    0    0  0.11880894130E+03  0.33724003169E+03  0.21264631032E+03  0.41601184694E+03  0.99999687468E+00 0.  0.
          4    1    3    3  501    0  0.15869742882E+03  0.56107480376E+01 -0.10497142407E+03  0.19035586222E+03  0.00000000000E+00 0.  1.
   -9000007    1    1    2    0  502 -0.27750637012E+03 -0.34285077973E+03  0.32234920617E+03  0.67710077044E+03  0.40000000000E+03 0. -1.
<mgrwt>
<rscale>  2 0.59640962E+03</rscale>
<asrwt>0</asrwt>
<pdfrwt beam="1">  1       21 0.13180712E+00 0.59673103E+03</pdfrwt>
<pdfrwt beam="2">  1       21 0.65649569E-01 0.59673103E+03</pdfrwt>
<totfact> 0.70985321E+02</totfact>
</mgrwt>
</event>
<event>
 6    1  0.9190795E-004  0.4100329E+03  0.7818608E-02  0.1040858E+00
         21   -1    0    0  503  502  0.00000000000E+00  0.00000000000E+00  0.44445960785E+03  0.44445960785E+03  0.00000000000E+00 0. -1.
         21   -1    0    0  501  503 -0.00000000000E+00 -0.00000000000E+00 -0.45830253073E+03  0.45830253073E+03  0.00000000000E+00 0. -1.
    9000007    2    1    2  501    0 -0.55218365387E+02 -0.71259622885E+02 -0.20178108781E+03  0.45171030612E+03  0.39395379365E+03 0.  0.
    9000005    1    3    3    0    0 -0.14341365856E+02 -0.20682735668E+03 -0.26181350564E+01  0.20734291614E+03  0.99999687468E+00 0.  0.
          4    1    3    3  501    0 -0.40876999531E+02  0.13556773380E+03 -0.19916295275E+03  0.24436738998E+03  0.00000000000E+00 0.  1.
   -9000007    1    1    2    0  502  0.55218365387E+02  0.71259622885E+02  0.18793816493E+03  0.45105183246E+03  0.40000000000E+03 0. -1.
<mgrwt>
<rscale>  2 0.40855089E+03</rscale>
<asrwt>0</asrwt>
<pdfrwt beam="1">  1       21 0.68378401E-01 0.41003293E+03</pdfrwt>
<pdfrwt beam="2">  1       21 0.70508082E-01 0.41003293E+03</pdfrwt>
<totfact> 0.31464468E+03</totfact>
</mgrwt>
</event>
<event>
 6    1  0.9190795E-004  0.4966888E+03  0.7818608E-02  0.1014672E+00
         21   -1    0    0  503  502  0.00000000000E+00  0.00000000000E+00  0.33640234444E+03  0.33640234444E+03  0.00000000000E+00 0.  1.
         21   -1    0    0  501  503 -0.00000000000E+00 -0.00000000000E+00 -0.81770835821E+03  0.81770835821E+03  0.00000000000E+00 0.  1.
    9000007    2    1    2  501    0  0.45934819348E+02 -0.29084310679E+03 -0.42654188712E+03  0.65441196345E+03  0.39952135867E+03 0.  0.
    9000005    1    3    3    0    0  0.24290735525E+02  0.10005964984E+03 -0.66892849037E+02  0.12279098747E+03  0.99999687468E+00 0.  0.
          4    1    3    3  501    0  0.21644083824E+02 -0.39090275662E+03 -0.35964903809E+03  0.53162097598E+03  0.00000000000E+00 0.  1.
   -9000007    1    1    2    0  502 -0.45934819348E+02  0.29084310679E+03 -0.54764126651E+02  0.49969873920E+03  0.40000000000E+03 0.  1.
<mgrwt>
<rscale>  2 0.49659238E+03</rscale>
<asrwt>0</asrwt>
<pdfrwt beam="1">  1       21 0.51754208E-01 0.49668876E+03</pdfrwt>
<pdfrwt beam="2">  1       21 0.12580128E+00 0.49668876E+03</pdfrwt>
<totfact> 0.13962756E+03</totfact>
</mgrwt>
</event>
<event>
 6    1  0.9190795E-004  0.5621563E+03  0.7818608E-02  0.9987452E-01
         21   -1    0    0  503  502  0.00000000000E+00  0.00000000000E+00  0.65900913264E+03  0.65900913264E+03  0.00000000000E+00 0. -1.
         21   -1    0    0  501  503 -0.00000000000E+00 -0.00000000000E+00 -0.71120834730E+03  0.71120834730E+03  0.00000000000E+00 0. -1.
    9000007    2    1    2  501    0 -0.39302621366E+03 -0.31971885734E+02 -0.41746273396E+03  0.70021058099E+03  0.40065935331E+03 0.  0.
    9000005    1    3    3    0    0 -0.27584611488E+03  0.33412427723E+02 -0.47808234080E+03  0.55296581630E+03  0.99999687468E+00 0.  0.
          4    1    3    3  501    0 -0.11718009878E+03 -0.65384313457E+02  0.60619606840E+02  0.14724476469E+03  0.00000000000E+00 0.  1.
   -9000007    1    1    2    0  502  0.39302621366E+03  0.31971885734E+02  0.36526351930E+03  0.67000689894E+03  0.40000000000E+03 0. -1.
<mgrwt>
<rscale>  2 0.56203884E+03</rscale>
<asrwt>0</asrwt>
<pdfrwt beam="1">  1       21 0.10138602E+00 0.56215632E+03</pdfrwt>
<pdfrwt beam="2">  1       21 0.10941667E+00 0.56215632E+03</pdfrwt>
<totfact> 0.41877635E+02</totfact>
</mgrwt>
</event>
<event>
 6    1  0.9190795E-004  0.6501832E+03  0.7818608E-02  0.9806546E-01
         21   -1    0    0  503  502  0.00000000000E+00  0.00000000000E+00  0.32785711996E+03  0.32785711996E+03  0.00000000000E+00 0. -1.
         21   -1    0    0  501  503 -0.00000000000E+00 -0.00000000000E+00 -0.15149414278E+04  0.15149414278E+04  0.00000000000E+00 0.  1.
    9000007    2    1    2  501    0 -0.90203369359E+02  0.50458051979E+03 -0.94933853456E+03  0.11505116120E+04  0.39961877744E+03 0.  0.
    9000005    1    3    3    0    0  0.47141943482E+02 -0.55570185879E+02 -0.11838504357E+03  0.13901951996E+03  0.99999687468E+00 0.  0.
          4    1    3    3  501    0 -0.13734531284E+03  0.56015070567E+03 -0.83095349099E+03  0.10114920920E+04  0.00000000000E+00 0.  1.
   -9000007    1    1    2    0  502  0.90203369359E+02 -0.50458051979E+03 -0.23774577333E+03  0.69228693584E+03  0.40000000000E+03 0. -1.
<mgrwt>
<rscale>  2 0.65012454E+03</rscale>
<asrwt>0</asrwt>
<pdfrwt beam="1">  1       21 0.50439558E-01 0.65018317E+03</pdfrwt>
<pdfrwt beam="2">  1       21 0.23306791E+00 0.65018317E+03</pdfrwt>
<totfact> 0.23061251E+02</totfact>
</mgrwt>
</event>
<event>
 6    1  0.9190795E-004  0.4276354E+03  0.7818608E-02  0.1034614E+00
         21   -1    0    0  503  502  0.00000000000E+00  0.00000000000E+00  0.54848315325E+03  0.54848315325E+03  0.00000000000E+00 0. -1.
         21   -1    0    0  501  503 -0.00000000000E+00 -0.00000000000E+00 -0.47796835646E+03  0.47796835646E+03  0.00000000000E+00 0.  1.
    9000007    2    1    2  501    0  0.48366933183E+02 -0.14311893632E+03 -0.24702881531E+03  0.49385754078E+03  0.40006205122E+03 0.  0.
    9000005    1    3    3    0    0  0.87255831237E+02 -0.27574511238E+03 -0.16000703040E+03  0.33053320084E+03  0.99999687468E+00 0.  0.
          4    1    3    3  501    0 -0.38888898054E+02  0.13262617606E+03 -0.87021784910E+02  0.16332433994E+03  0.00000000000E+00 0.  1.
   -9000007    1    1    2    0  502 -0.48366933183E+02  0.14311893632E+03  0.31754361210E+03  0.53259396893E+03  0.40000000000E+03 0. -1.
<mgrwt>
<rscale>  2 0.42762089E+03</rscale>
<asrwt>0</asrwt>
<pdfrwt beam="1">  1       21 0.84382023E-01 0.42763540E+03</pdfrwt>
<pdfrwt beam="2">  1       21 0.73533594E-01 0.42763540E+03</pdfrwt>
<totfact> 0.17579882E+03</totfact>
</mgrwt>
</event>
<event>
 6    1  0.9190795E-004  0.4105151E+03  0.7818608E-02  0.1040244E+00
         21   -1    0    0  503  502  0.00000000000E+00  0.00000000000E+00  0.36096754013E+03  0.36096754013E+03  0.00000000000E+00 0.  1.
         21   -1    0    0  501  503 -0.00000000000E+00 -0.00000000000E+00 -0.46724711492E+03  0.46724711492E+03  0.00000000000E+00 0.  1.
    9000007    2    1    2  501    0 -0.79133800179E+02 -0.42555737903E+02 -0.72392723805E+02  0.41684928482E+03  0.40056144427E+03 0.  0.
    9000005    1    3    3    0    0  0.58568939968E+02  0.53364060281E+02 -0.19402904494E+03  0.20958605377E+03  0.99999687468E+00 0.  0.
          4    1    3    3  501    0 -0.13770274015E+03 -0.95919798184E+02  0.12163632114E+03  0.20726323105E+03  0.00000000000E+00 0.  1.
   -9000007    1    1    2    0  502  0.79133800179E+02  0.42555737903E+02 -0.33886850984E+02  0.41136537024E+03  0.40000000000E+03 0.  1.
<mgrwt>
<rscale>  2 0.41037804E+03</rscale>
<asrwt>0</asrwt>
<pdfrwt beam="1">  1       21 0.55533467E-01 0.41051507E+03</pdfrwt>
<pdfrwt beam="2">  1       21 0.71884172E-01 0.41051507E+03</pdfrwt>
<totfact> 0.47575648E+03</totfact>
</mgrwt>
</event>
<event>
 6    1  0.9190795E-004  0.5135870E+03  0.7818608E-02  0.1010358E+00
         21   -1    0    0  503  502  0.00000000000E+00  0.00000000000E+00  0.67157952663E+03  0.67157952663E+03  0.00000000000E+00 0.  1.
         21   -1    0    0  501  503 -0.00000000000E+00 -0.00000000000E+00 -0.40031030181E+03  0.40031030181E+03  0.00000000000E+00 0.  1.
    9000007    2    1    2  501    0 -0.28376555587E+03  0.15247531850E+03  0.58090947908E+02  0.51581735907E+03  0.39864944028E+03 0.  0.
    9000005    1    3    3    0    0 -0.31051172446E+02  0.23791159207E+03  0.66307272531E+02  0.24892520028E+03  0.99999687468E+00 0.  0.
          4    1    3    3  501    0 -0.25271438342E+03 -0.85436273571E+02 -0.82163246228E+01  0.26689215879E+03  0.00000000000E+00 0.  1.
   -9000007    1    1    2    0  502  0.28376555587E+03 -0.15247531850E+03  0.21317827691E+03  0.55607246937E+03  0.40000000000E+03 0.  1.
<mgrwt>
<rscale>  2 0.51332401E+03</rscale>
<asrwt>0</asrwt>
<pdfrwt beam="1">  1       21 0.10331993E+00 0.51358701E+03</pdfrwt>
<pdfrwt beam="2">  1       21 0.61586200E-01 0.51358701E+03</pdfrwt>
<totfact> 0.15602301E+03</totfact>
</mgrwt>
</event>
<event>
 6    1  0.9190795E-004  0.4599531E+03  0.7818608E-02  0.1024796E+00
         21   -1    0    0  503  502  0.00000000000E+00  0.00000000000E+00  0.59675736028E+03  0.59675736028E+03  0.00000000000E+00 0.  1.
         21   -1    0    0  501  503 -0.00000000000E+00 -0.00000000000E+00 -0.69674904727E+03  0.69674904727E+03  0.00000000000E+00 0.  1.
    9000007    2    1    2  501    0  0.21216540210E+03  0.80887053350E+02 -0.50328128467E+03  0.68178803049E+03  0.39998249183E+03 0.  0.
    9000005    1    3    3    0    0 -0.60339198673E+02  0.98110521519E+02 -0.35041517549E+03  0.36886079832E+03  0.99999687468E+00 0.  0.
          4    1    3    3  501    0  0.27250460077E+03 -0.17223468169E+02 -0.15286610919E+03  0.31292723217E+03  0.00000000000E+00 0.  1.
   -9000007    1    1    2    0  502 -0.21216540210E+03 -0.80887053350E+02  0.40328959768E+03  0.61171837707E+03  0.40000000000E+03 0.  1.
<mgrwt>
<rscale>  2 0.45994931E+03</rscale>
<asrwt>0</asrwt>
<pdfrwt beam="1">  1       21 0.91808825E-01 0.45995312E+03</pdfrwt>
<pdfrwt beam="2">  1       21 0.10719216E+00 0.45995312E+03</pdfrwt>
<totfact> 0.58312994E+02</totfact>
</mgrwt>
</event>
<event>
 6    1  0.9190795E-004  0.4211037E+03  0.7818608E-02  0.1036737E+00
         21   -1    0    0  503  502  0.00000000000E+00  0.00000000000E+00  0.74331493792E+03  0.74331493792E+03  0.00000000000E+00 0.  1.
         21   -1    0    0  501  503 -0.00000000000E+00 -0.00000000000E+00 -0.28773287123E+03  0.28773287123E+03  0.00000000000E+00 0.  1.
    9000007    2    1    2  501    0 -0.97600028080E+02  0.88332152877E+02  0.14159393830E+02  0.42098034499E+03  0.39961935353E+03 0.  0.
    9000005    1    3    3    0    0  0.83196675969E+02  0.18848435244E+03  0.47989750223E+02  0.21154681308E+03  0.99999687468E+00 0.  0.
          4    1    3    3  501    0 -0.18079670405E+03 -0.10015219956E+03 -0.33830356393E+02  0.20943353190E+03  0.00000000000E+00 0.  1.
   -9000007    1    1    2    0  502  0.97600028080E+02 -0.88332152877E+02  0.44142267286E+03  0.61006746416E+03  0.40000000000E+03 0.  1.
<mgrwt>
<rscale>  2 0.42101329E+03</rscale>
<asrwt>0</asrwt>
<pdfrwt beam="1">  1       21 0.11435614E+00 0.42110371E+03</pdfrwt>
<pdfrwt beam="2">  1       21 0.44266596E-01 0.42110371E+03</pdfrwt>
<totfact> 0.25479373E+03</totfact>
</mgrwt>
</event>
<event>
 6    1  0.9190795E-004  0.4624271E+03  0.7818608E-02  0.1024110E+00
         21   -1    0    0  503  502  0.00000000000E+00  0.00000000000E+00  0.87906288629E+03  0.87906288629E+03  0.00000000000E+00 0.  1.
         21   -1    0    0  501  503 -0.00000000000E+00 -0.00000000000E+00 -0.30294810674E+03  0.30294810674E+03  0.00000000000E+00 0.  1.
    9000007    2    1    2  501    0  0.56006288822E+01 -0.23113242495E+03  0.25343303789E+02  0.46312102689E+03  0.40048125748E+03 0.  0.
    9000005    1    3    3    0    0 -0.15288437681E+03  0.29756046358E+02 -0.85487584685E+01  0.15599082099E+03  0.99999687468E+00 0.  0.
          4    1    3    3  501    0  0.15848500570E+03 -0.26088847131E+03  0.33892062258E+02  0.30713020590E+03  0.00000000000E+00 0.  1.
   -9000007    1    1    2    0  502 -0.56006288822E+01  0.23113242495E+03  0.55077147576E+03  0.71888996614E+03  0.40000000000E+03 0.  1.
<mgrwt>
<rscale>  2 0.46232286E+03</rscale>
<asrwt>0</asrwt>
<pdfrwt beam="1">  1       21 0.13524044E+00 0.46242708E+03</pdfrwt>
<pdfrwt beam="2">  1       21 0.46607402E-01 0.46242708E+03</pdfrwt>
<totfact> 0.14639535E+03</totfact>
</mgrwt>
</event>
<event>
 6    1  0.9190795E-004  0.5276254E+03  0.7818608E-02  0.1006830E+00
         21   -1    0    0  503  502  0.00000000000E+00  0.00000000000E+00  0.47878210100E+03  0.47878210100E+03  0.00000000000E+00 0. -1.
         21   -1    0    0  501  503 -0.00000000000E+00 -0.00000000000E+00 -0.60543297516E+03  0.60543297516E+03  0.00000000000E+00 0.  1.
    9000007    2    1    2  501    0  0.23405022037E+03 -0.25220836956E+03 -0.17202276114E+03  0.55464244142E+03  0.39955955769E+03 0.  0.
    9000005    1    3    3    0    0  0.31383402960E+03 -0.19793494071E+03 -0.16239888009E+02  0.37139570924E+03  0.99999687468E+00 0.  0.
          4    1    3    3  501    0 -0.79783809222E+02 -0.54273428851E+02 -0.15578287313E+03  0.18324673218E+03  0.00000000000E+00 0.  1.
   -9000007    1    1    2    0  502 -0.23405022037E+03  0.25220836956E+03  0.45371886990E+02  0.52957263474E+03  0.40000000000E+03 0. -1.
<mgrwt>
<rscale>  2 0.52754193E+03</rscale>
<asrwt>0</asrwt>
<pdfrwt beam="1">  1       21 0.73658785E-01 0.52762540E+03</pdfrwt>
<pdfrwt beam="2">  1       21 0.93143535E-01 0.52762540E+03</pdfrwt>
<totfact> 0.13365842E+03</totfact>
</mgrwt>
</event>
<event>
 6    1  0.9190795E-004  0.6641174E+03  0.7818608E-02  0.9780882E-01
         21   -1    0    0  503  502  0.00000000000E+00  0.00000000000E+00  0.51255322773E+03  0.51255322773E+03  0.00000000000E+00 0.  1.
         21   -1    0    0  501  503 -0.00000000000E+00 -0.00000000000E+00 -0.16919780163E+04  0.16919780163E+04  0.00000000000E+00 0. -1.
    9000007    2    1    2  501    0 -0.42926741773E+03  0.31109702064E+03 -0.13626149282E+04  0.15156114377E+04  0.39913245362E+03 0.  0.
    9000005    1    3    3    0    0 -0.22048480745E+03  0.37106293233E+03 -0.74620646486E+03  0.86204775869E+03  0.99999687468E+00 0.  0.
          4    1    3    3  501    0 -0.20878261027E+03 -0.59965911697E+02 -0.61640846332E+03  0.65356367905E+03  0.00000000000E+00 0.  1.
   -9000007    1    1    2    0  502  0.42926741773E+03 -0.31109702064E+03  0.18319013966E+03  0.68891980625E+03  0.40000000000E+03 0.  1.
<mgrwt>
<rscale>  2 0.66398678E+03</rscale>
<asrwt>0</asrwt>
<pdfrwt beam="1">  1       21 0.78854344E-01 0.66411736E+03</pdfrwt>
<pdfrwt beam="2">  1       21 0.26030431E+00 0.66411736E+03</pdfrwt>
<totfact> 0.57117775E+01</totfact>
</mgrwt>
</event>
<event>
 6    1  0.9190795E-004  0.4923828E+03  0.7818608E-02  0.1016023E+00
         21   -1    0    0  503  502  0.00000000000E+00  0.00000000000E+00  0.18380377051E+03  0.18380377051E+03  0.00000000000E+00 0. -1.
         21   -1    0    0  501  503 -0.00000000000E+00 -0.00000000000E+00 -0.13508952824E+04  0.13508952824E+04  0.00000000000E+00 0.  1.
    9000007    2    1    2  501    0  0.22787703192E+02 -0.28008200035E+03 -0.71983439580E+03  0.87212518212E+03  0.40432112186E+03 0.  0.
    9000005    1    3    3    0    0 -0.13622283993E+03  0.33245003766E+02 -0.18349016753E+03  0.23093621190E+03  0.99999687468E+00 0.  0.
          4    1    3    3  501    0  0.15901054313E+03 -0.31332700411E+03 -0.53634422827E+03  0.64118897022E+03  0.00000000000E+00 0.  1.
   -9000007    1    1    2    0  502 -0.22787703192E+02  0.28008200035E+03 -0.44725711607E+03  0.66257387076E+03  0.40000000000E+03 0. -1.
<mgrwt>
<rscale>  2 0.49149484E+03</rscale>
<asrwt>0</asrwt>
<pdfrwt beam="1">  1       21 0.28277503E-01 0.49238275E+03</pdfrwt>
<pdfrwt beam="2">  1       21 0.20783004E+00 0.49238275E+03</pdfrwt>
<totfact> 0.11736473E+03</totfact>
</mgrwt>
</event>
<event>
 6    1  0.9190795E-004  0.4496189E+03  0.7818608E-02  0.1028034E+00
         21   -1    0    0  503  502  0.00000000000E+00  0.00000000000E+00  0.69016697124E+03  0.69016697124E+03  0.00000000000E+00 0.  1.
         21   -1    0    0  501  503 -0.00000000000E+00 -0.00000000000E+00 -0.53752363155E+03  0.53752363155E+03  0.00000000000E+00 0.  1.
    9000007    2    1    2  501    0  0.20429759586E+03  0.20485042103E+02 -0.33934714994E+03  0.56119845241E+03  0.39702653589E+03 0.  0.
    9000005    1    3    3    0    0 -0.24299901279E+02  0.13575616399E+03 -0.22915912394E+01  0.13793648048E+03  0.99999687468E+00 0.  0.
          4    1    3    3  501    0  0.22859749713E+03 -0.11527112188E+03 -0.33705555870E+03  0.42326197194E+03  0.00000000000E+00 0.  1.
   -9000007    1    1    2    0  502 -0.20429759586E+03 -0.20485042103E+02  0.49199048963E+03  0.66649215037E+03  0.40000000000E+03 0.  1.
<mgrwt>
<rscale>  2 0.44895661E+03</rscale>
<asrwt>0</asrwt>
<pdfrwt beam="1">  1       21 0.10617953E+00 0.44961889E+03</pdfrwt>
<pdfrwt beam="2">  1       21 0.82695943E-01 0.44961889E+03</pdfrwt>
<totfact> 0.76684257E+02</totfact>
</mgrwt>
</event>
<event>
 6    1  0.9190795E-004  0.4710307E+03  0.7818608E-02  0.1022159E+00
         21   -1    0    0  503  502  0.00000000000E+00  0.00000000000E+00  0.18819084890E+04  0.18819084890E+04  0.00000000000E+00 0. -1.
         21   -1    0    0  501  503 -0.00000000000E+00 -0.00000000000E+00 -0.32803006918E+03  0.32803006918E+03  0.00000000000E+00 0. -1.
    9000007    2    1    2  501    0  0.37756323293E+02 -0.23124200972E+03 -0.10914696997E+03  0.48351107517E+03  0.40862145287E+03 0.  0.
    9000005    1    3    3    0    0  0.82106861145E+02 -0.17266531888E+03 -0.25587359906E+03  0.31941688697E+03  0.99999687468E+00 0.  0.
          4    1    3    3  501    0 -0.44350537852E+02 -0.58576690840E+02  0.14672662909E+03  0.16409418820E+03  0.00000000000E+00 0.  1.
   -9000007    1    1    2    0  502 -0.37756323293E+02  0.23124200972E+03  0.16630253898E+04  0.17264274831E+04  0.40000000000E+03 0. -1.
<mgrwt>
<rscale>  2 0.46915467E+03</rscale>
<asrwt>0</asrwt>
<pdfrwt beam="1">  1       21 0.28952438E+00 0.47103068E+03</pdfrwt>
<pdfrwt beam="2">  1       21 0.50466165E-01 0.47103068E+03</pdfrwt>
<totfact> 0.11248114E+02</totfact>
</mgrwt>
</event>
<event>
 6    1  0.9190795E-004  0.7366822E+03  0.7818608E-02  0.9656533E-01
         21   -1    0    0  503  502  0.00000000000E+00  0.00000000000E+00  0.10432677596E+04  0.10432677596E+04  0.00000000000E+00 0.  1.
         21   -1    0    0  501  503 -0.00000000000E+00 -0.00000000000E+00 -0.53496955629E+03  0.53496955629E+03  0.00000000000E+00 0.  1.
    9000007    2    1    2  501    0 -0.59005214756E+03  0.18531364346E+03  0.12260272529E+03  0.74681462853E+03  0.40024739581E+03 0.  0.
    9000005    1    3    3    0    0 -0.22371947455E+02  0.12313369124E+03 -0.70906920235E+02  0.14384436479E+03  0.99999687468E+00 0.  0.
          4    1    3    3  501    0 -0.56768020010E+03  0.62179952219E+02  0.19350964552E+03  0.60297026374E+03  0.00000000000E+00 0.  1.
   -9000007    1    1    2    0  502  0.59005214756E+03 -0.18531364346E+03  0.38569547802E+03  0.83142268736E+03  0.40000000000E+03 0.  1.
<mgrwt>
<rscale>  2 0.73664860E+03</rscale>
<asrwt>0</asrwt>
<pdfrwt beam="1">  1       21 0.16050273E+00 0.73668220E+03</pdfrwt>
<pdfrwt beam="2">  1       21 0.82303009E-01 0.73668220E+03</pdfrwt>
<totfact> 0.23663765E+02</totfact>
</mgrwt>
</event>
<event>
 6    1  0.9190795E-004  0.5645289E+03  0.7818608E-02  0.9982262E-01
         21   -1    0    0  503  502  0.00000000000E+00  0.00000000000E+00  0.82611978681E+03  0.82611978681E+03  0.00000000000E+00 0.  1.
         21   -1    0    0  501  503 -0.00000000000E+00 -0.00000000000E+00 -0.14775097057E+04  0.14775097057E+04  0.00000000000E+00 0.  1.
    9000007    2    1    2  501    0  0.31196105535E+03  0.24609222476E+03 -0.13160668768E+04  0.14320352397E+04  0.40101349140E+03 0.  0.
    9000005    1    3    3    0    0  0.10453073882E+03 -0.48834232566E+01 -0.35168087466E+02  0.11040071355E+03  0.99999687468E+00 0.  0.
          4    1    3    3  501    0  0.20743031653E+03  0.25097564801E+03 -0.12808987893E+04  0.13216345261E+04  0.00000000000E+00 0.  1.
   -9000007    1    1    2    0  502 -0.31196105535E+03 -0.24609222476E+03  0.66467695793E+03  0.87159425282E+03  0.40000000000E+03 0.  1.
<mgrwt>
<rscale>  2 0.56434896E+03</rscale>
<asrwt>0</asrwt>
<pdfrwt beam="1">  1       21 0.12709535E+00 0.56452892E+03</pdfrwt>
<pdfrwt beam="2">  1       21 0.22730918E+00 0.56452892E+03</pdfrwt>
<totfact> 0.29889649E+01</totfact>
</mgrwt>
</event>
<event>
 6    1  0.9190795E-004  0.5063587E+03  0.7818608E-02  0.1012154E+00
         21   -1    0    0  503  502  0.00000000000E+00  0.00000000000E+00  0.38817590768E+03  0.38817590768E+03  0.00000000000E+00 0.  1.
         21   -1    0    0  501  503 -0.00000000000E+00 -0.00000000000E+00 -0.68660608212E+03  0.68660608212E+03  0.00000000000E+00 0.  1.
    9000007    2    1    2  501    0 -0.26209282025E+03 -0.16645276786E+03 -0.25480216382E+03  0.56654722745E+03  0.39956532367E+03 0.  0.
    9000005    1    3    3    0    0  0.37081812008E+02 -0.20136982801E+03 -0.99133768643E+02  0.22749367572E+03  0.99999687468E+00 0.  0.
          4    1    3    3  501    0 -0.29917463226E+03  0.34917060151E+02 -0.15566839518E+03  0.33905355172E+03  0.00000000000E+00 0.  1.
   -9000007    1    1    2    0  502  0.26209282025E+03  0.16645276786E+03 -0.43628010614E+02  0.50823476236E+03  0.40000000000E+03 0.  1.
<mgrwt>
<rscale>  2 0.50627289E+03</rscale>
<asrwt>0</asrwt>
<pdfrwt beam="1">  1       21 0.59719371E-01 0.50635874E+03</pdfrwt>
<pdfrwt beam="2">  1       21 0.10563170E+00 0.50635874E+03</pdfrwt>
<totfact> 0.15848107E+03</totfact>
</mgrwt>
</event>
<event>
 6    1  0.9190795E-004  0.6275733E+03  0.7818608E-02  0.9849949E-01
         21   -1    0    0  503  502  0.00000000000E+00  0.00000000000E+00  0.12265696813E+04  0.12265696813E+04  0.00000000000E+00 0. -1.
         21   -1    0    0  501  503 -0.00000000000E+00 -0.00000000000E+00 -0.32165147380E+03  0.32165147380E+03  0.00000000000E+00 0.  1.
    9000007    2    1    2  501    0 -0.45632609906E+03  0.16004611550E+03  0.48882369986E+03  0.79523848129E+03  0.39950890455E+03 0.  0.
    9000005    1    3    3    0    0 -0.38217325283E+03  0.28725129880E+03  0.34645768520E+03  0.59042665206E+03  0.99999687468E+00 0.  0.
          4    1    3    3  501    0 -0.74152846228E+02 -0.12720518330E+03  0.14236601466E+03  0.20481182923E+03  0.00000000000E+00 0.  1.
   -9000007    1    1    2    0  502  0.45632609906E+03 -0.16004611550E+03  0.41609450766E+03  0.75298267382E+03  0.40000000000E+03 0. -1.
<mgrwt>
<rscale>  2 0.62749508E+03</rscale>
<asrwt>0</asrwt>
<pdfrwt beam="1">  1       21 0.18870303E+00 0.62757332E+03</pdfrwt>
<pdfrwt beam="2">  1       21 0.49484843E-01 0.62757332E+03</pdfrwt>
<totfact> 0.47638939E+02</totfact>
</mgrwt>
</event>
<event>
 6    1  0.9190795E-004  0.4631271E+03  0.7818608E-02  0.1024040E+00
         21   -1    0    0  503  502  0.00000000000E+00  0.00000000000E+00  0.12583704229E+04  0.12583704229E+04  0.00000000000E+00 0.  1.
         21   -1    0    0  501  503 -0.00000000000E+00 -0.00000000000E+00 -0.17182122567E+03  0.17182122567E+03  0.00000000000E+00 0. -1.
    9000007    2    1    2  501    0 -0.56885703465E+02  0.22176951608E+03  0.46372581238E+03  0.65538414329E+03  0.40257799827E+03 0.  0.
    9000005    1    3    3    0    0 -0.20781428876E+03  0.16891408170E+03  0.15954330050E+03  0.31172714084E+03  0.99999687468E+00 0.  0.
          4    1    3    3  501    0  0.15092858529E+03  0.52855434380E+02  0.30418251188E+03  0.34365700245E+03  0.00000000000E+00 0.  1.
   -9000007    1    1    2    0  502  0.56885703465E+02 -0.22176951608E+03  0.62282338489E+03  0.77480750531E+03  0.40000000000E+03 0.  1.
<mgrwt>
<rscale>  2 0.46256632E+03</rscale>
<asrwt>0</asrwt>
<pdfrwt beam="1">  1       21 0.19359544E+00 0.46312714E+03</pdfrwt>
<pdfrwt beam="2">  1       21 0.26434036E-01 0.46312714E+03</pdfrwt>
<totfact> 0.16887374E+03</totfact>
</mgrwt>
</event>
<event>
 6    1  0.9190795E-004  0.7233375E+03  0.7818608E-02  0.9678277E-01
         21   -1    0    0  503  502  0.00000000000E+00  0.00000000000E+00  0.24869675220E+04  0.24869675220E+04  0.00000000000E+00 0.  1.
         21   -1    0    0  501  503 -0.00000000000E+00 -0.00000000000E+00 -0.23470392972E+03  0.23470392972E+03  0.00000000000E+00 0. -1.
    9000007    2    1    2  501    0 -0.53422583999E+03 -0.27805677710E+03  0.68740583918E+03  0.99786966299E+03  0.40062982562E+03 0.  0.
    9000005    1    3    3    0    0 -0.39559475730E+03 -0.16314082414E+02  0.24544548221E+03  0.46583886272E+03  0.99999687468E+00 0.  0.
          4    1    3    3  501    0 -0.13863108269E+03 -0.26174269468E+03  0.44196035697E+03  0.53203080027E+03  0.00000000000E+00 0.  1.
   -9000007    1    1    2    0  502  0.53422583999E+03  0.27805677710E+03  0.15648577531E+04  0.17238017887E+04  0.40000000000E+03 0.  1.
<mgrwt>
<rscale>  2 0.72325028E+03</rscale>
<asrwt>0</asrwt>
<pdfrwt beam="1">  1       21 0.38261037E+00 0.72333746E+03</pdfrwt>
<pdfrwt beam="2">  1       21 0.36108299E-01 0.72333746E+03</pdfrwt>
<totfact> 0.53139182E+01</totfact>
</mgrwt>
</event>
<event>
 6    1  0.9190795E-004  0.5251009E+03  0.7818608E-02  0.1007434E+00
         21   -1    0    0  503  502  0.00000000000E+00  0.00000000000E+00  0.47032362469E+03  0.47032362469E+03  0.00000000000E+00 0. -1.
         21   -1    0    0  501  503 -0.00000000000E+00 -0.00000000000E+00 -0.83733674503E+03  0.83733674503E+03  0.00000000000E+00 0. -1.
    9000007    2    1    2  501    0 -0.22417326897E+03 -0.25566183586E+03 -0.54163696658E+03  0.75438817946E+03  0.40014284064E+03 0.  0.
    9000005    1    3    3    0    0 -0.30591636129E+03 -0.25334330113E+03 -0.54279599466E+03  0.67260399950E+03  0.99999687468E+00 0.  0.
          4    1    3    3  501    0  0.81743092319E+02 -0.23185347244E+01  0.11590280840E+01  0.81784179957E+02  0.00000000000E+00 0.  1.
   -9000007    1    1    2    0  502  0.22417326897E+03  0.25566183586E+03  0.17462384624E+03  0.55327219026E+03  0.40000000000E+03 0. -1.
<mgrwt>
<rscale>  2 0.52507366E+03</rscale>
<asrwt>0</asrwt>
<pdfrwt beam="1">  1       21 0.72357482E-01 0.52510087E+03</pdfrwt>
<pdfrwt beam="2">  1       21 0.12882104E+00 0.52510087E+03</pdfrwt>
<totfact> 0.62042519E+02</totfact>
</mgrwt>
</event>
<event>
 6    1  0.9190795E-004  0.4048379E+03  0.7818608E-02  0.1042141E+00
         21   -1    0    0  503  502  0.00000000000E+00  0.00000000000E+00  0.39101095032E+03  0.39101095032E+03  0.00000000000E+00 0.  1.
         21   -1    0    0  501  503 -0.00000000000E+00 -0.00000000000E+00 -0.41930780518E+03  0.41930780518E+03  0.00000000000E+00 0.  1.
    9000007    2    1    2  501    0  0.23776765481E+02 -0.55715043648E+02 -0.27289677728E+02  0.40575662792E+03  0.40028016929E+03 0.  0.
    9000005    1    3    3    0    0  0.19522687871E+03  0.47363673029E+02  0.14399464410E+02  0.20140803426E+03  0.99999687468E+00 0.  0.
          4    1    3    3  501    0 -0.17145011323E+03 -0.10307871668E+03 -0.41689142138E+02  0.20434859366E+03  0.00000000000E+00 0.  1.
   -9000007    1    1    2    0  502 -0.23776765481E+02  0.55715043648E+02 -0.10071771284E+01  0.40456212758E+03  0.40000000000E+03 0.  1.
<mgrwt>
<rscale>  2 0.40476862E+03</rscale>
<asrwt>0</asrwt>
<pdfrwt beam="1">  1       21 0.60155531E-01 0.40483789E+03</pdfrwt>
<pdfrwt beam="2">  1       21 0.64508893E-01 0.40483789E+03</pdfrwt>
<totfact> 0.51046399E+03</totfact>
</mgrwt>
</event>
<event>
 6    1  0.9190795E-004  0.4107134E+03  0.7818608E-02  0.1040154E+00
         21   -1    0    0  503  502  0.00000000000E+00  0.00000000000E+00  0.11858213266E+04  0.11858213266E+04  0.00000000000E+00 0.  1.
         21   -1    0    0  501  503 -0.00000000000E+00 -0.00000000000E+00 -0.29034664563E+03  0.29034664563E+03  0.00000000000E+00 0.  1.
    9000007    2    1    2  501    0  0.48046617783E+02 -0.79856188966E+02 -0.79628151348E+02  0.41809849341E+03  0.39972517973E+03 0.  0.
    9000005    1    3    3    0    0 -0.16965104703E+03  0.73050888617E+01  0.19302528627E+01  0.16982216567E+03  0.99999687468E+00 0.  0.
          4    1    3    3  501    0  0.21769766482E+03 -0.87161277828E+02 -0.81558404211E+02  0.24827632774E+03  0.00000000000E+00 0.  1.
   -9000007    1    1    2    0  502 -0.48046617783E+02  0.79856188966E+02  0.97510283230E+03  0.10580694788E+04  0.40000000000E+03 0.  1.
<mgrwt>
<rscale>  2 0.41064646E+03</rscale>
<asrwt>0</asrwt>
<pdfrwt beam="1">  1       21 0.18243405E+00 0.41071339E+03</pdfrwt>
<pdfrwt beam="2">  1       21 0.44668715E-01 0.41071339E+03</pdfrwt>
<totfact> 0.71526740E+02</totfact>
</mgrwt>
</event>
<event>
 6    1  0.9190795E-004  0.5349234E+03  0.7818608E-02  0.1005081E+00
         21   -1    0    0  503  502  0.00000000000E+00  0.00000000000E+00  0.89782445850E+03  0.89782445850E+03  0.00000000000E+00 0. -1.
         21   -1    0    0  501  503 -0.00000000000E+00 -0.00000000000E+00 -0.32279373508E+03  0.32279373508E+03  0.00000000000E+00 0.  1.
    9000007    2    1    2  501    0  0.52400792032E+02  0.35036894052E+03  0.35927136422E+03  0.64437489551E+03  0.40079777362E+03 0.  0.
    9000005    1    3    3    0    0  0.22446612923E+03  0.14604294204E+03  0.18093633098E+03  0.32319118174E+03  0.99999687468E+00 0.  0.
          4    1    3    3  501    0 -0.17206533719E+03  0.20432599847E+03  0.17833503323E+03  0.32118371378E+03  0.00000000000E+00 0.  1.
   -9000007    1    1    2    0  502 -0.52400792032E+02 -0.35036894052E+03  0.21575935920E+03  0.57624329807E+03  0.40000000000E+03 0.  1.
<mgrwt>
<rscale>  2 0.53477401E+03</rscale>
<asrwt>0</asrwt>
<pdfrwt beam="1">  1       21 0.13812684E+00 0.53492345E+03</pdfrwt>
<pdfrwt beam="2">  1       21 0.49660575E-01 0.53492345E+03</pdfrwt>
<totfact> 0.11784226E+03</totfact>
</mgrwt>
</event>
<event>
 6    1  0.9190795E-004  0.4445876E+03  0.7818608E-02  0.1029718E+00
         21   -1    0    0  503  502  0.00000000000E+00  0.00000000000E+00  0.38684947723E+03  0.38684947723E+03  0.00000000000E+00 0.  1.
         21   -1    0    0  501  503 -0.00000000000E+00 -0.00000000000E+00 -0.54229329215E+03  0.54229329215E+03  0.00000000000E+00 0.  1.
    9000007    2    1    2  501    0 -0.58757781264E+01 -0.19396802711E+03  0.43888830653E+02  0.44191425636E+03  0.39459328455E+03 0.  0.
    9000005    1    3    3    0    0  0.70802842228E+02  0.50527209060E+02 -0.11212935067E+03  0.14191558265E+03  0.99999687468E+00 0.  0.
          4    1    3    3  501    0 -0.76678620355E+02 -0.24449523617E+03  0.15601818132E+03  0.29999867371E+03  0.00000000000E+00 0.  1.
   -9000007    1    1    2    0  502  0.58757781264E+01  0.19396802711E+03 -0.19933264556E+03  0.48722851302E+03  0.40000000000E+03 0.  1.
<mgrwt>
<rscale>  2 0.44336804E+03</rscale>
<asrwt>0</asrwt>
<pdfrwt beam="1">  1       21 0.59515305E-01 0.44458758E+03</pdfrwt>
<pdfrwt beam="2">  1       21 0.83429737E-01 0.44458758E+03</pdfrwt>
<totfact> 0.28732452E+03</totfact>
</mgrwt>
</event>
<event>
 6    1  0.9190795E-004  0.4348526E+03  0.7818608E-02  0.1032376E+00
         21   -1    0    0  503  502  0.00000000000E+00  0.00000000000E+00  0.13180379856E+04  0.13180379856E+04  0.00000000000E+00 0.  1.
         21   -1    0    0  501  503 -0.00000000000E+00 -0.00000000000E+00 -0.15054028883E+03  0.15054028883E+03  0.00000000000E+00 0.  1.
    9000007    2    1    2  501    0  0.15922577313E+03  0.61187842036E+02  0.74437297533E+03  0.86184000405E+03  0.39947498963E+03 0.  0.
    9000005    1    3    3    0    0  0.85088192456E+02 -0.84610976299E+02  0.67259881513E+03  0.68321971862E+03  0.99999687468E+00 0.  0.
          4    1    3    3  501    0  0.74137580671E+02  0.14579881833E+03  0.71774160203E+02  0.17862028543E+03  0.00000000000E+00 0.  1.
   -9000007    1    1    2    0  502 -0.15922577313E+03 -0.61187842036E+02  0.42312472146E+03  0.60673827038E+03  0.40000000000E+03 0.  1.
<mgrwt>
<rscale>  2 0.43473185E+03</rscale>
<asrwt>0</asrwt>
<pdfrwt beam="1">  1       21 0.20277507E+00 0.43485262E+03</pdfrwt>
<pdfrwt beam="2">  1       21 0.23160045E-01 0.43485262E+03</pdfrwt>
<totfact> 0.19184857E+03</totfact>
</mgrwt>
</event>
<event>
 6    1  0.9190795E-004  0.4210849E+03  0.7818608E-02  0.1036843E+00
         21   -1    0    0  503  502  0.00000000000E+00  0.00000000000E+00  0.68143590416E+03  0.68143590416E+03  0.00000000000E+00 0.  1.
         21   -1    0    0  501  503 -0.00000000000E+00 -0.00000000000E+00 -0.40927920705E+03  0.40927920705E+03  0.00000000000E+00 0.  1.
    9000007    2    1    2  501    0 -0.91148202112E+02  0.94892134746E+02 -0.19430320645E+03  0.46230652310E+03  0.39832282545E+03 0.  0.
    9000005    1    3    3    0    0  0.48088678571E+02  0.27115706315E+02  0.10875896705E+03  0.12197251921E+03  0.99999687468E+00 0.  0.
          4    1    3    3  501    0 -0.13923688068E+03  0.67776428431E+02 -0.30306217350E+03  0.34033400389E+03  0.00000000000E+00 0.  1.
   -9000007    1    1    2    0  502  0.91148202112E+02 -0.94892134746E+02  0.46645990356E+03  0.62840858811E+03  0.40000000000E+03 0.  1.
<mgrwt>
<rscale>  2 0.42068614E+03</rscale>
<asrwt>0</asrwt>
<pdfrwt beam="1">  1       21 0.10483629E+00 0.42108492E+03</pdfrwt>
<pdfrwt beam="2">  1       21 0.62966032E-01 0.42108492E+03</pdfrwt>
<totfact> 0.14844539E+03</totfact>
</mgrwt>
</event>
<event>
 6    1  0.9190795E-004  0.4069830E+03  0.7818608E-02  0.1041484E+00
         21   -1    0    0  503  502  0.00000000000E+00  0.00000000000E+00  0.22004269718E+04  0.22004269718E+04  0.00000000000E+00 0.  1.
         21   -1    0    0  501  503 -0.00000000000E+00 -0.00000000000E+00 -0.19820405902E+03  0.19820405902E+03  0.00000000000E+00 0.  1.
    9000007    2    1    2  501    0 -0.59953735473E+01 -0.68429542540E+02  0.56328522255E+02  0.41086255187E+03  0.40114409794E+03 0.  0.
    9000005    1    3    3    0    0 -0.13880107240E+03  0.11339621955E+03  0.20360281268E+01  0.17924727533E+03  0.99999687468E+00 0.  0.
          4    1    3    3  501    0  0.13280569886E+03 -0.18182576209E+03  0.54292494128E+02  0.23161527654E+03  0.00000000000E+00 0.  1.
   -9000007    1    1    2    0  502  0.59953735473E+01  0.68429542540E+02  0.19458943906E+04  0.19877684790E+04  0.40000000000E+03 0.  1.
<mgrwt>
<rscale>  2 0.40670076E+03</rscale>
<asrwt>0</asrwt>
<pdfrwt beam="1">  1       21 0.33852721E+00 0.40698297E+03</pdfrwt>
<pdfrwt beam="2">  1       21 0.30492934E-01 0.40698297E+03</pdfrwt>
<totfact> 0.16737369E+02</totfact>
</mgrwt>
</event>
<event>
 6    1  0.9190795E-004  0.4078786E+03  0.7818608E-02  0.1041301E+00
         21   -1    0    0  503  502  0.00000000000E+00  0.00000000000E+00  0.78049920626E+03  0.78049920626E+03  0.00000000000E+00 0.  1.
         21   -1    0    0  501  503 -0.00000000000E+00 -0.00000000000E+00 -0.70329037363E+03  0.70329037363E+03  0.00000000000E+00 0.  1.
    9000007    2    1    2  501    0 -0.54453066268E+02  0.36423667499E+02 -0.58154550097E+03  0.71032394262E+03  0.40258305204E+03 0.  0.
    9000005    1    3    3    0    0 -0.11518912115E+03 -0.51779961806E+02 -0.76560947272E+01  0.12652791730E+03  0.99999687468E+00 0.  0.
          4    1    3    3  501    0  0.60736054884E+02  0.88203629305E+02 -0.57388940624E+03  0.58379602532E+03  0.00000000000E+00 0.  1.
   -9000007    1    1    2    0  502  0.54453066268E+02 -0.36423667499E+02  0.65875433360E+03  0.77346563726E+03  0.40000000000E+03 0.  1.
<mgrwt>
<rscale>  2 0.40723975E+03</rscale>
<asrwt>0</asrwt>
<pdfrwt beam="1">  1       21 0.12007680E+00 0.40787858E+03</pdfrwt>
<pdfrwt beam="2">  1       21 0.10819852E+00 0.40787858E+03</pdfrwt>
<totfact> 0.30239822E+02</totfact>
</mgrwt>
</event>
<event>
 6    1  0.9190795E-004  0.7088140E+03  0.7818608E-02  0.9702589E-01
         21   -1    0    0  503  502  0.00000000000E+00  0.00000000000E+00  0.12179862958E+04  0.12179862958E+04  0.00000000000E+00 0. -1.
         21   -1    0    0  501  503 -0.00000000000E+00 -0.00000000000E+00 -0.60071090287E+03  0.60071090287E+03  0.00000000000E+00 0.  1.
    9000007    2    1    2  501    0  0.52778563571E+03  0.25270446209E+03 -0.20106189757E+03  0.73606469249E+03  0.39868298491E+03 0.  0.
    9000005    1    3    3    0    0  0.11982355293E+03  0.22935491197E+03 -0.20062686394E+03  0.32743472328E+03  0.99999687468E+00 0.  0.
          4    1    3    3  501    0  0.40796208278E+03  0.23349550114E+02 -0.43503362476E+00  0.40862996921E+03  0.00000000000E+00 0.  1.
   -9000007    1    1    2    0  502 -0.52778563571E+03 -0.25270446209E+03  0.81833729052E+03  0.10826325062E+04  0.40000000000E+03 0. -1.
<mgrwt>
<rscale>  2 0.70862829E+03</rscale>
<asrwt>0</asrwt>
<pdfrwt beam="1">  1       21 0.18738251E+00 0.70881395E+03</pdfrwt>
<pdfrwt beam="2">  1       21 0.92417062E-01 0.70881395E+03</pdfrwt>
<totfact> 0.11516887E+02</totfact>
</mgrwt>
</event>
<event>
 6    1  0.9190795E-004  0.5953587E+03  0.7818608E-02  0.9915568E-01
         21   -1    0    0  503  502  0.00000000000E+00  0.00000000000E+00  0.20597930638E+03  0.20597930638E+03  0.00000000000E+00 0. -1.
         21   -1    0    0  501  503 -0.00000000000E+00 -0.00000000000E+00 -0.24471103253E+04  0.24471103253E+04  0.00000000000E+00 0.  1.
    9000007    2    1    2  501    0  0.20250064804E+03 -0.39172114468E+03 -0.18439736043E+04  0.19374179335E+04  0.39861965310E+03 0.  0.
    9000005    1    3    3    0    0  0.43005455467E+02 -0.15485241343E+03 -0.15098030113E+03  0.22051029561E+03  0.99999687468E+00 0.  0.
          4    1    3    3  501    0  0.15949519257E+03 -0.23686873125E+03 -0.16929933032E+04  0.17169076378E+04  0.00000000000E+00 0.  1.
   -9000007    1    1    2    0  502 -0.20250064804E+03  0.39172114468E+03 -0.39715741460E+03  0.71567169821E+03  0.40000000000E+03 0. -1.
<mgrwt>
<rscale>  2 0.59512692E+03</rscale>
<asrwt>0</asrwt>
<pdfrwt beam="1">  1       21 0.31689127E-01 0.59535869E+03</pdfrwt>
<pdfrwt beam="2">  1       21 0.37647848E+00 0.59535869E+03</pdfrwt>
<totfact> 0.80435585E+01</totfact>
</mgrwt>
</event>
<event>
 6    1  0.9190795E-004  0.5136299E+03  0.7818608E-02  0.1010309E+00
         21   -1    0    0  503  502  0.00000000000E+00  0.00000000000E+00  0.54196606022E+03  0.54196606022E+03  0.00000000000E+00 0.  1.
         21   -1    0    0  501  503 -0.00000000000E+00 -0.00000000000E+00 -0.71068073485E+03  0.71068073485E+03  0.00000000000E+00 0. -1.
    9000007    2    1    2  501    0  0.27711459971E+03  0.16438717941E+03 -0.43621376139E+03  0.67353419156E+03  0.39943737363E+03 0.  0.
    9000005    1    3    3    0    0  0.34367755578E+03  0.23266180472E+03 -0.32567581547E+03  0.52755238081E+03  0.99999687468E+00 0.  0.
          4    1    3    3  501    0 -0.66562956076E+02 -0.68274625309E+02 -0.11053794591E+03  0.14598181075E+03  0.00000000000E+00 0.  1.
   -9000007    1    1    2    0  502 -0.27711459971E+03 -0.16438717941E+03  0.26749908676E+03  0.57911260351E+03  0.40000000000E+03 0.  1.
<mgrwt>
<rscale>  2 0.51352033E+03</rscale>
<asrwt>0</asrwt>
<pdfrwt beam="1">  1       21 0.83379394E-01 0.51362987E+03</pdfrwt>
<pdfrwt beam="2">  1       21 0.10933550E+00 0.51362987E+03</pdfrwt>
<totfact> 0.68182647E+02</totfact>
</mgrwt>
</event>
<event>
 6    1  0.9190795E-004  0.5294603E+03  0.7818608E-02  0.1006516E+00
         21   -1    0    0  503  502  0.00000000000E+00  0.00000000000E+00  0.37350032316E+03  0.37350032316E+03  0.00000000000E+00 0.  1.
         21   -1    0    0  501  503 -0.00000000000E+00 -0.00000000000E+00 -0.74925411849E+03  0.74925411849E+03  0.00000000000E+00 0.  1.
    9000007    2    1    2  501    0  0.31749981101E+03 -0.12984730112E+03 -0.21927880165E+03  0.57307191942E+03  0.40331350136E+03 0.  0.
    9000005    1    3    3    0    0  0.28261789737E+02  0.13438517774E+03 -0.47597369452E+02  0.14534309178E+03  0.99999687468E+00 0.  0.
          4    1    3    3  501    0  0.28923802127E+03 -0.26423247886E+03 -0.17168143220E+03  0.42772882764E+03  0.00000000000E+00 0.  1.
   -9000007    1    1    2    0  502 -0.31749981101E+03  0.12984730112E+03 -0.15647499368E+03  0.54968252223E+03  0.40000000000E+03 0.  1.
<mgrwt>
<rscale>  2 0.52882928E+03</rscale>
<asrwt>0</asrwt>
<pdfrwt beam="1">  1       21 0.57461588E-01 0.52946032E+03</pdfrwt>
<pdfrwt beam="2">  1       21 0.11526986E+00 0.52946032E+03</pdfrwt>
<totfact> 0.13763711E+03</totfact>
</mgrwt>
</event>
<event>
 6    1  0.9190795E-004  0.6290881E+03  0.7818608E-02  0.9846906E-01
         21   -1    0    0  503  502  0.00000000000E+00  0.00000000000E+00  0.42431873321E+03  0.42431873321E+03  0.00000000000E+00 0.  1.
         21   -1    0    0  501  503 -0.00000000000E+00 -0.00000000000E+00 -0.13341081407E+04  0.13341081407E+04  0.00000000000E+00 0.  1.
    9000007    2    1    2  501    0  0.44627443769E+03 -0.19128751581E+03  0.27569639567E+02  0.62953636969E+03  0.39975513542E+03 0.  0.
    9000005    1    3    3    0    0 -0.53515747725E+02 -0.10716890916E+03  0.26628284454E+02  0.12271583383E+03  0.99999687468E+00 0.  0.
          4    1    3    3  501    0  0.49979018542E+03 -0.84118606651E+02  0.94135511252E+00  0.50682053587E+03  0.00000000000E+00 0.  1.
   -9000007    1    1    2    0  502 -0.44627443769E+03  0.19128751581E+03 -0.93735904710E+03  0.11288905043E+04  0.40000000000E+03 0.  1.
<mgrwt>
<rscale>  2 0.62904914E+03</rscale>
<asrwt>0</asrwt>
<pdfrwt beam="1">  1       21 0.65279806E-01 0.62908806E+03</pdfrwt>
<pdfrwt beam="2">  1       21 0.20524740E+00 0.62908806E+03</pdfrwt>
<totfact> 0.20035401E+02</totfact>
</mgrwt>
</event>
<event>
 6    1  0.9190795E-004  0.4100949E+03  0.7818608E-02  0.1040547E+00
         21   -1    0    0  503  502  0.00000000000E+00  0.00000000000E+00  0.57628759898E+03  0.57628759898E+03  0.00000000000E+00 0. -1.
         21   -1    0    0  501  503 -0.00000000000E+00 -0.00000000000E+00 -0.35835728213E+03  0.35835728213E+03  0.00000000000E+00 0. -1.
    9000007    2    1    2  501    0  0.33809188200E+02  0.83873432346E+02 -0.95291784723E+02  0.41861591024E+03  0.39746816502E+03 0.  0.
    9000005    1    3    3    0    0 -0.68755510519E+02 -0.14283013424E+03 -0.29535088588E+02  0.16124853155E+03  0.99999687468E+00 0.  0.
          4    1    3    3  501    0  0.10256469872E+03  0.22670356659E+03 -0.65756696135E+02  0.25736737869E+03  0.00000000000E+00 0.  1.
   -9000007    1    1    2    0  502 -0.33809188200E+02 -0.83873432346E+02  0.31322210158E+03  0.51602897087E+03  0.40000000000E+03 0. -1.
<mgrwt>
<rscale>  2 0.40947620E+03</rscale>
<asrwt>0</asrwt>
<pdfrwt beam="1">  1       21 0.88659631E-01 0.41009488E+03</pdfrwt>
<pdfrwt beam="2">  1       21 0.55131890E-01 0.41009488E+03</pdfrwt>
<totfact> 0.29803576E+03</totfact>
</mgrwt>
</event>
<event>
 6    1  0.9190795E-004  0.4584573E+03  0.7818608E-02  0.1025266E+00
         21   -1    0    0  503  502  0.00000000000E+00  0.00000000000E+00  0.11885460966E+04  0.11885460966E+04  0.00000000000E+00 0. -1.
         21   -1    0    0  501  503 -0.00000000000E+00 -0.00000000000E+00 -0.28646984982E+03  0.28646984982E+03  0.00000000000E+00 0.  1.
    9000007    2    1    2  501    0  0.18613738574E+03  0.12464353038E+03 -0.57507552559E+01  0.45799431358E+03  0.39942782082E+03 0.  0.
    9000005    1    3    3    0    0 -0.83768747917E+02 -0.81169585105E+02  0.16661024236E+02  0.11783163580E+03  0.99999687468E+00 0.  0.
          4    1    3    3  501    0  0.26990613365E+03  0.20581311549E+03 -0.22411779492E+02  0.34016267777E+03  0.00000000000E+00 0.  1.
   -9000007    1    1    2    0  502 -0.18613738574E+03 -0.12464353038E+03  0.90782700202E+03  0.10170216328E+04  0.40000000000E+03 0. -1.
<mgrwt>
<rscale>  2 0.45833251E+03</rscale>
<asrwt>0</asrwt>
<pdfrwt beam="1">  1       21 0.18285324E+00 0.45845734E+03</pdfrwt>
<pdfrwt beam="2">  1       21 0.44072285E-01 0.45845734E+03</pdfrwt>
<totfact> 0.71416371E+02</totfact>
</mgrwt>
</event>
<event>
 6    1  0.9190795E-004  0.5057038E+03  0.7818608E-02  0.1012371E+00
         21   -1    0    0  503  502  0.00000000000E+00  0.00000000000E+00  0.10752296703E+04  0.10752296703E+04  0.00000000000E+00 0.  1.
         21   -1    0    0  501  503 -0.00000000000E+00 -0.00000000000E+00 -0.26022391886E+03  0.26022391886E+03  0.00000000000E+00 0.  1.
    9000007    2    1    2  501    0 -0.20112525099E+03 -0.23276040882E+03  0.20984338848E+03  0.54751307108E+03  0.40138203848E+03 0.  0.
    9000005    1    3    3    0    0 -0.15292309183E+03 -0.29963525772E+03  0.28122334625E+03  0.43846816321E+03  0.99999687468E+00 0.  0.
          4    1    3    3  501    0 -0.48202159162E+02  0.66874848896E+02 -0.71379957764E+02  0.10904490787E+03  0.00000000000E+00 0.  1.
   -9000007    1    1    2    0  502  0.20112525099E+03  0.23276040882E+03  0.60516236299E+03  0.78794051811E+03  0.40000000000E+03 0.  1.
<mgrwt>
<rscale>  2 0.50542950E+03</rscale>
<asrwt>0</asrwt>
<pdfrwt beam="1">  1       21 0.16541995E+00 0.50570378E+03</pdfrwt>
<pdfrwt beam="2">  1       21 0.40034450E-01 0.50570378E+03</pdfrwt>
<totfact> 0.11415739E+03</totfact>
</mgrwt>
</event>
<event>
 6    1  0.9190795E-004  0.4637593E+03  0.7818608E-02  0.1023726E+00
         21   -1    0    0  503  502  0.00000000000E+00  0.00000000000E+00  0.39805040182E+03  0.39805040182E+03  0.00000000000E+00 0. -1.
         21   -1    0    0  501  503 -0.00000000000E+00 -0.00000000000E+00 -0.16511552344E+04  0.16511552344E+04  0.00000000000E+00 0. -1.
    9000007    2    1    2  501    0 -0.14857631343E+03  0.18165290609E+03 -0.14670450577E+04  0.15384776077E+04  0.39952402780E+03 0.  0.
    9000005    1    3    3    0    0 -0.46257956659E+02  0.19958929589E+03 -0.13998424080E+04  0.14147563228E+04  0.99999687468E+00 0.  0.
          4    1    3    3  501    0 -0.10231835677E+03 -0.17936389804E+02 -0.67202649711E+02  0.12372128491E+03  0.00000000000E+00 0.  1.
   -9000007    1    1    2    0  502  0.14857631343E+03 -0.18165290609E+03  0.21394022513E+03  0.51072802853E+03  0.40000000000E+03 0. -1.
<mgrwt>
<rscale>  2 0.46365666E+03</rscale>
<asrwt>0</asrwt>
<pdfrwt beam="1">  1       21 0.61238522E-01 0.46375931E+03</pdfrwt>
<pdfrwt beam="2">  1       21 0.25402389E+00 0.46375931E+03</pdfrwt>
<totfact> 0.12199005E+02</totfact>
</mgrwt>
</event>
<event>
 6    1  0.9190795E-004  0.5606239E+03  0.7818608E-02  0.9990895E-01
         21   -1    0    0  503  502  0.00000000000E+00  0.00000000000E+00  0.63918818360E+03  0.63918818360E+03  0.00000000000E+00 0. -1.
         21   -1    0    0  501  503 -0.00000000000E+00 -0.00000000000E+00 -0.11042172152E+04  0.11042172152E+04  0.00000000000E+00 0.  1.
    9000007    2    1    2  501    0 -0.79585229280E+02 -0.38466262997E+03 -0.88190360968E+03  0.10447756246E+04  0.39937824344E+03 0.  0.
    9000005    1    3    3    0    0 -0.10128416884E+03 -0.98489658804E+02 -0.28124268555E+02  0.14405092927E+03  0.99999687468E+00 0.  0.
          4    1    3    3  501    0  0.21698939558E+02 -0.28617297117E+03 -0.85377934113E+03  0.90072469531E+03  0.00000000000E+00 0.  1.
   -9000007    1    1    2    0  502  0.79585229280E+02  0.38466262997E+03  0.41687457806E+03  0.69862977423E+03  0.40000000000E+03 0. -1.
<mgrwt>
<rscale>  2 0.56051300E+03</rscale>
<asrwt>0</asrwt>
<pdfrwt beam="1">  1       21 0.98336646E-01 0.56062389E+03</pdfrwt>
<pdfrwt beam="2">  1       21 0.16987957E+00 0.56062389E+03</pdfrwt>
<totfact> 0.13996868E+02</totfact>
</mgrwt>
</event>
<event>
 6    1  0.9190795E-004  0.5187108E+03  0.7818608E-02  0.1009008E+00
         21   -1    0    0  503  502  0.00000000000E+00  0.00000000000E+00  0.38626919313E+03  0.38626919313E+03  0.00000000000E+00 0.  1.
         21   -1    0    0  501  503 -0.00000000000E+00 -0.00000000000E+00 -0.71776862245E+03  0.71776862245E+03  0.00000000000E+00 0. -1.
    9000007    2    1    2  501    0  0.32212097418E+03 -0.72793838127E+02 -0.70808873123E+02  0.52350320769E+03  0.39997605812E+03 0.  0.
    9000005    1    3    3    0    0  0.17967076142E+03 -0.23928825235E+03 -0.31506016784E+02  0.30088881552E+03  0.99999687468E+00 0.  0.
          4    1    3    3  501    0  0.14245021276E+03  0.16649441422E+03 -0.39302856339E+02  0.22261439216E+03  0.00000000000E+00 0.  1.
   -9000007    1    1    2    0  502 -0.32212097418E+03  0.72793838127E+02 -0.26069055619E+03  0.58053460789E+03  0.40000000000E+03 0.  1.
<mgrwt>
<rscale>  2 0.51870616E+03</rscale>
<asrwt>0</asrwt>
<pdfrwt beam="1">  1       21 0.59426030E-01 0.51871077E+03</pdfrwt>
<pdfrwt beam="2">  1       21 0.11042594E+00 0.51871077E+03</pdfrwt>
<totfact> 0.14289018E+03</totfact>
</mgrwt>
</event>
<event>
 6    1  0.9190795E-004  0.4504662E+03  0.7818608E-02  0.1027589E+00
         21   -1    0    0  503  502  0.00000000000E+00  0.00000000000E+00  0.60142509933E+03  0.60142509933E+03  0.00000000000E+00 0. -1.
         21   -1    0    0  501  503 -0.00000000000E+00 -0.00000000000E+00 -0.45587710633E+03  0.45587710633E+03  0.00000000000E+00 0. -1.
    9000007    2    1    2  501    0  0.15576478304E+03 -0.13631440539E+03  0.34235467401E+03  0.56579721642E+03  0.40009434206E+03 0.  0.
    9000005    1    3    3    0    0  0.20360248447E+03 -0.55357260712E+02  0.24189250796E+00  0.21099634238E+03  0.99999687468E+00 0.  0.
          4    1    3    3  501    0 -0.47837701429E+02 -0.80957144681E+02  0.34211278150E+03  0.35480087404E+03  0.00000000000E+00 0.  1.
   -9000007    1    1    2    0  502 -0.15576478304E+03  0.13631440539E+03 -0.19680668101E+03  0.49150498923E+03  0.40000000000E+03 0.  1.
<mgrwt>
<rscale>  2 0.45044522E+03</rscale>
<asrwt>0</asrwt>
<pdfrwt beam="1">  1       21 0.92526939E-01 0.45046617E+03</pdfrwt>
<pdfrwt beam="2">  1       21 0.70134939E-01 0.45046617E+03</pdfrwt>
<totfact> 0.15603435E+03</totfact>
</mgrwt>
</event>
<event>
 6    1  0.9190795E-004  0.4010054E+03  0.7818608E-02  0.1043471E+00
         21   -1    0    0  503  502  0.00000000000E+00  0.00000000000E+00  0.13786345821E+03  0.13786345821E+03  0.00000000000E+00 0. -1.
         21   -1    0    0  501  503 -0.00000000000E+00 -0.00000000000E+00 -0.15049993476E+04  0.15049993476E+04  0.00000000000E+00 0. -1.
    9000007    2    1    2  501    0 -0.55280236166E+01  0.20374814339E+02 -0.10742327056E+04  0.11466390990E+04  0.40044927958E+03 0.  0.
    9000005    1    3    3    0    0 -0.14375749234E+02 -0.11450597182E+03 -0.96763554815E+03  0.97449362942E+03  0.99999687468E+00 0.  0.
          4    1    3    3  501    0  0.88477256171E+01  0.13488078616E+03 -0.10659715741E+03  0.17214546957E+03  0.00000000000E+00 0.  1.
   -9000007    1    1    2    0  502  0.55280236166E+01 -0.20374814339E+02 -0.29290318378E+03  0.49622370678E+03  0.40000000000E+03 0. -1.
<mgrwt>
<rscale>  2 0.40089317E+03</rscale>
<asrwt>0</asrwt>
<pdfrwt beam="1">  1       21 0.21209762E-01 0.40100538E+03</pdfrwt>
<pdfrwt beam="2">  1       21 0.23153837E+00 0.40100538E+03</pdfrwt>
<totfact> 0.15096953E+03</totfact>
</mgrwt>
</event>
<event>
 6    1  0.9190795E-004  0.4939171E+03  0.7818608E-02  0.1015382E+00
         21   -1    0    0  503  502  0.00000000000E+00  0.00000000000E+00  0.62846687129E+03  0.62846687129E+03  0.00000000000E+00 0.  1.
         21   -1    0    0  501  503 -0.00000000000E+00 -0.00000000000E+00 -0.46839444503E+03  0.46839444503E+03  0.00000000000E+00 0. -1.
    9000007    2    1    2  501    0 -0.27089274430E+03 -0.10259918267E+03 -0.14697660456E+03  0.51532148233E+03  0.40005579193E+03 0.  0.
    9000005    1    3    3    0    0 -0.51210960372E+02 -0.22140513633E+03 -0.13703870565E+03  0.26537408256E+03  0.99999687468E+00 0.  0.
          4    1    3    3  501    0 -0.21968178393E+03  0.11880595366E+03 -0.99378989152E+01  0.24994739977E+03  0.00000000000E+00 0.  1.
   -9000007    1    1    2    0  502  0.27089274430E+03  0.10259918267E+03  0.30704903082E+03  0.58153983400E+03  0.40000000000E+03 0.  1.
<mgrwt>
<rscale>  2 0.49390581E+03</rscale>
<asrwt>0</asrwt>
<pdfrwt beam="1">  1       21 0.96687211E-01 0.49391711E+03</pdfrwt>
<pdfrwt beam="2">  1       21 0.72060684E-01 0.49391711E+03</pdfrwt>
<totfact> 0.12993183E+03</totfact>
</mgrwt>
</event>
<event>
 6    1  0.9190795E-004  0.4133477E+03  0.7818608E-02  0.1039265E+00
         21   -1    0    0  503  502  0.00000000000E+00  0.00000000000E+00  0.35572622497E+03  0.35572622497E+03  0.00000000000E+00 0.  1.
         21   -1    0    0  501  503 -0.00000000000E+00 -0.00000000000E+00 -0.70771114220E+03  0.70771114220E+03  0.00000000000E+00 0.  1.
    9000007    2    1    2  501    0 -0.78673971821E+02 -0.68313581902E+02 -0.47749149702E+03  0.63145560727E+03  0.39985211630E+03 0.  0.
    9000005    1    3    3    0    0  0.12370474235E+03 -0.90985844582E+02 -0.37126380003E+03  0.40176995458E+03  0.99999687468E+00 0.  0.
          4    1    3    3  501    0 -0.20237871417E+03  0.22672262679E+02 -0.10622769699E+03  0.22968565269E+03  0.00000000000E+00 0.  1.
   -9000007    1    1    2    0  502  0.78673971821E+02  0.68313581902E+02  0.12550657979E+03  0.43198175990E+03  0.40000000000E+03 0.  1.
<mgrwt>
<rscale>  2 0.41331194E+03</rscale>
<asrwt>0</asrwt>
<pdfrwt beam="1">  1       21 0.54727112E-01 0.41334772E+03</pdfrwt>
<pdfrwt beam="2">  1       21 0.10887864E+00 0.41334772E+03</pdfrwt>
<totfact> 0.18417861E+03</totfact>
</mgrwt>
</event>
<event>
 6    1  0.9190795E-004  0.4483541E+03  0.7818608E-02  0.1028484E+00
         21   -1    0    0  503  502  0.00000000000E+00  0.00000000000E+00  0.21202143136E+04  0.21202143136E+04  0.00000000000E+00 0. -1.
         21   -1    0    0  501  503 -0.00000000000E+00 -0.00000000000E+00 -0.45486737444E+03  0.45486737444E+03  0.00000000000E+00 0. -1.
    9000007    2    1    2  501    0 -0.10564765048E+03 -0.16327024148E+03 -0.31335843329E+03  0.54700537074E+03  0.40398362602E+03 0.  0.
    9000005    1    3    3    0    0 -0.18880457009E+03 -0.25958112442E+03 -0.23023534201E+03  0.39501751676E+03  0.99999687468E+00 0.  0.
          4    1    3    3  501    0  0.83156919608E+02  0.96310882941E+02 -0.83123091282E+02  0.15198785397E+03  0.00000000000E+00 0.  1.
   -9000007    1    1    2    0  502  0.10564765048E+03  0.16327024148E+03  0.19787053725E+04  0.20280763173E+04  0.40000000000E+03 0. -1.
<mgrwt>
<rscale>  2 0.44745485E+03</rscale>
<asrwt>0</asrwt>
<pdfrwt beam="1">  1       21 0.32618681E+00 0.44835407E+03</pdfrwt>
<pdfrwt beam="2">  1       21 0.69979597E-01 0.44835407E+03</pdfrwt>
<totfact> 0.33551559E+01</totfact>
</mgrwt>
</event>
<event>
 6    1  0.9190795E-004  0.4388060E+03  0.7818608E-02  0.1031177E+00
         21   -1    0    0  503  502  0.00000000000E+00  0.00000000000E+00  0.17996062568E+03  0.17996062568E+03  0.00000000000E+00 0. -1.
         21   -1    0    0  501  503 -0.00000000000E+00 -0.00000000000E+00 -0.10717361623E+04  0.10717361623E+04  0.00000000000E+00 0. -1.
    9000007    2    1    2  501    0  0.18041814812E+03 -0.10101388538E+00 -0.48263984305E+03  0.65174451143E+03  0.39909769695E+03 0.  0.
    9000005    1    3    3    0    0 -0.89020887743E+02  0.67702351176E+02 -0.29760907110E+03  0.31793157441E+03  0.99999687468E+00 0.  0.
          4    1    3    3  501    0  0.26943903586E+03 -0.67803365062E+02 -0.18503077194E+03  0.33381293702E+03  0.00000000000E+00 0.  1.
   -9000007    1    1    2    0  502 -0.18041814812E+03  0.10101388538E+00 -0.40913569354E+03  0.59995227652E+03  0.40000000000E+03 0. -1.
<mgrwt>
<rscale>  2 0.43860028E+03</rscale>
<asrwt>0</asrwt>
<pdfrwt beam="1">  1       21 0.27686251E-01 0.43880601E+03</pdfrwt>
<pdfrwt beam="2">  1       21 0.16488248E+00 0.43880601E+03</pdfrwt>
<totfact> 0.24863551E+03</totfact>
</mgrwt>
</event>
<event>
 6    1  0.9190795E-004  0.6478193E+03  0.7818608E-02  0.9811206E-01
         21   -1    0    0  503  502  0.00000000000E+00  0.00000000000E+00  0.19628373659E+04  0.19628373659E+04  0.00000000000E+00 0. -1.
         21   -1    0    0  501  503 -0.00000000000E+00 -0.00000000000E+00 -0.30310598943E+03  0.30310598943E+03  0.00000000000E+00 0. -1.
    9000007    2    1    2  501    0  0.36349798223E+03  0.35712606739E+03  0.21381086747E+03  0.68153307720E+03  0.39887646856E+03 0.  0.
    9000005    1    3    3    0    0  0.31101685117E+03  0.27124770549E+03 -0.33982497586E+02  0.41408043854E+03  0.99999687468E+00 0.  0.
          4    1    3    3  501    0  0.52481131062E+02  0.85878361901E+02  0.24779336506E+03  0.26745263866E+03  0.00000000000E+00 0.  1.
   -9000007    1    1    2    0  502 -0.36349798223E+03 -0.35712606739E+03  0.14459205090E+04  0.15844102781E+04  0.40000000000E+03 0. -1.
<mgrwt>
<rscale>  2 0.64764592E+03</rscale>
<asrwt>0</asrwt>
<pdfrwt beam="1">  1       21 0.30197497E+00 0.64781927E+03</pdfrwt>
<pdfrwt beam="2">  1       21 0.46631692E-01 0.64781927E+03</pdfrwt>
<totfact> 0.10226855E+02</totfact>
</mgrwt>
</event>
<event>
 6    1  0.9190795E-004  0.4597500E+03  0.7818608E-02  0.1024946E+00
         21   -1    0    0  503  502  0.00000000000E+00  0.00000000000E+00  0.77033652924E+03  0.77033652924E+03  0.00000000000E+00 0.  1.
         21   -1    0    0  501  503 -0.00000000000E+00 -0.00000000000E+00 -0.27826080728E+03  0.27826080728E+03  0.00000000000E+00 0.  1.
    9000007    2    1    2  501    0 -0.21340462814E+03 -0.76344782952E+02  0.17806008478E+03  0.49184255963E+03  0.39853939388E+03 0.  0.
    9000005    1    3    3    0    0 -0.44020709658E+02 -0.10389848288E+03  0.27322591918E+03  0.29561143504E+03  0.99999687468E+00 0.  0.
          4    1    3    3  501    0 -0.16938391848E+03  0.27553699930E+02 -0.95165834399E+02  0.19623112458E+03  0.00000000000E+00 0.  1.
   -9000007    1    1    2    0  502  0.21340462814E+03  0.76344782952E+02  0.31401563718E+03  0.55675477689E+03  0.40000000000E+03 0.  1.
<mgrwt>
<rscale>  2 0.45943211E+03</rscale>
<asrwt>0</asrwt>
<pdfrwt beam="1">  1       21 0.11851331E+00 0.45975000E+03</pdfrwt>
<pdfrwt beam="2">  1       21 0.42809355E-01 0.45975000E+03</pdfrwt>
<totfact> 0.24618223E+03</totfact>
</mgrwt>
</event>
<event>
 6    1  0.9190795E-004  0.5502017E+03  0.7818608E-02  0.1001497E+00
         21   -1    0    0  503  502  0.00000000000E+00  0.00000000000E+00  0.14193679018E+03  0.14193679018E+03  0.00000000000E+00 0.  1.
         21   -1    0    0  501  503 -0.00000000000E+00 -0.00000000000E+00 -0.21395410858E+04  0.21395410858E+04  0.00000000000E+00 0. -1.
    9000007    2    1    2  501    0  0.16140539767E+03  0.34157019160E+03 -0.91962715531E+03  0.10712065786E+04  0.39880763672E+03 0.  0.
    9000005    1    3    3    0    0  0.57797803691E+02  0.13254253343E+03 -0.79237709825E+03  0.80546295700E+03  0.99999687468E+00 0.  0.
          4    1    3    3  501    0  0.10360759398E+03  0.20902765817E+03 -0.12725005707E+03  0.26574362162E+03  0.00000000000E+00 0.  1.
   -9000007    1    1    2    0  502 -0.16140539767E+03 -0.34157019160E+03 -0.10779771403E+04  0.12102712974E+04  0.40000000000E+03 0. -1.
<mgrwt>
<rscale>  2 0.54998500E+03</rscale>
<asrwt>0</asrwt>
<pdfrwt beam="1">  1       21 0.21836430E-01 0.55020169E+03</pdfrwt>
<pdfrwt beam="2">  1       21 0.32916016E+00 0.55020169E+03</pdfrwt>
<totfact> 0.33695859E+02</totfact>
</mgrwt>
</event>
<event>
 6    1  0.9190795E-004  0.6383127E+03  0.7818608E-02  0.9829102E-01
         21   -1    0    0  503  502  0.00000000000E+00  0.00000000000E+00  0.81102011510E+03  0.81102011510E+03  0.00000000000E+00 0.  1.
         21   -1    0    0  501  503 -0.00000000000E+00 -0.00000000000E+00 -0.66214043570E+03  0.66214043570E+03  0.00000000000E+00 0.  1.
    9000007    2    1    2  501    0 -0.10185015473E+02  0.49733228926E+03  0.43649470508E+03  0.77304231545E+03  0.39952928983E+03 0.  0.
    9000005    1    3    3    0    0 -0.10624475149E+03  0.43982805577E+03  0.47368671568E+03  0.65507005005E+03  0.99999687468E+00 0.  0.
          4    1    3    3  501    0  0.96059736014E+02  0.57504233482E+02 -0.37192010597E+02  0.11797226540E+03  0.00000000000E+00 0.  1.
   -9000007    1    1    2    0  502  0.10185015473E+02 -0.49733228926E+03 -0.28761502568E+03  0.70011823535E+03  0.40000000000E+03 0.  1.
<mgrwt>
<rscale>  2 0.63823900E+03</rscale>
<asrwt>0</asrwt>
<pdfrwt beam="1">  1       21 0.12477233E+00 0.63831273E+03</pdfrwt>
<pdfrwt beam="2">  1       21 0.10186776E+00 0.63831273E+03</pdfrwt>
<totfact> 0.28878889E+02</totfact>
</mgrwt>
</event>
<event>
 6    1  0.9190795E-004  0.4394772E+03  0.7818608E-02  0.1031046E+00
         21   -1    0    0  503  502  0.00000000000E+00  0.00000000000E+00  0.14860553941E+04  0.14860553941E+04  0.00000000000E+00 0.  1.
         21   -1    0    0  501  503 -0.00000000000E+00 -0.00000000000E+00 -0.12969470394E+03  0.12969470394E+03  0.00000000000E+00 0.  1.
    9000007    2    1    2  501    0  0.52901574054E+02 -0.16960616225E+03  0.64360896790E+03  0.77934120020E+03  0.40196439639E+03 0.  0.
    9000005    1    3    3    0    0 -0.12100152440E+03 -0.15470668912E+02  0.47970740343E+03  0.49497565940E+03  0.99999687468E+00 0.  0.
          4    1    3    3  501    0  0.17390309845E+03 -0.15413549334E+03  0.16390156447E+03  0.28436554080E+03  0.00000000000E+00 0.  1.
   -9000007    1    1    2    0  502 -0.52901574054E+02  0.16960616225E+03  0.71275172228E+03  0.83640889786E+03  0.40000000000E+03 0.  1.
<mgrwt>
<rscale>  2 0.43902750E+03</rscale>
<asrwt>0</asrwt>
<pdfrwt beam="1">  1       21 0.22862389E+00 0.43947719E+03</pdfrwt>
<pdfrwt beam="2">  1       21 0.19953032E-01 0.43947719E+03</pdfrwt>
<totfact> 0.17357925E+03</totfact>
</mgrwt>
</event>
<event>
 6    1  0.9190795E-004  0.5199977E+03  0.7818608E-02  0.1008694E+00
         21   -1    0    0  503  502  0.00000000000E+00  0.00000000000E+00  0.38683304394E+03  0.38683304394E+03  0.00000000000E+00 0. -1.
         21   -1    0    0  501  503 -0.00000000000E+00 -0.00000000000E+00 -0.84677035851E+03  0.84677035851E+03  0.00000000000E+00 0.  1.
    9000007    2    1    2  501    0 -0.25122841098E+03  0.21717403578E+03 -0.48778404153E+03  0.71297328758E+03  0.40014667478E+03 0.  0.
    9000005    1    3    3    0    0  0.78594392830E+02  0.16896701608E+03 -0.16307586652E+03  0.24763212502E+03  0.99999687468E+00 0.  0.
          4    1    3    3  501    0 -0.32982280381E+03  0.48207019702E+02 -0.32470817501E+03  0.46534116256E+03  0.00000000000E+00 0.  1.
   -9000007    1    1    2    0  502  0.25122841098E+03 -0.21717403578E+03  0.27846726963E+02  0.52063011486E+03  0.40000000000E+03 0. -1.
<mgrwt>
<rscale>  2 0.51996951E+03</rscale>
<asrwt>0</asrwt>
<pdfrwt beam="1">  1       21 0.59512777E-01 0.51999773E+03</pdfrwt>
<pdfrwt beam="2">  1       21 0.13027236E+00 0.51999773E+03</pdfrwt>
<totfact> 0.93419045E+02</totfact>
</mgrwt>
</event>
<event>
 6    1  0.9190795E-004  0.4102691E+03  0.7818608E-02  0.1040294E+00
         21   -1    0    0  503  502  0.00000000000E+00  0.00000000000E+00  0.30214635202E+03  0.30214635202E+03  0.00000000000E+00 0. -1.
         21   -1    0    0  501  503 -0.00000000000E+00 -0.00000000000E+00 -0.63654412393E+03  0.63654412393E+03  0.00000000000E+00 0. -1.
    9000007    2    1    2  501    0  0.17897121916E+02 -0.89445000346E+02 -0.11131601705E+01  0.41010808172E+03  0.39983332091E+03 0.  0.
    9000005    1    3    3    0    0  0.11990011414E+03 -0.21235506338E+03  0.34961914941E+02  0.24636161593E+03  0.99999687468E+00 0.  0.
          4    1    3    3  501    0 -0.10200299222E+03  0.12291006303E+03 -0.36075075111E+02  0.16374646580E+03  0.00000000000E+00 0.  1.
   -9000007    1    1    2    0  502 -0.17897121916E+02  0.89445000346E+02 -0.33328461175E+03  0.52858239423E+03  0.40000000000E+03 0. -1.
<mgrwt>
<rscale>  2 0.41022844E+03</rscale>
<asrwt>0</asrwt>
<pdfrwt beam="1">  1       21 0.46484054E-01 0.41026908E+03</pdfrwt>
<pdfrwt beam="2">  1       21 0.97929865E-01 0.41026908E+03</pdfrwt>
<totfact> 0.33808193E+03</totfact>
</mgrwt>
</event>
<event>
 6    1  0.9190795E-004  0.5497223E+03  0.7818608E-02  0.1001571E+00
         21   -1    0    0  503  502  0.00000000000E+00  0.00000000000E+00  0.19433326752E+04  0.19433326752E+04  0.00000000000E+00 0.  1.
         21   -1    0    0  501  503 -0.00000000000E+00 -0.00000000000E+00 -0.37195355669E+03  0.37195355669E+03  0.00000000000E+00 0. -1.
    9000007    2    1    2  501    0  0.31864820389E+03 -0.20163813331E+03 -0.97600041479E+02  0.55810495179E+03  0.39970083121E+03 0.  0.
    9000005    1    3    3    0    0  0.37720998789E+03 -0.15399925855E+03 -0.18080981037E+03  0.44575366977E+03  0.99999687468E+00 0.  0.
          4    1    3    3  501    0 -0.58561783998E+02 -0.47638874752E+02  0.83209768889E+02  0.11235128202E+03  0.00000000000E+00 0.  1.
   -9000007    1    1    2    0  502 -0.31864820389E+03  0.20163813331E+03  0.16689791599E+04  0.17571812801E+04  0.40000000000E+03 0.  1.
<mgrwt>
<rscale>  2 0.54966789E+03</rscale>
<asrwt>0</asrwt>
<pdfrwt beam="1">  1       21 0.29897425E+00 0.54972231E+03</pdfrwt>
<pdfrwt beam="2">  1       21 0.57223625E-01 0.54972231E+03</pdfrwt>
<totfact> 0.71950896E+01</totfact>
</mgrwt>
</event>
<event>
 6    1  0.9190795E-004  0.4088527E+03  0.7818608E-02  0.1040779E+00
         21   -1    0    0  503  502  0.00000000000E+00  0.00000000000E+00  0.35409212534E+03  0.35409212534E+03  0.00000000000E+00 0.  1.
         21   -1    0    0  501  503 -0.00000000000E+00 -0.00000000000E+00 -0.52656244543E+03  0.52656244543E+03  0.00000000000E+00 0.  1.
    9000007    2    1    2  501    0 -0.15870630634E+02  0.81793659243E+02 -0.22829598976E+03  0.46827296958E+03  0.40027295124E+03 0.  0.
    9000005    1    3    3    0    0  0.21297592362E+01 -0.13202987672E+03 -0.21621880949E+03  0.25335350362E+03  0.99999687468E+00 0.  0.
          4    1    3    3  501    0 -0.18000389870E+02  0.21382353596E+03 -0.12077180264E+02  0.21491946597E+03  0.00000000000E+00 0.  1.
   -9000007    1    1    2    0  502  0.15870630634E+02 -0.81793659243E+02  0.55825669663E+02  0.41238160119E+03  0.40000000000E+03 0.  1.
<mgrwt>
<rscale>  2 0.40878586E+03</rscale>
<asrwt>0</asrwt>
<pdfrwt beam="1">  1       21 0.54475712E-01 0.40885268E+03</pdfrwt>
<pdfrwt beam="2">  1       21 0.81009606E-01 0.40885268E+03</pdfrwt>
<totfact> 0.37765913E+03</totfact>
</mgrwt>
</event>
<event>
 6    1  0.9190795E-004  0.4550622E+03  0.7818608E-02  0.1026226E+00
         21   -1    0    0  503  502  0.00000000000E+00  0.00000000000E+00  0.55679144274E+03  0.55679144274E+03  0.00000000000E+00 0.  1.
         21   -1    0    0  501  503 -0.00000000000E+00 -0.00000000000E+00 -0.43636604694E+03  0.43636604694E+03  0.00000000000E+00 0.  1.
    9000007    2    1    2  501    0  0.54574075368E+02 -0.21000775519E+03  0.25109729234E+03  0.51970555814E+03  0.39995303474E+03 0.  0.
    9000005    1    3    3    0    0  0.52957500929E+02  0.11267517541E+03  0.28599922523E+02  0.12774641921E+03  0.99999687468E+00 0.  0.
          4    1    3    3  501    0  0.16165744396E+01 -0.32268293060E+03  0.22249736982E+03  0.39195913893E+03  0.00000000000E+00 0.  1.
   -9000007    1    1    2    0  502 -0.54574075368E+02  0.21000775519E+03 -0.13067189654E+03  0.47345193155E+03  0.40000000000E+03 0.  1.
<mgrwt>
<rscale>  2 0.45505186E+03</rscale>
<asrwt>0</asrwt>
<pdfrwt beam="1">  1       21 0.85660221E-01 0.45506218E+03</pdfrwt>
<pdfrwt beam="2">  1       21 0.67133238E-01 0.45506218E+03</pdfrwt>
<totfact> 0.20617854E+03</totfact>
</mgrwt>
</event>
<event>
 6    1  0.9190795E-004  0.4682493E+03  0.7818608E-02  0.1022658E+00
         21   -1    0    0  503  502  0.00000000000E+00  0.00000000000E+00  0.12712983726E+04  0.12712983726E+04  0.00000000000E+00 0.  1.
         21   -1    0    0  501  503 -0.00000000000E+00 -0.00000000000E+00 -0.17663239339E+03  0.17663239339E+03  0.00000000000E+00 0.  1.
    9000007    2    1    2  501    0  0.89904156231E+02 -0.22621819496E+03  0.41862016749E+03  0.62555897137E+03  0.39600978901E+03 0.  0.
    9000005    1    3    3    0    0 -0.15543316286E+03 -0.52747486587E+02  0.15740900964E+03  0.22742111109E+03  0.99999687468E+00 0.  0.
          4    1    3    3  501    0  0.24533731909E+03 -0.17347070838E+03  0.26121115785E+03  0.39813786028E+03  0.00000000000E+00 0.  1.
   -9000007    1    1    2    0  502 -0.89904156231E+02  0.22621819496E+03  0.67604581174E+03  0.82237179463E+03  0.40000000000E+03 0.  1.
<mgrwt>
<rscale>  2 0.46739600E+03</rscale>
<asrwt>0</asrwt>
<pdfrwt beam="1">  1       21 0.19558436E+00 0.46824932E+03</pdfrwt>
<pdfrwt beam="2">  1       21 0.27174215E-01 0.46824932E+03</pdfrwt>
<totfact> 0.15474693E+03</totfact>
</mgrwt>
</event>
<event>
 6    1  0.9190795E-004  0.5282292E+03  0.7818608E-02  0.1006686E+00
         21   -1    0    0  503  502  0.00000000000E+00  0.00000000000E+00  0.19207753167E+04  0.19207753167E+04  0.00000000000E+00 0. -1.
         21   -1    0    0  501  503 -0.00000000000E+00 -0.00000000000E+00 -0.17140974784E+03  0.17140974784E+03  0.00000000000E+00 0.  1.
    9000007    2    1    2  501    0 -0.32033851588E+03 -0.12650843638E+03  0.46559829402E+03  0.70413623069E+03  0.40050581861E+03 0.  0.
    9000005    1    3    3    0    0 -0.90870962360E+02 -0.24766998477E+03  0.18673825991E+03  0.32321839499E+03  0.99999687468E+00 0.  0.
          4    1    3    3  501    0 -0.22946755352E+03  0.12116154839E+03  0.27886003411E+03  0.38091783570E+03  0.00000000000E+00 0.  1.
   -9000007    1    1    2    0  502  0.32033851588E+03  0.12650843638E+03  0.12837672748E+04  0.13880488339E+04  0.40000000000E+03 0. -1.
<mgrwt>
<rscale>  2 0.52813329E+03</rscale>
<asrwt>0</asrwt>
<pdfrwt beam="1">  1       21 0.29550388E+00 0.52822917E+03</pdfrwt>
<pdfrwt beam="2">  1       21 0.26370732E-01 0.52822917E+03</pdfrwt>
<totfact> 0.37783039E+02</totfact>
</mgrwt>
</event>
<event>
 6    1  0.9190795E-004  0.4579844E+03  0.7818608E-02  0.1025386E+00
         21   -1    0    0  503  502  0.00000000000E+00  0.00000000000E+00  0.70904695510E+03  0.70904695510E+03  0.00000000000E+00 0.  1.
         21   -1    0    0  501  503 -0.00000000000E+00 -0.00000000000E+00 -0.29657967524E+03  0.29657967524E+03  0.00000000000E+00 0.  1.
    9000007    2    1    2  501    0  0.21447786432E+03 -0.61228370084E+02  0.23422850594E+03  0.51418108085E+03  0.39971180033E+03 0.  0.
    9000005    1    3    3    0    0  0.85439053409E+02 -0.14804003636E+02 -0.11207873760E+03  0.14170968135E+03  0.99999687468E+00 0.  0.
          4    1    3    3  501    0  0.12903881091E+03 -0.46424366448E+02  0.34630724354E+03  0.37247139950E+03  0.00000000000E+00 0.  1.
   -9000007    1    1    2    0  502 -0.21447786432E+03  0.61228370084E+02  0.17823877392E+03  0.49144554949E+03  0.40000000000E+03 0.  1.
<mgrwt>
<rscale>  2 0.45792142E+03</rscale>
<asrwt>0</asrwt>
<pdfrwt beam="1">  1       21 0.10908415E+00 0.45798435E+03</pdfrwt>
<pdfrwt beam="2">  1       21 0.45627642E-01 0.45798435E+03</pdfrwt>
<totfact> 0.26520965E+03</totfact>
</mgrwt>
</event>
<event>
 6    1  0.9190795E-004  0.4905296E+03  0.7818608E-02  0.1016442E+00
         21   -1    0    0  503  502  0.00000000000E+00  0.00000000000E+00  0.10282121047E+04  0.10282121047E+04  0.00000000000E+00 0.  1.
         21   -1    0    0  501  503 -0.00000000000E+00 -0.00000000000E+00 -0.23369840286E+03  0.23369840286E+03  0.00000000000E+00 0.  1.
    9000007    2    1    2  501    0 -0.28234609651E+03 -0.29999670459E+02  0.43387698802E+03  0.65307708386E+03  0.39704047437E+03 0.  0.
    9000005    1    3    3    0    0  0.10050012099E+03  0.18369858828E+02  0.86708498304E+02  0.13400406600E+03  0.99999687468E+00 0.  0.
          4    1    3    3  501    0 -0.38284621751E+03 -0.48369529286E+02  0.34716848971E+03  0.51907301786E+03  0.00000000000E+00 0.  1.
   -9000007    1    1    2    0  502  0.28234609651E+03  0.29999670459E+02  0.36063671380E+03  0.60883342368E+03  0.40000000000E+03 0.  1.
<mgrwt>
<rscale>  2 0.48992592E+03</rscale>
<asrwt>0</asrwt>
<pdfrwt beam="1">  1       21 0.15818648E+00 0.49052961E+03</pdfrwt>
<pdfrwt beam="2">  1       21 0.35953601E-01 0.49052961E+03</pdfrwt>
<totfact> 0.16224517E+03</totfact>
</mgrwt>
</event>
<event>
 6    1  0.9190795E-004  0.4134059E+03  0.7818608E-02  0.1039249E+00
         21   -1    0    0  503  502  0.00000000000E+00  0.00000000000E+00  0.81764124251E+03  0.81764124251E+03  0.00000000000E+00 0.  1.
         21   -1    0    0  501  503 -0.00000000000E+00 -0.00000000000E+00 -0.24238072516E+03  0.24238072516E+03  0.00000000000E+00 0.  1.
    9000007    2    1    2  501    0  0.11602388112E+01 -0.10441777549E+03  0.90675915549E+02  0.42305520693E+03  0.39981141611E+03 0.  0.
    9000005    1    3    3    0    0 -0.67433996981E+01 -0.21036093344E+02  0.24578491237E+03  0.24677766067E+03  0.99999687468E+00 0.  0.
          4    1    3    3  501    0  0.79036385093E+01 -0.83381682142E+02 -0.15510899682E+03  0.17627754626E+03  0.00000000000E+00 0.  1.
   -9000007    1    1    2    0  502 -0.11602388112E+01  0.10441777549E+03  0.48458460180E+03  0.63696676075E+03  0.40000000000E+03 0.  1.
<mgrwt>
<rscale>  2 0.41336025E+03</rscale>
<asrwt>0</asrwt>
<pdfrwt beam="1">  1       21 0.12579096E+00 0.41340588E+03</pdfrwt>
<pdfrwt beam="2">  1       21 0.37289343E-01 0.41340588E+03</pdfrwt>
<totfact> 0.28589845E+03</totfact>
</mgrwt>
</event>
<event>
 6    1  0.9190795E-004  0.4553217E+03  0.7818608E-02  0.1026164E+00
         21   -1    0    0  503  502  0.00000000000E+00  0.00000000000E+00  0.12411968172E+04  0.12411968172E+04  0.00000000000E+00 0. -1.
         21   -1    0    0  501  503 -0.00000000000E+00 -0.00000000000E+00 -0.25376171075E+03  0.25376171075E+03  0.00000000000E+00 0. -1.
    9000007    2    1    2  501    0  0.78683297981E+02  0.20228423569E+03  0.56596044708E+02  0.45882565411E+03  0.40025978464E+03 0.  0.
    9000005    1    3    3    0    0  0.24022540403E+03  0.13512591875E+03  0.22488937321E+01  0.27563257460E+03  0.99999687468E+00 0.  0.
          4    1    3    3  501    0 -0.16154210605E+03  0.67158316939E+02  0.54347150976E+02  0.18319307951E+03  0.00000000000E+00 0.  1.
   -9000007    1    1    2    0  502 -0.78683297981E+02 -0.20228423569E+03  0.93083906177E+03  0.10361328739E+04  0.40000000000E+03 0. -1.
<mgrwt>
<rscale>  2 0.45526462E+03</rscale>
<asrwt>0</asrwt>
<pdfrwt beam="1">  1       21 0.19095335E+00 0.45532172E+03</pdfrwt>
<pdfrwt beam="2">  1       21 0.39040264E-01 0.45532172E+03</pdfrwt>
<totfact> 0.80832005E+02</totfact>
</mgrwt>
</event>
<event>
 6    1  0.9190795E-004  0.5643618E+03  0.7818608E-02  0.9983012E-01
         21   -1    0    0  503  502  0.00000000000E+00  0.00000000000E+00  0.66015216930E+03  0.66015216930E+03  0.00000000000E+00 0. -1.
         21   -1    0    0  501  503 -0.00000000000E+00 -0.00000000000E+00 -0.48449997803E+03  0.48449997803E+03  0.00000000000E+00 0.  1.
    9000007    2    1    2  501    0 -0.29389351897E+03 -0.26857191893E+03  0.13434629603E+03  0.57878073693E+03  0.39803760884E+03 0.  0.
    9000005    1    3    3    0    0 -0.32165295105E+03 -0.24285670791E+03 -0.35659972126E+02  0.40461418055E+03  0.99999687468E+00 0.  0.
          4    1    3    3  501    0  0.27759432087E+02 -0.25715211023E+02  0.17000626815E+03  0.17416655637E+03  0.00000000000E+00 0.  1.
   -9000007    1    1    2    0  502  0.29389351897E+03  0.26857191893E+03  0.41305895240E+02  0.56587141040E+03  0.40000000000E+03 0.  1.
<mgrwt>
<rscale>  2 0.56401422E+03</rscale>
<asrwt>0</asrwt>
<pdfrwt beam="1">  1       21 0.10156187E+00 0.56436183E+03</pdfrwt>
<pdfrwt beam="2">  1       21 0.74538458E-01 0.56436183E+03</pdfrwt>
<totfact> 0.10420620E+03</totfact>
</mgrwt>
</event>
<event>
 6    1  0.9190795E-004  0.4503254E+03  0.7818608E-02  0.1027673E+00
         21   -1    0    0  503  502  0.00000000000E+00  0.00000000000E+00  0.73701417781E+03  0.73701417781E+03  0.00000000000E+00 0.  1.
         21   -1    0    0  501  503 -0.00000000000E+00 -0.00000000000E+00 -0.38538600921E+03  0.38538600921E+03  0.00000000000E+00 0. -1.
    9000007    2    1    2  501    0 -0.16550923604E+03  0.12409525155E+03 -0.12494679708E+03  0.46671990168E+03  0.39927788049E+03 0.  0.
    9000005    1    3    3    0    0 -0.46941747335E+01 -0.90482499257E+02 -0.17206105406E+03  0.19446111248E+03  0.99999687468E+00 0.  0.
          4    1    3    3  501    0 -0.16081506131E+03  0.21457775080E+03  0.47114256978E+02  0.27225878919E+03  0.00000000000E+00 0.  1.
   -9000007    1    1    2    0  502  0.16550923604E+03 -0.12409525155E+03  0.47657496569E+03  0.65568028534E+03  0.40000000000E+03 0.  1.
<mgrwt>
<rscale>  2 0.45016496E+03</rscale>
<asrwt>0</asrwt>
<pdfrwt beam="1">  1       21 0.11338680E+00 0.45032537E+03</pdfrwt>
<pdfrwt beam="2">  1       21 0.59290155E-01 0.45032537E+03</pdfrwt>
<totfact> 0.13787264E+03</totfact>
</mgrwt>
</event>
<event>
 6    1  0.9190795E-004  0.4534549E+03  0.7818608E-02  0.1026745E+00
         21   -1    0    0  503  502  0.00000000000E+00  0.00000000000E+00  0.14046836929E+04  0.14046836929E+04  0.00000000000E+00 0.  1.
         21   -1    0    0  501  503 -0.00000000000E+00 -0.00000000000E+00 -0.18839027788E+03  0.18839027788E+03  0.00000000000E+00 0.  1.
    9000007    2    1    2  501    0 -0.49352819875E+02 -0.20781155666E+03  0.23073855104E+03  0.50820543781E+03  0.39926325172E+03 0.  0.
    9000005    1    3    3    0    0  0.10526259160E+03 -0.26659674213E+02 -0.66489525567E+02  0.12732952691E+03  0.99999687468E+00 0.  0.
          4    1    3    3  501    0 -0.15461541148E+03 -0.18115188245E+03  0.29722807660E+03  0.38087591090E+03  0.00000000000E+00 0.  1.
   -9000007    1    1    2    0  502  0.49352819875E+02  0.20781155666E+03  0.98555486402E+03  0.10848685330E+04  0.40000000000E+03 0.  1.
<mgrwt>
<rscale>  2 0.45329237E+03</rscale>
<asrwt>0</asrwt>
<pdfrwt beam="1">  1       21 0.21610518E+00 0.45345490E+03</pdfrwt>
<pdfrwt beam="2">  1       21 0.28983121E-01 0.45345490E+03</pdfrwt>
<totfact> 0.10046449E+03</totfact>
</mgrwt>
</event>
<event>
 6    1  0.9190795E-004  0.4539186E+03  0.7818608E-02  0.1026571E+00
         21   -1    0    0  503  502  0.00000000000E+00  0.00000000000E+00  0.38060931853E+03  0.38060931853E+03  0.00000000000E+00 0. -1.
         21   -1    0    0  501  503 -0.00000000000E+00 -0.00000000000E+00 -0.64119750059E+03  0.64119750059E+03  0.00000000000E+00 0. -1.
    9000007    2    1    2  501    0  0.15609631476E+03 -0.14676959778E+03 -0.33210238563E+03  0.56243588444E+03  0.40016840860E+03 0.  0.
    9000005    1    3    3    0    0 -0.12593257085E+03 -0.85237656198E+02 -0.18170252056E+03  0.23694150419E+03  0.99999687468E+00 0.  0.
          4    1    3    3  501    0  0.28202888562E+03 -0.61531941586E+02 -0.15039986507E+03  0.32549438024E+03  0.00000000000E+00 0.  1.
   -9000007    1    1    2    0  502 -0.15609631476E+03  0.14676959778E+03  0.71514203575E+02  0.45937093468E+03  0.40000000000E+03 0. -1.
<mgrwt>
<rscale>  2 0.45388152E+03</rscale>
<asrwt>0</asrwt>
<pdfrwt beam="1">  1       21 0.58555280E-01 0.45391864E+03</pdfrwt>
<pdfrwt beam="2">  1       21 0.98645769E-01 0.45391864E+03</pdfrwt>
<totfact> 0.19937161E+03</totfact>
</mgrwt>
</event>
<event>
 6    1  0.9190795E-004  0.4139600E+03  0.7818608E-02  0.1039243E+00
         21   -1    0    0  503  502  0.00000000000E+00  0.00000000000E+00  0.60913518929E+03  0.60913518929E+03  0.00000000000E+00 0.  1.
         21   -1    0    0  501  503 -0.00000000000E+00 -0.00000000000E+00 -0.55577331278E+03  0.55577331278E+03  0.00000000000E+00 0.  1.
    9000007    2    1    2  501    0 -0.74400482557E+02 -0.62566011293E+02 -0.38375533802E+03  0.56447416194E+03  0.40238412303E+03 0.  0.
    9000005    1    3    3    0    0 -0.95348152122E+02 -0.22638819349E+03 -0.26301429163E+03  0.35988943005E+03  0.99999687468E+00 0.  0.
          4    1    3    3  501    0  0.20947669565E+02  0.16382218220E+03 -0.12074104639E+03  0.20458473189E+03  0.00000000000E+00 0.  1.
   -9000007    1    1    2    0  502  0.74400482557E+02  0.62566011293E+02  0.43711721453E+03  0.60043434013E+03  0.40000000000E+03 0.  1.
<mgrwt>
<rscale>  2 0.41337956E+03</rscale>
<asrwt>0</asrwt>
<pdfrwt beam="1">  1       21 0.93713105E-01 0.41396005E+03</pdfrwt>
<pdfrwt beam="2">  1       21 0.85503587E-01 0.41396005E+03</pdfrwt>
<totfact> 0.97556933E+02</totfact>
</mgrwt>
</event>
<event>
 6    1  0.9190795E-004  0.6415503E+03  0.7818608E-02  0.9822903E-01
         21   -1    0    0  503  502  0.00000000000E+00  0.00000000000E+00  0.15526971802E+04  0.15526971802E+04  0.00000000000E+00 0. -1.
         21   -1    0    0  501  503 -0.00000000000E+00 -0.00000000000E+00 -0.28075950118E+03  0.28075950118E+03  0.00000000000E+00 0.  1.
    9000007    2    1    2  501    0 -0.49564278034E+03  0.74528223504E+02  0.85357695579E+03  0.10677923185E+04  0.40046297489E+03 0.  0.
    9000005    1    3    3    0    0 -0.45302094143E+03  0.20091028695E+03  0.74991582901E+03  0.89887021720E+03  0.99999687468E+00 0.  0.
          4    1    3    3  501    0 -0.42621838907E+02 -0.12638206345E+03  0.10366112678E+03  0.16892210133E+03  0.00000000000E+00 0.  1.
   -9000007    1    1    2    0  502  0.49564278034E+03 -0.74528223504E+02  0.41836072323E+03  0.76566436286E+03  0.40000000000E+03 0. -1.
<mgrwt>
<rscale>  2 0.64147809E+03</rscale>
<asrwt>0</asrwt>
<pdfrwt beam="1">  1       21 0.23887648E+00 0.64155032E+03</pdfrwt>
<pdfrwt beam="2">  1       21 0.43193770E-01 0.64155032E+03</pdfrwt>
<totfact> 0.29535789E+02</totfact>
</mgrwt>
</event>
<event>
 6    1  0.9190795E-004  0.5385697E+03  0.7818608E-02  0.1004182E+00
         21   -1    0    0  503  502  0.00000000000E+00  0.00000000000E+00  0.74918513852E+03  0.74918513852E+03  0.00000000000E+00 0.  1.
         21   -1    0    0  501  503 -0.00000000000E+00 -0.00000000000E+00 -0.39207936550E+03  0.39207936550E+03  0.00000000000E+00 0.  1.
    9000007    2    1    2  501    0 -0.31820430530E+03  0.16971552762E+03  0.24301101404E+03  0.59074206647E+03  0.39983058402E+03 0.  0.
    9000005    1    3    3    0    0 -0.22858383126E+02 -0.10840778033E+03  0.12753493378E+03  0.16894055713E+03  0.99999687468E+00 0.  0.
          4    1    3    3  501    0 -0.29534592217E+03  0.27812330795E+03  0.11547608026E+03  0.42180150934E+03  0.00000000000E+00 0.  1.
   -9000007    1    1    2    0  502  0.31820430530E+03 -0.16971552762E+03  0.11409475898E+03  0.55052243756E+03  0.40000000000E+03 0.  1.
<mgrwt>
<rscale>  2 0.53853826E+03</rscale>
<asrwt>0</asrwt>
<pdfrwt beam="1">  1       21 0.11525925E+00 0.53856972E+03</pdfrwt>
<pdfrwt beam="2">  1       21 0.60319902E-01 0.53856972E+03</pdfrwt>
<totfact> 0.12338903E+03</totfact>
</mgrwt>
</event>
<event>
 6    1  0.9190795E-004  0.4639414E+03  0.7818608E-02  0.1023661E+00
         21   -1    0    0  503  502  0.00000000000E+00  0.00000000000E+00  0.12632332359E+04  0.12632332359E+04  0.00000000000E+00 0. -1.
         21   -1    0    0  501  503 -0.00000000000E+00 -0.00000000000E+00 -0.23845075993E+03  0.23845075993E+03  0.00000000000E+00 0. -1.
    9000007    2    1    2  501    0 -0.60295758672E+02  0.22716970044E+03  0.11090453521E+03  0.47678666345E+03  0.39972997787E+03 0.  0.
    9000005    1    3    3    0    0 -0.22524569893E+03  0.17918440847E+03  0.38599753607E+02  0.29040251048E+03  0.99999687468E+00 0.  0.
          4    1    3    3  501    0  0.16494994025E+03  0.47985291973E+02  0.72304781606E+02  0.18638415297E+03  0.00000000000E+00 0.  1.
   -9000007    1    1    2    0  502  0.60295758672E+02 -0.22716970044E+03  0.91387794076E+03  0.10248973324E+04  0.40000000000E+03 0. -1.
<mgrwt>
<rscale>  2 0.46388322E+03</rscale>
<asrwt>0</asrwt>
<pdfrwt beam="1">  1       21 0.19434357E+00 0.46394143E+03</pdfrwt>
<pdfrwt beam="2">  1       21 0.36684733E-01 0.46394143E+03</pdfrwt>
<totfact> 0.86712157E+02</totfact>
</mgrwt>
</event>
<event>
 6    1  0.9190795E-004  0.4078542E+03  0.7818608E-02  0.1041171E+00
         21   -1    0    0  503  502  0.00000000000E+00  0.00000000000E+00  0.10765120705E+04  0.10765120705E+04  0.00000000000E+00 0. -1.
         21   -1    0    0  501  503 -0.00000000000E+00 -0.00000000000E+00 -0.29988659924E+03  0.29988659924E+03  0.00000000000E+00 0.  1.
    9000007    2    1    2  501    0 -0.60056112752E+02 -0.52328819784E+02 -0.91626208147E+02  0.41712497529E+03  0.39906495829E+03 0.  0.
    9000005    1    3    3    0    0 -0.19958549668E+01 -0.33345433614E+01  0.15705102696E+03  0.15710228413E+03  0.99999687468E+00 0.  0.
          4    1    3    3  501    0 -0.58060257785E+02 -0.48994276423E+02 -0.24867723511E+03  0.26002269116E+03  0.00000000000E+00 0.  1.
   -9000007    1    1    2    0  502  0.60056112752E+02  0.52328819784E+02  0.86825167944E+03  0.95927369447E+03  0.40000000000E+03 0. -1.
<mgrwt>
<rscale>  2 0.40762475E+03</rscale>
<asrwt>0</asrwt>
<pdfrwt beam="1">  1       21 0.16561724E+00 0.40785419E+03</pdfrwt>
<pdfrwt beam="2">  1       21 0.46136400E-01 0.40785419E+03</pdfrwt>
<totfact> 0.88336563E+02</totfact>
</mgrwt>
</event>
<event>
 6    1  0.9190795E-004  0.5329889E+03  0.7818608E-02  0.1005616E+00
         21   -1    0    0  503  502  0.00000000000E+00  0.00000000000E+00  0.28456827083E+03  0.28456827083E+03  0.00000000000E+00 0. -1.
         21   -1    0    0  501  503 -0.00000000000E+00 -0.00000000000E+00 -0.10176705873E+04  0.10176705873E+04  0.00000000000E+00 0. -1.
    9000007    2    1    2  501    0 -0.13583560286E+03  0.32500138995E+03 -0.46318435384E+03  0.70480022443E+03  0.39765109863E+03 0.  0.
    9000005    1    3    3    0    0 -0.33350183654E+02  0.39176262591E+03 -0.27294510053E+03  0.47863369889E+03  0.99999687468E+00 0.  0.
          4    1    3    3  501    0 -0.10248541921E+03 -0.66761235961E+02 -0.19023925331E+03  0.22616652554E+03  0.00000000000E+00 0.  1.
   -9000007    1    1    2    0  502  0.13583560286E+03 -0.32500138995E+03 -0.26991796262E+03  0.59743863369E+03  0.40000000000E+03 0. -1.
<mgrwt>
<rscale>  2 0.53254826E+03</rscale>
<asrwt>0</asrwt>
<pdfrwt beam="1">  1       21 0.43779733E-01 0.53298894E+03</pdfrwt>
<pdfrwt beam="2">  1       21 0.15656471E+00 0.53298894E+03</pdfrwt>
<totfact> 0.10950903E+03</totfact>
</mgrwt>
</event>
<event>
 6    1  0.9190795E-004  0.4561293E+03  0.7818608E-02  0.1025934E+00
         21   -1    0    0  503  502  0.00000000000E+00  0.00000000000E+00  0.94491899411E+03  0.94491899411E+03  0.00000000000E+00 0.  1.
         21   -1    0    0  501  503 -0.00000000000E+00 -0.00000000000E+00 -0.22275189484E+03  0.22275189484E+03  0.00000000000E+00 0.  1.
    9000007    2    1    2  501    0  0.16976406496E+03  0.13868712938E+03  0.29633384792E+03  0.54366134129E+03  0.39962475773E+03 0.  0.
    9000005    1    3    3    0    0  0.20005558301E+02  0.11824614130E+03  0.36015054148E+03  0.37959423707E+03  0.99999687468E+00 0.  0.
          4    1    3    3  501    0  0.14975850666E+03  0.20440988084E+02 -0.63816693563E+02  0.16406710422E+03  0.00000000000E+00 0.  1.
   -9000007    1    1    2    0  502 -0.16976406496E+03 -0.13868712938E+03  0.42583325135E+03  0.62400954766E+03  0.40000000000E+03 0.  1.
<mgrwt>
<rscale>  2 0.45604704E+03</rscale>
<asrwt>0</asrwt>
<pdfrwt beam="1">  1       21 0.14537215E+00 0.45612932E+03</pdfrwt>
<pdfrwt beam="2">  1       21 0.34269523E-01 0.45612932E+03</pdfrwt>
<totfact> 0.22821744E+03</totfact>
</mgrwt>
</event>
<event>
 6    1  0.9190795E-004  0.6842753E+03  0.7818608E-02  0.9745365E-01
         21   -1    0    0  503  502  0.00000000000E+00  0.00000000000E+00  0.19836929942E+04  0.19836929942E+04  0.00000000000E+00 0.  1.
         21   -1    0    0  501  503 -0.00000000000E+00 -0.00000000000E+00 -0.26265125206E+03  0.26265125206E+03  0.00000000000E+00 0.  1.
    9000007    2    1    2  501    0  0.20075683398E+03  0.51761892327E+03  0.12214061116E+04  0.13990730857E+04  0.39666100609E+03 0.  0.
    9000005    1    3    3    0    0  0.17823366590E+02 -0.43557945729E+02  0.53944866986E+01  0.47382143400E+02  0.99999687468E+00 0.  0.
          4    1    3    3  501    0  0.18293346739E+03  0.56117686900E+03  0.12160116249E+04  0.13516909423E+04  0.00000000000E+00 0.  1.
   -9000007    1    1    2    0  502 -0.20075683398E+03 -0.51761892327E+03  0.49963563060E+03  0.84727116054E+03  0.40000000000E+03 0.  1.
<mgrwt>
<rscale>  2 0.68378814E+03</rscale>
<asrwt>0</asrwt>
<pdfrwt beam="1">  1       21 0.30518353E+00 0.68427528E+03</pdfrwt>
<pdfrwt beam="2">  1       21 0.40407886E-01 0.68427528E+03</pdfrwt>
<totfact> 0.13010179E+02</totfact>
</mgrwt>
</event>
<event>
 6    1  0.9190795E-004  0.4407786E+03  0.7818608E-02  0.1030731E+00
         21   -1    0    0  503  502  0.00000000000E+00  0.00000000000E+00  0.18868273929E+03  0.18868273929E+03  0.00000000000E+00 0.  1.
         21   -1    0    0  501  503 -0.00000000000E+00 -0.00000000000E+00 -0.16190401894E+04  0.16190401894E+04  0.00000000000E+00 0.  1.
    9000007    2    1    2  501    0  0.16225980388E+03 -0.89205175767E+02 -0.12621322622E+04  0.13359332285E+04  0.39680465776E+03 0.  0.
    9000005    1    3    3    0    0 -0.12978872431E+03 -0.42640774138E+02 -0.30608574613E+03  0.33519074056E+03  0.99999687468E+00 0.  0.
          4    1    3    3  501    0  0.29204852818E+03 -0.46564401629E+02 -0.95604651610E+03  0.10007424880E+04  0.00000000000E+00 0.  1.
   -9000007    1    1    2    0  502 -0.16225980388E+03  0.89205175767E+02 -0.16822518790E+03  0.47178970017E+03  0.40000000000E+03 0.  1.
<mgrwt>
<rscale>  2 0.44005243E+03</rscale>
<asrwt>0</asrwt>
<pdfrwt beam="1">  1       21 0.29028114E-01 0.44077864E+03</pdfrwt>
<pdfrwt beam="2">  1       21 0.24908310E+00 0.44077864E+03</pdfrwt>
<totfact> 0.62587820E+02</totfact>
</mgrwt>
</event>
<event>
 6    1  0.9190795E-004  0.4924522E+03  0.7818608E-02  0.1015815E+00
         21   -1    0    0  503  502  0.00000000000E+00  0.00000000000E+00  0.17012567626E+03  0.17012567626E+03  0.00000000000E+00 0. -1.
         21   -1    0    0  501  503 -0.00000000000E+00 -0.00000000000E+00 -0.16318825505E+04  0.16318825505E+04  0.00000000000E+00 0. -1.
    9000007    2    1    2  501    0 -0.27512877540E+03 -0.82543098130E+02 -0.40841718477E+03  0.63923838387E+03  0.39913895889E+03 0.  0.
    9000005    1    3    3    0    0 -0.36413370251E+03 -0.49402641852E+01 -0.35855318152E+03  0.51105688870E+03  0.99999687468E+00 0.  0.
          4    1    3    3  501    0  0.89004927109E+02 -0.77602833945E+02 -0.49864003245E+02  0.12818149518E+03  0.00000000000E+00 0.  1.
   -9000007    1    1    2    0  502  0.27512877540E+03  0.82543098130E+02 -0.10533396895E+04  0.11627698429E+04  0.40000000000E+03 0. -1.
<mgrwt>
<rscale>  2 0.49227736E+03</rscale>
<asrwt>0</asrwt>
<pdfrwt beam="1">  1       21 0.26173181E-01 0.49245224E+03</pdfrwt>
<pdfrwt beam="2">  1       21 0.25105886E+00 0.49245224E+03</pdfrwt>
<totfact> 0.72712245E+02</totfact>
</mgrwt>
</event>
<event>
 6    1  0.9190795E-004  0.5628010E+03  0.7818608E-02  0.9989633E-01
         21   -1    0    0  503  502  0.00000000000E+00  0.00000000000E+00  0.41734256482E+03  0.41734256482E+03  0.00000000000E+00 0. -1.
         21   -1    0    0  501  503 -0.00000000000E+00 -0.00000000000E+00 -0.95561021605E+03  0.95561021605E+03  0.00000000000E+00 0. -1.
    9000007    2    1    2  501    0 -0.39547621680E+03 -0.18535690075E+02 -0.58648746003E+03  0.80808982420E+03  0.39025198697E+03 0.  0.
    9000005    1    3    3    0    0 -0.79290505677E+01  0.13309031948E+03 -0.19854319203E+03  0.23915748384E+03  0.99999687468E+00 0.  0.
          4    1    3    3  501    0 -0.38754716624E+03 -0.15162600955E+03 -0.38794426800E+03  0.56893234036E+03  0.00000000000E+00 0.  1.
   -9000007    1    1    2    0  502  0.39547621680E+03  0.18535690075E+02  0.48219808807E+02  0.56486295668E+03  0.40000000000E+03 0. -1.
<mgrwt>
<rscale>  2 0.56107160E+03</rscale>
<asrwt>0</asrwt>
<pdfrwt beam="1">  1       21 0.64206548E-01 0.56280104E+03</pdfrwt>
<pdfrwt beam="2">  1       21 0.14701696E+00 0.56280104E+03</pdfrwt>
<totfact> 0.56361282E+02</totfact>
</mgrwt>
</event>
<event>
 6    1  0.9190795E-004  0.4173455E+03  0.7818608E-02  0.1037967E+00
         21   -1    0    0  503  502  0.00000000000E+00  0.00000000000E+00  0.51985263810E+03  0.51985263810E+03  0.00000000000E+00 0. -1.
         21   -1    0    0  501  503 -0.00000000000E+00 -0.00000000000E+00 -0.38245251490E+03  0.38245251490E+03  0.00000000000E+00 0. -1.
    9000007    2    1    2  501    0  0.89200584532E+02  0.78870354119E+02 -0.90708922475E+02  0.42668869643E+03  0.39957209362E+03 0.  0.
    9000005    1    3    3    0    0 -0.92600902494E+02  0.73260101284E+02  0.10606870137E+03  0.15872472708E+03  0.99999687468E+00 0.  0.
          4    1    3    3  501    0  0.18180148703E+03  0.56102528350E+01 -0.19677762385E+03  0.26796396935E+03  0.00000000000E+00 0.  1.
   -9000007    1    1    2    0  502 -0.89200584532E+02 -0.78870354119E+02  0.22810904568E+03  0.47561645657E+03  0.40000000000E+03 0.  1.
<mgrwt>
<rscale>  2 0.41724295E+03</rscale>
<asrwt>0</asrwt>
<pdfrwt beam="1">  1       21 0.79977329E-01 0.41734551E+03</pdfrwt>
<pdfrwt beam="2">  1       21 0.58838848E-01 0.41734551E+03</pdfrwt>
<totfact> 0.32817801E+03</totfact>
</mgrwt>
</event>
<event>
 6    1  0.9190795E-004  0.4050567E+03  0.7818608E-02  0.1042074E+00
         21   -1    0    0  503  502  0.00000000000E+00  0.00000000000E+00  0.76881821160E+03  0.76881821160E+03  0.00000000000E+00 0. -1.
         21   -1    0    0  501  503 -0.00000000000E+00 -0.00000000000E+00 -0.23116277170E+03  0.23116277170E+03  0.00000000000E+00 0. -1.
    9000007    2    1    2  501    0  0.60117806564E+02 -0.12437971602E+02  0.40827892259E+03  0.57511966823E+03  0.40037744736E+03 0.  0.
    9000005    1    3    3    0    0 -0.10902077461E+02 -0.10040255498E+03  0.44494743672E+03  0.45626609536E+03  0.99999687468E+00 0.  0.
          4    1    3    3  501    0  0.71019884025E+02  0.87964583379E+02 -0.36668514131E+02  0.11885357287E+03  0.00000000000E+00 0.  1.
   -9000007    1    1    2    0  502 -0.60117806564E+02  0.12437971602E+02  0.12937651732E+03  0.42486131506E+03  0.40000000000E+03 0. -1.
<mgrwt>
<rscale>  2 0.40496343E+03</rscale>
<asrwt>0</asrwt>
<pdfrwt beam="1">  1       21 0.11827972E+00 0.40505673E+03</pdfrwt>
<pdfrwt beam="2">  1       21 0.35563504E-01 0.40505673E+03</pdfrwt>
<totfact> 0.36950116E+03</totfact>
</mgrwt>
</event>
<event>
 6    1  0.9190795E-004  0.4278429E+03  0.7818608E-02  0.1034619E+00
         21   -1    0    0  503  502  0.00000000000E+00  0.00000000000E+00  0.14389197433E+04  0.14389197433E+04  0.00000000000E+00 0. -1.
         21   -1    0    0  501  503 -0.00000000000E+00 -0.00000000000E+00 -0.22409082804E+03  0.22409082804E+03  0.00000000000E+00 0. -1.
    9000007    2    1    2  501    0  0.15172587518E+03 -0.53692847296E+01  0.59525862863E+02  0.43103057423E+03  0.39899180086E+03 0.  0.
    9000005    1    3    3    0    0  0.99811816119E+02 -0.13213532269E+03 -0.12050938002E+03  0.20480637882E+03  0.99999687468E+00 0.  0.
          4    1    3    3  501    0  0.51914059061E+02  0.12676603796E+03  0.18003524288E+03  0.22622419541E+03  0.00000000000E+00 0.  1.
   -9000007    1    1    2    0  502 -0.15172587518E+03  0.53692847296E+01  0.11553030524E+04  0.12319799972E+04  0.40000000000E+03 0. -1.
<mgrwt>
<rscale>  2 0.42760712E+03</rscale>
<asrwt>0</asrwt>
<pdfrwt beam="1">  1       21 0.22137226E+00 0.42784293E+03</pdfrwt>
<pdfrwt beam="2">  1       21 0.34475513E-01 0.42784293E+03</pdfrwt>
<totfact> 0.66549259E+02</totfact>
</mgrwt>
</event>
<event>
 6    1  0.9190795E-004  0.4374936E+03  0.7818608E-02  0.1031584E+00
         21   -1    0    0  503  502  0.00000000000E+00  0.00000000000E+00  0.62556966323E+03  0.62556966323E+03  0.00000000000E+00 0.  1.
         21   -1    0    0  501  503 -0.00000000000E+00 -0.00000000000E+00 -0.55806654421E+03  0.55806654421E+03  0.00000000000E+00 0.  1.
    9000007    2    1    2  501    0 -0.11292872741E+03 -0.13655662524E+03 -0.36450840326E+03  0.56879105234E+03  0.39906926192E+03 0.  0.
    9000005    1    3    3    0    0 -0.13119858648E+03 -0.25676052662E+03 -0.15706772578E+03  0.32834479987E+03  0.99999687468E+00 0.  0.
          4    1    3    3  501    0  0.18269859071E+02  0.12020390138E+03 -0.20744067748E+03  0.24044625248E+03  0.00000000000E+00 0.  1.
   -9000007    1    1    2    0  502  0.11292872741E+03  0.13655662524E+03  0.43201152227E+03  0.61484515510E+03  0.40000000000E+03 0.  1.
<mgrwt>
<rscale>  2 0.43728070E+03</rscale>
<asrwt>0</asrwt>
<pdfrwt beam="1">  1       21 0.96241487E-01 0.43749355E+03</pdfrwt>
<pdfrwt beam="2">  1       21 0.85856391E-01 0.43749355E+03</pdfrwt>
<totfact> 0.89726055E+02</totfact>
</mgrwt>
</event>
<event>
 6    1  0.9190795E-004  0.4476798E+03  0.7818608E-02  0.1028421E+00
         21   -1    0    0  503  502  0.00000000000E+00  0.00000000000E+00  0.94703368702E+03  0.94703368702E+03  0.00000000000E+00 0.  1.
         21   -1    0    0  501  503 -0.00000000000E+00 -0.00000000000E+00 -0.31780979009E+03  0.31780979009E+03  0.00000000000E+00 0.  1.
    9000007    2    1    2  501    0  0.66672593833E+02  0.18949632739E+03 -0.50983048577E+02  0.45057350862E+03  0.40007889543E+03 0.  0.
    9000005    1    3    3    0    0  0.10004492412E+03  0.41271836132E+01 -0.19115153560E+03  0.21579140401E+03  0.99999687468E+00 0.  0.
          4    1    3    3  501    0 -0.33372330285E+02  0.18536914377E+03  0.14016848703E+03  0.23478210461E+03  0.00000000000E+00 0.  1.
   -9000007    1    1    2    0  502 -0.66672593833E+02 -0.18949632739E+03  0.68020694551E+03  0.81426996849E+03  0.40000000000E+03 0.  1.
<mgrwt>
<rscale>  2 0.44766219E+03</rscale>
<asrwt>0</asrwt>
<pdfrwt beam="1">  1       21 0.14569749E+00 0.44767981E+03</pdfrwt>
<pdfrwt beam="2">  1       21 0.48893814E-01 0.44767981E+03</pdfrwt>
<totfact> 0.10916336E+03</totfact>
</mgrwt>
</event>
<event>
 6    1  0.9190795E-004  0.4256969E+03  0.7818608E-02  0.1035293E+00
         21   -1    0    0  503  502  0.00000000000E+00  0.00000000000E+00  0.21137856582E+03  0.21137856582E+03  0.00000000000E+00 0. -1.
         21   -1    0    0  501  503 -0.00000000000E+00 -0.00000000000E+00 -0.14733876228E+04  0.14733876228E+04  0.00000000000E+00 0. -1.
    9000007    2    1    2  501    0  0.73525570063E+02 -0.12297048737E+03 -0.11767879711E+04  0.12514183102E+04  0.40086170695E+03 0.  0.
    9000005    1    3    3    0    0  0.83085096433E+02 -0.34673757158E+02 -0.21298107975E+02  0.92520333343E+02  0.99999687468E+00 0.  0.
          4    1    3    3  501    0 -0.95595263701E+01 -0.88296730209E+02 -0.11554898631E+04  0.11588979769E+04  0.00000000000E+00 0.  1.
   -9000007    1    1    2    0  502 -0.73525570063E+02  0.12297048737E+03 -0.85221085896E+02  0.43334787838E+03  0.40000000000E+03 0.  1.
<mgrwt>
<rscale>  2 0.42549393E+03</rscale>
<asrwt>0</asrwt>
<pdfrwt beam="1">  1       21 0.32519780E-01 0.42569691E+03</pdfrwt>
<pdfrwt beam="2">  1       21 0.22667501E+00 0.42569691E+03</pdfrwt>
<totfact> 0.69349038E+02</totfact>
</mgrwt>
</event>
<event>
 6    1  0.9190795E-004  0.4851917E+03  0.7818608E-02  0.1017719E+00
         21   -1    0    0  503  502  0.00000000000E+00  0.00000000000E+00  0.44388479852E+03  0.44388479852E+03  0.00000000000E+00 0. -1.
         21   -1    0    0  501  503 -0.00000000000E+00 -0.00000000000E+00 -0.54929298041E+03  0.54929298041E+03  0.00000000000E+00 0.  1.
    9000007    2    1    2  501    0 -0.60533002296E+02  0.26785587580E+03  0.39572144355E+02  0.48678829487E+03  0.39998234316E+03 0.  0.
    9000005    1    3    3    0    0 -0.37530324186E+02  0.15593981980E+03  0.22058322438E+03  0.27273377405E+03  0.99999687468E+00 0.  0.
          4    1    3    3  501    0 -0.23002678110E+02  0.11191605600E+03 -0.18101108003E+03  0.21405452082E+03  0.00000000000E+00 0.  1.
   -9000007    1    1    2    0  502  0.60533002296E+02 -0.26785587580E+03 -0.14498032624E+03  0.50638948406E+03  0.40000000000E+03 0. -1.
<mgrwt>
<rscale>  2 0.48518809E+03</rscale>
<asrwt>0</asrwt>
<pdfrwt beam="1">  1       21 0.68289969E-01 0.48519173E+03</pdfrwt>
<pdfrwt beam="2">  1       21 0.84506612E-01 0.48519173E+03</pdfrwt>
<totfact> 0.20263540E+03</totfact>
</mgrwt>
</event>
<event>
 6    1  0.9190795E-004  0.4609130E+03  0.7818608E-02  0.1024520E+00
         21   -1    0    0  503  502  0.00000000000E+00  0.00000000000E+00  0.42390153896E+03  0.42390153896E+03  0.00000000000E+00 0.  1.
         21   -1    0    0  501  503 -0.00000000000E+00 -0.00000000000E+00 -0.54416589861E+03  0.54416589861E+03  0.00000000000E+00 0.  1.
    9000007    2    1    2  501    0 -0.75772679131E+02 -0.21610009140E+03  0.76037395306E+02  0.46709325918E+03  0.39994209441E+03 0.  0.
    9000005    1    3    3    0    0 -0.23563469713E+03 -0.99582558027E+02  0.83603622680E+02  0.26913000961E+03  0.99999687468E+00 0.  0.
          4    1    3    3  501    0  0.15986201800E+03 -0.11651753337E+03 -0.75662273731E+01  0.19796324957E+03  0.00000000000E+00 0.  1.
   -9000007    1    1    2    0  502  0.75772679131E+02  0.21610009140E+03 -0.19630175496E+03  0.50097417838E+03  0.40000000000E+03 0.  1.
<mgrwt>
<rscale>  2 0.46090039E+03</rscale>
<asrwt>0</asrwt>
<pdfrwt beam="1">  1       21 0.65215621E-01 0.46091295E+03</pdfrwt>
<pdfrwt beam="2">  1       21 0.83717831E-01 0.46091295E+03</pdfrwt>
<totfact> 0.23157216E+03</totfact>
</mgrwt>
</event>
<event>
 6    1  0.9190795E-004  0.4331254E+03  0.7818608E-02  0.1032887E+00
         21   -1    0    0  503  502  0.00000000000E+00  0.00000000000E+00  0.80239756695E+03  0.80239756695E+03  0.00000000000E+00 0. -1.
         21   -1    0    0  501  503 -0.00000000000E+00 -0.00000000000E+00 -0.39146068496E+03  0.39146068496E+03  0.00000000000E+00 0. -1.
    9000007    2    1    2  501    0  0.95873662767E+02  0.13566829238E+03 -0.17346149518E+03  0.46645251369E+03  0.39986424252E+03 0.  0.
    9000005    1    3    3    0    0  0.19806059148E+02  0.22130804526E+03 -0.24551381260E+03  0.33113073407E+03  0.99999687468E+00 0.  0.
          4    1    3    3  501    0  0.76067603619E+02 -0.85639752880E+02  0.72052317415E+02  0.13532177962E+03  0.00000000000E+00 0.  1.
   -9000007    1    1    2    0  502 -0.95873662767E+02 -0.13566829238E+03  0.58439837716E+03  0.72740573822E+03  0.40000000000E+03 0. -1.
<mgrwt>
<rscale>  2 0.43309409E+03</rscale>
<asrwt>0</asrwt>
<pdfrwt beam="1">  1       21 0.12344578E+00 0.43312544E+03</pdfrwt>
<pdfrwt beam="2">  1       21 0.60224721E-01 0.43312544E+03</pdfrwt>
<totfact> 0.10825264E+03</totfact>
</mgrwt>
</event>
<event>
 6    1  0.9190795E-004  0.4045090E+03  0.7818608E-02  0.1042265E+00
         21   -1    0    0  503  502  0.00000000000E+00  0.00000000000E+00  0.62287956427E+03  0.62287956427E+03  0.00000000000E+00 0. -1.
         21   -1    0    0  501  503 -0.00000000000E+00 -0.00000000000E+00 -0.62470019028E+03  0.62470019028E+03  0.00000000000E+00 0. -1.
    9000007    2    1    2  501    0 -0.57328092294E+02 -0.24617259345E+01 -0.47594042132E+03  0.62461735556E+03  0.40041851350E+03 0.  0.
    9000005    1    3    3    0    0  0.45347061257E+02 -0.51312773770E+02 -0.50307918385E+03  0.50771943229E+03  0.99999687468E+00 0.  0.
          4    1    3    3  501    0 -0.10267515355E+03  0.48851047835E+02  0.27138762528E+02  0.11689792326E+03  0.00000000000E+00 0.  1.
   -9000007    1    1    2    0  502  0.57328092294E+02  0.24617259345E+01  0.47411979531E+03  0.62296239900E+03  0.40000000000E+03 0. -1.
<mgrwt>
<rscale>  2 0.40440542E+03</rscale>
<asrwt>0</asrwt>
<pdfrwt beam="1">  1       21 0.95827625E-01 0.40450903E+03</pdfrwt>
<pdfrwt beam="2">  1       21 0.96107722E-01 0.40450903E+03</pdfrwt>
<totfact> 0.70447010E+02</totfact>
</mgrwt>
</event>
<event>
 6    1  0.9190795E-004  0.4109603E+03  0.7818608E-02  0.1040097E+00
         21   -1    0    0  503  502  0.00000000000E+00  0.00000000000E+00  0.12187346313E+04  0.12187346313E+04  0.00000000000E+00 0. -1.
         21   -1    0    0  501  503 -0.00000000000E+00 -0.00000000000E+00 -0.53919948495E+03  0.53919948495E+03  0.00000000000E+00 0. -1.
    9000007    2    1    2  501    0  0.72316066524E+02  0.56520304371E+02 -0.41799726299E+03  0.58618262903E+03  0.40057983527E+03 0.  0.
    9000005    1    3    3    0    0  0.15785430338E+02 -0.16760411741E+03 -0.24590225797E+03  0.29800879257E+03  0.99999687468E+00 0.  0.
          4    1    3    3  501    0  0.56530636186E+02  0.22412442178E+03 -0.17209500502E+03  0.28817383645E+03  0.00000000000E+00 0.  1.
   -9000007    1    1    2    0  502 -0.72316066524E+02 -0.56520304371E+02  0.10975324093E+04  0.11717514872E+04  0.40000000000E+03 0. -1.
<mgrwt>
<rscale>  2 0.41081893E+03</rscale>
<asrwt>0</asrwt>
<pdfrwt beam="1">  1       21 0.18749764E+00 0.41096029E+03</pdfrwt>
<pdfrwt beam="2">  1       21 0.82953767E-01 0.41096029E+03</pdfrwt>
<totfact> 0.16941080E+02</totfact>
</mgrwt>
</event>
<event>
 6    1  0.9190795E-004  0.4113641E+03  0.7818608E-02  0.1039964E+00
         21   -1    0    0  503  502  0.00000000000E+00  0.00000000000E+00  0.17497121995E+03  0.17497121995E+03  0.00000000000E+00 0. -1.
         21   -1    0    0  501  503 -0.00000000000E+00 -0.00000000000E+00 -0.19240110076E+04  0.19240110076E+04  0.00000000000E+00 0. -1.
    9000007    2    1    2  501    0 -0.12092639640E+02  0.95258683012E+02 -0.16148660730E+04  0.16662894563E+04  0.39938411321E+03 0.  0.
    9000005    1    3    3    0    0  0.43480573207E+02 -0.13877616132E+03 -0.90907010279E+03  0.92062958620E+03  0.99999687468E+00 0.  0.
          4    1    3    3  501    0 -0.55573212847E+02  0.23403484433E+03 -0.70579597016E+03  0.74565987008E+03  0.00000000000E+00 0.  1.
   -9000007    1    1    2    0  502  0.12092639640E+02 -0.95258683012E+02 -0.13417371472E+03  0.43269277131E+03  0.40000000000E+03 0. -1.
<mgrwt>
<rscale>  2 0.41121434E+03</rscale>
<asrwt>0</asrwt>
<pdfrwt beam="1">  1       21 0.26918649E-01 0.41136413E+03</pdfrwt>
<pdfrwt beam="2">  1       21 0.29600169E+00 0.41136413E+03</pdfrwt>
<totfact> 0.38447571E+02</totfact>
</mgrwt>
</event>
<event>
 6    1  0.9190795E-004  0.4485944E+03  0.7818608E-02  0.1028168E+00
         21   -1    0    0  503  502  0.00000000000E+00  0.00000000000E+00  0.36631362037E+03  0.36631362037E+03  0.00000000000E+00 0. -1.
         21   -1    0    0  501  503 -0.00000000000E+00 -0.00000000000E+00 -0.54953982588E+03  0.54953982588E+03  0.00000000000E+00 0. -1.
    9000007    2    1    2  501    0  0.16875846421E+03 -0.11294930550E+03 -0.76260428656E+02  0.45468249933E+03  0.39960425094E+03 0.  0.
    9000005    1    3    3    0    0  0.21429879632E+03 -0.23099913162E+03 -0.18629116562E+02  0.31564634781E+03  0.99999687468E+00 0.  0.
          4    1    3    3  501    0 -0.45540332106E+02  0.11804982612E+03 -0.57631312094E+02  0.13903615152E+03  0.00000000000E+00 0.  1.
   -9000007    1    1    2    0  502 -0.16875846421E+03  0.11294930550E+03 -0.10696577686E+03  0.46117094691E+03  0.40000000000E+03 0. -1.
<mgrwt>
<rscale>  2 0.44850620E+03</rscale>
<asrwt>0</asrwt>
<pdfrwt beam="1">  1       21 0.56355942E-01 0.44859443E+03</pdfrwt>
<pdfrwt beam="2">  1       21 0.84544588E-01 0.44859443E+03</pdfrwt>
<totfact> 0.31325051E+03</totfact>
</mgrwt>
</event>
<event>
 6    1  0.9190795E-004  0.4311500E+03  0.7818608E-02  0.1033560E+00
         21   -1    0    0  503  502  0.00000000000E+00  0.00000000000E+00  0.93971465989E+03  0.93971465989E+03  0.00000000000E+00 0. -1.
         21   -1    0    0  501  503 -0.00000000000E+00 -0.00000000000E+00 -0.27381289373E+03  0.27381289373E+03  0.00000000000E+00 0. -1.
    9000007    2    1    2  501    0 -0.11949763789E+03 -0.10449739241E+03  0.12739583889E+02  0.43133817321E+03  0.40086273484E+03 0.  0.
    9000005    1    3    3    0    0  0.40285158505E+01 -0.23928231275E+03  0.50656500200E+02  0.24462079867E+03  0.99999687468E+00 0.  0.
          4    1    3    3  501    0 -0.12352615374E+03  0.13478492035E+03 -0.37916916311E+02  0.18671737453E+03  0.00000000000E+00 0.  1.
   -9000007    1    1    2    0  502  0.11949763789E+03  0.10449739241E+03  0.65316218227E+03  0.78218938041E+03  0.40000000000E+03 0. -1.
<mgrwt>
<rscale>  2 0.43094936E+03</rscale>
<asrwt>0</asrwt>
<pdfrwt beam="1">  1       21 0.14457148E+00 0.43115000E+03</pdfrwt>
<pdfrwt beam="2">  1       21 0.42125061E-01 0.43115000E+03</pdfrwt>
<totfact> 0.15340575E+03</totfact>
</mgrwt>
</event>
<event>
 6    1  0.9190795E-004  0.4329706E+03  0.7818608E-02  0.1032984E+00
         21   -1    0    0  503  502  0.00000000000E+00  0.00000000000E+00  0.12913375013E+04  0.12913375013E+04  0.00000000000E+00 0. -1.
         21   -1    0    0  501  503 -0.00000000000E+00 -0.00000000000E+00 -0.41395359179E+03  0.41395359179E+03  0.00000000000E+00 0. -1.
    9000007    2    1    2  501    0  0.67066017610E+02 -0.15154431527E+03 -0.24881467261E+03  0.49873119960E+03  0.39919987217E+03 0.  0.
    9000005    1    3    3    0    0 -0.71354427768E+02 -0.21002615658E+03 -0.16994224650E+02  0.22246852468E+03  0.99999687468E+00 0.  0.
          4    1    3    3  501    0  0.13842044538E+03  0.58481841313E+02 -0.23182044796E+03  0.27626267492E+03  0.00000000000E+00 0.  1.
   -9000007    1    1    2    0  502 -0.67066017610E+02  0.15154431527E+03  0.11261985821E+04  0.12065598934E+04  0.40000000000E+03 0. -1.
<mgrwt>
<rscale>  2 0.43278570E+03</rscale>
<asrwt>0</asrwt>
<pdfrwt beam="1">  1       21 0.19866731E+00 0.43297059E+03</pdfrwt>
<pdfrwt beam="2">  1       21 0.63685168E-01 0.43297059E+03</pdfrwt>
<totfact> 0.25584044E+02</totfact>
</mgrwt>
</event>
<event>
 6    1  0.9190795E-004  0.4298745E+03  0.7818608E-02  0.1033908E+00
         21   -1    0    0  503  502  0.00000000000E+00  0.00000000000E+00  0.16424388673E+03  0.16424388673E+03  0.00000000000E+00 0.  1.
         21   -1    0    0  501  503 -0.00000000000E+00 -0.00000000000E+00 -0.11603686722E+04  0.11603686722E+04  0.00000000000E+00 0.  1.
    9000007    2    1    2  501    0  0.10431442366E+03  0.11794314587E+03 -0.38212217778E+03  0.57508518324E+03  0.39989189112E+03 0.  0.
    9000005    1    3    3    0    0 -0.11430916912E+03 -0.10082256832E+02 -0.27876606651E+03  0.30146269733E+03  0.99999687468E+00 0.  0.
          4    1    3    3  501    0  0.21862359278E+03  0.12802540271E+03 -0.10335611127E+03  0.27362248591E+03  0.00000000000E+00 0.  1.
   -9000007    1    1    2    0  502 -0.10431442366E+03 -0.11794314587E+03 -0.61400260767E+03  0.74952737566E+03  0.40000000000E+03 0.  1.
<mgrwt>
<rscale>  2 0.42984935E+03</rscale>
<asrwt>0</asrwt>
<pdfrwt beam="1">  1       21 0.25268291E-01 0.42987450E+03</pdfrwt>
<pdfrwt beam="2">  1       21 0.17851825E+00 0.42987450E+03</pdfrwt>
<totfact> 0.23779786E+03</totfact>
</mgrwt>
</event>
<event>
 6    1  0.9190795E-004  0.4414197E+03  0.7818608E-02  0.1030436E+00
         21   -1    0    0  503  502  0.00000000000E+00  0.00000000000E+00  0.22002626457E+03  0.22002626457E+03  0.00000000000E+00 0. -1.
         21   -1    0    0  501  503 -0.00000000000E+00 -0.00000000000E+00 -0.91403156232E+03  0.91403156232E+03  0.00000000000E+00 0. -1.
    9000007    2    1    2  501    0 -0.59104409135E+02 -0.17299576631E+03 -0.45322229000E+03  0.63266245080E+03  0.40178410391E+03 0.  0.
    9000005    1    3    3    0    0 -0.12579236267E+03 -0.10453602300E+03 -0.50013234505E+03  0.52619849978E+03  0.99999687468E+00 0.  0.
          4    1    3    3  501    0  0.66687953535E+02 -0.68459743315E+02  0.46910055048E+02  0.10646395102E+03  0.00000000000E+00 0.  1.
   -9000007    1    1    2    0  502  0.59104409135E+02  0.17299576631E+03 -0.24078300775E+03  0.50139537609E+03  0.40000000000E+03 0.  1.
<mgrwt>
<rscale>  2 0.44101330E+03</rscale>
<asrwt>0</asrwt>
<pdfrwt beam="1">  1       21 0.33850195E-01 0.44141968E+03</pdfrwt>
<pdfrwt beam="2">  1       21 0.14062024E+00 0.44141968E+03</pdfrwt>
<totfact> 0.25718424E+03</totfact>
</mgrwt>
</event>
<event>
 6    1  0.9190795E-004  0.5273890E+03  0.7818608E-02  0.1006905E+00
         21   -1    0    0  503  502  0.00000000000E+00  0.00000000000E+00  0.25866413532E+04  0.25866413532E+04  0.00000000000E+00 0.  1.
         21   -1    0    0  501  503 -0.00000000000E+00 -0.00000000000E+00 -0.10802558650E+03  0.10802558650E+03  0.00000000000E+00 0. -1.
    9000007    2    1    2  501    0  0.32415192641E+03 -0.11143947096E+03  0.11378369829E+04  0.12541180950E+04  0.40080664828E+03 0.  0.
    9000005    1    3    3    0    0  0.40420392979E+02  0.13687737950E+03  0.22466178124E+03  0.26616374872E+03  0.99999687468E+00 0.  0.
          4    1    3    3  501    0  0.28373153343E+03 -0.24831685045E+03  0.91317520169E+03  0.98795434625E+03  0.00000000000E+00 0.  1.
   -9000007    1    1    2    0  502 -0.32415192641E+03  0.11143947096E+03  0.13407787838E+04  0.14405488448E+04  0.40000000000E+03 0. -1.
<mgrwt>
<rscale>  2 0.52723578E+03</rscale>
<asrwt>0</asrwt>
<pdfrwt beam="1">  1       21 0.39794478E+00 0.52738904E+03</pdfrwt>
<pdfrwt beam="2">  1       21 0.16619323E-01 0.52738904E+03</pdfrwt>
<totfact> 0.21287923E+02</totfact>
</mgrwt>
</event>
<event>
 6    1  0.9190795E-004  0.4305341E+03  0.7818608E-02  0.1033694E+00
         21   -1    0    0  503  502  0.00000000000E+00  0.00000000000E+00  0.12943492853E+03  0.12943492853E+03  0.00000000000E+00 0.  1.
         21   -1    0    0  501  503 -0.00000000000E+00 -0.00000000000E+00 -0.24834696901E+04  0.24834696901E+04  0.00000000000E+00 0.  1.
    9000007    2    1    2  501    0 -0.47498627924E+02  0.15189936193E+03 -0.20271496994E+04  0.20723647222E+04  0.40003762589E+03 0.  0.
    9000005    1    3    3    0    0 -0.32950700842E+01 -0.13755996946E+03 -0.62583378075E+03  0.64078274306E+03  0.99999687468E+00 0.  0.
          4    1    3    3  501    0 -0.44203557839E+02  0.28945933140E+03 -0.14013159186E+04  0.14315819791E+04  0.00000000000E+00 0.  1.
   -9000007    1    1    2    0  502  0.47498627924E+02 -0.15189936193E+03 -0.32688506221E+03  0.54053989650E+03  0.40000000000E+03 0.  1.
<mgrwt>
<rscale>  2 0.43052539E+03</rscale>
<asrwt>0</asrwt>
<pdfrwt beam="1">  1       21 0.19913068E-01 0.43053413E+03</pdfrwt>
<pdfrwt beam="2">  1       21 0.38207222E+00 0.43053413E+03</pdfrwt>
<totfact> 0.20279824E+02</totfact>
</mgrwt>
</event>
<event>
 6    1  0.9190795E-004  0.6317041E+03  0.7818608E-02  0.9841937E-01
         21   -1    0    0  503  502  0.00000000000E+00  0.00000000000E+00  0.16704944979E+04  0.16704944979E+04  0.00000000000E+00 0. -1.
         21   -1    0    0  501  503 -0.00000000000E+00 -0.00000000000E+00 -0.23923642836E+03  0.23923642836E+03  0.00000000000E+00 0.  1.
    9000007    2    1    2  501    0 -0.32062091636E+03 -0.36912374759E+03  0.67100069364E+03  0.92127688553E+03  0.39932324740E+03 0.  0.
    9000005    1    3    3    0    0 -0.34055170121E+03 -0.41836287287E+03  0.47685825884E+03  0.71999844001E+03  0.99999687468E+00 0.  0.
          4    1    3    3  501    0  0.19930784853E+02  0.49239125287E+02  0.19414243479E+03  0.20127844552E+03  0.00000000000E+00 0.  1.
   -9000007    1    1    2    0  502  0.32062091636E+03  0.36912374759E+03  0.76025737594E+03  0.98845404076E+03  0.40000000000E+03 0. -1.
<mgrwt>
<rscale>  2 0.63159703E+03</rscale>
<asrwt>0</asrwt>
<pdfrwt beam="1">  1       21 0.25699915E+00 0.63170413E+03</pdfrwt>
<pdfrwt beam="2">  1       21 0.36805605E-01 0.63170413E+03</pdfrwt>
<totfact> 0.31827884E+02</totfact>
</mgrwt>
</event>
<event>
 6    1  0.9190795E-004  0.4398962E+03  0.7818608E-02  0.1030794E+00
         21   -1    0    0  503  502  0.00000000000E+00  0.00000000000E+00  0.38143749597E+03  0.38143749597E+03  0.00000000000E+00 0. -1.
         21   -1    0    0  501  503 -0.00000000000E+00 -0.00000000000E+00 -0.90876907960E+03  0.90876907960E+03  0.00000000000E+00 0. -1.
    9000007    2    1    2  501    0 -0.18251794305E+03 -0.13994554169E+02  0.16526135523E+03  0.46972279995E+03  0.39977436909E+03 0.  0.
    9000005    1    3    3    0    0 -0.49486022846E+02 -0.16339734693E+03  0.20394114762E+03  0.26597095918E+03  0.99999687468E+00 0.  0.
          4    1    3    3  501    0 -0.13303192020E+03  0.14940279276E+03 -0.38679792391E+02  0.20375184077E+03  0.00000000000E+00 0.  1.
   -9000007    1    1    2    0  502  0.18251794305E+03  0.13994554169E+02 -0.69259293887E+03  0.82048377561E+03  0.40000000000E+03 0. -1.
<mgrwt>
<rscale>  2 0.43984488E+03</rscale>
<asrwt>0</asrwt>
<pdfrwt beam="1">  1       21 0.58682691E-01 0.43989618E+03</pdfrwt>
<pdfrwt beam="2">  1       21 0.13981063E+00 0.43989618E+03</pdfrwt>
<totfact> 0.82621129E+02</totfact>
</mgrwt>
</event>
<event>
 6    1  0.9190795E-004  0.5878892E+03  0.7818608E-02  0.9930944E-01
         21   -1    0    0  503  502  0.00000000000E+00  0.00000000000E+00  0.30927912102E+03  0.30927912102E+03  0.00000000000E+00 0.  1.
         21   -1    0    0  501  503 -0.00000000000E+00 -0.00000000000E+00 -0.13449129712E+04  0.13449129712E+04  0.00000000000E+00 0. -1.
    9000007    2    1    2  501    0 -0.16496406118E+03  0.39799573143E+03 -0.17739783992E+03  0.61391194099E+03  0.39975509248E+03 0.  0.
    9000005    1    3    3    0    0 -0.24076983306E+02  0.16484395329E+03 -0.27751809078E+03  0.32368274709E+03  0.99999687468E+00 0.  0.
          4    1    3    3  501    0 -0.14088707788E+03  0.23315177814E+03  0.10012025085E+03  0.29022919390E+03  0.00000000000E+00 0.  1.
   -9000007    1    1    2    0  502  0.16496406118E+03 -0.39799573143E+03 -0.85823601023E+03  0.10402801512E+04  0.40000000000E+03 0. -1.
<mgrwt>
<rscale>  2 0.58784757E+03</rscale>
<asrwt>0</asrwt>
<pdfrwt beam="1">  1       21 0.47581403E-01 0.58788923E+03</pdfrwt>
<pdfrwt beam="2">  1       21 0.20690969E+00 0.58788923E+03</pdfrwt>
<totfact> 0.39515365E+02</totfact>
</mgrwt>
</event>
<event>
 6    1  0.9190795E-004  0.4162498E+03  0.7818608E-02  0.1039308E+00
         21   -1    0    0  503  502  0.00000000000E+00  0.00000000000E+00  0.97914999734E+03  0.97914999734E+03  0.00000000000E+00 0. -1.
         21   -1    0    0  501  503 -0.00000000000E+00 -0.00000000000E+00 -0.17220417942E+03  0.17220417942E+03  0.00000000000E+00 0. -1.
    9000007    2    1    2  501    0  0.99447704807E+02 -0.58086874455E+02  0.37084723317E+03  0.54848942691E+03  0.38736165287E+03 0.  0.
    9000005    1    3    3    0    0  0.20987121471E+03 -0.61030902812E+02  0.37923258360E+03  0.43770886479E+03  0.99999687468E+00 0.  0.
          4    1    3    3  501    0 -0.11042350990E+03  0.29440283566E+01 -0.83853504370E+01  0.11078056212E+03  0.00000000000E+00 0.  1.
   -9000007    1    1    2    0  502 -0.99447704807E+02  0.58086874455E+02  0.43609858476E+03  0.60286474984E+03  0.40000000000E+03 0. -1.
<mgrwt>
<rscale>  2 0.41318367E+03</rscale>
<asrwt>0</asrwt>
<pdfrwt beam="1">  1       21 0.15063846E+00 0.41624984E+03</pdfrwt>
<pdfrwt beam="2">  1       21 0.26492951E-01 0.41624984E+03</pdfrwt>
<totfact> 0.35110714E+03</totfact>
</mgrwt>
</event>
<event>
 6    1  0.9190795E-004  0.4999294E+03  0.7818608E-02  0.1013866E+00
         21   -1    0    0  503  502  0.00000000000E+00  0.00000000000E+00  0.27659516087E+03  0.27659516087E+03  0.00000000000E+00 0.  1.
         21   -1    0    0  501  503 -0.00000000000E+00 -0.00000000000E+00 -0.11348376962E+04  0.11348376962E+04  0.00000000000E+00 0.  1.
    9000007    2    1    2  501    0  0.19762705867E+03 -0.22555034662E+03 -0.74863598540E+03  0.89962917500E+03  0.39868207971E+03 0.  0.
    9000005    1    3    3    0    0  0.18972562186E+03 -0.58758663040E+02 -0.86279144543E+02  0.21654903105E+03  0.99999687468E+00 0.  0.
          4    1    3    3  501    0  0.79014368132E+01 -0.16679168358E+03 -0.66235684086E+03  0.68308014395E+03  0.00000000000E+00 0.  1.
   -9000007    1    1    2    0  502 -0.19762705867E+03  0.22555034662E+03 -0.10960654990E+03  0.51180368205E+03  0.40000000000E+03 0.  1.
<mgrwt>
<rscale>  2 0.49966573E+03</rscale>
<asrwt>0</asrwt>
<pdfrwt beam="1">  1       21 0.42553103E-01 0.49992941E+03</pdfrwt>
<pdfrwt beam="2">  1       21 0.17459041E+00 0.49992941E+03</pdfrwt>
<totfact> 0.86394928E+02</totfact>
</mgrwt>
</event>
<event>
 6    1  0.9190795E-004  0.4548346E+03  0.7818608E-02  0.1026442E+00
         21   -1    0    0  503  502  0.00000000000E+00  0.00000000000E+00  0.35091960884E+03  0.35091960884E+03  0.00000000000E+00 0. -1.
         21   -1    0    0  501  503 -0.00000000000E+00 -0.00000000000E+00 -0.64157850064E+03  0.64157850064E+03  0.00000000000E+00 0. -1.
    9000007    2    1    2  501    0  0.20851506502E+03 -0.58275030706E+02 -0.28996061427E+03  0.53766297546E+03  0.39765538575E+03 0.  0.
    9000005    1    3    3    0    0  0.30597276290E+02 -0.21086476647E+03 -0.17923815959E+03  0.27843753501E+03  0.99999687468E+00 0.  0.
          4    1    3    3  501    0  0.17791778873E+03  0.15258973577E+03 -0.11072245468E+03  0.25922544045E+03  0.00000000000E+00 0.  1.
   -9000007    1    1    2    0  502 -0.20851506502E+03  0.58275030706E+02 -0.69827752751E+00  0.45483513402E+03  0.40000000000E+03 0. -1.
<mgrwt>
<rscale>  2 0.45431858E+03</rscale>
<asrwt>0</asrwt>
<pdfrwt beam="1">  1       21 0.53987633E-01 0.45483460E+03</pdfrwt>
<pdfrwt beam="2">  1       21 0.98704383E-01 0.45483460E+03</pdfrwt>
<totfact> 0.23732428E+03</totfact>
</mgrwt>
</event>
<event>
 6    1  0.9190795E-004  0.4150526E+03  0.7818608E-02  0.1038720E+00
         21   -1    0    0  503  502  0.00000000000E+00  0.00000000000E+00  0.21715791052E+03  0.21715791052E+03  0.00000000000E+00 0.  1.
         21   -1    0    0  501  503 -0.00000000000E+00 -0.00000000000E+00 -0.10054625404E+04  0.10054625404E+04  0.00000000000E+00 0.  1.
    9000007    2    1    2  501    0  0.10755073128E+02 -0.11024040920E+03 -0.67531119657E+03  0.79246218311E+03  0.39960290294E+03 0.  0.
    9000005    1    3    3    0    0 -0.33437546935E+02  0.11673028627E+03 -0.46260516430E+03  0.47827666398E+03  0.99999687468E+00 0.  0.
          4    1    3    3  501    0  0.44192620063E+02 -0.22697069547E+03 -0.21270603226E+03  0.31418551913E+03  0.00000000000E+00 0.  1.
   -9000007    1    1    2    0  502 -0.10755073128E+02  0.11024040920E+03 -0.11299343336E+03  0.43015826785E+03  0.40000000000E+03 0.  1.
<mgrwt>
<rscale>  2 0.41495685E+03</rscale>
<asrwt>0</asrwt>
<pdfrwt beam="1">  1       21 0.33408910E-01 0.41505255E+03</pdfrwt>
<pdfrwt beam="2">  1       21 0.15468654E+00 0.41505255E+03</pdfrwt>
<totfact> 0.20638243E+03</totfact>
</mgrwt>
</event>
<event>
 6    1  0.9190795E-004  0.5071174E+03  0.7818608E-02  0.1011962E+00
         21   -1    0    0  503  502  0.00000000000E+00  0.00000000000E+00  0.11172875827E+04  0.11172875827E+04  0.00000000000E+00 0.  1.
         21   -1    0    0  501  503 -0.00000000000E+00 -0.00000000000E+00 -0.43213611447E+03  0.43213611447E+03  0.00000000000E+00 0.  1.
    9000007    2    1    2  501    0  0.28076701373E+03  0.13398448262E+03 -0.18720586877E+03  0.54056826600E+03  0.40048227840E+03 0.  0.
    9000005    1    3    3    0    0  0.62102718413E+02  0.15106724556E+03  0.90469684639E+02  0.18671856937E+03  0.99999687468E+00 0.  0.
          4    1    3    3  501    0  0.21866429532E+03 -0.17082762944E+02 -0.27767555341E+03  0.35384969662E+03  0.00000000000E+00 0.  1.
   -9000007    1    1    2    0  502 -0.28076701373E+03 -0.13398448262E+03  0.87235733699E+03  0.10088554312E+04  0.40000000000E+03 0.  1.
<mgrwt>
<rscale>  2 0.50702213E+03</rscale>
<asrwt>0</asrwt>
<pdfrwt beam="1">  1       21 0.17189040E+00 0.50711736E+03</pdfrwt>
<pdfrwt beam="2">  1       21 0.66482480E-01 0.50711736E+03</pdfrwt>
<totfact> 0.34436776E+02</totfact>
</mgrwt>
</event>
<event>
 6    1  0.9190795E-004  0.4726539E+03  0.7818608E-02  0.1021200E+00
         21   -1    0    0  503  502  0.00000000000E+00  0.00000000000E+00  0.10057110841E+04  0.10057110841E+04  0.00000000000E+00 0. -1.
         21   -1    0    0  501  503 -0.00000000000E+00 -0.00000000000E+00 -0.46375081542E+03  0.46375081542E+03  0.00000000000E+00 0. -1.
    9000007    2    1    2  501    0  0.21987056724E+03 -0.12271381617E+03 -0.25960196986E+03  0.53892239511E+03  0.39955277271E+03 0.  0.
    9000005    1    3    3    0    0  0.30654589015E+03 -0.94727793503E+02 -0.69737426480E+02  0.32834135633E+03  0.99999687468E+00 0.  0.
          4    1    3    3  501    0 -0.86675322902E+02 -0.27986022671E+02 -0.18986454338E+03  0.21058103879E+03  0.00000000000E+00 0.  1.
   -9000007    1    1    2    0  502 -0.21987056724E+03  0.12271381617E+03  0.80156223851E+03  0.93053950439E+03  0.40000000000E+03 0. -1.
<mgrwt>
<rscale>  2 0.47255931E+03</rscale>
<asrwt>0</asrwt>
<pdfrwt beam="1">  1       21 0.15472478E+00 0.47265394E+03</pdfrwt>
<pdfrwt beam="2">  1       21 0.71346280E-01 0.47265394E+03</pdfrwt>
<totfact> 0.40109510E+02</totfact>
</mgrwt>
</event>
<event>
 6    1  0.9190795E-004  0.5237516E+03  0.7818608E-02  0.1007762E+00
         21   -1    0    0  503  502  0.00000000000E+00  0.00000000000E+00  0.31631618886E+03  0.31631618886E+03  0.00000000000E+00 0.  1.
         21   -1    0    0  501  503 -0.00000000000E+00 -0.00000000000E+00 -0.88070082868E+03  0.88070082868E+03  0.00000000000E+00 0. -1.
    9000007    2    1    2  501    0  0.13515569587E+03  0.30991723552E+03 -0.35647297349E+03  0.63350746483E+03  0.39992870886E+03 0.  0.
    9000005    1    3    3    0    0 -0.69947985541E+02  0.30357266110E+03 -0.26436487175E+03  0.40858153000E+03  0.99999687468E+00 0.  0.
          4    1    3    3  501    0  0.20510368141E+03  0.63445744167E+01 -0.92108101745E+02  0.22492593484E+03  0.00000000000E+00 0.  1.
   -9000007    1    1    2    0  502 -0.13515569587E+03 -0.30991723552E+03 -0.20791166632E+03  0.56350955270E+03  0.40000000000E+03 0.  1.
<mgrwt>
<rscale>  2 0.52373800E+03</rscale>
<asrwt>0</asrwt>
<pdfrwt beam="1">  1       21 0.48664029E-01 0.52375162E+03</pdfrwt>
<pdfrwt beam="2">  1       21 0.13549243E+00 0.52375162E+03</pdfrwt>
<totfact> 0.12998079E+03</totfact>
</mgrwt>
</event>
<event>
 6    1  0.9190795E-004  0.4247342E+03  0.7818608E-02  0.1035852E+00
         21   -1    0    0  503  502  0.00000000000E+00  0.00000000000E+00  0.29605070924E+03  0.29605070924E+03  0.00000000000E+00 0. -1.
         21   -1    0    0  501  503 -0.00000000000E+00 -0.00000000000E+00 -0.98177275544E+03  0.98177275544E+03  0.00000000000E+00 0. -1.
    9000007    2    1    2  501    0  0.13016745449E+03  0.12010051069E+02 -0.74029207439E+03  0.85348198013E+03  0.40411796232E+03 0.  0.
    9000005    1    3    3    0    0 -0.28440153545E+02  0.89738223185E+02 -0.64683767433E+03  0.65365263554E+03  0.99999687468E+00 0.  0.
          4    1    3    3  501    0  0.15860760804E+03 -0.77728172115E+02 -0.93454400066E+02  0.19982934459E+03  0.00000000000E+00 0.  1.
   -9000007    1    1    2    0  502 -0.13016745449E+03 -0.12010051069E+02  0.54570028191E+02  0.42434148455E+03  0.40000000000E+03 0. -1.
<mgrwt>
<rscale>  2 0.42375175E+03</rscale>
<asrwt>0</asrwt>
<pdfrwt beam="1">  1       21 0.45546263E-01 0.42473419E+03</pdfrwt>
<pdfrwt beam="2">  1       21 0.15104196E+00 0.42473419E+03</pdfrwt>
<totfact> 0.11615600E+03</totfact>
</mgrwt>
</event>
<event>
 6    1  0.9190795E-004  0.4667972E+03  0.7818608E-02  0.1022829E+00
         21   -1    0    0  503  502  0.00000000000E+00  0.00000000000E+00  0.18404623319E+03  0.18404623319E+03  0.00000000000E+00 0. -1.
         21   -1    0    0  501  503 -0.00000000000E+00 -0.00000000000E+00 -0.16844593148E+04  0.16844593148E+04  0.00000000000E+00 0. -1.
    9000007    2    1    2  501    0 -0.19679513621E+02  0.23978609776E+03 -0.12595023460E+04  0.13432221593E+04  0.40001869166E+03 0.  0.
    9000005    1    3    3    0    0 -0.14371160734E+03 -0.49353328074E+02 -0.39089407296E+03  0.41938997764E+03  0.99999687468E+00 0.  0.
          4    1    3    3  501    0  0.12403209372E+03  0.28913942584E+03 -0.86860827301E+03  0.92383218162E+03  0.00000000000E+00 0.  1.
   -9000007    1    1    2    0  502  0.19679513621E+02 -0.23978609776E+03 -0.24091073563E+03  0.52528338873E+03  0.40000000000E+03 0. -1.
<mgrwt>
<rscale>  2 0.46679318E+03</rscale>
<asrwt>0</asrwt>
<pdfrwt beam="1">  1       21 0.28314806E-01 0.46679718E+03</pdfrwt>
<pdfrwt beam="2">  1       21 0.25914758E+00 0.46679718E+03</pdfrwt>
<totfact> 0.56276405E+02</totfact>
</mgrwt>
</event>
<event>
 6    1  0.9190795E-004  0.4983315E+03  0.7818608E-02  0.1014290E+00
         21   -1    0    0  503  502  0.00000000000E+00  0.00000000000E+00  0.79225598998E+03  0.79225598998E+03  0.00000000000E+00 0. -1.
         21   -1    0    0  501  503 -0.00000000000E+00 -0.00000000000E+00 -0.35042868668E+03  0.35042868668E+03  0.00000000000E+00 0. -1.
    9000007    2    1    2  501    0 -0.51263745066E+01 -0.29716655766E+03  0.40807628171E+03  0.64321158011E+03  0.39857325850E+03 0.  0.
    9000005    1    3    3    0    0  0.17740636200E+03 -0.20086018790E+03  0.13259742966E+03  0.29899985068E+03  0.99999687468E+00 0.  0.
          4    1    3    3  501    0 -0.18253273651E+03 -0.96306369762E+02  0.27547885204E+03  0.34421172943E+03  0.00000000000E+00 0.  1.
   -9000007    1    1    2    0  502  0.51263745066E+01  0.29716655766E+03  0.33751021596E+02  0.49947309654E+03  0.40000000000E+03 0. -1.
<mgrwt>
<rscale>  2 0.49804509E+03</rscale>
<asrwt>0</asrwt>
<pdfrwt beam="1">  1       21 0.12188554E+00 0.49833146E+03</pdfrwt>
<pdfrwt beam="2">  1       21 0.53912106E-01 0.49833146E+03</pdfrwt>
<totfact> 0.13865227E+03</totfact>
</mgrwt>
</event>
<event>
 6    1  0.9190795E-004  0.7511026E+03  0.7818608E-02  0.9633695E-01
         21   -1    0    0  503  502  0.00000000000E+00  0.00000000000E+00  0.15255441410E+04  0.15255441410E+04  0.00000000000E+00 0.  1.
         21   -1    0    0  501  503 -0.00000000000E+00 -0.00000000000E+00 -0.16130036081E+04  0.16130036081E+04  0.00000000000E+00 0. -1.
    9000007    2    1    2  501    0 -0.52177154263E+03  0.36280765154E+03 -0.14214708530E+04  0.16077109476E+04  0.40035005971E+03 0.  0.
    9000005    1    3    3    0    0 -0.47696138576E+03  0.31756902611E+03 -0.14327122777E+04  0.15430514316E+04  0.99999687468E+00 0.  0.
          4    1    3    3  501    0 -0.44810156870E+02  0.45238625424E+02  0.11241424626E+02  0.64659516056E+02  0.00000000000E+00 0.  1.
   -9000007    1    1    2    0  502  0.52177154263E+03 -0.36280765154E+03  0.13340113860E+04  0.15308368015E+04  0.40000000000E+03 0.  1.
<mgrwt>
<rscale>  2 0.75105596E+03</rscale>
<asrwt>0</asrwt>
<pdfrwt beam="1">  1       21 0.23469910E+00 0.75110259E+03</pdfrwt>
<pdfrwt beam="2">  1       21 0.24815440E+00 0.75110259E+03</pdfrwt>
<totfact> 0.33038703E+00</totfact>
</mgrwt>
</event>
<event>
 6    1  0.9190795E-004  0.4031430E+03  0.7818608E-02  0.1042742E+00
         21   -1    0    0  503  502  0.00000000000E+00  0.00000000000E+00  0.11588124129E+04  0.11588124129E+04  0.00000000000E+00 0. -1.
         21   -1    0    0  501  503 -0.00000000000E+00 -0.00000000000E+00 -0.35194205950E+03  0.35194205950E+03  0.00000000000E+00 0.  1.
    9000007    2    1    2  501    0  0.50240347785E+02  0.46070206906E+00 -0.18276740015E+03  0.44215389779E+03  0.39946444395E+03 0.  0.
    9000005    1    3    3    0    0 -0.17363382922E+03  0.28751814358E+02 -0.95249342643E+02  0.20012198966E+03  0.99999687468E+00 0.  0.
          4    1    3    3  501    0  0.22387417700E+03 -0.28291112289E+02 -0.87518057508E+02  0.24203190813E+03  0.00000000000E+00 0.  1.
   -9000007    1    1    2    0  502 -0.50240347785E+02 -0.46070206906E+00  0.98963775352E+03  0.10686005746E+04  0.40000000000E+03 0. -1.
<mgrwt>
<rscale>  2 0.40301012E+03</rscale>
<asrwt>0</asrwt>
<pdfrwt beam="1">  1       21 0.17827883E+00 0.40314303E+03</pdfrwt>
<pdfrwt beam="2">  1       21 0.54144933E-01 0.40314303E+03</pdfrwt>
<totfact> 0.51101404E+02</totfact>
</mgrwt>
</event>
<event>
 6    1  0.9190795E-004  0.6853647E+03  0.7818608E-02  0.9742606E-01
         21   -1    0    0  503  502  0.00000000000E+00  0.00000000000E+00  0.67411808338E+03  0.67411808338E+03  0.00000000000E+00 0. -1.
         21   -1    0    0  501  503 -0.00000000000E+00 -0.00000000000E+00 -0.74367819883E+03  0.74367819883E+03  0.00000000000E+00 0. -1.
    9000007    2    1    2  501    0 -0.55507552580E+03 -0.40198529109E+02 -0.21282096084E+03  0.71761885405E+03  0.39994911830E+03 0.  0.
    9000005    1    3    3    0    0 -0.59117212272E+03 -0.11487080121E+03 -0.18186754042E+03  0.62909187080E+03  0.99999687468E+00 0.  0.
          4    1    3    3  501    0  0.36096596916E+02  0.74672272096E+02 -0.30953420418E+02  0.88526983257E+02  0.00000000000E+00 0.  1.
   -9000007    1    1    2    0  502  0.55507552580E+03  0.40198529109E+02  0.14326084539E+03  0.70017742816E+03  0.40000000000E+03 0. -1.
<mgrwt>
<rscale>  2 0.68535727E+03</rscale>
<asrwt>0</asrwt>
<pdfrwt beam="1">  1       21 0.10371047E+00 0.68536469E+03</pdfrwt>
<pdfrwt beam="2">  1       21 0.11441203E+00 0.68536469E+03</pdfrwt>
<totfact> 0.33992159E+02</totfact>
</mgrwt>
</event>
<event>
 6    1  0.9190795E-004  0.4411590E+03  0.7818608E-02  0.1030412E+00
         21   -1    0    0  503  502  0.00000000000E+00  0.00000000000E+00  0.23729422631E+03  0.23729422631E+03  0.00000000000E+00 0. -1.
         21   -1    0    0  501  503 -0.00000000000E+00 -0.00000000000E+00 -0.83600746015E+03  0.83600746015E+03  0.00000000000E+00 0.  1.
    9000007    2    1    2  501    0  0.15125818982E+03 -0.10729340521E+03 -0.37443389518E+03  0.57863802644E+03  0.40028778271E+03 0.  0.
    9000005    1    3    3    0    0  0.10569094515E+03 -0.61918592862E+02  0.62137784510E+02  0.13735571443E+03  0.99999687468E+00 0.  0.
          4    1    3    3  501    0  0.45567244669E+02 -0.45374812352E+02 -0.43657167969E+03  0.44128231200E+03  0.00000000000E+00 0.  1.
   -9000007    1    1    2    0  502 -0.15125818982E+03  0.10729340521E+03 -0.22427933866E+03  0.49466366002E+03  0.40000000000E+03 0.  1.
<mgrwt>
<rscale>  2 0.44109366E+03</rscale>
<asrwt>0</asrwt>
<pdfrwt beam="1">  1       21 0.36506804E-01 0.44115896E+03</pdfrwt>
<pdfrwt beam="2">  1       21 0.12861653E+00 0.44115896E+03</pdfrwt>
<totfact> 0.27887441E+03</totfact>
</mgrwt>
</event>
<event>
 6    1  0.9190795E-004  0.4055098E+03  0.7818608E-02  0.1041964E+00
         21   -1    0    0  503  502  0.00000000000E+00  0.00000000000E+00  0.70549334807E+03  0.70549334807E+03  0.00000000000E+00 0. -1.
         21   -1    0    0  501  503 -0.00000000000E+00 -0.00000000000E+00 -0.35016813625E+03  0.35016813625E+03  0.00000000000E+00 0. -1.
    9000007    2    1    2  501    0 -0.55633074690E+02  0.24912245773E+02 -0.12809098048E+03  0.42525933175E+03  0.40090215885E+03 0.  0.
    9000005    1    3    3    0    0 -0.11622719065E+03  0.80280289504E+02  0.10637955248E+03  0.17683691331E+03  0.99999687468E+00 0.  0.
          4    1    3    3  501    0  0.60594115961E+02 -0.55368043731E+02 -0.23447053296E+03  0.24842241844E+03  0.00000000000E+00 0.  1.
   -9000007    1    1    2    0  502  0.55633074690E+02 -0.24912245773E+02  0.48341619230E+03  0.63040215257E+03  0.40000000000E+03 0.  1.
<mgrwt>
<rscale>  2 0.40528665E+03</rscale>
<asrwt>0</asrwt>
<pdfrwt beam="1">  1       21 0.10853744E+00 0.40550980E+03</pdfrwt>
<pdfrwt beam="2">  1       21 0.53872021E-01 0.40550980E+03</pdfrwt>
<totfact> 0.19264374E+03</totfact>
</mgrwt>
</event>
<event>
 6    1  0.9190795E-004  0.4040563E+03  0.7818608E-02  0.1042442E+00
         21   -1    0    0  503  502  0.00000000000E+00  0.00000000000E+00  0.25051340721E+03  0.25051340721E+03  0.00000000000E+00 0. -1.
         21   -1    0    0  501  503 -0.00000000000E+00 -0.00000000000E+00 -0.93332043892E+03  0.93332043892E+03  0.00000000000E+00 0. -1.
    9000007    2    1    2  501    0 -0.51142352223E+02  0.25415874656E+02 -0.66697180620E+03  0.77946735242E+03  0.39931999241E+03 0.  0.
    9000005    1    3    3    0    0  0.25872773210E+02  0.19144129558E+03 -0.48191953683E+03  0.51919804509E+03  0.99999687468E+00 0.  0.
          4    1    3    3  501    0 -0.77015125434E+02 -0.16602542093E+03 -0.18505226937E+03  0.26026930733E+03  0.00000000000E+00 0.  1.
   -9000007    1    1    2    0  502  0.51142352223E+02 -0.25415874656E+02 -0.15835225507E+02  0.40436649372E+03  0.40000000000E+03 0. -1.
<mgrwt>
<rscale>  2 0.40388792E+03</rscale>
<asrwt>0</asrwt>
<pdfrwt beam="1">  1       21 0.38540523E-01 0.40405632E+03</pdfrwt>
<pdfrwt beam="2">  1       21 0.14358776E+00 0.40405632E+03</pdfrwt>
<totfact> 0.18984488E+03</totfact>
</mgrwt>
</event>
<event>
 6    1  0.9190795E-004  0.4219227E+03  0.7818608E-02  0.1036619E+00
         21   -1    0    0  503  502  0.00000000000E+00  0.00000000000E+00  0.62891849573E+03  0.62891849573E+03  0.00000000000E+00 0. -1.
         21   -1    0    0  501  503 -0.00000000000E+00 -0.00000000000E+00 -0.51061148059E+03  0.51061148059E+03  0.00000000000E+00 0. -1.
    9000007    2    1    2  501    0 -0.93251506241E+02 -0.86527287206E+02 -0.32234063997E+03  0.53096348792E+03  0.40228835738E+03 0.  0.
    9000005    1    3    3    0    0 -0.12900078538E+03  0.49217201807E+02 -0.36004712563E+03  0.38561440358E+03  0.99999687468E+00 0.  0.
          4    1    3    3  501    0  0.35749279137E+02 -0.13574448901E+03  0.37706485664E+02  0.14534908434E+03  0.00000000000E+00 0.  1.
   -9000007    1    1    2    0  502  0.93251506241E+02  0.86527287206E+02  0.44064765511E+03  0.60856648840E+03  0.40000000000E+03 0. -1.
<mgrwt>
<rscale>  2 0.42137628E+03</rscale>
<asrwt>0</asrwt>
<pdfrwt beam="1">  1       21 0.96756692E-01 0.42192267E+03</pdfrwt>
<pdfrwt beam="2">  1       21 0.78555612E-01 0.42192267E+03</pdfrwt>
<totfact> 0.10960269E+03</totfact>
</mgrwt>
</event>
<event>
 6    1  0.9190795E-004  0.5249387E+03  0.7818608E-02  0.1007482E+00
         21   -1    0    0  503  502  0.00000000000E+00  0.00000000000E+00  0.69956650594E+03  0.69956650594E+03  0.00000000000E+00 0.  1.
         21   -1    0    0  501  503 -0.00000000000E+00 -0.00000000000E+00 -0.40313452442E+03  0.40313452442E+03  0.00000000000E+00 0. -1.
    9000007    2    1    2  501    0 -0.23676631552E+03  0.24393105841E+03  0.23244204753E+03  0.57387652159E+03  0.39968025615E+03 0.  0.
    9000005    1    3    3    0    0 -0.29585204569E+03  0.10416291140E+03  0.21992823345E+02  0.31442491842E+03  0.99999687468E+00 0.  0.
          4    1    3    3  501    0  0.59085730172E+02  0.13976814701E+03  0.21044922418E+03  0.25945160317E+03  0.00000000000E+00 0.  1.
   -9000007    1    1    2    0  502  0.23676631552E+03 -0.24393105841E+03  0.63989934000E+02  0.52882450877E+03  0.40000000000E+03 0. -1.
<mgrwt>
<rscale>  2 0.52487780E+03</rscale>
<asrwt>0</asrwt>
<pdfrwt beam="1">  1       21 0.10762562E+00 0.52493871E+03</pdfrwt>
<pdfrwt beam="2">  1       21 0.62020696E-01 0.52493871E+03</pdfrwt>
<totfact> 0.13833968E+03</totfact>
</mgrwt>
</event>
<event>
 6    1  0.9190795E-004  0.4094214E+03  0.7818608E-02  0.1041238E+00
         21   -1    0    0  503  502  0.00000000000E+00  0.00000000000E+00  0.11449816686E+04  0.11449816686E+04  0.00000000000E+00 0.  1.
         21   -1    0    0  501  503 -0.00000000000E+00 -0.00000000000E+00 -0.16091958620E+03  0.16091958620E+03  0.00000000000E+00 0.  1.
    9000007    2    1    2  501    0 -0.55135376472E+02 -0.67719654975E+02  0.27341341989E+03  0.48575042541E+03  0.39188354928E+03 0.  0.
    9000005    1    3    3    0    0 -0.22754186617E+02  0.10537238046E+03  0.28950105443E+03  0.30892224278E+03  0.99999687468E+00 0.  0.
          4    1    3    3  501    0 -0.32381189856E+02 -0.17309203543E+03 -0.16087634543E+02  0.17682818263E+03  0.00000000000E+00 0.  1.
   -9000007    1    1    2    0  502  0.55135376472E+02  0.67719654975E+02  0.71064866247E+03  0.82015082934E+03  0.40000000000E+03 0.  1.
<mgrwt>
<rscale>  2 0.40742534E+03</rscale>
<asrwt>0</asrwt>
<pdfrwt beam="1">  1       21 0.17615102E+00 0.40942137E+03</pdfrwt>
<pdfrwt beam="2">  1       21 0.24756860E-01 0.40942137E+03</pdfrwt>
<totfact> 0.25945618E+03</totfact>
</mgrwt>
</event>
<event>
 6    1  0.9190795E-004  0.5164079E+03  0.7818608E-02  0.1009595E+00
         21   -1    0    0  503  502  0.00000000000E+00  0.00000000000E+00  0.53370378429E+03  0.53370378429E+03  0.00000000000E+00 0. -1.
         21   -1    0    0  501  503 -0.00000000000E+00 -0.00000000000E+00 -0.56947293444E+03  0.56947293444E+03  0.00000000000E+00 0. -1.
    9000007    2    1    2  501    0  0.86606547626E+02  0.31460102537E+03  0.17548605283E+03  0.54541040561E+03  0.40025324053E+03 0.  0.
    9000005    1    3    3    0    0  0.18017190854E+03  0.20483765530E+03  0.26115556040E+03  0.37765540957E+03  0.99999687468E+00 0.  0.
          4    1    3    3  501    0 -0.93565360914E+02  0.10976337007E+03 -0.85669507563E+02  0.16775499605E+03  0.00000000000E+00 0.  1.
   -9000007    1    1    2    0  502 -0.86606547626E+02 -0.31460102537E+03 -0.21125520299E+03  0.55776631312E+03  0.40000000000E+03 0. -1.
<mgrwt>
<rscale>  2 0.51635886E+03</rscale>
<asrwt>0</asrwt>
<pdfrwt beam="1">  1       21 0.82108274E-01 0.51640794E+03</pdfrwt>
<pdfrwt beam="2">  1       21 0.87611221E-01 0.51640794E+03</pdfrwt>
<totfact> 0.12083205E+03</totfact>
</mgrwt>
</event>
<event>
 6    1  0.9190795E-004  0.4469817E+03  0.7818608E-02  0.1028699E+00
         21   -1    0    0  503  502  0.00000000000E+00  0.00000000000E+00  0.65383039639E+03  0.65383039639E+03  0.00000000000E+00 0. -1.
         21   -1    0    0  501  503 -0.00000000000E+00 -0.00000000000E+00 -0.33688412862E+03  0.33688412862E+03  0.00000000000E+00 0. -1.
    9000007    2    1    2  501    0  0.19934942081E+03  0.72419627900E+01  0.57039767252E+01  0.44604544995E+03  0.39891273540E+03 0.  0.
    9000005    1    3    3    0    0  0.30077640501E+02  0.82116118298E+02 -0.16978480952E+03  0.19098587089E+03  0.99999687468E+00 0.  0.
          4    1    3    3  501    0  0.16927178031E+03 -0.74874155507E+02  0.17548878624E+03  0.25505957906E+03  0.00000000000E+00 0.  1.
   -9000007    1    1    2    0  502 -0.19934942081E+03 -0.72419627900E+01  0.31124229104E+03  0.54466907507E+03  0.40000000000E+03 0. -1.
<mgrwt>
<rscale>  2 0.44673832E+03</rscale>
<asrwt>0</asrwt>
<pdfrwt beam="1">  1       21 0.10058929E+00 0.44698170E+03</pdfrwt>
<pdfrwt beam="2">  1       21 0.51828328E-01 0.44698170E+03</pdfrwt>
<totfact> 0.24813856E+03</totfact>
</mgrwt>
</event>
<event>
 6    1  0.9190795E-004  0.4380121E+03  0.7818608E-02  0.1031436E+00
         21   -1    0    0  503  502  0.00000000000E+00  0.00000000000E+00  0.48692803804E+03  0.48692803804E+03  0.00000000000E+00 0.  1.
         21   -1    0    0  501  503 -0.00000000000E+00 -0.00000000000E+00 -0.12310052776E+04  0.12310052776E+04  0.00000000000E+00 0.  1.
    9000007    2    1    2  501    0  0.10888037440E+03 -0.14142011972E+03 -0.10805699233E+04  0.11655911097E+04  0.39889433383E+03 0.  0.
    9000005    1    3    3    0    0 -0.93718106534E+02 -0.84410903250E+01 -0.74905677938E+03  0.75494462991E+03  0.99999687468E+00 0.  0.
          4    1    3    3  501    0  0.20259848093E+03 -0.13297902939E+03 -0.33151314396E+03  0.41064647978E+03  0.00000000000E+00 0.  1.
   -9000007    1    1    2    0  502 -0.10888037440E+03  0.14142011972E+03  0.33649268381E+03  0.55234220593E+03  0.40000000000E+03 0.  1.
<mgrwt>
<rscale>  2 0.43775950E+03</rscale>
<asrwt>0</asrwt>
<pdfrwt beam="1">  1       21 0.74912006E-01 0.43801208E+03</pdfrwt>
<pdfrwt beam="2">  1       21 0.18938543E+00 0.43801208E+03</pdfrwt>
<totfact> 0.20476422E+02</totfact>
</mgrwt>
</event>
<event>
 6    1  0.9190795E-004  0.4642617E+03  0.7818608E-02  0.1023558E+00
         21   -1    0    0  503  502  0.00000000000E+00  0.00000000000E+00  0.16601939267E+04  0.16601939267E+04  0.00000000000E+00 0. -1.
         21   -1    0    0  501  503 -0.00000000000E+00 -0.00000000000E+00 -0.18330871926E+03  0.18330871926E+03  0.00000000000E+00 0. -1.
    9000007    2    1    2  501    0 -0.23540271798E+03 -0.11156508803E+02  0.24042276090E+03  0.52275350664E+03  0.39991151199E+03 0.  0.
    9000005    1    3    3    0    0 -0.22052553058E+03  0.25682267422E+02 -0.51686197429E+02  0.22795515238E+03  0.99999687468E+00 0.  0.
          4    1    3    3  501    0 -0.14877187398E+02 -0.36838776225E+02  0.29210895833E+03  0.29479835426E+03  0.00000000000E+00 0.  1.
   -9000007    1    1    2    0  502  0.23540271798E+03  0.11156508803E+02  0.12364624466E+04  0.13207491394E+04  0.40000000000E+03 0. -1.
<mgrwt>
<rscale>  2 0.46424262E+03</rscale>
<asrwt>0</asrwt>
<pdfrwt beam="1">  1       21 0.25541444E+00 0.46426168E+03</pdfrwt>
<pdfrwt beam="2">  1       21 0.28201343E-01 0.46426168E+03</pdfrwt>
<totfact> 0.59862557E+02</totfact>
</mgrwt>
</event>
<event>
 6    1  0.9190795E-004  0.4646174E+03  0.7818608E-02  0.1023471E+00
         21   -1    0    0  503  502  0.00000000000E+00  0.00000000000E+00  0.58081299527E+03  0.58081299527E+03  0.00000000000E+00 0. -1.
         21   -1    0    0  501  503 -0.00000000000E+00 -0.00000000000E+00 -0.38575302851E+03  0.38575302851E+03  0.00000000000E+00 0.  1.
    9000007    2    1    2  501    0  0.17129458389E+03 -0.16287260914E+03  0.44010069238E+01  0.46435077088E+03  0.39966604593E+03 0.  0.
    9000005    1    3    3    0    0  0.13610653779E+03 -0.26539812706E+03  0.10525541695E+03  0.31629236201E+03  0.99999687468E+00 0.  0.
          4    1    3    3  501    0  0.35188046108E+02  0.10252551792E+03 -0.10085441003E+03  0.14805840886E+03  0.00000000000E+00 0.  1.
   -9000007    1    1    2    0  502 -0.17129458389E+03  0.16287260914E+03  0.19065895983E+03  0.50221525290E+03  0.40000000000E+03 0. -1.
<mgrwt>
<rscale>  2 0.46454551E+03</rscale>
<asrwt>0</asrwt>
<pdfrwt beam="1">  1       21 0.89355845E-01 0.46461739E+03</pdfrwt>
<pdfrwt beam="2">  1       21 0.59346620E-01 0.46461739E+03</pdfrwt>
<totfact> 0.24432793E+03</totfact>
</mgrwt>
</event>
<event>
 6    1  0.9190795E-004  0.4043124E+03  0.7818608E-02  0.1042319E+00
         21   -1    0    0  503  502  0.00000000000E+00  0.00000000000E+00  0.12530421290E+04  0.12530421290E+04  0.00000000000E+00 0. -1.
         21   -1    0    0  501  503 -0.00000000000E+00 -0.00000000000E+00 -0.13483475027E+03  0.13483475027E+03  0.00000000000E+00 0. -1.
    9000007    2    1    2  501    0  0.94981253958E+01  0.56304663015E+02  0.43306073980E+03  0.59246104695E+03  0.40025998843E+03 0.  0.
    9000005    1    3    3    0    0  0.84691032776E+02  0.21368230484E+03  0.24217425164E+03  0.33388930289E+03  0.99999687468E+00 0.  0.
          4    1    3    3  501    0 -0.75192907380E+02 -0.15737764182E+03  0.19088648817E+03  0.25857174407E+03  0.00000000000E+00 0.  1.
   -9000007    1    1    2    0  502 -0.94981253958E+01 -0.56304663015E+02  0.68514663894E+03  0.79541583233E+03  0.40000000000E+03 0. -1.
<mgrwt>
<rscale>  2 0.40424800E+03</rscale>
<asrwt>0</asrwt>
<pdfrwt beam="1">  1       21 0.19277570E+00 0.40431236E+03</pdfrwt>
<pdfrwt beam="2">  1       21 0.20743809E-01 0.40431236E+03</pdfrwt>
<totfact> 0.28027107E+03</totfact>
</mgrwt>
</event>
<event>
 6    1  0.9190795E-004  0.5288532E+03  0.7818608E-02  0.1006574E+00
         21   -1    0    0  503  502  0.00000000000E+00  0.00000000000E+00  0.42300183813E+03  0.42300183813E+03  0.00000000000E+00 0.  1.
         21   -1    0    0  501  503 -0.00000000000E+00 -0.00000000000E+00 -0.73598815069E+03  0.73598815069E+03  0.00000000000E+00 0. -1.
    9000007    2    1    2  501    0  0.15808655040E+03  0.30772452154E+03 -0.34268663351E+03  0.62930343279E+03  0.39862632020E+03 0.  0.
    9000005    1    3    3    0    0 -0.67450582716E+02  0.23928920715E+03 -0.30025299152E+03  0.38982273494E+03  0.99999687468E+00 0.  0.
          4    1    3    3  501    0  0.22553713311E+03  0.68435314389E+02 -0.42433641993E+02  0.23948069785E+03  0.00000000000E+00 0.  1.
   -9000007    1    1    2    0  502 -0.15808655040E+03 -0.30772452154E+03  0.29700320956E+02  0.52968655603E+03  0.40000000000E+03 0.  1.
<mgrwt>
<rscale>  2 0.52859348E+03</rscale>
<asrwt>0</asrwt>
<pdfrwt beam="1">  1       21 0.65077206E-01 0.52885323E+03</pdfrwt>
<pdfrwt beam="2">  1       21 0.11322895E+00 0.52885323E+03</pdfrwt>
<totfact> 0.10939479E+03</totfact>
</mgrwt>
</event>
<event>
 6    1  0.9190795E-004  0.6154547E+03  0.7818608E-02  0.9873904E-01
         21   -1    0    0  503  502  0.00000000000E+00  0.00000000000E+00  0.34257326438E+03  0.34257326438E+03  0.00000000000E+00 0.  1.
         21   -1    0    0  501  503 -0.00000000000E+00 -0.00000000000E+00 -0.20649798958E+04  0.20649798958E+04  0.00000000000E+00 0.  1.
    9000007    2    1    2  501    0 -0.43903590301E+03 -0.16134423744E+03 -0.16817089942E+04  0.17907543398E+04  0.39983931455E+03 0.  0.
    9000005    1    3    3    0    0 -0.31916424133E+02 -0.10288944674E+03 -0.90936225255E+03  0.91572135650E+03  0.99999687468E+00 0.  0.
          4    1    3    3  501    0 -0.40711947888E+03 -0.58454790693E+02 -0.77234674164E+03  0.87503298335E+03  0.00000000000E+00 0.  1.
   -9000007    1    1    2    0  502  0.43903590301E+03  0.16134423744E+03 -0.40697637225E+02  0.61679882033E+03  0.40000000000E+03 0.  1.
<mgrwt>
<rscale>  2 0.61542859E+03</rscale>
<asrwt>0</asrwt>
<pdfrwt beam="1">  1       21 0.52703581E-01 0.61545470E+03</pdfrwt>
<pdfrwt beam="2">  1       21 0.31768920E+00 0.61545470E+03</pdfrwt>
<totfact> 0.64011823E+01</totfact>
</mgrwt>
</event>
<event>
 6    1  0.9190795E-004  0.5025725E+03  0.7818608E-02  0.1013142E+00
         21   -1    0    0  503  502  0.00000000000E+00  0.00000000000E+00  0.55121471473E+03  0.55121471473E+03  0.00000000000E+00 0.  1.
         21   -1    0    0  501  503 -0.00000000000E+00 -0.00000000000E+00 -0.62707524593E+03  0.62707524593E+03  0.00000000000E+00 0. -1.
    9000007    2    1    2  501    0  0.30213789280E+03 -0.28036915935E+02 -0.34407376983E+03  0.60906969021E+03  0.40063169311E+03 0.  0.
    9000005    1    3    3    0    0  0.18734707642E+03 -0.20534500562E+03 -0.26346348913E+03  0.38298760877E+03  0.99999687468E+00 0.  0.
          4    1    3    3  501    0  0.11479081638E+03  0.17730808968E+03 -0.80610280705E+02  0.22608208144E+03  0.00000000000E+00 0.  1.
   -9000007    1    1    2    0  502 -0.30213789280E+03  0.28036915935E+02  0.26821323863E+03  0.56922027045E+03  0.40000000000E+03 0.  1.
<mgrwt>
<rscale>  2 0.50244661E+03</rscale>
<asrwt>0</asrwt>
<pdfrwt beam="1">  1       21 0.84802263E-01 0.50257251E+03</pdfrwt>
<pdfrwt beam="2">  1       21 0.96473115E-01 0.50257251E+03</pdfrwt>
<totfact> 0.89462014E+02</totfact>
</mgrwt>
</event>
<event>
 6    1  0.9190795E-004  0.5653595E+03  0.7818608E-02  0.9981861E-01
         21   -1    0    0  503  502  0.00000000000E+00  0.00000000000E+00  0.35395467248E+03  0.35395467248E+03  0.00000000000E+00 0.  1.
         21   -1    0    0  501  503 -0.00000000000E+00 -0.00000000000E+00 -0.90715553684E+03  0.90715553684E+03  0.00000000000E+00 0.  1.
    9000007    2    1    2  501    0 -0.36210574827E+03  0.16885133423E+03 -0.21154589027E+03  0.60053510586E+03  0.39529660215E+03 0.  0.
    9000005    1    3    3    0    0 -0.74485589531E+01  0.96744375072E+02  0.87803232526E+02  0.13086390937E+03  0.99999687468E+00 0.  0.
          4    1    3    3  501    0 -0.35465718931E+03  0.72106959163E+02 -0.29934912280E+03  0.46967119649E+03  0.00000000000E+00 0.  1.
   -9000007    1    1    2    0  502  0.36210574827E+03 -0.16885133423E+03 -0.34165497408E+03  0.66057510346E+03  0.40000000000E+03 0.  1.
<mgrwt>
<rscale>  2 0.56452818E+03</rscale>
<asrwt>0</asrwt>
<pdfrwt beam="1">  1       21 0.54454566E-01 0.56535948E+03</pdfrwt>
<pdfrwt beam="2">  1       21 0.13956239E+00 0.56535948E+03</pdfrwt>
<totfact> 0.93064657E+02</totfact>
</mgrwt>
</event>
<event>
 6    1  0.9190795E-004  0.4904419E+03  0.7818608E-02  0.1016352E+00
         21   -1    0    0  503  502  0.00000000000E+00  0.00000000000E+00  0.21089062890E+04  0.21089062890E+04  0.00000000000E+00 0.  1.
         21   -1    0    0  501  503 -0.00000000000E+00 -0.00000000000E+00 -0.14708142995E+03  0.14708142995E+03  0.00000000000E+00 0.  1.
    9000007    2    1    2  501    0 -0.14651839589E+03  0.24159958900E+03  0.44562345198E+03  0.66265639479E+03  0.40086810158E+03 0.  0.
    9000005    1    3    3    0    0 -0.25958374378E+03  0.16521019142E+03  0.42494015562E+03  0.52464584554E+03  0.99999687468E+00 0.  0.
          4    1    3    3  501    0  0.11306534790E+03  0.76389397583E+02  0.20683296358E+02  0.13801054926E+03  0.00000000000E+00 0.  1.
   -9000007    1    1    2    0  502  0.14651839589E+03 -0.24159958900E+03  0.15162014071E+04  0.15933313242E+04  0.40000000000E+03 0.  1.
<mgrwt>
<rscale>  2 0.49026446E+03</rscale>
<asrwt>0</asrwt>
<pdfrwt beam="1">  1       21 0.32444710E+00 0.49044188E+03</pdfrwt>
<pdfrwt beam="2">  1       21 0.22627914E-01 0.49044188E+03</pdfrwt>
<totfact> 0.34652888E+02</totfact>
</mgrwt>
</event>
<event>
 6    1  0.9190795E-004  0.4287221E+03  0.7818608E-02  0.1034281E+00
         21   -1    0    0  503  502  0.00000000000E+00  0.00000000000E+00  0.12223925302E+04  0.12223925302E+04  0.00000000000E+00 0.  1.
         21   -1    0    0  501  503 -0.00000000000E+00 -0.00000000000E+00 -0.16719978633E+03  0.16719978633E+03  0.00000000000E+00 0. -1.
    9000007    2    1    2  501    0  0.12025651396E+03 -0.95721077868E+02  0.74866886206E+03  0.86273271092E+03  0.40022307726E+03 0.  0.
    9000005    1    3    3    0    0 -0.84235507140E+02 -0.14278164254E+03  0.13378456051E+03  0.21302940345E+03  0.99999687468E+00 0.  0.
          4    1    3    3  501    0  0.20449202110E+03  0.47060564671E+02  0.61488430155E+03  0.64970330747E+03  0.00000000000E+00 0.  1.
   -9000007    1    1    2    0  502 -0.12025651396E+03  0.95721077868E+02  0.30652388177E+03  0.52685960558E+03  0.40000000000E+03 0. -1.
<mgrwt>
<rscale>  2 0.42867006E+03</rscale>
<asrwt>0</asrwt>
<pdfrwt beam="1">  1       21 0.18806038E+00 0.42872213E+03</pdfrwt>
<pdfrwt beam="2">  1       21 0.25723045E-01 0.42872213E+03</pdfrwt>
<totfact> 0.19718450E+03</totfact>
</mgrwt>
</event>
<event>
 6    1  0.9190795E-004  0.5301566E+03  0.7818608E-02  0.1006204E+00
         21   -1    0    0  503  502  0.00000000000E+00  0.00000000000E+00  0.29941659851E+03  0.29941659851E+03  0.00000000000E+00 0.  1.
         21   -1    0    0  501  503 -0.00000000000E+00 -0.00000000000E+00 -0.10172506905E+04  0.10172506905E+04  0.00000000000E+00 0.  1.
    9000007    2    1    2  501    0 -0.18799635692E+03 -0.29278559848E+03 -0.17559046883E+03  0.55831764422E+03  0.39977561482E+03 0.  0.
    9000005    1    3    3    0    0  0.43314273166E+01 -0.16159335889E+03 -0.26377056745E+03  0.30936562050E+03  0.99999687468E+00 0.  0.
          4    1    3    3  501    0 -0.19232778424E+03 -0.13119223959E+03  0.88180098621E+02  0.24895202371E+03  0.00000000000E+00 0.  1.
   -9000007    1    1    2    0  502  0.18799635692E+03  0.29278559848E+03 -0.54224362313E+03  0.75834964477E+03  0.40000000000E+03 0.  1.
<mgrwt>
<rscale>  2 0.53011429E+03</rscale>
<asrwt>0</asrwt>
<pdfrwt beam="1">  1       21 0.46064091E-01 0.53015662E+03</pdfrwt>
<pdfrwt beam="2">  1       21 0.15650011E+00 0.53015662E+03</pdfrwt>
<totfact> 0.98619811E+02</totfact>
</mgrwt>
</event>
<event>
 6    1  0.9190795E-004  0.4649207E+03  0.7818608E-02  0.1023373E+00
         21   -1    0    0  503  502  0.00000000000E+00  0.00000000000E+00  0.63616139973E+03  0.63616139973E+03  0.00000000000E+00 0.  1.
         21   -1    0    0  501  503 -0.00000000000E+00 -0.00000000000E+00 -0.36822959300E+03  0.36822959300E+03  0.00000000000E+00 0. -1.
    9000007    2    1    2  501    0 -0.20491216003E+03 -0.11847934496E+03 -0.58600910837E+01  0.46495763094E+03  0.40015610628E+03 0.  0.
    9000005    1    3    3    0    0 -0.11733739671E+03  0.14542478669E+03 -0.32228450463E+01  0.18688986054E+03  0.99999687468E+00 0.  0.
          4    1    3    3  501    0 -0.87574763320E+02 -0.26390413164E+03 -0.26372460374E+01  0.27806777040E+03  0.00000000000E+00 0.  1.
   -9000007    1    1    2    0  502  0.20491216003E+03  0.11847934496E+03  0.27379189781E+03  0.53943336179E+03  0.40000000000E+03 0. -1.
<mgrwt>
<rscale>  2 0.46488711E+03</rscale>
<asrwt>0</asrwt>
<pdfrwt beam="1">  1       21 0.97870985E-01 0.46492070E+03</pdfrwt>
<pdfrwt beam="2">  1       21 0.56650707E-01 0.46492070E+03</pdfrwt>
<totfact> 0.21749406E+03</totfact>
</mgrwt>
</event>
<event>
 6    1  0.9190795E-004  0.4533554E+03  0.7818608E-02  0.1026740E+00
         21   -1    0    0  503  502  0.00000000000E+00  0.00000000000E+00  0.95751873797E+03  0.95751873797E+03  0.00000000000E+00 0.  1.
         21   -1    0    0  501  503 -0.00000000000E+00 -0.00000000000E+00 -0.43518816724E+03  0.43518816724E+03  0.00000000000E+00 0. -1.
    9000007    2    1    2  501    0  0.20939190521E+03 -0.38959452669E+02 -0.23462356800E+03  0.51046976188E+03  0.40021038244E+03 0.  0.
    9000005    1    3    3    0    0  0.28882491600E+03 -0.70981048644E+01 -0.28934139539E+03  0.40888832006E+03  0.99999687468E+00 0.  0.
          4    1    3    3  501    0 -0.79433010794E+02 -0.31861347804E+02  0.54717827392E+02  0.10158144182E+03  0.00000000000E+00 0.  1.
   -9000007    1    1    2    0  502 -0.20939190521E+03  0.38959452669E+02  0.75695413874E+03  0.88223714333E+03  0.40000000000E+03 0.  1.
<mgrwt>
<rscale>  2 0.45330901E+03</rscale>
<asrwt>0</asrwt>
<pdfrwt beam="1">  1       21 0.14731057E+00 0.45335544E+03</pdfrwt>
<pdfrwt beam="2">  1       21 0.66952026E-01 0.45335544E+03</pdfrwt>
<totfact> 0.53359833E+02</totfact>
</mgrwt>
</event>
<event>
 6    1  0.9190795E-004  0.4275620E+03  0.7818608E-02  0.1034660E+00
         21   -1    0    0  503  502  0.00000000000E+00  0.00000000000E+00  0.47320120408E+03  0.47320120408E+03  0.00000000000E+00 0.  1.
         21   -1    0    0  501  503 -0.00000000000E+00 -0.00000000000E+00 -0.47477008601E+03  0.47477008601E+03  0.00000000000E+00 0.  1.
    9000007    2    1    2  501    0 -0.14756886373E+03  0.32136078646E+02 -0.20572169149E+03  0.47416999551E+03  0.39963292307E+03 0.  0.
    9000005    1    3    3    0    0 -0.71454269559E+02  0.65757991188E+02  0.11054345070E+03  0.14714170221E+03  0.99999687468E+00 0.  0.
          4    1    3    3  501    0 -0.76114594174E+02 -0.33621912541E+02 -0.31626514219E+03  0.32702829330E+03  0.00000000000E+00 0.  1.
   -9000007    1    1    2    0  502  0.14756886373E+03 -0.32136078646E+02  0.20415280956E+03  0.47380129458E+03  0.40000000000E+03 0.  1.
<mgrwt>
<rscale>  2 0.42747616E+03</rscale>
<asrwt>0</asrwt>
<pdfrwt beam="1">  1       21 0.72800185E-01 0.42756204E+03</pdfrwt>
<pdfrwt beam="2">  1       21 0.73041552E-01 0.42756204E+03</pdfrwt>
<totfact> 0.25061895E+03</totfact>
</mgrwt>
</event>
<event>
 6    1  0.9190795E-004  0.5549940E+03  0.7818608E-02  0.1000370E+00
         21   -1    0    0  503  502  0.00000000000E+00  0.00000000000E+00  0.27905700760E+04  0.27905700760E+04  0.00000000000E+00 0. -1.
         21   -1    0    0  501  503 -0.00000000000E+00 -0.00000000000E+00 -0.13530441788E+03  0.13530441788E+03  0.00000000000E+00 0. -1.
    9000007    2    1    2  501    0 -0.10923942305E+03  0.36822826871E+03  0.69904481810E+03  0.89257046242E+03  0.40061585497E+03 0.  0.
    9000005    1    3    3    0    0 -0.19412304445E+03  0.40210675763E+02  0.37268763121E+03  0.42213472409E+03  0.99999687468E+00 0.  0.
          4    1    3    3  501    0  0.84883621402E+02  0.32801759295E+03  0.32635718689E+03  0.47043573833E+03  0.00000000000E+00 0.  1.
   -9000007    1    1    2    0  502  0.10923942305E+03 -0.36822826871E+03  0.19562208400E+04  0.20333040315E+04  0.40000000000E+03 0. -1.
<mgrwt>
<rscale>  2 0.55488290E+03</rscale>
<asrwt>0</asrwt>
<pdfrwt beam="1">  1       21 0.42931843E+00 0.55499403E+03</pdfrwt>
<pdfrwt beam="2">  1       21 0.20816066E-01 0.55499403E+03</pdfrwt>
<totfact> 0.85243190E+01</totfact>
</mgrwt>
</event>
<event>
 6    1  0.9190795E-004  0.4477422E+03  0.7818608E-02  0.1028531E+00
         21   -1    0    0  503  502  0.00000000000E+00  0.00000000000E+00  0.97549351618E+03  0.97549351618E+03  0.00000000000E+00 0. -1.
         21   -1    0    0  501  503 -0.00000000000E+00 -0.00000000000E+00 -0.20482184710E+03  0.20482184710E+03  0.00000000000E+00 0. -1.
    9000007    2    1    2  501    0 -0.36515125738E+02  0.19379591156E+03  0.37154482033E+03  0.58182354953E+03  0.40197372990E+03 0.  0.
    9000005    1    3    3    0    0 -0.27904950830E+02  0.31895208149E+03  0.24073017692E+03  0.40057600358E+03  0.99999687468E+00 0.  0.
          4    1    3    3  501    0 -0.86101749073E+01 -0.12515616993E+03  0.13081464341E+03  0.18124754596E+03  0.00000000000E+00 0.  1.
   -9000007    1    1    2    0  502  0.36515125738E+02 -0.19379591156E+03  0.39912684875E+03  0.59849181376E+03  0.40000000000E+03 0. -1.
<mgrwt>
<rscale>  2 0.44729877E+03</rscale>
<asrwt>0</asrwt>
<pdfrwt beam="1">  1       21 0.15007592E+00 0.44774221E+03</pdfrwt>
<pdfrwt beam="2">  1       21 0.31511054E-01 0.44774221E+03</pdfrwt>
<totfact> 0.24863849E+03</totfact>
</mgrwt>
</event>
<event>
 6    1  0.9190795E-004  0.6327828E+03  0.7818608E-02  0.9840031E-01
         21   -1    0    0  503  502  0.00000000000E+00  0.00000000000E+00  0.15623202359E+04  0.15623202359E+04  0.00000000000E+00 0.  1.
         21   -1    0    0  501  503 -0.00000000000E+00 -0.00000000000E+00 -0.52960266105E+03  0.52960266105E+03  0.00000000000E+00 0. -1.
    9000007    2    1    2  501    0  0.37658921582E+03 -0.31399786048E+03 -0.23565090226E+03  0.67447000969E+03  0.39870333881E+03 0.  0.
    9000005    1    3    3    0    0  0.28365577892E+03  0.13815491018E+01 -0.26723066442E+02  0.28491688589E+03  0.99999687468E+00 0.  0.
          4    1    3    3  501    0  0.92933436903E+02 -0.31537940958E+03 -0.20892783582E+03  0.38955312380E+03  0.00000000000E+00 0.  1.
   -9000007    1    1    2    0  502 -0.37658921582E+03  0.31399786048E+03  0.12683684772E+04  0.14174528873E+04  0.40000000000E+03 0.  1.
<mgrwt>
<rscale>  2 0.63257800E+03</rscale>
<asrwt>0</asrwt>
<pdfrwt beam="1">  1       21 0.24035696E+00 0.63278282E+03</pdfrwt>
<pdfrwt beam="2">  1       21 0.81477333E-01 0.63278282E+03</pdfrwt>
<totfact> 0.71429760E+01</totfact>
</mgrwt>
</event>
<event>
 6    1  0.9190795E-004  0.5226931E+03  0.7818608E-02  0.1008032E+00
         21   -1    0    0  503  502  0.00000000000E+00  0.00000000000E+00  0.41845691173E+03  0.41845691173E+03  0.00000000000E+00 0. -1.
         21   -1    0    0  501  503 -0.00000000000E+00 -0.00000000000E+00 -0.78262438276E+03  0.78262438276E+03  0.00000000000E+00 0. -1.
    9000007    2    1    2  501    0 -0.20453562434E+03 -0.26677686451E+03 -0.42684512433E+03  0.67483685957E+03  0.40025405657E+03 0.  0.
    9000005    1    3    3    0    0 -0.27831264579E+03 -0.31446625323E+03 -0.40693655769E+03  0.58476090431E+03  0.99999687468E+00 0.  0.
          4    1    3    3  501    0  0.73777021452E+02  0.47689388720E+02 -0.19908566648E+02  0.90075955264E+02  0.00000000000E+00 0.  1.
   -9000007    1    1    2    0  502  0.20453562434E+03  0.26677686451E+03  0.62677653299E+02  0.52624443492E+03  0.40000000000E+03 0. -1.
<mgrwt>
<rscale>  2 0.52264442E+03</rscale>
<asrwt>0</asrwt>
<pdfrwt beam="1">  1       21 0.64377987E-01 0.52269305E+03</pdfrwt>
<pdfrwt beam="2">  1       21 0.12040375E+00 0.52269305E+03</pdfrwt>
<totfact> 0.96155947E+02</totfact>
</mgrwt>
</event>
<event>
 6    1  0.9190795E-004  0.4290277E+03  0.7818608E-02  0.1034259E+00
         21   -1    0    0  503  502  0.00000000000E+00  0.00000000000E+00  0.70574679343E+03  0.70574679343E+03  0.00000000000E+00 0.  1.
         21   -1    0    0  501  503 -0.00000000000E+00 -0.00000000000E+00 -0.32294520194E+03  0.32294520194E+03  0.00000000000E+00 0. -1.
    9000007    2    1    2  501    0 -0.23254207067E+02 -0.15337550401E+03 -0.35690961254E+02  0.42935834866E+03  0.39876050892E+03 0.  0.
    9000005    1    3    3    0    0  0.93143073653E+02 -0.15216691453E+03 -0.17356983789E+03  0.24891342002E+03  0.99999687468E+00 0.  0.
          4    1    3    3  501    0 -0.11639728072E+03 -0.12085894818E+01  0.13787887664E+03  0.18044492864E+03  0.00000000000E+00 0.  1.
   -9000007    1    1    2    0  502  0.23254207067E+02  0.15337550401E+03  0.41849255274E+03  0.59933364671E+03  0.40000000000E+03 0.  1.
<mgrwt>
<rscale>  2 0.42873860E+03</rscale>
<asrwt>0</asrwt>
<pdfrwt beam="1">  1       21 0.10857643E+00 0.42902774E+03</pdfrwt>
<pdfrwt beam="2">  1       21 0.49683877E-01 0.42902774E+03</pdfrwt>
<totfact> 0.22658814E+03</totfact>
</mgrwt>
</event>
<event>
 6    1  0.9190795E-004  0.4429378E+03  0.7818608E-02  0.1029898E+00
         21   -1    0    0  503  502  0.00000000000E+00  0.00000000000E+00  0.95139042592E+02  0.95139042592E+02  0.00000000000E+00 0.  1.
         21   -1    0    0  501  503 -0.00000000000E+00 -0.00000000000E+00 -0.24573304955E+04  0.24573304955E+04  0.00000000000E+00 0.  1.
    9000007    2    1    2  501    0 -0.49876981827E+02  0.18359250289E+03 -0.16940711509E+04  0.17508594967E+04  0.39929687275E+03 0.  0.
    9000005    1    3    3    0    0 -0.59721563675E+02 -0.90360842840E+02 -0.16478023447E+03  0.19719349064E+03  0.99999687468E+00 0.  0.
          4    1    3    3  501    0  0.98445818481E+01  0.27395334573E+03 -0.15292909164E+04  0.15536660061E+04  0.00000000000E+00 0.  1.
   -9000007    1    1    2    0  502  0.49876981827E+02 -0.18359250289E+03 -0.66812030199E+03  0.80161004134E+03  0.40000000000E+03 0.  1.
<mgrwt>
<rscale>  2 0.44277903E+03</rscale>
<asrwt>0</asrwt>
<pdfrwt beam="1">  1       21 0.14636776E-01 0.44293783E+03</pdfrwt>
<pdfrwt beam="2">  1       21 0.37805084E+00 0.44293783E+03</pdfrwt>
<totfact> 0.37966577E+02</totfact>
</mgrwt>
</event>
<event>
 6    1  0.9190795E-004  0.4345915E+03  0.7818608E-02  0.1032447E+00
         21   -1    0    0  503  502  0.00000000000E+00  0.00000000000E+00  0.25745485436E+03  0.25745485436E+03  0.00000000000E+00 0.  1.
         21   -1    0    0  501  503 -0.00000000000E+00 -0.00000000000E+00 -0.90821319023E+03  0.90821319023E+03  0.00000000000E+00 0. -1.
    9000007    2    1    2  501    0 -0.55945285529E+02  0.16043650216E+03 -0.58126391298E+03  0.72555530788E+03  0.39961609335E+03 0.  0.
    9000005    1    3    3    0    0  0.21570009158E+02  0.12266098988E+03 -0.61901750335E+03  0.63142272147E+03  0.99999687468E+00 0.  0.
          4    1    3    3  501    0 -0.77515294687E+02  0.37775512284E+02  0.37753590376E+02  0.94132586414E+02  0.00000000000E+00 0.  1.
   -9000007    1    1    2    0  502  0.55945285529E+02 -0.16043650216E+03 -0.69494422887E+02  0.44011273671E+03  0.40000000000E+03 0.  1.
<mgrwt>
<rscale>  2 0.43450311E+03</rscale>
<asrwt>0</asrwt>
<pdfrwt beam="1">  1       21 0.39608439E-01 0.43459147E+03</pdfrwt>
<pdfrwt beam="2">  1       21 0.13972511E+00 0.43459147E+03</pdfrwt>
<totfact> 0.19055011E+03</totfact>
</mgrwt>
</event>
<event>
 6    1  0.9190795E-004  0.5240045E+03  0.7818608E-02  0.1007775E+00
         21   -1    0    0  503  502  0.00000000000E+00  0.00000000000E+00  0.23564733673E+04  0.23564733673E+04  0.00000000000E+00 0.  1.
         21   -1    0    0  501  503 -0.00000000000E+00 -0.00000000000E+00 -0.14350084606E+03  0.14350084606E+03  0.00000000000E+00 0.  1.
    9000007    2    1    2  501    0 -0.28434632381E+03 -0.18365145692E+03  0.16502281279E+04  0.17310386233E+04  0.39832292374E+03 0.  0.
    9000005    1    3    3    0    0 -0.49283792955E+02  0.67599680887E+02  0.92017312134E+03  0.92396871285E+03  0.99999687468E+00 0.  0.
          4    1    3    3  501    0 -0.23506253086E+03 -0.25125113781E+03  0.73005500659E+03  0.80706991042E+03  0.00000000000E+00 0.  1.
   -9000007    1    1    2    0  502  0.28434632381E+03  0.18365145692E+03  0.56274439335E+03  0.76893559011E+03  0.40000000000E+03 0.  1.
<mgrwt>
<rscale>  2 0.52368441E+03</rscale>
<asrwt>0</asrwt>
<pdfrwt beam="1">  1       21 0.36253434E+00 0.52400447E+03</pdfrwt>
<pdfrwt beam="2">  1       21 0.22077055E-01 0.52400447E+03</pdfrwt>
<totfact> 0.20821416E+02</totfact>
</mgrwt>
</event>
<event>
 6    1  0.9190795E-004  0.4816063E+03  0.7818608E-02  0.1018727E+00
         21   -1    0    0  503  502  0.00000000000E+00  0.00000000000E+00  0.34444210609E+03  0.34444210609E+03  0.00000000000E+00 0. -1.
         21   -1    0    0  501  503 -0.00000000000E+00 -0.00000000000E+00 -0.97797381307E+03  0.97797381307E+03  0.00000000000E+00 0.  1.
    9000007    2    1    2  501    0  0.26539970125E+03  0.32477932854E+02 -0.68627026241E+03  0.83839817901E+03  0.40056562005E+03 0.  0.
    9000005    1    3    3    0    0  0.18986540330E+03  0.12244957677E+03 -0.11187053139E+03  0.25210867896E+03  0.99999687468E+00 0.  0.
          4    1    3    3  501    0  0.75534297944E+02 -0.89971643912E+02 -0.57439973102E+03  0.58628950005E+03  0.00000000000E+00 0.  1.
   -9000007    1    1    2    0  502 -0.26539970125E+03 -0.32477932854E+02  0.52738555435E+02  0.48401774014E+03  0.40000000000E+03 0. -1.
<mgrwt>
<rscale>  2 0.48148868E+03</rscale>
<asrwt>0</asrwt>
<pdfrwt beam="1">  1       21 0.52991095E-01 0.48160631E+03</pdfrwt>
<pdfrwt beam="2">  1       21 0.15045750E+00 0.48160631E+03</pdfrwt>
<totfact> 0.83081080E+02</totfact>
</mgrwt>
</event>
<event>
 6    1  0.9190795E-004  0.4023147E+03  0.7818608E-02  0.1043118E+00
         21   -1    0    0  503  502  0.00000000000E+00  0.00000000000E+00  0.41672102583E+03  0.41672102583E+03  0.00000000000E+00 0.  1.
         21   -1    0    0  501  503 -0.00000000000E+00 -0.00000000000E+00 -0.40153548217E+03  0.40153548217E+03  0.00000000000E+00 0.  1.
    9000007    2    1    2  501    0 -0.87927634096E+01 -0.22524836876E+02 -0.70559731371E+02  0.40845541825E+03  0.40158744010E+03 0.  0.
    9000005    1    3    3    0    0 -0.44653840833E+02  0.12560267673E+03  0.10952855862E+03  0.17253261445E+03  0.99999687468E+00 0.  0.
          4    1    3    3  501    0  0.35861077423E+02 -0.14812751360E+03 -0.18008828999E+03  0.23592280380E+03  0.00000000000E+00 0.  1.
   -9000007    1    1    2    0  502  0.87927634096E+01  0.22524836876E+02  0.85745275026E+02  0.40980108974E+03  0.40000000000E+03 0.  1.
<mgrwt>
<rscale>  2 0.40191802E+03</rscale>
<asrwt>0</asrwt>
<pdfrwt beam="1">  1       21 0.64110927E-01 0.40231474E+03</pdfrwt>
<pdfrwt beam="2">  1       21 0.61774689E-01 0.40231474E+03</pdfrwt>
<totfact> 0.48868676E+03</totfact>
</mgrwt>
</event>
<event>
 6    1  0.9190795E-004  0.4080781E+03  0.7818608E-02  0.1041081E+00
         21   -1    0    0  503  502  0.00000000000E+00  0.00000000000E+00  0.10128808279E+04  0.10128808279E+04  0.00000000000E+00 0.  1.
         21   -1    0    0  501  503 -0.00000000000E+00 -0.00000000000E+00 -0.64843741813E+03  0.64843741813E+03  0.00000000000E+00 0.  1.
    9000007    2    1    2  501    0 -0.74199780726E+02 -0.31970846571E+02 -0.53570986878E+03  0.67298446266E+03  0.39924338563E+03 0.  0.
    9000005    1    3    3    0    0 -0.60649041285E+02  0.39145071915E+01  0.54434366431E+02  0.81594912941E+02  0.99999687468E+00 0.  0.
          4    1    3    3  501    0 -0.13550739440E+02 -0.35885353762E+02 -0.59014423521E+03  0.59138954971E+03  0.00000000000E+00 0.  1.
   -9000007    1    1    2    0  502  0.74199780726E+02  0.31970846571E+02  0.90015327859E+03  0.98833378341E+03  0.40000000000E+03 0.  1.
<mgrwt>
<rscale>  2 0.40789258E+03</rscale>
<asrwt>0</asrwt>
<pdfrwt beam="1">  1       21 0.15582782E+00 0.40807811E+03</pdfrwt>
<pdfrwt beam="2">  1       21 0.99759602E-01 0.40807811E+03</pdfrwt>
<totfact> 0.18574648E+02</totfact>
</mgrwt>
</event>
<event>
 6    1  0.9190795E-004  0.4243186E+03  0.7818608E-02  0.1035700E+00
         21   -1    0    0  503  502  0.00000000000E+00  0.00000000000E+00  0.23328117873E+03  0.23328117873E+03  0.00000000000E+00 0.  1.
         21   -1    0    0  501  503 -0.00000000000E+00 -0.00000000000E+00 -0.88277743933E+03  0.88277743933E+03  0.00000000000E+00 0. -1.
    9000007    2    1    2  501    0 -0.12432932939E+02  0.13989898576E+03 -0.52334113452E+03  0.67374490600E+03  0.40039973930E+03 0.  0.
    9000005    1    3    3    0    0  0.17394446283E+02 -0.12938878245E+03 -0.28262453306E+03  0.31132242204E+03  0.99999687468E+00 0.  0.
          4    1    3    3  501    0 -0.29827379222E+02  0.26928776821E+03 -0.24071660146E+03  0.36242248396E+03  0.00000000000E+00 0.  1.
   -9000007    1    1    2    0  502  0.12432932939E+02 -0.13989898576E+03 -0.12615512608E+03  0.44231371206E+03  0.40000000000E+03 0.  1.
<mgrwt>
<rscale>  2 0.42422425E+03</rscale>
<asrwt>0</asrwt>
<pdfrwt beam="1">  1       21 0.35889413E-01 0.42431858E+03</pdfrwt>
<pdfrwt beam="2">  1       21 0.13581191E+00 0.42431858E+03</pdfrwt>
<totfact> 0.25222859E+03</totfact>
</mgrwt>
</event>
<event>
 6    1  0.9190795E-004  0.6038362E+03  0.7818608E-02  0.9901666E-01
         21   -1    0    0  503  502  0.00000000000E+00  0.00000000000E+00  0.10787099247E+04  0.10787099247E+04  0.00000000000E+00 0.  1.
         21   -1    0    0  501  503 -0.00000000000E+00 -0.00000000000E+00 -0.63373356213E+03  0.63373356213E+03  0.00000000000E+00 0. -1.
    9000007    2    1    2  501    0 -0.43997454139E+03 -0.36713790638E+02 -0.36604628819E+03  0.70612184861E+03  0.41193771433E+03 0.  0.
    9000005    1    3    3    0    0 -0.12948298910E+03  0.14367936975E+03 -0.27405387418E+03  0.33543424349E+03  0.99999687468E+00 0.  0.
          4    1    3    3  501    0 -0.31049155229E+03 -0.18039316039E+03 -0.91992414016E+02  0.37068760512E+03  0.00000000000E+00 0.  1.
   -9000007    1    1    2    0  502  0.43997454139E+03  0.36713790638E+02  0.81102265074E+03  0.10063216382E+04  0.40000000000E+03 0.  1.
<mgrwt>
<rscale>  2 0.60180601E+03</rscale>
<asrwt>0</asrwt>
<pdfrwt beam="1">  1       21 0.16595537E+00 0.60383622E+03</pdfrwt>
<pdfrwt beam="2">  1       21 0.97497471E-01 0.60383622E+03</pdfrwt>
<totfact> 0.15011885E+02</totfact>
</mgrwt>
</event>
<event>
 6    1  0.9190795E-004  0.4255642E+03  0.7818608E-02  0.1035414E+00
         21   -1    0    0  503  502  0.00000000000E+00  0.00000000000E+00  0.25963209577E+03  0.25963209577E+03  0.00000000000E+00 0.  1.
         21   -1    0    0  501  503 -0.00000000000E+00 -0.00000000000E+00 -0.75343026538E+03  0.75343026538E+03  0.00000000000E+00 0.  1.
    9000007    2    1    2  501    0 -0.14471087941E+03 -0.12791411176E+02 -0.38795078217E+03  0.57453239838E+03  0.39809145756E+03 0.  0.
    9000005    1    3    3    0    0 -0.99430648238E+02 -0.18605994223E+03 -0.31938192415E+03  0.38276699097E+03  0.99999687468E+00 0.  0.
          4    1    3    3  501    0 -0.45280231176E+02  0.17326853105E+03 -0.68568858022E+02  0.19176540741E+03  0.00000000000E+00 0.  1.
   -9000007    1    1    2    0  502  0.14471087941E+03  0.12791411176E+02 -0.10584738744E+03  0.43852996277E+03  0.40000000000E+03 0.  1.
<mgrwt>
<rscale>  2 0.42511511E+03</rscale>
<asrwt>0</asrwt>
<pdfrwt beam="1">  1       21 0.39943399E-01 0.42556417E+03</pdfrwt>
<pdfrwt beam="2">  1       21 0.11591235E+00 0.42556417E+03</pdfrwt>
<totfact> 0.30427714E+03</totfact>
</mgrwt>
</event>
<event>
 6    1  0.9190795E-004  0.4491372E+03  0.7818608E-02  0.1028649E+00
         21   -1    0    0  503  502  0.00000000000E+00  0.00000000000E+00  0.43606561735E+03  0.43606561735E+03  0.00000000000E+00 0. -1.
         21   -1    0    0  501  503 -0.00000000000E+00 -0.00000000000E+00 -0.75652205014E+03  0.75652205014E+03  0.00000000000E+00 0. -1.
    9000007    2    1    2  501    0 -0.14450867592E+03 -0.11383136305E+03 -0.53855116894E+03  0.70125717733E+03  0.40973641595E+03 0.  0.
    9000005    1    3    3    0    0 -0.27833705833E+03 -0.14089919630E+03 -0.35722643734E+03  0.47427400212E+03  0.99999687468E+00 0.  0.
          4    1    3    3  501    0  0.13382838241E+03  0.27067833254E+02 -0.18132473160E+03  0.22698317520E+03  0.00000000000E+00 0.  1.
   -9000007    1    1    2    0  502  0.14450867592E+03  0.11383136305E+03  0.21809473615E+03  0.49133049017E+03  0.40000000000E+03 0. -1.
<mgrwt>
<rscale>  2 0.44690460E+03</rscale>
<asrwt>0</asrwt>
<pdfrwt beam="1">  1       21 0.67087019E-01 0.44913725E+03</pdfrwt>
<pdfrwt beam="2">  1       21 0.11638801E+00 0.44913725E+03</pdfrwt>
<totfact> 0.98333694E+02</totfact>
</mgrwt>
</event>
<event>
 6    1  0.9190795E-004  0.4302022E+03  0.7818608E-02  0.1033871E+00
         21   -1    0    0  503  502  0.00000000000E+00  0.00000000000E+00  0.45737796597E+03  0.45737796597E+03  0.00000000000E+00 0.  1.
         21   -1    0    0  501  503 -0.00000000000E+00 -0.00000000000E+00 -0.60662889594E+03  0.60662889594E+03  0.00000000000E+00 0.  1.
    9000007    2    1    2  501    0  0.98423606271E+02 -0.12070751955E+03 -0.38234184905E+03  0.57555124662E+03  0.40101924693E+03 0.  0.
    9000005    1    3    3    0    0  0.24643300826E+03 -0.11532597508E+03 -0.18588279894E+03  0.32951892665E+03  0.99999687468E+00 0.  0.
          4    1    3    3  501    0 -0.14800940199E+03 -0.53815444629E+01 -0.19645905012E+03  0.24603231997E+03  0.00000000000E+00 0.  1.
   -9000007    1    1    2    0  502 -0.98423606271E+02  0.12070751955E+03  0.23309091909E+03  0.48845561529E+03  0.40000000000E+03 0.  1.
<mgrwt>
<rscale>  2 0.42996453E+03</rscale>
<asrwt>0</asrwt>
<pdfrwt beam="1">  1       21 0.70365842E-01 0.43020222E+03</pdfrwt>
<pdfrwt beam="2">  1       21 0.93327522E-01 0.43020222E+03</pdfrwt>
<totfact> 0.15296275E+03</totfact>
</mgrwt>
</event>
<event>
 6    1  0.9190795E-004  0.5310071E+03  0.7818608E-02  0.1006664E+00
         21   -1    0    0  503  502  0.00000000000E+00  0.00000000000E+00  0.49116212197E+03  0.49116212197E+03  0.00000000000E+00 0. -1.
         21   -1    0    0  501  503 -0.00000000000E+00 -0.00000000000E+00 -0.95704421692E+03  0.95704421692E+03  0.00000000000E+00 0.  1.
    9000007    2    1    2  501    0  0.33206782087E+03  0.10816407930E+03  0.23358150594E+03  0.57001624861E+03  0.38521383420E+03 0.  0.
    9000005    1    3    3    0    0  0.94401035602E+02  0.10100832119E+03  0.29382547895E+03  0.32472857673E+03  0.99999687468E+00 0.  0.
          4    1    3    3  501    0  0.23766678526E+03  0.71557581082E+01 -0.60243973009E+02  0.24528767188E+03  0.00000000000E+00 0.  1.
   -9000007    1    1    2    0  502 -0.33206782087E+03 -0.10816407930E+03 -0.69946360088E+03  0.87819009028E+03  0.40000000000E+03 0.  1.
<mgrwt>
<rscale>  2 0.52822344E+03</rscale>
<asrwt>0</asrwt>
<pdfrwt beam="1">  1       21 0.75563404E-01 0.53100707E+03</pdfrwt>
<pdfrwt beam="2">  1       21 0.14723757E+00 0.53100707E+03</pdfrwt>
<totfact> 0.39313337E+02</totfact>
</mgrwt>
</event>
<event>
 6    1  0.9190795E-004  0.4134660E+03  0.7818608E-02  0.1039336E+00
         21   -1    0    0  503  502  0.00000000000E+00  0.00000000000E+00  0.29577009661E+03  0.29577009661E+03  0.00000000000E+00 0.  1.
         21   -1    0    0  501  503 -0.00000000000E+00 -0.00000000000E+00 -0.63132796470E+03  0.63132796470E+03  0.00000000000E+00 0.  1.
    9000007    2    1    2  501    0 -0.93740605176E+02 -0.30971875006E+02 -0.30533498216E+03  0.51398792959E+03  0.40150664046E+03 0.  0.
    9000005    1    3    3    0    0  0.38517646702E+02 -0.17000654128E+03 -0.26611853911E+03  0.31812876330E+03  0.99999687468E+00 0.  0.
          4    1    3    3  501    0 -0.13225825188E+03  0.13903466627E+03 -0.39216443052E+02  0.19585916629E+03  0.00000000000E+00 0.  1.
   -9000007    1    1    2    0  502  0.93740605176E+02  0.30971875006E+02 -0.30222885925E+02  0.41311013172E+03  0.40000000000E+03 0.  1.
<mgrwt>
<rscale>  2 0.41309980E+03</rscale>
<asrwt>0</asrwt>
<pdfrwt beam="1">  1       21 0.45503092E-01 0.41346601E+03</pdfrwt>
<pdfrwt beam="2">  1       21 0.97127379E-01 0.41346601E+03</pdfrwt>
<totfact> 0.36017859E+03</totfact>
</mgrwt>
</event>
<event>
 6    1  0.9190795E-004  0.5098589E+03  0.7818608E-02  0.1011279E+00
         21   -1    0    0  503  502  0.00000000000E+00  0.00000000000E+00  0.14460453049E+03  0.14460453049E+03  0.00000000000E+00 0. -1.
         21   -1    0    0  501  503 -0.00000000000E+00 -0.00000000000E+00 -0.18828403379E+04  0.18828403379E+04  0.00000000000E+00 0. -1.
    9000007    2    1    2  501    0 -0.74751706254E+02  0.30719421537E+03 -0.65009168120E+03  0.82577363924E+03  0.39915762019E+03 0.  0.
    9000005    1    3    3    0    0 -0.18602151183E+03  0.22430655085E+03 -0.19658537078E+03  0.35151705452E+03  0.99999687468E+00 0.  0.
          4    1    3    3  501    0  0.11126980557E+03  0.82887664521E+02 -0.45350631043E+03  0.47425658473E+03  0.00000000000E+00 0.  1.
   -9000007    1    1    2    0  502  0.74751706254E+02 -0.30719421537E+03 -0.10881441262E+04  0.12016712292E+04  0.40000000000E+03 0. -1.
<mgrwt>
<rscale>  2 0.50969367E+03</rscale>
<asrwt>0</asrwt>
<pdfrwt beam="1">  1       21 0.22246850E-01 0.50985891E+03</pdfrwt>
<pdfrwt beam="2">  1       21 0.28966775E+00 0.50985891E+03</pdfrwt>
<totfact> 0.57557609E+02</totfact>
</mgrwt>
</event>
<event>
 6    1  0.9190795E-004  0.4373416E+03  0.7818608E-02  0.1031572E+00
         21   -1    0    0  503  502  0.00000000000E+00  0.00000000000E+00  0.76525928379E+03  0.76525928379E+03  0.00000000000E+00 0. -1.
         21   -1    0    0  501  503 -0.00000000000E+00 -0.00000000000E+00 -0.44006404737E+03  0.44006404737E+03  0.00000000000E+00 0. -1.
    9000007    2    1    2  501    0  0.17069212928E+03  0.45332707444E+02 -0.23357376632E+03  0.49580683679E+03  0.40009606063E+03 0.  0.
    9000005    1    3    3    0    0 -0.63045974096E+01  0.24944195893E+02 -0.30336673117E+03  0.30445744273E+03  0.99999687468E+00 0.  0.
          4    1    3    3  501    0  0.17699672669E+03  0.20388511551E+02  0.69792964854E+02  0.19134939406E+03  0.00000000000E+00 0.  1.
   -9000007    1    1    2    0  502 -0.17069212928E+03 -0.45332707444E+02  0.55876900273E+03  0.70951649437E+03  0.40000000000E+03 0. -1.
<mgrwt>
<rscale>  2 0.43731967E+03</rscale>
<asrwt>0</asrwt>
<pdfrwt beam="1">  1       21 0.11773220E+00 0.43734165E+03</pdfrwt>
<pdfrwt beam="2">  1       21 0.67702161E-01 0.43734165E+03</pdfrwt>
<totfact> 0.94082087E+02</totfact>
</mgrwt>
</event>
<event>
 6    1  0.9190795E-004  0.6611093E+03  0.7818608E-02  0.9786440E-01
         21   -1    0    0  503  502  0.00000000000E+00  0.00000000000E+00  0.28236610190E+03  0.28236610190E+03  0.00000000000E+00 0.  1.
         21   -1    0    0  501  503 -0.00000000000E+00 -0.00000000000E+00 -0.21331159904E+04  0.21331159904E+04  0.00000000000E+00 0.  1.
    9000007    2    1    2  501    0  0.27839431709E+03 -0.44672370541E+03 -0.15584570210E+04  0.16926400728E+04  0.39896950394E+03 0.  0.
    9000005    1    3    3    0    0  0.23737203978E+03 -0.42202921292E+03 -0.81749989010E+03  0.95013747012E+03  0.99999687468E+00 0.  0.
          4    1    3    3  501    0  0.41022277310E+02 -0.24694492494E+02 -0.74095713087E+03  0.74250260267E+03  0.00000000000E+00 0.  1.
   -9000007    1    1    2    0  502 -0.27839431709E+03  0.44672370541E+03 -0.29229286757E+03  0.72284201953E+03  0.40000000000E+03 0.  1.
<mgrwt>
<rscale>  2 0.66095347E+03</rscale>
<asrwt>0</asrwt>
<pdfrwt beam="1">  1       21 0.43440938E-01 0.66110927E+03</pdfrwt>
<pdfrwt beam="2">  1       21 0.32817170E+00 0.66110927E+03</pdfrwt>
<totfact> 0.81606154E+01</totfact>
</mgrwt>
</event>
<event>
 6    1  0.9190795E-004  0.4057942E+03  0.7818608E-02  0.1041875E+00
         21   -1    0    0  503  502  0.00000000000E+00  0.00000000000E+00  0.40234348681E+03  0.40234348681E+03  0.00000000000E+00 0. -1.
         21   -1    0    0  501  503 -0.00000000000E+00 -0.00000000000E+00 -0.65621777383E+03  0.65621777383E+03  0.00000000000E+00 0. -1.
    9000007    2    1    2  501    0  0.45815893546E+02  0.42163733039E+02 -0.45236280903E+03  0.60770144889E+03  0.40098885708E+03 0.  0.
    9000005    1    3    3    0    0 -0.61210710991E+02  0.17735695170E+03 -0.37374142492E+03  0.41819360607E+03  0.99999687468E+00 0.  0.
          4    1    3    3  501    0  0.10702660454E+03 -0.13519321866E+03 -0.78621384107E+02  0.18950784282E+03  0.00000000000E+00 0.  1.
   -9000007    1    1    2    0  502 -0.45815893546E+02 -0.42163733039E+02  0.19848852201E+03  0.45085981176E+03  0.40000000000E+03 0. -1.
<mgrwt>
<rscale>  2 0.40554971E+03</rscale>
<asrwt>0</asrwt>
<pdfrwt beam="1">  1       21 0.61898999E-01 0.40579421E+03</pdfrwt>
<pdfrwt beam="2">  1       21 0.10095658E+00 0.40579421E+03</pdfrwt>
<totfact> 0.17013423E+03</totfact>
</mgrwt>
</event>
<event>
 6    1  0.9190795E-004  0.4724400E+03  0.7818608E-02  0.1021234E+00
         21   -1    0    0  503  502  0.00000000000E+00  0.00000000000E+00  0.91789985941E+03  0.91789985941E+03  0.00000000000E+00 0.  1.
         21   -1    0    0  501  503 -0.00000000000E+00 -0.00000000000E+00 -0.41306707787E+03  0.41306707787E+03  0.00000000000E+00 0. -1.
    9000007    2    1    2  501    0  0.15649013397E+03  0.19674946480E+03 -0.17439183094E+03  0.50359423522E+03  0.39999391135E+03 0.  0.
    9000005    1    3    3    0    0  0.62367966161E+02  0.25885243677E+03 -0.25207920702E+03  0.36665961576E+03  0.99999687468E+00 0.  0.
          4    1    3    3  501    0  0.94122167814E+02 -0.62102971970E+02  0.77687376087E+02  0.13693461945E+03  0.00000000000E+00 0.  1.
   -9000007    1    1    2    0  502 -0.15649013397E+03 -0.19674946480E+03  0.67922461248E+03  0.82737270207E+03  0.40000000000E+03 0.  1.
<mgrwt>
<rscale>  2 0.47243867E+03</rscale>
<asrwt>0</asrwt>
<pdfrwt beam="1">  1       21 0.14121536E+00 0.47243996E+03</pdfrwt>
<pdfrwt beam="2">  1       21 0.63548781E-01 0.47243996E+03</pdfrwt>
<totfact> 0.66571124E+02</totfact>
</mgrwt>
</event>
<event>
 6    1  0.9190795E-004  0.4131605E+03  0.7818608E-02  0.1039328E+00
         21   -1    0    0  503  502  0.00000000000E+00  0.00000000000E+00  0.23599170238E+03  0.23599170238E+03  0.00000000000E+00 0. -1.
         21   -1    0    0  501  503 -0.00000000000E+00 -0.00000000000E+00 -0.73735867201E+03  0.73735867201E+03  0.00000000000E+00 0. -1.
    9000007    2    1    2  501    0 -0.48468126629E+02  0.90706379201E+02 -0.31846957782E+03  0.52165549679E+03  0.40015594311E+03 0.  0.
    9000005    1    3    3    0    0 -0.15592587682E+03  0.20302139582E+03 -0.22094172879E+03  0.33815205712E+03  0.99999687468E+00 0.  0.
          4    1    3    3  501    0  0.10745775019E+03 -0.11231501662E+03 -0.97527849028E+02  0.18350343966E+03  0.00000000000E+00 0.  1.
   -9000007    1    1    2    0  502  0.48468126629E+02 -0.90706379201E+02 -0.18289739180E+03  0.45169487760E+03  0.40000000000E+03 0. -1.
<mgrwt>
<rscale>  2 0.41312272E+03</rscale>
<asrwt>0</asrwt>
<pdfrwt beam="1">  1       21 0.36306416E-01 0.41316048E+03</pdfrwt>
<pdfrwt beam="2">  1       21 0.11343980E+00 0.41316048E+03</pdfrwt>
<totfact> 0.39207678E+03</totfact>
</mgrwt>
</event>
<event>
 6    1  0.9190795E-004  0.7320167E+03  0.7818608E-02  0.9664066E-01
         21   -1    0    0  503  502  0.00000000000E+00  0.00000000000E+00  0.39636840004E+03  0.39636840004E+03  0.00000000000E+00 0. -1.
         21   -1    0    0  501  503 -0.00000000000E+00 -0.00000000000E+00 -0.13799721479E+04  0.13799721479E+04  0.00000000000E+00 0.  1.
    9000007    2    1    2  501    0  0.13805171646E+03  0.59731916420E+03 -0.61917756236E+03  0.95862733107E+03  0.39967117210E+03 0.  0.
    9000005    1    3    3    0    0  0.76551399111E+02  0.46905899383E+03 -0.19939246831E+03  0.51539772294E+03  0.99999687468E+00 0.  0.
          4    1    3    3  501    0  0.61500317347E+02  0.12826017037E+03 -0.41978509405E+03  0.44322960813E+03  0.00000000000E+00 0.  1.
   -9000007    1    1    2    0  502 -0.13805171646E+03 -0.59731916420E+03 -0.36442618549E+03  0.81771321685E+03  0.40000000000E+03 0. -1.
<mgrwt>
<rscale>  2 0.73197180E+03</rscale>
<asrwt>0</asrwt>
<pdfrwt beam="1">  1       21 0.60979755E-01 0.73201671E+03</pdfrwt>
<pdfrwt beam="2">  1       21 0.21230340E+00 0.73201671E+03</pdfrwt>
<totfact> 0.20205652E+02</totfact>
</mgrwt>
</event>
<event>
 6    1  0.9190795E-004  0.4531534E+03  0.7818608E-02  0.1026820E+00
         21   -1    0    0  503  502  0.00000000000E+00  0.00000000000E+00  0.43533662221E+03  0.43533662221E+03  0.00000000000E+00 0.  1.
         21   -1    0    0  501  503 -0.00000000000E+00 -0.00000000000E+00 -0.51469848005E+03  0.51469848005E+03  0.00000000000E+00 0.  1.
    9000007    2    1    2  501    0 -0.17093630113E+02  0.21226351845E+03  0.98409670176E+02  0.46325927129E+03  0.39947051931E+03 0.  0.
    9000005    1    3    3    0    0 -0.35631769777E+02 -0.10468547193E+03  0.94938307043E+02  0.14574962500E+03  0.99999687468E+00 0.  0.
          4    1    3    3  501    0  0.18538139663E+02  0.31694899037E+03  0.34713631336E+01  0.31750964628E+03  0.00000000000E+00 0.  1.
   -9000007    1    1    2    0  502  0.17093630113E+02 -0.21226351845E+03 -0.17777152802E+03  0.48677583098E+03  0.40000000000E+03 0.  1.
<mgrwt>
<rscale>  2 0.45303652E+03</rscale>
<asrwt>0</asrwt>
<pdfrwt beam="1">  1       21 0.66974865E-01 0.45315339E+03</pdfrwt>
<pdfrwt beam="2">  1       21 0.79184382E-01 0.45315339E+03</pdfrwt>
<totfact> 0.24900447E+03</totfact>
</mgrwt>
</event>
<event>
 6    1  0.9190795E-004  0.4591740E+03  0.7818608E-02  0.1025071E+00
         21   -1    0    0  503  502  0.00000000000E+00  0.00000000000E+00  0.11311446724E+04  0.11311446724E+04  0.00000000000E+00 0. -1.
         21   -1    0    0  501  503 -0.00000000000E+00 -0.00000000000E+00 -0.26446635015E+03  0.26446635015E+03  0.00000000000E+00 0.  1.
    9000007    2    1    2  501    0 -0.15743059642E+03  0.15944669342E+03  0.53755628209E+02  0.46230992044E+03  0.40079066137E+03 0.  0.
    9000005    1    3    3    0    0 -0.18053275765E+03 -0.12040047096E+02  0.17445105665E+03  0.25133883599E+03  0.99999687468E+00 0.  0.
          4    1    3    3  501    0  0.23102161223E+02  0.17148674052E+03 -0.12069542844E+03  0.21097108445E+03  0.00000000000E+00 0.  1.
   -9000007    1    1    2    0  502  0.15743059642E+03 -0.15944669342E+03  0.81292269406E+03  0.93330110214E+03  0.40000000000E+03 0. -1.
<mgrwt>
<rscale>  2 0.45900145E+03</rscale>
<asrwt>0</asrwt>
<pdfrwt beam="1">  1       21 0.17402226E+00 0.45917404E+03</pdfrwt>
<pdfrwt beam="2">  1       21 0.40687131E-01 0.45917404E+03</pdfrwt>
<totfact> 0.97370462E+02</totfact>
</mgrwt>
</event>
<event>
 6    1  0.9190795E-004  0.4253465E+03  0.7818608E-02  0.1035466E+00
         21   -1    0    0  503  502  0.00000000000E+00  0.00000000000E+00  0.15574769192E+04  0.15574769192E+04  0.00000000000E+00 0. -1.
         21   -1    0    0  501  503 -0.00000000000E+00 -0.00000000000E+00 -0.22465785506E+03  0.22465785506E+03  0.00000000000E+00 0.  1.
    9000007    2    1    2  501    0  0.12417203022E+03  0.74168299833E+02  0.45315195845E+02  0.42619014387E+03  0.39832768165E+03 0.  0.
    9000005    1    3    3    0    0  0.22181180211E+03  0.17321781840E+03  0.55038903647E+02  0.28676675029E+03  0.99999687468E+00 0.  0.
          4    1    3    3  501    0 -0.97639771882E+02 -0.99049518571E+02 -0.97237078021E+01  0.13942339357E+03  0.00000000000E+00 0.  1.
   -9000007    1    1    2    0  502 -0.12417203022E+03 -0.74168299833E+02  0.12875038683E+04  0.13559446304E+04  0.40000000000E+03 0. -1.
<mgrwt>
<rscale>  2 0.42495287E+03</rscale>
<asrwt>0</asrwt>
<pdfrwt beam="1">  1       21 0.23961183E+00 0.42534648E+03</pdfrwt>
<pdfrwt beam="2">  1       21 0.34562748E-01 0.42534648E+03</pdfrwt>
<totfact> 0.50939165E+02</totfact>
</mgrwt>
</event>
<event>
 6    1  0.9190795E-004  0.5126488E+03  0.7818608E-02  0.1010692E+00
         21   -1    0    0  503  502  0.00000000000E+00  0.00000000000E+00  0.17512762806E+04  0.17512762806E+04  0.00000000000E+00 0. -1.
         21   -1    0    0  501  503 -0.00000000000E+00 -0.00000000000E+00 -0.18985451191E+03  0.18985451191E+03  0.00000000000E+00 0.  1.
    9000007    2    1    2  501    0 -0.28746026374E+03  0.13247874567E+03  0.12307321035E+04  0.13332330413E+04  0.40326766597E+03 0.  0.
    9000005    1    3    3    0    0 -0.30305075356E+03  0.20401111189E+03  0.63159389779E+03  0.72963836571E+03  0.99999687468E+00 0.  0.
          4    1    3    3  501    0  0.15590489816E+02 -0.71532366217E+02  0.59913820575E+03  0.60359467557E+03  0.00000000000E+00 0.  1.
   -9000007    1    1    2    0  502  0.28746026374E+03 -0.13247874567E+03  0.33068966513E+03  0.60789775120E+03  0.40000000000E+03 0.  1.
<mgrwt>
<rscale>  2 0.51200601E+03</rscale>
<asrwt>0</asrwt>
<pdfrwt beam="1">  1       21 0.26942711E+00 0.51264884E+03</pdfrwt>
<pdfrwt beam="2">  1       21 0.29208388E-01 0.51264884E+03</pdfrwt>
<totfact> 0.44778903E+02</totfact>
</mgrwt>
</event>
<event>
 6    1  0.9190795E-004  0.5052690E+03  0.7818608E-02  0.1012575E+00
         21   -1    0    0  503  502  0.00000000000E+00  0.00000000000E+00  0.80437040050E+03  0.80437040050E+03  0.00000000000E+00 0.  1.
         21   -1    0    0  501  503 -0.00000000000E+00 -0.00000000000E+00 -0.36227451102E+03  0.36227451102E+03  0.00000000000E+00 0. -1.
    9000007    2    1    2  501    0  0.13344513519E+03  0.27836874933E+03  0.11664264562E+02  0.50289183360E+03  0.39682159282E+03 0.  0.
    9000005    1    3    3    0    0  0.38299173417E+02 -0.69558418092E+02 -0.97767414195E+02  0.12595502167E+03  0.99999687468E+00 0.  0.
          4    1    3    3  501    0  0.95145961774E+02  0.34792716743E+03  0.10943167876E+03  0.37693681193E+03  0.00000000000E+00 0.  1.
   -9000007    1    1    2    0  502 -0.13344513519E+03 -0.27836874933E+03  0.43043162492E+03  0.66375307792E+03  0.40000000000E+03 0.  1.
<mgrwt>
<rscale>  2 0.50463971E+03</rscale>
<asrwt>0</asrwt>
<pdfrwt beam="1">  1       21 0.12374929E+00 0.50526900E+03</pdfrwt>
<pdfrwt beam="2">  1       21 0.55734540E-01 0.50526900E+03</pdfrwt>
<totfact> 0.12379257E+03</totfact>
</mgrwt>
</event>
<event>
 6    1  0.9190795E-004  0.4187312E+03  0.7818608E-02  0.1037539E+00
         21   -1    0    0  503  502  0.00000000000E+00  0.00000000000E+00  0.52197376021E+03  0.52197376021E+03  0.00000000000E+00 0.  1.
         21   -1    0    0  501  503 -0.00000000000E+00 -0.00000000000E+00 -0.68808652374E+03  0.68808652374E+03  0.00000000000E+00 0.  1.
    9000007    2    1    2  501    0  0.30323817186E+02  0.11754654395E+03 -0.51629235118E+03  0.66475076864E+03  0.40074813616E+03 0.  0.
    9000005    1    3    3    0    0 -0.15713827980E+03 -0.46107786268E+02 -0.15103171772E+03  0.22277779666E+03  0.99999687468E+00 0.  0.
          4    1    3    3  501    0  0.18746209699E+03  0.16365433022E+03 -0.36526063347E+03  0.44197297199E+03  0.00000000000E+00 0.  1.
   -9000007    1    1    2    0  502 -0.30323817186E+02 -0.11754654395E+03  0.35017958765E+03  0.54530951531E+03  0.40000000000E+03 0.  1.
<mgrwt>
<rscale>  2 0.41855207E+03</rscale>
<asrwt>0</asrwt>
<pdfrwt beam="1">  1       21 0.80303656E-01 0.41873117E+03</pdfrwt>
<pdfrwt beam="2">  1       21 0.10585946E+00 0.41873117E+03</pdfrwt>
<totfact> 0.83826858E+02</totfact>
</mgrwt>
</event>
<event>
 6    1  0.9190795E-004  0.5370698E+03  0.7818608E-02  0.1004555E+00
         21   -1    0    0  503  502  0.00000000000E+00  0.00000000000E+00  0.80712088282E+03  0.80712088282E+03  0.00000000000E+00 0. -1.
         21   -1    0    0  501  503 -0.00000000000E+00 -0.00000000000E+00 -0.49166842657E+03  0.49166842657E+03  0.00000000000E+00 0. -1.
    9000007    2    1    2  501    0  0.18000187920E+03 -0.30990856772E+03 -0.18203386298E+03  0.56671237717E+03  0.39947790215E+03 0.  0.
    9000005    1    3    3    0    0  0.30888511318E+03 -0.22098926423E+03 -0.12021750336E+03  0.39837107847E+03  0.99999687468E+00 0.  0.
          4    1    3    3  501    0 -0.12888323398E+03 -0.88919303488E+02 -0.61816359618E+02  0.16834129871E+03  0.00000000000E+00 0.  1.
   -9000007    1    1    2    0  502 -0.18000187920E+03  0.30990856772E+03  0.49748631924E+03  0.73207693222E+03  0.40000000000E+03 0. -1.
<mgrwt>
<rscale>  2 0.53697261E+03</rscale>
<asrwt>0</asrwt>
<pdfrwt beam="1">  1       21 0.12417244E+00 0.53706982E+03</pdfrwt>
<pdfrwt beam="2">  1       21 0.75641296E-01 0.53706982E+03</pdfrwt>
<totfact> 0.61391139E+02</totfact>
</mgrwt>
</event>
<event>
 6    1  0.9190795E-004  0.4924932E+03  0.7818608E-02  0.1015811E+00
         21   -1    0    0  503  502  0.00000000000E+00  0.00000000000E+00  0.11605585442E+04  0.11605585442E+04  0.00000000000E+00 0. -1.
         21   -1    0    0  501  503 -0.00000000000E+00 -0.00000000000E+00 -0.25588623033E+03  0.25588623033E+03  0.00000000000E+00 0.  1.
    9000007    2    1    2  501    0  0.28514305249E+02 -0.28450222605E+03  0.14835540228E+03  0.51435284297E+03  0.40099244314E+03 0.  0.
    9000005    1    3    3    0    0 -0.14451199634E+02  0.79003962620E+02  0.12369653413E+03  0.14748659542E+03  0.99999687468E+00 0.  0.
          4    1    3    3  501    0  0.42965504882E+02 -0.36350618867E+03  0.24658868148E+02  0.36686624754E+03  0.00000000000E+00 0.  1.
   -9000007    1    1    2    0  502 -0.28514305249E+02  0.28450222605E+03  0.75631691162E+03  0.90209193158E+03  0.40000000000E+03 0. -1.
<mgrwt>
<rscale>  2 0.49229112E+03</rscale>
<asrwt>0</asrwt>
<pdfrwt beam="1">  1       21 0.17854746E+00 0.49249317E+03</pdfrwt>
<pdfrwt beam="2">  1       21 0.39367113E-01 0.49249317E+03</pdfrwt>
<totfact> 0.95381900E+02</totfact>
</mgrwt>
</event>
<event>
 6    1  0.9190795E-004  0.4416444E+03  0.7818608E-02  0.1030260E+00
         21   -1    0    0  503  502  0.00000000000E+00  0.00000000000E+00  0.57861598251E+03  0.57861598251E+03  0.00000000000E+00 0.  1.
         21   -1    0    0  501  503 -0.00000000000E+00 -0.00000000000E+00 -0.33704461739E+03  0.33704461739E+03  0.00000000000E+00 0.  1.
    9000007    2    1    2  501    0 -0.69575571159E+02 -0.17380753051E+03  0.11231725854E+03  0.45549058585E+03  0.39975828881E+03 0.  0.
    9000005    1    3    3    0    0 -0.52055822404E+02  0.33497137075E+02  0.21482205751E+03  0.22356516550E+03  0.99999687468E+00 0.  0.
          4    1    3    3  501    0 -0.17519748755E+02 -0.20730466758E+03 -0.10250479896E+03  0.23192542036E+03  0.00000000000E+00 0.  1.
   -9000007    1    1    2    0  502  0.69575571159E+02  0.17380753051E+03  0.12925410657E+03  0.46017001405E+03  0.40000000000E+03 0.  1.
<mgrwt>
<rscale>  2 0.44158971E+03</rscale>
<asrwt>0</asrwt>
<pdfrwt beam="1">  1       21 0.89017844E-01 0.44164445E+03</pdfrwt>
<pdfrwt beam="2">  1       21 0.51853018E-01 0.44164445E+03</pdfrwt>
<totfact> 0.33281256E+03</totfact>
</mgrwt>
</event>
<event>
 6    1  0.9190795E-004  0.4380184E+03  0.7818608E-02  0.1031400E+00
         21   -1    0    0  503  502  0.00000000000E+00  0.00000000000E+00  0.12385651152E+04  0.12385651152E+04  0.00000000000E+00 0. -1.
         21   -1    0    0  501  503 -0.00000000000E+00 -0.00000000000E+00 -0.20127666749E+03  0.20127666749E+03  0.00000000000E+00 0. -1.
    9000007    2    1    2  501    0 -0.17820157128E+03  0.10212727753E+02  0.86468175100E+03  0.96904121813E+03  0.39938233827E+03 0.  0.
    9000005    1    3    3    0    0 -0.15138134774E+03  0.10876822360E+03  0.84462567894E+03  0.86495108326E+03  0.99999687468E+00 0.  0.
          4    1    3    3  501    0 -0.26820223542E+02 -0.98555495848E+02  0.20056072056E+02  0.10409013488E+03  0.00000000000E+00 0.  1.
   -9000007    1    1    2    0  502  0.17820157128E+03 -0.10212727753E+02  0.17260669667E+03  0.47080056452E+03  0.40000000000E+03 0. -1.
<mgrwt>
<rscale>  2 0.43787732E+03</rscale>
<asrwt>0</asrwt>
<pdfrwt beam="1">  1       21 0.19054848E+00 0.43801838E+03</pdfrwt>
<pdfrwt beam="2">  1       21 0.30965642E-01 0.43801838E+03</pdfrwt>
<totfact> 0.13099535E+03</totfact>
</mgrwt>
</event>
<event>
 6    1  0.9190795E-004  0.4483487E+03  0.7818608E-02  0.1028232E+00
         21   -1    0    0  503  502  0.00000000000E+00  0.00000000000E+00  0.21126285513E+03  0.21126285513E+03  0.00000000000E+00 0. -1.
         21   -1    0    0  501  503 -0.00000000000E+00 -0.00000000000E+00 -0.95551526481E+03  0.95551526481E+03  0.00000000000E+00 0.  1.
    9000007    2    1    2  501    0 -0.18823064313E+03  0.74738111419E+02 -0.41193212413E+03  0.60869807864E+03  0.39976082316E+03 0.  0.
    9000005    1    3    3    0    0 -0.10556583735E+03 -0.76024215154E+02  0.30851232353E+02  0.13370349971E+03  0.99999687468E+00 0.  0.
          4    1    3    3  501    0 -0.82664805787E+02  0.15076232657E+03 -0.44278335648E+03  0.47499457892E+03  0.00000000000E+00 0.  1.
   -9000007    1    1    2    0  502  0.18823064313E+03 -0.74738111419E+02 -0.33232028555E+03  0.55808004130E+03  0.40000000000E+03 0.  1.
<mgrwt>
<rscale>  2 0.44829535E+03</rscale>
<asrwt>0</asrwt>
<pdfrwt beam="1">  1       21 0.32501979E-01 0.44834870E+03</pdfrwt>
<pdfrwt beam="2">  1       21 0.14700234E+00 0.44834870E+03</pdfrwt>
<totfact> 0.24710060E+03</totfact>
</mgrwt>
</event>
<event>
 6    1  0.9190795E-004  0.4411127E+03  0.7818608E-02  0.1030420E+00
         21   -1    0    0  503  502  0.00000000000E+00  0.00000000000E+00  0.93355413446E+03  0.93355413446E+03  0.00000000000E+00 0. -1.
         21   -1    0    0  501  503 -0.00000000000E+00 -0.00000000000E+00 -0.37402258251E+03  0.37402258251E+03  0.00000000000E+00 0. -1.
    9000007    2    1    2  501    0 -0.83659774838E+02  0.16607673451E+03 -0.15539690331E+03  0.46751532886E+03  0.39980238305E+03 0.  0.
    9000005    1    3    3    0    0 -0.22094052488E+03 -0.44989017629E+01 -0.93696960882E+02  0.24003140653E+03  0.99999687468E+00 0.  0.
          4    1    3    3  501    0  0.13728075004E+03  0.17057563627E+03 -0.61699942423E+02  0.22748392233E+03  0.00000000000E+00 0.  1.
   -9000007    1    1    2    0  502  0.83659774838E+02 -0.16607673451E+03  0.71492845525E+03  0.84006138811E+03  0.40000000000E+03 0. -1.
<mgrwt>
<rscale>  2 0.44106792E+03</rscale>
<asrwt>0</asrwt>
<pdfrwt beam="1">  1       21 0.14362371E+00 0.44111273E+03</pdfrwt>
<pdfrwt beam="2">  1       21 0.57541936E-01 0.44111273E+03</pdfrwt>
<totfact> 0.80211754E+02</totfact>
</mgrwt>
</event>
<event>
 6    1  0.9190795E-004  0.5108110E+03  0.7818608E-02  0.1010995E+00
         21   -1    0    0  503  502  0.00000000000E+00  0.00000000000E+00  0.19642279483E+04  0.19642279483E+04  0.00000000000E+00 0.  1.
         21   -1    0    0  501  503 -0.00000000000E+00 -0.00000000000E+00 -0.75163107639E+03  0.75163107639E+03  0.00000000000E+00 0.  1.
    9000007    2    1    2  501    0 -0.31477158551E+03 -0.42943677674E+02 -0.62580467739E+03  0.80781144483E+03  0.40000315706E+03 0.  0.
    9000005    1    3    3    0    0  0.18533832949E+02  0.12040830681E+03 -0.25772364807E+03  0.28506866205E+03  0.99999687468E+00 0.  0.
          4    1    3    3  501    0 -0.33330541846E+03 -0.16335198448E+03 -0.36808102932E+03  0.52274278279E+03  0.00000000000E+00 0.  1.
   -9000007    1    1    2    0  502  0.31477158551E+03  0.42943677674E+02  0.18384015493E+04  0.19080475798E+04  0.40000000000E+03 0.  1.
<mgrwt>
<rscale>  2 0.51081034E+03</rscale>
<asrwt>0</asrwt>
<pdfrwt beam="1">  1       21 0.30218891E+00 0.51081096E+03</pdfrwt>
<pdfrwt beam="2">  1       21 0.11563555E+00 0.51081096E+03</pdfrwt>
<totfact> 0.13599065E+01</totfact>
</mgrwt>
</event>
<event>
 6    1  0.9190795E-004  0.8252887E+03  0.7818608E-02  0.9524500E-01
         21   -1    0    0  503  502  0.00000000000E+00  0.00000000000E+00  0.62963238046E+03  0.62963238046E+03  0.00000000000E+00 0.  1.
         21   -1    0    0  501  503 -0.00000000000E+00 -0.00000000000E+00 -0.14479049471E+04  0.14479049471E+04  0.00000000000E+00 0. -1.
    9000007    2    1    2  501    0 -0.70923864402E+03 -0.13446917748E+03 -0.93233553255E+03  0.12444036204E+04  0.39773032474E+03 0.  0.
    9000005    1    3    3    0    0 -0.10467072253E+03 -0.79935083382E+02 -0.45060314854E+03  0.46945689385E+03  0.99999687468E+00 0.  0.
          4    1    3    3  501    0 -0.60456792149E+03 -0.54534094099E+02 -0.48173238401E+03  0.77494672650E+03  0.00000000000E+00 0.  1.
   -9000007    1    1    2    0  502  0.70923864402E+03  0.13446917748E+03  0.11406296593E+03  0.83313370720E+03  0.40000000000E+03 0.  1.
<mgrwt>
<rscale>  2 0.82501413E+03</rscale>
<asrwt>0</asrwt>
<pdfrwt beam="1">  1       21 0.96866521E-01 0.82528869E+03</pdfrwt>
<pdfrwt beam="2">  1       21 0.22275460E+00 0.82528869E+03</pdfrwt>
<totfact> 0.57105853E+01</totfact>
</mgrwt>
</event>
<event>
 6    1  0.9190795E-004  0.4960061E+03  0.7818608E-02  0.1014865E+00
         21   -1    0    0  503  502  0.00000000000E+00  0.00000000000E+00  0.26657395463E+03  0.26657395463E+03  0.00000000000E+00 0.  1.
         21   -1    0    0  501  503 -0.00000000000E+00 -0.00000000000E+00 -0.94263962418E+03  0.94263962418E+03  0.00000000000E+00 0. -1.
    9000007    2    1    2  501    0  0.28307720925E+03  0.76742144384E+02 -0.24797563386E+03  0.55401655365E+03  0.39927479711E+03 0.  0.
    9000005    1    3    3    0    0 -0.46899491949E+02  0.21365374110E+02 -0.21121288241E+03  0.21741187466E+03  0.99999687468E+00 0.  0.
          4    1    3    3  501    0  0.32997670120E+03  0.55376770275E+02 -0.36762751450E+02  0.33660467899E+03  0.00000000000E+00 0.  1.
   -9000007    1    1    2    0  502 -0.28307720925E+03 -0.76742144384E+02 -0.42809003570E+03  0.65519702517E+03  0.40000000000E+03 0. -1.
<mgrwt>
<rscale>  2 0.49585989E+03</rscale>
<asrwt>0</asrwt>
<pdfrwt beam="1">  1       21 0.41011378E-01 0.49600611E+03</pdfrwt>
<pdfrwt beam="2">  1       21 0.14502148E+00 0.49600611E+03</pdfrwt>
<totfact> 0.15674500E+03</totfact>
</mgrwt>
</event>
<event>
 6    1  0.9190795E-004  0.4325705E+03  0.7818608E-02  0.1033058E+00
         21   -1    0    0  503  502  0.00000000000E+00  0.00000000000E+00  0.44021026673E+03  0.44021026673E+03  0.00000000000E+00 0.  1.
         21   -1    0    0  501  503 -0.00000000000E+00 -0.00000000000E+00 -0.43490031311E+03  0.43490031311E+03  0.00000000000E+00 0.  1.
    9000007    2    1    2  501    0 -0.12902117906E+03  0.10232680425E+03  0.68748805184E+02  0.43791299590E+03  0.39990518157E+03 0.  0.
    9000005    1    3    3    0    0 -0.26572444069E+03  0.66195843390E+02  0.10274278273E+03  0.29248666202E+03  0.99999687468E+00 0.  0.
          4    1    3    3  501    0  0.13670326164E+03  0.36130960855E+02 -0.33993977549E+02  0.14542633387E+03  0.00000000000E+00 0.  1.
   -9000007    1    1    2    0  502  0.12902117906E+03 -0.10232680425E+03 -0.63438851568E+02  0.43719758394E+03  0.40000000000E+03 0. -1.
<mgrwt>
<rscale>  2 0.43254858E+03</rscale>
<asrwt>0</asrwt>
<pdfrwt beam="1">  1       21 0.67724657E-01 0.43257050E+03</pdfrwt>
<pdfrwt beam="2">  1       21 0.66907740E-01 0.43257050E+03</pdfrwt>
<totfact> 0.35853742E+03</totfact>
</mgrwt>
</event>
<event>
 6    1  0.9190795E-004  0.6833758E+03  0.7818608E-02  0.9746366E-01
         21   -1    0    0  503  502  0.00000000000E+00  0.00000000000E+00  0.12789793074E+04  0.12789793074E+04  0.00000000000E+00 0.  1.
         21   -1    0    0  501  503 -0.00000000000E+00 -0.00000000000E+00 -0.42439622198E+03  0.42439622198E+03  0.00000000000E+00 0.  1.
    9000007    2    1    2  501    0  0.28696563487E+03  0.47307729207E+03  0.10831316416E+03  0.69190620447E+03  0.40106240709E+03 0.  0.
    9000005    1    3    3    0    0  0.31822534772E+03  0.14814507647E+03  0.10668248587E+02  0.35118249834E+03  0.99999687468E+00 0.  0.
          4    1    3    3  501    0 -0.31259712853E+02  0.32493221560E+03  0.97644915570E+02  0.34072370613E+03  0.00000000000E+00 0.  1.
   -9000007    1    1    2    0  502 -0.28696563487E+03 -0.47307729207E+03  0.74626992124E+03  0.10114693249E+04  0.40000000000E+03 0.  1.
<mgrwt>
<rscale>  2 0.68321998E+03</rscale>
<asrwt>0</asrwt>
<pdfrwt beam="1">  1       21 0.19676605E+00 0.68337578E+03</pdfrwt>
<pdfrwt beam="2">  1       21 0.65291727E-01 0.68337578E+03</pdfrwt>
<totfact> 0.22417901E+02</totfact>
</mgrwt>
</event>
<event>
 6    1  0.9190795E-004  0.7348225E+03  0.7818608E-02  0.9659520E-01
         21   -1    0    0  503  502  0.00000000000E+00  0.00000000000E+00  0.47903290013E+03  0.47903290013E+03  0.00000000000E+00 0.  1.
         21   -1    0    0  501  503 -0.00000000000E+00 -0.00000000000E+00 -0.13741627578E+04  0.13741627578E+04  0.00000000000E+00 0. -1.
    9000007    2    1    2  501    0  0.23619688342E+03 -0.56936384971E+03 -0.84051075782E+03  0.11163460076E+04  0.39975731831E+03 0.  0.
    9000005    1    3    3    0    0 -0.18772827104E+02  0.20329241720E+02 -0.22476391914E+03  0.22646305758E+03  0.99999687468E+00 0.  0.
          4    1    3    3  501    0  0.25496971052E+03 -0.58969309143E+03 -0.61574683868E+03  0.88988295000E+03  0.00000000000E+00 0.  1.
   -9000007    1    1    2    0  502 -0.23619688342E+03  0.56936384971E+03 -0.54619099822E+02  0.73684965031E+03  0.40000000000E+03 0.  1.
<mgrwt>
<rscale>  2 0.73478952E+03</rscale>
<asrwt>0</asrwt>
<pdfrwt beam="1">  1       21 0.73697369E-01 0.73482254E+03</pdfrwt>
<pdfrwt beam="2">  1       21 0.21140965E+00 0.73482254E+03</pdfrwt>
<totfact> 0.13340105E+02</totfact>
</mgrwt>
</event>
<event>
 6    1  0.9190795E-004  0.4236822E+03  0.7818608E-02  0.1036650E+00
         21   -1    0    0  503  502  0.00000000000E+00  0.00000000000E+00  0.12658416967E+03  0.12658416967E+03  0.00000000000E+00 0.  1.
         21   -1    0    0  501  503 -0.00000000000E+00 -0.00000000000E+00 -0.13909830454E+04  0.13909830454E+04  0.00000000000E+00 0.  1.
    9000007    2    1    2  501    0  0.68144470686E+02 -0.82987904596E+02 -0.59579585313E+03  0.73108093864E+03  0.40984872701E+03 0.  0.
    9000005    1    3    3    0    0 -0.16683452743E+03  0.18137397983E+02 -0.23073959922E+03  0.28531471639E+03  0.99999687468E+00 0.  0.
          4    1    3    3  501    0  0.23497899811E+03 -0.10112530258E+03 -0.36505625391E+03  0.44576622224E+03  0.00000000000E+00 0.  1.
   -9000007    1    1    2    0  502 -0.68144470686E+02  0.82987904596E+02 -0.66860302263E+03  0.78648627646E+03  0.40000000000E+03 0.  1.
<mgrwt>
<rscale>  2 0.42128201E+03</rscale>
<asrwt>0</asrwt>
<pdfrwt beam="1">  1       21 0.19474488E-01 0.42368224E+03</pdfrwt>
<pdfrwt beam="2">  1       21 0.21399739E+00 0.42368224E+03</pdfrwt>
<totfact> 0.22690394E+03</totfact>
</mgrwt>
</event>
<event>
 6    1  0.9190795E-004  0.6041761E+03  0.7818608E-02  0.9896933E-01
         21   -1    0    0  503  502  0.00000000000E+00  0.00000000000E+00  0.15473687622E+04  0.15473687622E+04  0.00000000000E+00 0. -1.
         21   -1    0    0  501  503 -0.00000000000E+00 -0.00000000000E+00 -0.56541003554E+03  0.56541003554E+03  0.00000000000E+00 0. -1.
    9000007    2    1    2  501    0  0.34980033700E+03 -0.28752136198E+03 -0.31565817923E+03  0.68140238191E+03  0.39955013527E+03 0.  0.
    9000005    1    3    3    0    0  0.15341072148E+03 -0.13690604097E+03 -0.37429593216E+03  0.42705568530E+03  0.99999687468E+00 0.  0.
          4    1    3    3  501    0  0.19638961552E+03 -0.15061532101E+03  0.58637752929E+02  0.25434669661E+03  0.00000000000E+00 0.  1.
   -9000007    1    1    2    0  502 -0.34980033700E+03  0.28752136198E+03  0.12976169059E+04  0.14313764159E+04  0.40000000000E+03 0. -1.
<mgrwt>
<rscale>  2 0.60410169E+03</rscale>
<asrwt>0</asrwt>
<pdfrwt beam="1">  1       21 0.23805673E+00 0.60417614E+03</pdfrwt>
<pdfrwt beam="2">  1       21 0.86986160E-01 0.60417614E+03</pdfrwt>
<totfact> 0.64099266E+01</totfact>
</mgrwt>
</event>
<event>
 6    1  0.9190795E-004  0.5557875E+03  0.7818608E-02  0.1000234E+00
         21   -1    0    0  503  502  0.00000000000E+00  0.00000000000E+00  0.62589804878E+03  0.62589804878E+03  0.00000000000E+00 0.  1.
         21   -1    0    0  501  503 -0.00000000000E+00 -0.00000000000E+00 -0.50894961739E+03  0.50894961739E+03  0.00000000000E+00 0.  1.
    9000007    2    1    2  501    0  0.31818553044E+03  0.21511731646E+03  0.16077919792E+03  0.57857558551E+03  0.40172411683E+03 0.  0.
    9000005    1    3    3    0    0  0.40825650021E+02 -0.11626857369E+03  0.45038525707E+02  0.13120435861E+03  0.99999687468E+00 0.  0.
          4    1    3    3  501    0  0.27735988042E+03  0.33138589015E+03  0.11574067221E+03  0.44737122690E+03  0.00000000000E+00 0.  1.
   -9000007    1    1    2    0  502 -0.31818553044E+03 -0.21511731646E+03 -0.43830766529E+02  0.55627208066E+03  0.40000000000E+03 0.  1.
<mgrwt>
<rscale>  2 0.55547602E+03</rscale>
<asrwt>0</asrwt>
<pdfrwt beam="1">  1       21 0.96292008E-01 0.55578751E+03</pdfrwt>
<pdfrwt beam="2">  1       21 0.78299941E-01 0.55578751E+03</pdfrwt>
<totfact> 0.10623738E+03</totfact>
</mgrwt>
</event>
<event>
 6    1  0.9190795E-004  0.4131545E+03  0.7818608E-02  0.1039711E+00
         21   -1    0    0  503  502  0.00000000000E+00  0.00000000000E+00  0.76857581008E+03  0.76857581008E+03  0.00000000000E+00 0.  1.
         21   -1    0    0  501  503 -0.00000000000E+00 -0.00000000000E+00 -0.35124624635E+03  0.35124624635E+03  0.00000000000E+00 0.  1.
    9000007    2    1    2  501    0  0.55404272304E+02  0.61307759275E+02 -0.13340357396E+03  0.43415795231E+03  0.40480654550E+03 0.  0.
    9000005    1    3    3    0    0  0.14602284858E+03  0.81578837673E+01  0.10069581688E+03  0.17756652529E+03  0.99999687468E+00 0.  0.
          4    1    3    3  501    0 -0.90618576273E+02  0.53149875507E+02 -0.23409939083E+03  0.25659142702E+03  0.00000000000E+00 0.  1.
   -9000007    1    1    2    0  502 -0.55404272304E+02 -0.61307759275E+02  0.55073313768E+03  0.68566410412E+03  0.40000000000E+03 0.  1.
<mgrwt>
<rscale>  2 0.41197233E+03</rscale>
<asrwt>0</asrwt>
<pdfrwt beam="1">  1       21 0.11824243E+00 0.41315447E+03</pdfrwt>
<pdfrwt beam="2">  1       21 0.54037885E-01 0.41315447E+03</pdfrwt>
<totfact> 0.15414198E+03</totfact>
</mgrwt>
</event>
<event>
 6    1  0.9190795E-004  0.4317272E+03  0.7818608E-02  0.1033557E+00
         21   -1    0    0  503  502  0.00000000000E+00  0.00000000000E+00  0.61167337978E+03  0.61167337978E+03  0.00000000000E+00 0.  1.
         21   -1    0    0  501  503 -0.00000000000E+00 -0.00000000000E+00 -0.58091704331E+03  0.58091704331E+03  0.00000000000E+00 0. -1.
    9000007    2    1    2  501    0 -0.88493780845E+02 -0.13622494263E+03 -0.39741361994E+03  0.58454610249E+03  0.39669657974E+03 0.  0.
    9000005    1    3    3    0    0  0.10698747418E+03 -0.22204187494E+02 -0.33119055592E+03  0.34875138695E+03  0.99999687468E+00 0.  0.
          4    1    3    3  501    0 -0.19548125503E+03 -0.11402075513E+03 -0.66223064017E+02  0.23579471554E+03  0.00000000000E+00 0.  1.
   -9000007    1    1    2    0  502  0.88493780845E+02  0.13622494263E+03  0.42816995641E+03  0.60804432060E+03  0.40000000000E+03 0.  1.
<mgrwt>
<rscale>  2 0.43096046E+03</rscale>
<asrwt>0</asrwt>
<pdfrwt beam="1">  1       21 0.94103596E-01 0.43172721E+03</pdfrwt>
<pdfrwt beam="2">  1       21 0.89371854E-01 0.43172721E+03</pdfrwt>
<totfact> 0.86371913E+02</totfact>
</mgrwt>
</event>
<event>
 6    1  0.9190795E-004  0.4396822E+03  0.7818608E-02  0.1030858E+00
         21   -1    0    0  503  502  0.00000000000E+00  0.00000000000E+00  0.18470005344E+04  0.18470005344E+04  0.00000000000E+00 0. -1.
         21   -1    0    0  501  503 -0.00000000000E+00 -0.00000000000E+00 -0.16915473766E+03  0.16915473766E+03  0.00000000000E+00 0.  1.
    9000007    2    1    2  501    0 -0.58256807701E+02  0.17252521343E+03  0.21639142812E+03  0.49004660081E+03  0.40020196888E+03 0.  0.
    9000005    1    3    3    0    0 -0.16388674770E+03  0.13865168667E+03  0.28711134038E+03  0.35849278662E+03  0.99999687468E+00 0.  0.
          4    1    3    3  501    0  0.10562994000E+03  0.33873526752E+02 -0.70719912262E+02  0.13155381419E+03  0.00000000000E+00 0.  1.
   -9000007    1    1    2    0  502  0.58256807701E+02 -0.17252521343E+03  0.14614543686E+04  0.15261086713E+04  0.40000000000E+03 0. -1.
<mgrwt>
<rscale>  2 0.43963622E+03</rscale>
<asrwt>0</asrwt>
<pdfrwt beam="1">  1       21 0.28415391E+00 0.43968218E+03</pdfrwt>
<pdfrwt beam="2">  1       21 0.26023807E-01 0.43968218E+03</pdfrwt>
<totfact> 0.47570704E+02</totfact>
</mgrwt>
</event>
<event>
 6    1  0.9190795E-004  0.4374333E+03  0.7818608E-02  0.1031590E+00
         21   -1    0    0  503  502  0.00000000000E+00  0.00000000000E+00  0.81430223487E+03  0.81430223487E+03  0.00000000000E+00 0.  1.
         21   -1    0    0  501  503 -0.00000000000E+00 -0.00000000000E+00 -0.23774201257E+03  0.23774201257E+03  0.00000000000E+00 0.  1.
    9000007    2    1    2  501    0  0.17495663986E+03  0.11736199315E+02  0.34882987849E+03  0.55949102829E+03  0.40074975034E+03 0.  0.
    9000005    1    3    3    0    0  0.22551765306E+02 -0.18067059514E+03  0.20828309883E+03  0.27664651691E+03  0.99999687468E+00 0.  0.
          4    1    3    3  501    0  0.15240487455E+03  0.19240679446E+03  0.14054677966E+03  0.28284451138E+03  0.00000000000E+00 0.  1.
   -9000007    1    1    2    0  502 -0.17495663986E+03 -0.11736199315E+02  0.22773034381E+03  0.49255321915E+03  0.40000000000E+03 0.  1.
<mgrwt>
<rscale>  2 0.43726155E+03</rscale>
<asrwt>0</asrwt>
<pdfrwt beam="1">  1       21 0.12527727E+00 0.43743334E+03</pdfrwt>
<pdfrwt beam="2">  1       21 0.36575695E-01 0.43743334E+03</pdfrwt>
<totfact> 0.29772484E+03</totfact>
</mgrwt>
</event>
<event>
 6    1  0.9190795E-004  0.6355287E+03  0.7818608E-02  0.9834579E-01
         21   -1    0    0  503  502  0.00000000000E+00  0.00000000000E+00  0.21223912222E+04  0.21223912222E+04  0.00000000000E+00 0. -1.
         21   -1    0    0  501  503 -0.00000000000E+00 -0.00000000000E+00 -0.19811531084E+03  0.19811531084E+03  0.00000000000E+00 0. -1.
    9000007    2    1    2  501    0  0.22064128063E+02 -0.49267254864E+03  0.11952978208E+04  0.13537479684E+04  0.40085360841E+03 0.  0.
    9000005    1    3    3    0    0 -0.51833207575E+02 -0.28320317169E+03  0.10489590413E+04  0.10877530915E+04  0.99999687468E+00 0.  0.
          4    1    3    3  501    0  0.73897335638E+02 -0.20946937695E+03  0.14633877958E+03  0.26599487684E+03  0.00000000000E+00 0.  1.
   -9000007    1    1    2    0  502 -0.22064128063E+02  0.49267254864E+03  0.72897809051E+03  0.96675856467E+03  0.40000000000E+03 0. -1.
<mgrwt>
<rscale>  2 0.63539411E+03</rscale>
<asrwt>0</asrwt>
<pdfrwt beam="1">  1       21 0.32652171E+00 0.63552866E+03</pdfrwt>
<pdfrwt beam="2">  1       21 0.30479280E-01 0.63552866E+03</pdfrwt>
<totfact> 0.17467996E+02</totfact>
</mgrwt>
</event>
<event>
 6    1  0.9190795E-004  0.5205059E+03  0.7818608E-02  0.1008576E+00
         21   -1    0    0  503  502  0.00000000000E+00  0.00000000000E+00  0.21795969589E+04  0.21795969589E+04  0.00000000000E+00 0. -1.
         21   -1    0    0  501  503 -0.00000000000E+00 -0.00000000000E+00 -0.14879399879E+03  0.14879399879E+03  0.00000000000E+00 0.  1.
    9000007    2    1    2  501    0 -0.32288165759E+03 -0.80142346942E+02  0.54270507199E+03  0.75196757382E+03  0.40031372238E+03 0.  0.
    9000005    1    3    3    0    0  0.61458271918E+02 -0.10422677413E+03  0.21319687150E+03  0.24514127690E+03  0.99999687468E+00 0.  0.
          4    1    3    3  501    0 -0.38433992951E+03  0.24084427191E+02  0.32950820049E+03  0.50682629691E+03  0.00000000000E+00 0.  1.
   -9000007    1    1    2    0  502  0.32288165759E+03  0.80142346942E+02  0.14880978881E+04  0.15764233838E+04  0.40000000000E+03 0. -1.
<mgrwt>
<rscale>  2 0.52044562E+03</rscale>
<asrwt>0</asrwt>
<pdfrwt beam="1">  1       21 0.33532258E+00 0.52050594E+03</pdfrwt>
<pdfrwt beam="2">  1       21 0.22891386E-01 0.52050594E+03</pdfrwt>
<totfact> 0.28631563E+02</totfact>
</mgrwt>
</event>
<event>
 6    1  0.9190795E-004  0.4574151E+03  0.7818608E-02  0.1025590E+00
         21   -1    0    0  503  502  0.00000000000E+00  0.00000000000E+00  0.16326104832E+04  0.16326104832E+04  0.00000000000E+00 0.  1.
         21   -1    0    0  501  503 -0.00000000000E+00 -0.00000000000E+00 -0.12844100370E+03  0.12844100370E+03  0.00000000000E+00 0.  1.
    9000007    2    1    2  501    0  0.19933201000E+03 -0.93733990878E+02  0.69764696565E+03  0.83423010356E+03  0.40088560184E+03 0.  0.
    9000005    1    3    3    0    0  0.28781260935E+03 -0.48021357618E+02  0.27833622372E+03  0.40325451307E+03  0.99999687468E+00 0.  0.
          4    1    3    3  501    0 -0.88480599352E+02 -0.45712633260E+02  0.41931074193E+03  0.43097559049E+03  0.00000000000E+00 0.  1.
   -9000007    1    1    2    0  502 -0.19933201000E+03  0.93733990878E+02  0.80652251388E+03  0.92682138336E+03  0.40000000000E+03 0. -1.
<mgrwt>
<rscale>  2 0.45722099E+03</rscale>
<asrwt>0</asrwt>
<pdfrwt beam="1">  1       21 0.25117083E+00 0.45741510E+03</pdfrwt>
<pdfrwt beam="2">  1       21 0.19760156E-01 0.45741510E+03</pdfrwt>
<totfact> 0.12698704E+03</totfact>
</mgrwt>
</event>
<event>
 6    1  0.9190795E-004  0.4042536E+03  0.7818608E-02  0.1042399E+00
         21   -1    0    0  503  502  0.00000000000E+00  0.00000000000E+00  0.21145142785E+03  0.21145142785E+03  0.00000000000E+00 0. -1.
         21   -1    0    0  501  503 -0.00000000000E+00 -0.00000000000E+00 -0.77248417850E+03  0.77248417850E+03  0.00000000000E+00 0. -1.
    9000007    2    1    2  501    0 -0.49319156941E+02 -0.14602905552E+02 -0.25942415130E+03  0.48033519800E+03  0.40096806365E+03 0.  0.
    9000005    1    3    3    0    0 -0.10013429402E+03 -0.15081357197E+03  0.21842417958E+01  0.18104524638E+03  0.99999687468E+00 0.  0.
          4    1    3    3  501    0  0.50815137078E+02  0.13621066642E+03 -0.26160839310E+03  0.29928995162E+03  0.00000000000E+00 0.  1.
   -9000007    1    1    2    0  502  0.49319156941E+02  0.14602905552E+02 -0.30160859935E+03  0.50360040836E+03  0.40000000000E+03 0. -1.
<mgrwt>
<rscale>  2 0.40401339E+03</rscale>
<asrwt>0</asrwt>
<pdfrwt beam="1">  1       21 0.32530989E-01 0.40425365E+03</pdfrwt>
<pdfrwt beam="2">  1       21 0.11884372E+00 0.40425365E+03</pdfrwt>
<totfact> 0.43693475E+03</totfact>
</mgrwt>
</event>
<event>
 6    1  0.9190795E-004  0.4848862E+03  0.7818608E-02  0.1017810E+00
         21   -1    0    0  503  502  0.00000000000E+00  0.00000000000E+00  0.60907519843E+03  0.60907519843E+03  0.00000000000E+00 0. -1.
         21   -1    0    0  501  503 -0.00000000000E+00 -0.00000000000E+00 -0.45522145879E+03  0.45522145879E+03  0.00000000000E+00 0. -1.
    9000007    2    1    2  501    0 -0.50663935194E+01  0.27402367795E+03  0.28456777299E+03  0.56210067662E+03  0.39982959972E+03 0.  0.
    9000005    1    3    3    0    0 -0.13927483648E+03  0.18255209384E+03  0.32194489175E+03  0.39543932576E+03  0.99999687468E+00 0.  0.
          4    1    3    3  501    0  0.13420844297E+03  0.91471584108E+02 -0.37377118760E+02  0.16666135086E+03  0.00000000000E+00 0.  1.
   -9000007    1    1    2    0  502  0.50663935194E+01 -0.27402367795E+03 -0.13071403335E+03  0.50219598060E+03  0.40000000000E+03 0. -1.
<mgrwt>
<rscale>  2 0.48485107E+03</rscale>
<asrwt>0</asrwt>
<pdfrwt beam="1">  1       21 0.93703876E-01 0.48488622E+03</pdfrwt>
<pdfrwt beam="2">  1       21 0.70034071E-01 0.48488622E+03</pdfrwt>
<totfact> 0.14993050E+03</totfact>
</mgrwt>
</event>
<event>
 6    1  0.9190795E-004  0.4195973E+03  0.7818608E-02  0.1037277E+00
         21   -1    0    0  503  502  0.00000000000E+00  0.00000000000E+00  0.31352416601E+03  0.31352416601E+03  0.00000000000E+00 0. -1.
         21   -1    0    0  501  503 -0.00000000000E+00 -0.00000000000E+00 -0.90779417479E+03  0.90779417479E+03  0.00000000000E+00 0.  1.
    9000007    2    1    2  501    0 -0.79138544666E+02 -0.94749852073E+02 -0.67519291513E+03  0.79495117451E+03  0.40102550230E+03 0.  0.
    9000005    1    3    3    0    0 -0.15059100382E+02 -0.10036453759E+03  0.14272532120E+02  0.10249157076E+03  0.99999687468E+00 0.  0.
          4    1    3    3  501    0 -0.64079444284E+02  0.56146855168E+01 -0.68946544725E+03  0.69245960375E+03  0.00000000000E+00 0.  1.
   -9000007    1    1    2    0  502  0.79138544666E+02  0.94749852073E+02  0.80922906349E+02  0.42636716629E+03  0.40000000000E+03 0. -1.
<mgrwt>
<rscale>  2 0.41935209E+03</rscale>
<asrwt>0</asrwt>
<pdfrwt beam="1">  1       21 0.48234487E-01 0.41959730E+03</pdfrwt>
<pdfrwt beam="2">  1       21 0.13966064E+00 0.41959730E+03</pdfrwt>
<totfact> 0.12733910E+03</totfact>
</mgrwt>
</event>
<event>
 6    1  0.9190795E-004  0.4442606E+03  0.7818608E-02  0.1029615E+00
         21   -1    0    0  503  502  0.00000000000E+00  0.00000000000E+00  0.21279639132E+03  0.21279639132E+03  0.00000000000E+00 0.  1.
         21   -1    0    0  501  503 -0.00000000000E+00 -0.00000000000E+00 -0.16480556383E+04  0.16480556383E+04  0.00000000000E+00 0.  1.
    9000007    2    1    2  501    0 -0.54837828464E+02  0.18536540284E+03 -0.13338084693E+04  0.14051550027E+04  0.39755254853E+03 0.  0.
    9000005    1    3    3    0    0  0.15318710887E+03  0.11358620762E+03 -0.88481140232E+03  0.90513000975E+03  0.99999687468E+00 0.  0.
          4    1    3    3  501    0 -0.20802493733E+03  0.71779195219E+02 -0.44899706703E+03  0.50002499300E+03  0.00000000000E+00 0.  1.
   -9000007    1    1    2    0  502  0.54837828464E+02 -0.18536540284E+03 -0.10145077761E+03  0.45569702685E+03  0.40000000000E+03 0.  1.
<mgrwt>
<rscale>  2 0.44370903E+03</rscale>
<asrwt>0</asrwt>
<pdfrwt beam="1">  1       21 0.32737908E-01 0.44426064E+03</pdfrwt>
<pdfrwt beam="2">  1       21 0.25354701E+00 0.44426064E+03</pdfrwt>
<totfact> 0.46155988E+02</totfact>
</mgrwt>
</event>
<event>
 6    1  0.9190795E-004  0.4518719E+03  0.7818608E-02  0.1027172E+00
         21   -1    0    0  503  502  0.00000000000E+00  0.00000000000E+00  0.22483525002E+03  0.22483525002E+03  0.00000000000E+00 0.  1.
         21   -1    0    0  501  503 -0.00000000000E+00 -0.00000000000E+00 -0.14141009829E+04  0.14141009829E+04  0.00000000000E+00 0.  1.
    9000007    2    1    2  501    0 -0.15495232158E+03 -0.14204930492E+03 -0.10848436221E+04  0.11751558924E+04  0.39989681168E+03 0.  0.
    9000005    1    3    3    0    0 -0.20036925419E+03  0.45524662073E+02 -0.83242769331E+03  0.85741308450E+03  0.99999687468E+00 0.  0.
          4    1    3    3  501    0  0.45416932601E+02 -0.18757396699E+03 -0.25241592883E+03  0.31774280792E+03  0.00000000000E+00 0.  1.
   -9000007    1    1    2    0  502  0.15495232158E+03  0.14204930492E+03 -0.10442211070E+03  0.46378034046E+03  0.40000000000E+03 0.  1.
<mgrwt>
<rscale>  2 0.45184908E+03</rscale>
<asrwt>0</asrwt>
<pdfrwt beam="1">  1       21 0.34590038E-01 0.45187191E+03</pdfrwt>
<pdfrwt beam="2">  1       21 0.21755400E+00 0.45187191E+03</pdfrwt>
<totfact> 0.69089642E+02</totfact>
</mgrwt>
</event>
<event>
 6    1  0.9190795E-004  0.4149178E+03  0.7818608E-02  0.1038739E+00
         21   -1    0    0  503  502  0.00000000000E+00  0.00000000000E+00  0.13361037087E+04  0.13361037087E+04  0.00000000000E+00 0. -1.
         21   -1    0    0  501  503 -0.00000000000E+00 -0.00000000000E+00 -0.19037960425E+03  0.19037960425E+03  0.00000000000E+00 0. -1.
    9000007    2    1    2  501    0  0.30065212309E+01 -0.10996382094E+03  0.13891510670E+03  0.43755473907E+03  0.40006957111E+03 0.  0.
    9000005    1    3    3    0    0  0.40497857908E+02 -0.38820223971E+02 -0.13812136762E+03  0.14908252235E+03  0.99999687468E+00 0.  0.
          4    1    3    3  501    0 -0.37491336677E+02 -0.71143596974E+02  0.27703647432E+03  0.28847221672E+03  0.00000000000E+00 0.  1.
   -9000007    1    1    2    0  502 -0.30065212309E+01  0.10996382094E+03  0.10068089977E+04  0.10889285739E+04  0.40000000000E+03 0. -1.
<mgrwt>
<rscale>  2 0.41490098E+03</rscale>
<asrwt>0</asrwt>
<pdfrwt beam="1">  1       21 0.20555441E+00 0.41491775E+03</pdfrwt>
<pdfrwt beam="2">  1       21 0.29289171E-01 0.41491775E+03</pdfrwt>
<totfact> 0.11737578E+03</totfact>
</mgrwt>
</event>
<event>
 6    1  0.9190795E-004  0.4117371E+03  0.7818608E-02  0.1039799E+00
         21   -1    0    0  503  502  0.00000000000E+00  0.00000000000E+00  0.39813414698E+03  0.39813414698E+03  0.00000000000E+00 0. -1.
         21   -1    0    0  501  503 -0.00000000000E+00 -0.00000000000E+00 -0.54657767938E+03  0.54657767938E+03  0.00000000000E+00 0. -1.
    9000007    2    1    2  501    0  0.79052797538E+02  0.57254464385E+02 -0.29636339048E+03  0.50721016590E+03  0.39987932515E+03 0.  0.
    9000005    1    3    3    0    0  0.16605046982E+03 -0.74230651479E+02 -0.29848092749E+03  0.34953513732E+03  0.99999687468E+00 0.  0.
          4    1    3    3  501    0 -0.86997672281E+02  0.13148511586E+03  0.21175370137E+01  0.15767502858E+03  0.00000000000E+00 0.  1.
   -9000007    1    1    2    0  502 -0.79052797538E+02 -0.57254464385E+02  0.14791985808E+03  0.43750166046E+03  0.40000000000E+03 0. -1.
<mgrwt>
<rscale>  2 0.41170776E+03</rscale>
<asrwt>0</asrwt>
<pdfrwt beam="1">  1       21 0.61251408E-01 0.41173707E+03</pdfrwt>
<pdfrwt beam="2">  1       21 0.84088873E-01 0.41173707E+03</pdfrwt>
<totfact> 0.26816585E+03</totfact>
</mgrwt>
</event>
<event>
 6    1  0.9190795E-004  0.4965382E+03  0.7818608E-02  0.1014773E+00
         21   -1    0    0  503  502  0.00000000000E+00  0.00000000000E+00  0.52215757814E+03  0.52215757814E+03  0.00000000000E+00 0. -1.
         21   -1    0    0  501  503 -0.00000000000E+00 -0.00000000000E+00 -0.47420732947E+03  0.47420732947E+03  0.00000000000E+00 0. -1.
    9000007    2    1    2  501    0 -0.25007862246E+03  0.15495429732E+03  0.65327843925E+02  0.49952274708E+03  0.39837808172E+03 0.  0.
    9000005    1    3    3    0    0 -0.28584223360E+03 -0.43441818652E+02  0.52745287244E+01  0.28917433283E+03  0.99999687468E+00 0.  0.
          4    1    3    3  501    0  0.35763611146E+02  0.19839611597E+03  0.60053315201E+02  0.21034841426E+03  0.00000000000E+00 0.  1.
   -9000007    1    1    2    0  502  0.25007862246E+03 -0.15495429732E+03 -0.17377595255E+02  0.49684216053E+03  0.40000000000E+03 0. -1.
<mgrwt>
<rscale>  2 0.49621143E+03</rscale>
<asrwt>0</asrwt>
<pdfrwt beam="1">  1       21 0.80331935E-01 0.49653817E+03</pdfrwt>
<pdfrwt beam="2">  1       21 0.72954974E-01 0.49653817E+03</pdfrwt>
<totfact> 0.19562038E+03</totfact>
</mgrwt>
</event>
<event>
 6    1  0.9190795E-004  0.5161556E+03  0.7818608E-02  0.1009691E+00
         21   -1    0    0  503  502  0.00000000000E+00  0.00000000000E+00  0.50525741544E+03  0.50525741544E+03  0.00000000000E+00 0.  1.
         21   -1    0    0  501  503 -0.00000000000E+00 -0.00000000000E+00 -0.64092716148E+03  0.64092716148E+03  0.00000000000E+00 0.  1.
    9000007    2    1    2  501    0 -0.10452726395E+03  0.30901557805E+03 -0.30988910666E+03  0.60141952481E+03  0.39907093356E+03 0.  0.
    9000005    1    3    3    0    0  0.13879706567E+03  0.15591612704E+03 -0.51789907355E+02  0.21507593684E+03  0.99999687468E+00 0.  0.
          4    1    3    3  501    0 -0.24332432962E+03  0.15309945101E+03 -0.25809919930E+03  0.38634358797E+03  0.00000000000E+00 0.  1.
   -9000007    1    1    2    0  502  0.10452726395E+03 -0.30901557805E+03  0.17421936062E+03  0.54476505211E+03  0.40000000000E+03 0.  1.
<mgrwt>
<rscale>  2 0.51597557E+03</rscale>
<asrwt>0</asrwt>
<pdfrwt beam="1">  1       21 0.77731911E-01 0.51615557E+03</pdfrwt>
<pdfrwt beam="2">  1       21 0.98604178E-01 0.51615557E+03</pdfrwt>
<totfact> 0.10338258E+03</totfact>
</mgrwt>
</event>
<event>
 6    1  0.9190795E-004  0.4232511E+03  0.7818608E-02  0.1036025E+00
         21   -1    0    0  503  502  0.00000000000E+00  0.00000000000E+00  0.34836087536E+03  0.34836087536E+03  0.00000000000E+00 0. -1.
         21   -1    0    0  501  503 -0.00000000000E+00 -0.00000000000E+00 -0.51952233990E+03  0.51952233990E+03  0.00000000000E+00 0. -1.
    9000007    2    1    2  501    0 -0.10076306921E+03 -0.94806784964E+02 -0.41098090465E+02  0.42509883899E+03  0.39984803023E+03 0.  0.
    9000005    1    3    3    0    0  0.33071869315E+01  0.13471009048E+03  0.67466211098E+02  0.15069981949E+03  0.99999687468E+00 0.  0.
          4    1    3    3  501    0 -0.10407025614E+03 -0.22951687544E+03 -0.10856430156E+03  0.27439901950E+03  0.00000000000E+00 0.  1.
   -9000007    1    1    2    0  502  0.10076306921E+03  0.94806784964E+02 -0.13006337408E+03  0.44278437627E+03  0.40000000000E+03 0. -1.
<mgrwt>
<rscale>  2 0.42321523E+03</rscale>
<asrwt>0</asrwt>
<pdfrwt beam="1">  1       21 0.53593981E-01 0.42325113E+03</pdfrwt>
<pdfrwt beam="2">  1       21 0.79926514E-01 0.42325113E+03</pdfrwt>
<totfact> 0.40134947E+03</totfact>
</mgrwt>
</event>
<event>
 6    1  0.9190795E-004  0.5247617E+03  0.7818608E-02  0.1007517E+00
         21   -1    0    0  503  502  0.00000000000E+00  0.00000000000E+00  0.10790623687E+04  0.10790623687E+04  0.00000000000E+00 0. -1.
         21   -1    0    0  501  503 -0.00000000000E+00 -0.00000000000E+00 -0.33243862834E+03  0.33243862834E+03  0.00000000000E+00 0.  1.
    9000007    2    1    2  501    0  0.33947714306E+03 -0.11405316836E+02  0.32973759726E+02  0.52568436433E+03  0.39985243548E+03 0.  0.
    9000005    1    3    3    0    0  0.46927251037E+02 -0.43676141219E+02  0.18401637970E+03  0.19486610837E+03  0.99999687468E+00 0.  0.
          4    1    3    3  501    0  0.29254989202E+03  0.32270824384E+02 -0.15104261997E+03  0.33081825596E+03  0.00000000000E+00 0.  1.
   -9000007    1    1    2    0  502 -0.33947714306E+03  0.11405316836E+02  0.71364998061E+03  0.88581663268E+03  0.40000000000E+03 0. -1.
<mgrwt>
<rscale>  2 0.52473355E+03</rscale>
<asrwt>0</asrwt>
<pdfrwt beam="1">  1       21 0.16600959E+00 0.52476167E+03</pdfrwt>
<pdfrwt beam="2">  1       21 0.51144405E-01 0.52476167E+03</pdfrwt>
<totfact> 0.67034415E+02</totfact>
</mgrwt>
</event>
<event>
 6    1  0.9190795E-004  0.4188918E+03  0.7818608E-02  0.1037544E+00
         21   -1    0    0  503  502  0.00000000000E+00  0.00000000000E+00  0.65517368389E+03  0.65517368389E+03  0.00000000000E+00 0.  1.
         21   -1    0    0  501  503 -0.00000000000E+00 -0.00000000000E+00 -0.27386324203E+03  0.27386324203E+03  0.00000000000E+00 0.  1.
    9000007    2    1    2  501    0 -0.11395313647E+01  0.12437450897E+03  0.11635342513E+03  0.43338327898E+03  0.39851302356E+03 0.  0.
    9000005    1    3    3    0    0  0.10933541900E+03 -0.10194833671E+03 -0.13367831432E+02  0.15009129261E+03  0.99999687468E+00 0.  0.
          4    1    3    3  501    0 -0.11047495037E+03  0.22632284568E+03  0.12972125656E+03  0.28329198637E+03  0.00000000000E+00 0.  1.
   -9000007    1    1    2    0  502  0.11395313647E+01 -0.12437450897E+03  0.26495701674E+03  0.49565364694E+03  0.40000000000E+03 0.  1.
<mgrwt>
<rscale>  2 0.41853640E+03</rscale>
<asrwt>0</asrwt>
<pdfrwt beam="1">  1       21 0.10079595E+00 0.41889177E+03</pdfrwt>
<pdfrwt beam="2">  1       21 0.42132807E-01 0.41889177E+03</pdfrwt>
<totfact> 0.38578627E+03</totfact>
</mgrwt>
</event>
<event>
 6    1  0.9190795E-004  0.4044079E+03  0.7818608E-02  0.1042265E+00
         21   -1    0    0  503  502  0.00000000000E+00  0.00000000000E+00  0.55611916895E+03  0.55611916895E+03  0.00000000000E+00 0. -1.
         21   -1    0    0  501  503 -0.00000000000E+00 -0.00000000000E+00 -0.29477607101E+03  0.29477607101E+03  0.00000000000E+00 0. -1.
    9000007    2    1    2  501    0  0.59308137779E+01  0.59136517627E+02  0.15146837768E+03  0.43184302792E+03  0.40001678596E+03 0.  0.
    9000005    1    3    3    0    0 -0.50282827872E+02 -0.10359448206E+03 -0.82281368844E+02  0.14153233957E+03  0.99999687468E+00 0.  0.
          4    1    3    3  501    0  0.56213641650E+02  0.16273099969E+03  0.23374974653E+03  0.29031068835E+03  0.00000000000E+00 0.  1.
   -9000007    1    1    2    0  502 -0.59308137779E+01 -0.59136517627E+02  0.10987472025E+03  0.41905221205E+03  0.40000000000E+03 0. -1.
<mgrwt>
<rscale>  2 0.40440373E+03</rscale>
<asrwt>0</asrwt>
<pdfrwt beam="1">  1       21 0.85556796E-01 0.40440788E+03</pdfrwt>
<pdfrwt beam="2">  1       21 0.45350165E-01 0.40440788E+03</pdfrwt>
<totfact> 0.49158353E+03</totfact>
</mgrwt>
</event>
<event>
 6    1  0.9190795E-004  0.4173228E+03  0.7818608E-02  0.1038117E+00
         21   -1    0    0  503  502  0.00000000000E+00  0.00000000000E+00  0.30119933707E+03  0.30119933707E+03  0.00000000000E+00 0. -1.
         21   -1    0    0  501  503 -0.00000000000E+00 -0.00000000000E+00 -0.95919267291E+03  0.95919267291E+03  0.00000000000E+00 0.  1.
    9000007    2    1    2  501    0  0.23879995451E+02 -0.11656791755E+03 -0.72719156452E+03  0.83737105490E+03  0.39777428084E+03 0.  0.
    9000005    1    3    3    0    0  0.19382854341E+03 -0.13352344654E+03 -0.50469732203E+03  0.55688275415E+03  0.99999687468E+00 0.  0.
          4    1    3    3  501    0 -0.16994854796E+03  0.16955528984E+02 -0.22249424249E+03  0.28048830075E+03  0.00000000000E+00 0.  1.
   -9000007    1    1    2    0  502 -0.23879995451E+02  0.11656791755E+03  0.69198228677E+02  0.42302095508E+03  0.40000000000E+03 0. -1.
<mgrwt>
<rscale>  2 0.41678858E+03</rscale>
<asrwt>0</asrwt>
<pdfrwt beam="1">  1       21 0.46338360E-01 0.41732282E+03</pdfrwt>
<pdfrwt beam="2">  1       21 0.14756810E+00 0.41732282E+03</pdfrwt>
<totfact> 0.11970438E+03</totfact>
</mgrwt>
</event>
<event>
 6    1  0.9190795E-004  0.4264317E+03  0.7818608E-02  0.1035023E+00
         21   -1    0    0  503  502  0.00000000000E+00  0.00000000000E+00  0.53561212332E+03  0.53561212332E+03  0.00000000000E+00 0.  1.
         21   -1    0    0  501  503 -0.00000000000E+00 -0.00000000000E+00 -0.48962163976E+03  0.48962163976E+03  0.00000000000E+00 0.  1.
    9000007    2    1    2  501    0  0.13729831529E+03  0.51748967475E+02 -0.26111638468E+03  0.50002579329E+03  0.40039386183E+03 0.  0.
    9000005    1    3    3    0    0  0.25348654159E+03  0.74543392872E+02 -0.66894364804E+02  0.27255825107E+03  0.99999687468E+00 0.  0.
          4    1    3    3  501    0 -0.11618822630E+03 -0.22794425397E+02 -0.19422201988E+03  0.22746754222E+03  0.00000000000E+00 0.  1.
   -9000007    1    1    2    0  502 -0.13729831529E+03 -0.51748967475E+02  0.30710686824E+03  0.52520796979E+03  0.40000000000E+03 0.  1.
<mgrwt>
<rscale>  2 0.42633926E+03</rscale>
<asrwt>0</asrwt>
<pdfrwt beam="1">  1       21 0.82401865E-01 0.42643174E+03</pdfrwt>
<pdfrwt beam="2">  1       21 0.75326406E-01 0.42643174E+03</pdfrwt>
<totfact> 0.17596559E+03</totfact>
</mgrwt>
</event>
<event>
 6    1  0.9190795E-004  0.4633052E+03  0.7818608E-02  0.1023847E+00
         21   -1    0    0  503  502  0.00000000000E+00  0.00000000000E+00  0.66471452896E+03  0.66471452896E+03  0.00000000000E+00 0. -1.
         21   -1    0    0  501  503 -0.00000000000E+00 -0.00000000000E+00 -0.85931353904E+03  0.85931353904E+03  0.00000000000E+00 0.  1.
    9000007    2    1    2  501    0 -0.13567370261E+03 -0.19037940387E+03 -0.69943927024E+03  0.83881615969E+03  0.39968185599E+03 0.  0.
    9000005    1    3    3    0    0 -0.47665677597E+02 -0.64739138139E+02  0.35608519927E+02  0.87932585046E+02  0.99999687468E+00 0.  0.
          4    1    3    3  501    0 -0.88008025017E+02 -0.12564026573E+03 -0.73504779017E+03  0.75088357464E+03  0.00000000000E+00 0.  1.
   -9000007    1    1    2    0  502  0.13567370261E+03  0.19037940387E+03  0.50484026017E+03  0.68521190831E+03  0.40000000000E+03 0. -1.
<mgrwt>
<rscale>  2 0.46323648E+03</rscale>
<asrwt>0</asrwt>
<pdfrwt beam="1">  1       21 0.10226377E+00 0.46330516E+03</pdfrwt>
<pdfrwt beam="2">  1       21 0.13220208E+00 0.46330516E+03</pdfrwt>
<totfact> 0.26373358E+02</totfact>
</mgrwt>
</event>
<event>
 6    1  0.9190795E-004  0.4118241E+03  0.7818608E-02  0.1040608E+00
         21   -1    0    0  503  502  0.00000000000E+00  0.00000000000E+00  0.12054206419E+03  0.12054206419E+03  0.00000000000E+00 0.  1.
         21   -1    0    0  501  503 -0.00000000000E+00 -0.00000000000E+00 -0.15728377318E+04  0.15728377318E+04  0.00000000000E+00 0.  1.
    9000007    2    1    2  501    0 -0.43422950345E+02 -0.87826594685E+02 -0.10201780492E+04  0.10964504036E+04  0.38966802817E+03 0.  0.
    9000005    1    3    3    0    0 -0.13315940068E+03  0.73705485370E+02 -0.77297611590E+03  0.78781787255E+03  0.99999687468E+00 0.  0.
          4    1    3    3  501    0  0.89736450334E+02 -0.16153208005E+03 -0.24720193327E+03  0.30863253104E+03  0.00000000000E+00 0.  1.
   -9000007    1    1    2    0  502  0.43422950345E+02  0.87826594685E+02 -0.43211761843E+03  0.59692939240E+03  0.40000000000E+03 0.  1.
<mgrwt>
<rscale>  2 0.40929389E+03</rscale>
<asrwt>0</asrwt>
<pdfrwt beam="1">  1       21 0.18544935E-01 0.41182407E+03</pdfrwt>
<pdfrwt beam="2">  1       21 0.24197501E+00 0.41182407E+03</pdfrwt>
<totfact> 0.16684369E+03</totfact>
</mgrwt>
</event>
<event>
 6    1  0.9190795E-004  0.4032588E+03  0.7818608E-02  0.1042721E+00
         21   -1    0    0  503  502  0.00000000000E+00  0.00000000000E+00  0.72028007485E+03  0.72028007485E+03  0.00000000000E+00 0.  1.
         21   -1    0    0  501  503 -0.00000000000E+00 -0.00000000000E+00 -0.22538978499E+03  0.22538978499E+03  0.00000000000E+00 0.  1.
    9000007    2    1    2  501    0  0.41903376715E+02  0.16248083934E+02  0.25355738624E+03  0.47634964550E+03  0.40074648275E+03 0.  0.
    9000005    1    3    3    0    0  0.18756577118E+03 -0.60260960903E+02  0.24108514459E+03  0.31134442160E+03  0.99999687468E+00 0.  0.
          4    1    3    3  501    0 -0.14566239446E+03  0.76509044838E+02  0.12472241650E+02  0.16500522390E+03  0.00000000000E+00 0.  1.
   -9000007    1    1    2    0  502 -0.41903376715E+02 -0.16248083934E+02  0.24133290362E+03  0.46932021433E+03  0.40000000000E+03 0.  1.
<mgrwt>
<rscale>  2 0.40307319E+03</rscale>
<asrwt>0</asrwt>
<pdfrwt beam="1">  1       21 0.11081232E+00 0.40325877E+03</pdfrwt>
<pdfrwt beam="2">  1       21 0.34675352E-01 0.40325877E+03</pdfrwt>
<totfact> 0.45780288E+03</totfact>
</mgrwt>
</event>
<event>
 6    1  0.9190795E-004  0.4694195E+03  0.7818608E-02  0.1022112E+00
         21   -1    0    0  503  502  0.00000000000E+00  0.00000000000E+00  0.92772179825E+03  0.92772179825E+03  0.00000000000E+00 0.  1.
         21   -1    0    0  501  503 -0.00000000000E+00 -0.00000000000E+00 -0.24958143236E+03  0.24958143236E+03  0.00000000000E+00 0. -1.
    9000007    2    1    2  501    0  0.21287050559E+03  0.12264082180E+03  0.20848079204E+03  0.51327406059E+03  0.39953898095E+03 0.  0.
    9000005    1    3    3    0    0  0.86558763738E+02 -0.13184946154E+03  0.16070044102E+03  0.22517178293E+03  0.99999687468E+00 0.  0.
          4    1    3    3  501    0  0.12631174186E+03  0.25449028335E+03  0.47780351022E+02  0.28810227766E+03  0.00000000000E+00 0.  1.
   -9000007    1    1    2    0  502 -0.21287050559E+03 -0.12264082180E+03  0.46965957385E+03  0.66402917002E+03  0.40000000000E+03 0.  1.
<mgrwt>
<rscale>  2 0.46932123E+03</rscale>
<asrwt>0</asrwt>
<pdfrwt beam="1">  1       21 0.14272643E+00 0.46941945E+03</pdfrwt>
<pdfrwt beam="2">  1       21 0.38397144E-01 0.46941945E+03</pdfrwt>
<totfact> 0.18928109E+03</totfact>
</mgrwt>
</event>
<event>
 6    1  0.9190795E-004  0.4089803E+03  0.7818608E-02  0.1040716E+00
         21   -1    0    0  503  502  0.00000000000E+00  0.00000000000E+00  0.12510699355E+04  0.12510699355E+04  0.00000000000E+00 0. -1.
         21   -1    0    0  501  503 -0.00000000000E+00 -0.00000000000E+00 -0.21016063189E+03  0.21016063189E+03  0.00000000000E+00 0. -1.
    9000007    2    1    2  501    0 -0.80666869831E+01 -0.84851828227E+02  0.79717962778E+02  0.41664754154E+03  0.39996914392E+03 0.  0.
    9000005    1    3    3    0    0 -0.15582989969E+03 -0.17027757545E+03  0.64628965549E+01  0.23091162674E+03  0.99999687468E+00 0.  0.
          4    1    3    3  501    0  0.14776321271E+03  0.85425747220E+02  0.73255066223E+02  0.18573591480E+03  0.00000000000E+00 0.  1.
   -9000007    1    1    2    0  502  0.80666869831E+01  0.84851828227E+02  0.96119134082E+03  0.10445830258E+04  0.40000000000E+03 0.  1.
<mgrwt>
<rscale>  2 0.40897278E+03</rscale>
<asrwt>0</asrwt>
<pdfrwt beam="1">  1       21 0.19247229E+00 0.40898032E+03</pdfrwt>
<pdfrwt beam="2">  1       21 0.32332406E-01 0.40898032E+03</pdfrwt>
<totfact> 0.11820639E+03</totfact>
</mgrwt>
</event>
<event>
 6    1  0.9190795E-004  0.4309207E+03  0.7818608E-02  0.1033571E+00
         21   -1    0    0  503  502  0.00000000000E+00  0.00000000000E+00  0.41668004936E+03  0.41668004936E+03  0.00000000000E+00 0. -1.
         21   -1    0    0  501  503 -0.00000000000E+00 -0.00000000000E+00 -0.60755960518E+03  0.60755960518E+03  0.00000000000E+00 0. -1.
    9000007    2    1    2  501    0  0.74408667637E+02  0.14197186179E+03 -0.35982621156E+03  0.56138370304E+03  0.39998012469E+03 0.  0.
    9000005    1    3    3    0    0  0.14648907017E+03  0.25658577242E+03 -0.25059842994E+03  0.38742209458E+03  0.99999687468E+00 0.  0.
          4    1    3    3  501    0 -0.72080402533E+02 -0.11461391063E+03 -0.10922778162E+03  0.17396160845E+03  0.00000000000E+00 0.  1.
   -9000007    1    1    2    0  502 -0.74408667637E+02 -0.14197186179E+03  0.16894665574E+03  0.46285595151E+03  0.40000000000E+03 0. -1.
<mgrwt>
<rscale>  2 0.43091610E+03</rscale>
<asrwt>0</asrwt>
<pdfrwt beam="1">  1       21 0.64104623E-01 0.43092071E+03</pdfrwt>
<pdfrwt beam="2">  1       21 0.93470708E-01 0.43092071E+03</pdfrwt>
<totfact> 0.18760616E+03</totfact>
</mgrwt>
</event>
<event>
 6    1  0.9190795E-004  0.4823719E+03  0.7818608E-02  0.1018523E+00
         21   -1    0    0  503  502  0.00000000000E+00  0.00000000000E+00  0.25852979908E+03  0.25852979908E+03  0.00000000000E+00 0.  1.
         21   -1    0    0  501  503 -0.00000000000E+00 -0.00000000000E+00 -0.12768183599E+04  0.12768183599E+04  0.00000000000E+00 0.  1.
    9000007    2    1    2  501    0 -0.17475410945E+02  0.26903030379E+03 -0.92654044196E+03  0.10443283919E+04  0.39932681498E+03 0.  0.
    9000005    1    3    3    0    0  0.16756144543E+03  0.16956275241E+03 -0.67916127163E+03  0.71978427176E+03  0.99999687468E+00 0.  0.
          4    1    3    3  501    0 -0.18503685637E+03  0.99467551380E+02 -0.24737917033E+03  0.32454412012E+03  0.00000000000E+00 0.  1.
   -9000007    1    1    2    0  502  0.17475410945E+02 -0.26903030379E+03 -0.91748118824E+02  0.49101976707E+03  0.40000000000E+03 0.  1.
<mgrwt>
<rscale>  2 0.48223236E+03</rscale>
<asrwt>0</asrwt>
<pdfrwt beam="1">  1       21 0.39773814E-01 0.48237195E+03</pdfrwt>
<pdfrwt beam="2">  1       21 0.19643360E+00 0.48237195E+03</pdfrwt>
<totfact> 0.70537415E+02</totfact>
</mgrwt>
</event>
<event>
 6    1  0.9190795E-004  0.5170062E+03  0.7818608E-02  0.1009433E+00
         21   -1    0    0  503  502  0.00000000000E+00  0.00000000000E+00  0.99613564238E+03  0.99613564238E+03  0.00000000000E+00 0. -1.
         21   -1    0    0  501  503 -0.00000000000E+00 -0.00000000000E+00 -0.31574290854E+03  0.31574290854E+03  0.00000000000E+00 0. -1.
    9000007    2    1    2  501    0  0.28003373017E+03 -0.16993087543E+03  0.86015538682E+02  0.52410977609E+03  0.39999624004E+03 0.  0.
    9000005    1    3    3    0    0  0.31254994379E+03 -0.26831175834E+03  0.84413485641E+02  0.42048222742E+03  0.99999687468E+00 0.  0.
          4    1    3    3  501    0 -0.32516213622E+02  0.98380882909E+02  0.16020530409E+01  0.10362754867E+03  0.00000000000E+00 0.  1.
   -9000007    1    1    2    0  502 -0.28003373017E+03  0.16993087543E+03  0.59437719517E+03  0.78776877483E+03  0.40000000000E+03 0. -1.
<mgrwt>
<rscale>  2 0.51700545E+03</rscale>
<asrwt>0</asrwt>
<pdfrwt beam="1">  1       21 0.15325164E+00 0.51700618E+03</pdfrwt>
<pdfrwt beam="2">  1       21 0.48575832E-01 0.51700618E+03</pdfrwt>
<totfact> 0.93843584E+02</totfact>
</mgrwt>
</event>
<event>
 6    1  0.9190795E-004  0.4928063E+03  0.7818608E-02  0.1015679E+00
         21   -1    0    0  503  502  0.00000000000E+00  0.00000000000E+00  0.70544675243E+03  0.70544675243E+03  0.00000000000E+00 0. -1.
         21   -1    0    0  501  503 -0.00000000000E+00 -0.00000000000E+00 -0.37097562023E+03  0.37097562023E+03  0.00000000000E+00 0. -1.
    9000007    2    1    2  501    0  0.18186028573E+03  0.22294703968E+03  0.22667840934E+02  0.49332732169E+03  0.40009932428E+03 0.  0.
    9000005    1    3    3    0    0  0.30360676417E+03  0.17578923163E+03 -0.30940879098E+02  0.35218923776E+03  0.99999687468E+00 0.  0.
          4    1    3    3  501    0 -0.12174647843E+03  0.47157808046E+02  0.53608720032E+02  0.14113808392E+03  0.00000000000E+00 0.  1.
   -9000007    1    1    2    0  502 -0.18186028573E+03 -0.22294703968E+03  0.31180329126E+03  0.58309505097E+03  0.40000000000E+03 0. -1.
<mgrwt>
<rscale>  2 0.49278611E+03</rscale>
<asrwt>0</asrwt>
<pdfrwt beam="1">  1       21 0.10853027E+00 0.49280627E+03</pdfrwt>
<pdfrwt beam="2">  1       21 0.57073172E-01 0.49280627E+03</pdfrwt>
<totfact> 0.16441119E+03</totfact>
</mgrwt>
</event>
<event>
 6    1  0.9190795E-004  0.6221820E+03  0.7818608E-02  0.9860884E-01
         21   -1    0    0  503  502  0.00000000000E+00  0.00000000000E+00  0.11476622185E+04  0.11476622185E+04  0.00000000000E+00 0. -1.
         21   -1    0    0  501  503 -0.00000000000E+00 -0.00000000000E+00 -0.35508279387E+03  0.35508279387E+03  0.00000000000E+00 0. -1.
    9000007    2    1    2  501    0 -0.32383217418E+03  0.34963289518E+03  0.56649603320E+03  0.84076001385E+03  0.39855891261E+03 0.  0.
    9000005    1    3    3    0    0 -0.27758904903E+02  0.93076649225E+02  0.40589150826E+03  0.41735205271E+03  0.99999687468E+00 0.  0.
          4    1    3    3  501    0 -0.29607326928E+03  0.25655624596E+03  0.16060452494E+03  0.42340796114E+03  0.00000000000E+00 0.  1.
   -9000007    1    1    2    0  502  0.32383217418E+03 -0.34963289518E+03  0.22608339147E+03  0.66198499857E+03  0.40000000000E+03 0. -1.
<mgrwt>
<rscale>  2 0.62195050E+03</rscale>
<asrwt>0</asrwt>
<pdfrwt beam="1">  1       21 0.17656342E+00 0.62218200E+03</pdfrwt>
<pdfrwt beam="2">  1       21 0.54628123E-01 0.62218200E+03</pdfrwt>
<totfact> 0.47006356E+02</totfact>
</mgrwt>
</event>
<event>
 6    1  0.9190795E-004  0.4070026E+03  0.7818608E-02  0.1041392E+00
         21   -1    0    0  503  502  0.00000000000E+00  0.00000000000E+00  0.42099275429E+03  0.42099275429E+03  0.00000000000E+00 0. -1.
         21   -1    0    0  501  503 -0.00000000000E+00 -0.00000000000E+00 -0.53364896627E+03  0.53364896627E+03  0.00000000000E+00 0. -1.
    9000007    2    1    2  501    0  0.40357247622E+02 -0.62599594473E+02  0.18840445982E+03  0.44849456334E+03  0.40012962425E+03 0.  0.
    9000005    1    3    3    0    0  0.89095515729E+02 -0.10549081031E+02  0.30162683708E+03  0.31468880322E+03  0.99999687468E+00 0.  0.
          4    1    3    3  501    0 -0.48738268107E+02 -0.52050513442E+02 -0.11322237726E+03  0.13380576012E+03  0.00000000000E+00 0.  1.
   -9000007    1    1    2    0  502 -0.40357247622E+02  0.62599594473E+02 -0.30106067180E+03  0.50614715722E+03  0.40000000000E+03 0. -1.
<mgrwt>
<rscale>  2 0.40697076E+03</rscale>
<asrwt>0</asrwt>
<pdfrwt beam="1">  1       21 0.64768116E-01 0.40700262E+03</pdfrwt>
<pdfrwt beam="2">  1       21 0.82099841E-01 0.40700262E+03</pdfrwt>
<totfact> 0.25113692E+03</totfact>
</mgrwt>
</event>
<event>
 6    1  0.9190795E-004  0.4454228E+03  0.7818608E-02  0.1029124E+00
         21   -1    0    0  503  502  0.00000000000E+00  0.00000000000E+00  0.59867560476E+03  0.59867560476E+03  0.00000000000E+00 0. -1.
         21   -1    0    0  501  503 -0.00000000000E+00 -0.00000000000E+00 -0.33125280425E+03  0.33125280425E+03  0.00000000000E+00 0.  1.
    9000007    2    1    2  501    0  0.17631562196E+03 -0.85523572526E+02  0.12442665976E+03  0.46211501002E+03  0.39958329398E+03 0.  0.
    9000005    1    3    3    0    0  0.27311873257E+03  0.44091217046E+02  0.39680862224E+02  0.27948783215E+03  0.99999687468E+00 0.  0.
          4    1    3    3  501    0 -0.96803110606E+02 -0.12961478957E+03  0.84745797534E+02  0.18262717787E+03  0.00000000000E+00 0.  1.
   -9000007    1    1    2    0  502 -0.17631562196E+03  0.85523572526E+02  0.14299614075E+03  0.46781339899E+03  0.40000000000E+03 0.  1.
<mgrwt>
<rscale>  2 0.44532924E+03</rscale>
<asrwt>0</asrwt>
<pdfrwt beam="1">  1       21 0.92103939E-01 0.44542281E+03</pdfrwt>
<pdfrwt beam="2">  1       21 0.50961970E-01 0.44542281E+03</pdfrwt>
<totfact> 0.31812663E+03</totfact>
</mgrwt>
</event>
<event>
 6    1  0.9190795E-004  0.5347867E+03  0.7818608E-02  0.1005084E+00
         21   -1    0    0  503  502  0.00000000000E+00  0.00000000000E+00  0.18510538006E+03  0.18510538006E+03  0.00000000000E+00 0.  1.
         21   -1    0    0  501  503 -0.00000000000E+00 -0.00000000000E+00 -0.16216527137E+04  0.16216527137E+04  0.00000000000E+00 0.  1.
    9000007    2    1    2  501    0  0.27751824718E+02 -0.35371857616E+03 -0.91506302902E+03  0.10598759914E+04  0.40013719540E+03 0.  0.
    9000005    1    3    3    0    0  0.10040265311E+03 -0.14600869188E+03 -0.78394959479E+03  0.80372706687E+03  0.99999687468E+00 0.  0.
          4    1    3    3  501    0 -0.72650828391E+02 -0.20770988428E+03 -0.13111343423E+03  0.25614892451E+03  0.00000000000E+00 0.  1.
   -9000007    1    1    2    0  502 -0.27751824718E+02  0.35371857616E+03 -0.52148430461E+03  0.74688210238E+03  0.40000000000E+03 0.  1.
<mgrwt>
<rscale>  2 0.53476100E+03</rscale>
<asrwt>0</asrwt>
<pdfrwt beam="1">  1       21 0.28477750E-01 0.53478666E+03</pdfrwt>
<pdfrwt beam="2">  1       21 0.24948504E+00 0.53478666E+03</pdfrwt>
<totfact> 0.61801861E+02</totfact>
</mgrwt>
</event>
<event>
 6    1  0.9190795E-004  0.4118678E+03  0.7818608E-02  0.1040104E+00
         21   -1    0    0  503  502  0.00000000000E+00  0.00000000000E+00  0.16547066674E+04  0.16547066674E+04  0.00000000000E+00 0. -1.
         21   -1    0    0  501  503 -0.00000000000E+00 -0.00000000000E+00 -0.14806706726E+03  0.14806706726E+03  0.00000000000E+00 0. -1.
    9000007    2    1    2  501    0 -0.77814386590E+02  0.93465690322E+01  0.12617248100E+04  0.13272469830E+04  0.40434220733E+03 0.  0.
    9000005    1    3    3    0    0  0.46720156855E+02  0.11649380617E+02 -0.10207286030E+02  0.49230781095E+02  0.99999687468E+00 0.  0.
          4    1    3    3  501    0 -0.12453454344E+03 -0.23028115849E+01  0.12719320960E+04  0.12780162019E+04  0.00000000000E+00 0.  1.
   -9000007    1    1    2    0  502  0.77814386590E+02 -0.93465690322E+01  0.24491479016E+03  0.47552675167E+03  0.40000000000E+03 0.  1.
<mgrwt>
<rscale>  2 0.41079810E+03</rscale>
<asrwt>0</asrwt>
<pdfrwt beam="1">  1       21 0.25457024E+00 0.41186777E+03</pdfrwt>
<pdfrwt beam="2">  1       21 0.22779550E-01 0.41186777E+03</pdfrwt>
<totfact> 0.94394969E+02</totfact>
</mgrwt>
</event>
<event>
 6    1  0.9190795E-004  0.5772782E+03  0.7818608E-02  0.9953775E-01
         21   -1    0    0  503  502  0.00000000000E+00  0.00000000000E+00  0.59523936312E+03  0.59523936312E+03  0.00000000000E+00 0.  1.
         21   -1    0    0  501  503 -0.00000000000E+00 -0.00000000000E+00 -0.81019950975E+03  0.81019950975E+03  0.00000000000E+00 0.  1.
    9000007    2    1    2  501    0  0.24190020540E+03 -0.33872472626E+03 -0.49819179365E+03  0.76242229810E+03  0.39980313634E+03 0.  0.
    9000005    1    3    3    0    0  0.84780497614E+02  0.59400884676E+02 -0.24294796504E+03  0.26408504613E+03  0.99999687468E+00 0.  0.
          4    1    3    3  501    0  0.15711970779E+03 -0.39812561094E+03 -0.25524382860E+03  0.49833725197E+03  0.00000000000E+00 0.  1.
   -9000007    1    1    2    0  502 -0.24190020540E+03  0.33872472626E+03  0.28323164702E+03  0.64301657477E+03  0.40000000000E+03 0.  1.
<mgrwt>
<rscale>  2 0.57724412E+03</rscale>
<asrwt>0</asrwt>
<pdfrwt beam="1">  1       21 0.91575288E-01 0.57727823E+03</pdfrwt>
<pdfrwt beam="2">  1       21 0.12464608E+00 0.57727823E+03</pdfrwt>
<totfact> 0.38287681E+02</totfact>
</mgrwt>
</event>
<event>
 6    1  0.9190795E-004  0.4608080E+03  0.7818608E-02  0.1025389E+00
         21   -1    0    0  503  502  0.00000000000E+00  0.00000000000E+00  0.45001871119E+03  0.45001871119E+03  0.00000000000E+00 0. -1.
         21   -1    0    0  501  503 -0.00000000000E+00 -0.00000000000E+00 -0.98771686011E+03  0.98771686011E+03  0.00000000000E+00 0. -1.
    9000007    2    1    2  501    0 -0.20449732399E+03  0.87074988524E+01 -0.79577565645E+03  0.91956670313E+03  0.41285475660E+03 0.  0.
    9000005    1    3    3    0    0 -0.30862712389E+03 -0.31942969768E+02 -0.72141401003E+03  0.78530900210E+03  0.99999687468E+00 0.  0.
          4    1    3    3  501    0  0.10412979990E+03  0.40650468621E+02 -0.74361646423E+02  0.13425770103E+03  0.00000000000E+00 0.  1.
   -9000007    1    1    2    0  502  0.20449732399E+03 -0.87074988524E+01  0.25807750752E+03  0.51816886817E+03  0.40000000000E+03 0. -1.
<mgrwt>
<rscale>  2 0.45791061E+03</rscale>
<asrwt>0</asrwt>
<pdfrwt beam="1">  1       21 0.69233648E-01 0.46080801E+03</pdfrwt>
<pdfrwt beam="2">  1       21 0.15195644E+00 0.46080801E+03</pdfrwt>
<totfact> 0.45342581E+02</totfact>
</mgrwt>
</event>
<event>
 6    1  0.9190795E-004  0.4469584E+03  0.7818608E-02  0.1028710E+00
         21   -1    0    0  503  502  0.00000000000E+00  0.00000000000E+00  0.31725346733E+03  0.31725346733E+03  0.00000000000E+00 0. -1.
         21   -1    0    0  501  503 -0.00000000000E+00 -0.00000000000E+00 -0.67379116777E+03  0.67379116777E+03  0.00000000000E+00 0. -1.
    9000007    2    1    2  501    0 -0.19195945483E+03  0.54068294495E+02 -0.30689198513E+03  0.54133749727E+03  0.39886311266E+03 0.  0.
    9000005    1    3    3    0    0 -0.17110039053E+03  0.29420805845E+02 -0.40361289340E+03  0.43936920143E+03  0.99999687468E+00 0.  0.
          4    1    3    3  501    0 -0.20859064300E+02  0.24647488649E+02  0.96720908265E+02  0.10196829584E+03  0.00000000000E+00 0.  1.
   -9000007    1    1    2    0  502  0.19195945483E+03 -0.54068294495E+02 -0.49645715301E+02  0.44970713783E+03  0.40000000000E+03 0. -1.
<mgrwt>
<rscale>  2 0.44670390E+03</rscale>
<asrwt>0</asrwt>
<pdfrwt beam="1">  1       21 0.48808226E-01 0.44695840E+03</pdfrwt>
<pdfrwt beam="2">  1       21 0.10366018E+00 0.44695840E+03</pdfrwt>
<totfact> 0.26196622E+03</totfact>
</mgrwt>
</event>
<event>
 6    1  0.9190795E-004  0.4586270E+03  0.7818608E-02  0.1025207E+00
         21   -1    0    0  503  502  0.00000000000E+00  0.00000000000E+00  0.19880747466E+03  0.19880747466E+03  0.00000000000E+00 0.  1.
         21   -1    0    0  501  503 -0.00000000000E+00 -0.00000000000E+00 -0.10782147396E+04  0.10782147396E+04  0.00000000000E+00 0.  1.
    9000007    2    1    2  501    0 -0.50857842122E+02  0.21774601773E+03 -0.52912531758E+03  0.70022303692E+03  0.40042334021E+03 0.  0.
    9000005    1    3    3    0    0 -0.12158532706E+03 -0.49405866283E+02 -0.34241765495E+03  0.36670803345E+03  0.99999687468E+00 0.  0.
          4    1    3    3  501    0  0.70727484937E+02  0.26715188401E+03 -0.18670766263E+03  0.33351500347E+03  0.00000000000E+00 0.  1.
   -9000007    1    1    2    0  502  0.50857842122E+02 -0.21774601773E+03 -0.35028194735E+03  0.57679917734E+03  0.40000000000E+03 0.  1.
<mgrwt>
<rscale>  2 0.45853455E+03</rscale>
<asrwt>0</asrwt>
<pdfrwt beam="1">  1       21 0.30585765E-01 0.45862697E+03</pdfrwt>
<pdfrwt beam="2">  1       21 0.16587919E+00 0.45862697E+03</pdfrwt>
<totfact> 0.19910793E+03</totfact>
</mgrwt>
</event>
<event>
 6    1  0.9190795E-004  0.5766424E+03  0.7818608E-02  0.9955193E-01
         21   -1    0    0  503  502  0.00000000000E+00  0.00000000000E+00  0.81437759155E+03  0.81437759155E+03  0.00000000000E+00 0. -1.
         21   -1    0    0  501  503 -0.00000000000E+00 -0.00000000000E+00 -0.64820320719E+03  0.64820320719E+03  0.00000000000E+00 0.  1.
    9000007    2    1    2  501    0 -0.38115921625E+03 -0.16502751468E+03 -0.36193271095E+03  0.68065143310E+03  0.39971822248E+03 0.  0.
    9000005    1    3    3    0    0  0.73176955445E+02 -0.26886643423E+02 -0.13137388614E+03  0.15276732752E+03  0.99999687468E+00 0.  0.
          4    1    3    3  501    0 -0.45433617170E+03 -0.13814087126E+03 -0.23055882481E+03  0.52788410558E+03  0.00000000000E+00 0.  1.
   -9000007    1    1    2    0  502  0.38115921625E+03  0.16502751468E+03  0.52810709531E+03  0.78192936564E+03  0.40000000000E+03 0. -1.
<mgrwt>
<rscale>  2 0.57659351E+03</rscale>
<asrwt>0</asrwt>
<pdfrwt beam="1">  1       21 0.12528886E+00 0.57664238E+03</pdfrwt>
<pdfrwt beam="2">  1       21 0.99723570E-01 0.57664238E+03</pdfrwt>
<totfact> 0.30757491E+02</totfact>
</mgrwt>
</event>
<event>
 6    1  0.9190795E-004  0.4409636E+03  0.7818608E-02  0.1030467E+00
         21   -1    0    0  503  502  0.00000000000E+00  0.00000000000E+00  0.13173749634E+04  0.13173749634E+04  0.00000000000E+00 0. -1.
         21   -1    0    0  501  503 -0.00000000000E+00 -0.00000000000E+00 -0.14966047430E+03  0.14966047430E+03  0.00000000000E+00 0.  1.
    9000007    2    1    2  501    0  0.20622772922E+02 -0.18397919550E+03  0.49660911065E+03  0.66413066617E+03  0.40021905231E+03 0.  0.
    9000005    1    3    3    0    0  0.19469444983E+03 -0.27136243605E+02  0.15722349503E+03  0.25171915281E+03  0.99999687468E+00 0.  0.
          4    1    3    3  501    0 -0.17407167691E+03 -0.15684295189E+03  0.33938561562E+03  0.41241151336E+03  0.00000000000E+00 0.  1.
   -9000007    1    1    2    0  502 -0.20622772922E+02  0.18397919550E+03  0.67110537841E+03  0.80290477148E+03  0.40000000000E+03 0. -1.
<mgrwt>
<rscale>  2 0.44091393E+03</rscale>
<asrwt>0</asrwt>
<pdfrwt beam="1">  1       21 0.20267306E+00 0.44096364E+03</pdfrwt>
<pdfrwt beam="2">  1       21 0.23024689E-01 0.44096364E+03</pdfrwt>
<totfact> 0.19380820E+03</totfact>
</mgrwt>
</event>
<event>
 6    1  0.9190795E-004  0.4305255E+03  0.7818608E-02  0.1033781E+00
         21   -1    0    0  503  502  0.00000000000E+00  0.00000000000E+00  0.48003323047E+03  0.48003323047E+03  0.00000000000E+00 0.  1.
         21   -1    0    0  501  503 -0.00000000000E+00 -0.00000000000E+00 -0.42523394440E+03  0.42523394440E+03  0.00000000000E+00 0.  1.
    9000007    2    1    2  501    0  0.14551688868E+02  0.15855745732E+03 -0.11162698726E+03  0.44369386176E+03  0.39881253711E+03 0.  0.
    9000005    1    3    3    0    0  0.12935313168E+02 -0.11307762397E+03  0.53538088924E+02  0.12578234506E+03  0.99999687468E+00 0.  0.
          4    1    3    3  501    0  0.16163756996E+01  0.27163508129E+03 -0.16516507619E+03  0.31791151670E+03  0.00000000000E+00 0.  1.
   -9000007    1    1    2    0  502 -0.14551688868E+02 -0.15855745732E+03  0.16642627334E+03  0.46157331311E+03  0.40000000000E+03 0.  1.
<mgrwt>
<rscale>  2 0.43024949E+03</rscale>
<asrwt>0</asrwt>
<pdfrwt beam="1">  1       21 0.73851266E-01 0.43052551E+03</pdfrwt>
<pdfrwt beam="2">  1       21 0.65420607E-01 0.43052551E+03</pdfrwt>
<totfact> 0.31032555E+03</totfact>
</mgrwt>
</event>
<event>
 6    1  0.9190795E-004  0.5815544E+03  0.7818608E-02  0.9944446E-01
         21   -1    0    0  503  502  0.00000000000E+00  0.00000000000E+00  0.15006999339E+03  0.15006999339E+03  0.00000000000E+00 0.  1.
         21   -1    0    0  501  503 -0.00000000000E+00 -0.00000000000E+00 -0.28942311500E+04  0.28942311500E+04  0.00000000000E+00 0.  1.
    9000007    2    1    2  501    0  0.19800257374E+03 -0.37282763733E+03 -0.20882199346E+04  0.21676801574E+04  0.39996162710E+03 0.  0.
    9000005    1    3    3    0    0 -0.10395163004E+02  0.72325079627E+02 -0.13437872918E+03  0.15296280399E+03  0.99999687468E+00 0.  0.
          4    1    3    3  501    0  0.20839773674E+03 -0.44515271696E+03 -0.19538412054E+04  0.20147173534E+04  0.00000000000E+00 0.  1.
   -9000007    1    1    2    0  502 -0.19800257374E+03  0.37282763733E+03 -0.65594122204E+03  0.87662098602E+03  0.40000000000E+03 0.  1.
<mgrwt>
<rscale>  2 0.58154776E+03</rscale>
<asrwt>0</asrwt>
<pdfrwt beam="1">  1       21 0.23087691E-01 0.58155435E+03</pdfrwt>
<pdfrwt beam="2">  1       21 0.44526635E+00 0.58155435E+03</pdfrwt>
<totfact> 0.53736096E+01</totfact>
</mgrwt>
</event>
<event>
 6    1  0.9190795E-004  0.4228323E+03  0.7818608E-02  0.1036160E+00
         21   -1    0    0  503  502  0.00000000000E+00  0.00000000000E+00  0.43523937773E+03  0.43523937773E+03  0.00000000000E+00 0.  1.
         21   -1    0    0  501  503 -0.00000000000E+00 -0.00000000000E+00 -0.43849261052E+03  0.43849261052E+03  0.00000000000E+00 0.  1.
    9000007    2    1    2  501    0 -0.11925833119E+03 -0.67562124269E+02 -0.11172207920E+03  0.43720858586E+03  0.39985289092E+03 0.  0.
    9000005    1    3    3    0    0  0.67367305927E+01  0.16064125849E+03 -0.26489794702E+02  0.16295308124E+03  0.99999687468E+00 0.  0.
          4    1    3    3  501    0 -0.12599506178E+03 -0.22820338276E+03 -0.85232284496E+02  0.27425550462E+03  0.00000000000E+00 0.  1.
   -9000007    1    1    2    0  502  0.11925833119E+03  0.67562124269E+02  0.10846884641E+03  0.43652340239E+03  0.40000000000E+03 0.  1.
<mgrwt>
<rscale>  2 0.42279755E+03</rscale>
<asrwt>0</asrwt>
<pdfrwt beam="1">  1       21 0.66959904E-01 0.42283234E+03</pdfrwt>
<pdfrwt beam="2">  1       21 0.67460401E-01 0.42283234E+03</pdfrwt>
<totfact> 0.36232817E+03</totfact>
</mgrwt>
</event>
<event>
 6    1  0.9190795E-004  0.5405105E+03  0.7818608E-02  0.1003764E+00
         21   -1    0    0  503  502  0.00000000000E+00  0.00000000000E+00  0.17079674792E+04  0.17079674792E+04  0.00000000000E+00 0.  1.
         21   -1    0    0  501  503 -0.00000000000E+00 -0.00000000000E+00 -0.36261442958E+03  0.36261442958E+03  0.00000000000E+00 0.  1.
    9000007    2    1    2  501    0  0.18701774845E+03  0.31173051527E+03 -0.80568240705E+02  0.54565467164E+03  0.39886868377E+03 0.  0.
    9000005    1    3    3    0    0  0.13144718866E+03  0.14435401211E+02  0.12338854339E+03  0.18086590847E+03  0.99999687468E+00 0.  0.
          4    1    3    3  501    0  0.55570559785E+02  0.29729511406E+03 -0.20395678409E+03  0.36478876317E+03  0.00000000000E+00 0.  1.
   -9000007    1    1    2    0  502 -0.18701774845E+03 -0.31173051527E+03  0.14259212903E+04  0.15249272371E+04  0.40000000000E+03 0.  1.
<mgrwt>
<rscale>  2 0.54030116E+03</rscale>
<asrwt>0</asrwt>
<pdfrwt beam="1">  1       21 0.26276422E+00 0.54051046E+03</pdfrwt>
<pdfrwt beam="2">  1       21 0.55786836E-01 0.54051046E+03</pdfrwt>
<totfact> 0.12690833E+02</totfact>
</mgrwt>
</event>
<event>
 6    1  0.9190795E-004  0.6316197E+03  0.7818608E-02  0.9841900E-01
         21   -1    0    0  503  502  0.00000000000E+00  0.00000000000E+00  0.13285382146E+04  0.13285382146E+04  0.00000000000E+00 0. -1.
         21   -1    0    0  501  503 -0.00000000000E+00 -0.00000000000E+00 -0.30043253121E+03  0.30043253121E+03  0.00000000000E+00 0.  1.
    9000007    2    1    2  501    0  0.48271195823E+03 -0.77023590483E+02  0.49573527126E+03  0.80291885652E+03  0.39997720295E+03 0.  0.
    9000005    1    3    3    0    0  0.55207891097E+03 -0.84071967437E+02  0.41212475683E+03  0.69405117595E+03  0.99999687468E+00 0.  0.
          4    1    3    3  501    0 -0.69366952743E+02  0.70483769541E+01  0.83610514427E+02  0.10886768057E+03  0.00000000000E+00 0.  1.
   -9000007    1    1    2    0  502 -0.48271195823E+03  0.77023590483E+02  0.53237041216E+03  0.82605188932E+03  0.40000000000E+03 0.  1.
<mgrwt>
<rscale>  2 0.63161611E+03</rscale>
<asrwt>0</asrwt>
<pdfrwt beam="1">  1       21 0.20439049E+00 0.63161972E+03</pdfrwt>
<pdfrwt beam="2">  1       21 0.46220390E-01 0.63161972E+03</pdfrwt>
<totfact> 0.42998243E+02</totfact>
</mgrwt>
</event>
<event>
 6    1  0.9190795E-004  0.4357661E+03  0.7818608E-02  0.1032059E+00
         21   -1    0    0  503  502  0.00000000000E+00  0.00000000000E+00  0.21706667931E+04  0.21706667931E+04  0.00000000000E+00 0.  1.
         21   -1    0    0  501  503 -0.00000000000E+00 -0.00000000000E+00 -0.15339966333E+03  0.15339966333E+03  0.00000000000E+00 0.  1.
    9000007    2    1    2  501    0  0.11473788617E+03 -0.12933415034E+03  0.24677364011E+03  0.50073453332E+03  0.39993216729E+03 0.  0.
    9000005    1    3    3    0    0  0.28111271391E+02 -0.64844534565E+02  0.34656068647E+03  0.35369530198E+03  0.99999687468E+00 0.  0.
          4    1    3    3  501    0  0.86626614777E+02 -0.64489615779E+02 -0.99787046358E+02  0.14703923134E+03  0.00000000000E+00 0.  1.
   -9000007    1    1    2    0  502 -0.11473788617E+03  0.12933415034E+03  0.17704934897E+04  0.18233319232E+04  0.40000000000E+03 0.  1.
<mgrwt>
<rscale>  2 0.43575055E+03</rscale>
<asrwt>0</asrwt>
<pdfrwt beam="1">  1       21 0.33394872E+00 0.43576611E+03</pdfrwt>
<pdfrwt beam="2">  1       21 0.23599950E-01 0.43576611E+03</pdfrwt>
<totfact> 0.28909613E+02</totfact>
</mgrwt>
</event>
<event>
 6    1  0.9190795E-004  0.4737628E+03  0.7818608E-02  0.1021139E+00
         21   -1    0    0  503  502  0.00000000000E+00  0.00000000000E+00  0.85837283110E+03  0.85837283110E+03  0.00000000000E+00 0.  1.
         21   -1    0    0  501  503 -0.00000000000E+00 -0.00000000000E+00 -0.12743837887E+04  0.12743837887E+04  0.00000000000E+00 0.  1.
    9000007    2    1    2  501    0 -0.15151129784E+03 -0.20370455394E+03 -0.11595427264E+04  0.12511157010E+04  0.39534787756E+03 0.  0.
    9000005    1    3    3    0    0 -0.12186843298E+02 -0.26695468175E+03 -0.43449088497E+03  0.51009474647E+03  0.99999687468E+00 0.  0.
          4    1    3    3  501    0 -0.13932445454E+03  0.63250127817E+02 -0.72505184142E+03  0.74102095452E+03  0.00000000000E+00 0.  1.
   -9000007    1    1    2    0  502  0.15151129784E+03  0.20370455394E+03  0.74353176874E+03  0.88164091885E+03  0.40000000000E+03 0.  1.
<mgrwt>
<rscale>  2 0.47277947E+03</rscale>
<asrwt>0</asrwt>
<pdfrwt beam="1">  1       21 0.13205736E+00 0.47376283E+03</pdfrwt>
<pdfrwt beam="2">  1       21 0.19605904E+00 0.47376283E+03</pdfrwt>
<totfact> 0.45544810E+01</totfact>
</mgrwt>
</event>
<event>
 6    1  0.9190795E-004  0.6099162E+03  0.7818608E-02  0.9885091E-01
         21   -1    0    0  503  502  0.00000000000E+00  0.00000000000E+00  0.78136096018E+03  0.78136096018E+03  0.00000000000E+00 0. -1.
         21   -1    0    0  501  503 -0.00000000000E+00 -0.00000000000E+00 -0.71668525741E+03  0.71668525741E+03  0.00000000000E+00 0.  1.
    9000007    2    1    2  501    0  0.39216572339E+03 -0.24125457402E+03 -0.40171392660E+03  0.73024610658E+03  0.39985944188E+03 0.  0.
    9000005    1    3    3    0    0  0.13270000152E+02 -0.16137276179E+03  0.13510829776E+02  0.16248324118E+03  0.99999687468E+00 0.  0.
          4    1    3    3  501    0  0.37889572324E+03 -0.79881812231E+02 -0.41522475637E+03  0.56776286539E+03  0.00000000000E+00 0.  1.
   -9000007    1    1    2    0  502 -0.39216572339E+03  0.24125457402E+03  0.46638962937E+03  0.76780011101E+03  0.40000000000E+03 0. -1.
<mgrwt>
<rscale>  2 0.60989312E+03</rscale>
<asrwt>0</asrwt>
<pdfrwt beam="1">  1       21 0.12020938E+00 0.60991616E+03</pdfrwt>
<pdfrwt beam="2">  1       21 0.11025927E+00 0.60991616E+03</pdfrwt>
<totfact> 0.26367784E+02</totfact>
</mgrwt>
</event>
<event>
 6    1  0.9190795E-004  0.4554839E+03  0.7818608E-02  0.1026135E+00
         21   -1    0    0  503  502  0.00000000000E+00  0.00000000000E+00  0.29113712190E+03  0.29113712190E+03  0.00000000000E+00 0. -1.
         21   -1    0    0  501  503 -0.00000000000E+00 -0.00000000000E+00 -0.78628192968E+03  0.78628192968E+03  0.00000000000E+00 0.  1.
    9000007    2    1    2  501    0 -0.14912693373E+03 -0.15882932564E+03 -0.41321696730E+03  0.61462561160E+03  0.39943808446E+03 0.  0.
    9000005    1    3    3    0    0 -0.45221942894E+02 -0.61172666338E+02  0.74505481408E+02  0.10648561396E+03  0.99999687468E+00 0.  0.
          4    1    3    3  501    0 -0.10390499084E+03 -0.97656659303E+02 -0.48772244871E+03  0.50813999764E+03  0.00000000000E+00 0.  1.
   -9000007    1    1    2    0  502  0.14912693373E+03  0.15882932564E+03 -0.81927840479E+02  0.46279343999E+03  0.40000000000E+03 0. -1.
<mgrwt>
<rscale>  2 0.45536052E+03</rscale>
<asrwt>0</asrwt>
<pdfrwt beam="1">  1       21 0.44790327E-01 0.45548392E+03</pdfrwt>
<pdfrwt beam="2">  1       21 0.12096645E+00 0.45548392E+03</pdfrwt>
<totfact> 0.21294568E+03</totfact>
</mgrwt>
</event>
<event>
 6    1  0.9190795E-004  0.4039935E+03  0.7818608E-02  0.1042538E+00
         21   -1    0    0  503  502  0.00000000000E+00  0.00000000000E+00  0.52901883841E+02  0.52901883841E+02  0.00000000000E+00 0.  1.
         21   -1    0    0  501  503 -0.00000000000E+00 -0.00000000000E+00 -0.31448959549E+04  0.31448959549E+04  0.00000000000E+00 0.  1.
    9000007    2    1    2  501    0  0.52092972325E+02 -0.22294815038E+02 -0.17842415491E+04  0.18290657995E+04  0.39843827230E+03 0.  0.
    9000005    1    3    3    0    0  0.19804037202E+02  0.44252670677E+02 -0.55182496873E+01  0.48805223336E+02  0.99999687468E+00 0.  0.
          4    1    3    3  501    0  0.32288935123E+02 -0.66547485715E+02 -0.17787232994E+04  0.17802605761E+04  0.00000000000E+00 0.  1.
   -9000007    1    1    2    0  502 -0.52092972325E+02  0.22294815038E+02 -0.13077525220E+04  0.13687320393E+04  0.40000000000E+03 0.  1.
<mgrwt>
<rscale>  2 0.40360637E+03</rscale>
<asrwt>0</asrwt>
<pdfrwt beam="1">  1       21 0.81387497E-02 0.40399349E+03</pdfrwt>
<pdfrwt beam="2">  1       21 0.48383024E+00 0.40399349E+03</pdfrwt>
<totfact> 0.22453449E+02</totfact>
</mgrwt>
</event>
<event>
 6    1  0.9190795E-004  0.4526952E+03  0.7818608E-02  0.1026953E+00
         21   -1    0    0  503  502  0.00000000000E+00  0.00000000000E+00  0.24647985925E+03  0.24647985925E+03  0.00000000000E+00 0. -1.
         21   -1    0    0  501  503 -0.00000000000E+00 -0.00000000000E+00 -0.96123017355E+03  0.96123017355E+03  0.00000000000E+00 0. -1.
    9000007    2    1    2  501    0 -0.13680015738E+03 -0.16192180529E+03 -0.57979194590E+03  0.73532595677E+03  0.39951546664E+03 0.  0.
    9000005    1    3    3    0    0 -0.51238769369E+02  0.55724583278E+02 -0.47162327676E+03  0.47766113076E+03  0.99999687468E+00 0.  0.
          4    1    3    3  501    0 -0.85561388015E+02 -0.21764638857E+03 -0.10816866914E+03  0.25766482601E+03  0.00000000000E+00 0.  1.
   -9000007    1    1    2    0  502  0.13680015738E+03  0.16192180529E+03 -0.13495836840E+03  0.47238407604E+03  0.40000000000E+03 0. -1.
<mgrwt>
<rscale>  2 0.45258815E+03</rscale>
<asrwt>0</asrwt>
<pdfrwt beam="1">  1       21 0.37919978E-01 0.45269521E+03</pdfrwt>
<pdfrwt beam="2">  1       21 0.14788157E+00 0.45269521E+03</pdfrwt>
<totfact> 0.17764990E+03</totfact>
</mgrwt>
</event>
<event>
 6    1  0.9190795E-004  0.4339438E+03  0.7818608E-02  0.1032640E+00
         21   -1    0    0  503  502  0.00000000000E+00  0.00000000000E+00  0.22129910817E+03  0.22129910817E+03  0.00000000000E+00 0.  1.
         21   -1    0    0  501  503 -0.00000000000E+00 -0.00000000000E+00 -0.10318634165E+04  0.10318634165E+04  0.00000000000E+00 0.  1.
    9000007    2    1    2  501    0  0.80943393073E+02 -0.14679361699E+03 -0.66809921515E+03  0.79665786792E+03  0.40025866433E+03 0.  0.
    9000005    1    3    3    0    0 -0.74688042089E+02  0.61515996783E+02 -0.44078084675E+03  0.45127738293E+03  0.99999687468E+00 0.  0.
          4    1    3    3  501    0  0.15563143516E+03 -0.20830961377E+03 -0.22731836840E+03  0.34538048499E+03  0.00000000000E+00 0.  1.
   -9000007    1    1    2    0  502 -0.80943393073E+02  0.14679361699E+03 -0.14246509321E+03  0.45650465677E+03  0.40000000000E+03 0.  1.
<mgrwt>
<rscale>  2 0.43388412E+03</rscale>
<asrwt>0</asrwt>
<pdfrwt beam="1">  1       21 0.34046017E-01 0.43394377E+03</pdfrwt>
<pdfrwt beam="2">  1       21 0.15874821E+00 0.43394377E+03</pdfrwt>
<totfact> 0.18349653E+03</totfact>
</mgrwt>
</event>
<event>
 6    1  0.9190795E-004  0.6393245E+03  0.7818608E-02  0.9827357E-01
         21   -1    0    0  503  502  0.00000000000E+00  0.00000000000E+00  0.40056628586E+03  0.40056628586E+03  0.00000000000E+00 0. -1.
         21   -1    0    0  501  503 -0.00000000000E+00 -0.00000000000E+00 -0.10286788489E+04  0.10286788489E+04  0.00000000000E+00 0.  1.
    9000007    2    1    2  501    0 -0.17000852328E+03 -0.46886343766E+03 -0.24555178148E+03  0.68420246969E+03  0.39887532010E+03 0.  0.
    9000005    1    3    3    0    0 -0.20355229821E+03 -0.89929041346E+02  0.15115303713E+02  0.22304762493E+03  0.99999687468E+00 0.  0.
          4    1    3    3  501    0  0.33543774936E+02 -0.37893439632E+03 -0.26066708519E+03  0.46115484477E+03  0.00000000000E+00 0.  1.
   -9000007    1    1    2    0  502  0.17000852328E+03  0.46886343766E+03 -0.38256078151E+03  0.74504266503E+03  0.40000000000E+03 0.  1.
<mgrwt>
<rscale>  2 0.63914867E+03</rscale>
<asrwt>0</asrwt>
<pdfrwt beam="1">  1       21 0.61625583E-01 0.63932450E+03</pdfrwt>
<pdfrwt beam="2">  1       21 0.15825828E+00 0.63932450E+03</pdfrwt>
<totfact> 0.49101161E+02</totfact>
</mgrwt>
</event>
<event>
 6    1  0.9190795E-004  0.4148943E+03  0.7818608E-02  0.1038830E+00
         21   -1    0    0  503  502  0.00000000000E+00  0.00000000000E+00  0.27763036560E+03  0.27763036560E+03  0.00000000000E+00 0.  1.
         21   -1    0    0  501  503 -0.00000000000E+00 -0.00000000000E+00 -0.17581309030E+04  0.17581309030E+04  0.00000000000E+00 0.  1.
    9000007    2    1    2  501    0 -0.98502020205E+01  0.10972797723E+03 -0.15594510314E+04  0.16134220258E+04  0.39888075749E+03 0.  0.
    9000005    1    3    3    0    0 -0.13644193025E+03  0.20347875309E+03 -0.75705394775E+03  0.79570829019E+03  0.99999687468E+00 0.  0.
          4    1    3    3  501    0  0.12659172823E+03 -0.93750775854E+02 -0.80239708364E+03  0.81771373565E+03  0.00000000000E+00 0.  1.
   -9000007    1    1    2    0  502  0.98502020205E+01 -0.10972797723E+03  0.78950493999E+02  0.42233924275E+03  0.40000000000E+03 0.  1.
<mgrwt>
<rscale>  2 0.41462427E+03</rscale>
<asrwt>0</asrwt>
<pdfrwt beam="1">  1       21 0.42712362E-01 0.41489427E+03</pdfrwt>
<pdfrwt beam="2">  1       21 0.27048169E+00 0.41489427E+03</pdfrwt>
<totfact> 0.21541814E+02</totfact>
</mgrwt>
</event>
<event>
 6    1  0.9190795E-004  0.4082437E+03  0.7818608E-02  0.1040996E+00
         21   -1    0    0  503  502  0.00000000000E+00  0.00000000000E+00  0.24289303825E+03  0.24289303825E+03  0.00000000000E+00 0. -1.
         21   -1    0    0  501  503 -0.00000000000E+00 -0.00000000000E+00 -0.85152323863E+03  0.85152323863E+03  0.00000000000E+00 0. -1.
    9000007    2    1    2  501    0 -0.73613040155E+02 -0.35271326971E+02 -0.54583325425E+03  0.68137099772E+03  0.39958672264E+03 0.  0.
    9000005    1    3    3    0    0 -0.23836907460E+03  0.19258592790E+01 -0.33688385607E+03  0.41269269092E+03  0.99999687468E+00 0.  0.
          4    1    3    3  501    0  0.16475603444E+03 -0.37197186250E+02 -0.20894939817E+03  0.26867830681E+03  0.00000000000E+00 0.  1.
   -9000007    1    1    2    0  502  0.73613040155E+02  0.35271326971E+02 -0.62796946138E+02  0.41304527915E+03  0.40000000000E+03 0. -1.
<mgrwt>
<rscale>  2 0.40814247E+03</rscale>
<asrwt>0</asrwt>
<pdfrwt beam="1">  1       21 0.37368160E-01 0.40824373E+03</pdfrwt>
<pdfrwt beam="2">  1       21 0.13100357E+00 0.40824373E+03</pdfrwt>
<totfact> 0.25689961E+03</totfact>
</mgrwt>
</event>
<event>
 6    1  0.9190795E-004  0.5497446E+03  0.7818608E-02  0.1001688E+00
         21   -1    0    0  503  502  0.00000000000E+00  0.00000000000E+00  0.83476757174E+03  0.83476757174E+03  0.00000000000E+00 0. -1.
         21   -1    0    0  501  503 -0.00000000000E+00 -0.00000000000E+00 -0.47338666508E+03  0.47338666508E+03  0.00000000000E+00 0.  1.
    9000007    2    1    2  501    0 -0.22489246352E+03 -0.30272521270E+03  0.49979518686E+03  0.74125240448E+03  0.39678800862E+03 0.  0.
    9000005    1    3    3    0    0  0.73972086747E+02 -0.20007802891E+03  0.11174527790E+03  0.24081340161E+03  0.99999687468E+00 0.  0.
          4    1    3    3  501    0 -0.29886455027E+03 -0.10264718379E+03  0.38804990896E+03  0.50043900287E+03  0.00000000000E+00 0.  1.
   -9000007    1    1    2    0  502  0.22489246352E+03  0.30272521270E+03 -0.13841428020E+03  0.56690183234E+03  0.40000000000E+03 0.  1.
<mgrwt>
<rscale>  2 0.54916055E+03</rscale>
<asrwt>0</asrwt>
<pdfrwt beam="1">  1       21 0.12842578E+00 0.54974464E+03</pdfrwt>
<pdfrwt beam="2">  1       21 0.72828718E-01 0.54974464E+03</pdfrwt>
<totfact> 0.61070013E+02</totfact>
</mgrwt>
</event>
<event>
 6    1  0.9190795E-004  0.4668370E+03  0.7818608E-02  0.1022934E+00
         21   -1    0    0  503  502  0.00000000000E+00  0.00000000000E+00  0.27693582197E+03  0.27693582197E+03  0.00000000000E+00 0. -1.
         21   -1    0    0  501  503 -0.00000000000E+00 -0.00000000000E+00 -0.82456047784E+03  0.82456047784E+03  0.00000000000E+00 0. -1.
    9000007    2    1    2  501    0 -0.64315180515E+01  0.23741856600E+03 -0.39612336630E+03  0.61225036916E+03  0.40190527902E+03 0.  0.
    9000005    1    3    3    0    0  0.57858516828E+02  0.31891640633E+03 -0.39161557040E+03  0.50834932592E+03  0.99999687468E+00 0.  0.
          4    1    3    3  501    0 -0.64290034879E+02 -0.81497840326E+02 -0.45077958989E+01  0.10390104324E+03  0.00000000000E+00 0.  1.
   -9000007    1    1    2    0  502  0.64315180515E+01 -0.23741856600E+03 -0.15150128957E+03  0.48924593064E+03  0.40000000000E+03 0. -1.
<mgrwt>
<rscale>  2 0.46642665E+03</rscale>
<asrwt>0</asrwt>
<pdfrwt beam="1">  1       21 0.42605511E-01 0.46683701E+03</pdfrwt>
<pdfrwt beam="2">  1       21 0.12685546E+00 0.46683701E+03</pdfrwt>
<totfact> 0.20832083E+03</totfact>
</mgrwt>
</event>
<event>
 6    1  0.9190795E-004  0.4048352E+03  0.7818608E-02  0.1042180E+00
         21   -1    0    0  503  502  0.00000000000E+00  0.00000000000E+00  0.44816637259E+03  0.44816637259E+03  0.00000000000E+00 0.  1.
         21   -1    0    0  501  503 -0.00000000000E+00 -0.00000000000E+00 -0.11817138170E+04  0.11817138170E+04  0.00000000000E+00 0.  1.
    9000007    2    1    2  501    0  0.31720636666E+02  0.53715714691E+02 -0.10441470046E+04  0.11196217614E+04  0.39927226852E+03 0.  0.
    9000005    1    3    3    0    0  0.15257804482E+03  0.17158889301E+03 -0.50705965601E+03  0.55662671757E+03  0.99999687468E+00 0.  0.
          4    1    3    3  501    0 -0.12085740816E+03 -0.11787317832E+03 -0.53708734863E+03  0.56299504379E+03  0.00000000000E+00 0.  1.
   -9000007    1    1    2    0  502 -0.31720636666E+02 -0.53715714691E+02  0.31059956021E+03  0.51025842825E+03  0.40000000000E+03 0.  1.
<mgrwt>
<rscale>  2 0.40465537E+03</rscale>
<asrwt>0</asrwt>
<pdfrwt beam="1">  1       21 0.68948674E-01 0.40483525E+03</pdfrwt>
<pdfrwt beam="2">  1       21 0.18180212E+00 0.40483525E+03</pdfrwt>
<totfact> 0.28381893E+02</totfact>
</mgrwt>
</event>
<event>
 6    1  0.9190795E-004  0.5552383E+03  0.7818608E-02  0.1000307E+00
         21   -1    0    0  503  502  0.00000000000E+00  0.00000000000E+00  0.34241415150E+03  0.34241415150E+03  0.00000000000E+00 0.  1.
         21   -1    0    0  501  503 -0.00000000000E+00 -0.00000000000E+00 -0.21236422441E+04  0.21236422441E+04  0.00000000000E+00 0. -1.
    9000007    2    1    2  501    0  0.33528858022E+03 -0.18844560704E+03 -0.18267592184E+04  0.19092770297E+04  0.40044894222E+03 0.  0.
    9000005    1    3    3    0    0  0.16944276413E+03 -0.30502692782E+03 -0.12568309032E+04  0.13043685048E+04  0.99999687468E+00 0.  0.
          4    1    3    3  501    0  0.16584581609E+03  0.11658132079E+03 -0.56992831520E+03  0.60490852493E+03  0.00000000000E+00 0.  1.
   -9000007    1    1    2    0  502 -0.33528858022E+03  0.18844560704E+03  0.45531125827E+02  0.55677936587E+03  0.40000000000E+03 0.  1.
<mgrwt>
<rscale>  2 0.55515733E+03</rscale>
<asrwt>0</asrwt>
<pdfrwt beam="1">  1       21 0.52679099E-01 0.55523827E+03</pdfrwt>
<pdfrwt beam="2">  1       21 0.32671420E+00 0.55523827E+03</pdfrwt>
<totfact> 0.58205035E+01</totfact>
</mgrwt>
</event>
<event>
 6    1  0.9190795E-004  0.4691172E+03  0.7818608E-02  0.1022181E+00
         21   -1    0    0  503  502  0.00000000000E+00  0.00000000000E+00  0.21482919508E+04  0.21482919508E+04  0.00000000000E+00 0. -1.
         21   -1    0    0  501  503 -0.00000000000E+00 -0.00000000000E+00 -0.10256628240E+03  0.10256628240E+03  0.00000000000E+00 0.  1.
    9000007    2    1    2  501    0  0.24053916465E+03 -0.47030561713E+02  0.97816777263E+03  0.10847746923E+04  0.39981618054E+03 0.  0.
    9000005    1    3    3    0    0  0.28949708469E+03  0.10379369616E+03  0.58692870943E+03  0.66262206675E+03  0.99999687468E+00 0.  0.
          4    1    3    3  501    0 -0.48957920037E+02 -0.15082425787E+03  0.39123906320E+03  0.42215262556E+03  0.00000000000E+00 0.  1.
   -9000007    1    1    2    0  502 -0.24053916465E+03  0.47030561713E+02  0.10675578958E+04  0.11660835409E+04  0.40000000000E+03 0.  1.
<mgrwt>
<rscale>  2 0.46907803E+03</rscale>
<asrwt>0</asrwt>
<pdfrwt beam="1">  1       21 0.33050642E+00 0.46911722E+03</pdfrwt>
<pdfrwt beam="2">  1       21 0.15779430E-01 0.46911722E+03</pdfrwt>
<totfact> 0.63823889E+02</totfact>
</mgrwt>
</event>
<event>
 6    1  0.9190795E-004  0.5130831E+03  0.7818608E-02  0.1010594E+00
         21   -1    0    0  503  502  0.00000000000E+00  0.00000000000E+00  0.34567877065E+03  0.34567877065E+03  0.00000000000E+00 0.  1.
         21   -1    0    0  501  503 -0.00000000000E+00 -0.00000000000E+00 -0.85465253568E+03  0.85465253568E+03  0.00000000000E+00 0.  1.
    9000007    2    1    2  501    0  0.21829160678E+03  0.22974528241E+03 -0.45747185989E+03  0.68741165705E+03  0.40350980568E+03 0.  0.
    9000005    1    3    3    0    0 -0.22702319558E+02  0.14861195504E+03  0.14766861678E+02  0.15106279718E+03  0.99999687468E+00 0.  0.
          4    1    3    3  501    0  0.24099392633E+03  0.81133327374E+02 -0.47223872156E+03  0.53634885987E+03  0.00000000000E+00 0.  1.
   -9000007    1    1    2    0  502 -0.21829160678E+03 -0.22974528241E+03 -0.51501905143E+02  0.51291964927E+03  0.40000000000E+03 0.  1.
<mgrwt>
<rscale>  2 0.51239281E+03</rscale>
<asrwt>0</asrwt>
<pdfrwt beam="1">  1       21 0.53181350E-01 0.51308312E+03</pdfrwt>
<pdfrwt beam="2">  1       21 0.13148500E+00 0.51308312E+03</pdfrwt>
<totfact> 0.11673788E+03</totfact>
</mgrwt>
</event>
<event>
 6    1  0.9190795E-004  0.5748815E+03  0.7818608E-02  0.9962321E-01
         21   -1    0    0  503  502  0.00000000000E+00  0.00000000000E+00  0.31794850948E+03  0.31794850948E+03  0.00000000000E+00 0.  1.
         21   -1    0    0  501  503 -0.00000000000E+00 -0.00000000000E+00 -0.10674629530E+04  0.10674629530E+04  0.00000000000E+00 0. -1.
    9000007    2    1    2  501    0  0.35207020416E+03  0.21572035987E+03 -0.24021634865E+03  0.61737939820E+03  0.39110705037E+03 0.  0.
    9000005    1    3    3    0    0  0.22301153859E+03  0.10045472038E+03 -0.33907777668E+03  0.41809094205E+03  0.99999687468E+00 0.  0.
          4    1    3    3  501    0  0.12905866557E+03  0.11526563949E+03  0.98861428031E+02  0.19928845616E+03  0.00000000000E+00 0.  1.
   -9000007    1    1    2    0  502 -0.35207020416E+03 -0.21572035987E+03 -0.50929809487E+03  0.76803206428E+03  0.40000000000E+03 0. -1.
<mgrwt>
<rscale>  2 0.57333731E+03</rscale>
<asrwt>0</asrwt>
<pdfrwt beam="1">  1       21 0.48915155E-01 0.57488147E+03</pdfrwt>
<pdfrwt beam="2">  1       21 0.16422507E+00 0.57488147E+03</pdfrwt>
<totfact> 0.74645228E+02</totfact>
</mgrwt>
</event>
<event>
 6    1  0.9190795E-004  0.4214718E+03  0.7818608E-02  0.1036651E+00
         21   -1    0    0  503  502  0.00000000000E+00  0.00000000000E+00  0.26808212543E+03  0.26808212543E+03  0.00000000000E+00 0. -1.
         21   -1    0    0  501  503 -0.00000000000E+00 -0.00000000000E+00 -0.14114600880E+04  0.14114600880E+04  0.00000000000E+00 0. -1.
    9000007    2    1    2  501    0  0.11162731763E+03  0.67278053509E+02 -0.11841039451E+04  0.12568773342E+04  0.40081353001E+03 0.  0.
    9000005    1    3    3    0    0  0.24519488949E+03  0.10263756137E+03 -0.59316501935E+03  0.65000057155E+03  0.99999687468E+00 0.  0.
          4    1    3    3  501    0 -0.13356757186E+03 -0.35359507863E+02 -0.59093892577E+03  0.60687676265E+03  0.00000000000E+00 0.  1.
   -9000007    1    1    2    0  502 -0.11162731763E+03 -0.67278053509E+02  0.40725982501E+02  0.42266487928E+03  0.40000000000E+03 0. -1.
<mgrwt>
<rscale>  2 0.42127827E+03</rscale>
<asrwt>0</asrwt>
<pdfrwt beam="1">  1       21 0.41243403E-01 0.42147180E+03</pdfrwt>
<pdfrwt beam="2">  1       21 0.21714771E+00 0.42147180E+03</pdfrwt>
<totfact> 0.49283035E+02</totfact>
</mgrwt>
</event>
<event>
 6    1  0.9190795E-004  0.4925041E+03  0.7818608E-02  0.1015792E+00
         21   -1    0    0  503  502  0.00000000000E+00  0.00000000000E+00  0.19354016199E+03  0.19354016199E+03  0.00000000000E+00 0. -1.
         21   -1    0    0  501  503 -0.00000000000E+00 -0.00000000000E+00 -0.12630767306E+04  0.12630767306E+04  0.00000000000E+00 0.  1.
    9000007    2    1    2  501    0  0.21116262314E+03  0.19342649525E+03 -0.46638573603E+03  0.67828894802E+03  0.40069537027E+03 0.  0.
    9000005    1    3    3    0    0  0.29938908049E+03  0.21164579776E+03 -0.24963229888E+03  0.44355952234E+03  0.99999687468E+00 0.  0.
          4    1    3    3  501    0 -0.88226457350E+02 -0.18219302511E+02 -0.21675343715E+03  0.23472942567E+03  0.00000000000E+00 0.  1.
   -9000007    1    1    2    0  502 -0.21116262314E+03 -0.19342649525E+03 -0.60315083258E+03  0.77832794458E+03  0.40000000000E+03 0.  1.
<mgrwt>
<rscale>  2 0.49236260E+03</rscale>
<asrwt>0</asrwt>
<pdfrwt beam="1">  1       21 0.29775409E-01 0.49250405E+03</pdfrwt>
<pdfrwt beam="2">  1       21 0.19431950E+00 0.49250405E+03</pdfrwt>
<totfact> 0.13040859E+03</totfact>
</mgrwt>
</event>
<event>
 6    1  0.9190795E-004  0.4982639E+03  0.7818608E-02  0.1014242E+00
         21   -1    0    0  503  502  0.00000000000E+00  0.00000000000E+00  0.39584604843E+03  0.39584604843E+03  0.00000000000E+00 0.  1.
         21   -1    0    0  501  503 -0.00000000000E+00 -0.00000000000E+00 -0.68000761600E+03  0.68000761600E+03  0.00000000000E+00 0.  1.
    9000007    2    1    2  501    0 -0.15374246229E+03  0.25394790690E+03  0.80847935221E+01  0.49832944874E+03  0.40017570074E+03 0.  0.
    9000005    1    3    3    0    0 -0.79252257191E+01 -0.10226339930E+03 -0.40688250221E+02  0.11035010529E+03  0.99999687468E+00 0.  0.
          4    1    3    3  501    0 -0.14581723657E+03  0.35621130620E+03  0.48773043743E+02  0.38797934345E+03  0.00000000000E+00 0.  1.
   -9000007    1    1    2    0  502  0.15374246229E+03 -0.25394790690E+03 -0.29224636109E+03  0.57752421568E+03  0.40000000000E+03 0.  1.
<mgrwt>
<rscale>  2 0.49822858E+03</rscale>
<asrwt>0</asrwt>
<pdfrwt beam="1">  1       21 0.60899393E-01 0.49826386E+03</pdfrwt>
<pdfrwt beam="2">  1       21 0.10461656E+00 0.49826386E+03</pdfrwt>
<totfact> 0.15590106E+03</totfact>
</mgrwt>
</event>
<event>
 6    1  0.9190795E-004  0.4680938E+03  0.7818608E-02  0.1022591E+00
         21   -1    0    0  503  502  0.00000000000E+00  0.00000000000E+00  0.22412360317E+03  0.22412360317E+03  0.00000000000E+00 0.  1.
         21   -1    0    0  501  503 -0.00000000000E+00 -0.00000000000E+00 -0.13199663533E+04  0.13199663533E+04  0.00000000000E+00 0.  1.
    9000007    2    1    2  501    0  0.22408190936E+03 -0.84681305197E+02 -0.94410288521E+03  0.10537751472E+04  0.40215441993E+03 0.  0.
    9000005    1    3    3    0    0 -0.29889447868E+02  0.12409101062E+03 -0.37992632571E+03  0.40079542285E+03  0.99999687468E+00 0.  0.
          4    1    3    3  501    0  0.25397135722E+03 -0.20877231582E+03 -0.56417655949E+03  0.65297972436E+03  0.00000000000E+00 0.  1.
   -9000007    1    1    2    0  502 -0.22408190936E+03  0.84681305197E+02 -0.15173986489E+03  0.49031480923E+03  0.40000000000E+03 0.  1.
<mgrwt>
<rscale>  2 0.46763070E+03</rscale>
<asrwt>0</asrwt>
<pdfrwt beam="1">  1       21 0.34480555E-01 0.46809380E+03</pdfrwt>
<pdfrwt beam="2">  1       21 0.20307174E+00 0.46809380E+03</pdfrwt>
<totfact> 0.85775795E+02</totfact>
</mgrwt>
</event>
<event>
 6    1  0.9190795E-004  0.6175151E+03  0.7818608E-02  0.9872804E-01
         21   -1    0    0  503  502  0.00000000000E+00  0.00000000000E+00  0.16492375381E+04  0.16492375381E+04  0.00000000000E+00 0. -1.
         21   -1    0    0  501  503 -0.00000000000E+00 -0.00000000000E+00 -0.23013910728E+03  0.23013910728E+03  0.00000000000E+00 0.  1.
    9000007    2    1    2  501    0  0.22560385522E+03  0.40359640768E+03  0.78141017483E+03  0.99595518787E+03  0.40931371237E+03 0.  0.
    9000005    1    3    3    0    0 -0.31872568870E+02 -0.13083732282E+02  0.32383155281E+03  0.32566074263E+03  0.99999687468E+00 0.  0.
          4    1    3    3  501    0  0.25747642409E+03  0.41668013996E+03  0.45757862202E+03  0.67029444524E+03  0.00000000000E+00 0.  1.
   -9000007    1    1    2    0  502 -0.22560385522E+03 -0.40359640768E+03  0.63768825600E+03  0.88342145753E+03  0.40000000000E+03 0.  1.
<mgrwt>
<rscale>  2 0.61597590E+03</rscale>
<asrwt>0</asrwt>
<pdfrwt beam="1">  1       21 0.25372884E+00 0.61751508E+03</pdfrwt>
<pdfrwt beam="2">  1       21 0.35406018E-01 0.61751508E+03</pdfrwt>
<totfact> 0.36297111E+02</totfact>
</mgrwt>
</event>
<event>
 6    1  0.9190795E-004  0.4658529E+03  0.7818608E-02  0.1023209E+00
         21   -1    0    0  503  502  0.00000000000E+00  0.00000000000E+00  0.70126152500E+03  0.70126152500E+03  0.00000000000E+00 0. -1.
         21   -1    0    0  501  503 -0.00000000000E+00 -0.00000000000E+00 -0.30877844643E+03  0.30877844643E+03  0.00000000000E+00 0.  1.
    9000007    2    1    2  501    0  0.21034118052E+03  0.11302867092E+03  0.17901130747E+03  0.49760549783E+03  0.39817997262E+03 0.  0.
    9000005    1    3    3    0    0  0.17339958560E+03  0.56299461758E+02  0.30456622614E+03  0.35496285972E+03  0.99999687468E+00 0.  0.
          4    1    3    3  501    0  0.36941594921E+02  0.56729209159E+02 -0.12555491866E+03  0.14264263811E+03  0.00000000000E+00 0.  1.
   -9000007    1    1    2    0  502 -0.21034118052E+03 -0.11302867092E+03  0.21347177110E+03  0.51243447360E+03  0.40000000000E+03 0. -1.
<mgrwt>
<rscale>  2 0.46546192E+03</rscale>
<asrwt>0</asrwt>
<pdfrwt beam="1">  1       21 0.10788639E+00 0.46585287E+03</pdfrwt>
<pdfrwt beam="2">  1       21 0.47504376E-01 0.46585287E+03</pdfrwt>
<totfact> 0.24967237E+03</totfact>
</mgrwt>
</event>
<event>
 6    1  0.9190795E-004  0.4269242E+03  0.7818608E-02  0.1034945E+00
         21   -1    0    0  503  502  0.00000000000E+00  0.00000000000E+00  0.13357392741E+04  0.13357392741E+04  0.00000000000E+00 0. -1.
         21   -1    0    0  501  503 -0.00000000000E+00 -0.00000000000E+00 -0.19330182327E+03  0.19330182327E+03  0.00000000000E+00 0. -1.
    9000007    2    1    2  501    0  0.75772990224E+02 -0.12391577809E+03  0.15566670526E+03  0.45441875886E+03  0.40145687088E+03 0.  0.
    9000005    1    3    3    0    0  0.24133493560E+03 -0.63039282727E+02  0.75123871633E+02  0.26050162838E+03  0.99999687468E+00 0.  0.
          4    1    3    3  501    0 -0.16556194538E+03 -0.60876495362E+02  0.80542833626E+02  0.19391713048E+03  0.00000000000E+00 0.  1.
   -9000007    1    1    2    0  502 -0.75772990224E+02  0.12391577809E+03  0.98677074559E+03  0.10746223385E+04  0.40000000000E+03 0. -1.
<mgrwt>
<rscale>  2 0.42658138E+03</rscale>
<asrwt>0</asrwt>
<pdfrwt beam="1">  1       21 0.20549834E+00 0.42692421E+03</pdfrwt>
<pdfrwt beam="2">  1       21 0.29738743E-01 0.42692421E+03</pdfrwt>
<totfact> 0.11332273E+03</totfact>
</mgrwt>
</event>
<event>
 6    1  0.9190795E-004  0.6621381E+03  0.7818608E-02  0.9784328E-01
         21   -1    0    0  503  502  0.00000000000E+00  0.00000000000E+00  0.17536828824E+04  0.17536828824E+04  0.00000000000E+00 0. -1.
         21   -1    0    0  501  503 -0.00000000000E+00 -0.00000000000E+00 -0.13769347083E+04  0.13769347083E+04  0.00000000000E+00 0.  1.
    9000007    2    1    2  501    0  0.43643449731E+03 -0.29656664640E+03 -0.12277553818E+04  0.13948588208E+04  0.39977619517E+03 0.  0.
    9000005    1    3    3    0    0  0.25293348234E+03 -0.39555548142E+02 -0.21598009238E+03  0.33494535102E+03  0.99999687468E+00 0.  0.
          4    1    3    3  501    0  0.18350101497E+03 -0.25701109825E+03 -0.10117752894E+04  0.10599134698E+04  0.00000000000E+00 0.  1.
   -9000007    1    1    2    0  502 -0.43643449731E+03  0.29656664640E+03  0.16045035559E+04  0.17357587698E+04  0.40000000000E+03 0. -1.
<mgrwt>
<rscale>  2 0.66210429E+03</rscale>
<asrwt>0</asrwt>
<pdfrwt beam="1">  1       21 0.26979737E+00 0.66213809E+03</pdfrwt>
<pdfrwt beam="2">  1       21 0.21183611E+00 0.66213809E+03</pdfrwt>
<totfact> 0.35686507E+00</totfact>
</mgrwt>
</event>
<event>
 6    1  0.9190795E-004  0.5452299E+03  0.7818608E-02  0.1002607E+00
         21   -1    0    0  503  502  0.00000000000E+00  0.00000000000E+00  0.44890836602E+03  0.44890836602E+03  0.00000000000E+00 0.  1.
         21   -1    0    0  501  503 -0.00000000000E+00 -0.00000000000E+00 -0.10324724979E+04  0.10324724979E+04  0.00000000000E+00 0.  1.
    9000007    2    1    2  501    0  0.37046717591E+03  0.54553924495E+01 -0.73536500005E+03  0.91541337955E+03  0.39993034698E+03 0.  0.
    9000005    1    3    3    0    0  0.18575369964E+03  0.19721395296E+03 -0.29264502009E+03  0.39879805409E+03  0.99999687468E+00 0.  0.
          4    1    3    3  501    0  0.18471347627E+03 -0.19175856051E+03 -0.44271997996E+03  0.51661532546E+03  0.00000000000E+00 0.  1.
   -9000007    1    1    2    0  502 -0.37046717591E+03 -0.54553924495E+01  0.15180086821E+03  0.56596748433E+03  0.40000000000E+03 0.  1.
<mgrwt>
<rscale>  2 0.54521717E+03</rscale>
<asrwt>0</asrwt>
<pdfrwt beam="1">  1       21 0.69062826E-01 0.54522994E+03</pdfrwt>
<pdfrwt beam="2">  1       21 0.15884192E+00 0.54522994E+03</pdfrwt>
<totfact> 0.38930276E+02</totfact>
</mgrwt>
</event>
<event>
 6    1  0.9190795E-004  0.4301774E+03  0.7818608E-02  0.1033818E+00
         21   -1    0    0  503  502  0.00000000000E+00  0.00000000000E+00  0.46714588585E+03  0.46714588585E+03  0.00000000000E+00 0.  1.
         21   -1    0    0  501  503 -0.00000000000E+00 -0.00000000000E+00 -0.53536428140E+03  0.53536428140E+03  0.00000000000E+00 0.  1.
    9000007    2    1    2  501    0 -0.11617229220E+03  0.10677034330E+03 -0.28989157736E+03  0.51873862279E+03  0.40019585763E+03 0.  0.
    9000005    1    3    3    0    0  0.10537738628E+03 -0.44890555709E+02  0.11478269996E+02  0.11511866142E+03  0.99999687468E+00 0.  0.
          4    1    3    3  501    0 -0.22154967848E+03  0.15166089901E+03 -0.30136984736E+03  0.40361996138E+03  0.00000000000E+00 0.  1.
   -9000007    1    1    2    0  502  0.11617229220E+03 -0.10677034330E+03  0.22167318181E+03  0.48377154445E+03  0.40000000000E+03 0.  1.
<mgrwt>
<rscale>  2 0.43013189E+03</rscale>
<asrwt>0</asrwt>
<pdfrwt beam="1">  1       21 0.71868598E-01 0.43017744E+03</pdfrwt>
<pdfrwt beam="2">  1       21 0.82363735E-01 0.43017744E+03</pdfrwt>
<totfact> 0.19569553E+03</totfact>
</mgrwt>
</event>
<event>
 6    1  0.9190795E-004  0.4037295E+03  0.7818608E-02  0.1042649E+00
         21   -1    0    0  503  502  0.00000000000E+00  0.00000000000E+00  0.44556110630E+03  0.44556110630E+03  0.00000000000E+00 0.  1.
         21   -1    0    0  501  503 -0.00000000000E+00 -0.00000000000E+00 -0.13815403136E+04  0.13815403136E+04  0.00000000000E+00 0.  1.
    9000007    2    1    2  501    0  0.24281230391E+02 -0.49070640264E+02 -0.12516537040E+04  0.13146095724E+04  0.39820073716E+03 0.  0.
    9000005    1    3    3    0    0  0.96311627564E+02 -0.14414018538E+03 -0.24062740158E+03  0.29657186149E+03  0.99999687468E+00 0.  0.
          4    1    3    3  501    0 -0.72030397173E+02  0.95069545112E+02 -0.10110263024E+04  0.10180377109E+04  0.00000000000E+00 0.  1.
   -9000007    1    1    2    0  502 -0.24281230391E+02  0.49070640264E+02  0.31567449673E+03  0.51249184752E+03  0.40000000000E+03 0.  1.
<mgrwt>
<rscale>  2 0.40328311E+03</rscale>
<asrwt>0</asrwt>
<pdfrwt beam="1">  1       21 0.68547864E-01 0.40372950E+03</pdfrwt>
<pdfrwt beam="2">  1       21 0.21254466E+00 0.40372950E+03</pdfrwt>
<totfact> 0.17912450E+02</totfact>
</mgrwt>
</event>
<event>
 6    1  0.9190795E-004  0.4533347E+03  0.7818608E-02  0.1026809E+00
         21   -1    0    0  503  502  0.00000000000E+00  0.00000000000E+00  0.43255836569E+03  0.43255836569E+03  0.00000000000E+00 0. -1.
         21   -1    0    0  501  503 -0.00000000000E+00 -0.00000000000E+00 -0.74466965082E+03  0.74466965082E+03  0.00000000000E+00 0. -1.
    9000007    2    1    2  501    0 -0.20933117099E+03 -0.27421481699E+02 -0.51102521652E+03  0.68312455680E+03  0.40117441515E+03 0.  0.
    9000005    1    3    3    0    0 -0.80284505618E+02  0.14786926571E+03 -0.40994031173E+03  0.44312862778E+03  0.99999687468E+00 0.  0.
          4    1    3    3  501    0 -0.12904666537E+03 -0.17529074740E+03 -0.10108490479E+03  0.23999592902E+03  0.00000000000E+00 0.  1.
   -9000007    1    1    2    0  502  0.20933117099E+03  0.27421481699E+02  0.19891393139E+03  0.49410345972E+03  0.40000000000E+03 0. -1.
<mgrwt>
<rscale>  2 0.45307478E+03</rscale>
<asrwt>0</asrwt>
<pdfrwt beam="1">  1       21 0.66547442E-01 0.45333474E+03</pdfrwt>
<pdfrwt beam="2">  1       21 0.11456456E+00 0.45333474E+03</pdfrwt>
<totfact> 0.10397846E+03</totfact>
</mgrwt>
</event>
<event>
 6    1  0.9190795E-004  0.5084423E+03  0.7818608E-02  0.1011604E+00
         21   -1    0    0  503  502  0.00000000000E+00  0.00000000000E+00  0.81409550518E+03  0.81409550518E+03  0.00000000000E+00 0.  1.
         21   -1    0    0  501  503 -0.00000000000E+00 -0.00000000000E+00 -0.32531388349E+03  0.32531388349E+03  0.00000000000E+00 0. -1.
    9000007    2    1    2  501    0  0.23973048951E+03 -0.20237997129E+03  0.15608617975E+03  0.53186135150E+03  0.40010653748E+03 0.  0.
    9000005    1    3    3    0    0  0.31912536853E+03 -0.14400959829E+03  0.22084152086E+03  0.41394654555E+03  0.99999687468E+00 0.  0.
          4    1    3    3  501    0 -0.79394879027E+02 -0.58370372997E+02 -0.64755341114E+02  0.11791480595E+03  0.00000000000E+00 0.  1.
   -9000007    1    1    2    0  502 -0.23973048951E+03  0.20237997129E+03  0.33269544195E+03  0.60754803717E+03  0.40000000000E+03 0. -1.
<mgrwt>
<rscale>  2 0.50842137E+03</rscale>
<asrwt>0</asrwt>
<pdfrwt beam="1">  1       21 0.12524546E+00 0.50844233E+03</pdfrwt>
<pdfrwt beam="2">  1       21 0.50048290E-01 0.50844233E+03</pdfrwt>
<totfact> 0.15110128E+03</totfact>
</mgrwt>
</event>
<event>
 6    1  0.9190795E-004  0.4764544E+03  0.7818608E-02  0.1020120E+00
         21   -1    0    0  503  502  0.00000000000E+00  0.00000000000E+00  0.11932704564E+04  0.11932704564E+04  0.00000000000E+00 0. -1.
         21   -1    0    0  501  503 -0.00000000000E+00 -0.00000000000E+00 -0.19061796591E+03  0.19061796591E+03  0.00000000000E+00 0.  1.
    9000007    2    1    2  501    0 -0.11970382518E+02 -0.25858370894E+03  0.53345492399E+03  0.71519179379E+03  0.39989538805E+03 0.  0.
    9000005    1    3    3    0    0 -0.12163017711E+03 -0.21240223409E+03  0.54320756181E+03  0.59580539124E+03  0.99999687468E+00 0.  0.
          4    1    3    3  501    0  0.10965979459E+03 -0.46181474849E+02 -0.97526378182E+01  0.11938640255E+03  0.00000000000E+00 0.  1.
   -9000007    1    1    2    0  502  0.11970382518E+02  0.25858370894E+03  0.46919756648E+03  0.66869662851E+03  0.40000000000E+03 0. -1.
<mgrwt>
<rscale>  2 0.47643247E+03</rscale>
<asrwt>0</asrwt>
<pdfrwt beam="1">  1       21 0.18358007E+00 0.47645443E+03</pdfrwt>
<pdfrwt beam="2">  1       21 0.29325842E-01 0.47645443E+03</pdfrwt>
<totfact> 0.16039356E+03</totfact>
</mgrwt>
</event>
<event>
 6    1  0.9190795E-004  0.4111098E+03  0.7818608E-02  0.1040065E+00
         21   -1    0    0  503  502  0.00000000000E+00  0.00000000000E+00  0.12156269803E+03  0.12156269803E+03  0.00000000000E+00 0.  1.
         21   -1    0    0  501  503 -0.00000000000E+00 -0.00000000000E+00 -0.14382412882E+04  0.14382412882E+04  0.00000000000E+00 0.  1.
    9000007    2    1    2  501    0 -0.60020422072E+02  0.73544584549E+02 -0.80397255791E+03  0.90262917502E+03  0.39919456001E+03 0.  0.
    9000005    1    3    3    0    0  0.49431778177E+01 -0.39060638213E+02 -0.76625619061E+03  0.76726769650E+03  0.99999687468E+00 0.  0.
          4    1    3    3  501    0 -0.64963599889E+02  0.11260522276E+03 -0.37716367308E+02  0.13536147852E+03  0.00000000000E+00 0.  1.
   -9000007    1    1    2    0  502  0.60020422072E+02 -0.73544584549E+02 -0.51270603226E+03  0.65717481121E+03  0.40000000000E+03 0.  1.
<mgrwt>
<rscale>  2 0.41091374E+03</rscale>
<asrwt>0</asrwt>
<pdfrwt beam="1">  1       21 0.18701953E-01 0.41110979E+03</pdfrwt>
<pdfrwt beam="2">  1       21 0.22126790E+00 0.41110979E+03</pdfrwt>
<totfact> 0.22135176E+03</totfact>
</mgrwt>
</event>
<event>
 6    1  0.9190795E-004  0.4261906E+03  0.7818608E-02  0.1035074E+00
         21   -1    0    0  503  502  0.00000000000E+00  0.00000000000E+00  0.13648743154E+04  0.13648743154E+04  0.00000000000E+00 0. -1.
         21   -1    0    0  501  503 -0.00000000000E+00 -0.00000000000E+00 -0.15028597020E+03  0.15028597020E+03  0.00000000000E+00 0. -1.
    9000007    2    1    2  501    0  0.57911368565E+02 -0.13522108698E+03  0.86370565420E+03  0.96311216105E+03  0.39994888260E+03 0.  0.
    9000005    1    3    3    0    0  0.13116866078E+03  0.13175346322E+02  0.75194934961E+03  0.76341838575E+03  0.99999687468E+00 0.  0.
          4    1    3    3  501    0 -0.73257292215E+02 -0.14839643330E+03  0.11175630459E+03  0.19969377530E+03  0.00000000000E+00 0.  1.
   -9000007    1    1    2    0  502 -0.57911368565E+02  0.13522108698E+03  0.35088269098E+03  0.55204812453E+03  0.40000000000E+03 0. -1.
<mgrwt>
<rscale>  2 0.42617865E+03</rscale>
<asrwt>0</asrwt>
<pdfrwt beam="1">  1       21 0.20998066E+00 0.42619065E+03</pdfrwt>
<pdfrwt beam="2">  1       21 0.23120919E-01 0.42619065E+03</pdfrwt>
<totfact> 0.17332114E+03</totfact>
</mgrwt>
</event>
<event>
 6    1  0.9190795E-004  0.4572722E+03  0.7818608E-02  0.1025645E+00
         21   -1    0    0  503  502  0.00000000000E+00  0.00000000000E+00  0.54685258135E+03  0.54685258135E+03  0.00000000000E+00 0.  1.
         21   -1    0    0  501  503 -0.00000000000E+00 -0.00000000000E+00 -0.50894629080E+03  0.50894629080E+03  0.00000000000E+00 0.  1.
    9000007    2    1    2  501    0 -0.13619899438E+03 -0.17225569317E+03 -0.24513166176E+03  0.51883269785E+03  0.40109306509E+03 0.  0.
    9000005    1    3    3    0    0 -0.17409033265E+03  0.85196864255E+02 -0.13531836723E+03  0.23638530011E+03  0.99999687468E+00 0.  0.
          4    1    3    3  501    0  0.37891338275E+02 -0.25745255742E+03 -0.10981329453E+03  0.28244739775E+03  0.00000000000E+00 0.  1.
   -9000007    1    1    2    0  502  0.13619899438E+03  0.17225569317E+03  0.28303795231E+03  0.53696617430E+03  0.40000000000E+03 0.  1.
<mgrwt>
<rscale>  2 0.45703236E+03</rscale>
<asrwt>0</asrwt>
<pdfrwt beam="1">  1       21 0.84131166E-01 0.45727217E+03</pdfrwt>
<pdfrwt beam="2">  1       21 0.78299429E-01 0.45727217E+03</pdfrwt>
<totfact> 0.15158591E+03</totfact>
</mgrwt>
</event>
<event>
 6    1  0.9190795E-004  0.6231491E+03  0.7818608E-02  0.9858791E-01
         21   -1    0    0  503  502  0.00000000000E+00  0.00000000000E+00  0.78508098459E+03  0.78508098459E+03  0.00000000000E+00 0. -1.
         21   -1    0    0  501  503 -0.00000000000E+00 -0.00000000000E+00 -0.49914393156E+03  0.49914393156E+03  0.00000000000E+00 0.  1.
    9000007    2    1    2  501    0 -0.38770311868E+03  0.27928667324E+03  0.20702847713E+03  0.65609967590E+03  0.39911306704E+03 0.  0.
    9000005    1    3    3    0    0 -0.10920323869E+02 -0.76170178877E+02 -0.34777060632E+02  0.84448762948E+02  0.99999687468E+00 0.  0.
          4    1    3    3  501    0 -0.37678279481E+03  0.35545685212E+03  0.24180553777E+03  0.57165091295E+03  0.00000000000E+00 0.  1.
   -9000007    1    1    2    0  502  0.38770311868E+03 -0.27928667324E+03  0.78908575898E+02  0.62812524025E+03  0.40000000000E+03 0.  1.
<mgrwt>
<rscale>  2 0.62300678E+03</rscale>
<asrwt>0</asrwt>
<pdfrwt beam="1">  1       21 0.12078169E+00 0.62314906E+03</pdfrwt>
<pdfrwt beam="2">  1       21 0.76791374E-01 0.62314906E+03</pdfrwt>
<totfact> 0.61863509E+02</totfact>
</mgrwt>
</event>
<event>
 6    1  0.9190795E-004  0.5193058E+03  0.7818608E-02  0.1008867E+00
         21   -1    0    0  503  502  0.00000000000E+00  0.00000000000E+00  0.81728050230E+03  0.81728050230E+03  0.00000000000E+00 0. -1.
         21   -1    0    0  501  503 -0.00000000000E+00 -0.00000000000E+00 -0.44231649276E+03  0.44231649276E+03  0.00000000000E+00 0.  1.
    9000007    2    1    2  501    0  0.27324188184E+03 -0.18712930714E+03  0.50498095733E+03  0.72426260396E+03  0.39984002882E+03 0.  0.
    9000005    1    3    3    0    0  0.31302758872E+03 -0.98672019883E+02  0.53063307700E+03  0.62393501361E+03  0.99999687468E+00 0.  0.
          4    1    3    3  501    0 -0.39785706884E+02 -0.88457287256E+02 -0.25652119675E+02  0.10032759035E+03  0.00000000000E+00 0.  1.
   -9000007    1    1    2    0  502 -0.27324188184E+03  0.18712930714E+03 -0.13001694779E+03  0.53533439110E+03  0.40000000000E+03 0.  1.
<mgrwt>
<rscale>  2 0.51927499E+03</rscale>
<asrwt>0</asrwt>
<pdfrwt beam="1">  1       21 0.12573546E+00 0.51930579E+03</pdfrwt>
<pdfrwt beam="2">  1       21 0.68048691E-01 0.51930579E+03</pdfrwt>
<totfact> 0.76069387E+02</totfact>
</mgrwt>
</event>
<event>
 6    1  0.9190795E-004  0.5366992E+03  0.7818608E-02  0.1004634E+00
         21   -1    0    0  503  502  0.00000000000E+00  0.00000000000E+00  0.90501381164E+03  0.90501381164E+03  0.00000000000E+00 0. -1.
         21   -1    0    0  501  503 -0.00000000000E+00 -0.00000000000E+00 -0.39993934966E+03  0.39993934966E+03  0.00000000000E+00 0.  1.
    9000007    2    1    2  501    0 -0.35408186971E+03 -0.51691925660E+02 -0.42584844939E+02  0.53815674628E+03  0.39969136707E+03 0.  0.
    9000005    1    3    3    0    0  0.64465186871E+02  0.70888648086E+02 -0.34840777100E+02  0.10195999455E+03  0.99999687468E+00 0.  0.
          4    1    3    3  501    0 -0.41854705658E+03 -0.12258057375E+03 -0.77440678384E+01  0.43619675173E+03  0.00000000000E+00 0.  1.
   -9000007    1    1    2    0  502  0.35408186971E+03  0.51691925660E+02  0.54765930691E+03  0.76679641502E+03  0.40000000000E+03 0. -1.
<mgrwt>
<rscale>  2 0.53664169E+03</rscale>
<asrwt>0</asrwt>
<pdfrwt beam="1">  1       21 0.13923289E+00 0.53669919E+03</pdfrwt>
<pdfrwt beam="2">  1       21 0.61529131E-01 0.53669919E+03</pdfrwt>
<totfact> 0.72414306E+02</totfact>
</mgrwt>
</event>
<event>
 6    1  0.9190795E-004  0.4354799E+03  0.7818608E-02  0.1032177E+00
         21   -1    0    0  503  502  0.00000000000E+00  0.00000000000E+00  0.33353354075E+03  0.33353354075E+03  0.00000000000E+00 0.  1.
         21   -1    0    0  501  503 -0.00000000000E+00 -0.00000000000E+00 -0.64016477807E+03  0.64016477807E+03  0.00000000000E+00 0. -1.
    9000007    2    1    2  501    0  0.15664857772E+03  0.68712788985E+02  0.10060706263E+02  0.43559608745E+03  0.40047785122E+03 0.  0.
    9000005    1    3    3    0    0  0.15790442617E+03  0.12424813467E+03  0.17193826505E+03  0.26445259264E+03  0.99999687468E+00 0.  0.
          4    1    3    3  501    0 -0.12558484477E+01 -0.55535345690E+02 -0.16187755879E+03  0.17114349481E+03  0.00000000000E+00 0.  1.
   -9000007    1    1    2    0  502 -0.15664857772E+03 -0.68712788985E+02 -0.31669194358E+03  0.53810223137E+03  0.40000000000E+03 0. -1.
<mgrwt>
<rscale>  2 0.43537000E+03</rscale>
<asrwt>0</asrwt>
<pdfrwt beam="1">  1       21 0.51312853E-01 0.43547989E+03</pdfrwt>
<pdfrwt beam="2">  1       21 0.98486888E-01 0.43547989E+03</pdfrwt>
<totfact> 0.26795829E+03</totfact>
</mgrwt>
</event>
<event>
 6    1  0.9190795E-004  0.4227521E+03  0.7818608E-02  0.1036251E+00
         21   -1    0    0  503  502  0.00000000000E+00  0.00000000000E+00  0.78843849515E+03  0.78843849515E+03  0.00000000000E+00 0. -1.
         21   -1    0    0  501  503 -0.00000000000E+00 -0.00000000000E+00 -0.86025081356E+03  0.86025081356E+03  0.00000000000E+00 0. -1.
    9000007    2    1    2  501    0  0.96047240976E+02  0.93221251011E+02 -0.74365113873E+03  0.85541591659E+03  0.40100386542E+03 0.  0.
    9000005    1    3    3    0    0  0.16822154990E+02  0.22797267834E+03 -0.25543788686E+03  0.34278862439E+03  0.99999687468E+00 0.  0.
          4    1    3    3  501    0  0.79225085986E+02 -0.13475142733E+03 -0.48821325187E+03  0.51262729221E+03  0.00000000000E+00 0.  1.
   -9000007    1    1    2    0  502 -0.96047240976E+02 -0.93221251011E+02  0.67183882032E+03  0.79327339211E+03  0.40000000000E+03 0. -1.
<mgrwt>
<rscale>  2 0.42251392E+03</rscale>
<asrwt>0</asrwt>
<pdfrwt beam="1">  1       21 0.12129823E+00 0.42275214E+03</pdfrwt>
<pdfrwt beam="2">  1       21 0.13234628E+00 0.42275214E+03</pdfrwt>
<totfact> 0.17555377E+02</totfact>
</mgrwt>
</event>
<event>
 6    1  0.9190795E-004  0.4494606E+03  0.7818608E-02  0.1027920E+00
         21   -1    0    0  503  502  0.00000000000E+00  0.00000000000E+00  0.84092431064E+03  0.84092431064E+03  0.00000000000E+00 0.  1.
         21   -1    0    0  501  503 -0.00000000000E+00 -0.00000000000E+00 -0.24038090755E+03  0.24038090755E+03  0.00000000000E+00 0. -1.
    9000007    2    1    2  501    0  0.59957078865E+02 -0.19487093640E+03  0.32293520188E+03  0.55344553367E+03  0.40055621449E+03 0.  0.
    9000005    1    3    3    0    0 -0.99982173247E+02 -0.32745521665E+02 -0.49986679889E+02  0.11648335639E+03  0.99999687468E+00 0.  0.
          4    1    3    3  501    0  0.15993925211E+03 -0.16212541474E+03  0.37292188177E+03  0.43696217728E+03  0.00000000000E+00 0.  1.
   -9000007    1    1    2    0  502 -0.59957078865E+02  0.19487093640E+03  0.27760820121E+03  0.52785968452E+03  0.40000000000E+03 0.  1.
<mgrwt>
<rscale>  2 0.44933662E+03</rscale>
<asrwt>0</asrwt>
<pdfrwt beam="1">  1       21 0.12937297E+00 0.44946058E+03</pdfrwt>
<pdfrwt beam="2">  1       21 0.36981679E-01 0.44946058E+03</pdfrwt>
<totfact> 0.26670693E+03</totfact>
</mgrwt>
</event>
<event>
 6    1  0.9190795E-004  0.4149910E+03  0.7818608E-02  0.1038737E+00
         21   -1    0    0  503  502  0.00000000000E+00  0.00000000000E+00  0.22201466239E+03  0.22201466239E+03  0.00000000000E+00 0.  1.
         21   -1    0    0  501  503 -0.00000000000E+00 -0.00000000000E+00 -0.87884508720E+03  0.87884508720E+03  0.00000000000E+00 0.  1.
    9000007    2    1    2  501    0  0.10999708014E+03  0.10871689086E+02 -0.51744569541E+03  0.66308623046E+03  0.39964452963E+03 0.  0.
    9000005    1    3    3    0    0 -0.10364916987E+03 -0.36555418701E+02 -0.98847574074E+01  0.11035468940E+03  0.99999687468E+00 0.  0.
          4    1    3    3  501    0  0.21364625000E+03  0.47427107787E+02 -0.50756093801E+03  0.55273154106E+03  0.00000000000E+00 0.  1.
   -9000007    1    1    2    0  502 -0.10999708014E+03 -0.10871689086E+02 -0.13938472939E+03  0.43777351913E+03  0.40000000000E+03 0.  1.
<mgrwt>
<rscale>  2 0.41490534E+03</rscale>
<asrwt>0</asrwt>
<pdfrwt beam="1">  1       21 0.34156102E-01 0.41499103E+03</pdfrwt>
<pdfrwt beam="2">  1       21 0.13520693E+00 0.41499103E+03</pdfrwt>
<totfact> 0.28309487E+03</totfact>
</mgrwt>
</event>
<event>
 6    1  0.9190795E-004  0.4322640E+03  0.7818608E-02  0.1033160E+00
         21   -1    0    0  503  502  0.00000000000E+00  0.00000000000E+00  0.41567968971E+03  0.41567968971E+03  0.00000000000E+00 0. -1.
         21   -1    0    0  501  503 -0.00000000000E+00 -0.00000000000E+00 -0.56826268888E+03  0.56826268888E+03  0.00000000000E+00 0. -1.
    9000007    2    1    2  501    0  0.96950851582E+02  0.13210851257E+03 -0.30133648369E+03  0.52679937484E+03  0.39982718543E+03 0.  0.
    9000005    1    3    3    0    0  0.23249933991E+03  0.56600207812E+02 -0.28292539906E+03  0.37055000743E+03  0.99999687468E+00 0.  0.
          4    1    3    3  501    0 -0.13554848833E+03  0.75508304761E+02 -0.18411084632E+02  0.15624936740E+03  0.00000000000E+00 0.  1.
   -9000007    1    1    2    0  502 -0.96950851582E+02 -0.13210851257E+03  0.14875348452E+03  0.45714300375E+03  0.40000000000E+03 0. -1.
<mgrwt>
<rscale>  2 0.43222397E+03</rscale>
<asrwt>0</asrwt>
<pdfrwt beam="1">  1       21 0.63950722E-01 0.43226395E+03</pdfrwt>
<pdfrwt beam="2">  1       21 0.87425029E-01 0.43226395E+03</pdfrwt>
<totfact> 0.22085469E+03</totfact>
</mgrwt>
</event>
<event>
 6    1  0.9190795E-004  0.5900004E+03  0.7818608E-02  0.9926410E-01
         21   -1    0    0  503  502  0.00000000000E+00  0.00000000000E+00  0.44308997602E+03  0.44308997602E+03  0.00000000000E+00 0. -1.
         21   -1    0    0  501  503 -0.00000000000E+00 -0.00000000000E+00 -0.78601737442E+03  0.78601737442E+03  0.00000000000E+00 0.  1.
    9000007    2    1    2  501    0 -0.16057362494E+03 -0.40288534954E+03 -0.18682846500E+03  0.61880630104E+03  0.39989482239E+03 0.  0.
    9000005    1    3    3    0    0 -0.93171146292E-01  0.10403319752E+02  0.93618283114E+02  0.94199897397E+02  0.99999687468E+00 0.  0.
          4    1    3    3  501    0 -0.16048045379E+03 -0.41328866929E+03 -0.28044674812E+03  0.52460640364E+03  0.00000000000E+00 0.  1.
   -9000007    1    1    2    0  502  0.16057362494E+03  0.40288534954E+03 -0.15609893339E+03  0.61030104940E+03  0.40000000000E+03 0.  1.
<mgrwt>
<rscale>  2 0.58998259E+03</rscale>
<asrwt>0</asrwt>
<pdfrwt beam="1">  1       21 0.68167689E-01 0.59000042E+03</pdfrwt>
<pdfrwt beam="2">  1       21 0.12092575E+00 0.59000042E+03</pdfrwt>
<totfact> 0.81775263E+02</totfact>
</mgrwt>
</event>
<event>
 6    1  0.9190795E-004  0.5535652E+03  0.7818608E-02  0.1000723E+00
         21   -1    0    0  503  502  0.00000000000E+00  0.00000000000E+00  0.13721368713E+04  0.13721368713E+04  0.00000000000E+00 0.  1.
         21   -1    0    0  501  503 -0.00000000000E+00 -0.00000000000E+00 -0.22296791801E+03  0.22296791801E+03  0.00000000000E+00 0. -1.
    9000007    2    1    2  501    0 -0.37445904858E+03 -0.72327844169E+02  0.57525995419E+03  0.79834733855E+03  0.40122756880E+03 0.  0.
    9000005    1    3    3    0    0  0.51875069964E+02  0.29734698827E+02 -0.16371304405E+02  0.62001570946E+02  0.99999687468E+00 0.  0.
          4    1    3    3  501    0 -0.42633411855E+03 -0.10206254300E+03  0.59163125859E+03  0.73634576760E+03  0.00000000000E+00 0.  1.
   -9000007    1    1    2    0  502  0.37445904858E+03  0.72327844169E+02  0.57390899915E+03  0.79675745081E+03  0.40000000000E+03 0.  1.
<mgrwt>
<rscale>  2 0.55334282E+03</rscale>
<asrwt>0</asrwt>
<pdfrwt beam="1">  1       21 0.21109798E+00 0.55356522E+03</pdfrwt>
<pdfrwt beam="2">  1       21 0.34302757E-01 0.55356522E+03</pdfrwt>
<totfact> 0.74065761E+02</totfact>
</mgrwt>
</event>
<event>
 6    1  0.9190795E-004  0.4893327E+03  0.7818608E-02  0.1016608E+00
         21   -1    0    0  503  502  0.00000000000E+00  0.00000000000E+00  0.56754018999E+03  0.56754018999E+03  0.00000000000E+00 0. -1.
         21   -1    0    0  501  503 -0.00000000000E+00 -0.00000000000E+00 -0.44814140666E+03  0.44814140666E+03  0.00000000000E+00 0.  1.
    9000007    2    1    2  501    0  0.27797226976E+03 -0.46668019432E+02 -0.63396800947E+02  0.49332088562E+03  0.39987479918E+03 0.  0.
    9000005    1    3    3    0    0 -0.38555047175E+02 -0.49092462180E+02 -0.15224763743E+03  0.16455061410E+03  0.99999687468E+00 0.  0.
          4    1    3    3  501    0  0.31652731693E+03  0.24244427476E+01  0.88850836481E+02  0.32877027151E+03  0.00000000000E+00 0.  1.
   -9000007    1    1    2    0  502 -0.27797226976E+03  0.46668019432E+02  0.18279558428E+03  0.52236071103E+03  0.40000000000E+03 0. -1.
<mgrwt>
<rscale>  2 0.48930711E+03</rscale>
<asrwt>0</asrwt>
<pdfrwt beam="1">  1       21 0.87313876E-01 0.48933270E+03</pdfrwt>
<pdfrwt beam="2">  1       21 0.68944831E-01 0.48933270E+03</pdfrwt>
<totfact> 0.18340801E+03</totfact>
</mgrwt>
</event>
<event>
 6    1  0.9190795E-004  0.4107544E+03  0.7818608E-02  0.1040433E+00
         21   -1    0    0  503  502  0.00000000000E+00  0.00000000000E+00  0.40441515971E+03  0.40441515971E+03  0.00000000000E+00 0.  1.
         21   -1    0    0  501  503 -0.00000000000E+00 -0.00000000000E+00 -0.46284614111E+03  0.46284614111E+03  0.00000000000E+00 0.  1.
    9000007    2    1    2  501    0  0.26241702380E+02 -0.70504848848E+02  0.11239345698E+03  0.42585383667E+03  0.40380643925E+03 0.  0.
    9000005    1    3    3    0    0  0.11200755194E+03 -0.70795107414E+02  0.23879806330E+03  0.27309916506E+03  0.99999687468E+00 0.  0.
          4    1    3    3  501    0 -0.85765849557E+02  0.29025856607E+00 -0.12640460632E+03  0.15275467161E+03  0.00000000000E+00 0.  1.
   -9000007    1    1    2    0  502 -0.26241702380E+02  0.70504848848E+02 -0.17082443838E+03  0.44140746414E+03  0.40000000000E+03 0. -1.
<mgrwt>
<rscale>  2 0.40981585E+03</rscale>
<asrwt>0</asrwt>
<pdfrwt beam="1">  1       21 0.62217717E-01 0.41075443E+03</pdfrwt>
<pdfrwt beam="2">  1       21 0.71207098E-01 0.41075443E+03</pdfrwt>
<totfact> 0.37935320E+03</totfact>
</mgrwt>
</event>
<event>
 6    1  0.9190795E-004  0.4104945E+03  0.7818608E-02  0.1040266E+00
         21   -1    0    0  503  502  0.00000000000E+00  0.00000000000E+00  0.71712813273E+03  0.71712813273E+03  0.00000000000E+00 0. -1.
         21   -1    0    0  501  503 -0.00000000000E+00 -0.00000000000E+00 -0.27830202695E+03  0.27830202695E+03  0.00000000000E+00 0. -1.
    9000007    2    1    2  501    0  0.41770131623E+02  0.78524667247E+02  0.22251702575E+02  0.41109712051E+03  0.40074285641E+03 0.  0.
    9000005    1    3    3    0    0  0.14572614511E+03 -0.54711812333E+01 -0.13913313308E+03  0.20155662208E+03  0.99999687468E+00 0.  0.
          4    1    3    3  501    0 -0.10395601349E+03  0.83995848481E+02  0.16138483565E+03  0.20954049843E+03  0.00000000000E+00 0.  1.
   -9000007    1    1    2    0  502 -0.41770131623E+02 -0.78524667247E+02  0.41657440320E+03  0.58433303917E+03  0.40000000000E+03 0. -1.
<mgrwt>
<rscale>  2 0.41031305E+03</rscale>
<asrwt>0</asrwt>
<pdfrwt beam="1">  1       21 0.11032740E+00 0.41049446E+03</pdfrwt>
<pdfrwt beam="2">  1       21 0.42815697E-01 0.41049446E+03</pdfrwt>
<totfact> 0.29980148E+03</totfact>
</mgrwt>
</event>
<event>
 6    1  0.9190795E-004  0.4268371E+03  0.7818608E-02  0.1035012E+00
         21   -1    0    0  503  502  0.00000000000E+00  0.00000000000E+00  0.68156503847E+03  0.68156503847E+03  0.00000000000E+00 0.  1.
         21   -1    0    0  501  503 -0.00000000000E+00 -0.00000000000E+00 -0.42837955467E+03  0.42837955467E+03  0.00000000000E+00 0.  1.
    9000007    2    1    2  501    0  0.43920751240E+02 -0.13667363073E+03 -0.21476003847E+03  0.47781982260E+03  0.40197163460E+03 0.  0.
    9000005    1    3    3    0    0 -0.11932089478E+02  0.12723610050E+03  0.78979378852E+01  0.12804209248E+03  0.99999687468E+00 0.  0.
          4    1    3    3  501    0  0.55852840719E+02 -0.26390973123E+03 -0.22265797635E+03  0.34977773012E+03  0.00000000000E+00 0.  1.
   -9000007    1    1    2    0  502 -0.43920751240E+02  0.13667363073E+03  0.46794552226E+03  0.63212477054E+03  0.40000000000E+03 0.  1.
<mgrwt>
<rscale>  2 0.42637228E+03</rscale>
<asrwt>0</asrwt>
<pdfrwt beam="1">  1       21 0.10485616E+00 0.42683710E+03</pdfrwt>
<pdfrwt beam="2">  1       21 0.65904547E-01 0.42683710E+03</pdfrwt>
<totfact> 0.13379055E+03</totfact>
</mgrwt>
</event>
<event>
 6    1  0.9190795E-004  0.6574789E+03  0.7818608E-02  0.9792961E-01
         21   -1    0    0  503  502  0.00000000000E+00  0.00000000000E+00  0.81022531363E+03  0.81022531363E+03  0.00000000000E+00 0. -1.
         21   -1    0    0  501  503 -0.00000000000E+00 -0.00000000000E+00 -0.10624073879E+04  0.10624073879E+04  0.00000000000E+00 0.  1.
    9000007    2    1    2  501    0  0.21129872634E+03  0.47710729117E+03 -0.78682990175E+03  0.10252090657E+04  0.39959206094E+03 0.  0.
    9000005    1    3    3    0    0 -0.25290521779E+02  0.49381412592E+00 -0.30903680961E+03  0.31007193364E+03  0.99999687468E+00 0.  0.
          4    1    3    3  501    0  0.23658924812E+03  0.47661347704E+03 -0.47779309214E+03  0.71513713211E+03  0.00000000000E+00 0.  1.
   -9000007    1    1    2    0  502 -0.21129872634E+03 -0.47710729117E+03  0.53464782748E+03  0.84742363577E+03  0.40000000000E+03 0. -1.
<mgrwt>
<rscale>  2 0.65741688E+03</rscale>
<asrwt>0</asrwt>
<pdfrwt beam="1">  1       21 0.12465005E+00 0.65747891E+03</pdfrwt>
<pdfrwt beam="2">  1       21 0.16344729E+00 0.65747891E+03</pdfrwt>
<totfact> 0.82922501E+01</totfact>
</mgrwt>
</event>
<event>
 6    1  0.9190795E-004  0.6549009E+03  0.7818608E-02  0.9797918E-01
         21   -1    0    0  503  502  0.00000000000E+00  0.00000000000E+00  0.47043671943E+03  0.47043671943E+03  0.00000000000E+00 0. -1.
         21   -1    0    0  501  503 -0.00000000000E+00 -0.00000000000E+00 -0.28906027727E+04  0.28906027727E+04  0.00000000000E+00 0. -1.
    9000007    2    1    2  501    0  0.33521554473E+03 -0.39459327930E+03 -0.26010442660E+04  0.26822241672E+04  0.40102604871E+03 0.  0.
    9000005    1    3    3    0    0  0.40245114366E+03 -0.30434124662E+03 -0.23937380293E+04  0.24463387480E+04  0.99999687468E+00 0.  0.
          4    1    3    3  501    0 -0.67235598934E+02 -0.90252032683E+02 -0.20730623676E+03  0.23588541915E+03  0.00000000000E+00 0.  1.
   -9000007    1    1    2    0  502 -0.33521554473E+03  0.39459327930E+03  0.18087821277E+03  0.67881532492E+03  0.40000000000E+03 0. -1.
<mgrwt>
<rscale>  2 0.65474391E+03</rscale>
<asrwt>0</asrwt>
<pdfrwt beam="1">  1       21 0.72374878E-01 0.65490092E+03</pdfrwt>
<pdfrwt beam="2">  1       21 0.44470813E+00 0.65490092E+03</pdfrwt>
<totfact> 0.47769025E+00</totfact>
</mgrwt>
</event>
<event>
 6    1  0.9190795E-004  0.4121267E+03  0.7818608E-02  0.1039702E+00
         21   -1    0    0  503  502  0.00000000000E+00  0.00000000000E+00  0.22278384272E+04  0.22278384272E+04  0.00000000000E+00 0. -1.
         21   -1    0    0  501  503 -0.00000000000E+00 -0.00000000000E+00 -0.22420654357E+03  0.22420654357E+03  0.00000000000E+00 0. -1.
    9000007    2    1    2  501    0 -0.45466173632E+02  0.85800505330E+02  0.57139196622E+01  0.41216627575E+03  0.40052401966E+03 0.  0.
    9000005    1    3    3    0    0 -0.19724851367E+03  0.16319120586E+02  0.98609594582E+02  0.22112924271E+03  0.99999687468E+00 0.  0.
          4    1    3    3  501    0  0.15178234004E+03  0.69481384744E+02 -0.92895674919E+02  0.19103703304E+03  0.00000000000E+00 0.  1.
   -9000007    1    1    2    0  502  0.45466173632E+02 -0.85800505330E+02  0.19979179640E+04  0.20398786950E+04  0.40000000000E+03 0. -1.
<mgrwt>
<rscale>  2 0.41199930E+03</rscale>
<asrwt>0</asrwt>
<pdfrwt beam="1">  1       21 0.34274436E+00 0.41212667E+03</pdfrwt>
<pdfrwt beam="2">  1       21 0.34493316E-01 0.41212667E+03</pdfrwt>
<totfact> 0.12282626E+02</totfact>
</mgrwt>
</event>
<event>
 6    1  0.9190795E-004  0.4291247E+03  0.7818608E-02  0.1034154E+00
         21   -1    0    0  503  502  0.00000000000E+00  0.00000000000E+00  0.21105100623E+04  0.21105100623E+04  0.00000000000E+00 0.  1.
         21   -1    0    0  501  503 -0.00000000000E+00 -0.00000000000E+00 -0.21353282325E+03  0.21353282325E+03  0.00000000000E+00 0. -1.
    9000007    2    1    2  501    0  0.15471982608E+03  0.52926914932E+01  0.54819747012E+02  0.43261208781E+03  0.40022715637E+03 0.  0.
    9000005    1    3    3    0    0  0.66384601864E+02 -0.17457834309E+03 -0.66612105533E+02  0.19829948522E+03  0.99999687468E+00 0.  0.
          4    1    3    3  501    0  0.88335224217E+02  0.17987103459E+03  0.12143185254E+03  0.23431260259E+03  0.00000000000E+00 0.  1.
   -9000007    1    1    2    0  502 -0.15471982608E+03 -0.52926914932E+01  0.18421574920E+04  0.18914307977E+04  0.40000000000E+03 0.  1.
<mgrwt>
<rscale>  2 0.42907173E+03</rscale>
<asrwt>0</asrwt>
<pdfrwt beam="1">  1       21 0.32469384E+00 0.42912471E+03</pdfrwt>
<pdfrwt beam="2">  1       21 0.32851205E-01 0.42912471E+03</pdfrwt>
<totfact> 0.17224737E+02</totfact>
</mgrwt>
</event>
<event>
 6    1  0.9190795E-004  0.4384317E+03  0.7818608E-02  0.1031234E+00
         21   -1    0    0  503  502  0.00000000000E+00  0.00000000000E+00  0.48828520858E+03  0.48828520858E+03  0.00000000000E+00 0. -1.
         21   -1    0    0  501  503 -0.00000000000E+00 -0.00000000000E+00 -0.39823640916E+03  0.39823640916E+03  0.00000000000E+00 0. -1.
    9000007    2    1    2  501    0 -0.15202829513E+02  0.17886088516E+03 -0.27314277221E+01  0.43838044265E+03  0.39993450656E+03 0.  0.
    9000005    1    3    3    0    0 -0.80449854256E+02 -0.50476011429E+02 -0.13549787508E+03  0.16547108788E+03  0.99999687468E+00 0.  0.
          4    1    3    3  501    0  0.65247024743E+02  0.22933689659E+03  0.13276644736E+03  0.27290935477E+03  0.00000000000E+00 0.  1.
   -9000007    1    1    2    0  502  0.15202829513E+02 -0.17886088516E+03  0.92780227143E+02  0.44814117509E+03  0.40000000000E+03 0.  1.
<mgrwt>
<rscale>  2 0.43841675E+03</rscale>
<asrwt>0</asrwt>
<pdfrwt beam="1">  1       21 0.75120801E-01 0.43843168E+03</pdfrwt>
<pdfrwt beam="2">  1       21 0.61267140E-01 0.43843168E+03</pdfrwt>
<totfact> 0.34410657E+03</totfact>
</mgrwt>
</event>
<event>
 6    1  0.9190795E-004  0.4063477E+03  0.7818608E-02  0.1041640E+00
         21   -1    0    0  503  502  0.00000000000E+00  0.00000000000E+00  0.97161943792E+03  0.97161943792E+03  0.00000000000E+00 0.  1.
         21   -1    0    0  501  503 -0.00000000000E+00 -0.00000000000E+00 -0.57447588668E+03  0.57447588668E+03  0.00000000000E+00 0.  1.
    9000007    2    1    2  501    0 -0.70933382568E+02 -0.93223047012E+01 -0.45031016049E+03  0.60625691102E+03  0.39956194938E+03 0.  0.
    9000005    1    3    3    0    0 -0.19527762705E+03  0.10749200704E+03 -0.17955232721E+03  0.28623053891E+03  0.99999687468E+00 0.  0.
          4    1    3    3  501    0  0.12434424448E+03 -0.11681431174E+03 -0.27075783328E+03  0.32002637211E+03  0.00000000000E+00 0.  1.
   -9000007    1    1    2    0  502  0.70933382568E+02  0.93223047012E+01  0.84745371173E+03  0.93983841358E+03  0.40000000000E+03 0.  1.
<mgrwt>
<rscale>  2 0.40623985E+03</rscale>
<asrwt>0</asrwt>
<pdfrwt beam="1">  1       21 0.14947991E+00 0.40634770E+03</pdfrwt>
<pdfrwt beam="2">  1       21 0.88380906E-01 0.40634770E+03</pdfrwt>
<totfact> 0.27793582E+02</totfact>
</mgrwt>
</event>
<event>
 6    1  0.9190795E-004  0.4711311E+03  0.7818608E-02  0.1021628E+00
         21   -1    0    0  503  502  0.00000000000E+00  0.00000000000E+00  0.51809866468E+03  0.51809866468E+03  0.00000000000E+00 0. -1.
         21   -1    0    0  501  503 -0.00000000000E+00 -0.00000000000E+00 -0.89258669746E+03  0.89258669746E+03  0.00000000000E+00 0. -1.
    9000007    2    1    2  501    0 -0.10066449876E+03  0.22766456531E+03 -0.69603802898E+03  0.84028296413E+03  0.39955228245E+03 0.  0.
    9000005    1    3    3    0    0 -0.18425003847E+03  0.84353527784E+02 -0.62987726220E+03  0.66167209383E+03  0.99999687468E+00 0.  0.
          4    1    3    3  501    0  0.83585539719E+02  0.14331103753E+03 -0.66160766786E+02  0.17861087030E+03  0.00000000000E+00 0.  1.
   -9000007    1    1    2    0  502  0.10066449876E+03 -0.22766456531E+03  0.32154999620E+03  0.57040239802E+03  0.40000000000E+03 0. -1.
<mgrwt>
<rscale>  2 0.47103604E+03</rscale>
<asrwt>0</asrwt>
<pdfrwt beam="1">  1       21 0.79707487E-01 0.47113108E+03</pdfrwt>
<pdfrwt beam="2">  1       21 0.13732103E+00 0.47113108E+03</pdfrwt>
<totfact> 0.42983438E+02</totfact>
</mgrwt>
</event>
<event>
 6    1  0.9190795E-004  0.4675532E+03  0.7818608E-02  0.1022623E+00
         21   -1    0    0  503  502  0.00000000000E+00  0.00000000000E+00  0.31704068540E+03  0.31704068540E+03  0.00000000000E+00 0. -1.
         21   -1    0    0  501  503 -0.00000000000E+00 -0.00000000000E+00 -0.11526815395E+04  0.11526815395E+04  0.00000000000E+00 0. -1.
    9000007    2    1    2  501    0 -0.23178975240E+03  0.69853407258E+02 -0.88370309518E+03  0.99970523917E+03  0.39984173991E+03 0.  0.
    9000005    1    3    3    0    0 -0.30480683417E+03 -0.34391829594E+02 -0.77071900117E+03  0.82951719865E+03  0.99999687468E+00 0.  0.
          4    1    3    3  501    0  0.73017081773E+02  0.10424523685E+03 -0.11298409401E+03  0.17018804052E+03  0.00000000000E+00 0.  1.
   -9000007    1    1    2    0  502  0.23178975240E+03 -0.69853407258E+02  0.48062241106E+02  0.47001698570E+03  0.40000000000E+03 0.  1.
<mgrwt>
<rscale>  2 0.46751934E+03</rscale>
<asrwt>0</asrwt>
<pdfrwt beam="1">  1       21 0.48775491E-01 0.46755319E+03</pdfrwt>
<pdfrwt beam="2">  1       21 0.17733562E+00 0.46755319E+03</pdfrwt>
<totfact> 0.62840811E+02</totfact>
</mgrwt>
</event>
<event>
 6    1  0.9190795E-004  0.4820853E+03  0.7818608E-02  0.1018566E+00
         21   -1    0    0  503  502  0.00000000000E+00  0.00000000000E+00  0.17484817110E+03  0.17484817110E+03  0.00000000000E+00 0.  1.
         21   -1    0    0  501  503 -0.00000000000E+00 -0.00000000000E+00 -0.13793163617E+04  0.13793163617E+04  0.00000000000E+00 0.  1.
    9000007    2    1    2  501    0 -0.24397947129E+03 -0.11349139285E+03 -0.75050874015E+03  0.89198218533E+03  0.39995321131E+03 0.  0.
    9000005    1    3    3    0    0  0.92355779246E+02 -0.75661290768E+02 -0.33756641596E+03  0.35805908180E+03  0.99999687468E+00 0.  0.
          4    1    3    3  501    0 -0.33633525053E+03 -0.37830102082E+02 -0.41294232419E+03  0.53392310353E+03  0.00000000000E+00 0.  1.
   -9000007    1    1    2    0  502  0.24397947129E+03  0.11349139285E+03 -0.45395945044E+03  0.66218234747E+03  0.40000000000E+03 0.  1.
<mgrwt>
<rscale>  2 0.48207564E+03</rscale>
<asrwt>0</asrwt>
<pdfrwt beam="1">  1       21 0.26899717E-01 0.48208534E+03</pdfrwt>
<pdfrwt beam="2">  1       21 0.21220253E+00 0.48208534E+03</pdfrwt>
<totfact> 0.12178856E+03</totfact>
</mgrwt>
</event>
<event>
 6    1  0.9190795E-004  0.4916007E+03  0.7818608E-02  0.1016102E+00
         21   -1    0    0  503  502  0.00000000000E+00  0.00000000000E+00  0.38129363603E+03  0.38129363603E+03  0.00000000000E+00 0. -1.
         21   -1    0    0  501  503 -0.00000000000E+00 -0.00000000000E+00 -0.74902261404E+03  0.74902261404E+03  0.00000000000E+00 0.  1.
    9000007    2    1    2  501    0 -0.71011272318E+02 -0.27681881177E+03 -0.40723558400E+03  0.63713065898E+03  0.39802437160E+03 0.  0.
    9000005    1    3    3    0    0 -0.16493704100E+02 -0.19052129033E+03  0.25128673988E+02  0.19288041527E+03  0.99999687468E+00 0.  0.
          4    1    3    3  501    0 -0.54517568218E+02 -0.86297521446E+02 -0.43236425799E+03  0.44425024371E+03  0.00000000000E+00 0.  1.
   -9000007    1    1    2    0  502  0.71011272318E+02  0.27681881177E+03  0.39506605991E+02  0.49318559110E+03  0.40000000000E+03 0.  1.
<mgrwt>
<rscale>  2 0.49119867E+03</rscale>
<asrwt>0</asrwt>
<pdfrwt beam="1">  1       21 0.58660560E-01 0.49160071E+03</pdfrwt>
<pdfrwt beam="2">  1       21 0.11523425E+00 0.49160071E+03</pdfrwt>
<totfact> 0.13340539E+03</totfact>
</mgrwt>
</event>
<event>
 6    1  0.9190795E-004  0.4123232E+03  0.7818608E-02  0.1039650E+00
         21   -1    0    0  503  502  0.00000000000E+00  0.00000000000E+00  0.51900299547E+03  0.51900299547E+03  0.00000000000E+00 0. -1.
         21   -1    0    0  501  503 -0.00000000000E+00 -0.00000000000E+00 -0.32784868779E+03  0.32784868779E+03  0.00000000000E+00 0. -1.
    9000007    2    1    2  501    0 -0.69202803485E+02 -0.72258964269E+02  0.74441868667E+02  0.41832842910E+03  0.39930777210E+03 0.  0.
    9000005    1    3    3    0    0  0.14389070253E+03 -0.10663528085E+03 -0.24709916498E+02  0.18079601037E+03  0.99999687468E+00 0.  0.
          4    1    3    3  501    0 -0.21309350602E+03  0.34376316585E+02  0.99151785166E+02  0.23753241874E+03  0.00000000000E+00 0.  1.
   -9000007    1    1    2    0  502  0.69202803485E+02  0.72258964269E+02  0.11671243902E+03  0.42852325415E+03  0.40000000000E+03 0. -1.
<mgrwt>
<rscale>  2 0.41215518E+03</rscale>
<asrwt>0</asrwt>
<pdfrwt beam="1">  1       21 0.79846615E-01 0.41232316E+03</pdfrwt>
<pdfrwt beam="2">  1       21 0.50438259E-01 0.41232316E+03</pdfrwt>
<totfact> 0.45977392E+03</totfact>
</mgrwt>
</event>
<event>
 6    1  0.9190795E-004  0.4014897E+03  0.7818608E-02  0.1043323E+00
         21   -1    0    0  503  502  0.00000000000E+00  0.00000000000E+00  0.18313172493E+03  0.18313172493E+03  0.00000000000E+00 0. -1.
         21   -1    0    0  501  503 -0.00000000000E+00 -0.00000000000E+00 -0.10234516904E+04  0.10234516904E+04  0.00000000000E+00 0.  1.
    9000007    2    1    2  501    0 -0.34547514655E+02  0.65496459915E+00 -0.64670798609E+03  0.76084856333E+03  0.39933113741E+03 0.  0.
    9000005    1    3    3    0    0 -0.30693278472E+02  0.19591311725E+03 -0.39762476454E+03  0.44433149812E+03  0.99999687468E+00 0.  0.
          4    1    3    3  501    0 -0.38542361836E+01 -0.19525815265E+03 -0.24908322155E+03  0.31651706521E+03  0.00000000000E+00 0.  1.
   -9000007    1    1    2    0  502  0.34547514655E+02 -0.65496459915E+00 -0.19361197943E+03  0.44573485204E+03  0.40000000000E+03 0. -1.
<mgrwt>
<rscale>  2 0.40132298E+03</rscale>
<asrwt>0</asrwt>
<pdfrwt beam="1">  1       21 0.28174111E-01 0.40148968E+03</pdfrwt>
<pdfrwt beam="2">  1       21 0.15745411E+00 0.40148968E+03</pdfrwt>
<totfact> 0.27746043E+03</totfact>
</mgrwt>
</event>
<event>
 6    1  0.9190795E-004  0.4417417E+03  0.7818608E-02  0.1030271E+00
         21   -1    0    0  503  502  0.00000000000E+00  0.00000000000E+00  0.12087135612E+03  0.12087135612E+03  0.00000000000E+00 0. -1.
         21   -1    0    0  501  503 -0.00000000000E+00 -0.00000000000E+00 -0.20744543611E+04  0.20744543611E+04  0.00000000000E+00 0. -1.
    9000007    2    1    2  501    0 -0.16527097245E+03  0.84636306927E+02 -0.14958728110E+04  0.15597343230E+04  0.40082152238E+03 0.  0.
    9000005    1    3    3    0    0 -0.78837804851E+02  0.21718788425E+01 -0.14109757668E+04  0.14131785914E+04  0.99999687468E+00 0.  0.
          4    1    3    3  501    0 -0.86433167596E+02  0.82464428084E+02 -0.84897044180E+02  0.14655573162E+03  0.00000000000E+00 0.  1.
   -9000007    1    1    2    0  502  0.16527097245E+03 -0.84636306927E+02 -0.45771019402E+03  0.63559139429E+03  0.40000000000E+03 0. -1.
<mgrwt>
<rscale>  2 0.44155522E+03</rscale>
<asrwt>0</asrwt>
<pdfrwt beam="1">  1       21 0.18595594E-01 0.44174166E+03</pdfrwt>
<pdfrwt beam="2">  1       21 0.31914682E+00 0.44174166E+03</pdfrwt>
<totfact> 0.55816118E+02</totfact>
</mgrwt>
</event>
<event>
 6    1  0.9190795E-004  0.4230517E+03  0.7818608E-02  0.1036081E+00
         21   -1    0    0  503  502  0.00000000000E+00  0.00000000000E+00  0.51917278242E+03  0.51917278242E+03  0.00000000000E+00 0. -1.
         21   -1    0    0  501  503 -0.00000000000E+00 -0.00000000000E+00 -0.50582963528E+03  0.50582963528E+03  0.00000000000E+00 0. -1.
    9000007    2    1    2  501    0  0.15822846280E+02  0.13668933797E+03 -0.28259212104E+03  0.50875439539E+03  0.40004798509E+03 0.  0.
    9000005    1    3    3    0    0 -0.99940917033E+00  0.27352271358E+03 -0.24153992107E+03  0.36490849145E+03  0.99999687468E+00 0.  0.
          4    1    3    3  501    0  0.16822255451E+02 -0.13683337561E+03 -0.41052199970E+02  0.14384590395E+03  0.00000000000E+00 0.  1.
   -9000007    1    1    2    0  502 -0.15822846280E+02 -0.13668933797E+03  0.29593526818E+03  0.51624802230E+03  0.40000000000E+03 0. -1.
<mgrwt>
<rscale>  2 0.42304034E+03</rscale>
<asrwt>0</asrwt>
<pdfrwt beam="1">  1       21 0.79872736E-01 0.42305168E+03</pdfrwt>
<pdfrwt beam="2">  1       21 0.77819944E-01 0.42305168E+03</pdfrwt>
<totfact> 0.17578897E+03</totfact>
</mgrwt>
</event>
<event>
 6    1  0.9190795E-004  0.8095580E+03  0.7818608E-02  0.9546399E-01
         21   -1    0    0  503  502  0.00000000000E+00  0.00000000000E+00  0.39844902159E+03  0.39844902159E+03  0.00000000000E+00 0. -1.
         21   -1    0    0  501  503 -0.00000000000E+00 -0.00000000000E+00 -0.16714121177E+04  0.16714121177E+04  0.00000000000E+00 0. -1.
    9000007    2    1    2  501    0 -0.57491869525E+03  0.40537935790E+03 -0.50451643267E+03  0.95389778660E+03  0.40064975537E+03 0.  0.
    9000005    1    3    3    0    0 -0.16898069435E+02  0.37030917481E+02 -0.22589930120E+03  0.22953938198E+03  0.99999687468E+00 0.  0.
          4    1    3    3  501    0 -0.55802062582E+03  0.36834844042E+03 -0.27861713147E+03  0.72435840462E+03  0.00000000000E+00 0.  1.
   -9000007    1    1    2    0  502  0.57491869525E+03 -0.40537935790E+03 -0.76844666340E+03  0.11159633526E+04  0.40000000000E+03 0. -1.
<mgrwt>
<rscale>  2 0.80947765E+03</rscale>
<asrwt>0</asrwt>
<pdfrwt beam="1">  1       21 0.61299849E-01 0.80955800E+03</pdfrwt>
<pdfrwt beam="2">  1       21 0.25714033E+00 0.80955800E+03</pdfrwt>
<totfact> 0.10051925E+02</totfact>
</mgrwt>
</event>
<event>
 6    1  0.9190795E-004  0.4610748E+03  0.7818608E-02  0.1024487E+00
         21   -1    0    0  503  502  0.00000000000E+00  0.00000000000E+00  0.12964750935E+04  0.12964750935E+04  0.00000000000E+00 0.  1.
         21   -1    0    0  501  503 -0.00000000000E+00 -0.00000000000E+00 -0.30987594949E+03  0.30987594949E+03  0.00000000000E+00 0.  1.
    9000007    2    1    2  501    0  0.12187677030E+03 -0.19425758107E+03 -0.58038758067E+02  0.46448489436E+03  0.39973461785E+03 0.  0.
    9000005    1    3    3    0    0  0.39027224127E+02 -0.31218544492E+03 -0.60310140349E+02  0.32034542180E+03  0.99999687468E+00 0.  0.
          4    1    3    3  501    0  0.82849546173E+02  0.11792786385E+03  0.22713822822E+01  0.14413947256E+03  0.00000000000E+00 0.  1.
   -9000007    1    1    2    0  502 -0.12187677030E+03  0.19425758107E+03  0.10446379021E+04  0.11418661486E+04  0.40000000000E+03 0.  1.
<mgrwt>
<rscale>  2 0.46101722E+03</rscale>
<asrwt>0</asrwt>
<pdfrwt beam="1">  1       21 0.19945770E+00 0.46107478E+03</pdfrwt>
<pdfrwt beam="2">  1       21 0.47673224E-01 0.46107478E+03</pdfrwt>
<totfact> 0.46576234E+02</totfact>
</mgrwt>
</event>
<event>
 6    1  0.9190795E-004  0.5026607E+03  0.7818608E-02  0.1013100E+00
         21   -1    0    0  503  502  0.00000000000E+00  0.00000000000E+00  0.91853525765E+03  0.91853525765E+03  0.00000000000E+00 0. -1.
         21   -1    0    0  501  503 -0.00000000000E+00 -0.00000000000E+00 -0.29618219381E+03  0.29618219381E+03  0.00000000000E+00 0.  1.
    9000007    2    1    2  501    0  0.28630895041E+03  0.10243022993E+03  0.14868112931E+03  0.52418876368E+03  0.40025368789E+03 0.  0.
    9000005    1    3    3    0    0  0.36863328514E+03  0.15876313860E+03  0.10242035202E+03  0.41423080715E+03  0.99999687468E+00 0.  0.
          4    1    3    3  501    0 -0.82324334728E+02 -0.56332908676E+02  0.46260777295E+02  0.10995795653E+03  0.00000000000E+00 0.  1.
   -9000007    1    1    2    0  502 -0.28630895041E+03 -0.10243022993E+03  0.47367193453E+03  0.69052868778E+03  0.40000000000E+03 0. -1.
<mgrwt>
<rscale>  2 0.50261020E+03</rscale>
<asrwt>0</asrwt>
<pdfrwt beam="1">  1       21 0.14131312E+00 0.50266070E+03</pdfrwt>
<pdfrwt beam="2">  1       21 0.45566492E-01 0.50266070E+03</pdfrwt>
<totfact> 0.13455590E+03</totfact>
</mgrwt>
</event>
<event>
 6    1  0.9190795E-004  0.4656595E+03  0.7818608E-02  0.1023209E+00
         21   -1    0    0  503  502  0.00000000000E+00  0.00000000000E+00  0.94647579731E+03  0.94647579731E+03  0.00000000000E+00 0.  1.
         21   -1    0    0  501  503 -0.00000000000E+00 -0.00000000000E+00 -0.29541302609E+03  0.29541302609E+03  0.00000000000E+00 0.  1.
    9000007    2    1    2  501    0  0.20209714958E+03  0.12647336751E+03  0.30258343126E+02  0.46584957922E+03  0.39907579803E+03 0.  0.
    9000005    1    3    3    0    0 -0.78416254044E+02 -0.54647039179E+02  0.84485222910E+02  0.12757021860E+03  0.99999687468E+00 0.  0.
          4    1    3    3  501    0  0.28051340362E+03  0.18112040669E+03 -0.54226879784E+02  0.33827936062E+03  0.00000000000E+00 0.  1.
   -9000007    1    1    2    0  502 -0.20209714958E+03 -0.12647336751E+03  0.62080442810E+03  0.77603924418E+03  0.40000000000E+03 0.  1.
<mgrwt>
<rscale>  2 0.46546096E+03</rscale>
<asrwt>0</asrwt>
<pdfrwt beam="1">  1       21 0.14561166E+00 0.46565950E+03</pdfrwt>
<pdfrwt beam="2">  1       21 0.45448158E-01 0.46565950E+03</pdfrwt>
<totfact> 0.12661437E+03</totfact>
</mgrwt>
</event>
<event>
 6    1  0.9190795E-004  0.4002287E+03  0.7818608E-02  0.1043808E+00
         21   -1    0    0  503  502  0.00000000000E+00  0.00000000000E+00  0.33405246697E+03  0.33405246697E+03  0.00000000000E+00 0. -1.
         21   -1    0    0  501  503 -0.00000000000E+00 -0.00000000000E+00 -0.60182513816E+03  0.60182513816E+03  0.00000000000E+00 0. -1.
    9000007    2    1    2  501    0 -0.60648181959E+01  0.12093698349E+02  0.78504128499E+02  0.40664168273E+03  0.39876248618E+03 0.  0.
    9000005    1    3    3    0    0  0.84666077754E+00  0.16049538030E+03  0.16869222881E+03  0.23284662761E+03  0.99999687468E+00 0.  0.
          4    1    3    3  501    0 -0.69114789734E+01 -0.14840168195E+03 -0.90188100314E+02  0.17379505512E+03  0.00000000000E+00 0.  1.
   -9000007    1    1    2    0  502  0.60648181959E+01 -0.12093698349E+02 -0.34627679968E+03  0.52923592240E+03  0.40000000000E+03 0. -1.
<mgrwt>
<rscale>  2 0.39991917E+03</rscale>
<asrwt>0</asrwt>
<pdfrwt beam="1">  1       21 0.51392688E-01 0.40022873E+03</pdfrwt>
<pdfrwt beam="2">  1       21 0.92588482E-01 0.40022873E+03</pdfrwt>
<totfact> 0.31390535E+03</totfact>
</mgrwt>
</event>
<event>
 6    1  0.9190795E-004  0.5215556E+03  0.7818608E-02  0.1008498E+00
         21   -1    0    0  503  502  0.00000000000E+00  0.00000000000E+00  0.65575729404E+03  0.65575729404E+03  0.00000000000E+00 0. -1.
         21   -1    0    0  501  503 -0.00000000000E+00 -0.00000000000E+00 -0.41518833878E+03  0.41518833878E+03  0.00000000000E+00 0. -1.
    9000007    2    1    2  501    0  0.24506161749E+02  0.32880272045E+03  0.16537379469E+03  0.54714596395E+03  0.40411438103E+03 0.  0.
    9000005    1    3    3    0    0 -0.18747766417E+03  0.16991886675E+03  0.48673502882E+02  0.25766335734E+03  0.99999687468E+00 0.  0.
          4    1    3    3  501    0  0.21198382592E+03  0.15888385370E+03  0.11670029181E+03  0.28948260661E+03  0.00000000000E+00 0.  1.
   -9000007    1    1    2    0  502 -0.24506161749E+02 -0.32880272045E+03  0.75195160566E+02  0.52379966888E+03  0.40000000000E+03 0. -1.
<mgrwt>
<rscale>  2 0.52075840E+03</rscale>
<asrwt>0</asrwt>
<pdfrwt beam="1">  1       21 0.10088574E+00 0.52155557E+03</pdfrwt>
<pdfrwt beam="2">  1       21 0.63875129E-01 0.52155557E+03</pdfrwt>
<totfact> 0.15218097E+03</totfact>
</mgrwt>
</event>
<event>
 6    1  0.9190795E-004  0.4190124E+03  0.7818608E-02  0.1037400E+00
         21   -1    0    0  503  502  0.00000000000E+00  0.00000000000E+00  0.93860484488E+03  0.93860484488E+03  0.00000000000E+00 0.  1.
         21   -1    0    0  501  503 -0.00000000000E+00 -0.00000000000E+00 -0.27688071864E+03  0.27688071864E+03  0.00000000000E+00 0.  1.
    9000007    2    1    2  501    0  0.10124386793E+03  0.72945834379E+02 -0.15463257990E+02  0.41914758947E+03  0.39984268639E+03 0.  0.
    9000005    1    3    3    0    0  0.25539764142E+03  0.31387791021E+02 -0.28833124058E+02  0.25893145368E+03  0.99999687468E+00 0.  0.
          4    1    3    3  501    0 -0.15415377349E+03  0.41558043357E+02  0.13369866067E+02  0.16021613579E+03  0.00000000000E+00 0.  1.
   -9000007    1    1    2    0  502 -0.10124386793E+03 -0.72945834379E+02  0.67718738423E+03  0.79633797405E+03  0.40000000000E+03 0.  1.
<mgrwt>
<rscale>  2 0.41897488E+03</rscale>
<asrwt>0</asrwt>
<pdfrwt beam="1">  1       21 0.14440074E+00 0.41901243E+03</pdfrwt>
<pdfrwt beam="2">  1       21 0.42597034E-01 0.41901243E+03</pdfrwt>
<totfact> 0.15116061E+03</totfact>
</mgrwt>
</event>
<event>
 6    1  0.9190795E-004  0.4912095E+03  0.7818608E-02  0.1016108E+00
         21   -1    0    0  503  502  0.00000000000E+00  0.00000000000E+00  0.21275160425E+03  0.21275160425E+03  0.00000000000E+00 0. -1.
         21   -1    0    0  501  503 -0.00000000000E+00 -0.00000000000E+00 -0.18273679684E+04  0.18273679684E+04  0.00000000000E+00 0.  1.
    9000007    2    1    2  501    0 -0.27331437524E+03  0.81154307400E+02 -0.14356624917E+04  0.15173277806E+04  0.39983751024E+03 0.  0.
    9000005    1    3    3    0    0 -0.31724214260E+03  0.12686040243E+03 -0.69994201876E+03  0.77888122866E+03  0.99999687468E+00 0.  0.
          4    1    3    3  501    0  0.43927767360E+02 -0.45706095029E+02 -0.73572047290E+03  0.73844655197E+03  0.00000000000E+00 0.  1.
   -9000007    1    1    2    0  502  0.27331437524E+03 -0.81154307400E+02 -0.17895387248E+03  0.52279179202E+03  0.40000000000E+03 0. -1.
<mgrwt>
<rscale>  2 0.49117642E+03</rscale>
<asrwt>0</asrwt>
<pdfrwt beam="1">  1       21 0.32731016E-01 0.49120950E+03</pdfrwt>
<pdfrwt beam="2">  1       21 0.28113353E+00 0.49120950E+03</pdfrwt>
<totfact> 0.30604010E+02</totfact>
</mgrwt>
</event>
<event>
 6    1  0.9190795E-004  0.5338547E+03  0.7818608E-02  0.1005320E+00
         21   -1    0    0  503  502  0.00000000000E+00  0.00000000000E+00  0.21663730253E+04  0.21663730253E+04  0.00000000000E+00 0. -1.
         21   -1    0    0  501  503 -0.00000000000E+00 -0.00000000000E+00 -0.13150552550E+03  0.13150552550E+03  0.00000000000E+00 0. -1.
    9000007    2    1    2  501    0 -0.32441492942E+03  0.14055516179E+03  0.10019203803E+04  0.11351315656E+04  0.39959782632E+03 0.  0.
    9000005    1    3    3    0    0  0.35953220535E+02  0.46987773948E+02 -0.71135165257E+01  0.59599388240E+02  0.99999687468E+00 0.  0.
          4    1    3    3  501    0 -0.36036814995E+03  0.93567387842E+02  0.10090338968E+04  0.10755321774E+04  0.00000000000E+00 0.  1.
   -9000007    1    1    2    0  502  0.32441492942E+03 -0.14055516179E+03  0.10329471195E+04  0.11627469852E+04  0.40000000000E+03 0. -1.
<mgrwt>
<rscale>  2 0.53377933E+03</rscale>
<asrwt>0</asrwt>
<pdfrwt beam="1">  1       21 0.33328813E+00 0.53385466E+03</pdfrwt>
<pdfrwt beam="2">  1       21 0.20231621E-01 0.53385466E+03</pdfrwt>
<totfact> 0.37110021E+02</totfact>
</mgrwt>
</event>
<event>
 6    1  0.9190795E-004  0.4800201E+03  0.7818608E-02  0.1019160E+00
         21   -1    0    0  503  502  0.00000000000E+00  0.00000000000E+00  0.27522749850E+03  0.27522749850E+03  0.00000000000E+00 0.  1.
         21   -1    0    0  501  503 -0.00000000000E+00 -0.00000000000E+00 -0.85206049527E+03  0.85206049527E+03  0.00000000000E+00 0.  1.
    9000007    2    1    2  501    0 -0.71355348177E+01  0.26446852647E+03 -0.21219149904E+03  0.52482808703E+03  0.40053061222E+03 0.  0.
    9000005    1    3    3    0    0 -0.91298054411E+02  0.32565587934E+03 -0.64731636083E+02  0.34435195831E+03  0.99999687468E+00 0.  0.
          4    1    3    3  501    0  0.84162519593E+02 -0.61187352869E+02 -0.14745986296E+03  0.18047612872E+03  0.00000000000E+00 0.  1.
   -9000007    1    1    2    0  502  0.71355348177E+01 -0.26446852647E+03 -0.36464149774E+03  0.60245990673E+03  0.40000000000E+03 0.  1.
<mgrwt>
<rscale>  2 0.47990939E+03</rscale>
<asrwt>0</asrwt>
<pdfrwt beam="1">  1       21 0.42342693E-01 0.48002009E+03</pdfrwt>
<pdfrwt beam="2">  1       21 0.13108623E+00 0.48002009E+03</pdfrwt>
<totfact> 0.19286488E+03</totfact>
</mgrwt>
</event>
<event>
 6    1  0.9190795E-004  0.4717826E+03  0.7818608E-02  0.1021894E+00
         21   -1    0    0  503  502  0.00000000000E+00  0.00000000000E+00  0.47469060784E+03  0.47469060784E+03  0.00000000000E+00 0.  1.
         21   -1    0    0  501  503 -0.00000000000E+00 -0.00000000000E+00 -0.20723896053E+04  0.20723896053E+04  0.00000000000E+00 0. -1.
    9000007    2    1    2  501    0 -0.98075930283E+02  0.21601343902E+03 -0.19226847406E+04  0.19797210436E+04  0.40779664633E+03 0.  0.
    9000005    1    3    3    0    0 -0.22692305256E+03  0.12918095777E+03 -0.16047025601E+04  0.16258084445E+04  0.99999687468E+00 0.  0.
          4    1    3    3  501    0  0.12884712228E+03  0.86832481248E+02 -0.31798218050E+03  0.35391259915E+03  0.00000000000E+00 0.  1.
   -9000007    1    1    2    0  502  0.98075930283E+02 -0.21601343902E+03  0.32498574319E+03  0.56735916950E+03  0.40000000000E+03 0.  1.
<mgrwt>
<rscale>  2 0.47009285E+03</rscale>
<asrwt>0</asrwt>
<pdfrwt beam="1">  1       21 0.73029324E-01 0.47178258E+03</pdfrwt>
<pdfrwt beam="2">  1       21 0.31882917E+00 0.47178258E+03</pdfrwt>
<totfact> 0.33201375E+01</totfact>
</mgrwt>
</event>
<event>
 6    1  0.9190795E-004  0.4506633E+03  0.7818608E-02  0.1027537E+00
         21   -1    0    0  503  502  0.00000000000E+00  0.00000000000E+00  0.15783703070E+03  0.15783703070E+03  0.00000000000E+00 0. -1.
         21   -1    0    0  501  503 -0.00000000000E+00 -0.00000000000E+00 -0.15421765407E+04  0.15421765407E+04  0.00000000000E+00 0. -1.
    9000007    2    1    2  501    0  0.11096577436E+03 -0.17545381279E+03 -0.10383170188E+04  0.11318331353E+04  0.39980816801E+03 0.  0.
    9000005    1    3    3    0    0  0.96078804601E+02  0.51858815363E+02 -0.77922947625E+03  0.78684182023E+03  0.99999687468E+00 0.  0.
          4    1    3    3  501    0  0.14886969757E+02 -0.22731262816E+03 -0.25908754255E+03  0.34499131510E+03  0.00000000000E+00 0.  1.
   -9000007    1    1    2    0  502 -0.11096577436E+03  0.17545381279E+03 -0.34602249120E+03  0.56818043606E+03  0.40000000000E+03 0. -1.
<mgrwt>
<rscale>  2 0.45062077E+03</rscale>
<asrwt>0</asrwt>
<pdfrwt beam="1">  1       21 0.24282620E-01 0.45066334E+03</pdfrwt>
<pdfrwt beam="2">  1       21 0.23725793E+00 0.45066334E+03</pdfrwt>
<totfact> 0.10453566E+03</totfact>
</mgrwt>
</event>
<event>
 6    1  0.9190795E-004  0.4898271E+03  0.7818608E-02  0.1016545E+00
         21   -1    0    0  503  502  0.00000000000E+00  0.00000000000E+00  0.40434745302E+03  0.40434745302E+03  0.00000000000E+00 0.  1.
         21   -1    0    0  501  503 -0.00000000000E+00 -0.00000000000E+00 -0.81827616847E+03  0.81827616847E+03  0.00000000000E+00 0.  1.
    9000007    2    1    2  501    0 -0.16444060116E+02 -0.28224131301E+03 -0.52825059999E+03  0.71963250907E+03  0.39861219981E+03 0.  0.
    9000005    1    3    3    0    0  0.92853476935E+02 -0.13285835600E+03 -0.23512052517E+01  0.16210995990E+03  0.99999687468E+00 0.  0.
          4    1    3    3  501    0 -0.10929753705E+03 -0.14938295701E+03 -0.52589939474E+03  0.55752254918E+03  0.00000000000E+00 0.  1.
   -9000007    1    1    2    0  502  0.16444060116E+02  0.28224131301E+03  0.11432188454E+03  0.50299111242E+03  0.40000000000E+03 0.  1.
<mgrwt>
<rscale>  2 0.48954367E+03</rscale>
<asrwt>0</asrwt>
<pdfrwt beam="1">  1       21 0.62207301E-01 0.48982708E+03</pdfrwt>
<pdfrwt beam="2">  1       21 0.12588864E+00 0.48982708E+03</pdfrwt>
<totfact> 0.93649896E+02</totfact>
</mgrwt>
</event>
<event>
 6    1  0.9190795E-004  0.5154165E+03  0.7818608E-02  0.1009921E+00
         21   -1    0    0  503  502  0.00000000000E+00  0.00000000000E+00  0.33329651558E+03  0.33329651558E+03  0.00000000000E+00 0. -1.
         21   -1    0    0  501  503 -0.00000000000E+00 -0.00000000000E+00 -0.10837591825E+04  0.10837591825E+04  0.00000000000E+00 0.  1.
    9000007    2    1    2  501    0 -0.17805051073E+03 -0.27194154335E+03 -0.74066767022E+03  0.90154611590E+03  0.39817410014E+03 0.  0.
    9000005    1    3    3    0    0 -0.25106155663E+03 -0.12784679847E+03 -0.22316102309E+03  0.35941417796E+03  0.99999687468E+00 0.  0.
          4    1    3    3  501    0  0.73011045892E+02 -0.14409474488E+03 -0.51750664712E+03  0.54213193795E+03  0.00000000000E+00 0.  1.
   -9000007    1    1    2    0  502  0.17805051073E+03  0.27194154335E+03 -0.97949967114E+01  0.51550958219E+03  0.40000000000E+03 0. -1.
<mgrwt>
<rscale>  2 0.51506222E+03</rscale>
<asrwt>0</asrwt>
<pdfrwt beam="1">  1       21 0.51276386E-01 0.51541652E+03</pdfrwt>
<pdfrwt beam="2">  1       21 0.16673219E+00 0.51541652E+03</pdfrwt>
<totfact> 0.66087318E+02</totfact>
</mgrwt>
</event>
<event>
 6    1  0.9190795E-004  0.4013657E+03  0.7818608E-02  0.1043342E+00
         21   -1    0    0  503  502  0.00000000000E+00  0.00000000000E+00  0.11955487516E+04  0.11955487516E+04  0.00000000000E+00 0.  1.
         21   -1    0    0  501  503 -0.00000000000E+00 -0.00000000000E+00 -0.15288375400E+03  0.15288375400E+03  0.00000000000E+00 0.  1.
    9000007    2    1    2  501    0  0.32652283399E+02 -0.53172992469E+01  0.28802701198E+03  0.49369691221E+03  0.39960309835E+03 0.  0.
    9000005    1    3    3    0    0  0.10012961300E+02  0.19005225614E+03  0.77215669925E+02  0.20538592730E+03  0.99999687468E+00 0.  0.
          4    1    3    3  501    0  0.22639322099E+02 -0.19536955539E+03  0.21081134205E+03  0.28831098490E+03  0.00000000000E+00 0.  1.
   -9000007    1    1    2    0  502 -0.32652283399E+02  0.53172992469E+01  0.75463798563E+03  0.85473559341E+03  0.40000000000E+03 0.  1.
<mgrwt>
<rscale>  2 0.40126680E+03</rscale>
<asrwt>0</asrwt>
<pdfrwt beam="1">  1       21 0.18393057E+00 0.40136573E+03</pdfrwt>
<pdfrwt beam="2">  1       21 0.23520578E-01 0.40136573E+03</pdfrwt>
<totfact> 0.25355479E+03</totfact>
</mgrwt>
</event>
<event>
 6    1  0.9190795E-004  0.4589129E+03  0.7818608E-02  0.1025173E+00
         21   -1    0    0  503  502  0.00000000000E+00  0.00000000000E+00  0.40562412192E+03  0.40562412192E+03  0.00000000000E+00 0.  1.
         21   -1    0    0  501  503 -0.00000000000E+00 -0.00000000000E+00 -0.58661387520E+03  0.58661387520E+03  0.00000000000E+00 0.  1.
    9000007    2    1    2  501    0  0.15211920320E+03 -0.16571309103E+03 -0.26004820008E+03  0.52656502331E+03  0.39880393288E+03 0.  0.
    9000005    1    3    3    0    0 -0.79414451614E+02  0.84800826816E+02 -0.77594888518E+02  0.13971328524E+03  0.99999687468E+00 0.  0.
          4    1    3    3  501    0  0.23153365481E+03 -0.25051391785E+03 -0.18245331157E+03  0.38685173807E+03  0.00000000000E+00 0.  1.
   -9000007    1    1    2    0  502 -0.15211920320E+03  0.16571309103E+03  0.79058446807E+02  0.46567297381E+03  0.40000000000E+03 0.  1.
<mgrwt>
<rscale>  2 0.45865217E+03</rscale>
<asrwt>0</asrwt>
<pdfrwt beam="1">  1       21 0.62403711E-01 0.45891293E+03</pdfrwt>
<pdfrwt beam="2">  1       21 0.90248288E-01 0.45891293E+03</pdfrwt>
<totfact> 0.21413328E+03</totfact>
</mgrwt>
</event>
<event>
 6    1  0.9190795E-004  0.4507397E+03  0.7818608E-02  0.1027507E+00
         21   -1    0    0  503  502  0.00000000000E+00  0.00000000000E+00  0.22824457554E+04  0.22824457554E+04  0.00000000000E+00 0. -1.
         21   -1    0    0  501  503 -0.00000000000E+00 -0.00000000000E+00 -0.32474191237E+03  0.32474191237E+03  0.00000000000E+00 0. -1.
    9000007    2    1    2  501    0 -0.15048938947E+03 -0.14302407060E+03 -0.13181689602E+03  0.46961898816E+03  0.40007919072E+03 0.  0.
    9000005    1    3    3    0    0  0.61221613864E+02 -0.21319623281E+03 -0.27903683153E+02  0.22356282163E+03  0.99999687468E+00 0.  0.
          4    1    3    3  501    0 -0.21171100333E+03  0.70172162202E+02 -0.10391321287E+03  0.24605616653E+03  0.00000000000E+00 0.  1.
   -9000007    1    1    2    0  502  0.15048938947E+03  0.14302407060E+03  0.20895207391E+04  0.21375686797E+04  0.40000000000E+03 0. -1.
<mgrwt>
<rscale>  2 0.45072215E+03</rscale>
<asrwt>0</asrwt>
<pdfrwt beam="1">  1       21 0.35114549E+00 0.45073973E+03</pdfrwt>
<pdfrwt beam="2">  1       21 0.49960296E-01 0.45073973E+03</pdfrwt>
<totfact> 0.49312515E+01</totfact>
</mgrwt>
</event>
<event>
 6    1  0.9190795E-004  0.4711304E+03  0.7818608E-02  0.1021605E+00
         21   -1    0    0  503  502  0.00000000000E+00  0.00000000000E+00  0.44516881465E+03  0.44516881465E+03  0.00000000000E+00 0.  1.
         21   -1    0    0  501  503 -0.00000000000E+00 -0.00000000000E+00 -0.11162137432E+04  0.11162137432E+04  0.00000000000E+00 0. -1.
    9000007    2    1    2  501    0 -0.20633549773E+03  0.13924625167E+03 -0.91625205738E+03  0.10302607335E+04  0.39994435887E+03 0.  0.
    9000005    1    3    3    0    0  0.23206947620E+01  0.77764439366E+02 -0.75621357585E+03  0.76020567345E+03  0.99999687468E+00 0.  0.
          4    1    3    3  501    0 -0.20865619249E+03  0.61481812303E+02 -0.16003848153E+03  0.27005506009E+03  0.00000000000E+00 0.  1.
   -9000007    1    1    2    0  502  0.20633549773E+03 -0.13924625167E+03  0.24520712883E+03  0.53112182431E+03  0.40000000000E+03 0.  1.
<mgrwt>
<rscale>  2 0.47111859E+03</rscale>
<asrwt>0</asrwt>
<pdfrwt beam="1">  1       21 0.68487510E-01 0.47113040E+03</pdfrwt>
<pdfrwt beam="2">  1       21 0.17172519E+00 0.47113040E+03</pdfrwt>
<totfact> 0.32838639E+02</totfact>
</mgrwt>
</event>
<event>
 6    1  0.9190795E-004  0.4315291E+03  0.7818608E-02  0.1033386E+00
         21   -1    0    0  503  502  0.00000000000E+00  0.00000000000E+00  0.25264930934E+03  0.25264930934E+03  0.00000000000E+00 0.  1.
         21   -1    0    0  501  503 -0.00000000000E+00 -0.00000000000E+00 -0.18049917577E+04  0.18049917577E+04  0.00000000000E+00 0.  1.
    9000007    2    1    2  501    0  0.12472346786E+03  0.10325411549E+03 -0.15675596848E+04  0.16258437534E+04  0.39988396939E+03 0.  0.
    9000005    1    3    3    0    0  0.16211768036E+03  0.15012430833E+03 -0.40181695586E+03  0.45856004650E+03  0.99999687468E+00 0.  0.
          4    1    3    3  501    0 -0.37394212500E+02 -0.46870192836E+02 -0.11657427290E+04  0.11672837069E+04  0.00000000000E+00 0.  1.
   -9000007    1    1    2    0  502 -0.12472346786E+03 -0.10325411549E+03  0.15217236505E+02  0.43179731367E+03  0.40000000000E+03 0.  1.
<mgrwt>
<rscale>  2 0.43150220E+03</rscale>
<asrwt>0</asrwt>
<pdfrwt beam="1">  1       21 0.38869126E-01 0.43152909E+03</pdfrwt>
<pdfrwt beam="2">  1       21 0.27769103E+00 0.43152909E+03</pdfrwt>
<totfact> 0.23434714E+02</totfact>
</mgrwt>
</event>
<event>
 6    1  0.9190795E-004  0.4410355E+03  0.7818608E-02  0.1030447E+00
         21   -1    0    0  503  502  0.00000000000E+00  0.00000000000E+00  0.20289760687E+04  0.20289760687E+04  0.00000000000E+00 0.  1.
         21   -1    0    0  501  503 -0.00000000000E+00 -0.00000000000E+00 -0.19742162666E+03  0.19742162666E+03  0.00000000000E+00 0. -1.
    9000007    2    1    2  501    0  0.30408246990E+02 -0.18326942372E+03  0.11705640114E+03  0.45608250437E+03  0.39974580247E+03 0.  0.
    9000005    1    3    3    0    0 -0.10216996032E+03  0.75355888256E+01 -0.96324040868E+02  0.14062292393E+03  0.99999687468E+00 0.  0.
          4    1    3    3  501    0  0.13257820731E+03 -0.19080501254E+03  0.21338044200E+03  0.31545958045E+03  0.00000000000E+00 0.  1.
   -9000007    1    1    2    0  502 -0.30408246990E+02  0.18326942372E+03  0.17144980409E+04  0.17703151910E+04  0.40000000000E+03 0.  1.
<mgrwt>
<rscale>  2 0.44097789E+03</rscale>
<asrwt>0</asrwt>
<pdfrwt beam="1">  1       21 0.31215015E+00 0.44103554E+03</pdfrwt>
<pdfrwt beam="2">  1       21 0.30372559E-01 0.44103554E+03</pdfrwt>
<totfact> 0.23793019E+02</totfact>
</mgrwt>
</event>
<event>
 6    1  0.9190795E-004  0.4013306E+03  0.7818608E-02  0.1043354E+00
         21   -1    0    0  503  502  0.00000000000E+00  0.00000000000E+00  0.18512748454E+04  0.18512748454E+04  0.00000000000E+00 0. -1.
         21   -1    0    0  501  503 -0.00000000000E+00 -0.00000000000E+00 -0.23014527601E+03  0.23014527601E+03  0.00000000000E+00 0. -1.
    9000007    2    1    2  501    0 -0.23968537161E+02  0.22176292209E+02 -0.10582313658E+02  0.40107790984E+03  0.39960633840E+03 0.  0.
    9000005    1    3    3    0    0 -0.18839896771E+03 -0.35838295327E+02 -0.87137077924E+02  0.21064763181E+03  0.99999687468E+00 0.  0.
          4    1    3    3  501    0  0.16443043055E+03  0.58014587536E+02  0.76554764266E+02  0.19043027802E+03  0.00000000000E+00 0.  1.
   -9000007    1    1    2    0  502  0.23968537161E+02 -0.22176292209E+02  0.16317118831E+04  0.16803422116E+04  0.40000000000E+03 0. -1.
<mgrwt>
<rscale>  2 0.40123251E+03</rscale>
<asrwt>0</asrwt>
<pdfrwt beam="1">  1       21 0.28481151E+00 0.40133064E+03</pdfrwt>
<pdfrwt beam="2">  1       21 0.35406967E-01 0.40133064E+03</pdfrwt>
<totfact> 0.26178246E+02</totfact>
</mgrwt>
</event>
<event>
 6    1  0.9190795E-004  0.7272899E+03  0.7818608E-02  0.9671754E-01
         21   -1    0    0  503  502  0.00000000000E+00  0.00000000000E+00  0.44844684321E+03  0.44844684321E+03  0.00000000000E+00 0.  1.
         21   -1    0    0  501  503 -0.00000000000E+00 -0.00000000000E+00 -0.14467438535E+04  0.14467438535E+04  0.00000000000E+00 0.  1.
    9000007    2    1    2  501    0  0.60245516843E+03  0.77448811221E+02 -0.90660423013E+03  0.11621435535E+04  0.39961964467E+03 0.  0.
    9000005    1    3    3    0    0  0.13795279969E+03  0.17987538252E+03 -0.16217701855E+03  0.27872659277E+03  0.99999687468E+00 0.  0.
          4    1    3    3  501    0  0.46450236874E+03 -0.10242657130E+03 -0.74442721158E+03  0.88341696068E+03  0.00000000000E+00 0.  1.
   -9000007    1    1    2    0  502 -0.60245516843E+03 -0.77448811221E+02 -0.91692780176E+02  0.73304714327E+03  0.40000000000E+03 0.  1.
<mgrwt>
<rscale>  2 0.72723758E+03</rscale>
<asrwt>0</asrwt>
<pdfrwt beam="1">  1       21 0.68991822E-01 0.72728987E+03</pdfrwt>
<pdfrwt beam="2">  1       21 0.22257598E+00 0.72728987E+03</pdfrwt>
<totfact> 0.13133127E+02</totfact>
</mgrwt>
</event>
<event>
 6    1  0.9190795E-004  0.4584580E+03  0.7818608E-02  0.1025252E+00
         21   -1    0    0  503  502  0.00000000000E+00  0.00000000000E+00  0.16992506953E+04  0.16992506953E+04  0.00000000000E+00 0.  1.
         21   -1    0    0  501  503 -0.00000000000E+00 -0.00000000000E+00 -0.35227418105E+03  0.35227418105E+03  0.00000000000E+00 0.  1.
    9000007    2    1    2  501    0 -0.19576287990E+03  0.10890642566E+03 -0.15302291624E+03  0.48302814184E+03  0.39964541561E+03 0.  0.
    9000005    1    3    3    0    0 -0.25211037882E+03  0.10485958360E+01  0.39580625004E+02  0.25520260291E+03  0.99999687468E+00 0.  0.
          4    1    3    3  501    0  0.56347498924E+02  0.10785782982E+03 -0.19260354125E+03  0.22782553893E+03  0.00000000000E+00 0.  1.
   -9000007    1    1    2    0  502  0.19576287990E+03 -0.10890642566E+03  0.14999994305E+04  0.15684967345E+04  0.40000000000E+03 0.  1.
<mgrwt>
<rscale>  2 0.45838062E+03</rscale>
<asrwt>0</asrwt>
<pdfrwt beam="1">  1       21 0.26142318E+00 0.45845797E+03</pdfrwt>
<pdfrwt beam="2">  1       21 0.54196029E-01 0.45845797E+03</pdfrwt>
<totfact> 0.14388532E+02</totfact>
</mgrwt>
</event>
<event>
 6    1  0.9190795E-004  0.4116140E+03  0.7818608E-02  0.1039963E+00
         21   -1    0    0  503  502  0.00000000000E+00  0.00000000000E+00  0.17588177359E+04  0.17588177359E+04  0.00000000000E+00 0.  1.
         21   -1    0    0  501  503 -0.00000000000E+00 -0.00000000000E+00 -0.12370824740E+03  0.12370824740E+03  0.00000000000E+00 0. -1.
    9000007    2    1    2  501    0 -0.88366548900E+02 -0.40217592328E+02  0.37056003570E+03  0.55267207392E+03  0.39837868861E+03 0.  0.
    9000005    1    3    3    0    0 -0.20036543881E+03 -0.11930327993E+02  0.42913989910E+02  0.20525898840E+03  0.99999687468E+00 0.  0.
          4    1    3    3  501    0  0.11199888991E+03 -0.28287264335E+02  0.32764604579E+03  0.34741308551E+03  0.00000000000E+00 0.  1.
   -9000007    1    1    2    0  502  0.88366548900E+02  0.40217592328E+02  0.12645494528E+04  0.13298539094E+04  0.40000000000E+03 0.  1.
<mgrwt>
<rscale>  2 0.41121961E+03</rscale>
<asrwt>0</asrwt>
<pdfrwt beam="1">  1       21 0.27058733E+00 0.41161402E+03</pdfrwt>
<pdfrwt beam="2">  1       21 0.19032039E-01 0.41161402E+03</pdfrwt>
<totfact> 0.10639177E+03</totfact>
</mgrwt>
</event>
<event>
 6    1  0.9190795E-004  0.4242633E+03  0.7818608E-02  0.1036232E+00
         21   -1    0    0  503  502  0.00000000000E+00  0.00000000000E+00  0.49975631677E+03  0.49975631677E+03  0.00000000000E+00 0. -1.
         21   -1    0    0  501  503 -0.00000000000E+00 -0.00000000000E+00 -0.50764351327E+03  0.50764351327E+03  0.00000000000E+00 0. -1.
    9000007    2    1    2  501    0  0.16005995553E+02  0.11868501334E+03 -0.28062380811E+03  0.50867386962E+03  0.40700990120E+03 0.  0.
    9000005    1    3    3    0    0  0.16032230656E+03  0.50501122113E+02 -0.30398199204E+03  0.34736098917E+03  0.99999687468E+00 0.  0.
          4    1    3    3  501    0 -0.14431631100E+03  0.68183891231E+02  0.23358183938E+02  0.16131288046E+03  0.00000000000E+00 0.  1.
   -9000007    1    1    2    0  502 -0.16005995553E+02 -0.11868501334E+03  0.27273661160E+03  0.49872596042E+03  0.40000000000E+03 0. -1.
<mgrwt>
<rscale>  2 0.42257323E+03</rscale>
<asrwt>0</asrwt>
<pdfrwt beam="1">  1       21 0.76885587E-01 0.42426334E+03</pdfrwt>
<pdfrwt beam="2">  1       21 0.78099002E-01 0.42426334E+03</pdfrwt>
<totfact> 0.19021425E+03</totfact>
</mgrwt>
</event>
<event>
 6    1  0.9190795E-004  0.4012510E+03  0.7818608E-02  0.1043378E+00
         21   -1    0    0  503  502  0.00000000000E+00  0.00000000000E+00  0.76709367118E+03  0.76709367118E+03  0.00000000000E+00 0.  1.
         21   -1    0    0  501  503 -0.00000000000E+00 -0.00000000000E+00 -0.21661676430E+03  0.21661676430E+03  0.00000000000E+00 0.  1.
    9000007    2    1    2  501    0 -0.26826422360E+02 -0.14002413970E+01  0.18748416044E+03  0.44289128681E+03  0.40035080105E+03 0.  0.
    9000005    1    3    3    0    0 -0.78276750987E+02  0.18501108008E+03  0.54353211048E+02  0.20811444217E+03  0.99999687468E+00 0.  0.
          4    1    3    3  501    0  0.51450328627E+02 -0.18641132147E+03  0.13313094940E+03  0.23477684463E+03  0.00000000000E+00 0.  1.
   -9000007    1    1    2    0  502  0.26826422360E+02  0.14002413970E+01  0.36299274643E+03  0.54081914868E+03  0.40000000000E+03 0. -1.
<mgrwt>
<rscale>  2 0.40116349E+03</rscale>
<asrwt>0</asrwt>
<pdfrwt beam="1">  1       21 0.11801441E+00 0.40125102E+03</pdfrwt>
<pdfrwt beam="2">  1       21 0.33325657E-01 0.40125102E+03</pdfrwt>
<totfact> 0.42422214E+03</totfact>
</mgrwt>
</event>
<event>
 6    1  0.9190795E-004  0.5128980E+03  0.7818608E-02  0.1010477E+00
         21   -1    0    0  503  502  0.00000000000E+00  0.00000000000E+00  0.61229196080E+03  0.61229196080E+03  0.00000000000E+00 0. -1.
         21   -1    0    0  501  503 -0.00000000000E+00 -0.00000000000E+00 -0.67859246275E+03  0.67859246275E+03  0.00000000000E+00 0. -1.
    9000007    2    1    2  501    0 -0.12896572314E+03  0.29399358967E+03 -0.42419694906E+03  0.66546116258E+03  0.39978884277E+03 0.  0.
    9000005    1    3    3    0    0  0.10821169439E+03 -0.20937489780E+02 -0.14601596676E+03  0.18294756578E+03  0.99999687468E+00 0.  0.
          4    1    3    3  501    0 -0.23717741753E+03  0.31493107945E+03 -0.27818098230E+03  0.48251359681E+03  0.00000000000E+00 0.  1.
   -9000007    1    1    2    0  502  0.12896572314E+03 -0.29399358967E+03  0.35789644712E+03  0.62542326097E+03  0.40000000000E+03 0.  1.
<mgrwt>
<rscale>  2 0.51285686E+03</rscale>
<asrwt>0</asrwt>
<pdfrwt beam="1">  1       21 0.94198763E-01 0.51289803E+03</pdfrwt>
<pdfrwt beam="2">  1       21 0.10439884E+00 0.51289803E+03</pdfrwt>
<totfact> 0.57279234E+02</totfact>
</mgrwt>
</event>
<event>
 6    1  0.9190795E-004  0.4619637E+03  0.7818608E-02  0.1024226E+00
         21   -1    0    0  503  502  0.00000000000E+00  0.00000000000E+00  0.62655293415E+03  0.62655293415E+03  0.00000000000E+00 0.  1.
         21   -1    0    0  501  503 -0.00000000000E+00 -0.00000000000E+00 -0.47551690396E+03  0.47551690396E+03  0.00000000000E+00 0.  1.
    9000007    2    1    2  501    0 -0.13852854547E+03 -0.18455994208E+03 -0.21811206968E+03  0.51086526288E+03  0.40019734101E+03 0.  0.
    9000005    1    3    3    0    0 -0.53934376805E+02 -0.30650360825E+03 -0.12328363023E+03  0.33474353219E+03  0.99999687468E+00 0.  0.
          4    1    3    3  501    0 -0.84594168663E+02  0.12194366617E+03 -0.94828439451E+02  0.17612173068E+03  0.00000000000E+00 0.  1.
   -9000007    1    1    2    0  502  0.13852854547E+03  0.18455994208E+03  0.36914809987E+03  0.59120457522E+03  0.40000000000E+03 0.  1.
<mgrwt>
<rscale>  2 0.46192094E+03</rscale>
<asrwt>0</asrwt>
<pdfrwt beam="1">  1       21 0.96392759E-01 0.46196368E+03</pdfrwt>
<pdfrwt beam="2">  1       21 0.73156447E-01 0.46196368E+03</pdfrwt>
<totfact> 0.12801734E+03</totfact>
</mgrwt>
</event>
<event>
 6    1  0.9190795E-004  0.4098840E+03  0.7818608E-02  0.1040502E+00
         21   -1    0    0  503  502  0.00000000000E+00  0.00000000000E+00  0.18637933936E+03  0.18637933936E+03  0.00000000000E+00 0. -1.
         21   -1    0    0  501  503 -0.00000000000E+00 -0.00000000000E+00 -0.14829734760E+04  0.14829734760E+04  0.00000000000E+00 0. -1.
    9000007    2    1    2  501    0  0.80173262462E+02  0.26068742094E+02 -0.11726000968E+04  0.12421738678E+04  0.40112043003E+03 0.  0.
    9000005    1    3    3    0    0  0.58155582772E+02  0.94045564539E+02 -0.11650909737E+04  0.11703267138E+04  0.99999687468E+00 0.  0.
          4    1    3    3  501    0  0.22017679690E+02 -0.67976822445E+02 -0.75091231441E+01  0.71847154008E+02  0.00000000000E+00 0.  1.
   -9000007    1    1    2    0  502 -0.80173262462E+02 -0.26068742094E+02 -0.12399403979E+03  0.42717894755E+03  0.40000000000E+03 0. -1.
<mgrwt>
<rscale>  2 0.40960967E+03</rscale>
<asrwt>0</asrwt>
<pdfrwt beam="1">  1       21 0.28673744E-01 0.40988405E+03</pdfrwt>
<pdfrwt beam="2">  1       21 0.22814977E+00 0.40988405E+03</pdfrwt>
<totfact> 0.87909643E+02</totfact>
</mgrwt>
</event>
<event>
 6    1  0.9190795E-004  0.5101239E+03  0.7818608E-02  0.1011178E+00
         21   -1    0    0  503  502  0.00000000000E+00  0.00000000000E+00  0.48592387434E+03  0.48592387434E+03  0.00000000000E+00 0. -1.
         21   -1    0    0  501  503 -0.00000000000E+00 -0.00000000000E+00 -0.69483206915E+03  0.69483206915E+03  0.00000000000E+00 0.  1.
    9000007    2    1    2  501    0 -0.28261550272E+03  0.14267067498E+03 -0.38725438072E+03  0.64035442063E+03  0.39982669340E+03 0.  0.
    9000005    1    3    3    0    0 -0.28354609239E+03  0.16902479400E+02 -0.60765606942E+02  0.29047812190E+03  0.99999687468E+00 0.  0.
          4    1    3    3  501    0  0.93058966462E+00  0.12576819558E+03 -0.32648877377E+03  0.34987629874E+03  0.00000000000E+00 0.  1.
   -9000007    1    1    2    0  502  0.28261550272E+03 -0.14267067498E+03  0.17834618591E+03  0.54040152286E+03  0.40000000000E+03 0. -1.
<mgrwt>
<rscale>  2 0.51008998E+03</rscale>
<asrwt>0</asrwt>
<pdfrwt beam="1">  1       21 0.74757520E-01 0.51012395E+03</pdfrwt>
<pdfrwt beam="2">  1       21 0.10689724E+00 0.51012395E+03</pdfrwt>
<totfact> 0.92922652E+02</totfact>
</mgrwt>
</event>
<event>
 6    1  0.9190795E-004  0.4400895E+03  0.7818608E-02  0.1030728E+00
         21   -1    0    0  503  502  0.00000000000E+00  0.00000000000E+00  0.30550984015E+03  0.30550984015E+03  0.00000000000E+00 0.  1.
         21   -1    0    0  501  503 -0.00000000000E+00 -0.00000000000E+00 -0.12863486051E+04  0.12863486051E+04  0.00000000000E+00 0.  1.
    9000007    2    1    2  501    0 -0.18057199970E+03  0.31265720468E+02 -0.10573438145E+04  0.11452749536E+04  0.40011871373E+03 0.  0.
    9000005    1    3    3    0    0 -0.76772845657E+02 -0.16255964389E+03 -0.72372471783E+03  0.74571990375E+03  0.99999687468E+00 0.  0.
          4    1    3    3  501    0 -0.10379915404E+03  0.19382536436E+03 -0.33361909663E+03  0.39955504988E+03  0.00000000000E+00 0.  1.
   -9000007    1    1    2    0  502  0.18057199970E+03 -0.31265720468E+02  0.76505049549E+02  0.44658349159E+03  0.40000000000E+03 0.  1.
<mgrwt>
<rscale>  2 0.44006253E+03</rscale>
<asrwt>0</asrwt>
<pdfrwt beam="1">  1       21 0.47001513E-01 0.44008951E+03</pdfrwt>
<pdfrwt beam="2">  1       21 0.19789979E+00 0.44008951E+03</pdfrwt>
<totfact> 0.49669799E+02</totfact>
</mgrwt>
</event>
<event>
 6    1  0.9190795E-004  0.4259289E+03  0.7818608E-02  0.1035166E+00
         21   -1    0    0  503  502  0.00000000000E+00  0.00000000000E+00  0.11421367449E+04  0.11421367449E+04  0.00000000000E+00 0. -1.
         21   -1    0    0  501  503 -0.00000000000E+00 -0.00000000000E+00 -0.26871332304E+03  0.26871332304E+03  0.00000000000E+00 0. -1.
    9000007    2    1    2  501    0 -0.14094316093E+03 -0.39375663438E+02 -0.14539993201E+02  0.42601787718E+03  0.39983046756E+03 0.  0.
    9000005    1    3    3    0    0  0.49439603785E+02 -0.12221742019E+03 -0.13275291323E+03  0.18709812448E+03  0.99999687468E+00 0.  0.
          4    1    3    3  501    0 -0.19038276472E+03  0.82841756751E+02  0.11821292003E+03  0.23891975269E+03  0.00000000000E+00 0.  1.
   -9000007    1    1    2    0  502  0.14094316093E+03  0.39375663438E+02  0.88796341508E+03  0.98483219079E+03  0.40000000000E+03 0. -1.
<mgrwt>
<rscale>  2 0.42588908E+03</rscale>
<asrwt>0</asrwt>
<pdfrwt beam="1">  1       21 0.17571334E+00 0.42592889E+03</pdfrwt>
<pdfrwt beam="2">  1       21 0.41340512E-01 0.42592889E+03</pdfrwt>
<totfact> 0.93011678E+02</totfact>
</mgrwt>
</event>
<event>
 6    1  0.9190795E-004  0.4382874E+03  0.7818608E-02  0.1031277E+00
         21   -1    0    0  503  502  0.00000000000E+00  0.00000000000E+00  0.60337207281E+03  0.60337207281E+03  0.00000000000E+00 0.  1.
         21   -1    0    0  501  503 -0.00000000000E+00 -0.00000000000E+00 -0.59738407943E+03  0.59738407943E+03  0.00000000000E+00 0. -1.
    9000007    2    1    2  501    0 -0.10638180625E+02  0.17883704281E+03 -0.40733627672E+03  0.59831710054E+03  0.39995581218E+03 0.  0.
    9000005    1    3    3    0    0  0.19024171550E+03  0.62588643421E+02 -0.14036751661E+03  0.24456755368E+03  0.99999687468E+00 0.  0.
          4    1    3    3  501    0 -0.20087989612E+03  0.11624839939E+03 -0.26696876011E+03  0.35374954685E+03  0.00000000000E+00 0.  1.
   -9000007    1    1    2    0  502  0.10638180625E+02 -0.17883704281E+03  0.41332427010E+03  0.60243905170E+03  0.40000000000E+03 0.  1.
<mgrwt>
<rscale>  2 0.43827733E+03</rscale>
<asrwt>0</asrwt>
<pdfrwt beam="1">  1       21 0.92826472E-01 0.43828742E+03</pdfrwt>
<pdfrwt beam="2">  1       21 0.91905243E-01 0.43828742E+03</pdfrwt>
<totfact> 0.83276160E+02</totfact>
</mgrwt>
</event>
<event>
 6    1  0.9190795E-004  0.4879905E+03  0.7818608E-02  0.1017000E+00
         21   -1    0    0  503  502  0.00000000000E+00  0.00000000000E+00  0.17490748961E+04  0.17490748961E+04  0.00000000000E+00 0. -1.
         21   -1    0    0  501  503 -0.00000000000E+00 -0.00000000000E+00 -0.16627283974E+03  0.16627283974E+03  0.00000000000E+00 0. -1.
    9000007    2    1    2  501    0  0.21014525615E+03  0.18283807356E+03  0.38309353731E+03  0.62039935058E+03  0.40067930573E+03 0.  0.
    9000005    1    3    3    0    0  0.16201697037E+03  0.21727599317E+03  0.42070694657E+02  0.27427960047E+03  0.99999687468E+00 0.  0.
          4    1    3    3  501    0  0.48128285782E+02 -0.34437919609E+02  0.34102284266E+03  0.34611975010E+03  0.00000000000E+00 0.  1.
   -9000007    1    1    2    0  502 -0.21014525615E+03 -0.18283807356E+03  0.11997085191E+04  0.12949483853E+04  0.40000000000E+03 0. -1.
<mgrwt>
<rscale>  2 0.48785100E+03</rscale>
<asrwt>0</asrwt>
<pdfrwt beam="1">  1       21 0.26908843E+00 0.48799047E+03</pdfrwt>
<pdfrwt beam="2">  1       21 0.25580438E-01 0.48799047E+03</pdfrwt>
<totfact> 0.59120064E+02</totfact>
</mgrwt>
</event>
<event>
 6    1  0.9190795E-004  0.4140720E+03  0.7818608E-02  0.1039072E+00
         21   -1    0    0  503  502  0.00000000000E+00  0.00000000000E+00  0.32865847162E+03  0.32865847162E+03  0.00000000000E+00 0. -1.
         21   -1    0    0  501  503 -0.00000000000E+00 -0.00000000000E+00 -0.52079561184E+03  0.52079561184E+03  0.00000000000E+00 0. -1.
    9000007    2    1    2  501    0  0.67440191991E+02 -0.79521516841E+02 -0.96710205959E+02  0.42521576492E+03  0.40072900027E+03 0.  0.
    9000005    1    3    3    0    0  0.21072236310E+02 -0.13654459599E+03  0.12827462669E+03  0.18853075527E+03  0.99999687468E+00 0.  0.
          4    1    3    3  501    0  0.46367955681E+02  0.57023079153E+02 -0.22498483264E+03  0.23668500964E+03  0.00000000000E+00 0.  1.
   -9000007    1    1    2    0  502 -0.67440191991E+02  0.79521516841E+02 -0.95426934266E+02  0.42423831854E+03  0.40000000000E+03 0. -1.
<mgrwt>
<rscale>  2 0.41389547E+03</rscale>
<asrwt>0</asrwt>
<pdfrwt beam="1">  1       21 0.50562842E-01 0.41407195E+03</pdfrwt>
<pdfrwt beam="2">  1       21 0.80122401E-01 0.41407195E+03</pdfrwt>
<totfact> 0.45346039E+03</totfact>
</mgrwt>
</event>
<event>
 6    1  0.9190795E-004  0.4974006E+03  0.7818608E-02  0.1014466E+00
         21   -1    0    0  503  502  0.00000000000E+00  0.00000000000E+00  0.68000602373E+03  0.68000602373E+03  0.00000000000E+00 0. -1.
         21   -1    0    0  501  503 -0.00000000000E+00 -0.00000000000E+00 -0.62332296628E+03  0.62332296628E+03  0.00000000000E+00 0.  1.
    9000007    2    1    2  501    0 -0.29235364982E+03 -0.44008520128E+02 -0.39218548895E+03  0.63333617038E+03  0.39987228031E+03 0.  0.
    9000005    1    3    3    0    0 -0.17968073705E+03 -0.21459556740E+03 -0.15404582037E+03  0.31948010827E+03  0.99999687468E+00 0.  0.
          4    1    3    3  501    0 -0.11267291277E+03  0.17058704727E+03 -0.23813966859E+03  0.31385606211E+03  0.00000000000E+00 0.  1.
   -9000007    1    1    2    0  502  0.29235364982E+03  0.44008520128E+02  0.44886854641E+03  0.66999281963E+03  0.40000000000E+03 0. -1.
<mgrwt>
<rscale>  2 0.49737497E+03</rscale>
<asrwt>0</asrwt>
<pdfrwt beam="1">  1       21 0.10461631E+00 0.49740065E+03</pdfrwt>
<pdfrwt beam="2">  1       21 0.95895841E-01 0.49740065E+03</pdfrwt>
<totfact> 0.54920453E+02</totfact>
</mgrwt>
</event>
<event>
 6    1  0.9190795E-004  0.4712734E+03  0.7818608E-02  0.1021573E+00
         21   -1    0    0  503  502  0.00000000000E+00  0.00000000000E+00  0.48500081222E+03  0.48500081222E+03  0.00000000000E+00 0. -1.
         21   -1    0    0  501  503 -0.00000000000E+00 -0.00000000000E+00 -0.57964794023E+03  0.57964794023E+03  0.00000000000E+00 0. -1.
    9000007    2    1    2  501    0 -0.14131919610E+03  0.20485831351E+03 -0.29142516982E+03  0.55410037909E+03  0.40020064556E+03 0.  0.
    9000005    1    3    3    0    0  0.96773000758E+01  0.18086967133E+03  0.43191446344E+02  0.18620953030E+03  0.99999687468E+00 0.  0.
          4    1    3    3  501    0 -0.15099649618E+03  0.23988642180E+02 -0.33461661616E+03  0.36789084879E+03  0.00000000000E+00 0.  1.
   -9000007    1    1    2    0  502  0.14131919610E+03 -0.20485831351E+03  0.19677804180E+03  0.51054837336E+03  0.40000000000E+03 0. -1.
<mgrwt>
<rscale>  2 0.47123078E+03</rscale>
<asrwt>0</asrwt>
<pdfrwt beam="1">  1       21 0.74615510E-01 0.47127338E+03</pdfrwt>
<pdfrwt beam="2">  1       21 0.89176605E-01 0.47127338E+03</pdfrwt>
<totfact> 0.14683737E+03</totfact>
</mgrwt>
</event>
<event>
 6    1  0.9190795E-004  0.5970382E+03  0.7818608E-02  0.9911734E-01
         21   -1    0    0  503  502  0.00000000000E+00  0.00000000000E+00  0.28496142522E+03  0.28496142522E+03  0.00000000000E+00 0.  1.
         21   -1    0    0  501  503 -0.00000000000E+00 -0.00000000000E+00 -0.12591724738E+04  0.12591724738E+04  0.00000000000E+00 0.  1.
    9000007    2    1    2  501    0  0.34835089259E+03 -0.27336838343E+03 -0.42216007794E+03  0.73121392042E+03  0.40046978485E+03 0.  0.
    9000005    1    3    3    0    0  0.18541704105E+02 -0.17653690729E+03  0.11461356031E+02  0.17788040112E+03  0.99999687468E+00 0.  0.
          4    1    3    3  501    0  0.32980918848E+03 -0.96831476141E+02 -0.43362143397E+03  0.55333351929E+03  0.00000000000E+00 0.  1.
   -9000007    1    1    2    0  502 -0.34835089259E+03  0.27336838343E+03 -0.55205097064E+03  0.81291997860E+03  0.40000000000E+03 0.  1.
<mgrwt>
<rscale>  2 0.59695948E+03</rscale>
<asrwt>0</asrwt>
<pdfrwt beam="1">  1       21 0.43840219E-01 0.59703825E+03</pdfrwt>
<pdfrwt beam="2">  1       21 0.19371884E+00 0.59703825E+03</pdfrwt>
<totfact> 0.57454794E+02</totfact>
</mgrwt>
</event>
<event>
 6    1  0.9190795E-004  0.4060230E+03  0.7818608E-02  0.1041719E+00
         21   -1    0    0  503  502  0.00000000000E+00  0.00000000000E+00  0.19763498005E+03  0.19763498005E+03  0.00000000000E+00 0. -1.
         21   -1    0    0  501  503 -0.00000000000E+00 -0.00000000000E+00 -0.83468774258E+03  0.83468774258E+03  0.00000000000E+00 0. -1.
    9000007    2    1    2  501    0 -0.39545335051E+02 -0.56909102099E+02 -0.33331266386E+03  0.52531135493E+03  0.40006525506E+03 0.  0.
    9000005    1    3    3    0    0  0.23559010123E+00  0.41303707474E+02 -0.39867507250E+03  0.40081026082E+03  0.99999687468E+00 0.  0.
          4    1    3    3  501    0 -0.39780925152E+02 -0.98212809573E+02  0.65362408646E+02  0.12450109411E+03  0.00000000000E+00 0.  1.
   -9000007    1    1    2    0  502  0.39545335051E+02  0.56909102099E+02 -0.30374009868E+03  0.50701136769E+03  0.40000000000E+03 0. -1.
<mgrwt>
<rscale>  2 0.40600694E+03</rscale>
<asrwt>0</asrwt>
<pdfrwt beam="1">  1       21 0.30405382E-01 0.40602301E+03</pdfrwt>
<pdfrwt beam="2">  1       21 0.12841350E+00 0.40602301E+03</pdfrwt>
<totfact> 0.40984503E+03</totfact>
</mgrwt>
</event>
<event>
 6    1  0.9190795E-004  0.4133887E+03  0.7818608E-02  0.1039283E+00
         21   -1    0    0  503  502  0.00000000000E+00  0.00000000000E+00  0.23946443479E+03  0.23946443479E+03  0.00000000000E+00 0.  1.
         21   -1    0    0  501  503 -0.00000000000E+00 -0.00000000000E+00 -0.72921968955E+03  0.72921968955E+03  0.00000000000E+00 0.  1.
    9000007    2    1    2  501    0 -0.10229326803E+03  0.10539941463E+01 -0.31782222063E+03  0.52144147005E+03  0.40053117129E+03 0.  0.
    9000005    1    3    3    0    0 -0.16811205750E+03 -0.88499092194E+01  0.26784912407E+02  0.17046529353E+03  0.99999687468E+00 0.  0.
          4    1    3    3  501    0  0.65818789466E+02  0.99039033658E+01 -0.34460713303E+03  0.35097617652E+03  0.00000000000E+00 0.  1.
   -9000007    1    1    2    0  502  0.10229326803E+03 -0.10539941463E+01 -0.17193303414E+03  0.44724265429E+03  0.40000000000E+03 0. -1.
<mgrwt>
<rscale>  2 0.41326001E+03</rscale>
<asrwt>0</asrwt>
<pdfrwt beam="1">  1       21 0.36840684E-01 0.41338873E+03</pdfrwt>
<pdfrwt beam="2">  1       21 0.11218764E+00 0.41338873E+03</pdfrwt>
<totfact> 0.39123034E+03</totfact>
</mgrwt>
</event>
<event>
 6    1  0.9190795E-004  0.4079760E+03  0.7818608E-02  0.1041066E+00
         21   -1    0    0  503  502  0.00000000000E+00  0.00000000000E+00  0.42605046805E+03  0.42605046805E+03  0.00000000000E+00 0. -1.
         21   -1    0    0  501  503 -0.00000000000E+00 -0.00000000000E+00 -0.15130135428E+04  0.15130135428E+04  0.00000000000E+00 0. -1.
    9000007    2    1    2  501    0  0.29767667442E+02  0.73659771485E+02 -0.13786009867E+04  0.14377013201E+04  0.40016562737E+03 0.  0.
    9000005    1    3    3    0    0  0.81434307187E+02  0.22931316991E+03 -0.78409807739E+03  0.82099139535E+03  0.99999687468E+00 0.  0.
          4    1    3    3  501    0 -0.51666639745E+02 -0.15565339843E+03 -0.59450290932E+03  0.61670992476E+03  0.00000000000E+00 0.  1.
   -9000007    1    1    2    0  502 -0.29767667442E+02 -0.73659771485E+02  0.29163791197E+03  0.50136269073E+03  0.40000000000E+03 0. -1.
<mgrwt>
<rscale>  2 0.40793537E+03</rscale>
<asrwt>0</asrwt>
<pdfrwt beam="1">  1       21 0.65546226E-01 0.40797599E+03</pdfrwt>
<pdfrwt beam="2">  1       21 0.23277131E+00 0.40797599E+03</pdfrwt>
<totfact> 0.14691193E+02</totfact>
</mgrwt>
</event>
<event>
 6    1  0.9190795E-004  0.4762507E+03  0.7818608E-02  0.1020172E+00
         21   -1    0    0  503  502  0.00000000000E+00  0.00000000000E+00  0.18668698684E+03  0.18668698684E+03  0.00000000000E+00 0.  1.
         21   -1    0    0  501  503 -0.00000000000E+00 -0.00000000000E+00 -0.13330968774E+04  0.13330968774E+04  0.00000000000E+00 0. -1.
    9000007    2    1    2  501    0  0.11484551318E+03  0.23153982830E+03 -0.79947440662E+03  0.93057726717E+03  0.40001817378E+03 0.  0.
    9000005    1    3    3    0    0 -0.60299768233E+02  0.19274659900E+03 -0.69330970727E+03  0.72212648730E+03  0.99999687468E+00 0.  0.
          4    1    3    3  501    0  0.17514528141E+03  0.38793229296E+02 -0.10616469935E+03  0.20845077987E+03  0.00000000000E+00 0.  1.
   -9000007    1    1    2    0  502 -0.11484551318E+03 -0.23153982830E+03 -0.34693548390E+03  0.58920659702E+03  0.40000000000E+03 0.  1.
<mgrwt>
<rscale>  2 0.47624688E+03</rscale>
<asrwt>0</asrwt>
<pdfrwt beam="1">  1       21 0.28721075E-01 0.47625069E+03</pdfrwt>
<pdfrwt beam="2">  1       21 0.20509183E+00 0.47625069E+03</pdfrwt>
<totfact> 0.11945267E+03</totfact>
</mgrwt>
</event>
<event>
 6    1  0.9190795E-004  0.4558827E+03  0.7818608E-02  0.1025985E+00
         21   -1    0    0  503  502  0.00000000000E+00  0.00000000000E+00  0.11048375189E+04  0.11048375189E+04  0.00000000000E+00 0. -1.
         21   -1    0    0  501  503 -0.00000000000E+00 -0.00000000000E+00 -0.24121767768E+03  0.24121767768E+03  0.00000000000E+00 0. -1.
    9000007    2    1    2  501    0  0.13708068079E+03 -0.17040510732E+03  0.11595502791E+03  0.47036593279E+03  0.39996190892E+03 0.  0.
    9000005    1    3    3    0    0  0.41057295975E+02 -0.26387486526E+03  0.17979081120E+03  0.32193381595E+03  0.99999687468E+00 0.  0.
          4    1    3    3  501    0  0.96023384817E+02  0.93469757935E+02 -0.63835783298E+02  0.14843211684E+03  0.00000000000E+00 0.  1.
   -9000007    1    1    2    0  502 -0.13708068079E+03  0.17040510732E+03  0.74766481336E+03  0.87568926383E+03  0.40000000000E+03 0. -1.
<mgrwt>
<rscale>  2 0.45587432E+03</rscale>
<asrwt>0</asrwt>
<pdfrwt beam="1">  1       21 0.16997500E+00 0.45588268E+03</pdfrwt>
<pdfrwt beam="2">  1       21 0.37110413E-01 0.45588268E+03</pdfrwt>
<totfact> 0.12598206E+03</totfact>
</mgrwt>
</event>
<event>
 6    1  0.9190795E-004  0.4220779E+03  0.7818608E-02  0.1036400E+00
         21   -1    0    0  503  502  0.00000000000E+00  0.00000000000E+00  0.70407956377E+03  0.70407956377E+03  0.00000000000E+00 0. -1.
         21   -1    0    0  501  503 -0.00000000000E+00 -0.00000000000E+00 -0.29805515095E+03  0.29805515095E+03  0.00000000000E+00 0. -1.
    9000007    2    1    2  501    0  0.13456009505E+03  0.65817870143E+01  0.81038722952E+01  0.42205670645E+03  0.39989555088E+03 0.  0.
    9000005    1    3    3    0    0  0.24105721477E+03  0.10848030709E+03 -0.39252536022E+02  0.26724206143E+03  0.99999687468E+00 0.  0.
          4    1    3    3  501    0 -0.10649711972E+03 -0.10189852008E+03  0.47356408317E+02  0.15481464502E+03  0.00000000000E+00 0.  1.
   -9000007    1    1    2    0  502 -0.13456009505E+03 -0.65817870143E+01  0.39792054053E+03  0.58007800827E+03  0.40000000000E+03 0. -1.
<mgrwt>
<rscale>  2 0.42205313E+03</rscale>
<asrwt>0</asrwt>
<pdfrwt beam="1">  1       21 0.10831993E+00 0.42207788E+03</pdfrwt>
<pdfrwt beam="2">  1       21 0.45854639E-01 0.42207788E+03</pdfrwt>
<totfact> 0.27067775E+03</totfact>
</mgrwt>
</event>
<event>
 6    1  0.9190795E-004  0.4361914E+03  0.7818608E-02  0.1032161E+00
         21   -1    0    0  503  502  0.00000000000E+00  0.00000000000E+00  0.34063018299E+03  0.34063018299E+03  0.00000000000E+00 0.  1.
         21   -1    0    0  501  503 -0.00000000000E+00 -0.00000000000E+00 -0.63675087426E+03  0.63675087426E+03  0.00000000000E+00 0.  1.
    9000007    2    1    2  501    0 -0.95492767552E+02 -0.14541008873E+03 -0.32310370084E+03  0.54035583445E+03  0.39664274072E+03 0.  0.
    9000005    1    3    3    0    0 -0.12756126944E+03 -0.26534850855E+03 -0.15909204382E+03  0.33465353256E+03  0.99999687468E+00 0.  0.
          4    1    3    3  501    0  0.32068501892E+02  0.11993841982E+03 -0.16401165702E+03  0.20570230189E+03  0.00000000000E+00 0.  1.
   -9000007    1    1    2    0  502  0.95492767552E+02  0.14541008873E+03  0.26983009569E+02  0.43702522280E+03  0.40000000000E+03 0. -1.
<mgrwt>
<rscale>  2 0.43542023E+03</rscale>
<asrwt>0</asrwt>
<pdfrwt beam="1">  1       21 0.52404644E-01 0.43619143E+03</pdfrwt>
<pdfrwt beam="2">  1       21 0.97961672E-01 0.43619143E+03</pdfrwt>
<totfact> 0.25942433E+03</totfact>
</mgrwt>
</event>
<event>
 6    1  0.9190795E-004  0.4626636E+03  0.7818608E-02  0.1024024E+00
         21   -1    0    0  503  502  0.00000000000E+00  0.00000000000E+00  0.22194666210E+04  0.22194666210E+04  0.00000000000E+00 0. -1.
         21   -1    0    0  501  503 -0.00000000000E+00 -0.00000000000E+00 -0.15054829493E+03  0.15054829493E+03  0.00000000000E+00 0. -1.
    9000007    2    1    2  501    0 -0.20750709624E+03  0.10412661657E+03  0.17451943376E+04  0.18054808001E+04  0.40019507262E+03 0.  0.
    9000005    1    3    3    0    0 -0.29098676993E+03 -0.26784171937E+02  0.90334018962E+03  0.94942887586E+03  0.99999687468E+00 0.  0.
          4    1    3    3  501    0  0.83479673690E+02  0.13091078851E+03  0.84185414800E+03  0.85605192423E+03  0.00000000000E+00 0.  1.
   -9000007    1    1    2    0  502  0.20750709624E+03 -0.10412661657E+03  0.32372398846E+03  0.56453411586E+03  0.40000000000E+03 0. -1.
<mgrwt>
<rscale>  2 0.46262145E+03</rscale>
<asrwt>0</asrwt>
<pdfrwt beam="1">  1       21 0.34145638E+00 0.46266364E+03</pdfrwt>
<pdfrwt beam="2">  1       21 0.23161278E-01 0.46266364E+03</pdfrwt>
<totfact> 0.26532941E+02</totfact>
</mgrwt>
</event>
<event>
 6    1  0.9190795E-004  0.5771507E+03  0.7818608E-02  0.9954373E-01
         21   -1    0    0  503  502  0.00000000000E+00  0.00000000000E+00  0.15116207062E+04  0.15116207062E+04  0.00000000000E+00 0. -1.
         21   -1    0    0  501  503 -0.00000000000E+00 -0.00000000000E+00 -0.22225594639E+03  0.22225594639E+03  0.00000000000E+00 0. -1.
    9000007    2    1    2  501    0 -0.39543029309E+03 -0.12610668224E+03  0.55940523757E+03  0.80376433887E+03  0.40104224295E+03 0.  0.
    9000005    1    3    3    0    0 -0.41587199884E+03 -0.19753269040E+03  0.34060993774E+03  0.57269958344E+03  0.99999687468E+00 0.  0.
          4    1    3    3  501    0  0.20441705753E+02  0.71426008161E+02  0.21879529983E+03  0.23106475543E+03  0.00000000000E+00 0.  1.
   -9000007    1    1    2    0  502  0.39543029309E+03  0.12610668224E+03  0.72995952223E+03  0.93011231370E+03  0.40000000000E+03 0. -1.
<mgrwt>
<rscale>  2 0.57696965E+03</rscale>
<asrwt>0</asrwt>
<pdfrwt beam="1">  1       21 0.23255703E+00 0.57715067E+03</pdfrwt>
<pdfrwt beam="2">  1       21 0.34193223E-01 0.57715067E+03</pdfrwt>
<totfact> 0.53724033E+02</totfact>
</mgrwt>
</event>
<event>
 6    1  0.9190795E-004  0.9460359E+03  0.7818608E-02  0.9369859E-01
         21   -1    0    0  503  502  0.00000000000E+00  0.00000000000E+00  0.15340588345E+04  0.15340588345E+04  0.00000000000E+00 0. -1.
         21   -1    0    0  501  503 -0.00000000000E+00 -0.00000000000E+00 -0.18556413132E+04  0.18556413132E+04  0.00000000000E+00 0.  1.
    9000007    2    1    2  501    0  0.75790998306E+03 -0.40069481190E+03 -0.15642136137E+04  0.18279331957E+04  0.39948925374E+03 0.  0.
    9000005    1    3    3    0    0  0.56550784528E+03 -0.22233891789E+03 -0.71094236588E+03  0.93523995054E+03  0.99999687468E+00 0.  0.
          4    1    3    3  501    0  0.19240213778E+03 -0.17835589401E+03 -0.85327124784E+03  0.89269324515E+03  0.00000000000E+00 0.  1.
   -9000007    1    1    2    0  502 -0.75790998306E+03  0.40069481190E+03  0.12426311350E+04  0.15617669520E+04  0.40000000000E+03 0. -1.
<mgrwt>
<rscale>  2 0.94598191E+03</rscale>
<asrwt>0</asrwt>
<pdfrwt beam="1">  1       21 0.23600905E+00 0.94603587E+03</pdfrwt>
<pdfrwt beam="2">  1       21 0.28548328E+00 0.94603587E+03</pdfrwt>
<totfact> 0.17425057E+00</totfact>
</mgrwt>
</event>
<event>
 6    1  0.9190795E-004  0.4548419E+03  0.7818608E-02  0.1026455E+00
         21   -1    0    0  503  502  0.00000000000E+00  0.00000000000E+00  0.70645948968E+03  0.70645948968E+03  0.00000000000E+00 0.  1.
         21   -1    0    0  501  503 -0.00000000000E+00 -0.00000000000E+00 -0.32540676743E+03  0.32540676743E+03  0.00000000000E+00 0.  1.
    9000007    2    1    2  501    0  0.71458892174E+02 -0.19928746385E+03  0.35778165744E+03  0.57869585982E+03  0.40256591666E+03 0.  0.
    9000005    1    3    3    0    0  0.21615975615E+03 -0.98124966566E+01  0.17441626925E+03  0.27792689730E+03  0.99999687468E+00 0.  0.
          4    1    3    3  501    0 -0.14470086398E+03 -0.18947496720E+03  0.18336538819E+03  0.30076896252E+03  0.00000000000E+00 0.  1.
   -9000007    1    1    2    0  502 -0.71458892174E+02  0.19928746385E+03  0.23271064819E+02  0.45317039729E+03  0.40000000000E+03 0.  1.
<mgrwt>
<rscale>  2 0.45427351E+03</rscale>
<asrwt>0</asrwt>
<pdfrwt beam="1">  1       21 0.10868608E+00 0.45484193E+03</pdfrwt>
<pdfrwt beam="2">  1       21 0.50062580E-01 0.45484193E+03</pdfrwt>
<totfact> 0.22022628E+03</totfact>
</mgrwt>
</event>
<event>
 6    1  0.9190795E-004  0.5062301E+03  0.7818608E-02  0.1012206E+00
         21   -1    0    0  503  502  0.00000000000E+00  0.00000000000E+00  0.35157350543E+03  0.35157350543E+03  0.00000000000E+00 0.  1.
         21   -1    0    0  501  503 -0.00000000000E+00 -0.00000000000E+00 -0.13959936714E+04  0.13959936714E+04  0.00000000000E+00 0.  1.
    9000007    2    1    2  501    0  0.28464788831E+03 -0.12346866939E+03 -0.11264682109E+04  0.12347311267E+04  0.39920094229E+03 0.  0.
    9000005    1    3    3    0    0  0.44700963934E+02  0.14312837722E+02  0.23107426805E+02  0.52325774410E+02  0.99999687468E+00 0.  0.
          4    1    3    3  501    0  0.23994692437E+03 -0.13778150711E+03 -0.11495756377E+04  0.11824053522E+04  0.00000000000E+00 0.  1.
   -9000007    1    1    2    0  502 -0.28464788831E+03  0.12346866939E+03  0.82048044970E+02  0.51283605014E+03  0.40000000000E+03 0.  1.
<mgrwt>
<rscale>  2 0.50607226E+03</rscale>
<asrwt>0</asrwt>
<pdfrwt beam="1">  1       21 0.54088232E-01 0.50623012E+03</pdfrwt>
<pdfrwt beam="2">  1       21 0.21476826E+00 0.50623012E+03</pdfrwt>
<totfact> 0.27601372E+02</totfact>
</mgrwt>
</event>
<event>
 6    1  0.9190795E-004  0.6055728E+03  0.7818608E-02  0.9893935E-01
         21   -1    0    0  503  502  0.00000000000E+00  0.00000000000E+00  0.97070509831E+03  0.97070509831E+03  0.00000000000E+00 0. -1.
         21   -1    0    0  501  503 -0.00000000000E+00 -0.00000000000E+00 -0.12916445599E+04  0.12916445599E+04  0.00000000000E+00 0.  1.
    9000007    2    1    2  501    0  0.41364928623E+03 -0.18856732544E+03 -0.11119621835E+04  0.12661667860E+04  0.40006882453E+03 0.  0.
    9000005    1    3    3    0    0  0.20360153986E+03  0.11695862945E+03 -0.43289709554E+03  0.49247721100E+03  0.99999687468E+00 0.  0.
          4    1    3    3  501    0  0.21004774638E+03 -0.30552595489E+03 -0.67906508794E+03  0.77368957504E+03  0.00000000000E+00 0.  1.
   -9000007    1    1    2    0  502 -0.41364928623E+03  0.18856732544E+03  0.79102272190E+03  0.99618287216E+03  0.40000000000E+03 0. -1.
<mgrwt>
<rscale>  2 0.60556145E+03</rscale>
<asrwt>0</asrwt>
<pdfrwt beam="1">  1       21 0.14933925E+00 0.60557281E+03</pdfrwt>
<pdfrwt beam="2">  1       21 0.19871455E+00 0.60557281E+03</pdfrwt>
<totfact> 0.29344906E+01</totfact>
</mgrwt>
</event>
<event>
 6    1  0.9190795E-004  0.4803106E+03  0.7818608E-02  0.1019223E+00
         21   -1    0    0  503  502  0.00000000000E+00  0.00000000000E+00  0.89056267758E+03  0.89056267758E+03  0.00000000000E+00 0.  1.
         21   -1    0    0  501  503 -0.00000000000E+00 -0.00000000000E+00 -0.30183302205E+03  0.30183302205E+03  0.00000000000E+00 0.  1.
    9000007    2    1    2  501    0 -0.62769113490E+02 -0.25837633793E+03  0.65723582178E+02  0.48230158870E+03  0.39698481029E+03 0.  0.
    9000005    1    3    3    0    0 -0.74377772430E+02  0.49696712052E+02  0.13911376224E+03  0.16539484593E+03  0.99999687468E+00 0.  0.
          4    1    3    3  501    0  0.11608658941E+02 -0.30807304998E+03 -0.73390180063E+02  0.31690674278E+03  0.00000000000E+00 0.  1.
   -9000007    1    1    2    0  502  0.62769113490E+02  0.25837633793E+03  0.52300607335E+03  0.71009411093E+03  0.40000000000E+03 0.  1.
<mgrwt>
<rscale>  2 0.47968236E+03</rscale>
<asrwt>0</asrwt>
<pdfrwt beam="1">  1       21 0.13700964E+00 0.48031062E+03</pdfrwt>
<pdfrwt beam="2">  1       21 0.46435850E-01 0.48031062E+03</pdfrwt>
<totfact> 0.14159159E+03</totfact>
</mgrwt>
</event>
<event>
 6    1  0.9190795E-004  0.4097603E+03  0.7818608E-02  0.1040508E+00
         21   -1    0    0  503  502  0.00000000000E+00  0.00000000000E+00  0.63983701600E+03  0.63983701600E+03  0.00000000000E+00 0. -1.
         21   -1    0    0  501  503 -0.00000000000E+00 -0.00000000000E+00 -0.44887419093E+03  0.44887419093E+03  0.00000000000E+00 0. -1.
    9000007    2    1    2  501    0 -0.94914577013E+01  0.85199935944E+02 -0.25572150505E+03  0.48300830316E+03  0.40069242060E+03 0.  0.
    9000005    1    3    3    0    0 -0.58956579354E+02  0.93220044136E+02 -0.35503144947E+03  0.37177168394E+03  0.99999687468E+00 0.  0.
          4    1    3    3  501    0  0.49465121653E+02 -0.80201081924E+01  0.99309944414E+02  0.11123661922E+03  0.00000000000E+00 0.  1.
   -9000007    1    1    2    0  502  0.94914577013E+01 -0.85199935944E+02  0.44668433012E+03  0.60570290377E+03  0.40000000000E+03 0. -1.
<mgrwt>
<rscale>  2 0.40959096E+03</rscale>
<asrwt>0</asrwt>
<pdfrwt beam="1">  1       21 0.98436465E-01 0.40976034E+03</pdfrwt>
<pdfrwt beam="2">  1       21 0.69057567E-01 0.40976034E+03</pdfrwt>
<totfact> 0.14161944E+03</totfact>
</mgrwt>
</event>
<event>
 6    1  0.9190795E-004  0.6588555E+03  0.7818608E-02  0.9792455E-01
         21   -1    0    0  503  502  0.00000000000E+00  0.00000000000E+00  0.17221904028E+04  0.17221904028E+04  0.00000000000E+00 0.  1.
         21   -1    0    0  501  503 -0.00000000000E+00 -0.00000000000E+00 -0.28070535819E+03  0.28070535819E+03  0.00000000000E+00 0.  1.
    9000007    2    1    2  501    0  0.16648481108E+03 -0.49636010375E+03  0.38877846905E+03  0.76100942192E+03  0.39229593082E+03 0.  0.
    9000005    1    3    3    0    0  0.11315732616E+03 -0.58758771017E+01 -0.26217638348E+02  0.11630765645E+03  0.99999687468E+00 0.  0.
          4    1    3    3  501    0  0.53327484920E+02 -0.49048422665E+03  0.41499610740E+03  0.64470176547E+03  0.00000000000E+00 0.  1.
   -9000007    1    1    2    0  502 -0.16648481108E+03  0.49636010375E+03  0.10527065755E+04  0.12418863390E+04  0.40000000000E+03 0.  1.
<mgrwt>
<rscale>  2 0.65769024E+03</rscale>
<asrwt>0</asrwt>
<pdfrwt beam="1">  1       21 0.26495236E+00 0.65885548E+03</pdfrwt>
<pdfrwt beam="2">  1       21 0.43185441E-01 0.65885548E+03</pdfrwt>
<totfact> 0.20188495E+02</totfact>
</mgrwt>
</event>
<event>
 6    1  0.9190795E-004  0.7176355E+03  0.7818608E-02  0.9687584E-01
         21   -1    0    0  503  502  0.00000000000E+00  0.00000000000E+00  0.36167315793E+03  0.36167315793E+03  0.00000000000E+00 0. -1.
         21   -1    0    0  501  503 -0.00000000000E+00 -0.00000000000E+00 -0.25759224628E+04  0.25759224628E+04  0.00000000000E+00 0.  1.
    9000007    2    1    2  501    0  0.56597560144E+03 -0.18620493420E+03 -0.12474585804E+03  0.72829136073E+03  0.39980760132E+03 0.  0.
    9000005    1    3    3    0    0  0.45872603422E+03  0.40915263146E+02 -0.12466252518E+03  0.47712197435E+03  0.99999687468E+00 0.  0.
          4    1    3    3  501    0  0.10724956722E+03 -0.22712019734E+03 -0.83332859593E-01  0.25116938638E+03  0.00000000000E+00 0.  1.
   -9000007    1    1    2    0  502 -0.56597560144E+03  0.18620493420E+03 -0.20895034468E+04  0.22093042600E+04  0.40000000000E+03 0.  1.
<mgrwt>
<rscale>  2 0.71760866E+03</rscale>
<asrwt>0</asrwt>
<pdfrwt beam="1">  1       21 0.55642024E-01 0.71763546E+03</pdfrwt>
<pdfrwt beam="2">  1       21 0.39629577E+00 0.71763546E+03</pdfrwt>
<totfact> 0.17421274E+01</totfact>
</mgrwt>
</event>
<event>
 6    1  0.9190795E-004  0.4231023E+03  0.7818608E-02  0.1036117E+00
         21   -1    0    0  503  502  0.00000000000E+00  0.00000000000E+00  0.55976574508E+03  0.55976574508E+03  0.00000000000E+00 0.  1.
         21   -1    0    0  501  503 -0.00000000000E+00 -0.00000000000E+00 -0.38034053483E+03  0.38034053483E+03  0.00000000000E+00 0. -1.
    9000007    2    1    2  501    0 -0.57538058758E+02 -0.12295776929E+03 -0.98564090543E+02  0.43443119392E+03  0.40073225610E+03 0.  0.
    9000005    1    3    3    0    0 -0.19207053911E+03 -0.80647431371E+02 -0.17673421679E+03  0.27318690224E+03  0.99999687468E+00 0.  0.
          4    1    3    3  501    0  0.13453248035E+03 -0.42310337923E+02  0.78170126243E+02  0.16124429168E+03  0.00000000000E+00 0.  1.
   -9000007    1    1    2    0  502  0.57538058758E+02  0.12295776929E+03  0.27798930079E+03  0.50567508599E+03  0.40000000000E+03 0.  1.
<mgrwt>
<rscale>  2 0.42292886E+03</rscale>
<asrwt>0</asrwt>
<pdfrwt beam="1">  1       21 0.86117807E-01 0.42310233E+03</pdfrwt>
<pdfrwt beam="2">  1       21 0.58513929E-01 0.42310233E+03</pdfrwt>
<totfact> 0.27908951E+03</totfact>
</mgrwt>
</event>
<event>
 6    1  0.9190795E-004  0.4123424E+03  0.7818608E-02  0.1039969E+00
         21   -1    0    0  503  502  0.00000000000E+00  0.00000000000E+00  0.19967323558E+03  0.19967323558E+03  0.00000000000E+00 0. -1.
         21   -1    0    0  501  503 -0.00000000000E+00 -0.00000000000E+00 -0.12575363383E+04  0.12575363383E+04  0.00000000000E+00 0. -1.
    9000007    2    1    2  501    0  0.74280749242E+02 -0.27865611537E+02 -0.94964510299E+03  0.10353028810E+04  0.40463824798E+03 0.  0.
    9000005    1    3    3    0    0 -0.16614289254E+03  0.80666676589E+01 -0.44734852316E+03  0.47727375063E+03  0.99999687468E+00 0.  0.
          4    1    3    3  501    0  0.24042364179E+03 -0.35932279196E+02 -0.50229657982E+03  0.55802913035E+03  0.00000000000E+00 0.  1.
   -9000007    1    1    2    0  502 -0.74280749242E+02  0.27865611537E+02 -0.10821799969E+03  0.42190669285E+03  0.40000000000E+03 0. -1.
<mgrwt>
<rscale>  2 0.41119998E+03</rscale>
<asrwt>0</asrwt>
<pdfrwt beam="1">  1       21 0.30718959E-01 0.41234237E+03</pdfrwt>
<pdfrwt beam="2">  1       21 0.19346713E+00 0.41234237E+03</pdfrwt>
<totfact> 0.12868756E+03</totfact>
</mgrwt>
</event>
<event>
 6    1  0.9190795E-004  0.4238234E+03  0.7818608E-02  0.1035846E+00
         21   -1    0    0  503  502  0.00000000000E+00  0.00000000000E+00  0.47210481178E+03  0.47210481178E+03  0.00000000000E+00 0.  1.
         21   -1    0    0  501  503 -0.00000000000E+00 -0.00000000000E+00 -0.10215800845E+04  0.10215800845E+04  0.00000000000E+00 0.  1.
    9000007    2    1    2  501    0 -0.44239591109E+02  0.13226456402E+03 -0.86648589337E+03  0.96458491529E+03  0.40021893892E+03 0.  0.
    9000005    1    3    3    0    0 -0.13659445865E+03 -0.43819909994E+02 -0.10555329676E+03  0.17810314174E+03  0.99999687468E+00 0.  0.
          4    1    3    3  501    0  0.92354867539E+02  0.17608447402E+03 -0.76093259661E+03  0.78648177355E+03  0.00000000000E+00 0.  1.
   -9000007    1    1    2    0  502  0.44239591109E+02 -0.13226456402E+03  0.31701062063E+03  0.52909998101E+03  0.40000000000E+03 0.  1.
<mgrwt>
<rscale>  2 0.42377168E+03</rscale>
<asrwt>0</asrwt>
<pdfrwt beam="1">  1       21 0.72631510E-01 0.42382338E+03</pdfrwt>
<pdfrwt beam="2">  1       21 0.15716617E+00 0.42382338E+03</pdfrwt>
<totfact> 0.37770743E+02</totfact>
</mgrwt>
</event>
<event>
 6    1  0.9190795E-004  0.4155845E+03  0.7818608E-02  0.1038725E+00
         21   -1    0    0  503  502  0.00000000000E+00  0.00000000000E+00  0.15023442036E+04  0.15023442036E+04  0.00000000000E+00 0. -1.
         21   -1    0    0  501  503 -0.00000000000E+00 -0.00000000000E+00 -0.22002843874E+03  0.22002843874E+03  0.00000000000E+00 0. -1.
    9000007    2    1    2  501    0  0.98671099689E+02 -0.29215224823E+02  0.45085563797E+02  0.41802296312E+03  0.40264248951E+03 0.  0.
    9000005    1    3    3    0    0  0.18902861513E+03  0.12338981888E+03 -0.25435565919E+02  0.22716697108E+03  0.99999687468E+00 0.  0.
          4    1    3    3  501    0 -0.90357515442E+02 -0.15260504371E+03  0.70521129716E+02  0.19085599204E+03  0.00000000000E+00 0.  1.
   -9000007    1    1    2    0  502 -0.98671099689E+02  0.29215224823E+02  0.12372302011E+04  0.13043496792E+04  0.40000000000E+03 0. -1.
<mgrwt>
<rscale>  2 0.41494311E+03</rscale>
<asrwt>0</asrwt>
<pdfrwt beam="1">  1       21 0.23112987E+00 0.41558452E+03</pdfrwt>
<pdfrwt beam="2">  1       21 0.33850530E-01 0.41558452E+03</pdfrwt>
<totfact> 0.60313220E+02</totfact>
</mgrwt>
</event>
<event>
 6    1  0.9190795E-004  0.4188444E+03  0.7818608E-02  0.1037669E+00
         21   -1    0    0  503  502  0.00000000000E+00  0.00000000000E+00  0.36088827429E+03  0.36088827429E+03  0.00000000000E+00 0.  1.
         21   -1    0    0  501  503 -0.00000000000E+00 -0.00000000000E+00 -0.52821159742E+03  0.52821159742E+03  0.00000000000E+00 0.  1.
    9000007    2    1    2  501    0  0.12314795021E+03 -0.16284984219E+02 -0.21359593107E+03  0.46770721325E+03  0.39710980498E+03 0.  0.
    9000005    1    3    3    0    0 -0.69201973788E+01  0.16193805795E+03 -0.18380738664E+03  0.24506729509E+03  0.99999687468E+00 0.  0.
          4    1    3    3  501    0  0.13006814759E+03 -0.17822304217E+03 -0.29788544423E+02  0.22263991816E+03  0.00000000000E+00 0.  1.
   -9000007    1    1    2    0  502 -0.12314795021E+03  0.16284984219E+02  0.46272607934E+02  0.42139265845E+03  0.40000000000E+03 0.  1.
<mgrwt>
<rscale>  2 0.41815285E+03</rscale>
<asrwt>0</asrwt>
<pdfrwt beam="1">  1       21 0.55521273E-01 0.41884438E+03</pdfrwt>
<pdfrwt beam="2">  1       21 0.81263322E-01 0.41884438E+03</pdfrwt>
<totfact> 0.35855085E+03</totfact>
</mgrwt>
</event>
<event>
 6    1  0.9190795E-004  0.4009529E+03  0.7818608E-02  0.1043527E+00
         21   -1    0    0  503  502  0.00000000000E+00  0.00000000000E+00  0.28668158213E+03  0.28668158213E+03  0.00000000000E+00 0.  1.
         21   -1    0    0  501  503 -0.00000000000E+00 -0.00000000000E+00 -0.59602419816E+03  0.59602419816E+03  0.00000000000E+00 0.  1.
    9000007    2    1    2  501    0 -0.70186326458E+01 -0.26720658359E+02 -0.26373022689E+03  0.47916675512E+03  0.39910386099E+03 0.  0.
    9000005    1    3    3    0    0 -0.10175243628E+03 -0.46157042270E+02  0.69902696299E+02  0.13180067444E+03  0.99999687468E+00 0.  0.
          4    1    3    3  501    0  0.94733803636E+02  0.19436383912E+02 -0.33363292319E+03  0.34736608068E+03  0.00000000000E+00 0.  1.
   -9000007    1    1    2    0  502  0.70186326458E+01  0.26720658359E+02 -0.45612389148E+02  0.40353902516E+03  0.40000000000E+03 0.  1.
<mgrwt>
<rscale>  2 0.40072925E+03</rscale>
<asrwt>0</asrwt>
<pdfrwt beam="1">  1       21 0.44104859E-01 0.40095293E+03</pdfrwt>
<pdfrwt beam="2">  1       21 0.91696030E-01 0.40095293E+03</pdfrwt>
<totfact> 0.44317434E+03</totfact>
</mgrwt>
</event>
<event>
 6    1  0.9190795E-004  0.4928554E+03  0.7818608E-02  0.1015869E+00
         21   -1    0    0  503  502  0.00000000000E+00  0.00000000000E+00  0.22281678355E+03  0.22281678355E+03  0.00000000000E+00 0. -1.
         21   -1    0    0  501  503 -0.00000000000E+00 -0.00000000000E+00 -0.10909634141E+04  0.10909634141E+04  0.00000000000E+00 0.  1.
    9000007    2    1    2  501    0  0.91658062303E+02 -0.26727380647E+03 -0.49063365404E+03  0.69543358333E+03  0.40381926445E+03 0.  0.
    9000005    1    3    3    0    0  0.67621081051E+02 -0.32019682909E+03 -0.16848936313E+03  0.36808733399E+03  0.99999687468E+00 0.  0.
          4    1    3    3  501    0  0.24036981253E+02  0.52923022626E+02 -0.32214429091E+03  0.32734624934E+03  0.00000000000E+00 0.  1.
   -9000007    1    1    2    0  502 -0.91658062303E+02  0.26727380647E+03 -0.37751297653E+03  0.61834661433E+03  0.40000000000E+03 0. -1.
<mgrwt>
<rscale>  2 0.49207248E+03</rscale>
<asrwt>0</asrwt>
<pdfrwt beam="1">  1       21 0.34279505E-01 0.49285544E+03</pdfrwt>
<pdfrwt beam="2">  1       21 0.16784053E+00 0.49285544E+03</pdfrwt>
<totfact> 0.15114850E+03</totfact>
</mgrwt>
</event>
<event>
 6    1  0.9190795E-004  0.8377496E+03  0.7818608E-02  0.9506982E-01
         21   -1    0    0  503  502  0.00000000000E+00  0.00000000000E+00  0.11978441747E+04  0.11978441747E+04  0.00000000000E+00 0. -1.
         21   -1    0    0  501  503 -0.00000000000E+00 -0.00000000000E+00 -0.85633725499E+03  0.85633725499E+03  0.00000000000E+00 0.  1.
    9000007    2    1    2  501    0 -0.51545744388E+03 -0.52522737436E+03 -0.40653767027E+03  0.93118059271E+03  0.40033017332E+03 0.  0.
    9000005    1    3    3    0    0 -0.10775195966E+02 -0.23590954100E+03 -0.21321836606E+03  0.31817053289E+03  0.99999687468E+00 0.  0.
          4    1    3    3  501    0 -0.50468224791E+03 -0.28931783336E+03 -0.19331930421E+03  0.61301005982E+03  0.00000000000E+00 0.  1.
   -9000007    1    1    2    0  502  0.51545744388E+03  0.52522737436E+03  0.74804458995E+03  0.11230008369E+04  0.40000000000E+03 0. -1.
<mgrwt>
<rscale>  2 0.83771018E+03</rscale>
<asrwt>0</asrwt>
<pdfrwt beam="1">  1       21 0.18428372E+00 0.83774962E+03</pdfrwt>
<pdfrwt beam="2">  1       21 0.13174419E+00 0.83774962E+03</pdfrwt>
<totfact> 0.47465882E+01</totfact>
</mgrwt>
</event>
<event>
 6    1  0.9190795E-004  0.6642508E+03  0.7818608E-02  0.9780439E-01
         21   -1    0    0  503  502  0.00000000000E+00  0.00000000000E+00  0.49782292639E+03  0.49782292639E+03  0.00000000000E+00 0. -1.
         21   -1    0    0  501  503 -0.00000000000E+00 -0.00000000000E+00 -0.10344974518E+04  0.10344974518E+04  0.00000000000E+00 0. -1.
    9000007    2    1    2  501    0  0.50901051631E+03 -0.14840448460E+03 -0.55843131299E+03  0.86779877988E+03  0.40014196763E+03 0.  0.
    9000005    1    3    3    0    0  0.23977061161E+03 -0.14946776532E+03 -0.42342315389E+02  0.28569989627E+03  0.99999687468E+00 0.  0.
          4    1    3    3  501    0  0.26923990470E+03  0.10632807215E+01 -0.51608899761E+03  0.58209888361E+03  0.00000000000E+00 0.  1.
   -9000007    1    1    2    0  502 -0.50901051631E+03  0.14840448460E+03  0.21756787633E+02  0.66452159827E+03  0.40000000000E+03 0. -1.
<mgrwt>
<rscale>  2 0.66422947E+03</rscale>
<asrwt>0</asrwt>
<pdfrwt beam="1">  1       21 0.76588143E-01 0.66425085E+03</pdfrwt>
<pdfrwt beam="2">  1       21 0.15915345E+00 0.66425085E+03</pdfrwt>
<totfact> 0.29311497E+02</totfact>
</mgrwt>
</event>
<event>
 6    1  0.9190795E-004  0.5002521E+03  0.7818608E-02  0.1013743E+00
         21   -1    0    0  503  502  0.00000000000E+00  0.00000000000E+00  0.75121478761E+03  0.75121478761E+03  0.00000000000E+00 0.  1.
         21   -1    0    0  501  503 -0.00000000000E+00 -0.00000000000E+00 -0.46519591842E+03  0.46519591842E+03  0.00000000000E+00 0.  1.
    9000007    2    1    2  501    0 -0.18470914809E+03 -0.23692753633E+03 -0.18147508527E+03  0.53171900583E+03  0.39942429536E+03 0.  0.
    9000005    1    3    3    0    0  0.69910079140E+02 -0.20499947937E+03 -0.16913584241E+03  0.27480927730E+03  0.99999687468E+00 0.  0.
          4    1    3    3  501    0 -0.25461922723E+03 -0.31928056958E+02 -0.12339242855E+02  0.25690972853E+03  0.00000000000E+00 0.  1.
   -9000007    1    1    2    0  502  0.18470914809E+03  0.23692753633E+03  0.46749395446E+03  0.68469170020E+03  0.40000000000E+03 0.  1.
<mgrwt>
<rscale>  2 0.50013697E+03</rscale>
<asrwt>0</asrwt>
<pdfrwt beam="1">  1       21 0.11557151E+00 0.50025206E+03</pdfrwt>
<pdfrwt beam="2">  1       21 0.71568603E-01 0.50025206E+03</pdfrwt>
<totfact> 0.84779496E+02</totfact>
</mgrwt>
</event>
<event>
 6    1  0.9190795E-004  0.4236954E+03  0.7818608E-02  0.1035915E+00
         21   -1    0    0  503  502  0.00000000000E+00  0.00000000000E+00  0.52449088257E+03  0.52449088257E+03  0.00000000000E+00 0. -1.
         21   -1    0    0  501  503 -0.00000000000E+00 -0.00000000000E+00 -0.46247093069E+03  0.46247093069E+03  0.00000000000E+00 0. -1.
    9000007    2    1    2  501    0  0.87495762937E+02 -0.10674865733E+03 -0.22102355844E+03  0.47787988163E+03  0.40058330408E+03 0.  0.
    9000005    1    3    3    0    0  0.12353599285E+03 -0.53752196466E+02  0.88889864230E+02  0.16140894681E+03  0.99999687468E+00 0.  0.
          4    1    3    3  501    0 -0.36040229912E+02 -0.52996460862E+02 -0.30991342267E+03  0.31647093482E+03  0.00000000000E+00 0.  1.
   -9000007    1    1    2    0  502 -0.87495762937E+02  0.10674865733E+03  0.28304351032E+03  0.50908193162E+03  0.40000000000E+03 0.  1.
<mgrwt>
<rscale>  2 0.42355744E+03</rscale>
<asrwt>0</asrwt>
<pdfrwt beam="1">  1       21 0.80690904E-01 0.42369537E+03</pdfrwt>
<pdfrwt beam="2">  1       21 0.71149374E-01 0.42369537E+03</pdfrwt>
<totfact> 0.21047003E+03</totfact>
</mgrwt>
</event>
<event>
 6    1  0.9190795E-004  0.4222101E+03  0.7818608E-02  0.1036459E+00
         21   -1    0    0  503  502  0.00000000000E+00  0.00000000000E+00  0.25774330717E+03  0.25774330717E+03  0.00000000000E+00 0. -1.
         21   -1    0    0  501  503 -0.00000000000E+00 -0.00000000000E+00 -0.69967458117E+03  0.69967458117E+03  0.00000000000E+00 0. -1.
    9000007    2    1    2  501    0  0.13465935110E+03  0.11325216693E+02 -0.16261662370E+03  0.45117874006E+03  0.39856829755E+03 0.  0.
    9000005    1    3    3    0    0  0.30898295605E+02 -0.39235171121E+02  0.12857935182E+03  0.13794112162E+03  0.99999687468E+00 0.  0.
          4    1    3    3  501    0  0.10376105550E+03  0.50560387813E+02 -0.29119597552E+03  0.31323761845E+03  0.00000000000E+00 0.  1.
   -9000007    1    1    2    0  502 -0.13465935110E+03 -0.11325216693E+02 -0.27931465031E+03  0.50623914828E+03  0.40000000000E+03 0. -1.
<mgrwt>
<rscale>  2 0.42187069E+03</rscale>
<asrwt>0</asrwt>
<pdfrwt beam="1">  1       21 0.39652817E-01 0.42221014E+03</pdfrwt>
<pdfrwt beam="2">  1       21 0.10764224E+00 0.42221014E+03</pdfrwt>
<totfact> 0.37170056E+03</totfact>
</mgrwt>
</event>
<event>
 6    1  0.9190795E-004  0.5444491E+03  0.7818608E-02  0.1002792E+00
         21   -1    0    0  503  502  0.00000000000E+00  0.00000000000E+00  0.34869663992E+04  0.34869663992E+04  0.00000000000E+00 0. -1.
         21   -1    0    0  501  503 -0.00000000000E+00 -0.00000000000E+00 -0.11573864066E+03  0.11573864066E+03  0.00000000000E+00 0.  1.
    9000007    2    1    2  501    0  0.37366365326E+02  0.36733898184E+03  0.75732491912E+03  0.93271960419E+03  0.40011330155E+03 0.  0.
    9000005    1    3    3    0    0  0.11644431037E+03  0.38923186497E+03  0.74657973742E+03  0.84996648549E+03  0.99999687468E+00 0.  0.
          4    1    3    3  501    0 -0.79077945048E+02 -0.21892883134E+02  0.10745181701E+02  0.82753118701E+02  0.00000000000E+00 0.  1.
   -9000007    1    1    2    0  502 -0.37366365326E+02 -0.36733898184E+03  0.26139028394E+04  0.26699854357E+04  0.40000000000E+03 0. -1.
<mgrwt>
<rscale>  2 0.54442829E+03</rscale>
<asrwt>0</asrwt>
<pdfrwt beam="1">  1       21 0.53645629E+00 0.54444910E+03</pdfrwt>
<pdfrwt beam="2">  1       21 0.17805947E-01 0.54444910E+03</pdfrwt>
<totfact> 0.20384019E+01</totfact>
</mgrwt>
</event>
<event>
 6    1  0.9190795E-004  0.4050622E+03  0.7818608E-02  0.1042045E+00
         21   -1    0    0  503  502  0.00000000000E+00  0.00000000000E+00  0.14773400245E+04  0.14773400245E+04  0.00000000000E+00 0.  1.
         21   -1    0    0  501  503 -0.00000000000E+00 -0.00000000000E+00 -0.26175367004E+03  0.26175367004E+03  0.00000000000E+00 0.  1.
    9000007    2    1    2  501    0 -0.51779282558E+02 -0.37339715658E+02 -0.52022177652E+02  0.40833949517E+03  0.39994935664E+03 0.  0.
    9000005    1    3    3    0    0 -0.15134593489E+03 -0.16523322151E+03 -0.90657030798E+02  0.24171741088E+03  0.99999687468E+00 0.  0.
          4    1    3    3  501    0  0.99566652332E+02  0.12789350585E+03  0.38634853146E+02  0.16662208429E+03  0.00000000000E+00 0.  1.
   -9000007    1    1    2    0  502  0.51779282558E+02  0.37339715658E+02  0.12676085321E+04  0.13307541993E+04  0.40000000000E+03 0.  1.
<mgrwt>
<rscale>  2 0.40504965E+03</rscale>
<asrwt>0</asrwt>
<pdfrwt beam="1">  1       21 0.22728308E+00 0.40506215E+03</pdfrwt>
<pdfrwt beam="2">  1       21 0.40269796E-01 0.40506215E+03</pdfrwt>
<totfact> 0.45056365E+02</totfact>
</mgrwt>
</event>
<event>
 6    1  0.9190795E-004  0.4297103E+03  0.7818608E-02  0.1033956E+00
         21   -1    0    0  503  502  0.00000000000E+00  0.00000000000E+00  0.19731055353E+03  0.19731055353E+03  0.00000000000E+00 0. -1.
         21   -1    0    0  501  503 -0.00000000000E+00 -0.00000000000E+00 -0.19677936831E+04  0.19677936831E+04  0.00000000000E+00 0.  1.
    9000007    2    1    2  501    0 -0.11570032362E+02  0.15642582039E+03 -0.16692668976E+04  0.17236887537E+04  0.40006004728E+03 0.  0.
    9000005    1    3    3    0    0  0.11712247973E+03  0.16521082211E+03 -0.40453362848E+03  0.45239446014E+03  0.99999687468E+00 0.  0.
          4    1    3    3  501    0 -0.12869251209E+03 -0.87850017251E+01 -0.12647332691E+04  0.12712942936E+04  0.00000000000E+00 0.  1.
   -9000007    1    1    2    0  502  0.11570032362E+02 -0.15642582039E+03 -0.10121623198E+03  0.44141548291E+03  0.40000000000E+03 0. -1.
<mgrwt>
<rscale>  2 0.42969633E+03</rscale>
<asrwt>0</asrwt>
<pdfrwt beam="1">  1       21 0.30355469E-01 0.42971030E+03</pdfrwt>
<pdfrwt beam="2">  1       21 0.30273749E+00 0.42971030E+03</pdfrwt>
<totfact> 0.27325590E+02</totfact>
</mgrwt>
</event>
<event>
 6    1  0.9190795E-004  0.4901825E+03  0.7818608E-02  0.1016417E+00
         21   -1    0    0  503  502  0.00000000000E+00  0.00000000000E+00  0.47619576503E+03  0.47619576503E+03  0.00000000000E+00 0.  1.
         21   -1    0    0  501  503 -0.00000000000E+00 -0.00000000000E+00 -0.54548807975E+03  0.54548807975E+03  0.00000000000E+00 0. -1.
    9000007    2    1    2  501    0 -0.15394500707E+03  0.23786506344E+03 -0.17564199022E+03  0.52009725496E+03  0.39921446903E+03 0.  0.
    9000005    1    3    3    0    0 -0.15529694941E+03  0.25101318208E+03 -0.28478526571E+03  0.41015656478E+03  0.99999687468E+00 0.  0.
          4    1    3    3  501    0  0.13519423350E+01 -0.13148118636E+02  0.10914327550E+03  0.10994069018E+03  0.00000000000E+00 0.  1.
   -9000007    1    1    2    0  502  0.15394500707E+03 -0.23786506344E+03  0.10634967549E+03  0.50158658982E+03  0.40000000000E+03 0.  1.
<mgrwt>
<rscale>  2 0.49002219E+03</rscale>
<asrwt>0</asrwt>
<pdfrwt beam="1">  1       21 0.73260887E-01 0.49018247E+03</pdfrwt>
<pdfrwt beam="2">  1       21 0.83921243E-01 0.49018247E+03</pdfrwt>
<totfact> 0.17540349E+03</totfact>
</mgrwt>
</event>
<event>
 6    1  0.9190795E-004  0.4380574E+03  0.7818608E-02  0.1031378E+00
         21   -1    0    0  503  502  0.00000000000E+00  0.00000000000E+00  0.28514812184E+03  0.28514812184E+03  0.00000000000E+00 0.  1.
         21   -1    0    0  501  503 -0.00000000000E+00 -0.00000000000E+00 -0.67305119520E+03  0.67305119520E+03  0.00000000000E+00 0.  1.
    9000007    2    1    2  501    0 -0.70069193425E+02  0.16311517312E+03 -0.17804624044E+03  0.47285805371E+03  0.40047225080E+03 0.  0.
    9000005    1    3    3    0    0 -0.12789523120E+03  0.10378521029E+03 -0.29004305195E+03  0.33354839531E+03  0.99999687468E+00 0.  0.
          4    1    3    3  501    0  0.57826037778E+02  0.59329962825E+02  0.11199681151E+03  0.13930965840E+03  0.00000000000E+00 0.  1.
   -9000007    1    1    2    0  502  0.70069193425E+02 -0.16311517312E+03 -0.20985683292E+03  0.48534126333E+03  0.40000000000E+03 0.  1.
<mgrwt>
<rscale>  2 0.43794943E+03</rscale>
<asrwt>0</asrwt>
<pdfrwt beam="1">  1       21 0.43868942E-01 0.43805739E+03</pdfrwt>
<pdfrwt beam="2">  1       21 0.10354634E+00 0.43805739E+03</pdfrwt>
<totfact> 0.32979987E+03</totfact>
</mgrwt>
</event>
<event>
 6    1  0.9190795E-004  0.4196351E+03  0.7818608E-02  0.1037221E+00
         21   -1    0    0  503  502  0.00000000000E+00  0.00000000000E+00  0.32562009907E+04  0.32562009907E+04  0.00000000000E+00 0. -1.
         21   -1    0    0  501  503 -0.00000000000E+00 -0.00000000000E+00 -0.66474319126E+02  0.66474319126E+02  0.00000000000E+00 0. -1.
    9000007    2    1    2  501    0  0.80076325734E+02 -0.96479025604E+02  0.87650984974E+03  0.97178346095E+03  0.40046617578E+03 0.  0.
    9000005    1    3    3    0    0  0.23231510852E+03 -0.17871850548E+02  0.37173149533E+03  0.43871974802E+03  0.99999687468E+00 0.  0.
          4    1    3    3  501    0 -0.15223878279E+03 -0.78607175056E+02  0.50477835442E+03  0.53306371293E+03  0.00000000000E+00 0.  1.
   -9000007    1    1    2    0  502 -0.80076325734E+02  0.96479025604E+02  0.23132168218E+04  0.23508918489E+04  0.40000000000E+03 0. -1.
<mgrwt>
<rscale>  2 0.41952379E+03</rscale>
<asrwt>0</asrwt>
<pdfrwt beam="1">  1       21 0.50095387E+00 0.41963505E+03</pdfrwt>
<pdfrwt beam="2">  1       21 0.10226821E-01 0.41963505E+03</pdfrwt>
<totfact> 0.11168929E+02</totfact>
</mgrwt>
</event>
<event>
 6    1  0.9190795E-004  0.4026548E+03  0.7818608E-02  0.1042867E+00
         21   -1    0    0  503  502  0.00000000000E+00  0.00000000000E+00  0.31162358717E+03  0.31162358717E+03  0.00000000000E+00 0. -1.
         21   -1    0    0  501  503 -0.00000000000E+00 -0.00000000000E+00 -0.84899257250E+03  0.84899257250E+03  0.00000000000E+00 0. -1.
    9000007    2    1    2  501    0 -0.33471017591E+02 -0.31789354253E+02  0.92435871800E+02  0.41309690899E+03  0.39996724086E+03 0.  0.
    9000005    1    3    3    0    0  0.14508463119E+03 -0.10192138220E+03 -0.37718154708E+02  0.18127652233E+03  0.99999687468E+00 0.  0.
          4    1    3    3  501    0 -0.17855564878E+03  0.70132027951E+02  0.13015402651E+03  0.23182038666E+03  0.00000000000E+00 0.  1.
   -9000007    1    1    2    0  502  0.33471017591E+02  0.31789354253E+02 -0.62980485713E+03  0.74751925067E+03  0.40000000000E+03 0. -1.
<mgrwt>
<rscale>  2 0.40264664E+03</rscale>
<asrwt>0</asrwt>
<pdfrwt beam="1">  1       21 0.47942091E-01 0.40265478E+03</pdfrwt>
<pdfrwt beam="2">  1       21 0.13061424E+00 0.40265478E+03</pdfrwt>
<totfact> 0.15485909E+03</totfact>
</mgrwt>
</event>
<event>
 6    1  0.9190795E-004  0.4044586E+03  0.7818608E-02  0.1042294E+00
         21   -1    0    0  503  502  0.00000000000E+00  0.00000000000E+00  0.46527078739E+03  0.46527078739E+03  0.00000000000E+00 0. -1.
         21   -1    0    0  501  503 -0.00000000000E+00 -0.00000000000E+00 -0.35926810120E+03  0.35926810120E+03  0.00000000000E+00 0. -1.
    9000007    2    1    2  501    0 -0.33652652344E+02 -0.44832955237E+02  0.11513418030E+03  0.42052666221E+03  0.40055498907E+03 0.  0.
    9000005    1    3    3    0    0  0.12585836949E+03 -0.98093834090E+01 -0.92396983805E+02  0.15644409795E+03  0.99999687468E+00 0.  0.
          4    1    3    3  501    0 -0.15951102183E+03 -0.35023571828E+02  0.20753116411E+03  0.26408256426E+03  0.00000000000E+00 0.  1.
   -9000007    1    1    2    0  502  0.33652652344E+02  0.44832955237E+02 -0.91314941138E+01  0.40401222639E+03  0.40000000000E+03 0.  1.
<mgrwt>
<rscale>  2 0.40432117E+03</rscale>
<asrwt>0</asrwt>
<pdfrwt beam="1">  1       21 0.71580121E-01 0.40445864E+03</pdfrwt>
<pdfrwt beam="2">  1       21 0.55272016E-01 0.40445864E+03</pdfrwt>
<totfact> 0.48633097E+03</totfact>
</mgrwt>
</event>
<event>
 6    1  0.9190795E-004  0.4266145E+03  0.7818608E-02  0.1035023E+00
         21   -1    0    0  503  502  0.00000000000E+00  0.00000000000E+00  0.19387064786E+03  0.19387064786E+03  0.00000000000E+00 0. -1.
         21   -1    0    0  501  503 -0.00000000000E+00 -0.00000000000E+00 -0.98856133759E+03  0.98856133759E+03  0.00000000000E+00 0. -1.
    9000007    2    1    2  501    0 -0.83006167466E+02 -0.11905469282E+03 -0.53369529866E+03  0.68325001675E+03  0.40116813165E+03 0.  0.
    9000005    1    3    3    0    0 -0.13375024347E+03 -0.20992855230E+02  0.28903818491E+01  0.13542223562E+03  0.99999687468E+00 0.  0.
          4    1    3    3  501    0  0.50744076008E+02 -0.98061837592E+02 -0.53658568051E+03  0.54782778112E+03  0.00000000000E+00 0.  1.
   -9000007    1    1    2    0  502  0.83006167466E+02  0.11905469282E+03 -0.26099539107E+03  0.49918196870E+03  0.40000000000E+03 0. -1.
<mgrwt>
<rscale>  2 0.42633965E+03</rscale>
<asrwt>0</asrwt>
<pdfrwt beam="1">  1       21 0.29826253E-01 0.42661448E+03</pdfrwt>
<pdfrwt beam="2">  1       21 0.15208636E+00 0.42661448E+03</pdfrwt>
<totfact> 0.26977126E+03</totfact>
</mgrwt>
</event>
<event>
 6    1  0.9190795E-004  0.4588810E+03  0.7818608E-02  0.1025128E+00
         21   -1    0    0  503  502  0.00000000000E+00  0.00000000000E+00  0.25557568119E+03  0.25557568119E+03  0.00000000000E+00 0.  1.
         21   -1    0    0  501  503 -0.00000000000E+00 -0.00000000000E+00 -0.85329128730E+03  0.85329128730E+03  0.00000000000E+00 0.  1.
    9000007    2    1    2  501    0  0.22368050599E+03  0.16262885479E+02 -0.40276574142E+03  0.61056695852E+03  0.40034275086E+03 0.  0.
    9000005    1    3    3    0    0  0.31353174246E+03  0.56170593109E+02 -0.17717826218E+03  0.36448652326E+03  0.99999687468E+00 0.  0.
          4    1    3    3  501    0 -0.89851236467E+02 -0.39907707629E+02 -0.22558747924E+03  0.24608043525E+03  0.00000000000E+00 0.  1.
   -9000007    1    1    2    0  502 -0.22368050599E+03 -0.16262885479E+02 -0.19494986469E+03  0.49830000998E+03  0.40000000000E+03 0. -1.
<mgrwt>
<rscale>  2 0.45880623E+03</rscale>
<asrwt>0</asrwt>
<pdfrwt beam="1">  1       21 0.39319336E-01 0.45888100E+03</pdfrwt>
<pdfrwt beam="2">  1       21 0.13127558E+00 0.45888100E+03</pdfrwt>
<totfact> 0.22571920E+03</totfact>
</mgrwt>
</event>
<event>
 6    1  0.9190795E-004  0.4327174E+03  0.7818608E-02  0.1033125E+00
         21   -1    0    0  503  502  0.00000000000E+00  0.00000000000E+00  0.55304700683E+03  0.55304700683E+03  0.00000000000E+00 0.  1.
         21   -1    0    0  501  503 -0.00000000000E+00 -0.00000000000E+00 -0.36525810391E+03  0.36525810391E+03  0.00000000000E+00 0.  1.
    9000007    2    1    2  501    0 -0.16033189679E+03  0.14550765310E+02 -0.32827057364E+02  0.43396076647E+03  0.40165444009E+03 0.  0.
    9000005    1    3    3    0    0 -0.18335782816E+03  0.18370466783E+03  0.27970905693E+01  0.25956949327E+03  0.99999687468E+00 0.  0.
          4    1    3    3  501    0  0.23025931370E+02 -0.16915390252E+03 -0.35624147933E+02  0.17439127320E+03  0.00000000000E+00 0.  1.
   -9000007    1    1    2    0  502  0.16033189679E+03 -0.14550765310E+02  0.22061596028E+03  0.48434434427E+03  0.40000000000E+03 0. -1.
<mgrwt>
<rscale>  2 0.43233306E+03</rscale>
<asrwt>0</asrwt>
<pdfrwt beam="1">  1       21 0.85084155E-01 0.43271738E+03</pdfrwt>
<pdfrwt beam="2">  1       21 0.56193554E-01 0.43271738E+03</pdfrwt>
<totfact> 0.31234024E+03</totfact>
</mgrwt>
</event>
<event>
 6    1  0.9190795E-004  0.4183539E+03  0.7818608E-02  0.1037607E+00
         21   -1    0    0  503  502  0.00000000000E+00  0.00000000000E+00  0.12628745560E+04  0.12628745560E+04  0.00000000000E+00 0. -1.
         21   -1    0    0  501  503 -0.00000000000E+00 -0.00000000000E+00 -0.19266364121E+03  0.19266364121E+03  0.00000000000E+00 0. -1.
    9000007    2    1    2  501    0  0.70971732645E+02  0.99915101177E+02  0.14946669255E+03  0.44420742191E+03  0.39994990589E+03 0.  0.
    9000005    1    3    3    0    0  0.63833400978E+02  0.25492267288E+03  0.85305481204E+02  0.27629386050E+03  0.99999687468E+00 0.  0.
          4    1    3    3  501    0  0.71383316673E+01 -0.15500757171E+03  0.64161211342E+02  0.16791356141E+03  0.00000000000E+00 0.  1.
   -9000007    1    1    2    0  502 -0.70971732645E+02 -0.99915101177E+02  0.92074422220E+03  0.10113307753E+04  0.40000000000E+03 0. -1.
<mgrwt>
<rscale>  2 0.41834196E+03</rscale>
<asrwt>0</asrwt>
<pdfrwt beam="1">  1       21 0.19428839E+00 0.41835393E+03</pdfrwt>
<pdfrwt beam="2">  1       21 0.29640561E-01 0.41835393E+03</pdfrwt>
<totfact> 0.13600436E+03</totfact>
</mgrwt>
</event>
<event>
 6    1  0.9190795E-004  0.7149794E+03  0.7818608E-02  0.9692267E-01
         21   -1    0    0  503  502  0.00000000000E+00  0.00000000000E+00  0.34329405776E+03  0.34329405776E+03  0.00000000000E+00 0. -1.
         21   -1    0    0  501  503 -0.00000000000E+00 -0.00000000000E+00 -0.15813567937E+04  0.15813567937E+04  0.00000000000E+00 0.  1.
    9000007    2    1    2  501    0  0.48184792262E+03 -0.34342637853E+03 -0.38492015338E+03  0.81200923613E+03  0.40134321607E+03 0.  0.
    9000005    1    3    3    0    0  0.24877919649E+03 -0.35517986179E+03 -0.10239349336E+03  0.44556621315E+03  0.99999687468E+00 0.  0.
          4    1    3    3  501    0  0.23306872613E+03  0.11753483257E+02 -0.28252666002E+03  0.36644302298E+03  0.00000000000E+00 0.  1.
   -9000007    1    1    2    0  502 -0.48184792262E+03  0.34342637853E+03 -0.85314258260E+03  0.11126416154E+04  0.40000000000E+03 0.  1.
<mgrwt>
<rscale>  2 0.71479100E+03</rscale>
<asrwt>0</asrwt>
<pdfrwt beam="1">  1       21 0.52814471E-01 0.71497935E+03</pdfrwt>
<pdfrwt beam="2">  1       21 0.24328566E+00 0.71497935E+03</pdfrwt>
<totfact> 0.17576555E+02</totfact>
</mgrwt>
</event>
<event>
 6    1  0.9190795E-004  0.4036664E+03  0.7818608E-02  0.1042525E+00
         21   -1    0    0  503  502  0.00000000000E+00  0.00000000000E+00  0.84264701417E+03  0.84264701417E+03  0.00000000000E+00 0.  1.
         21   -1    0    0  501  503 -0.00000000000E+00 -0.00000000000E+00 -0.46361803415E+03  0.46361803415E+03  0.00000000000E+00 0.  1.
    9000007    2    1    2  501    0  0.24373686767E+02  0.48502737322E+02 -0.30918551737E+03  0.50840178525E+03  0.39991261416E+03 0.  0.
    9000005    1    3    3    0    0 -0.60652834177E+02 -0.15650198394E+03 -0.69282297838E+02  0.18158379349E+03  0.99999687468E+00 0.  0.
          4    1    3    3  501    0  0.85026520944E+02  0.20500472126E+03 -0.23990321953E+03  0.32681799177E+03  0.00000000000E+00 0.  1.
   -9000007    1    1    2    0  502 -0.24373686767E+02 -0.48502737322E+02  0.68821449738E+03  0.79786326306E+03  0.40000000000E+03 0.  1.
<mgrwt>
<rscale>  2 0.40364479E+03</rscale>
<asrwt>0</asrwt>
<pdfrwt beam="1">  1       21 0.12963800E+00 0.40366644E+03</pdfrwt>
<pdfrwt beam="2">  1       21 0.71325852E-01 0.40366644E+03</pdfrwt>
<totfact> 0.66433745E+02</totfact>
</mgrwt>
</event>
<event>
 6    1  0.9190795E-004  0.5680649E+03  0.7818608E-02  0.9975545E-01
         21   -1    0    0  503  502  0.00000000000E+00  0.00000000000E+00  0.11793725559E+03  0.11793725559E+03  0.00000000000E+00 0.  1.
         21   -1    0    0  501  503 -0.00000000000E+00 -0.00000000000E+00 -0.33289669445E+04  0.33289669445E+04  0.00000000000E+00 0.  1.
    9000007    2    1    2  501    0  0.23862230012E+03  0.32023782423E+03 -0.23443532296E+04  0.24121960522E+04  0.40398621627E+03 0.  0.
    9000005    1    3    3    0    0  0.75626184990E+02 -0.77639268911E+02 -0.86061269741E+03  0.86741131586E+03  0.99999687468E+00 0.  0.
          4    1    3    3  501    0  0.16299611513E+03  0.39787709314E+03 -0.14837405322E+04  0.15447847364E+04  0.00000000000E+00 0.  1.
   -9000007    1    1    2    0  502 -0.23862230012E+03 -0.32023782423E+03 -0.86667645932E+03  0.10347081479E+04  0.40000000000E+03 0.  1.
<mgrwt>
<rscale>  2 0.56735660E+03</rscale>
<asrwt>0</asrwt>
<pdfrwt beam="1">  1       21 0.18144194E-01 0.56806490E+03</pdfrwt>
<pdfrwt beam="2">  1       21 0.51214875E+00 0.56806490E+03</pdfrwt>
<totfact> 0.29221184E+01</totfact>
</mgrwt>
</event>
<event>
 6    1  0.9190795E-004  0.4600079E+03  0.7818608E-02  0.1024821E+00
         21   -1    0    0  503  502  0.00000000000E+00  0.00000000000E+00  0.11187159795E+04  0.11187159795E+04  0.00000000000E+00 0.  1.
         21   -1    0    0  501  503 -0.00000000000E+00 -0.00000000000E+00 -0.94549004815E+03  0.94549004815E+03  0.00000000000E+00 0.  1.
    9000007    2    1    2  501    0  0.11903319952E+03  0.19348990483E+03 -0.83665292303E+03  0.95449320606E+03  0.39932683475E+03 0.  0.
    9000005    1    3    3    0    0 -0.78645707687E+02  0.13748456503E+03 -0.94534207916E+02  0.18445831350E+03  0.99999687468E+00 0.  0.
          4    1    3    3  501    0  0.19767890721E+03  0.56005339797E+02 -0.74211871511E+03  0.77003489256E+03  0.00000000000E+00 0.  1.
   -9000007    1    1    2    0  502 -0.11903319952E+03 -0.19348990483E+03  0.10098788543E+04  0.11097128215E+04  0.40000000000E+03 0.  1.
<mgrwt>
<rscale>  2 0.45986150E+03</rscale>
<asrwt>0</asrwt>
<pdfrwt beam="1">  1       21 0.17211015E+00 0.46000788E+03</pdfrwt>
<pdfrwt beam="2">  1       21 0.14546001E+00 0.46000788E+03</pdfrwt>
<totfact> 0.52215522E+01</totfact>
</mgrwt>
</event>
<event>
 6    1  0.9190795E-004  0.4704735E+03  0.7818608E-02  0.1021862E+00
         21   -1    0    0  503  502  0.00000000000E+00  0.00000000000E+00  0.21270264172E+03  0.21270264172E+03  0.00000000000E+00 0.  1.
         21   -1    0    0  501  503 -0.00000000000E+00 -0.00000000000E+00 -0.11258925521E+04  0.11258925521E+04  0.00000000000E+00 0.  1.
    9000007    2    1    2  501    0 -0.18268856302E+03 -0.16724308311E+03 -0.26938935323E+03  0.54120914097E+03  0.39873719506E+03 0.  0.
    9000005    1    3    3    0    0 -0.23969334059E+03  0.30029053764E+02 -0.62084480489E+02  0.24941957482E+03  0.99999687468E+00 0.  0.
          4    1    3    3  501    0  0.57004777566E+02 -0.19727213687E+03 -0.20730487274E+03  0.29178956615E+03  0.00000000000E+00 0.  1.
   -9000007    1    1    2    0  502  0.18268856302E+03  0.16724308311E+03 -0.64380055716E+03  0.79738605287E+03  0.40000000000E+03 0.  1.
<mgrwt>
<rscale>  2 0.47020502E+03</rscale>
<asrwt>0</asrwt>
<pdfrwt beam="1">  1       21 0.32723484E-01 0.47047355E+03</pdfrwt>
<pdfrwt beam="2">  1       21 0.17321424E+00 0.47047355E+03</pdfrwt>
<totfact> 0.15304449E+03</totfact>
</mgrwt>
</event>
<event>
 6    1  0.9190795E-004  0.4116077E+03  0.7818608E-02  0.1039848E+00
         21   -1    0    0  503  502  0.00000000000E+00  0.00000000000E+00  0.75341894378E+03  0.75341894378E+03  0.00000000000E+00 0.  1.
         21   -1    0    0  501  503 -0.00000000000E+00 -0.00000000000E+00 -0.23143749960E+03  0.23143749960E+03  0.00000000000E+00 0.  1.
    9000007    2    1    2  501    0  0.92690804609E+02 -0.26077073874E+02  0.17746790672E+03  0.44823630163E+03  0.40018661289E+03 0.  0.
    9000005    1    3    3    0    0  0.66618689013E+02  0.53671782763E+02  0.29312248354E+03  0.30535307488E+03  0.99999687468E+00 0.  0.
          4    1    3    3  501    0  0.26072115596E+02 -0.79748856638E+02 -0.11565457682E+03  0.14288322675E+03  0.00000000000E+00 0.  1.
   -9000007    1    1    2    0  502 -0.92690804609E+02  0.26077073874E+02  0.34451353746E+03  0.53662014175E+03  0.40000000000E+03 0. -1.
<mgrwt>
<rscale>  2 0.41156237E+03</rscale>
<asrwt>0</asrwt>
<pdfrwt beam="1">  1       21 0.11591061E+00 0.41160773E+03</pdfrwt>
<pdfrwt beam="2">  1       21 0.35605770E-01 0.41160773E+03</pdfrwt>
<totfact> 0.38676414E+03</totfact>
</mgrwt>
</event>
<event>
 6    1  0.9190795E-004  0.6961400E+03  0.7818608E-02  0.9723858E-01
         21   -1    0    0  503  502  0.00000000000E+00  0.00000000000E+00  0.56237888844E+03  0.56237888844E+03  0.00000000000E+00 0.  1.
         21   -1    0    0  501  503 -0.00000000000E+00 -0.00000000000E+00 -0.86210328638E+03  0.86210328638E+03  0.00000000000E+00 0.  1.
    9000007    2    1    2  501    0  0.28570398574E+03  0.49292676346E+03 -0.16508451702E+03  0.71544659099E+03  0.40000920639E+03 0.  0.
    9000005    1    3    3    0    0  0.30390929666E+03  0.14696360814E+03 -0.15058723381E+02  0.33791556321E+03  0.99999687468E+00 0.  0.
          4    1    3    3  501    0 -0.18205310916E+02  0.34596315531E+03 -0.15002579364E+03  0.37753102778E+03  0.00000000000E+00 0.  1.
   -9000007    1    1    2    0  502 -0.28570398574E+03 -0.49292676346E+03 -0.13463988091E+03  0.70903558383E+03  0.40000000000E+03 0.  1.
<mgrwt>
<rscale>  2 0.69613870E+03</rscale>
<asrwt>0</asrwt>
<pdfrwt beam="1">  1       21 0.86519829E-01 0.69614002E+03</pdfrwt>
<pdfrwt beam="2">  1       21 0.13263127E+00 0.69614002E+03</pdfrwt>
<totfact> 0.35859955E+02</totfact>
</mgrwt>
</event>
<event>
 6    1  0.9190795E-004  0.4601848E+03  0.7818608E-02  0.1024767E+00
         21   -1    0    0  503  502  0.00000000000E+00  0.00000000000E+00  0.10877800424E+03  0.10877800424E+03  0.00000000000E+00 0.  1.
         21   -1    0    0  501  503 -0.00000000000E+00 -0.00000000000E+00 -0.19759962767E+04  0.19759962767E+04  0.00000000000E+00 0.  1.
    9000007    2    1    2  501    0 -0.26470771019E+02  0.22598535841E+03 -0.10646554223E+04  0.11596379599E+04  0.39937319140E+03 0.  0.
    9000005    1    3    3    0    0 -0.16636317736E+03  0.10213804821E+02 -0.21573033947E+03  0.27261989647E+03  0.99999687468E+00 0.  0.
          4    1    3    3  501    0  0.13989240635E+03  0.21577155359E+03 -0.84892508282E+03  0.88701806348E+03  0.00000000000E+00 0.  1.
   -9000007    1    1    2    0  502  0.26470771019E+02 -0.22598535841E+03 -0.80256285021E+03  0.92513632102E+03  0.40000000000E+03 0.  1.
<mgrwt>
<rscale>  2 0.46004859E+03</rscale>
<asrwt>0</asrwt>
<pdfrwt beam="1">  1       21 0.16735079E-01 0.46018484E+03</pdfrwt>
<pdfrwt beam="2">  1       21 0.30399941E+00 0.46018484E+03</pdfrwt>
<totfact> 0.83095539E+02</totfact>
</mgrwt>
</event>
<event>
 6    1  0.9190795E-004  0.6199327E+03  0.7818608E-02  0.9865115E-01
         21   -1    0    0  503  502  0.00000000000E+00  0.00000000000E+00  0.69851800878E+03  0.69851800878E+03  0.00000000000E+00 0. -1.
         21   -1    0    0  501  503 -0.00000000000E+00 -0.00000000000E+00 -0.62552194922E+03  0.62552194922E+03  0.00000000000E+00 0. -1.
    9000007    2    1    2  501    0  0.87277439577E+02 -0.46550960270E+03 -0.19385682316E+03  0.64911255251E+03  0.39931202871E+03 0.  0.
    9000005    1    3    3    0    0  0.10593573620E+03 -0.24340601189E+03 -0.30140128933E+03  0.40163740368E+03  0.99999687468E+00 0.  0.
          4    1    3    3  501    0 -0.18658296623E+02 -0.22210359081E+03  0.10754446618E+03  0.24747514883E+03  0.00000000000E+00 0.  1.
   -9000007    1    1    2    0  502 -0.87277439577E+02  0.46550960270E+03  0.26685288272E+03  0.67492740549E+03  0.40000000000E+03 0. -1.
<mgrwt>
<rscale>  2 0.61982174E+03</rscale>
<asrwt>0</asrwt>
<pdfrwt beam="1">  1       21 0.10746431E+00 0.61993269E+03</pdfrwt>
<pdfrwt beam="2">  1       21 0.96234146E-01 0.61993269E+03</pdfrwt>
<totfact> 0.48770581E+02</totfact>
</mgrwt>
</event>
<event>
 6    1  0.9190795E-004  0.5155854E+03  0.7818608E-02  0.1009826E+00
         21   -1    0    0  503  502  0.00000000000E+00  0.00000000000E+00  0.13988862972E+04  0.13988862972E+04  0.00000000000E+00 0. -1.
         21   -1    0    0  501  503 -0.00000000000E+00 -0.00000000000E+00 -0.26036053342E+03  0.26036053342E+03  0.00000000000E+00 0. -1.
    9000007    2    1    2  501    0 -0.21635034352E+02  0.32459234096E+03  0.13717180042E+03  0.53295289809E+03  0.39924231518E+03 0.  0.
    9000005    1    3    3    0    0 -0.11301274589E+03 -0.34853994123E+02 -0.36012843094E+02  0.12363092858E+03  0.99999687468E+00 0.  0.
          4    1    3    3  501    0  0.91377711542E+02  0.35944633509E+03  0.17318464351E+03  0.40932196951E+03  0.00000000000E+00 0.  1.
   -9000007    1    1    2    0  502  0.21635034352E+02 -0.32459234096E+03  0.10013539633E+04  0.11262939325E+04  0.40000000000E+03 0. -1.
<mgrwt>
<rscale>  2 0.51543840E+03</rscale>
<asrwt>0</asrwt>
<pdfrwt beam="1">  1       21 0.21521327E+00 0.51558536E+03</pdfrwt>
<pdfrwt beam="2">  1       21 0.40055467E-01 0.51558536E+03</pdfrwt>
<totfact> 0.51482545E+02</totfact>
</mgrwt>
</event>
<event>
 6    1  0.9190795E-004  0.4441141E+03  0.7818608E-02  0.1029579E+00
         21   -1    0    0  503  502  0.00000000000E+00  0.00000000000E+00  0.10914214851E+04  0.10914214851E+04  0.00000000000E+00 0.  1.
         21   -1    0    0  501  503 -0.00000000000E+00 -0.00000000000E+00 -0.22558286423E+03  0.22558286423E+03  0.00000000000E+00 0.  1.
    9000007    2    1    2  501    0 -0.69667114736E+02 -0.17995494676E+03  0.13726892739E+03  0.46374525152E+03  0.39872247258E+03 0.  0.
    9000005    1    3    3    0    0  0.93170109280E+02  0.85896047676E+02  0.70138883261E+02  0.14484220106E+03  0.99999687468E+00 0.  0.
          4    1    3    3  501    0 -0.16283722402E+03 -0.26585099444E+03  0.67130044125E+02  0.31890305046E+03  0.00000000000E+00 0.  1.
   -9000007    1    1    2    0  502  0.69667114736E+02  0.17995494676E+03  0.72856969351E+03  0.85325909784E+03  0.40000000000E+03 0.  1.
<mgrwt>
<rscale>  2 0.44382620E+03</rscale>
<asrwt>0</asrwt>
<pdfrwt beam="1">  1       21 0.16791099E+00 0.44411405E+03</pdfrwt>
<pdfrwt beam="2">  1       21 0.34705057E-01 0.44411405E+03</pdfrwt>
<totfact> 0.15018627E+03</totfact>
</mgrwt>
</event>
<event>
 6    1  0.9190795E-004  0.4453426E+03  0.7818608E-02  0.1029133E+00
         21   -1    0    0  503  502  0.00000000000E+00  0.00000000000E+00  0.60958175170E+03  0.60958175170E+03  0.00000000000E+00 0.  1.
         21   -1    0    0  501  503 -0.00000000000E+00 -0.00000000000E+00 -0.39051984716E+03  0.39051984716E+03  0.00000000000E+00 0.  1.
    9000007    2    1    2  501    0 -0.19025448133E+03 -0.44532250032E+02 -0.94913281959E+02  0.45534449087E+03  0.40018768762E+03 0.  0.
    9000005    1    3    3    0    0 -0.57816190151E+01 -0.82748112604E+02  0.13478770738E+03  0.15827003289E+03  0.99999687468E+00 0.  0.
          4    1    3    3  501    0 -0.18447286231E+03  0.38215862572E+02 -0.22970098934E+03  0.29707445798E+03  0.00000000000E+00 0.  1.
   -9000007    1    1    2    0  502  0.19025448133E+03  0.44532250032E+02  0.31397518650E+03  0.54475710798E+03  0.40000000000E+03 0.  1.
<mgrwt>
<rscale>  2 0.44530048E+03</rscale>
<asrwt>0</asrwt>
<pdfrwt beam="1">  1       21 0.93781808E-01 0.44534265E+03</pdfrwt>
<pdfrwt beam="2">  1       21 0.60079976E-01 0.44534265E+03</pdfrwt>
<totfact> 0.21351282E+03</totfact>
</mgrwt>
</event>
<event>
 6    1  0.9190795E-004  0.7168276E+03  0.7818608E-02  0.9689148E-01
         21   -1    0    0  503  502  0.00000000000E+00  0.00000000000E+00  0.71910286827E+03  0.71910286827E+03  0.00000000000E+00 0. -1.
         21   -1    0    0  501  503 -0.00000000000E+00 -0.00000000000E+00 -0.10211615775E+04  0.10211615775E+04  0.00000000000E+00 0. -1.
    9000007    2    1    2  501    0 -0.50906274955E+03 -0.30621807998E+03 -0.62836648642E+03  0.95325036658E+03  0.40115760574E+03 0.  0.
    9000005    1    3    3    0    0 -0.13213075236E+03 -0.30126753884E+03 -0.21087941569E+03  0.39075797322E+03  0.99999687468E+00 0.  0.
          4    1    3    3  501    0 -0.37693199719E+03 -0.49505411435E+01 -0.41748707073E+03  0.56249239336E+03  0.00000000000E+00 0.  1.
   -9000007    1    1    2    0  502  0.50906274955E+03  0.30621807998E+03  0.32630777715E+03  0.78701407923E+03  0.40000000000E+03 0. -1.
<mgrwt>
<rscale>  2 0.71666576E+03</rscale>
<asrwt>0</asrwt>
<pdfrwt beam="1">  1       21 0.11063121E+00 0.71682761E+03</pdfrwt>
<pdfrwt beam="2">  1       21 0.15710178E+00 0.71682761E+03</pdfrwt>
<totfact> 0.12317027E+02</totfact>
</mgrwt>
</event>
<event>
 6    1  0.9190795E-004  0.4334496E+03  0.7818608E-02  0.1032924E+00
         21   -1    0    0  503  502  0.00000000000E+00  0.00000000000E+00  0.59488464868E+03  0.59488464868E+03  0.00000000000E+00 0. -1.
         21   -1    0    0  501  503 -0.00000000000E+00 -0.00000000000E+00 -0.11969539978E+04  0.11969539978E+04  0.00000000000E+00 0.  1.
    9000007    2    1    2  501    0 -0.10822750865E+03  0.12714291117E+03 -0.10701498873E+04  0.11538904481E+04  0.39794958408E+03 0.  0.
    9000005    1    3    3    0    0 -0.15472956359E+03  0.12229219645E+03 -0.19451588620E+03  0.27700911382E+03  0.99999687468E+00 0.  0.
          4    1    3    3  501    0  0.46502054938E+02  0.48507147148E+01 -0.87563400111E+03  0.87688133431E+03  0.00000000000E+00 0.  1.
   -9000007    1    1    2    0  502  0.10822750865E+03 -0.12714291117E+03  0.46808053822E+03  0.63794819833E+03  0.40000000000E+03 0. -1.
<mgrwt>
<rscale>  2 0.43297591E+03</rscale>
<asrwt>0</asrwt>
<pdfrwt beam="1">  1       21 0.91520715E-01 0.43344955E+03</pdfrwt>
<pdfrwt beam="2">  1       21 0.18414677E+00 0.43344955E+03</pdfrwt>
<totfact> 0.14002471E+02</totfact>
</mgrwt>
</event>
<event>
 6    1  0.9190795E-004  0.4329262E+03  0.7818608E-02  0.1032987E+00
         21   -1    0    0  503  502  0.00000000000E+00  0.00000000000E+00  0.24598362497E+03  0.24598362497E+03  0.00000000000E+00 0.  1.
         21   -1    0    0  501  503 -0.00000000000E+00 -0.00000000000E+00 -0.81119169125E+03  0.81119169125E+03  0.00000000000E+00 0.  1.
    9000007    2    1    2  501    0  0.47423585088E+02  0.15866970727E+03 -0.15077755888E+03  0.45786094305E+03  0.39934658942E+03 0.  0.
    9000005    1    3    3    0    0  0.14254368436E+03 -0.72763455577E+02  0.10140087382E+02  0.16036534471E+03  0.99999687468E+00 0.  0.
          4    1    3    3  501    0 -0.95120099271E+02  0.23143316285E+03 -0.16091764627E+03  0.29749559834E+03  0.00000000000E+00 0.  1.
   -9000007    1    1    2    0  502 -0.47423585088E+02 -0.15866970727E+03 -0.41443050740E+03  0.59931437317E+03  0.40000000000E+03 0.  1.
<mgrwt>
<rscale>  2 0.43277518E+03</rscale>
<asrwt>0</asrwt>
<pdfrwt beam="1">  1       21 0.37843635E-01 0.43292617E+03</pdfrwt>
<pdfrwt beam="2">  1       21 0.12479872E+00 0.43292617E+03</pdfrwt>
<totfact> 0.28097472E+03</totfact>
</mgrwt>
</event>
<event>
 6    1  0.9190795E-004  0.4426963E+03  0.7818608E-02  0.1029924E+00
         21   -1    0    0  503  502  0.00000000000E+00  0.00000000000E+00  0.80964205915E+03  0.80964205915E+03  0.00000000000E+00 0. -1.
         21   -1    0    0  501  503 -0.00000000000E+00 -0.00000000000E+00 -0.46546766594E+03  0.46546766594E+03  0.00000000000E+00 0.  1.
    9000007    2    1    2  501    0 -0.12315563821E+03  0.14426618076E+03 -0.26962055720E+03  0.51832423152E+03  0.39998090203E+03 0.  0.
    9000005    1    3    3    0    0 -0.10819005033E+03 -0.12160499710E+03 -0.16627167302E+03  0.23268032051E+03  0.99999687468E+00 0.  0.
          4    1    3    3  501    0 -0.14965587879E+02  0.26587117786E+03 -0.10334888418E+03  0.28564391101E+03  0.00000000000E+00 0.  1.
   -9000007    1    1    2    0  502  0.12315563821E+03 -0.14426618076E+03  0.61379495041E+03  0.75678549357E+03  0.40000000000E+03 0. -1.
<mgrwt>
<rscale>  2 0.44269202E+03</rscale>
<asrwt>0</asrwt>
<pdfrwt beam="1">  1       21 0.12456032E+00 0.44269633E+03</pdfrwt>
<pdfrwt beam="2">  1       21 0.71610410E-01 0.44269633E+03</pdfrwt>
<totfact> 0.71659364E+02</totfact>
</mgrwt>
</event>
<event>
 6    1  0.9190795E-004  0.4151366E+03  0.7818608E-02  0.1039862E+00
         21   -1    0    0  503  502  0.00000000000E+00  0.00000000000E+00  0.21602909363E+03  0.21602909363E+03  0.00000000000E+00 0. -1.
         21   -1    0    0  501  503 -0.00000000000E+00 -0.00000000000E+00 -0.10043994504E+04  0.10043994504E+04  0.00000000000E+00 0. -1.
    9000007    2    1    2  501    0 -0.26242250623E+02 -0.29945015900E+00 -0.69387782334E+03  0.80858198978E+03  0.41430623347E+03 0.  0.
    9000005    1    3    3    0    0  0.10120099736E+03  0.17008278903E+03 -0.39364658951E+03  0.44060008445E+03  0.99999687468E+00 0.  0.
          4    1    3    3  501    0 -0.12744324798E+03 -0.17038223919E+03 -0.30023123383E+03  0.36798190533E+03  0.00000000000E+00 0.  1.
   -9000007    1    1    2    0  502  0.26242250623E+02  0.29945015900E+00 -0.94492533456E+02  0.41184655427E+03  0.40000000000E+03 0. -1.
<mgrwt>
<rscale>  2 0.41152048E+03</rscale>
<asrwt>0</asrwt>
<pdfrwt beam="1">  1       21 0.33235246E-01 0.41513660E+03</pdfrwt>
<pdfrwt beam="2">  1       21 0.15452299E+00 0.41513660E+03</pdfrwt>
<totfact> 0.20915010E+03</totfact>
</mgrwt>
</event>
<event>
 6    1  0.9190795E-004  0.7026177E+03  0.7818608E-02  0.9712849E-01
         21   -1    0    0  503  502  0.00000000000E+00  0.00000000000E+00  0.76375660881E+03  0.76375660881E+03  0.00000000000E+00 0. -1.
         21   -1    0    0  501  503 -0.00000000000E+00 -0.00000000000E+00 -0.64775321936E+03  0.64775321936E+03  0.00000000000E+00 0.  1.
    9000007    2    1    2  501    0  0.19386972119E+03  0.54413802347E+03  0.23363491144E+02  0.70281115586E+03  0.39965736663E+03 0.  0.
    9000005    1    3    3    0    0 -0.94828653210E+02  0.25842282332E+03  0.93302723150E+02  0.29065654513E+03  0.99999687468E+00 0.  0.
          4    1    3    3  501    0  0.28869837440E+03  0.28571520015E+03 -0.69939232006E+02  0.41215461074E+03  0.00000000000E+00 0.  1.
   -9000007    1    1    2    0  502 -0.19386972119E+03 -0.54413802347E+03  0.92639898303E+02  0.70869867231E+03  0.40000000000E+03 0. -1.
<mgrwt>
<rscale>  2 0.70256896E+03</rscale>
<asrwt>0</asrwt>
<pdfrwt beam="1">  1       21 0.11750102E+00 0.70261772E+03</pdfrwt>
<pdfrwt beam="2">  1       21 0.99654341E-01 0.70261772E+03</pdfrwt>
<totfact> 0.34886386E+02</totfact>
</mgrwt>
</event>
<event>
 6    1  0.9190795E-004  0.4789801E+03  0.7818608E-02  0.1019417E+00
         21   -1    0    0  503  502  0.00000000000E+00  0.00000000000E+00  0.10548118079E+04  0.10548118079E+04  0.00000000000E+00 0. -1.
         21   -1    0    0  501  503 -0.00000000000E+00 -0.00000000000E+00 -0.29053200836E+03  0.29053200836E+03  0.00000000000E+00 0.  1.
    9000007    2    1    2  501    0 -0.22106566693E+03  0.14330427260E+03  0.71941978516E+03  0.86428398158E+03  0.40001978687E+03 0.  0.
    9000005    1    3    3    0    0 -0.89403545041E+02  0.96631398268E+02  0.71235248310E+03  0.72441540649E+03  0.99999687468E+00 0.  0.
          4    1    3    3  501    0 -0.13166212188E+03  0.46672874335E+02  0.70673020643E+01  0.13986857508E+03  0.00000000000E+00 0.  1.
   -9000007    1    1    2    0  502  0.22106566693E+03 -0.14330427260E+03  0.44860014365E+02  0.48105983467E+03  0.40000000000E+03 0.  1.
<mgrwt>
<rscale>  2 0.47897601E+03</rscale>
<asrwt>0</asrwt>
<pdfrwt beam="1">  1       21 0.16227874E+00 0.47898014E+03</pdfrwt>
<pdfrwt beam="2">  1       21 0.44697233E-01 0.47898014E+03</pdfrwt>
<totfact> 0.96827136E+02</totfact>
</mgrwt>
</event>
<event>
 6    1  0.9190795E-004  0.5682485E+03  0.7818608E-02  0.9973568E-01
         21   -1    0    0  503  502  0.00000000000E+00  0.00000000000E+00  0.36753556174E+03  0.36753556174E+03  0.00000000000E+00 0.  1.
         21   -1    0    0  501  503 -0.00000000000E+00 -0.00000000000E+00 -0.12165714431E+04  0.12165714431E+04  0.00000000000E+00 0. -1.
    9000007    2    1    2  501    0  0.29353454202E+03 -0.27702672840E+03 -0.84201306105E+03  0.10158151295E+04  0.39998505817E+03 0.  0.
    9000005    1    3    3    0    0  0.17348991321E+03 -0.34439873955E+03 -0.76833624783E+03  0.85968065670E+03  0.99999687468E+00 0.  0.
          4    1    3    3  501    0  0.12004462881E+03  0.67372011147E+02 -0.73676813224E+02  0.15613447281E+03  0.00000000000E+00 0.  1.
   -9000007    1    1    2    0  502 -0.29353454202E+03  0.27702672840E+03 -0.70228203532E+01  0.56829187537E+03  0.40000000000E+03 0.  1.
<mgrwt>
<rscale>  2 0.56824585E+03</rscale>
<asrwt>0</asrwt>
<pdfrwt beam="1">  1       21 0.56543932E-01 0.56824848E+03</pdfrwt>
<pdfrwt beam="2">  1       21 0.18716484E+00 0.56824848E+03</pdfrwt>
<totfact> 0.37404908E+02</totfact>
</mgrwt>
</event>
<event>
 6    1  0.9190795E-004  0.4268619E+03  0.7818608E-02  0.1034982E+00
         21   -1    0    0  503  502  0.00000000000E+00  0.00000000000E+00  0.14387669539E+04  0.14387669539E+04  0.00000000000E+00 0. -1.
         21   -1    0    0  501  503 -0.00000000000E+00 -0.00000000000E+00 -0.17364563387E+03  0.17364563387E+03  0.00000000000E+00 0. -1.
    9000007    2    1    2  501    0  0.14321148947E+03  0.41250151133E+02  0.21018669222E+03  0.47438878545E+03  0.39831541333E+03 0.  0.
    9000005    1    3    3    0    0  0.48249020783E+02  0.17525778288E+03  0.24640238705E+03  0.30619992620E+03  0.99999687468E+00 0.  0.
          4    1    3    3  501    0  0.94962468687E+02 -0.13400763175E+03 -0.36215694830E+02  0.16818885926E+03  0.00000000000E+00 0.  1.
   -9000007    1    1    2    0  502 -0.14321148947E+03 -0.41250151133E+02  0.10549346278E+04  0.11380238023E+04  0.40000000000E+03 0. -1.
<mgrwt>
<rscale>  2 0.42646684E+03</rscale>
<asrwt>0</asrwt>
<pdfrwt beam="1">  1       21 0.22134875E+00 0.42686193E+03</pdfrwt>
<pdfrwt beam="2">  1       21 0.26714714E-01 0.42686193E+03</pdfrwt>
<totfact> 0.11057603E+03</totfact>
</mgrwt>
</event>
<event>
 6    1  0.9190795E-004  0.4509951E+03  0.7818608E-02  0.1027877E+00
         21   -1    0    0  503  502  0.00000000000E+00  0.00000000000E+00  0.31446814249E+03  0.31446814249E+03  0.00000000000E+00 0.  1.
         21   -1    0    0  501  503 -0.00000000000E+00 -0.00000000000E+00 -0.65425438610E+03  0.65425438610E+03  0.00000000000E+00 0. -1.
    9000007    2    1    2  501    0  0.13441613490E+03  0.14115314445E+03 -0.24694448996E+03  0.51417715272E+03  0.40669971201E+03 0.  0.
    9000005    1    3    3    0    0  0.35864823410E+02  0.20806825244E+03 -0.31331207552E+03  0.37781495456E+03  0.99999687468E+00 0.  0.
          4    1    3    3  501    0  0.98551311495E+02 -0.66915107986E+02  0.66367585558E+02  0.13636219816E+03  0.00000000000E+00 0.  1.
   -9000007    1    1    2    0  502 -0.13441613490E+03 -0.14115314445E+03 -0.92841753650E+02  0.45454537588E+03  0.40000000000E+03 0.  1.
<mgrwt>
<rscale>  2 0.44947939E+03</rscale>
<asrwt>0</asrwt>
<pdfrwt beam="1">  1       21 0.48379714E-01 0.45099508E+03</pdfrwt>
<pdfrwt beam="2">  1       21 0.10065452E+00 0.45099508E+03</pdfrwt>
<totfact> 0.28641551E+03</totfact>
</mgrwt>
</event>
<event>
 6    1  0.9190795E-004  0.4806814E+03  0.7818608E-02  0.1018967E+00
         21   -1    0    0  503  502  0.00000000000E+00  0.00000000000E+00  0.54042546961E+03  0.54042546961E+03  0.00000000000E+00 0. -1.
         21   -1    0    0  501  503 -0.00000000000E+00 -0.00000000000E+00 -0.42982046083E+03  0.42982046083E+03  0.00000000000E+00 0. -1.
    9000007    2    1    2  501    0 -0.26505562961E+03 -0.23152844538E+02  0.18151943732E+02  0.48102398671E+03  0.40032991611E+03 0.  0.
    9000005    1    3    3    0    0 -0.30118577905E+03 -0.12669696104E+03  0.10274323581E+03  0.34252323416E+03  0.99999687468E+00 0.  0.
          4    1    3    3  501    0  0.36130149441E+02  0.10354411651E+03 -0.84591292078E+02  0.13850075255E+03  0.00000000000E+00 0.  1.
   -9000007    1    1    2    0  502  0.26505562961E+03  0.23152844538E+02  0.92453065044E+02  0.48922194374E+03  0.40000000000E+03 0. -1.
<mgrwt>
<rscale>  2 0.48061268E+03</rscale>
<asrwt>0</asrwt>
<pdfrwt beam="1">  1       21 0.83142380E-01 0.48068137E+03</pdfrwt>
<pdfrwt beam="2">  1       21 0.66126224E-01 0.48068137E+03</pdfrwt>
<totfact> 0.22658237E+03</totfact>
</mgrwt>
</event>
<event>
 6    1  0.9190795E-004  0.4569182E+03  0.7818608E-02  0.1025682E+00
         21   -1    0    0  503  502  0.00000000000E+00  0.00000000000E+00  0.39989643965E+03  0.39989643965E+03  0.00000000000E+00 0.  1.
         21   -1    0    0  501  503 -0.00000000000E+00 -0.00000000000E+00 -0.55385341794E+03  0.55385341794E+03  0.00000000000E+00 0.  1.
    9000007    2    1    2  501    0  0.17349637311E+03 -0.13649704833E+03 -0.19131172343E+03  0.49535285426E+03  0.40005229535E+03 0.  0.
    9000005    1    3    3    0    0  0.17635634767E+03  0.25818420445E+02  0.66873050370E+02  0.19037110353E+03  0.99999687468E+00 0.  0.
          4    1    3    3  501    0 -0.28599745644E+01 -0.16231546878E+03 -0.25818477380E+03  0.30498175073E+03  0.00000000000E+00 0.  1.
   -9000007    1    1    2    0  502 -0.17349637311E+03  0.13649704833E+03  0.37354745137E+02  0.45839700334E+03  0.40000000000E+03 0.  1.
<mgrwt>
<rscale>  2 0.45690679E+03</rscale>
<asrwt>0</asrwt>
<pdfrwt beam="1">  1       21 0.61522529E-01 0.45691824E+03</pdfrwt>
<pdfrwt beam="2">  1       21 0.85208218E-01 0.45691824E+03</pdfrwt>
<totfact> 0.25317788E+03</totfact>
</mgrwt>
</event>
<event>
 6    1  0.9190795E-004  0.4252266E+03  0.7818608E-02  0.1035422E+00
         21   -1    0    0  503  502  0.00000000000E+00  0.00000000000E+00  0.11675663843E+04  0.11675663843E+04  0.00000000000E+00 0.  1.
         21   -1    0    0  501  503 -0.00000000000E+00 -0.00000000000E+00 -0.20950745534E+03  0.20950745534E+03  0.00000000000E+00 0.  1.
    9000007    2    1    2  501    0  0.48868153589E+02  0.13575557832E+03  0.12654899085E+03  0.44314319411E+03  0.39942905493E+03 0.  0.
    9000005    1    3    3    0    0  0.17763394980E+03 -0.66220621495E+01  0.17038717098E+03  0.24623253209E+03  0.99999687468E+00 0.  0.
          4    1    3    3  501    0 -0.12876579621E+03  0.14237764047E+03 -0.43838180132E+02  0.19691066202E+03  0.00000000000E+00 0.  1.
   -9000007    1    1    2    0  502 -0.48868153589E+02 -0.13575557832E+03  0.83150993809E+03  0.93393064551E+03  0.40000000000E+03 0.  1.
<mgrwt>
<rscale>  2 0.42509229E+03</rscale>
<asrwt>0</asrwt>
<pdfrwt beam="1">  1       21 0.17962559E+00 0.42522661E+03</pdfrwt>
<pdfrwt beam="2">  1       21 0.32231917E-01 0.42522661E+03</pdfrwt>
<totfact> 0.14476604E+03</totfact>
</mgrwt>
</event>
<event>
 6    1  0.9190795E-004  0.4924823E+03  0.7818608E-02  0.1015772E+00
         21   -1    0    0  503  502  0.00000000000E+00  0.00000000000E+00  0.62310485562E+03  0.62310485562E+03  0.00000000000E+00 0. -1.
         21   -1    0    0  501  503 -0.00000000000E+00 -0.00000000000E+00 -0.51799462993E+03  0.51799462993E+03  0.00000000000E+00 0. -1.
    9000007    2    1    2  501    0 -0.65870801290E+02 -0.27931958761E+03 -0.23204897258E+03  0.54441303567E+03  0.40022547800E+03 0.  0.
    9000005    1    3    3    0    0 -0.19402351472E+03 -0.28710405396E+03 -0.10096405694E+03  0.36092742047E+03  0.99999687468E+00 0.  0.
          4    1    3    3  501    0  0.12815271343E+03  0.77844663407E+01 -0.13108491565E+03  0.18348561520E+03  0.00000000000E+00 0.  1.
   -9000007    1    1    2    0  502  0.65870801290E+02  0.27931958761E+03  0.33715919828E+03  0.59668644988E+03  0.40000000000E+03 0. -1.
<mgrwt>
<rscale>  2 0.49243650E+03</rscale>
<asrwt>0</asrwt>
<pdfrwt beam="1">  1       21 0.95862286E-01 0.49248231E+03</pdfrwt>
<pdfrwt beam="2">  1       21 0.79691481E-01 0.49248231E+03</pdfrwt>
<totfact> 0.10538355E+03</totfact>
</mgrwt>
</event>
<event>
 6    1  0.9190795E-004  0.4174061E+03  0.7818608E-02  0.1038079E+00
         21   -1    0    0  503  502  0.00000000000E+00  0.00000000000E+00  0.12309911909E+04  0.12309911909E+04  0.00000000000E+00 0.  1.
         21   -1    0    0  501  503 -0.00000000000E+00 -0.00000000000E+00 -0.38052905385E+03  0.38052905385E+03  0.00000000000E+00 0.  1.
    9000007    2    1    2  501    0  0.73846744368E+02  0.93672339234E+02 -0.21462276131E+03  0.46756496175E+03  0.39790226815E+03 0.  0.
    9000005    1    3    3    0    0  0.44316663908E+02 -0.13743678478E+03  0.89147083023E+01  0.14468347704E+03  0.99999687468E+00 0.  0.
          4    1    3    3  501    0  0.29530080460E+02  0.23110912401E+03 -0.22353746961E+03  0.32288148472E+03  0.00000000000E+00 0.  1.
   -9000007    1    1    2    0  502 -0.73846744368E+02 -0.93672339234E+02  0.10650848983E+04  0.11439552830E+04  0.40000000000E+03 0.  1.
<mgrwt>
<rscale>  2 0.41690273E+03</rscale>
<asrwt>0</asrwt>
<pdfrwt beam="1">  1       21 0.18938326E+00 0.41740610E+03</pdfrwt>
<pdfrwt beam="2">  1       21 0.58542932E-01 0.41740610E+03</pdfrwt>
<totfact> 0.35862224E+02</totfact>
</mgrwt>
</event>
<event>
 6    1  0.9190795E-004  0.5265043E+03  0.7818608E-02  0.1007108E+00
         21   -1    0    0  503  502  0.00000000000E+00  0.00000000000E+00  0.15194601876E+03  0.15194601876E+03  0.00000000000E+00 0. -1.
         21   -1    0    0  501  503 -0.00000000000E+00 -0.00000000000E+00 -0.19776389869E+04  0.19776389869E+04  0.00000000000E+00 0.  1.
    9000007    2    1    2  501    0  0.11248955295E+03 -0.32269969869E+03 -0.61541581845E+03  0.80990331142E+03  0.40052184610E+03 0.  0.
    9000005    1    3    3    0    0  0.23779930515E+03 -0.29708062920E+03 -0.35801153743E+03  0.52247360766E+03  0.99999687468E+00 0.  0.
          4    1    3    3  501    0 -0.12530975220E+03 -0.25619069484E+02 -0.25740428102E+03  0.28742970376E+03  0.00000000000E+00 0.  1.
   -9000007    1    1    2    0  502 -0.11248955295E+03  0.32269969869E+03 -0.12102771497E+04  0.13196816943E+04  0.40000000000E+03 0.  1.
<mgrwt>
<rscale>  2 0.52640502E+03</rscale>
<asrwt>0</asrwt>
<pdfrwt beam="1">  1       21 0.23376314E-01 0.52650427E+03</pdfrwt>
<pdfrwt beam="2">  1       21 0.30425211E+00 0.52650427E+03</pdfrwt>
<totfact> 0.42345326E+02</totfact>
</mgrwt>
</event>
<event>
 6    1  0.9190795E-004  0.7135589E+03  0.7818608E-02  0.9694430E-01
         21   -1    0    0  503  502  0.00000000000E+00  0.00000000000E+00  0.15652583692E+04  0.15652583692E+04  0.00000000000E+00 0.  1.
         21   -1    0    0  501  503 -0.00000000000E+00 -0.00000000000E+00 -0.99923796797E+03  0.99923796797E+03  0.00000000000E+00 0. -1.
    9000007    2    1    2  501    0 -0.14044017848E+03  0.57364750059E+03 -0.77011838356E+03  0.10498802964E+04  0.40046399771E+03 0.  0.
    9000005    1    3    3    0    0 -0.22496780472E+03  0.46192829887E+03 -0.74887344181E+03  0.90818538763E+03  0.99999687468E+00 0.  0.
          4    1    3    3  501    0  0.84527626238E+02  0.11171920172E+03 -0.21244941753E+02  0.14169490880E+03  0.00000000000E+00 0.  1.
   -9000007    1    1    2    0  502  0.14044017848E+03 -0.57364750059E+03  0.13361387848E+04  0.15146160408E+04  0.40000000000E+03 0.  1.
<mgrwt>
<rscale>  2 0.71349382E+03</rscale>
<asrwt>0</asrwt>
<pdfrwt beam="1">  1       21 0.24080898E+00 0.71355891E+03</pdfrwt>
<pdfrwt beam="2">  1       21 0.15372892E+00 0.71355891E+03</pdfrwt>
<totfact> 0.13719036E+01</totfact>
</mgrwt>
</event>
<event>
 6    1  0.9190795E-004  0.4311031E+03  0.7818608E-02  0.1033636E+00
         21   -1    0    0  503  502  0.00000000000E+00  0.00000000000E+00  0.93230548048E+03  0.93230548048E+03  0.00000000000E+00 0. -1.
         21   -1    0    0  501  503 -0.00000000000E+00 -0.00000000000E+00 -0.37303473430E+03  0.37303473430E+03  0.00000000000E+00 0. -1.
    9000007    2    1    2  501    0  0.44511942440E+02 -0.15005635784E+03 -0.16637732712E+03  0.46209449149E+03  0.40168604722E+03 0.  0.
    9000005    1    3    3    0    0 -0.72275354655E+02 -0.25537000915E+03 -0.59603239186E+02  0.27201307796E+03  0.99999687468E+00 0.  0.
          4    1    3    3  501    0  0.11678729710E+03  0.10531365131E+03 -0.10677408794E+03  0.19008141353E+03  0.00000000000E+00 0.  1.
   -9000007    1    1    2    0  502 -0.44511942440E+02  0.15005635784E+03  0.72564807331E+03  0.84324572329E+03  0.40000000000E+03 0. -1.
<mgrwt>
<rscale>  2 0.43070995E+03</rscale>
<asrwt>0</asrwt>
<pdfrwt beam="1">  1       21 0.14343161E+00 0.43110312E+03</pdfrwt>
<pdfrwt beam="2">  1       21 0.57389960E-01 0.43110312E+03</pdfrwt>
<totfact> 0.81329537E+02</totfact>
</mgrwt>
</event>
<event>
 6    1  0.9190795E-004  0.6224228E+03  0.7818608E-02  0.9860050E-01
         21   -1    0    0  503  502  0.00000000000E+00  0.00000000000E+00  0.35893910552E+03  0.35893910552E+03  0.00000000000E+00 0.  1.
         21   -1    0    0  501  503 -0.00000000000E+00 -0.00000000000E+00 -0.15649945883E+04  0.15649945883E+04  0.00000000000E+00 0. -1.
    9000007    2    1    2  501    0  0.39032178444E+03 -0.27396914685E+03 -0.11390469215E+04  0.12979142563E+04  0.39967904433E+03 0.  0.
    9000005    1    3    3    0    0  0.22088127125E+03 -0.14660229679E+03 -0.19173414407E+03  0.32717541381E+03  0.99999687468E+00 0.  0.
          4    1    3    3  501    0  0.16944051319E+03 -0.12736685006E+03 -0.94731277743E+03  0.97073884248E+03  0.00000000000E+00 0.  1.
   -9000007    1    1    2    0  502 -0.39032178444E+03  0.27396914685E+03 -0.67008561249E+02  0.62601943749E+03  0.40000000000E+03 0.  1.
<mgrwt>
<rscale>  2 0.62237128E+03</rscale>
<asrwt>0</asrwt>
<pdfrwt beam="1">  1       21 0.55221401E-01 0.62242284E+03</pdfrwt>
<pdfrwt beam="2">  1       21 0.24076840E+00 0.62242284E+03</pdfrwt>
<totfact> 0.17129381E+02</totfact>
</mgrwt>
</event>
<event>
 6    1  0.9190795E-004  0.4991512E+03  0.7818608E-02  0.1014017E+00
         21   -1    0    0  503  502  0.00000000000E+00  0.00000000000E+00  0.92915219457E+03  0.92915219457E+03  0.00000000000E+00 0.  1.
         21   -1    0    0  501  503 -0.00000000000E+00 -0.00000000000E+00 -0.55062887960E+03  0.55062887960E+03  0.00000000000E+00 0.  1.
    9000007    2    1    2  501    0 -0.25994504698E+03 -0.14606939735E+03 -0.34078449461E+03  0.60438892134E+03  0.40030513384E+03 0.  0.
    9000005    1    3    3    0    0 -0.28027905427E+02  0.10185011440E+03  0.21602166882E+02  0.10782700447E+03  0.99999687468E+00 0.  0.
          4    1    3    3  501    0 -0.23191714155E+03 -0.24791951175E+03 -0.36238666150E+03  0.49656191687E+03  0.00000000000E+00 0.  1.
   -9000007    1    1    2    0  502  0.25994504698E+03  0.14606939735E+03  0.71930780958E+03  0.87539215282E+03  0.40000000000E+03 0.  1.
<mgrwt>
<rscale>  2 0.49909000E+03</rscale>
<asrwt>0</asrwt>
<pdfrwt beam="1">  1       21 0.14294649E+00 0.49915118E+03</pdfrwt>
<pdfrwt beam="2">  1       21 0.84712135E-01 0.49915118E+03</pdfrwt>
<totfact> 0.33100980E+02</totfact>
</mgrwt>
</event>
<event>
 6    1  0.9190795E-004  0.7196059E+03  0.7818608E-02  0.9685122E-01
         21   -1    0    0  503  502  0.00000000000E+00  0.00000000000E+00  0.66377046740E+03  0.66377046740E+03  0.00000000000E+00 0.  1.
         21   -1    0    0  501  503 -0.00000000000E+00 -0.00000000000E+00 -0.90835387125E+03  0.90835387125E+03  0.00000000000E+00 0.  1.
    9000007    2    1    2  501    0  0.46550821308E+03  0.37567907957E+03 -0.42000179763E+03  0.83144608182E+03  0.39631857096E+03 0.  0.
    9000005    1    3    3    0    0  0.46675556276E+03  0.41890603776E+03 -0.28352333586E+03  0.68828010708E+03  0.99999687468E+00 0.  0.
          4    1    3    3  501    0 -0.12473496828E+01 -0.43226958188E+02 -0.13647846177E+03  0.14316597473E+03  0.00000000000E+00 0.  1.
   -9000007    1    1    2    0  502 -0.46550821308E+03 -0.37567907957E+03  0.17541839378E+03  0.74067825683E+03  0.40000000000E+03 0. -1.
<mgrwt>
<rscale>  2 0.71909541E+03</rscale>
<asrwt>0</asrwt>
<pdfrwt beam="1">  1       21 0.10211853E+00 0.71960591E+03</pdfrwt>
<pdfrwt beam="2">  1       21 0.13974675E+00 0.71960591E+03</pdfrwt>
<totfact> 0.20735683E+02</totfact>
</mgrwt>
</event>
<event>
 6    1  0.9190795E-004  0.4805026E+03  0.7818608E-02  0.1018997E+00
         21   -1    0    0  503  502  0.00000000000E+00  0.00000000000E+00  0.94573644651E+03  0.94573644651E+03  0.00000000000E+00 0.  1.
         21   -1    0    0  501  503 -0.00000000000E+00 -0.00000000000E+00 -0.45094329682E+03  0.45094329682E+03  0.00000000000E+00 0.  1.
    9000007    2    1    2  501    0 -0.24259144829E+03 -0.10969103324E+03 -0.22553480238E+03  0.53079574875E+03  0.39999430778E+03 0.  0.
    9000005    1    3    3    0    0 -0.10568353728E+03 -0.53997351621E+02 -0.32941287733E+03  0.35014078279E+03  0.99999687468E+00 0.  0.
          4    1    3    3  501    0 -0.13690791101E+03 -0.55693681614E+02  0.10387807495E+03  0.18065496596E+03  0.00000000000E+00 0.  1.
   -9000007    1    1    2    0  502  0.24259144829E+03  0.10969103324E+03  0.72032795206E+03  0.86588399458E+03  0.40000000000E+03 0.  1.
<mgrwt>
<rscale>  2 0.48050140E+03</rscale>
<asrwt>0</asrwt>
<pdfrwt beam="1">  1       21 0.14549791E+00 0.48050258E+03</pdfrwt>
<pdfrwt beam="2">  1       21 0.69375892E-01 0.48050258E+03</pdfrwt>
<totfact> 0.50330764E+02</totfact>
</mgrwt>
</event>
<event>
 6    1  0.9190795E-004  0.5934882E+03  0.7818608E-02  0.9919159E-01
         21   -1    0    0  503  502  0.00000000000E+00  0.00000000000E+00  0.16386459108E+03  0.16386459108E+03  0.00000000000E+00 0.  1.
         21   -1    0    0  501  503 -0.00000000000E+00 -0.00000000000E+00 -0.22185397642E+04  0.22185397642E+04  0.00000000000E+00 0.  1.
    9000007    2    1    2  501    0  0.25764556341E+03 -0.35474920560E+03 -0.12387936044E+04  0.13734985275E+04  0.39957524373E+03 0.  0.
    9000005    1    3    3    0    0 -0.43430495191E+02 -0.20563530923E+02  0.73836362605E+01  0.48626996563E+02  0.99999687468E+00 0.  0.
          4    1    3    3  501    0  0.30107605861E+03 -0.33418567468E+03 -0.12461772407E+04  0.13248715309E+04  0.00000000000E+00 0.  1.
   -9000007    1    1    2    0  502 -0.25764556341E+03  0.35474920560E+03 -0.81588156866E+03  0.10089058278E+04  0.40000000000E+03 0.  1.
<mgrwt>
<rscale>  2 0.59341663E+03</rscale>
<asrwt>0</asrwt>
<pdfrwt beam="1">  1       21 0.25209938E-01 0.59348819E+03</pdfrwt>
<pdfrwt beam="2">  1       21 0.34131380E+00 0.59348819E+03</pdfrwt>
<totfact> 0.21020133E+02</totfact>
</mgrwt>
</event>
<event>
 6    1  0.9190795E-004  0.4361254E+03  0.7818608E-02  0.1031966E+00
         21   -1    0    0  503  502  0.00000000000E+00  0.00000000000E+00  0.67902871474E+03  0.67902871474E+03  0.00000000000E+00 0.  1.
         21   -1    0    0  501  503 -0.00000000000E+00 -0.00000000000E+00 -0.29323846826E+03  0.29323846826E+03  0.00000000000E+00 0.  1.
    9000007    2    1    2  501    0 -0.10121353875E+03 -0.14034686517E+03  0.29656401991E+03  0.52740457220E+03  0.40032979140E+03 0.  0.
    9000005    1    3    3    0    0 -0.11249412782E+03 -0.13323485040E+03  0.39305332872E+03  0.42999810856E+03  0.99999687468E+00 0.  0.
          4    1    3    3  501    0  0.11280589074E+02 -0.71120147678E+01 -0.96489308807E+02  0.97406463635E+02  0.00000000000E+00 0.  1.
   -9000007    1    1    2    0  502  0.10121353875E+03  0.14034686517E+03  0.89226226565E+02  0.44486261081E+03  0.40000000000E+03 0. -1.
<mgrwt>
<rscale>  2 0.43604970E+03</rscale>
<asrwt>0</asrwt>
<pdfrwt beam="1">  1       21 0.10446596E+00 0.43612540E+03</pdfrwt>
<pdfrwt beam="2">  1       21 0.45113611E-01 0.43612540E+03</pdfrwt>
<totfact> 0.30460462E+03</totfact>
</mgrwt>
</event>
<event>
 6    1  0.9190795E-004  0.4413693E+03  0.7818608E-02  0.1030347E+00
         21   -1    0    0  503  502  0.00000000000E+00  0.00000000000E+00  0.19532691423E+04  0.19532691423E+04  0.00000000000E+00 0.  1.
         21   -1    0    0  501  503 -0.00000000000E+00 -0.00000000000E+00 -0.10039900766E+03  0.10039900766E+03  0.00000000000E+00 0.  1.
    9000007    2    1    2  501    0 -0.34650164739E+02 -0.18270389540E+03  0.10138378938E+04  0.11057459757E+04  0.40028182637E+03 0.  0.
    9000005    1    3    3    0    0  0.17766274692E+03 -0.10810355645E+03  0.38065944028E+03  0.43376611213E+03  0.99999687468E+00 0.  0.
          4    1    3    3  501    0 -0.21231291166E+03 -0.74600338954E+02  0.63317845353E+03  0.67197986357E+03  0.00000000000E+00 0.  1.
   -9000007    1    1    2    0  502  0.34650164739E+02  0.18270389540E+03  0.83903224087E+03  0.94792217430E+03  0.40000000000E+03 0.  1.
<mgrwt>
<rscale>  2 0.44130543E+03</rscale>
<asrwt>0</asrwt>
<pdfrwt beam="1">  1       21 0.30050292E+00 0.44136933E+03</pdfrwt>
<pdfrwt beam="2">  1       21 0.15446003E-01 0.44136933E+03</pdfrwt>
<totfact> 0.10232821E+03</totfact>
</mgrwt>
</event>
<event>
 6    1  0.9190795E-004  0.4202078E+03  0.7818608E-02  0.1037308E+00
         21   -1    0    0  503  502  0.00000000000E+00  0.00000000000E+00  0.34382520557E+03  0.34382520557E+03  0.00000000000E+00 0. -1.
         21   -1    0    0  501  503 -0.00000000000E+00 -0.00000000000E+00 -0.51223863379E+03  0.51223863379E+03  0.00000000000E+00 0. -1.
    9000007    2    1    2  501    0  0.79478350557E+02  0.84201700547E+02 -0.11892338820E+03  0.43671196009E+03  0.40394037833E+03 0.  0.
    9000005    1    3    3    0    0  0.81464612677E+02  0.13455512563E+03  0.11663601046E+03  0.19582268480E+03  0.99999687468E+00 0.  0.
          4    1    3    3  501    0 -0.19862621197E+01 -0.50353425084E+02 -0.23555939866E+03  0.24088927530E+03  0.00000000000E+00 0.  1.
   -9000007    1    1    2    0  502 -0.79478350557E+02 -0.84201700547E+02 -0.49490040013E+02  0.41935187926E+03  0.40000000000E+03 0. -1.
<mgrwt>
<rscale>  2 0.41925794E+03</rscale>
<asrwt>0</asrwt>
<pdfrwt beam="1">  1       21 0.52896185E-01 0.42020776E+03</pdfrwt>
<pdfrwt beam="2">  1       21 0.78805944E-01 0.42020776E+03</pdfrwt>
<totfact> 0.42689976E+03</totfact>
</mgrwt>
</event>
<event>
 6    1  0.9190795E-004  0.4113203E+03  0.7818608E-02  0.1039964E+00
         21   -1    0    0  503  502  0.00000000000E+00  0.00000000000E+00  0.53177918580E+03  0.53177918580E+03  0.00000000000E+00 0. -1.
         21   -1    0    0  501  503 -0.00000000000E+00 -0.00000000000E+00 -0.32936411739E+03  0.32936411739E+03  0.00000000000E+00 0.  1.
    9000007    2    1    2  501    0 -0.65244197880E+02  0.67664175214E+02  0.20646389755E+02  0.41183817468E+03  0.40043621558E+03 0.  0.
    9000005    1    3    3    0    0 -0.21039225558E+03 -0.37578434957E+02  0.71688073149E+02  0.22542675042E+03  0.99999687468E+00 0.  0.
          4    1    3    3  501    0  0.14514805770E+03  0.10524261017E+03 -0.51041683394E+02  0.18641142425E+03  0.00000000000E+00 0.  1.
   -9000007    1    1    2    0  502  0.65244197880E+02 -0.67664175214E+02  0.18176867866E+03  0.44930512851E+03  0.40000000000E+03 0.  1.
<mgrwt>
<rscale>  2 0.41121412E+03</rscale>
<asrwt>0</asrwt>
<pdfrwt beam="1">  1       21 0.81812183E-01 0.41132032E+03</pdfrwt>
<pdfrwt beam="2">  1       21 0.50671403E-01 0.41132032E+03</pdfrwt>
<totfact> 0.43057269E+03</totfact>
</mgrwt>
</event>
<event>
 6    1  0.9190795E-004  0.4525889E+03  0.7818608E-02  0.1026957E+00
         21   -1    0    0  503  502  0.00000000000E+00  0.00000000000E+00  0.63021756210E+02  0.63021756210E+02  0.00000000000E+00 0. -1.
         21   -1    0    0  501  503 -0.00000000000E+00 -0.00000000000E+00 -0.33430087053E+04  0.33430087053E+04  0.00000000000E+00 0. -1.
    9000007    2    1    2  501    0  0.19369837690E+03  0.85543519023E+02 -0.13556153177E+04  0.14291533964E+04  0.39993722757E+03 0.  0.
    9000005    1    3    3    0    0  0.24427401406E+03 -0.57238151666E+02 -0.49118630096E+03  0.55155324511E+03  0.99999687468E+00 0.  0.
          4    1    3    3  501    0 -0.50575637155E+02  0.14278167069E+03 -0.86442901673E+03  0.87760015128E+03  0.00000000000E+00 0.  1.
   -9000007    1    1    2    0  502 -0.19369837690E+03 -0.85543519023E+02 -0.19243716314E+04  0.19768770651E+04  0.40000000000E+03 0. -1.
<mgrwt>
<rscale>  2 0.45257508E+03</rscale>
<asrwt>0</asrwt>
<pdfrwt beam="1">  1       21 0.96956540E-02 0.45258895E+03</pdfrwt>
<pdfrwt beam="2">  1       21 0.51430908E+00 0.45258895E+03</pdfrwt>
<totfact> 0.96234843E+01</totfact>
</mgrwt>
</event>
<event>
 6    1  0.9190795E-004  0.4164199E+03  0.7818608E-02  0.1039115E+00
         21   -1    0    0  503  502  0.00000000000E+00  0.00000000000E+00  0.77397808526E+03  0.77397808526E+03  0.00000000000E+00 0.  1.
         21   -1    0    0  501  503 -0.00000000000E+00 -0.00000000000E+00 -0.35771748284E+03  0.35771748284E+03  0.00000000000E+00 0.  1.
    9000007    2    1    2  501    0  0.53963749235E+02  0.42956230810E+02 -0.14332715076E+03  0.44039550480E+03  0.41066799791E+03 0.  0.
    9000005    1    3    3    0    0  0.12759107389E+03  0.14430493453E+03 -0.22087108627E+03  0.29306728410E+03  0.99999687468E+00 0.  0.
          4    1    3    3  501    0 -0.73627324654E+02 -0.10134870372E+03  0.77543935507E+02  0.14732822070E+03  0.00000000000E+00 0.  1.
   -9000007    1    1    2    0  502 -0.53963749235E+02 -0.42956230810E+02  0.55958775318E+03  0.69130006329E+03  0.40000000000E+03 0.  1.
<mgrwt>
<rscale>  2 0.41376542E+03</rscale>
<asrwt>0</asrwt>
<pdfrwt beam="1">  1       21 0.11907355E+00 0.41641989E+03</pdfrwt>
<pdfrwt beam="2">  1       21 0.55033459E-01 0.41641989E+03</pdfrwt>
<totfact> 0.14539623E+03</totfact>
</mgrwt>
</event>
<event>
 6    1  0.9190795E-004  0.4217142E+03  0.7818608E-02  0.1036637E+00
         21   -1    0    0  503  502  0.00000000000E+00  0.00000000000E+00  0.88606124141E+03  0.88606124141E+03  0.00000000000E+00 0.  1.
         21   -1    0    0  501  503 -0.00000000000E+00 -0.00000000000E+00 -0.32955692538E+03  0.32955692538E+03  0.00000000000E+00 0.  1.
    9000007    2    1    2  501    0  0.88897927078E+02 -0.92845532260E+02 -0.10257676030E+03  0.43401020914E+03  0.40164628167E+03 0.  0.
    9000005    1    3    3    0    0 -0.67947595733E+02 -0.17478101412E+03  0.56717849275E+02  0.19591629101E+03  0.99999687468E+00 0.  0.
          4    1    3    3  501    0  0.15684552281E+03  0.81935481856E+02 -0.15929460957E+03  0.23809391813E+03  0.00000000000E+00 0.  1.
   -9000007    1    1    2    0  502 -0.88897927078E+02  0.92845532260E+02  0.65908107633E+03  0.78160795766E+03  0.40000000000E+03 0.  1.
<mgrwt>
<rscale>  2 0.42132175E+03</rscale>
<asrwt>0</asrwt>
<pdfrwt beam="1">  1       21 0.13631711E+00 0.42171420E+03</pdfrwt>
<pdfrwt beam="2">  1       21 0.50701066E-01 0.42171420E+03</pdfrwt>
<totfact> 0.12202280E+03</totfact>
</mgrwt>
</event>
<event>
 6    1  0.9190795E-004  0.5023286E+03  0.7818608E-02  0.1013215E+00
         21   -1    0    0  503  502  0.00000000000E+00  0.00000000000E+00  0.10790798921E+04  0.10790798921E+04  0.00000000000E+00 0.  1.
         21   -1    0    0  501  503 -0.00000000000E+00 -0.00000000000E+00 -0.28983206101E+03  0.28983206101E+03  0.00000000000E+00 0. -1.
    9000007    2    1    2  501    0 -0.28162342856E+03 -0.11411503183E+03  0.92778393505E+02  0.51018983654E+03  0.39918898157E+03 0.  0.
    9000005    1    3    3    0    0 -0.36902234984E+03 -0.16504578095E+02  0.52414402176E+02  0.37309270340E+03  0.99999687468E+00 0.  0.
          4    1    3    3  501    0  0.87398921284E+02 -0.97610453738E+02  0.40363991328E+02  0.13709713314E+03  0.00000000000E+00 0.  1.
   -9000007    1    1    2    0  502  0.28162342856E+03  0.11411503183E+03  0.69646943760E+03  0.85872211658E+03  0.40000000000E+03 0.  1.
<mgrwt>
<rscale>  2 0.50216710E+03</rscale>
<asrwt>0</asrwt>
<pdfrwt beam="1">  1       21 0.16601229E+00 0.50232857E+03</pdfrwt>
<pdfrwt beam="2">  1       21 0.44589548E-01 0.50232857E+03</pdfrwt>
<totfact> 0.90417632E+02</totfact>
</mgrwt>
</event>
<event>
 6    1  0.9190795E-004  0.4384960E+03  0.7818608E-02  0.1031246E+00
         21   -1    0    0  503  502  0.00000000000E+00  0.00000000000E+00  0.10645439952E+03  0.10645439952E+03  0.00000000000E+00 0.  1.
         21   -1    0    0  501  503 -0.00000000000E+00 -0.00000000000E+00 -0.18064611820E+04  0.18064611820E+04  0.00000000000E+00 0.  1.
    9000007    2    1    2  501    0 -0.17885252005E+03 -0.17044317711E+02 -0.81609472684E+03  0.92621438319E+03  0.39947934585E+03 0.  0.
    9000005    1    3    3    0    0 -0.14007890452E+03  0.12482443141E+03 -0.73437266162E+03  0.75796269321E+03  0.99999687468E+00 0.  0.
          4    1    3    3  501    0 -0.38773615534E+02 -0.14186874912E+03 -0.81722065217E+02  0.16825168998E+03  0.00000000000E+00 0.  1.
   -9000007    1    1    2    0  502  0.17885252005E+03  0.17044317711E+02 -0.88391205566E+03  0.98670119836E+03  0.40000000000E+03 0.  1.
<mgrwt>
<rscale>  2 0.43837722E+03</rscale>
<asrwt>0</asrwt>
<pdfrwt beam="1">  1       21 0.16377598E-01 0.43849599E+03</pdfrwt>
<pdfrwt beam="2">  1       21 0.27791713E+00 0.43849599E+03</pdfrwt>
<totfact> 0.12561472E+03</totfact>
</mgrwt>
</event>
<event>
 6    1  0.9190795E-004  0.4357259E+03  0.7818608E-02  0.1032086E+00
         21   -1    0    0  503  502  0.00000000000E+00  0.00000000000E+00  0.27165945449E+03  0.27165945449E+03  0.00000000000E+00 0. -1.
         21   -1    0    0  501  503 -0.00000000000E+00 -0.00000000000E+00 -0.74600020867E+03  0.74600020867E+03  0.00000000000E+00 0.  1.
    9000007    2    1    2  501    0  0.14530652028E+02  0.17217995630E+03 -0.10867666367E+03  0.44882989576E+03  0.39972563203E+03 0.  0.
    9000005    1    3    3    0    0 -0.17241463707E+03  0.11478693318E+03  0.29721740467E+02  0.20925398193E+03  0.99999687468E+00 0.  0.
          4    1    3    3  501    0  0.18694528910E+03  0.57393023117E+02 -0.13839840413E+03  0.23957591382E+03  0.00000000000E+00 0.  1.
   -9000007    1    1    2    0  502 -0.14530652028E+02 -0.17217995630E+03 -0.36566409051E+03  0.56882976741E+03  0.40000000000E+03 0.  1.
<mgrwt>
<rscale>  2 0.43566294E+03</rscale>
<asrwt>0</asrwt>
<pdfrwt beam="1">  1       21 0.41793762E-01 0.43572592E+03</pdfrwt>
<pdfrwt beam="2">  1       21 0.11476926E+00 0.43572592E+03</pdfrwt>
<totfact> 0.28297356E+03</totfact>
</mgrwt>
</event>
<event>
 6    1  0.9190795E-004  0.4378495E+03  0.7818608E-02  0.1031440E+00
         21   -1    0    0  503  502  0.00000000000E+00  0.00000000000E+00  0.20556047347E+03  0.20556047347E+03  0.00000000000E+00 0. -1.
         21   -1    0    0  501  503 -0.00000000000E+00 -0.00000000000E+00 -0.10067006922E+04  0.10067006922E+04  0.00000000000E+00 0. -1.
    9000007    2    1    2  501    0 -0.11278807620E+03 -0.13780799578E+03 -0.56577271566E+03  0.71515951077E+03  0.39955245741E+03 0.  0.
    9000005    1    3    3    0    0 -0.95347526078E+01 -0.26970484110E+03 -0.35484620299E+03  0.44581211355E+03  0.99999687468E+00 0.  0.
          4    1    3    3  501    0 -0.10325332359E+03  0.13189684532E+03 -0.21092651268E+03  0.26934739722E+03  0.00000000000E+00 0.  1.
   -9000007    1    1    2    0  502  0.11278807620E+03  0.13780799578E+03 -0.23536750311E+03  0.49710165495E+03  0.40000000000E+03 0. -1.
<mgrwt>
<rscale>  2 0.43774727E+03</rscale>
<asrwt>0</asrwt>
<pdfrwt beam="1">  1       21 0.31624688E-01 0.43784951E+03</pdfrwt>
<pdfrwt beam="2">  1       21 0.15487703E+00 0.43784951E+03</pdfrwt>
<totfact> 0.22743231E+03</totfact>
</mgrwt>
</event>
<event>
 6    1  0.9190795E-004  0.4093411E+03  0.7818608E-02  0.1040991E+00
         21   -1    0    0  503  502  0.00000000000E+00  0.00000000000E+00  0.31197635467E+04  0.31197635467E+04  0.00000000000E+00 0.  1.
         21   -1    0    0  501  503 -0.00000000000E+00 -0.00000000000E+00 -0.56101455026E+02  0.56101455026E+02  0.00000000000E+00 0.  1.
    9000007    2    1    2  501    0  0.39550388875E+01  0.86858844938E+02  0.18912062488E+04  0.19340063927E+04  0.39517028015E+03 0.  0.
    9000005    1    3    3    0    0 -0.11389839455E+03  0.17894011016E+03  0.64794458742E+03  0.68178119339E+03  0.99999687468E+00 0.  0.
          4    1    3    3  501    0  0.11785343344E+03 -0.92081265220E+02  0.12432616614E+04  0.12522251993E+04  0.00000000000E+00 0.  1.
   -9000007    1    1    2    0  502 -0.39550388875E+01 -0.86858844938E+02  0.11724558429E+04  0.12418586091E+04  0.40000000000E+03 0.  1.
<mgrwt>
<rscale>  2 0.40815637E+03</rscale>
<asrwt>0</asrwt>
<pdfrwt beam="1">  1       21 0.47996349E+00 0.40934106E+03</pdfrwt>
<pdfrwt beam="2">  1       21 0.86309955E-02 0.40934106E+03</pdfrwt>
<totfact> 0.21440454E+02</totfact>
</mgrwt>
</event>
<event>
 6    1  0.9190795E-004  0.4587652E+03  0.7818608E-02  0.1025142E+00
         21   -1    0    0  503  502  0.00000000000E+00  0.00000000000E+00  0.21739539370E+03  0.21739539370E+03  0.00000000000E+00 0.  1.
         21   -1    0    0  501  503 -0.00000000000E+00 -0.00000000000E+00 -0.12711558337E+04  0.12711558337E+04  0.00000000000E+00 0. -1.
    9000007    2    1    2  501    0  0.25078070803E+02 -0.22324117186E+03 -0.89030214990E+03  0.10015356804E+04  0.39996283643E+03 0.  0.
    9000005    1    3    3    0    0 -0.14769601382E+03 -0.53754865853E+02 -0.61594380582E+03  0.63568189373E+03  0.99999687468E+00 0.  0.
          4    1    3    3  501    0  0.17277408463E+03 -0.16948630600E+03 -0.27435834408E+03  0.36585378665E+03  0.00000000000E+00 0.  1.
   -9000007    1    1    2    0  502 -0.25078070803E+02  0.22324117186E+03 -0.16345829012E+03  0.48701554704E+03  0.40000000000E+03 0.  1.
<mgrwt>
<rscale>  2 0.45875712E+03</rscale>
<asrwt>0</asrwt>
<pdfrwt beam="1">  1       21 0.33445445E-01 0.45876522E+03</pdfrwt>
<pdfrwt beam="2">  1       21 0.19556243E+00 0.45876522E+03</pdfrwt>
<totfact> 0.10283563E+03</totfact>
</mgrwt>
</event>
<event>
 6    1  0.9190795E-004  0.4051598E+03  0.7818608E-02  0.1042014E+00
         21   -1    0    0  503  502  0.00000000000E+00  0.00000000000E+00  0.20105133098E+03  0.20105133098E+03  0.00000000000E+00 0. -1.
         21   -1    0    0  501  503 -0.00000000000E+00 -0.00000000000E+00 -0.83960237441E+03  0.83960237441E+03  0.00000000000E+00 0. -1.
    9000007    2    1    2  501    0  0.51734215256E+02  0.38445084672E+02 -0.40589282040E+03  0.57344464907E+03  0.39991915474E+03 0.  0.
    9000005    1    3    3    0    0  0.21291594192E+03 -0.53196022233E+02 -0.21091184606E+03  0.30438104722E+03  0.99999687468E+00 0.  0.
          4    1    3    3  501    0 -0.16118172666E+03  0.91641106905E+02 -0.19498097434E+03  0.26906360185E+03  0.00000000000E+00 0.  1.
   -9000007    1    1    2    0  502 -0.51734215256E+02 -0.38445084672E+02 -0.23265822304E+03  0.46720905632E+03  0.40000000000E+03 0. -1.
<mgrwt>
<rscale>  2 0.40513983E+03</rscale>
<asrwt>0</asrwt>
<pdfrwt beam="1">  1       21 0.30930974E-01 0.40515979E+03</pdfrwt>
<pdfrwt beam="2">  1       21 0.12916960E+00 0.40515979E+03</pdfrwt>
<totfact> 0.39029727E+03</totfact>
</mgrwt>
</event>
<event>
 6    1  0.9190795E-004  0.4906173E+03  0.7818608E-02  0.1016271E+00
         21   -1    0    0  503  502  0.00000000000E+00  0.00000000000E+00  0.87219667205E+03  0.87219667205E+03  0.00000000000E+00 0.  1.
         21   -1    0    0  501  503 -0.00000000000E+00 -0.00000000000E+00 -0.44151429611E+03  0.44151429611E+03  0.00000000000E+00 0. -1.
    9000007    2    1    2  501    0 -0.16238067147E+02 -0.28362241807E+03 -0.18703385740E+03  0.52486453457E+03  0.39974462471E+03 0.  0.
    9000005    1    3    3    0    0 -0.10085638904E+03 -0.19566187413E+03 -0.29075960975E+03  0.36468853952E+03  0.99999687468E+00 0.  0.
          4    1    3    3  501    0  0.84618321896E+02 -0.87960543943E+02  0.10372575235E+03  0.16017599506E+03  0.00000000000E+00 0.  1.
   -9000007    1    1    2    0  502  0.16238067147E+02  0.28362241807E+03  0.61771623334E+03  0.78884643359E+03  0.40000000000E+03 0.  1.
<mgrwt>
<rscale>  2 0.49056526E+03</rscale>
<asrwt>0</asrwt>
<pdfrwt beam="1">  1       21 0.13418410E+00 0.49061732E+03</pdfrwt>
<pdfrwt beam="2">  1       21 0.67925276E-01 0.49061732E+03</pdfrwt>
<totfact> 0.65198361E+02</totfact>
</mgrwt>
</event>
<event>
 6    1  0.9190795E-004  0.4799368E+03  0.7818608E-02  0.1019175E+00
         21   -1    0    0  503  502  0.00000000000E+00  0.00000000000E+00  0.35777198541E+03  0.35777198541E+03  0.00000000000E+00 0.  1.
         21   -1    0    0  501  503 -0.00000000000E+00 -0.00000000000E+00 -0.96843380526E+03  0.96843380526E+03  0.00000000000E+00 0. -1.
    9000007    2    1    2  501    0  0.22684567928E+03  0.13627253403E+03 -0.68956787957E+03  0.84014475335E+03  0.40038753765E+03 0.  0.
    9000005    1    3    3    0    0  0.30788052025E+03  0.17107410912E+03 -0.65824636159E+03  0.74655611852E+03  0.99999687468E+00 0.  0.
          4    1    3    3  501    0 -0.81034840970E+02 -0.34801575094E+02 -0.31321517981E+02  0.93588634827E+02  0.00000000000E+00 0.  1.
   -9000007    1    1    2    0  502 -0.22684567928E+03 -0.13627253403E+03  0.78906059727E+02  0.48606103732E+03  0.40000000000E+03 0.  1.
<mgrwt>
<rscale>  2 0.47985598E+03</rscale>
<asrwt>0</asrwt>
<pdfrwt beam="1">  1       21 0.55041845E-01 0.47993681E+03</pdfrwt>
<pdfrwt beam="2">  1       21 0.14898981E+00 0.47993681E+03</pdfrwt>
<totfact> 0.78674424E+02</totfact>
</mgrwt>
</event>
<event>
 6    1  0.9190795E-004  0.4572466E+03  0.7818608E-02  0.1025780E+00
         21   -1    0    0  503  502  0.00000000000E+00  0.00000000000E+00  0.26339312319E+03  0.26339312319E+03  0.00000000000E+00 0.  1.
         21   -1    0    0  501  503 -0.00000000000E+00 -0.00000000000E+00 -0.82496523511E+03  0.82496523511E+03  0.00000000000E+00 0.  1.
    9000007    2    1    2  501    0 -0.14471714421E+03 -0.16024356457E+03 -0.39502825299E+03  0.60425309210E+03  0.40305511638E+03 0.  0.
    9000005    1    3    3    0    0  0.59522248587E+02  0.10460759344E+03 -0.13301995427E+03  0.17939050954E+03  0.99999687468E+00 0.  0.
          4    1    3    3  501    0 -0.20423939280E+03 -0.26485115801E+03 -0.26200829871E+03  0.42486258257E+03  0.00000000000E+00 0.  1.
   -9000007    1    1    2    0  502  0.14471714421E+03  0.16024356457E+03 -0.16654385894E+03  0.48410526620E+03  0.40000000000E+03 0.  1.
<mgrwt>
<rscale>  2 0.45657245E+03</rscale>
<asrwt>0</asrwt>
<pdfrwt beam="1">  1       21 0.40522018E-01 0.45724663E+03</pdfrwt>
<pdfrwt beam="2">  1       21 0.12691773E+00 0.45724663E+03</pdfrwt>
<totfact> 0.23166867E+03</totfact>
</mgrwt>
</event>
<event>
 6    1  0.9190795E-004  0.5023911E+03  0.7818608E-02  0.1013158E+00
         21   -1    0    0  503  502  0.00000000000E+00  0.00000000000E+00  0.88215823491E+03  0.88215823491E+03  0.00000000000E+00 0.  1.
         21   -1    0    0  501  503 -0.00000000000E+00 -0.00000000000E+00 -0.48030709552E+03  0.48030709552E+03  0.00000000000E+00 0. -1.
    9000007    2    1    2  501    0 -0.24441057798E+03  0.18066458115E+03 -0.23225078408E+03  0.55347740045E+03  0.40002572991E+03 0.  0.
    9000005    1    3    3    0    0  0.55347730753E+02  0.14451050878E+03 -0.19547486576E+03  0.24931522533E+03  0.99999687468E+00 0.  0.
          4    1    3    3  501    0 -0.29975830873E+03  0.36154072364E+02 -0.36775918328E+02  0.30416217511E+03  0.00000000000E+00 0.  1.
   -9000007    1    1    2    0  502  0.24441057798E+03 -0.18066458115E+03  0.63410192347E+03  0.80898792998E+03  0.40000000000E+03 0.  1.
<mgrwt>
<rscale>  2 0.50238597E+03</rscale>
<asrwt>0</asrwt>
<pdfrwt beam="1">  1       21 0.13571665E+00 0.50239109E+03</pdfrwt>
<pdfrwt beam="2">  1       21 0.73893399E-01 0.50239109E+03</pdfrwt>
<totfact> 0.52058822E+02</totfact>
</mgrwt>
</event>
<event>
 6    1  0.9190795E-004  0.4098971E+03  0.7818608E-02  0.1040683E+00
         21   -1    0    0  503  502  0.00000000000E+00  0.00000000000E+00  0.35812533162E+03  0.35812533162E+03  0.00000000000E+00 0. -1.
         21   -1    0    0  501  503 -0.00000000000E+00 -0.00000000000E+00 -0.50229582156E+03  0.50229582156E+03  0.00000000000E+00 0. -1.
    9000007    2    1    2  501    0  0.13091805204E+02 -0.88567893905E+02 -0.18842543693E+03  0.44814191829E+03  0.39662496953E+03 0.  0.
    9000005    1    3    3    0    0  0.17010458297E+03 -0.12216013226E+03 -0.12266013313E+02  0.20978589594E+03  0.99999687468E+00 0.  0.
          4    1    3    3  501    0 -0.15701277776E+03  0.33592238357E+02 -0.17615942361E+03  0.23835602234E+03  0.00000000000E+00 0.  1.
   -9000007    1    1    2    0  502 -0.13091805204E+02  0.88567893905E+02  0.44254946982E+02  0.41227923490E+03  0.40000000000E+03 0. -1.
<mgrwt>
<rscale>  2 0.40907143E+03</rscale>
<asrwt>0</asrwt>
<pdfrwt beam="1">  1       21 0.55096205E-01 0.40989714E+03</pdfrwt>
<pdfrwt beam="2">  1       21 0.77276281E-01 0.40989714E+03</pdfrwt>
<totfact> 0.41064359E+03</totfact>
</mgrwt>
</event>
<event>
 6    1  0.9190795E-004  0.4780471E+03  0.7818608E-02  0.1019698E+00
         21   -1    0    0  503  502  0.00000000000E+00  0.00000000000E+00  0.59025222258E+03  0.59025222258E+03  0.00000000000E+00 0.  1.
         21   -1    0    0  501  503 -0.00000000000E+00 -0.00000000000E+00 -0.39492173593E+03  0.39492173593E+03  0.00000000000E+00 0. -1.
    9000007    2    1    2  501    0 -0.21496227363E+03  0.14939976542E+03  0.27362720218E+02  0.47847657392E+03  0.39957733211E+03 0.  0.
    9000005    1    3    3    0    0 -0.24316719650E+03  0.18378663813E+03 -0.11770348444E+03  0.32674596256E+03  0.99999687468E+00 0.  0.
          4    1    3    3  501    0  0.28204922867E+02 -0.34386872708E+02  0.14506620466E+03  0.15173061136E+03  0.00000000000E+00 0.  1.
   -9000007    1    1    2    0  502  0.21496227363E+03 -0.14939976542E+03  0.16796776643E+03  0.50669738459E+03  0.40000000000E+03 0. -1.
<mgrwt>
<rscale>  2 0.47795871E+03</rscale>
<asrwt>0</asrwt>
<pdfrwt beam="1">  1       21 0.90808034E-01 0.47804714E+03</pdfrwt>
<pdfrwt beam="2">  1       21 0.60757191E-01 0.47804714E+03</pdfrwt>
<totfact> 0.22229214E+03</totfact>
</mgrwt>
</event>
<event>
 6    1  0.9190795E-004  0.4606813E+03  0.7818608E-02  0.1024611E+00
         21   -1    0    0  503  502  0.00000000000E+00  0.00000000000E+00  0.31790180244E+04  0.31790180244E+04  0.00000000000E+00 0.  1.
         21   -1    0    0  501  503 -0.00000000000E+00 -0.00000000000E+00 -0.16681414783E+03  0.16681414783E+03  0.00000000000E+00 0.  1.
    9000007    2    1    2  501    0  0.92220702857E+02  0.20909956254E+03  0.20988513218E+03  0.50589949165E+03  0.39956881992E+03 0.  0.
    9000005    1    3    3    0    0 -0.12161320636E+03  0.14599823253E+02  0.17661186334E+03  0.21493179631E+03  0.99999687468E+00 0.  0.
          4    1    3    3  501    0  0.21383390921E+03  0.19449973929E+03  0.33273268837E+02  0.29096769534E+03  0.00000000000E+00 0.  1.
   -9000007    1    1    2    0  502 -0.92220702857E+02 -0.20909956254E+03  0.28023187444E+04  0.28399326806E+04  0.40000000000E+03 0.  1.
<mgrwt>
<rscale>  2 0.46058771E+03</rscale>
<asrwt>0</asrwt>
<pdfrwt beam="1">  1       21 0.48907965E+00 0.46068133E+03</pdfrwt>
<pdfrwt beam="2">  1       21 0.25663717E-01 0.46068133E+03</pdfrwt>
<totfact> 0.23547839E+01</totfact>
</mgrwt>
</event>
<event>
 6    1  0.9190795E-004  0.4295616E+03  0.7818608E-02  0.1034030E+00
         21   -1    0    0  503  502  0.00000000000E+00  0.00000000000E+00  0.12555881359E+04  0.12555881359E+04  0.00000000000E+00 0.  1.
         21   -1    0    0  501  503 -0.00000000000E+00 -0.00000000000E+00 -0.18450528773E+03  0.18450528773E+03  0.00000000000E+00 0. -1.
    9000007    2    1    2  501    0  0.10896950584E+03 -0.11093344675E+03  0.21034289175E+03  0.47829622287E+03  0.40042797342E+03 0.  0.
    9000005    1    3    3    0    0 -0.61801740988E+02 -0.21504220585E+03  0.71770114935E+02  0.23497777528E+03  0.99999687468E+00 0.  0.
          4    1    3    3  501    0  0.17077124682E+03  0.10410875910E+03  0.13857277681E+03  0.24331844759E+03  0.00000000000E+00 0.  1.
   -9000007    1    1    2    0  502 -0.10896950584E+03  0.11093344675E+03  0.86073995643E+03  0.96179720077E+03  0.40000000000E+03 0. -1.
<mgrwt>
<rscale>  2 0.42946181E+03</rscale>
<asrwt>0</asrwt>
<pdfrwt beam="1">  1       21 0.19316740E+00 0.42956157E+03</pdfrwt>
<pdfrwt beam="2">  1       21 0.28385430E-01 0.42956157E+03</pdfrwt>
<totfact> 0.14998001E+03</totfact>
</mgrwt>
</event>
<event>
 6    1  0.9190795E-004  0.4225191E+03  0.7818608E-02  0.1036260E+00
         21   -1    0    0  503  502  0.00000000000E+00  0.00000000000E+00  0.22925362903E+03  0.22925362903E+03  0.00000000000E+00 0.  1.
         21   -1    0    0  501  503 -0.00000000000E+00 -0.00000000000E+00 -0.86614605233E+03  0.86614605233E+03  0.00000000000E+00 0.  1.
    9000007    2    1    2  501    0 -0.13567913210E+03 -0.36691437736E+00 -0.49275362030E+03  0.64909826299E+03  0.40014180383E+03 0.  0.
    9000005    1    3    3    0    0 -0.80354753738E+02 -0.18462909407E+03 -0.13356497237E+03  0.24163069065E+03  0.99999687468E+00 0.  0.
          4    1    3    3  501    0 -0.55324378363E+02  0.18426217969E+03 -0.35918864793E+03  0.40746757234E+03  0.00000000000E+00 0.  1.
   -9000007    1    1    2    0  502  0.13567913210E+03  0.36691437736E+00 -0.14413880300E+03  0.44630141837E+03  0.40000000000E+03 0.  1.
<mgrwt>
<rscale>  2 0.42248556E+03</rscale>
<asrwt>0</asrwt>
<pdfrwt beam="1">  1       21 0.35269789E-01 0.42251914E+03</pdfrwt>
<pdfrwt beam="2">  1       21 0.13325324E+00 0.42251914E+03</pdfrwt>
<totfact> 0.27478054E+03</totfact>
</mgrwt>
</event>
<event>
 6    1  0.9190795E-004  0.5076860E+03  0.7818608E-02  0.1011808E+00
         21   -1    0    0  503  502  0.00000000000E+00  0.00000000000E+00  0.14530882544E+03  0.14530882544E+03  0.00000000000E+00 0. -1.
         21   -1    0    0  501  503 -0.00000000000E+00 -0.00000000000E+00 -0.24248351536E+04  0.24248351536E+04  0.00000000000E+00 0.  1.
    9000007    2    1    2  501    0 -0.20652454796E+03 -0.23417770488E+03 -0.18062958305E+04  0.18762861476E+04  0.40031674195E+03 0.  0.
    9000005    1    3    3    0    0 -0.12777579379E+03  0.44780131183E+02 -0.18484240799E+03  0.22912797606E+03  0.99999687468E+00 0.  0.
          4    1    3    3  501    0 -0.78748754169E+02 -0.27895783606E+03 -0.16214534225E+04  0.16471581715E+04  0.00000000000E+00 0.  1.
   -9000007    1    1    2    0  502  0.20652454796E+03  0.23417770488E+03 -0.47323049762E+03  0.69385783144E+03  0.40000000000E+03 0. -1.
<mgrwt>
<rscale>  2 0.50762356E+03</rscale>
<asrwt>0</asrwt>
<pdfrwt beam="1">  1       21 0.22355204E-01 0.50768601E+03</pdfrwt>
<pdfrwt beam="2">  1       21 0.37305156E+00 0.50768601E+03</pdfrwt>
<totfact> 0.17626921E+02</totfact>
</mgrwt>
</event>
<event>
 6    1  0.9190795E-004  0.4636569E+03  0.7818608E-02  0.1023812E+00
         21   -1    0    0  503  502  0.00000000000E+00  0.00000000000E+00  0.62695793256E+03  0.62695793256E+03  0.00000000000E+00 0. -1.
         21   -1    0    0  501  503 -0.00000000000E+00 -0.00000000000E+00 -0.60253043187E+03  0.60253043187E+03  0.00000000000E+00 0. -1.
    9000007    2    1    2  501    0  0.21676364434E+03 -0.82981235951E+02 -0.39200608180E+03  0.60716265256E+03  0.40137931620E+03 0.  0.
    9000005    1    3    3    0    0  0.24413259920E+03 -0.33624503248E+02 -0.38798693960E+02  0.24947479202E+03  0.99999687468E+00 0.  0.
          4    1    3    3  501    0 -0.27368954858E+02 -0.49356732702E+02 -0.35320738784E+03  0.35768786054E+03  0.00000000000E+00 0.  1.
   -9000007    1    1    2    0  502 -0.21676364434E+03  0.82981235951E+02  0.41643358249E+03  0.62232571187E+03  0.40000000000E+03 0. -1.
<mgrwt>
<rscale>  2 0.46335823E+03</rscale>
<asrwt>0</asrwt>
<pdfrwt beam="1">  1       21 0.96455067E-01 0.46365690E+03</pdfrwt>
<pdfrwt beam="2">  1       21 0.92696989E-01 0.46365690E+03</pdfrwt>
<totfact> 0.73633485E+02</totfact>
</mgrwt>
</event>
<event>
 6    1  0.9190795E-004  0.5147737E+03  0.7818608E-02  0.1010013E+00
         21   -1    0    0  503  502  0.00000000000E+00  0.00000000000E+00  0.27338098744E+03  0.27338098744E+03  0.00000000000E+00 0.  1.
         21   -1    0    0  501  503 -0.00000000000E+00 -0.00000000000E+00 -0.15354094274E+04  0.15354094274E+04  0.00000000000E+00 0. -1.
    9000007    2    1    2  501    0  0.13838988061E+03  0.29241667706E+03 -0.11805844005E+04  0.12879330412E+04  0.40041568399E+03 0.  0.
    9000005    1    3    3    0    0  0.11875884945E+03  0.24193170044E+02 -0.86433292452E+03  0.87278942375E+03  0.99999687468E+00 0.  0.
          4    1    3    3  501    0  0.19631031158E+02  0.26822350701E+03 -0.31625147597E+03  0.41514361750E+03  0.00000000000E+00 0.  1.
   -9000007    1    1    2    0  502 -0.13838988061E+03 -0.29241667706E+03 -0.81444039486E+02  0.52085737361E+03  0.40000000000E+03 0.  1.
<mgrwt>
<rscale>  2 0.51469289E+03</rscale>
<asrwt>0</asrwt>
<pdfrwt beam="1">  1       21 0.42058614E-01 0.51477373E+03</pdfrwt>
<pdfrwt beam="2">  1       21 0.23621683E+00 0.51477373E+03</pdfrwt>
<totfact> 0.34193316E+02</totfact>
</mgrwt>
</event>
<event>
 6    1  0.9190795E-004  0.4000214E+03  0.7818608E-02  0.1044795E+00
         21   -1    0    0  503  502  0.00000000000E+00  0.00000000000E+00  0.59449561834E+03  0.59449561834E+03  0.00000000000E+00 0. -1.
         21   -1    0    0  501  503 -0.00000000000E+00 -0.00000000000E+00 -0.52341919814E+03  0.52341919814E+03  0.00000000000E+00 0. -1.
    9000007    2    1    2  501    0  0.41132303765E+01 -0.41679508565E+00 -0.36018451117E+03  0.52969454879E+03  0.38836367049E+03 0.  0.
    9000005    1    3    3    0    0  0.31075569369E+02 -0.12251560454E+02 -0.44173173355E+03  0.44299403626E+03  0.99999687468E+00 0.  0.
          4    1    3    3  501    0 -0.26962338992E+02  0.11834765368E+02  0.81547222381E+02  0.86700512532E+02  0.00000000000E+00 0.  1.
   -9000007    1    1    2    0  502 -0.41132303765E+01  0.41679508565E+00  0.43126093138E+03  0.58822026768E+03  0.40000000000E+03 0. -1.
<mgrwt>
<rscale>  2 0.39708016E+03</rscale>
<asrwt>0</asrwt>
<pdfrwt beam="1">  1       21 0.91460864E-01 0.40002136E+03</pdfrwt>
<pdfrwt beam="2">  1       21 0.80526030E-01 0.40002136E+03</pdfrwt>
<totfact> 0.11957284E+03</totfact>
</mgrwt>
</event>
<event>
 6    1  0.9190795E-004  0.4569152E+03  0.7818608E-02  0.1025733E+00
         21   -1    0    0  503  502  0.00000000000E+00  0.00000000000E+00  0.39065027978E+03  0.39065027978E+03  0.00000000000E+00 0.  1.
         21   -1    0    0  501  503 -0.00000000000E+00 -0.00000000000E+00 -0.70745969739E+03  0.70745969739E+03  0.00000000000E+00 0. -1.
    9000007    2    1    2  501    0  0.36503171349E+02 -0.21780497556E+03 -0.43052163653E+03  0.62725760367E+03  0.39916379214E+03 0.  0.
    9000005    1    3    3    0    0  0.19532327205E+03 -0.19220306038E+03 -0.17445597783E+03  0.32485240529E+03  0.99999687468E+00 0.  0.
          4    1    3    3  501    0 -0.15882010071E+03 -0.25601915180E+02 -0.25606565869E+03  0.30240519839E+03  0.00000000000E+00 0.  1.
   -9000007    1    1    2    0  502 -0.36503171349E+02  0.21780497556E+03  0.11371221891E+03  0.47085237350E+03  0.40000000000E+03 0.  1.
<mgrwt>
<rscale>  2 0.45673211E+03</rscale>
<asrwt>0</asrwt>
<pdfrwt beam="1">  1       21 0.60100043E-01 0.45691519E+03</pdfrwt>
<pdfrwt beam="2">  1       21 0.10883995E+00 0.45691519E+03</pdfrwt>
<totfact> 0.14778613E+03</totfact>
</mgrwt>
</event>
<event>
 6    1  0.9190795E-004  0.5590843E+03  0.7818608E-02  0.9994276E-01
         21   -1    0    0  503  502  0.00000000000E+00  0.00000000000E+00  0.55767388044E+03  0.55767388044E+03  0.00000000000E+00 0. -1.
         21   -1    0    0  501  503 -0.00000000000E+00 -0.00000000000E+00 -0.10470341773E+04  0.10470341773E+04  0.00000000000E+00 0. -1.
    9000007    2    1    2  501    0 -0.91186948982E+02 -0.37943355957E+03 -0.79180113231E+03  0.96929060070E+03  0.40036277260E+03 0.  0.
    9000005    1    3    3    0    0 -0.23674828284E+03 -0.19860292565E+03 -0.56918089830E+03  0.64765790853E+03  0.99999687468E+00 0.  0.
          4    1    3    3  501    0  0.14556133386E+03 -0.18083063391E+03 -0.22262023402E+03  0.32163269217E+03  0.00000000000E+00 0.  1.
   -9000007    1    1    2    0  502  0.91186948982E+02  0.37943355957E+03  0.30244083544E+03  0.63541745705E+03  0.40000000000E+03 0. -1.
<mgrwt>
<rscale>  2 0.55901934E+03</rscale>
<asrwt>0</asrwt>
<pdfrwt beam="1">  1       21 0.85795983E-01 0.55908428E+03</pdfrwt>
<pdfrwt beam="2">  1       21 0.16108218E+00 0.55908428E+03</pdfrwt>
<totfact> 0.22577648E+02</totfact>
</mgrwt>
</event>
<event>
 6    1  0.9190795E-004  0.4388793E+03  0.7818608E-02  0.1031310E+00
         21   -1    0    0  503  502  0.00000000000E+00  0.00000000000E+00  0.10850389013E+03  0.10850389013E+03  0.00000000000E+00 0.  1.
         21   -1    0    0  501  503 -0.00000000000E+00 -0.00000000000E+00 -0.20221554775E+04  0.20221554775E+04  0.00000000000E+00 0.  1.
    9000007    2    1    2  501    0 -0.10935472087E+03  0.13484015139E+03 -0.13403358281E+04  0.14103599291E+04  0.40308147558E+03 0.  0.
    9000005    1    3    3    0    0 -0.71022429578E+01  0.26837523075E+03 -0.75355715932E+03  0.79995318531E+03  0.99999687468E+00 0.  0.
          4    1    3    3  501    0 -0.10225247791E+03 -0.13353507935E+03 -0.58677866882E+03  0.61040674377E+03  0.00000000000E+00 0.  1.
   -9000007    1    1    2    0  502  0.10935472087E+03 -0.13484015139E+03 -0.57331575927E+03  0.72029943859E+03  0.40000000000E+03 0.  1.
<mgrwt>
<rscale>  2 0.43817043E+03</rscale>
<asrwt>0</asrwt>
<pdfrwt beam="1">  1       21 0.16692906E-01 0.43887925E+03</pdfrwt>
<pdfrwt beam="2">  1       21 0.31110084E+00 0.43887925E+03</pdfrwt>
<totfact> 0.76564552E+02</totfact>
</mgrwt>
</event>
<event>
 6    1  0.9190795E-004  0.5462299E+03  0.7818608E-02  0.1002371E+00
         21   -1    0    0  503  502  0.00000000000E+00  0.00000000000E+00  0.22745728090E+04  0.22745728090E+04  0.00000000000E+00 0.  1.
         21   -1    0    0  501  503 -0.00000000000E+00 -0.00000000000E+00 -0.59240377024E+03  0.59240377024E+03  0.00000000000E+00 0. -1.
    9000007    2    1    2  501    0  0.23603065070E+03  0.28750071297E+03 -0.42378182537E+03  0.69133962190E+03  0.39999038646E+03 0.  0.
    9000005    1    3    3    0    0  0.28772665117E+03  0.34249613964E+03 -0.42331091390E+03  0.61585985523E+03  0.99999687468E+00 0.  0.
          4    1    3    3  501    0 -0.51696000468E+02 -0.54995426667E+02 -0.47091146825E+00  0.75479766668E+02  0.00000000000E+00 0.  1.
   -9000007    1    1    2    0  502 -0.23603065070E+03 -0.28750071297E+03  0.21059508641E+04  0.21756369574E+04  0.40000000000E+03 0.  1.
<mgrwt>
<rscale>  2 0.54622816E+03</rscale>
<asrwt>0</asrwt>
<pdfrwt beam="1">  1       21 0.34993428E+00 0.54622992E+03</pdfrwt>
<pdfrwt beam="2">  1       21 0.91139042E-01 0.54622992E+03</pdfrwt>
<totfact> 0.12193069E+01</totfact>
</mgrwt>
</event>
<event>
 6    1  0.9190795E-004  0.4399458E+03  0.7818608E-02  0.1030871E+00
         21   -1    0    0  503  502  0.00000000000E+00  0.00000000000E+00  0.29132287292E+03  0.29132287292E+03  0.00000000000E+00 0. -1.
         21   -1    0    0  501  503 -0.00000000000E+00 -0.00000000000E+00 -0.66413208021E+03  0.66413208021E+03  0.00000000000E+00 0. -1.
    9000007    2    1    2  501    0 -0.34106385693E+02  0.17651284181E+03 -0.16143474293E+03  0.46862932413E+03  0.40153734364E+03 0.  0.
    9000005    1    3    3    0    0 -0.38051723864E+02 -0.87579473857E+02  0.69241883407E+02  0.11795565413E+03  0.99999687468E+00 0.  0.
          4    1    3    3  501    0  0.39453381711E+01  0.26409231567E+03 -0.23067662634E+03  0.35067366999E+03  0.00000000000E+00 0.  1.
   -9000007    1    1    2    0  502  0.34106385693E+02 -0.17651284181E+03 -0.21137446436E+03  0.48682562900E+03  0.40000000000E+03 0. -1.
<mgrwt>
<rscale>  2 0.43959466E+03</rscale>
<asrwt>0</asrwt>
<pdfrwt beam="1">  1       21 0.44818904E-01 0.43994575E+03</pdfrwt>
<pdfrwt beam="2">  1       21 0.10217417E+00 0.43994575E+03</pdfrwt>
<totfact> 0.32561632E+03</totfact>
</mgrwt>
</event>
<event>
 6    1  0.9190795E-004  0.4490368E+03  0.7818608E-02  0.1028024E+00
         21   -1    0    0  503  502  0.00000000000E+00  0.00000000000E+00  0.43779499703E+03  0.43779499703E+03  0.00000000000E+00 0.  1.
         21   -1    0    0  501  503 -0.00000000000E+00 -0.00000000000E+00 -0.73540104914E+03  0.73540104914E+03  0.00000000000E+00 0.  1.
    9000007    2    1    2  501    0 -0.17821601582E+03 -0.98478220484E+02 -0.50755644614E+03  0.67767805844E+03  0.40021881099E+03 0.  0.
    9000005    1    3    3    0    0  0.72695825290E+02 -0.43938114800E+02  0.23211825634E+02  0.88062646961E+02  0.99999687468E+00 0.  0.
          4    1    3    3  501    0 -0.25091184111E+03 -0.54540105684E+02 -0.53076827177E+03  0.58961541148E+03  0.00000000000E+00 0.  1.
   -9000007    1    1    2    0  502  0.17821601582E+03  0.98478220484E+02  0.20995039404E+03  0.49551798773E+03  0.40000000000E+03 0.  1.
<mgrwt>
<rscale>  2 0.44898799E+03</rscale>
<asrwt>0</asrwt>
<pdfrwt beam="1">  1       21 0.67353077E-01 0.44903675E+03</pdfrwt>
<pdfrwt beam="2">  1       21 0.11313862E+00 0.44903675E+03</pdfrwt>
<totfact> 0.10462091E+03</totfact>
</mgrwt>
</event>
<event>
 6    1  0.9190795E-004  0.4677734E+03  0.7818608E-02  0.1022559E+00
         21   -1    0    0  503  502  0.00000000000E+00  0.00000000000E+00  0.45010390695E+03  0.45010390695E+03  0.00000000000E+00 0.  1.
         21   -1    0    0  501  503 -0.00000000000E+00 -0.00000000000E+00 -0.55318777079E+03  0.55318777079E+03  0.00000000000E+00 0.  1.
    9000007    2    1    2  501    0 -0.22471523172E+03  0.91186950541E+02 -0.22633909876E+03  0.51955223521E+03  0.39986640540E+03 0.  0.
    9000005    1    3    3    0    0 -0.20091856818E+03  0.15435121796E+03  0.29391681287E+02  0.25506360079E+03  0.99999687468E+00 0.  0.
          4    1    3    3  501    0 -0.23796663542E+02 -0.63164267421E+02 -0.25573078005E+03  0.26448863443E+03  0.00000000000E+00 0.  1.
   -9000007    1    1    2    0  502  0.22471523172E+03 -0.91186950541E+02  0.12325523492E+03  0.48373944252E+03  0.40000000000E+03 0.  1.
<mgrwt>
<rscale>  2 0.46774488E+03</rscale>
<asrwt>0</asrwt>
<pdfrwt beam="1">  1       21 0.69246756E-01 0.46777344E+03</pdfrwt>
<pdfrwt beam="2">  1       21 0.85105810E-01 0.46777344E+03</pdfrwt>
<totfact> 0.19437507E+03</totfact>
</mgrwt>
</event>
<event>
 6    1  0.9190795E-004  0.4487611E+03  0.7818608E-02  0.1028116E+00
         21   -1    0    0  503  502  0.00000000000E+00  0.00000000000E+00  0.29675695219E+03  0.29675695219E+03  0.00000000000E+00 0. -1.
         21   -1    0    0  501  503 -0.00000000000E+00 -0.00000000000E+00 -0.89241311896E+03  0.89241311896E+03  0.00000000000E+00 0. -1.
    9000007    2    1    2  501    0  0.34237777371E+02  0.19981872700E+03 -0.58925776188E+03  0.74068296024E+03  0.40035832524E+03 0.  0.
    9000005    1    3    3    0    0 -0.74823412966E+02  0.79803290581E+02  0.19124991746E+02  0.11105797413E+03  0.99999687468E+00 0.  0.
          4    1    3    3  501    0  0.10906119034E+03  0.12001543642E+03 -0.60838275363E+03  0.62962498611E+03  0.00000000000E+00 0.  1.
   -9000007    1    1    2    0  502 -0.34237777371E+02 -0.19981872700E+03 -0.63984048895E+01  0.44848711090E+03  0.40000000000E+03 0. -1.
<mgrwt>
<rscale>  2 0.44868118E+03</rscale>
<asrwt>0</asrwt>
<pdfrwt beam="1">  1       21 0.45654916E-01 0.44876111E+03</pdfrwt>
<pdfrwt beam="2">  1       21 0.13729433E+00 0.44876111E+03</pdfrwt>
<totfact> 0.14775554E+03</totfact>
</mgrwt>
</event>
<event>
 6    1  0.9190795E-004  0.5333326E+03  0.7818608E-02  0.1005429E+00
         21   -1    0    0  503  502  0.00000000000E+00  0.00000000000E+00  0.12001897971E+04  0.12001897971E+04  0.00000000000E+00 0.  1.
         21   -1    0    0  501  503 -0.00000000000E+00 -0.00000000000E+00 -0.41750441784E+03  0.41750441784E+03  0.00000000000E+00 0.  1.
    9000007    2    1    2  501    0  0.50767222436E+02  0.34909359735E+03 -0.14052637614E+03  0.55150305202E+03  0.39995537678E+03 0.  0.
    9000005    1    3    3    0    0 -0.16920881427E+03  0.85176075547E+02 -0.41312840272E+02  0.19389259253E+03  0.99999687468E+00 0.  0.
          4    1    3    3  501    0  0.21997603671E+03  0.26391752180E+03 -0.99213535871E+02  0.35761045949E+03  0.00000000000E+00 0.  1.
   -9000007    1    1    2    0  502 -0.50767222436E+02 -0.34909359735E+03  0.92321175540E+03  0.10661911629E+04  0.40000000000E+03 0.  1.
<mgrwt>
<rscale>  2 0.53332422E+03</rscale>
<asrwt>0</asrwt>
<pdfrwt beam="1">  1       21 0.18464458E+00 0.53333259E+03</pdfrwt>
<pdfrwt beam="2">  1       21 0.64231449E-01 0.53333259E+03</pdfrwt>
<totfact> 0.29830085E+02</totfact>
</mgrwt>
</event>
<event>
 6    1  0.9190795E-004  0.4247918E+03  0.7818608E-02  0.1035615E+00
         21   -1    0    0  503  502  0.00000000000E+00  0.00000000000E+00  0.83819726179E+03  0.83819726179E+03  0.00000000000E+00 0.  1.
         21   -1    0    0  501  503 -0.00000000000E+00 -0.00000000000E+00 -0.21466731650E+03  0.21466731650E+03  0.00000000000E+00 0.  1.
    9000007    2    1    2  501    0 -0.17489639174E+02 -0.14192307661E+03  0.31097206908E+03  0.52547433081E+03  0.39871242449E+03 0.  0.
    9000005    1    3    3    0    0 -0.70920062281E+02  0.12900615508E+03  0.11613150530E+03  0.18750938589E+03  0.99999687468E+00 0.  0.
          4    1    3    3  501    0  0.53430423107E+02 -0.27092923169E+03  0.19484056378E+03  0.33796494492E+03  0.00000000000E+00 0.  1.
   -9000007    1    1    2    0  502  0.17489639174E+02  0.14192307661E+03  0.31255787621E+03  0.52739024747E+03  0.40000000000E+03 0.  1.
<mgrwt>
<rscale>  2 0.42448839E+03</rscale>
<asrwt>0</asrwt>
<pdfrwt beam="1">  1       21 0.12895342E+00 0.42479177E+03</pdfrwt>
<pdfrwt beam="2">  1       21 0.33025741E-01 0.42479177E+03</pdfrwt>
<totfact> 0.34126327E+03</totfact>
</mgrwt>
</event>
<event>
 6    1  0.9190795E-004  0.4795892E+03  0.7818608E-02  0.1019450E+00
         21   -1    0    0  503  502  0.00000000000E+00  0.00000000000E+00  0.61737698849E+03  0.61737698849E+03  0.00000000000E+00 0.  1.
         21   -1    0    0  501  503 -0.00000000000E+00 -0.00000000000E+00 -0.43431809660E+03  0.43431809660E+03  0.00000000000E+00 0. -1.
    9000007    2    1    2  501    0 -0.25469518408E+03 -0.71667242827E+02 -0.11062856948E+03  0.48932674009E+03  0.39647969393E+03 0.  0.
    9000005    1    3    3    0    0  0.28984984935E+02 -0.48928286991E+02 -0.18634862203E+03  0.19483561160E+03  0.99999687468E+00 0.  0.
          4    1    3    3  501    0 -0.28368016902E+03 -0.22738955836E+02  0.75720052550E+02  0.29449112850E+03  0.00000000000E+00 0.  1.
   -9000007    1    1    2    0  502  0.25469518408E+03  0.71667242827E+02  0.29368746137E+03  0.56236834500E+03  0.40000000000E+03 0.  1.
<mgrwt>
<rscale>  2 0.47885451E+03</rscale>
<asrwt>0</asrwt>
<pdfrwt beam="1">  1       21 0.94981075E-01 0.47958923E+03</pdfrwt>
<pdfrwt beam="2">  1       21 0.66818169E-01 0.47958923E+03</pdfrwt>
<totfact> 0.16161763E+03</totfact>
</mgrwt>
</event>
<event>
 6    1  0.9190795E-004  0.5594879E+03  0.7818608E-02  0.9993424E-01
         21   -1    0    0  503  502  0.00000000000E+00  0.00000000000E+00  0.40715116129E+03  0.40715116129E+03  0.00000000000E+00 0.  1.
         21   -1    0    0  501  503 -0.00000000000E+00 -0.00000000000E+00 -0.77217146396E+03  0.77217146396E+03  0.00000000000E+00 0.  1.
    9000007    2    1    2  501    0  0.32327460246E+03  0.21933148233E+03 -0.14089029324E+03  0.57695477347E+03  0.40051712593E+03 0.  0.
    9000005    1    3    3    0    0  0.23015454350E+03 -0.55810659854E+02  0.31912982251E+02  0.23896732428E+03  0.99999687468E+00 0.  0.
          4    1    3    3  501    0  0.93120058966E+02  0.27514214219E+03 -0.17280327549E+03  0.33798744919E+03  0.00000000000E+00 0.  1.
   -9000007    1    1    2    0  502 -0.32327460246E+03 -0.21933148233E+03 -0.22413000943E+03  0.60236785179E+03  0.40000000000E+03 0.  1.
<mgrwt>
<rscale>  2 0.55939538E+03</rscale>
<asrwt>0</asrwt>
<pdfrwt beam="1">  1       21 0.62638641E-01 0.55948792E+03</pdfrwt>
<pdfrwt beam="2">  1       21 0.11879561E+00 0.55948792E+03</pdfrwt>
<totfact> 0.10444831E+03</totfact>
</mgrwt>
</event>
<event>
 6    1  0.9190795E-004  0.4430320E+03  0.7818608E-02  0.1029835E+00
         21   -1    0    0  503  502  0.00000000000E+00  0.00000000000E+00  0.33299359474E+03  0.33299359474E+03  0.00000000000E+00 0. -1.
         21   -1    0    0  501  503 -0.00000000000E+00 -0.00000000000E+00 -0.59691977245E+03  0.59691977245E+03  0.00000000000E+00 0. -1.
    9000007    2    1    2  501    0 -0.17281983903E+03 -0.78981254396E+02 -0.18495778650E+03  0.48009035519E+03  0.40021573064E+03 0.  0.
    9000005    1    3    3    0    0 -0.85649788874E+02 -0.23558267806E+03 -0.49695895529E+02  0.25554992968E+03  0.99999687468E+00 0.  0.
          4    1    3    3  501    0 -0.87170050160E+02  0.15660142366E+03 -0.13526189097E+03  0.22454042551E+03  0.00000000000E+00 0.  1.
   -9000007    1    1    2    0  502  0.17281983903E+03  0.78981254396E+02 -0.78968391207E+02  0.44982301199E+03  0.40000000000E+03 0. -1.
<mgrwt>
<rscale>  2 0.44298329E+03</rscale>
<asrwt>0</asrwt>
<pdfrwt beam="1">  1       21 0.51229784E-01 0.44303202E+03</pdfrwt>
<pdfrwt beam="2">  1       21 0.91833811E-01 0.44303202E+03</pdfrwt>
<totfact> 0.31706564E+03</totfact>
</mgrwt>
</event>
<event>
 6    1  0.9190795E-004  0.4087375E+03  0.7818608E-02  0.1040800E+00
         21   -1    0    0  503  502  0.00000000000E+00  0.00000000000E+00  0.38293474851E+03  0.38293474851E+03  0.00000000000E+00 0. -1.
         21   -1    0    0  501  503 -0.00000000000E+00 -0.00000000000E+00 -0.49888588304E+03  0.49888588304E+03  0.00000000000E+00 0. -1.
    9000007    2    1    2  501    0  0.28955729833E+02 -0.78917111343E+02 -0.21424223896E+03  0.46143094809E+03  0.39994054327E+03 0.  0.
    9000005    1    3    3    0    0 -0.14151531835E+02  0.15955744312E+03 -0.12498243661E+03  0.20317591629E+03  0.99999687468E+00 0.  0.
          4    1    3    3  501    0  0.43107261668E+02 -0.23847455446E+03 -0.89259802347E+02  0.25825503180E+03  0.00000000000E+00 0.  1.
   -9000007    1    1    2    0  502 -0.28955729833E+02  0.78917111343E+02  0.98291104431E+02  0.42038968346E+03  0.40000000000E+03 0. -1.
<mgrwt>
<rscale>  2 0.40872295E+03</rscale>
<asrwt>0</asrwt>
<pdfrwt beam="1">  1       21 0.58913038E-01 0.40873750E+03</pdfrwt>
<pdfrwt beam="2">  1       21 0.76751674E-01 0.40873750E+03</pdfrwt>
<totfact> 0.36089082E+03</totfact>
</mgrwt>
</event>
<event>
 6    1  0.9190795E-004  0.4488327E+03  0.7818608E-02  0.1028087E+00
         21   -1    0    0  503  502  0.00000000000E+00  0.00000000000E+00  0.22057813627E+03  0.22057813627E+03  0.00000000000E+00 0.  1.
         21   -1    0    0  501  503 -0.00000000000E+00 -0.00000000000E+00 -0.14962521750E+04  0.14962521750E+04  0.00000000000E+00 0.  1.
    9000007    2    1    2  501    0  0.10160991864E+03 -0.17642611804E+03 -0.11737637287E+04  0.12565733592E+04  0.39975563209E+03 0.  0.
    9000005    1    3    3    0    0  0.18967964352E+02 -0.29165237271E+03 -0.62784602023E+03  0.69254062356E+03  0.99999687468E+00 0.  0.
          4    1    3    3  501    0  0.82641954289E+02  0.11522625467E+03 -0.54591770849E+03  0.56403273559E+03  0.00000000000E+00 0.  1.
   -9000007    1    1    2    0  502 -0.10160991864E+03  0.17642611804E+03 -0.10191031003E+03  0.46025695213E+03  0.40000000000E+03 0.  1.
<mgrwt>
<rscale>  2 0.44877820E+03</rscale>
<asrwt>0</asrwt>
<pdfrwt beam="1">  1       21 0.33935097E-01 0.44883265E+03</pdfrwt>
<pdfrwt beam="2">  1       21 0.23019265E+00 0.44883265E+03</pdfrwt>
<totfact> 0.59777573E+02</totfact>
</mgrwt>
</event>
<event>
 6    1  0.9190795E-004  0.4623260E+03  0.7818608E-02  0.1024160E+00
         21   -1    0    0  503  502  0.00000000000E+00  0.00000000000E+00  0.98452553038E+03  0.98452553038E+03  0.00000000000E+00 0. -1.
         21   -1    0    0  501  503 -0.00000000000E+00 -0.00000000000E+00 -0.22216550843E+03  0.22216550843E+03  0.00000000000E+00 0. -1.
    9000007    2    1    2  501    0  0.56225306219E+02  0.22343706859E+03  0.28743935612E+03  0.54439575156E+03  0.40082407885E+03 0.  0.
    9000005    1    3    3    0    0  0.18627657530E+03  0.24155201269E+03  0.11131821935E+03  0.32471384832E+03  0.99999687468E+00 0.  0.
          4    1    3    3  501    0 -0.13005126908E+03 -0.18114944094E+02  0.17612113677E+03  0.21968190323E+03  0.00000000000E+00 0.  1.
   -9000007    1    1    2    0  502 -0.56225306219E+02 -0.22343706859E+03  0.47492066583E+03  0.66229528725E+03  0.40000000000E+03 0. -1.
<mgrwt>
<rscale>  2 0.46214735E+03</rscale>
<asrwt>0</asrwt>
<pdfrwt beam="1">  1       21 0.15146546E+00 0.46232602E+03</pdfrwt>
<pdfrwt beam="2">  1       21 0.34179309E-01 0.46232602E+03</pdfrwt>
<totfact> 0.20479866E+03</totfact>
</mgrwt>
</event>
<event>
 6    1  0.9190795E-004  0.4422722E+03  0.7818608E-02  0.1030100E+00
         21   -1    0    0  503  502  0.00000000000E+00  0.00000000000E+00  0.14814773249E+03  0.14814773249E+03  0.00000000000E+00 0.  1.
         21   -1    0    0  501  503 -0.00000000000E+00 -0.00000000000E+00 -0.13626545681E+04  0.13626545681E+04  0.00000000000E+00 0.  1.
    9000007    2    1    2  501    0 -0.12277813132E+03 -0.14132236821E+03 -0.47161843017E+03  0.64655137394E+03  0.40069721009E+03 0.  0.
    9000005    1    3    3    0    0 -0.11692650351E+03  0.16741577245E+02  0.28923421648E+02  0.12161271293E+03  0.99999687468E+00 0.  0.
          4    1    3    3  501    0 -0.58516278058E+01 -0.15806394545E+03 -0.50054185182E+03  0.52493866101E+03  0.00000000000E+00 0.  1.
   -9000007    1    1    2    0  502  0.12277813132E+03  0.14132236821E+03 -0.74288840542E+03  0.86425092664E+03  0.40000000000E+03 0.  1.
<mgrwt>
<rscale>  2 0.44211426E+03</rscale>
<asrwt>0</asrwt>
<pdfrwt beam="1">  1       21 0.22791958E-01 0.44227224E+03</pdfrwt>
<pdfrwt beam="2">  1       21 0.20963918E+00 0.44227224E+03</pdfrwt>
<totfact> 0.17778438E+03</totfact>
</mgrwt>
</event>
<event>
 6    1  0.9190795E-004  0.4398125E+03  0.7818608E-02  0.1030829E+00
         21   -1    0    0  503  502  0.00000000000E+00  0.00000000000E+00  0.41530046585E+03  0.41530046585E+03  0.00000000000E+00 0. -1.
         21   -1    0    0  501  503 -0.00000000000E+00 -0.00000000000E+00 -0.52618841394E+03  0.52618841394E+03  0.00000000000E+00 0. -1.
    9000007    2    1    2  501    0 -0.10024620359E+03  0.15292398847E+03 -0.21538771296E+03  0.48943219260E+03  0.39964603923E+03 0.  0.
    9000005    1    3    3    0    0 -0.24516000424E+03  0.16116747951E+03 -0.12880523523E+03  0.32042186684E+03  0.99999687468E+00 0.  0.
          4    1    3    3  501    0  0.14491380065E+03 -0.82434910365E+01 -0.86582477724E+02  0.16901032576E+03  0.00000000000E+00 0.  1.
   -9000007    1    1    2    0  502  0.10024620359E+03 -0.15292398847E+03  0.10449976487E+03  0.45205668720E+03  0.40000000000E+03 0. -1.
<mgrwt>
<rscale>  2 0.43973202E+03</rscale>
<asrwt>0</asrwt>
<pdfrwt beam="1">  1       21 0.63892380E-01 0.43981251E+03</pdfrwt>
<pdfrwt beam="2">  1       21 0.80952063E-01 0.43981251E+03</pdfrwt>
<totfact> 0.26405063E+03</totfact>
</mgrwt>
</event>
<event>
 6    1  0.9190795E-004  0.4222886E+03  0.7818608E-02  0.1037385E+00
         21   -1    0    0  503  502  0.00000000000E+00  0.00000000000E+00  0.13631808504E+03  0.13631808504E+03  0.00000000000E+00 0. -1.
         21   -1    0    0  501  503 -0.00000000000E+00 -0.00000000000E+00 -0.13700305472E+04  0.13700305472E+04  0.00000000000E+00 0. -1.
    9000007    2    1    2  501    0  0.94153771995E+02 -0.97276425482E+02 -0.81303730810E+03  0.91028217539E+03  0.38633707917E+03 0.  0.
    9000005    1    3    3    0    0  0.13671332977E+03 -0.37907676510E+02 -0.82425690497E+03  0.83637788819E+03  0.99999687468E+00 0.  0.
          4    1    3    3  501    0 -0.42559557777E+02 -0.59368748972E+02  0.11219596870E+02  0.73904287201E+02  0.00000000000E+00 0.  1.
   -9000007    1    1    2    0  502 -0.94153771995E+02  0.97276425482E+02 -0.42067515406E+03  0.59606645685E+03  0.40000000000E+03 0. -1.
<mgrwt>
<rscale>  2 0.41902126E+03</rscale>
<asrwt>0</asrwt>
<pdfrwt beam="1">  1       21 0.20972013E-01 0.42228857E+03</pdfrwt>
<pdfrwt beam="2">  1       21 0.21077394E+00 0.42228857E+03</pdfrwt>
<totfact> 0.20690361E+03</totfact>
</mgrwt>
</event>
<event>
 6    1  0.9190795E-004  0.4257032E+03  0.7818608E-02  0.1035265E+00
         21   -1    0    0  503  502  0.00000000000E+00  0.00000000000E+00  0.55602359085E+03  0.55602359085E+03  0.00000000000E+00 0. -1.
         21   -1    0    0  501  503 -0.00000000000E+00 -0.00000000000E+00 -0.48173875175E+03  0.48173875175E+03  0.00000000000E+00 0. -1.
    9000007    2    1    2  501    0  0.10907693106E+03 -0.94395068761E+02 -0.25829152850E+03  0.49793343805E+03  0.40051840050E+03 0.  0.
    9000005    1    3    3    0    0 -0.52206001809E+02 -0.12050978369E+03  0.56729390621E+02  0.14306396591E+03  0.99999687468E+00 0.  0.
          4    1    3    3  501    0  0.16128293287E+03  0.26114714927E+02 -0.31502091912E+03  0.35486947214E+03  0.00000000000E+00 0.  1.
   -9000007    1    1    2    0  502 -0.10907693106E+03  0.94395068761E+02  0.33257636760E+03  0.53982890454E+03  0.40000000000E+03 0. -1.
<mgrwt>
<rscale>  2 0.42558120E+03</rscale>
<asrwt>0</asrwt>
<pdfrwt beam="1">  1       21 0.85542091E-01 0.42570318E+03</pdfrwt>
<pdfrwt beam="2">  1       21 0.74113654E-01 0.42570318E+03</pdfrwt>
<totfact> 0.16739654E+03</totfact>
</mgrwt>
</event>
<event>
 6    1  0.9190795E-004  0.4174318E+03  0.7818608E-02  0.1037972E+00
         21   -1    0    0  503  502  0.00000000000E+00  0.00000000000E+00  0.68451380439E+03  0.68451380439E+03  0.00000000000E+00 0.  1.
         21   -1    0    0  501  503 -0.00000000000E+00 -0.00000000000E+00 -0.25407268413E+03  0.25407268413E+03  0.00000000000E+00 0.  1.
    9000007    2    1    2  501    0  0.22635637127E+02 -0.11720457634E+03  0.21235035486E+03  0.46761635493E+03  0.39915297494E+03 0.  0.
    9000005    1    3    3    0    0 -0.14988355734E+03 -0.16476513948E+03  0.55258994622E+02  0.22949332982E+03  0.99999687468E+00 0.  0.
          4    1    3    3  501    0  0.17251919447E+03  0.47560563141E+02  0.15709136024E+03  0.23812302511E+03  0.00000000000E+00 0.  1.
   -9000007    1    1    2    0  502 -0.22635637127E+02  0.11720457634E+03  0.21809076540E+03  0.47097013359E+03  0.40000000000E+03 0.  1.
<mgrwt>
<rscale>  2 0.41722873E+03</rscale>
<asrwt>0</asrwt>
<pdfrwt beam="1">  1       21 0.10530981E+00 0.41743177E+03</pdfrwt>
<pdfrwt beam="2">  1       21 0.39088106E-01 0.41743177E+03</pdfrwt>
<totfact> 0.40473996E+03</totfact>
</mgrwt>
</event>
<event>
 6    1  0.9190795E-004  0.4843934E+03  0.7818608E-02  0.1017935E+00
         21   -1    0    0  503  502  0.00000000000E+00  0.00000000000E+00  0.53365870712E+03  0.53365870712E+03  0.00000000000E+00 0.  1.
         21   -1    0    0  501  503 -0.00000000000E+00 -0.00000000000E+00 -0.44015445255E+03  0.44015445255E+03  0.00000000000E+00 0.  1.
    9000007    2    1    2  501    0  0.24992940229E+03 -0.11032777012E+03  0.62875103769E+02  0.48845239913E+03  0.39999443066E+03 0.  0.
    9000005    1    3    3    0    0  0.10692991399E+03  0.12116455537E+03 -0.80880080615E+02  0.18071370567E+03  0.99999687468E+00 0.  0.
          4    1    3    3  501    0  0.14299948831E+03 -0.23149232549E+03  0.14375518438E+03  0.30773869346E+03  0.00000000000E+00 0.  1.
   -9000007    1    1    2    0  502 -0.24992940229E+03  0.11032777012E+03  0.30629150804E+02  0.48536076054E+03  0.40000000000E+03 0.  1.
<mgrwt>
<rscale>  2 0.48439221E+03</rscale>
<asrwt>0</asrwt>
<pdfrwt beam="1">  1       21 0.82101340E-01 0.48439336E+03</pdfrwt>
<pdfrwt beam="2">  1       21 0.67716070E-01 0.48439336E+03</pdfrwt>
<totfact> 0.22096892E+03</totfact>
</mgrwt>
</event>
<event>
 6    1  0.9190795E-004  0.8974005E+03  0.7818608E-02  0.9428860E-01
         21   -1    0    0  503  502  0.00000000000E+00  0.00000000000E+00  0.83906783332E+03  0.83906783332E+03  0.00000000000E+00 0.  1.
         21   -1    0    0  501  503 -0.00000000000E+00 -0.00000000000E+00 -0.14026740464E+04  0.14026740464E+04  0.00000000000E+00 0. -1.
    9000007    2    1    2  501    0 -0.46483947699E+02  0.80189342360E+03 -0.91169731497E+03  0.12792652641E+04  0.40016721721E+03 0.  0.
    9000005    1    3    3    0    0 -0.10370153031E+03  0.76641504450E+03 -0.92993459856E+03  0.12095145247E+04  0.99999687468E+00 0.  0.
          4    1    3    3  501    0  0.57217582613E+02  0.35478379104E+02  0.18237283589E+02  0.69750739470E+02  0.00000000000E+00 0.  1.
   -9000007    1    1    2    0  502  0.46483947699E+02 -0.80189342360E+03  0.34809110192E+03  0.96247661553E+03  0.40000000000E+03 0.  1.
<mgrwt>
<rscale>  2 0.89738184E+03</rscale>
<asrwt>0</asrwt>
<pdfrwt beam="1">  1       21 0.12908736E+00 0.89740048E+03</pdfrwt>
<pdfrwt beam="2">  1       21 0.21579601E+00 0.89740048E+03</pdfrwt>
<totfact> 0.29918366E+01</totfact>
</mgrwt>
</event>
<event>
 6    1  0.9190795E-004  0.4061572E+03  0.7818608E-02  0.1041931E+00
         21   -1    0    0  503  502  0.00000000000E+00  0.00000000000E+00  0.10909031276E+04  0.10909031276E+04  0.00000000000E+00 0.  1.
         21   -1    0    0  501  503 -0.00000000000E+00 -0.00000000000E+00 -0.16003482317E+03  0.16003482317E+03  0.00000000000E+00 0.  1.
    9000007    2    1    2  501    0  0.33356618613E+02  0.36846304551E+02  0.31104212513E+03  0.51157687071E+03  0.40310467235E+03 0.  0.
    9000005    1    3    3    0    0 -0.10309414107E+03  0.11611740230E+03 -0.81605036552E+01  0.15549677441E+03  0.99999687468E+00 0.  0.
          4    1    3    3  501    0  0.13645075968E+03 -0.79271097748E+02  0.31920262878E+03  0.35608009629E+03  0.00000000000E+00 0.  1.
   -9000007    1    1    2    0  502 -0.33356618613E+02 -0.36846304551E+02  0.61982617934E+03  0.73936108010E+03  0.40000000000E+03 0.  1.
<mgrwt>
<rscale>  2 0.40538473E+03</rscale>
<asrwt>0</asrwt>
<pdfrwt beam="1">  1       21 0.16783125E+00 0.40615722E+03</pdfrwt>
<pdfrwt beam="2">  1       21 0.24620743E-01 0.40615722E+03</pdfrwt>
<totfact> 0.30148549E+03</totfact>
</mgrwt>
</event>
<event>
 6    1  0.9190795E-004  0.4258842E+03  0.7818608E-02  0.1035310E+00
         21   -1    0    0  503  502  0.00000000000E+00  0.00000000000E+00  0.56235649580E+03  0.56235649580E+03  0.00000000000E+00 0.  1.
         21   -1    0    0  501  503 -0.00000000000E+00 -0.00000000000E+00 -0.56805329689E+03  0.56805329689E+03  0.00000000000E+00 0.  1.
    9000007    2    1    2  501    0 -0.44229891360E+02 -0.13383572621E+03 -0.37545025488E+03  0.56775012513E+03  0.40188185552E+03 0.  0.
    9000005    1    3    3    0    0 -0.82427060004E+02 -0.41391628566E+02  0.67081843811E+02  0.11405463997E+03  0.99999687468E+00 0.  0.
          4    1    3    3  501    0  0.38197168645E+02 -0.92444097647E+02 -0.44253209869E+03  0.45369548516E+03  0.00000000000E+00 0.  1.
   -9000007    1    1    2    0  502  0.44229891360E+02  0.13383572621E+03  0.36975345380E+03  0.56265966756E+03  0.40000000000E+03 0.  1.
<mgrwt>
<rscale>  2 0.42543962E+03</rscale>
<asrwt>0</asrwt>
<pdfrwt beam="1">  1       21 0.86516384E-01 0.42588415E+03</pdfrwt>
<pdfrwt beam="2">  1       21 0.87392815E-01 0.42588415E+03</pdfrwt>
<totfact> 0.11137875E+03</totfact>
</mgrwt>
</event>
<event>
 6    1  0.9190795E-004  0.4060335E+03  0.7818608E-02  0.1041744E+00
         21   -1    0    0  503  502  0.00000000000E+00  0.00000000000E+00  0.11504133617E+03  0.11504133617E+03  0.00000000000E+00 0.  1.
         21   -1    0    0  501  503 -0.00000000000E+00 -0.00000000000E+00 -0.21187927881E+04  0.21187927881E+04  0.00000000000E+00 0.  1.
    9000007    2    1    2  501    0  0.69212264831E+02 -0.85354621064E+01 -0.16375902114E+04  0.16870825849E+04  0.39960324844E+03 0.  0.
    9000005    1    3    3    0    0  0.19085447190E+03  0.70488790550E+01 -0.14528059084E+04  0.14653058123E+04  0.99999687468E+00 0.  0.
          4    1    3    3  501    0 -0.12164220706E+03 -0.15584341161E+02 -0.18478430295E+03  0.22177677255E+03  0.00000000000E+00 0.  1.
   -9000007    1    1    2    0  502 -0.69212264831E+02  0.85354621064E+01 -0.36616124056E+03  0.54675153937E+03  0.40000000000E+03 0. -1.
<mgrwt>
<rscale>  2 0.40593574E+03</rscale>
<asrwt>0</asrwt>
<pdfrwt beam="1">  1       21 0.17698669E-01 0.40603349E+03</pdfrwt>
<pdfrwt beam="2">  1       21 0.32596809E+00 0.40603349E+03</pdfrwt>
<totfact> 0.56963030E+02</totfact>
</mgrwt>
</event>
<event>
 6    1  0.9190795E-004  0.4386909E+03  0.7818608E-02  0.1031166E+00
         21   -1    0    0  503  502  0.00000000000E+00  0.00000000000E+00  0.24979570736E+03  0.24979570736E+03  0.00000000000E+00 0.  1.
         21   -1    0    0  501  503 -0.00000000000E+00 -0.00000000000E+00 -0.10304154857E+04  0.10304154857E+04  0.00000000000E+00 0.  1.
    9000007    2    1    2  501    0 -0.66082532606E+02 -0.16757916973E+03 -0.71200012267E+03  0.83618604018E+03  0.39976648167E+03 0.  0.
    9000005    1    3    3    0    0 -0.21052447984E+03 -0.12301933992E+02 -0.46532211208E+03  0.51087920507E+03  0.99999687468E+00 0.  0.
          4    1    3    3  501    0  0.14444194723E+03 -0.15527723574E+03 -0.24667801059E+03  0.32530683511E+03  0.00000000000E+00 0.  1.
   -9000007    1    1    2    0  502  0.66082532606E+02  0.16757916973E+03 -0.68619655661E+02  0.44402515288E+03  0.40000000000E+03 0.  1.
<mgrwt>
<rscale>  2 0.43863763E+03</rscale>
<asrwt>0</asrwt>
<pdfrwt beam="1">  1       21 0.38430109E-01 0.43869087E+03</pdfrwt>
<pdfrwt beam="2">  1       21 0.15852546E+00 0.43869087E+03</pdfrwt>
<totfact> 0.14375278E+03</totfact>
</mgrwt>
</event>
<event>
 6    1  0.9190795E-004  0.4713722E+03  0.7818608E-02  0.1021556E+00
         21   -1    0    0  503  502  0.00000000000E+00  0.00000000000E+00  0.25556401739E+03  0.25556401739E+03  0.00000000000E+00 0.  1.
         21   -1    0    0  501  503 -0.00000000000E+00 -0.00000000000E+00 -0.10328848043E+04  0.10328848043E+04  0.00000000000E+00 0. -1.
    9000007    2    1    2  501    0 -0.22593378370E+03 -0.10557292097E+03 -0.64530347212E+03  0.79893856883E+03  0.39961800431E+03 0.  0.
    9000005    1    3    3    0    0  0.39091266009E+02  0.10983284558E+03 -0.25450761078E+03  0.27994018108E+03  0.99999687468E+00 0.  0.
          4    1    3    3  501    0 -0.26502504970E+03 -0.21540576655E+03 -0.39079586135E+03  0.51899838774E+03  0.00000000000E+00 0.  1.
   -9000007    1    1    2    0  502  0.22593378370E+03  0.10557292097E+03 -0.13201731478E+03  0.48951025286E+03  0.40000000000E+03 0.  1.
<mgrwt>
<rscale>  2 0.47129111E+03</rscale>
<asrwt>0</asrwt>
<pdfrwt beam="1">  1       21 0.39317541E-01 0.47137216E+03</pdfrwt>
<pdfrwt beam="2">  1       21 0.15890536E+00 0.47137216E+03</pdfrwt>
<totfact> 0.13443309E+03</totfact>
</mgrwt>
</event>
<event>
 6    1  0.9190795E-004  0.5097359E+03  0.7818608E-02  0.1011275E+00
         21   -1    0    0  503  502  0.00000000000E+00  0.00000000000E+00  0.49427397704E+03  0.49427397704E+03  0.00000000000E+00 0. -1.
         21   -1    0    0  501  503 -0.00000000000E+00 -0.00000000000E+00 -0.12198052328E+04  0.12198052328E+04  0.00000000000E+00 0. -1.
    9000007    2    1    2  501    0 -0.13341774470E+02 -0.31567819389E+03 -0.10093089715E+04  0.11306749614E+04  0.39986315575E+03 0.  0.
    9000005    1    3    3    0    0 -0.15562529952E+03  0.60214640552E+01 -0.26377382341E+03  0.30632192509E+03  0.99999687468E+00 0.  0.
          4    1    3    3  501    0  0.14228352505E+03 -0.32169965795E+03 -0.74553514811E+03  0.82435303633E+03  0.00000000000E+00 0.  1.
   -9000007    1    1    2    0  502  0.13341774470E+02  0.31567819389E+03  0.28377771581E+03  0.58340424839E+03  0.40000000000E+03 0. -1.
<mgrwt>
<rscale>  2 0.50970909E+03</rscale>
<asrwt>0</asrwt>
<pdfrwt beam="1">  1       21 0.76042151E-01 0.50973594E+03</pdfrwt>
<pdfrwt beam="2">  1       21 0.18766234E+00 0.50973594E+03</pdfrwt>
<totfact> 0.19612722E+02</totfact>
</mgrwt>
</event>
<event>
 6    1  0.9190795E-004  0.4368163E+03  0.7818608E-02  0.1032108E+00
         21   -1    0    0  503  502  0.00000000000E+00  0.00000000000E+00  0.73222013591E+03  0.73222013591E+03  0.00000000000E+00 0. -1.
         21   -1    0    0  501  503 -0.00000000000E+00 -0.00000000000E+00 -0.28355295880E+03  0.28355295880E+03  0.00000000000E+00 0. -1.
    9000007    2    1    2  501    0  0.12978034193E+03  0.98620477722E+02  0.72081586087E+02  0.44272367002E+03  0.40526479882E+03 0.  0.
    9000005    1    3    3    0    0  0.59846677811E+02  0.24144360796E+03 -0.34718290622E+02  0.25116329423E+03  0.99999687468E+00 0.  0.
          4    1    3    3  501    0  0.69933664117E+02 -0.14282313024E+03  0.10679987671E+03  0.19156037579E+03  0.00000000000E+00 0.  1.
   -9000007    1    1    2    0  502 -0.12978034193E+03 -0.98620477722E+02  0.37658559102E+03  0.57304942469E+03  0.40000000000E+03 0. -1.
<mgrwt>
<rscale>  2 0.43559116E+03</rscale>
<asrwt>0</asrwt>
<pdfrwt beam="1">  1       21 0.11264925E+00 0.43681631E+03</pdfrwt>
<pdfrwt beam="2">  1       21 0.43623532E-01 0.43681631E+03</pdfrwt>
<totfact> 0.27107433E+03</totfact>
</mgrwt>
</event>
<event>
 6    1  0.9190795E-004  0.7785469E+03  0.7818608E-02  0.9591617E-01
         21   -1    0    0  503  502  0.00000000000E+00  0.00000000000E+00  0.10635393156E+04  0.10635393156E+04  0.00000000000E+00 0. -1.
         21   -1    0    0  501  503 -0.00000000000E+00 -0.00000000000E+00 -0.81957638110E+03  0.81957638110E+03  0.00000000000E+00 0. -1.
    9000007    2    1    2  501    0  0.12132423599E+03 -0.65682241575E+03 -0.39771905090E+03  0.87420984063E+03  0.39990892205E+03 0.  0.
    9000005    1    3    3    0    0  0.26065622700E+03 -0.52353394144E+03 -0.31650043603E+03  0.66498344529E+03  0.99999687468E+00 0.  0.
          4    1    3    3  501    0 -0.13933199101E+03 -0.13328847431E+03 -0.81218614872E+02  0.20922639534E+03  0.00000000000E+00 0.  1.
   -9000007    1    1    2    0  502 -0.12132423599E+03  0.65682241575E+03  0.64168198543E+03  0.10089058561E+04  0.40000000000E+03 0. -1.
<mgrwt>
<rscale>  2 0.77853519E+03</rscale>
<asrwt>0</asrwt>
<pdfrwt beam="1">  1       21 0.16362143E+00 0.77854689E+03</pdfrwt>
<pdfrwt beam="2">  1       21 0.12608867E+00 0.77854689E+03</pdfrwt>
<totfact> 0.76970347E+01</totfact>
</mgrwt>
</event>
<event>
 6    1  0.9190795E-004  0.4309238E+03  0.7818608E-02  0.1033623E+00
         21   -1    0    0  503  502  0.00000000000E+00  0.00000000000E+00  0.21438595437E+03  0.21438595437E+03  0.00000000000E+00 0. -1.
         21   -1    0    0  501  503 -0.00000000000E+00 -0.00000000000E+00 -0.86497822937E+03  0.86497822937E+03  0.00000000000E+00 0. -1.
    9000007    2    1    2  501    0 -0.15705136071E+03  0.20989903350E+02 -0.33336022953E+03  0.54481589161E+03  0.40073633124E+03 0.  0.
    9000005    1    3    3    0    0 -0.24780288985E+03 -0.98381078660E+02 -0.27742085460E+03  0.38477063222E+03  0.99999687468E+00 0.  0.
          4    1    3    3  501    0  0.90751529136E+02  0.11937098201E+03 -0.55939374923E+02  0.16004525939E+03  0.00000000000E+00 0.  1.
   -9000007    1    1    2    0  502  0.15705136071E+03 -0.20989903350E+02 -0.31723204548E+03  0.53454829213E+03  0.40000000000E+03 0. -1.
<mgrwt>
<rscale>  2 0.43075252E+03</rscale>
<asrwt>0</asrwt>
<pdfrwt beam="1">  1       21 0.32982455E-01 0.43092379E+03</pdfrwt>
<pdfrwt beam="2">  1       21 0.13307357E+00 0.43092379E+03</pdfrwt>
<totfact> 0.31460930E+03</totfact>
</mgrwt>
</event>
<event>
 6    1  0.9190795E-004  0.4664073E+03  0.7818608E-02  0.1023010E+00
         21   -1    0    0  503  502  0.00000000000E+00  0.00000000000E+00  0.23776157621E+03  0.23776157621E+03  0.00000000000E+00 0. -1.
         21   -1    0    0  501  503 -0.00000000000E+00 -0.00000000000E+00 -0.16374774946E+04  0.16374774946E+04  0.00000000000E+00 0. -1.
    9000007    2    1    2  501    0  0.21792931341E+03  0.10021253320E+03 -0.13231154322E+04  0.14025834118E+04  0.39883585943E+03 0.  0.
    9000005    1    3    3    0    0  0.14604619942E+03 -0.70248838852E+02 -0.11039260837E+04  0.11157590197E+04  0.99999687468E+00 0.  0.
          4    1    3    3  501    0  0.71883113989E+02  0.17046137206E+03 -0.21918934851E+03  0.28682439217E+03  0.00000000000E+00 0.  1.
   -9000007    1    1    2    0  502 -0.21792931341E+03 -0.10021253320E+03 -0.76600486164E+02  0.47265565895E+03  0.40000000000E+03 0. -1.
<mgrwt>
<rscale>  2 0.46615756E+03</rscale>
<asrwt>0</asrwt>
<pdfrwt beam="1">  1       21 0.36578704E-01 0.46640727E+03</pdfrwt>
<pdfrwt beam="2">  1       21 0.25191962E+00 0.46640727E+03</pdfrwt>
<totfact> 0.37296005E+02</totfact>
</mgrwt>
</event>
<event>
 6    1  0.9190795E-004  0.5188869E+03  0.7818608E-02  0.1009276E+00
         21   -1    0    0  503  502  0.00000000000E+00  0.00000000000E+00  0.59963397873E+03  0.59963397873E+03  0.00000000000E+00 0. -1.
         21   -1    0    0  501  503 -0.00000000000E+00 -0.00000000000E+00 -0.44888928192E+03  0.44888928192E+03  0.00000000000E+00 0.  1.
    9000007    2    1    2  501    0 -0.30604573488E+03  0.10212384599E+03  0.25137453156E+02  0.51949542450E+03  0.40638692495E+03 0.  0.
    9000005    1    3    3    0    0 -0.25023701308E+02  0.99489250227E+02  0.17360591814E+03  0.20165393957E+03  0.99999687468E+00 0.  0.
          4    1    3    3  501    0 -0.28102203357E+03  0.26345957650E+01 -0.14846846499E+03  0.31784148493E+03  0.00000000000E+00 0.  1.
   -9000007    1    1    2    0  502  0.30604573488E+03 -0.10212384599E+03  0.12560724365E+03  0.52902783615E+03  0.40000000000E+03 0.  1.
<mgrwt>
<rscale>  2 0.51763566E+03</rscale>
<asrwt>0</asrwt>
<pdfrwt beam="1">  1       21 0.92251381E-01 0.51888689E+03</pdfrwt>
<pdfrwt beam="2">  1       21 0.69059890E-01 0.51888689E+03</pdfrwt>
<totfact> 0.15876183E+03</totfact>
</mgrwt>
</event>
<event>
 6    1  0.9190795E-004  0.4340157E+03  0.7818608E-02  0.1032611E+00
         21   -1    0    0  503  502  0.00000000000E+00  0.00000000000E+00  0.78739092652E+03  0.78739092652E+03  0.00000000000E+00 0. -1.
         21   -1    0    0  501  503 -0.00000000000E+00 -0.00000000000E+00 -0.23915266127E+03  0.23915266127E+03  0.00000000000E+00 0. -1.
    9000007    2    1    2  501    0  0.95005344216E+00 -0.16843023741E+03  0.27151924332E+03  0.51181738428E+03  0.39983082408E+03 0.  0.
    9000005    1    3    3    0    0  0.17935269629E+03 -0.16239257401E+03  0.21744232044E+03  0.32530124573E+03  0.99999687468E+00 0.  0.
          4    1    3    3  501    0 -0.17840264284E+03 -0.60376633962E+01  0.54076922881E+02  0.18651613855E+03  0.00000000000E+00 0.  1.
   -9000007    1    1    2    0  502 -0.95005344216E+00  0.16843023741E+03  0.27671902193E+03  0.51472620350E+03  0.40000000000E+03 0. -1.
<mgrwt>
<rscale>  2 0.43397674E+03</rscale>
<asrwt>0</asrwt>
<pdfrwt beam="1">  1       21 0.12113706E+00 0.43401572E+03</pdfrwt>
<pdfrwt beam="2">  1       21 0.36792717E-01 0.43401572E+03</pdfrwt>
<totfact> 0.32101144E+03</totfact>
</mgrwt>
</event>
<event>
 6    1  0.9190795E-004  0.4627401E+03  0.7818608E-02  0.1024026E+00
         21   -1    0    0  503  502  0.00000000000E+00  0.00000000000E+00  0.14183351310E+04  0.14183351310E+04  0.00000000000E+00 0. -1.
         21   -1    0    0  501  503 -0.00000000000E+00 -0.00000000000E+00 -0.18413483391E+03  0.18413483391E+03  0.00000000000E+00 0.  1.
    9000007    2    1    2  501    0  0.65709411119E+02  0.22212933818E+03  0.27649802171E+03  0.53905432751E+03  0.40058612358E+03 0.  0.
    9000005    1    3    3    0    0  0.15431208097E+03  0.22985712440E+03  0.33348236230E+03  0.43342588978E+03  0.99999687468E+00 0.  0.
          4    1    3    3  501    0 -0.88602669850E+02 -0.77277862264E+01 -0.56984340587E+02  0.10562843773E+03  0.00000000000E+00 0.  1.
   -9000007    1    1    2    0  502 -0.65709411119E+02 -0.22212933818E+03  0.95770227534E+03  0.10634156374E+04  0.40000000000E+03 0. -1.
<mgrwt>
<rscale>  2 0.46261323E+03</rscale>
<asrwt>0</asrwt>
<pdfrwt beam="1">  1       21 0.21820540E+00 0.46274011E+03</pdfrwt>
<pdfrwt beam="2">  1       21 0.28328437E-01 0.46274011E+03</pdfrwt>
<totfact> 0.10144777E+03</totfact>
</mgrwt>
</event>
<event>
 6    1  0.9190795E-004  0.4326047E+03  0.7818608E-02  0.1033119E+00
         21   -1    0    0  503  502  0.00000000000E+00  0.00000000000E+00  0.12673300816E+04  0.12673300816E+04  0.00000000000E+00 0.  1.
         21   -1    0    0  501  503 -0.00000000000E+00 -0.00000000000E+00 -0.23171277310E+03  0.23171277310E+03  0.00000000000E+00 0.  1.
    9000007    2    1    2  501    0  0.29069016371E+02  0.16217842037E+03  0.65109837486E+02  0.43648386856E+03  0.39891356060E+03 0.  0.
    9000005    1    3    3    0    0  0.10212326454E+03 -0.10798411654E+03 -0.21680264489E+01  0.14864531919E+03  0.99999687468E+00 0.  0.
          4    1    3    3  501    0 -0.73054248173E+02  0.27016253691E+03  0.67277863934E+02  0.28783854937E+03  0.00000000000E+00 0.  1.
   -9000007    1    1    2    0  502 -0.29069016371E+02 -0.16217842037E+03  0.97050747104E+03  0.10625589862E+04  0.40000000000E+03 0.  1.
<mgrwt>
<rscale>  2 0.43235342E+03</rscale>
<asrwt>0</asrwt>
<pdfrwt beam="1">  1       21 0.19497385E+00 0.43260472E+03</pdfrwt>
<pdfrwt beam="2">  1       21 0.35648120E-01 0.43260472E+03</pdfrwt>
<totfact> 0.92344603E+02</totfact>
</mgrwt>
</event>
<event>
 6    1  0.9190795E-004  0.5111828E+03  0.7818608E-02  0.1010909E+00
         21   -1    0    0  503  502  0.00000000000E+00  0.00000000000E+00  0.18733335518E+04  0.18733335518E+04  0.00000000000E+00 0.  1.
         21   -1    0    0  501  503 -0.00000000000E+00 -0.00000000000E+00 -0.16779971232E+03  0.16779971232E+03  0.00000000000E+00 0. -1.
    9000007    2    1    2  501    0 -0.31755239131E+03  0.18112798990E+02  0.12723451979E+04  0.13711929728E+04  0.40017530078E+03 0.  0.
    9000005    1    3    3    0    0 -0.26923332262E+03 -0.23665587855E+02  0.32941097815E+03  0.42609768196E+03  0.99999687468E+00 0.  0.
          4    1    3    3  501    0 -0.48319068697E+02  0.41778386845E+02  0.94293421976E+03  0.94509529086E+03  0.00000000000E+00 0.  1.
   -9000007    1    1    2    0  502  0.31755239131E+03 -0.18112798990E+02  0.43318864158E+03  0.66994029131E+03  0.40000000000E+03 0. -1.
<mgrwt>
<rscale>  2 0.51114850E+03</rscale>
<asrwt>0</asrwt>
<pdfrwt beam="1">  1       21 0.28820515E+00 0.51118281E+03</pdfrwt>
<pdfrwt beam="2">  1       21 0.25815342E-01 0.51118281E+03</pdfrwt>
<totfact> 0.43971840E+02</totfact>
</mgrwt>
</event>
<event>
 6    1  0.9190795E-004  0.4700965E+03  0.7818608E-02  0.1021932E+00
         21   -1    0    0  503  502  0.00000000000E+00  0.00000000000E+00  0.69013810197E+03  0.69013810197E+03  0.00000000000E+00 0. -1.
         21   -1    0    0  501  503 -0.00000000000E+00 -0.00000000000E+00 -0.20582682149E+04  0.20582682149E+04  0.00000000000E+00 0. -1.
    9000007    2    1    2  501    0  0.24504512690E+03 -0.20547498586E+02 -0.19470570830E+04  0.20030032375E+04  0.40065118380E+03 0.  0.
    9000005    1    3    3    0    0  0.32005801205E+03 -0.13536373299E+02 -0.18620917073E+04  0.18894461863E+04  0.99999687468E+00 0.  0.
          4    1    3    3  501    0 -0.75012885150E+02 -0.70111252864E+01 -0.84965375746E+02  0.11355705126E+03  0.00000000000E+00 0.  1.
   -9000007    1    1    2    0  502 -0.24504512690E+03  0.20547498586E+02  0.57892697012E+03  0.74540307932E+03  0.40000000000E+03 0. -1.
<mgrwt>
<rscale>  2 0.46995769E+03</rscale>
<asrwt>0</asrwt>
<pdfrwt beam="1">  1       21 0.10617509E+00 0.47009646E+03</pdfrwt>
<pdfrwt beam="2">  1       21 0.31665664E+00 0.47009646E+03</pdfrwt>
<totfact> 0.14144969E+01</totfact>
</mgrwt>
</event>
<event>
 6    1  0.9190795E-004  0.4481893E+03  0.7818608E-02  0.1028264E+00
         21   -1    0    0  503  502  0.00000000000E+00  0.00000000000E+00  0.66596980436E+03  0.66596980436E+03  0.00000000000E+00 0. -1.
         21   -1    0    0  501  503 -0.00000000000E+00 -0.00000000000E+00 -0.32696696204E+03  0.32696696204E+03  0.00000000000E+00 0. -1.
    9000007    2    1    2  501    0  0.16705487051E+03  0.11386972238E+03  0.30772349317E+03  0.54365729756E+03  0.39999483184E+03 0.  0.
    9000005    1    3    3    0    0  0.24112797176E+03  0.10666311959E+03  0.36462859201E+03  0.44997192129E+03  0.99999687468E+00 0.  0.
          4    1    3    3  501    0 -0.74073101248E+02  0.72066027877E+01 -0.56905098837E+02  0.93685376265E+02  0.00000000000E+00 0.  1.
   -9000007    1    1    2    0  502 -0.16705487051E+03 -0.11386972238E+03  0.31279349151E+02  0.44927946884E+03  0.40000000000E+03 0. -1.
<mgrwt>
<rscale>  2 0.44818814E+03</rscale>
<asrwt>0</asrwt>
<pdfrwt beam="1">  1       21 0.10245689E+00 0.44818929E+03</pdfrwt>
<pdfrwt beam="2">  1       21 0.50302610E-01 0.44818929E+03</pdfrwt>
<totfact> 0.25273227E+03</totfact>
</mgrwt>
</event>
<event>
 6    1  0.9190795E-004  0.4261864E+03  0.7818608E-02  0.1035103E+00
         21   -1    0    0  503  502  0.00000000000E+00  0.00000000000E+00  0.28431828369E+03  0.28431828369E+03  0.00000000000E+00 0. -1.
         21   -1    0    0  501  503 -0.00000000000E+00 -0.00000000000E+00 -0.10131980895E+04  0.10131980895E+04  0.00000000000E+00 0.  1.
    9000007    2    1    2  501    0 -0.12968055575E+03 -0.69410592134E+02 -0.75899258559E+03  0.87026743369E+03  0.39957575543E+03 0.  0.
    9000005    1    3    3    0    0 -0.10967630640E+03 -0.29111012764E+02 -0.35992627451E+01  0.11353544792E+03  0.99999687468E+00 0.  0.
          4    1    3    3  501    0 -0.20004249355E+02 -0.40299579369E+02 -0.75539332284E+03  0.75673198577E+03  0.00000000000E+00 0.  1.
   -9000007    1    1    2    0  502  0.12968055575E+03  0.69410592134E+02  0.30112779733E+02  0.42724893955E+03  0.40000000000E+03 0. -1.
<mgrwt>
<rscale>  2 0.42608686E+03</rscale>
<asrwt>0</asrwt>
<pdfrwt beam="1">  1       21 0.43741275E-01 0.42618643E+03</pdfrwt>
<pdfrwt beam="2">  1       21 0.15587663E+00 0.42618643E+03</pdfrwt>
<totfact> 0.11590291E+03</totfact>
</mgrwt>
</event>
<event>
 6    1  0.9190795E-004  0.4054604E+03  0.7818608E-02  0.1041929E+00
         21   -1    0    0  503  502  0.00000000000E+00  0.00000000000E+00  0.63203661776E+03  0.63203661776E+03  0.00000000000E+00 0. -1.
         21   -1    0    0  501  503 -0.00000000000E+00 -0.00000000000E+00 -0.47208225425E+03  0.47208225425E+03  0.00000000000E+00 0. -1.
    9000007    2    1    2  501    0 -0.48620159233E+01  0.64400206682E+02 -0.29009303246E+03  0.49854997879E+03  0.40028375942E+03 0.  0.
    9000005    1    3    3    0    0 -0.19043564757E+03 -0.32144518370E+02 -0.17030193979E+03  0.25749321664E+03  0.99999687468E+00 0.  0.
          4    1    3    3  501    0  0.18557363165E+03  0.96544725052E+02 -0.11979109267E+03  0.24105676216E+03  0.00000000000E+00 0.  1.
   -9000007    1    1    2    0  502  0.48620159233E+01 -0.64400206682E+02  0.45004739596E+03  0.60556889322E+03  0.40000000000E+03 0.  1.
<mgrwt>
<rscale>  2 0.40539032E+03</rscale>
<asrwt>0</asrwt>
<pdfrwt beam="1">  1       21 0.97236403E-01 0.40546037E+03</pdfrwt>
<pdfrwt beam="2">  1       21 0.72628039E-01 0.40546037E+03</pdfrwt>
<totfact> 0.13046233E+03</totfact>
</mgrwt>
</event>
<event>
 6    1  0.9190795E-004  0.5194331E+03  0.7818608E-02  0.1008851E+00
         21   -1    0    0  503  502  0.00000000000E+00  0.00000000000E+00  0.13920789794E+04  0.13920789794E+04  0.00000000000E+00 0. -1.
         21   -1    0    0  501  503 -0.00000000000E+00 -0.00000000000E+00 -0.19525286995E+03  0.19525286995E+03  0.00000000000E+00 0. -1.
    9000007    2    1    2  501    0  0.23701326820E+03  0.23076129369E+03  0.66985009491E+03  0.84764963119E+03  0.40048056586E+03 0.  0.
    9000005    1    3    3    0    0 -0.76600673228E+02  0.74086853413E+02  0.37411965466E+03  0.38900262337E+03  0.99999687468E+00 0.  0.
          4    1    3    3  501    0  0.31361394142E+03  0.15667444028E+03  0.29573044025E+03  0.45864700782E+03  0.00000000000E+00 0.  1.
   -9000007    1    1    2    0  502 -0.23701326820E+03 -0.23076129369E+03  0.52697601451E+03  0.73968221814E+03  0.40000000000E+03 0. -1.
<mgrwt>
<rscale>  2 0.51934047E+03</rscale>
<asrwt>0</asrwt>
<pdfrwt beam="1">  1       21 0.21416599E+00 0.51943310E+03</pdfrwt>
<pdfrwt beam="2">  1       21 0.30038904E-01 0.51943310E+03</pdfrwt>
<totfact> 0.93593640E+02</totfact>
</mgrwt>
</event>
<event>
 6    1  0.9190795E-004  0.4062755E+03  0.7818608E-02  0.1041672E+00
         21   -1    0    0  503  502  0.00000000000E+00  0.00000000000E+00  0.26266765243E+03  0.26266765243E+03  0.00000000000E+00 0.  1.
         21   -1    0    0  501  503 -0.00000000000E+00 -0.00000000000E+00 -0.64390390960E+03  0.64390390960E+03  0.00000000000E+00 0.  1.
    9000007    2    1    2  501    0 -0.67531670507E+02  0.90984187687E+01 -0.26285335133E+03  0.48389222714E+03  0.40052028093E+03 0.  0.
    9000005    1    3    3    0    0 -0.63395152547E+02 -0.19035795154E+03 -0.17368419364E+03  0.26537199210E+03  0.99999687468E+00 0.  0.
          4    1    3    3  501    0 -0.41365179599E+01  0.19945637030E+03 -0.89169157689E+02  0.21852023503E+03  0.00000000000E+00 0.  1.
   -9000007    1    1    2    0  502  0.67531670507E+02 -0.90984187687E+01 -0.11838290585E+03  0.42267933489E+03  0.40000000000E+03 0. -1.
<mgrwt>
<rscale>  2 0.40614724E+03</rscale>
<asrwt>0</asrwt>
<pdfrwt beam="1">  1       21 0.40410409E-01 0.40627553E+03</pdfrwt>
<pdfrwt beam="2">  1       21 0.99062139E-01 0.40627553E+03</pdfrwt>
<totfact> 0.44066907E+03</totfact>
</mgrwt>
</event>
<event>
 6    1  0.9190795E-004  0.4139597E+03  0.7818608E-02  0.1039228E+00
         21   -1    0    0  503  502  0.00000000000E+00  0.00000000000E+00  0.15866167898E+04  0.15866167898E+04  0.00000000000E+00 0. -1.
         21   -1    0    0  501  503 -0.00000000000E+00 -0.00000000000E+00 -0.15057602051E+03  0.15057602051E+03  0.00000000000E+00 0. -1.
    9000007    2    1    2  501    0  0.10466204548E+03  0.20211155999E+02  0.25183092204E+03  0.48271459333E+03  0.39778377383E+03 0.  0.
    9000005    1    3    3    0    0  0.23775387351E+03  0.86542267288E+02  0.10564259545E+03  0.27418575157E+03  0.99999687468E+00 0.  0.
          4    1    3    3  501    0 -0.13309182803E+03 -0.66331111289E+02  0.14618832660E+03  0.20852884176E+03  0.00000000000E+00 0.  1.
   -9000007    1    1    2    0  502 -0.10466204548E+03 -0.20211155999E+02  0.11842098472E+04  0.12544782170E+04  0.40000000000E+03 0. -1.
<mgrwt>
<rscale>  2 0.41342339E+03</rscale>
<asrwt>0</asrwt>
<pdfrwt beam="1">  1       21 0.24409488E+00 0.41395970E+03</pdfrwt>
<pdfrwt beam="2">  1       21 0.23165543E-01 0.41395970E+03</pdfrwt>
<totfact> 0.10581614E+03</totfact>
</mgrwt>
</event>
<event>
 6    1  0.9190795E-004  0.5846856E+03  0.7818608E-02  0.9937811E-01
         21   -1    0    0  503  502  0.00000000000E+00  0.00000000000E+00  0.98559814749E+03  0.98559814749E+03  0.00000000000E+00 0. -1.
         21   -1    0    0  501  503 -0.00000000000E+00 -0.00000000000E+00 -0.34698490537E+03  0.34698490537E+03  0.00000000000E+00 0.  1.
    9000007    2    1    2  501    0  0.33595019551E+03 -0.26266847227E+03  0.33740891142E+03  0.67487391577E+03  0.39969084114E+03 0.  0.
    9000005    1    3    3    0    0  0.22636157945E+03  0.49158197186E+02  0.23226306166E+03  0.32802930175E+03  0.99999687468E+00 0.  0.
          4    1    3    3  501    0  0.10958861606E+03 -0.31182666945E+03  0.10514584977E+03  0.34684461402E+03  0.00000000000E+00 0.  1.
   -9000007    1    1    2    0  502 -0.33595019551E+03  0.26266847227E+03  0.30120433070E+03  0.65770913709E+03  0.40000000000E+03 0. -1.
<mgrwt>
<rscale>  2 0.58463274E+03</rscale>
<asrwt>0</asrwt>
<pdfrwt beam="1">  1       21 0.15163048E+00 0.58468561E+03</pdfrwt>
<pdfrwt beam="2">  1       21 0.53382294E-01 0.58468561E+03</pdfrwt>
<totfact> 0.77076779E+02</totfact>
</mgrwt>
</event>
<event>
 6    1  0.9190795E-004  0.4901805E+03  0.7818608E-02  0.1016399E+00
         21   -1    0    0  503  502  0.00000000000E+00  0.00000000000E+00  0.46036908399E+03  0.46036908399E+03  0.00000000000E+00 0. -1.
         21   -1    0    0  501  503 -0.00000000000E+00 -0.00000000000E+00 -0.66848203600E+03  0.66848203600E+03  0.00000000000E+00 0. -1.
    9000007    2    1    2  501    0 -0.19188469747E+03  0.20846397965E+03 -0.36865778704E+03  0.61304920840E+03  0.39955450196E+03 0.  0.
    9000005    1    3    3    0    0 -0.27980865767E+03  0.18294189530E+03 -0.39528866149E+03  0.51770140801E+03  0.99999687468E+00 0.  0.
          4    1    3    3  501    0  0.87923960193E+02  0.25522084358E+02  0.26630874446E+02  0.95347800393E+02  0.00000000000E+00 0.  1.
   -9000007    1    1    2    0  502  0.19188469747E+03 -0.20846397965E+03  0.16054483503E+03  0.51580191158E+03  0.40000000000E+03 0. -1.
<mgrwt>
<rscale>  2 0.49008965E+03</rscale>
<asrwt>0</asrwt>
<pdfrwt beam="1">  1       21 0.70826013E-01 0.49018055E+03</pdfrwt>
<pdfrwt beam="2">  1       21 0.10284339E+00 0.49018055E+03</pdfrwt>
<totfact> 0.11642767E+03</totfact>
</mgrwt>
</event>
<event>
 6    1  0.9190795E-004  0.4302860E+03  0.7818608E-02  0.1033935E+00
         21   -1    0    0  503  502  0.00000000000E+00  0.00000000000E+00  0.90977048426E+03  0.90977048426E+03  0.00000000000E+00 0. -1.
         21   -1    0    0  501  503 -0.00000000000E+00 -0.00000000000E+00 -0.23374929919E+03  0.23374929919E+03  0.00000000000E+00 0. -1.
    9000007    2    1    2  501    0 -0.63362179884E+02 -0.14536611063E+03  0.12831189072E+03  0.44700593358E+03  0.39774903066E+03 0.  0.
    9000005    1    3    3    0    0 -0.10397078023E+03 -0.18985708110E+03  0.23809336587E+03  0.32178422156E+03  0.99999687468E+00 0.  0.
          4    1    3    3  501    0  0.40608600341E+02  0.44490970468E+02 -0.10978147514E+03  0.12522171201E+03  0.00000000000E+00 0.  1.
   -9000007    1    1    2    0  502  0.63362179884E+02  0.14536611063E+03  0.54770929434E+03  0.69651384987E+03  0.40000000000E+03 0. -1.
<mgrwt>
<rscale>  2 0.42976215E+03</rscale>
<asrwt>0</asrwt>
<pdfrwt beam="1">  1       21 0.13996469E+00 0.43028604E+03</pdfrwt>
<pdfrwt beam="2">  1       21 0.35961431E-01 0.43028604E+03</pdfrwt>
<totfact> 0.23143535E+03</totfact>
</mgrwt>
</event>
<event>
 6    1  0.9190795E-004  0.8072859E+03  0.7818608E-02  0.9549551E-01
         21   -1    0    0  503  502  0.00000000000E+00  0.00000000000E+00  0.16418159899E+04  0.16418159899E+04  0.00000000000E+00 0.  1.
         21   -1    0    0  501  503 -0.00000000000E+00 -0.00000000000E+00 -0.15433752861E+04  0.15433752861E+04  0.00000000000E+00 0. -1.
    9000007    2    1    2  501    0  0.30497585267E+03  0.63135311306E+03 -0.13233949634E+04  0.15501886189E+04  0.40011685920E+03 0.  0.
    9000005    1    3    3    0    0  0.34652029487E+03  0.60255184868E+03 -0.13285277494E+04  0.14993772127E+04  0.99999687468E+00 0.  0.
          4    1    3    3  501    0 -0.41544442196E+02  0.28801264379E+02  0.51327860138E+01  0.50811406194E+02  0.00000000000E+00 0.  1.
   -9000007    1    1    2    0  502 -0.30497585267E+03 -0.63135311306E+03  0.14218356672E+04  0.16350026570E+04  0.40000000000E+03 0.  1.
<mgrwt>
<rscale>  2 0.80727142E+03</rscale>
<asrwt>0</asrwt>
<pdfrwt beam="1">  1       21 0.25258708E+00 0.80728590E+03</pdfrwt>
<pdfrwt beam="2">  1       21 0.23744235E+00 0.80728590E+03</pdfrwt>
<totfact> 0.28999860E+00</totfact>
</mgrwt>
</event>
<event>
 6    1  0.9190795E-004  0.4675547E+03  0.7818608E-02  0.1022862E+00
         21   -1    0    0  503  502  0.00000000000E+00  0.00000000000E+00  0.75522228931E+03  0.75522228931E+03  0.00000000000E+00 0.  1.
         21   -1    0    0  501  503 -0.00000000000E+00 -0.00000000000E+00 -0.79768656656E+03  0.79768656656E+03  0.00000000000E+00 0.  1.
    9000007    2    1    2  501    0 -0.23502798743E+03 -0.58044801634E+02 -0.64228385829E+03  0.79238871565E+03  0.39590904031E+03 0.  0.
    9000005    1    3    3    0    0 -0.18622803660E+03  0.15659672898E+03 -0.35763868932E+03  0.43256196000E+03  0.99999687468E+00 0.  0.
          4    1    3    3  501    0 -0.48799950835E+02 -0.21464153062E+03 -0.28464516897E+03  0.35982675565E+03  0.00000000000E+00 0.  1.
   -9000007    1    1    2    0  502  0.23502798743E+03  0.58044801634E+02  0.59981958104E+03  0.76052014021E+03  0.40000000000E+03 0.  1.
<mgrwt>
<rscale>  2 0.46667843E+03</rscale>
<asrwt>0</asrwt>
<pdfrwt beam="1">  1       21 0.11618804E+00 0.46755465E+03</pdfrwt>
<pdfrwt beam="2">  1       21 0.12272101E+00 0.46755465E+03</pdfrwt>
<totfact> 0.23246593E+02</totfact>
</mgrwt>
</event>
<event>
 6    1  0.9190795E-004  0.4571540E+03  0.7818608E-02  0.1025619E+00
         21   -1    0    0  503  502  0.00000000000E+00  0.00000000000E+00  0.35067841816E+03  0.35067841816E+03  0.00000000000E+00 0.  1.
         21   -1    0    0  501  503 -0.00000000000E+00 -0.00000000000E+00 -0.59845898727E+03  0.59845898727E+03  0.00000000000E+00 0.  1.
    9000007    2    1    2  501    0 -0.14933229199E+03  0.16302268826E+03 -0.15555775952E+03  0.48289543292E+03  0.40014154029E+03 0.  0.
    9000005    1    3    3    0    0  0.18077356722E+02 -0.10052611373E+03 -0.13596355328E+03  0.17005698510E+03  0.99999687468E+00 0.  0.
          4    1    3    3  501    0 -0.16740964871E+03  0.26354880199E+03 -0.19594206234E+02  0.31283844782E+03  0.00000000000E+00 0.  1.
   -9000007    1    1    2    0  502  0.14933229199E+03 -0.16302268826E+03 -0.92222809593E+02  0.46624197251E+03  0.40000000000E+03 0. -1.
<mgrwt>
<rscale>  2 0.45712303E+03</rscale>
<asrwt>0</asrwt>
<pdfrwt beam="1">  1       21 0.53950527E-01 0.45715400E+03</pdfrwt>
<pdfrwt beam="2">  1       21 0.92070612E-01 0.45715400E+03</pdfrwt>
<totfact> 0.28062733E+03</totfact>
</mgrwt>
</event>
<event>
 6    1  0.9190795E-004  0.5068866E+03  0.7818608E-02  0.1012020E+00
         21   -1    0    0  503  502  0.00000000000E+00  0.00000000000E+00  0.25783993103E+03  0.25783993103E+03  0.00000000000E+00 0.  1.
         21   -1    0    0  501  503 -0.00000000000E+00 -0.00000000000E+00 -0.14591665197E+04  0.14591665197E+04  0.00000000000E+00 0. -1.
    9000007    2    1    2  501    0 -0.10193128550E+03 -0.29418360976E+03 -0.10843088998E+04  0.11967881094E+04  0.39955225608E+03 0.  0.
    9000005    1    3    3    0    0 -0.64351361566E+02  0.70034620069E+02 -0.48686974809E+03  0.49607368137E+03  0.99999687468E+00 0.  0.
          4    1    3    3  501    0 -0.37579923929E+02 -0.36421822983E+03 -0.59743915170E+03  0.70071442800E+03  0.00000000000E+00 0.  1.
   -9000007    1    1    2    0  502  0.10193128550E+03  0.29418360976E+03 -0.11701768891E+03  0.52021834140E+03  0.40000000000E+03 0.  1.
<mgrwt>
<rscale>  2 0.50679822E+03</rscale>
<asrwt>0</asrwt>
<pdfrwt beam="1">  1       21 0.39667681E-01 0.50688656E+03</pdfrwt>
<pdfrwt beam="2">  1       21 0.22448716E+00 0.50688656E+03</pdfrwt>
<totfact> 0.45958558E+02</totfact>
</mgrwt>
</event>
<event>
 6    1  0.9190795E-004  0.5101683E+03  0.7818608E-02  0.1011196E+00
         21   -1    0    0  503  502  0.00000000000E+00  0.00000000000E+00  0.45726252449E+03  0.45726252449E+03  0.00000000000E+00 0. -1.
         21   -1    0    0  501  503 -0.00000000000E+00 -0.00000000000E+00 -0.56853705360E+03  0.56853705360E+03  0.00000000000E+00 0. -1.
    9000007    2    1    2  501    0 -0.20840592372E+03  0.23840870695E+03 -0.57523723427E+02  0.51280748292E+03  0.39923776775E+03 0.  0.
    9000005    1    3    3    0    0 -0.30388457743E+03  0.14059210974E+03  0.50455350249E+02  0.33861293549E+03  0.99999687468E+00 0.  0.
          4    1    3    3  501    0  0.95478653706E+02  0.97816597206E+02 -0.10797907368E+03  0.17419454743E+03  0.00000000000E+00 0.  1.
   -9000007    1    1    2    0  502  0.20840592372E+03 -0.23840870695E+03 -0.53750805685E+02  0.51299209517E+03  0.40000000000E+03 0. -1.
<mgrwt>
<rscale>  2 0.51001893E+03</rscale>
<asrwt>0</asrwt>
<pdfrwt beam="1">  1       21 0.70348081E-01 0.51016835E+03</pdfrwt>
<pdfrwt beam="2">  1       21 0.87467239E-01 0.51016835E+03</pdfrwt>
<totfact> 0.17330944E+03</totfact>
</mgrwt>
</event>
<event>
 6    1  0.9190795E-004  0.4191481E+03  0.7818608E-02  0.1037383E+00
         21   -1    0    0  503  502  0.00000000000E+00  0.00000000000E+00  0.21286301962E+03  0.21286301962E+03  0.00000000000E+00 0.  1.
         21   -1    0    0  501  503 -0.00000000000E+00 -0.00000000000E+00 -0.12060632116E+04  0.12060632116E+04  0.00000000000E+00 0.  1.
    9000007    2    1    2  501    0  0.25839541972E+02  0.12254574796E+03 -0.89551157718E+03  0.98854476350E+03  0.39949295653E+03 0.  0.
    9000005    1    3    3    0    0  0.13230694707E+03 -0.85660848661E+02 -0.54383481828E+03  0.56621569989E+03  0.99999687468E+00 0.  0.
          4    1    3    3  501    0 -0.10646740510E+03  0.20820659662E+03 -0.35167675890E+03  0.42232906361E+03  0.00000000000E+00 0.  1.
   -9000007    1    1    2    0  502 -0.25839541972E+02 -0.12254574796E+03 -0.97688614777E+02  0.43038146769E+03  0.40000000000E+03 0.  1.
<mgrwt>
<rscale>  2 0.41902710E+03</rscale>
<asrwt>0</asrwt>
<pdfrwt beam="1">  1       21 0.32748157E-01 0.41914811E+03</pdfrwt>
<pdfrwt beam="2">  1       21 0.18554819E+00 0.41914811E+03</pdfrwt>
<totfact> 0.12786279E+03</totfact>
</mgrwt>
</event>
<event>
 6    1  0.9190795E-004  0.4411572E+03  0.7818608E-02  0.1030642E+00
         21   -1    0    0  503  502  0.00000000000E+00  0.00000000000E+00  0.14683729895E+03  0.14683729895E+03  0.00000000000E+00 0. -1.
         21   -1    0    0  501  503 -0.00000000000E+00 -0.00000000000E+00 -0.19223052638E+04  0.19223052638E+04  0.00000000000E+00 0. -1.
    9000007    2    1    2  501    0  0.17141140569E+03  0.72372655291E+02 -0.14666729548E+04  0.15306501956E+04  0.39640988086E+03 0.  0.
    9000005    1    3    3    0    0  0.44721220408E+02  0.22349048148E+03 -0.60016987444E+03  0.64199132474E+03  0.99999687468E+00 0.  0.
          4    1    3    3  501    0  0.12669018528E+03 -0.15111782619E+03 -0.86650308041E+03  0.88865887088E+03  0.00000000000E+00 0.  1.
   -9000007    1    1    2    0  502 -0.17141140569E+03 -0.72372655291E+02 -0.30879500998E+03  0.53849236710E+03  0.40000000000E+03 0. -1.
<mgrwt>
<rscale>  2 0.44034180E+03</rscale>
<asrwt>0</asrwt>
<pdfrwt beam="1">  1       21 0.22590353E-01 0.44115720E+03</pdfrwt>
<pdfrwt beam="2">  1       21 0.29573927E+00 0.44115720E+03</pdfrwt>
<totfact> 0.53269467E+02</totfact>
</mgrwt>
</event>
<event>
 6    1  0.9190795E-004  0.4091609E+03  0.7818608E-02  0.1040655E+00
         21   -1    0    0  503  502  0.00000000000E+00  0.00000000000E+00  0.12744095076E+04  0.12744095076E+04  0.00000000000E+00 0. -1.
         21   -1    0    0  501  503 -0.00000000000E+00 -0.00000000000E+00 -0.13207851966E+03  0.13207851966E+03  0.00000000000E+00 0. -1.
    9000007    2    1    2  501    0 -0.35861062140E+02  0.78272700887E+02  0.62308640527E+03  0.74540742089E+03  0.39997865345E+03 0.  0.
    9000005    1    3    3    0    0 -0.94809733389E+02  0.60928371995E+02  0.66275401492E+03  0.67226857456E+03  0.99999687468E+00 0.  0.
          4    1    3    3  501    0  0.58948671249E+02  0.17344328892E+02 -0.39667609655E+02  0.73138846330E+02  0.00000000000E+00 0.  1.
   -9000007    1    1    2    0  502  0.35861062140E+02 -0.78272700887E+02  0.51924458267E+03  0.66108060637E+03  0.40000000000E+03 0. -1.
<mgrwt>
<rscale>  2 0.40915567E+03</rscale>
<asrwt>0</asrwt>
<pdfrwt beam="1">  1       21 0.19606299E+00 0.40916089E+03</pdfrwt>
<pdfrwt beam="2">  1       21 0.20319773E-01 0.40916089E+03</pdfrwt>
<totfact> 0.27638694E+03</totfact>
</mgrwt>
</event>
<event>
 6    1  0.9190795E-004  0.5437063E+03  0.7818608E-02  0.1002968E+00
         21   -1    0    0  503  502  0.00000000000E+00  0.00000000000E+00  0.12527768168E+04  0.12527768168E+04  0.00000000000E+00 0.  1.
         21   -1    0    0  501  503 -0.00000000000E+00 -0.00000000000E+00 -0.23596672075E+03  0.23596672075E+03  0.00000000000E+00 0. -1.
    9000007    2    1    2  501    0 -0.22921486647E+03  0.28823097464E+03  0.51925003926E+03  0.75173433823E+03  0.39983416843E+03 0.  0.
    9000005    1    3    3    0    0 -0.22834094486E+03  0.96792948161E+02  0.61438124087E+02  0.25550754391E+03  0.99999687468E+00 0.  0.
          4    1    3    3  501    0 -0.87392161420E+00  0.19143802648E+03  0.45781191517E+03  0.49622679431E+03  0.00000000000E+00 0.  1.
   -9000007    1    1    2    0  502  0.22921486647E+03 -0.28823097464E+03  0.49756005675E+03  0.73700919928E+03  0.40000000000E+03 0. -1.
<mgrwt>
<rscale>  2 0.54367581E+03</rscale>
<asrwt>0</asrwt>
<pdfrwt beam="1">  1       21 0.19273489E+00 0.54370631E+03</pdfrwt>
<pdfrwt beam="2">  1       21 0.36302573E-01 0.54370631E+03</pdfrwt>
<totfact> 0.87934952E+02</totfact>
</mgrwt>
</event>
<event>
 6    1  0.9190795E-004  0.4732483E+03  0.7818608E-02  0.1021041E+00
         21   -1    0    0  503  502  0.00000000000E+00  0.00000000000E+00  0.13833681046E+04  0.13833681046E+04  0.00000000000E+00 0.  1.
         21   -1    0    0  501  503 -0.00000000000E+00 -0.00000000000E+00 -0.21368645924E+03  0.21368645924E+03  0.00000000000E+00 0. -1.
    9000007    2    1    2  501    0  0.19279435350E+03 -0.16368971197E+03  0.19088697668E+03  0.50985495568E+03  0.39943742116E+03 0.  0.
    9000005    1    3    3    0    0  0.28695223586E+03 -0.22095022992E+03  0.13729939584E+03  0.38731474780E+03  0.99999687468E+00 0.  0.
          4    1    3    3  501    0 -0.94157882368E+02  0.57260517951E+02  0.53587580842E+02  0.12254020789E+03  0.00000000000E+00 0.  1.
   -9000007    1    1    2    0  502 -0.19279435350E+03  0.16368971197E+03  0.97879466866E+03  0.10871996081E+04  0.40000000000E+03 0.  1.
<mgrwt>
<rscale>  2 0.47312944E+03</rscale>
<asrwt>0</asrwt>
<pdfrwt beam="1">  1       21 0.21282586E+00 0.47324833E+03</pdfrwt>
<pdfrwt beam="2">  1       21 0.32874841E-01 0.47324833E+03</pdfrwt>
<totfact> 0.81303627E+02</totfact>
</mgrwt>
</event>
<event>
 6    1  0.9190795E-004  0.4811830E+03  0.7818608E-02  0.1018814E+00
         21   -1    0    0  503  502  0.00000000000E+00  0.00000000000E+00  0.26585103268E+03  0.26585103268E+03  0.00000000000E+00 0.  1.
         21   -1    0    0  501  503 -0.00000000000E+00 -0.00000000000E+00 -0.94020373212E+03  0.94020373212E+03  0.00000000000E+00 0.  1.
    9000007    2    1    2  501    0 -0.25720864078E+03  0.73353949719E+02 -0.50096362948E+03  0.69458545349E+03  0.39993412872E+03 0.  0.
    9000005    1    3    3    0    0 -0.16551221636E+03  0.23071572838E+03 -0.21758805669E+03  0.35772839347E+03  0.99999687468E+00 0.  0.
          4    1    3    3  501    0 -0.91696424421E+02 -0.15736177866E+03 -0.28337557279E+03  0.33685706003E+03  0.00000000000E+00 0.  1.
   -9000007    1    1    2    0  502  0.25720864078E+03 -0.73353949719E+02 -0.17338906995E+03  0.51146931131E+03  0.40000000000E+03 0.  1.
<mgrwt>
<rscale>  2 0.48116932E+03</rscale>
<asrwt>0</asrwt>
<pdfrwt beam="1">  1       21 0.40900158E-01 0.48118301E+03</pdfrwt>
<pdfrwt beam="2">  1       21 0.14464673E+00 0.48118301E+03</pdfrwt>
<totfact> 0.15961543E+03</totfact>
</mgrwt>
</event>
<event>
 6    1  0.9190795E-004  0.4538994E+03  0.7818608E-02  0.1026579E+00
         21   -1    0    0  503  502  0.00000000000E+00  0.00000000000E+00  0.89674173817E+03  0.89674173817E+03  0.00000000000E+00 0.  1.
         21   -1    0    0  501  503 -0.00000000000E+00 -0.00000000000E+00 -0.39089375121E+03  0.39089375121E+03  0.00000000000E+00 0.  1.
    9000007    2    1    2  501    0 -0.20892029885E+02  0.21311164485E+03 -0.16054154366E+03  0.48145433318E+03  0.40021448951E+03 0.  0.
    9000005    1    3    3    0    0  0.18097806659E+03  0.38000686485E+02 -0.45087864857E+02  0.19034449903E+03  0.99999687468E+00 0.  0.
          4    1    3    3  501    0 -0.20187009648E+03  0.17511095836E+03 -0.11545367880E+03  0.29110983415E+03  0.00000000000E+00 0.  1.
   -9000007    1    1    2    0  502  0.20892029885E+02 -0.21311164485E+03  0.66638953062E+03  0.80618115620E+03  0.40000000000E+03 0.  1.
<mgrwt>
<rscale>  2 0.45385214E+03</rscale>
<asrwt>0</asrwt>
<pdfrwt beam="1">  1       21 0.13796027E+00 0.45389942E+03</pdfrwt>
<pdfrwt beam="2">  1       21 0.60137501E-01 0.45389942E+03</pdfrwt>
<totfact> 0.80635708E+02</totfact>
</mgrwt>
</event>
<event>
 6    1  0.9190795E-004  0.4658028E+03  0.7818608E-02  0.1023132E+00
         21   -1    0    0  503  502  0.00000000000E+00  0.00000000000E+00  0.17686602166E+04  0.17686602166E+04  0.00000000000E+00 0.  1.
         21   -1    0    0  501  503 -0.00000000000E+00 -0.00000000000E+00 -0.12508658241E+03  0.12508658241E+03  0.00000000000E+00 0.  1.
    9000007    2    1    2  501    0  0.20554369711E+03 -0.12134253002E+03  0.95504852792E+03  0.10624592176E+04  0.39966195392E+03 0.  0.
    9000005    1    3    3    0    0  0.24859388811E+03  0.77241466240E+02  0.48709479236E+03  0.55229294949E+03  0.99999687468E+00 0.  0.
          4    1    3    3  501    0 -0.43050191004E+02 -0.19858399626E+03  0.46795373556E+03  0.51016626813E+03  0.00000000000E+00 0.  1.
   -9000007    1    1    2    0  502 -0.20554369711E+03  0.12134253002E+03  0.68852510630E+03  0.83128758142E+03  0.40000000000E+03 0.  1.
<mgrwt>
<rscale>  2 0.46573019E+03</rscale>
<asrwt>0</asrwt>
<pdfrwt beam="1">  1       21 0.27210155E+00 0.46580277E+03</pdfrwt>
<pdfrwt beam="2">  1       21 0.19244091E-01 0.46580277E+03</pdfrwt>
<totfact> 0.99143919E+02</totfact>
</mgrwt>
</event>
<event>
 6    1  0.9190795E-004  0.4223288E+03  0.7818608E-02  0.1036343E+00
         21   -1    0    0  503  502  0.00000000000E+00  0.00000000000E+00  0.10317208364E+03  0.10317208364E+03  0.00000000000E+00 0.  1.
         21   -1    0    0  501  503 -0.00000000000E+00 -0.00000000000E+00 -0.17461209388E+04  0.17461209388E+04  0.00000000000E+00 0. -1.
    9000007    2    1    2  501    0  0.13260626832E+03 -0.27878591639E+02 -0.72474162106E+03  0.83861693040E+03  0.39958265778E+03 0.  0.
    9000005    1    3    3    0    0 -0.10761798666E+01 -0.10409805059E+03 -0.66570525155E+03  0.67379673807E+03  0.99999687468E+00 0.  0.
          4    1    3    3  501    0  0.13368244819E+03  0.76219458946E+02 -0.59036369507E+02  0.16482019233E+03  0.00000000000E+00 0.  1.
   -9000007    1    1    2    0  502 -0.13260626832E+03  0.27878591639E+02 -0.91820723409E+03  0.10106760920E+04  0.40000000000E+03 0. -1.
<mgrwt>
<rscale>  2 0.42222998E+03</rscale>
<asrwt>0</asrwt>
<pdfrwt beam="1">  1       21 0.15872629E-01 0.42232883E+03</pdfrwt>
<pdfrwt beam="2">  1       21 0.26863398E+00 0.42232883E+03</pdfrwt>
<totfact> 0.15277573E+03</totfact>
</mgrwt>
</event>
<event>
 6    1  0.9190795E-004  0.4651754E+03  0.7818608E-02  0.1023339E+00
         21   -1    0    0  503  502  0.00000000000E+00  0.00000000000E+00  0.53616021957E+03  0.53616021957E+03  0.00000000000E+00 0. -1.
         21   -1    0    0  501  503 -0.00000000000E+00 -0.00000000000E+00 -0.41495751632E+03  0.41495751632E+03  0.00000000000E+00 0. -1.
    9000007    2    1    2  501    0 -0.23571100900E+03 -0.14151043582E+02 -0.20075095758E+02  0.46560836596E+03  0.40078449219E+03 0.  0.
    9000005    1    3    3    0    0 -0.26711707620E+03 -0.72863674630E+02 -0.15343499390E+03  0.31655006685E+03  0.99999687468E+00 0.  0.
          4    1    3    3  501    0  0.31406067198E+02  0.58712631048E+02  0.13335989814E+03  0.14905829911E+03  0.00000000000E+00 0.  1.
   -9000007    1    1    2    0  502  0.23571100900E+03  0.14151043582E+02  0.14127779901E+03  0.48550936993E+03  0.40000000000E+03 0. -1.
<mgrwt>
<rscale>  2 0.46500636E+03</rscale>
<asrwt>0</asrwt>
<pdfrwt beam="1">  1       21 0.82486187E-01 0.46517539E+03</pdfrwt>
<pdfrwt beam="2">  1       21 0.63839618E-01 0.46517539E+03</pdfrwt>
<totfact> 0.25095439E+03</totfact>
</mgrwt>
</event>
<event>
 6    1  0.9190795E-004  0.4392281E+03  0.7818608E-02  0.1031035E+00
         21   -1    0    0  503  502  0.00000000000E+00  0.00000000000E+00  0.14113824229E+03  0.14113824229E+03  0.00000000000E+00 0.  1.
         21   -1    0    0  501  503 -0.00000000000E+00 -0.00000000000E+00 -0.13963156578E+04  0.13963156578E+04  0.00000000000E+00 0. -1.
    9000007    2    1    2  501    0 -0.13971483067E+03  0.11576321731E+03 -0.74257985743E+03  0.86241492867E+03  0.39926596167E+03 0.  0.
    9000005    1    3    3    0    0 -0.18818234500E+03 -0.10033415621E+03 -0.30753516728E+03  0.37424379351E+03  0.99999687468E+00 0.  0.
          4    1    3    3  501    0  0.48467514325E+02  0.21609737352E+03 -0.43504469014E+03  0.48817113516E+03  0.00000000000E+00 0.  1.
   -9000007    1    1    2    0  502  0.13971483067E+03 -0.11576321731E+03 -0.51259755813E+03  0.67503897146E+03  0.40000000000E+03 0.  1.
<mgrwt>
<rscale>  2 0.43906095E+03</rscale>
<asrwt>0</asrwt>
<pdfrwt beam="1">  1       21 0.21713575E-01 0.43922814E+03</pdfrwt>
<pdfrwt beam="2">  1       21 0.21481780E+00 0.43922814E+03</pdfrwt>
<totfact> 0.18086254E+03</totfact>
</mgrwt>
</event>
<event>
 6    1  0.9190795E-004  0.4161670E+03  0.7818608E-02  0.1038360E+00
         21   -1    0    0  503  502  0.00000000000E+00  0.00000000000E+00  0.50977284723E+03  0.50977284723E+03  0.00000000000E+00 0.  1.
         21   -1    0    0  501  503 -0.00000000000E+00 -0.00000000000E+00 -0.11419445740E+04  0.11419445740E+04  0.00000000000E+00 0.  1.
    9000007    2    1    2  501    0 -0.71930356548E+02  0.89560034900E+02 -0.10083850043E+04  0.10907081467E+04  0.39951091133E+03 0.  0.
    9000005    1    3    3    0    0 -0.17781784156E+03 -0.84697924485E+02 -0.64040828679E+03  0.67001246031E+03  0.99999687468E+00 0.  0.
          4    1    3    3  501    0  0.10588748501E+03  0.17425795938E+03 -0.36797671751E+03  0.42069568636E+03  0.00000000000E+00 0.  1.
   -9000007    1    1    2    0  502  0.71930356548E+02 -0.89560034900E+02  0.37621327748E+03  0.56100927461E+03  0.40000000000E+03 0.  1.
<mgrwt>
<rscale>  2 0.41604944E+03</rscale>
<asrwt>0</asrwt>
<pdfrwt beam="1">  1       21 0.78426592E-01 0.41616700E+03</pdfrwt>
<pdfrwt beam="2">  1       21 0.17568378E+00 0.41616700E+03</pdfrwt>
<totfact> 0.23257420E+02</totfact>
</mgrwt>
</event>
<event>
 6    1  0.9190795E-004  0.5862640E+03  0.7818608E-02  0.9934462E-01
         21   -1    0    0  503  502  0.00000000000E+00  0.00000000000E+00  0.20480163392E+03  0.20480163392E+03  0.00000000000E+00 0.  1.
         21   -1    0    0  501  503 -0.00000000000E+00 -0.00000000000E+00 -0.16820002971E+04  0.16820002971E+04  0.00000000000E+00 0. -1.
    9000007    2    1    2  501    0 -0.25928738770E+03  0.34128502896E+03 -0.68952982170E+03  0.90490192376E+03  0.39961318320E+03 0.  0.
    9000005    1    3    3    0    0 -0.21796018743E+03  0.43325159459E+03 -0.56211914408E+03  0.74242340996E+03  0.99999687468E+00 0.  0.
          4    1    3    3  501    0 -0.41327200266E+02 -0.91966565624E+02 -0.12741067762E+03  0.16247851380E+03  0.00000000000E+00 0.  1.
   -9000007    1    1    2    0  502  0.25928738770E+03 -0.34128502896E+03 -0.78766884145E+03  0.98190000723E+03  0.40000000000E+03 0. -1.
<mgrwt>
<rscale>  2 0.58619798E+03</rscale>
<asrwt>0</asrwt>
<pdfrwt beam="1">  1       21 0.31507945E-01 0.58626395E+03</pdfrwt>
<pdfrwt beam="2">  1       21 0.25876927E+00 0.58626395E+03</pdfrwt>
<totfact> 0.43307500E+02</totfact>
</mgrwt>
</event>
<event>
 6    1  0.9190795E-004  0.4654693E+03  0.7818608E-02  0.1023217E+00
         21   -1    0    0  503  502  0.00000000000E+00  0.00000000000E+00  0.56874140248E+03  0.56874140248E+03  0.00000000000E+00 0.  1.
         21   -1    0    0  501  503 -0.00000000000E+00 -0.00000000000E+00 -0.38664667568E+03  0.38664667568E+03  0.00000000000E+00 0.  1.
    9000007    2    1    2  501    0 -0.31746989229E+02  0.23591050924E+03  0.32470869814E+02  0.46646176646E+03  0.39983819538E+03 0.  0.
    9000005    1    3    3    0    0  0.38514002752E+02 -0.30875311136E+02 -0.13498763648E+03  0.14373334770E+03  0.99999687468E+00 0.  0.
          4    1    3    3  501    0 -0.70260991981E+02  0.26678582037E+03  0.16745850629E+03  0.32272841876E+03  0.00000000000E+00 0.  1.
   -9000007    1    1    2    0  502  0.31746989229E+02 -0.23591050924E+03  0.14962385698E+03  0.48892631170E+03  0.40000000000E+03 0.  1.
<mgrwt>
<rscale>  2 0.46543450E+03</rscale>
<asrwt>0</asrwt>
<pdfrwt beam="1">  1       21 0.87498677E-01 0.46546927E+03</pdfrwt>
<pdfrwt beam="2">  1       21 0.59484104E-01 0.46546927E+03</pdfrwt>
<totfact> 0.25537709E+03</totfact>
</mgrwt>
</event>
<event>
 6    1  0.9190795E-004  0.4966864E+03  0.7818608E-02  0.1014707E+00
         21   -1    0    0  503  502  0.00000000000E+00  0.00000000000E+00  0.76040414617E+03  0.76040414617E+03  0.00000000000E+00 0. -1.
         21   -1    0    0  501  503 -0.00000000000E+00 -0.00000000000E+00 -0.59160184301E+03  0.59160184301E+03  0.00000000000E+00 0. -1.
    9000007    2    1    2  501    0  0.90197770516E+02  0.27868150047E+03 -0.37034521716E+03  0.61955867695E+03  0.40112137540E+03 0.  0.
    9000005    1    3    3    0    0 -0.28239538000E+02  0.15886749053E+03 -0.41500213205E+03  0.44526859383E+03  0.99999687468E+00 0.  0.
          4    1    3    3  501    0  0.11843730852E+03  0.11981400994E+03  0.44656914886E+02  0.17429008312E+03  0.00000000000E+00 0.  1.
   -9000007    1    1    2    0  502 -0.90197770516E+02 -0.27868150047E+03  0.53914752032E+03  0.73244731222E+03  0.40000000000E+03 0. -1.
<mgrwt>
<rscale>  2 0.49645995E+03</rscale>
<asrwt>0</asrwt>
<pdfrwt beam="1">  1       21 0.11698525E+00 0.49668639E+03</pdfrwt>
<pdfrwt beam="2">  1       21 0.91015668E-01 0.49668639E+03</pdfrwt>
<totfact> 0.47128146E+02</totfact>
</mgrwt>
</event>
<event>
 6    1  0.9190795E-004  0.4398449E+03  0.7818608E-02  0.1030811E+00
         21   -1    0    0  503  502  0.00000000000E+00  0.00000000000E+00  0.17238096326E+04  0.17238096326E+04  0.00000000000E+00 0.  1.
         21   -1    0    0  501  503 -0.00000000000E+00 -0.00000000000E+00 -0.31808535339E+03  0.31808535339E+03  0.00000000000E+00 0.  1.
    9000007    2    1    2  501    0 -0.17457762062E+03 -0.52894418426E+02 -0.11850652607E+03  0.45552973395E+03  0.40023540157E+03 0.  0.
    9000005    1    3    3    0    0  0.46944169263E+01  0.13193770481E+03 -0.14568592613E+03  0.19660870929E+03  0.99999687468E+00 0.  0.
          4    1    3    3  501    0 -0.17927203754E+03 -0.18483212323E+03  0.27179400064E+02  0.25892102466E+03  0.00000000000E+00 0.  1.
   -9000007    1    1    2    0  502  0.17457762062E+03  0.52894418426E+02  0.15242308053E+04  0.15863652521E+04  0.40000000000E+03 0.  1.
<mgrwt>
<rscale>  2 0.43979135E+03</rscale>
<asrwt>0</asrwt>
<pdfrwt beam="1">  1       21 0.26520148E+00 0.43984491E+03</pdfrwt>
<pdfrwt beam="2">  1       21 0.48936209E-01 0.43984491E+03</pdfrwt>
<totfact> 0.17164716E+02</totfact>
</mgrwt>
</event>
<event>
 6    1  0.9190795E-004  0.4343157E+03  0.7818608E-02  0.1033024E+00
         21   -1    0    0  503  502  0.00000000000E+00  0.00000000000E+00  0.12298726150E+03  0.12298726150E+03  0.00000000000E+00 0. -1.
         21   -1    0    0  501  503 -0.00000000000E+00 -0.00000000000E+00 -0.15204826735E+04  0.15204826735E+04  0.00000000000E+00 0. -1.
    9000007    2    1    2  501    0 -0.11198915560E+03  0.10199345074E+03 -0.77053068678E+03  0.88450419030E+03  0.40704531493E+03 0.  0.
    9000005    1    3    3    0    0  0.13601200354E+03  0.50746215847E+02 -0.12680056847E+03  0.19275328191E+03  0.99999687468E+00 0.  0.
          4    1    3    3  501    0 -0.24800115915E+03  0.51247234897E+02 -0.64373011831E+03  0.69175090838E+03  0.00000000000E+00 0.  1.
   -9000007    1    1    2    0  502  0.11198915560E+03 -0.10199345074E+03 -0.62696472522E+03  0.75896574471E+03  0.40000000000E+03 0.  1.
<mgrwt>
<rscale>  2 0.43265725E+03</rscale>
<asrwt>0</asrwt>
<pdfrwt beam="1">  1       21 0.18921118E-01 0.43431570E+03</pdfrwt>
<pdfrwt beam="2">  1       21 0.23392040E+00 0.43431570E+03</pdfrwt>
<totfact> 0.17826268E+03</totfact>
</mgrwt>
</event>
<event>
 6    1  0.9190795E-004  0.4786227E+03  0.7818608E-02  0.1019568E+00
         21   -1    0    0  503  502  0.00000000000E+00  0.00000000000E+00  0.34972044475E+03  0.34972044475E+03  0.00000000000E+00 0.  1.
         21   -1    0    0  501  503 -0.00000000000E+00 -0.00000000000E+00 -0.65942193435E+03  0.65942193435E+03  0.00000000000E+00 0. -1.
    9000007    2    1    2  501    0 -0.24840639341E+03 -0.85871522840E+02 -0.20060353185E+03  0.51824318465E+03  0.39906712058E+03 0.  0.
    9000005    1    3    3    0    0 -0.11964342927E+03  0.14934589053E+03 -0.14652689184E+02  0.19192302228E+03  0.99999687468E+00 0.  0.
          4    1    3    3  501    0 -0.12876296414E+03 -0.23521741337E+03 -0.18595084266E+03  0.32632016238E+03  0.00000000000E+00 0.  1.
   -9000007    1    1    2    0  502  0.24840639341E+03  0.85871522840E+02 -0.10909795775E+03  0.49089919444E+03  0.40000000000E+03 0. -1.
<mgrwt>
<rscale>  2 0.47842770E+03</rscale>
<asrwt>0</asrwt>
<pdfrwt beam="1">  1       21 0.53803146E-01 0.47862266E+03</pdfrwt>
<pdfrwt beam="2">  1       21 0.10144953E+00 0.47862266E+03</pdfrwt>
<totfact> 0.22173859E+03</totfact>
</mgrwt>
</event>
<event>
 6    1  0.9190795E-004  0.4394594E+03  0.7818608E-02  0.1030951E+00
         21   -1    0    0  503  502  0.00000000000E+00  0.00000000000E+00  0.96408159790E+03  0.96408159790E+03  0.00000000000E+00 0.  1.
         21   -1    0    0  501  503 -0.00000000000E+00 -0.00000000000E+00 -0.30583833689E+03  0.30583833689E+03  0.00000000000E+00 0.  1.
    9000007    2    1    2  501    0  0.15216990552E+03  0.99844334013E+02 -0.44361544749E+02  0.44119918311E+03  0.39945488024E+03 0.  0.
    9000005    1    3    3    0    0  0.38441727183E+02 -0.97907970673E+02  0.12034065806E+03  0.15983307256E+03  0.99999687468E+00 0.  0.
          4    1    3    3  501    0  0.11372817834E+03  0.19775230469E+03 -0.16470220281E+03  0.28136611055E+03  0.00000000000E+00 0.  1.
   -9000007    1    1    2    0  502 -0.15216990552E+03 -0.99844334013E+02  0.70260480576E+03  0.82872075168E+03  0.40000000000E+03 0.  1.
<mgrwt>
<rscale>  2 0.43933533E+03</rscale>
<asrwt>0</asrwt>
<pdfrwt beam="1">  1       21 0.14832024E+00 0.43945941E+03</pdfrwt>
<pdfrwt beam="2">  1       21 0.47052052E-01 0.43945941E+03</pdfrwt>
<totfact> 0.11322622E+03</totfact>
</mgrwt>
</event>
<event>
 6    1  0.9190795E-004  0.4708058E+03  0.7818608E-02  0.1021750E+00
         21   -1    0    0  503  502  0.00000000000E+00  0.00000000000E+00  0.20953146062E+04  0.20953146062E+04  0.00000000000E+00 0. -1.
         21   -1    0    0  501  503 -0.00000000000E+00 -0.00000000000E+00 -0.10686398310E+03  0.10686398310E+03  0.00000000000E+00 0. -1.
    9000007    2    1    2  501    0  0.13049502341E+03  0.20945535790E+03  0.87563127906E+03  0.99417718593E+03  0.40094593410E+03 0.  0.
    9000005    1    3    3    0    0  0.15061279460E+03  0.59361705365E+01  0.76002564089E+02  0.16881007600E+03  0.99999687468E+00 0.  0.
          4    1    3    3  501    0 -0.20117771194E+02  0.20351918736E+03  0.79962871497E+03  0.82536710993E+03  0.00000000000E+00 0.  1.
   -9000007    1    1    2    0  502 -0.13049502341E+03 -0.20945535790E+03  0.11128193441E+04  0.12080014034E+04  0.40000000000E+03 0. -1.
<mgrwt>
<rscale>  2 0.47060438E+03</rscale>
<asrwt>0</asrwt>
<pdfrwt beam="1">  1       21 0.32235606E+00 0.47080584E+03</pdfrwt>
<pdfrwt beam="2">  1       21 0.16440614E-01 0.47080584E+03</pdfrwt>
<totfact> 0.66177410E+02</totfact>
</mgrwt>
</event>
<event>
 6    1  0.9190795E-004  0.6190292E+03  0.7818608E-02  0.9866945E-01
         21   -1    0    0  503  502  0.00000000000E+00  0.00000000000E+00  0.18609594534E+04  0.18609594534E+04  0.00000000000E+00 0. -1.
         21   -1    0    0  501  503 -0.00000000000E+00 -0.00000000000E+00 -0.34428854560E+03  0.34428854560E+03  0.00000000000E+00 0.  1.
    9000007    2    1    2  501    0  0.24078513057E+03  0.40570755543E+03  0.59069722232E+02  0.62184112906E+03  0.40077557069E+03 0.  0.
    9000005    1    3    3    0    0  0.22831420557E+03  0.46666960868E+02  0.11226177649E+03  0.25866752435E+03  0.99999687468E+00 0.  0.
          4    1    3    3  501    0  0.12470925000E+02  0.35904059457E+03 -0.53192054261E+02  0.36317360470E+03  0.00000000000E+00 0.  1.
   -9000007    1    1    2    0  502 -0.24078513057E+03 -0.40570755543E+03  0.14576011856E+04  0.15834068700E+04  0.40000000000E+03 0. -1.
<mgrwt>
<rscale>  2 0.61890371E+03</rscale>
<asrwt>0</asrwt>
<pdfrwt beam="1">  1       21 0.28630145E+00 0.61902921E+03</pdfrwt>
<pdfrwt beam="2">  1       21 0.52967470E-01 0.61902921E+03</pdfrwt>
<totfact> 0.98262481E+01</totfact>
</mgrwt>
</event>
<event>
 6    1  0.9190795E-004  0.4343801E+03  0.7818608E-02  0.1032499E+00
         21   -1    0    0  503  502  0.00000000000E+00  0.00000000000E+00  0.67253091703E+03  0.67253091703E+03  0.00000000000E+00 0.  1.
         21   -1    0    0  501  503 -0.00000000000E+00 -0.00000000000E+00 -0.36429434536E+03  0.36429434536E+03  0.00000000000E+00 0.  1.
    9000007    2    1    2  501    0 -0.66072118068E+02  0.15545026860E+03 -0.94570020004E+02  0.44455550873E+03  0.40019470369E+03 0.  0.
    9000005    1    3    3    0    0  0.12576877159E+03  0.10107936740E+02  0.78054050688E+02  0.14836909757E+03  0.99999687468E+00 0.  0.
          4    1    3    3  501    0 -0.19184088965E+03  0.14534233186E+03 -0.17262407069E+03  0.29618641116E+03  0.00000000000E+00 0.  1.
   -9000007    1    1    2    0  502  0.66072118068E+02 -0.15545026860E+03  0.40280659167E+03  0.59226975365E+03  0.40000000000E+03 0.  1.
<mgrwt>
<rscale>  2 0.43433530E+03</rscale>
<asrwt>0</asrwt>
<pdfrwt beam="1">  1       21 0.10346629E+00 0.43438015E+03</pdfrwt>
<pdfrwt beam="2">  1       21 0.56045284E-01 0.43438015E+03</pdfrwt>
<totfact> 0.19667818E+03</totfact>
</mgrwt>
</event>
<event>
 6    1  0.9190795E-004  0.7352003E+03  0.7818608E-02  0.9658924E-01
         21   -1    0    0  503  502  0.00000000000E+00  0.00000000000E+00  0.46297891630E+03  0.46297891630E+03  0.00000000000E+00 0. -1.
         21   -1    0    0  501  503 -0.00000000000E+00 -0.00000000000E+00 -0.13291953936E+04  0.13291953936E+04  0.00000000000E+00 0. -1.
    9000007    2    1    2  501    0  0.25121193022E+03 -0.56318364163E+03 -0.74595314263E+03  0.10473612342E+04  0.40029516083E+03 0.  0.
    9000005    1    3    3    0    0  0.68036643472E+02 -0.53752128323E+03 -0.62105181559E+03  0.82417502535E+03  0.99999687468E+00 0.  0.
          4    1    3    3  501    0  0.18317528674E+03 -0.25662358398E+02 -0.12490132704E+03  0.22318620882E+03  0.00000000000E+00 0.  1.
   -9000007    1    1    2    0  502 -0.25121193022E+03  0.56318364163E+03 -0.12026333465E+03  0.74481307571E+03  0.40000000000E+03 0. -1.
<mgrwt>
<rscale>  2 0.73516012E+03</rscale>
<asrwt>0</asrwt>
<pdfrwt beam="1">  1       21 0.71227527E-01 0.73520029E+03</pdfrwt>
<pdfrwt beam="2">  1       21 0.20449160E+00 0.73520029E+03</pdfrwt>
<totfact> 0.16040871E+02</totfact>
</mgrwt>
</event>
<event>
 6    1  0.9190795E-004  0.4466479E+03  0.7818608E-02  0.1028746E+00
         21   -1    0    0  503  502  0.00000000000E+00  0.00000000000E+00  0.15772074737E+04  0.15772074737E+04  0.00000000000E+00 0.  1.
         21   -1    0    0  501  503 -0.00000000000E+00 -0.00000000000E+00 -0.22348755355E+03  0.22348755355E+03  0.00000000000E+00 0. -1.
    9000007    2    1    2  501    0  0.67147216391E+02 -0.18704435633E+03  0.83368423368E+02  0.45411147423E+03  0.39971564532E+03 0.  0.
    9000005    1    3    3    0    0 -0.57244031038E+02  0.64311640140E+02 -0.89876098914E+02  0.12446517303E+03  0.99999687468E+00 0.  0.
          4    1    3    3  501    0  0.12439124743E+03 -0.25135599647E+03  0.17324452228E+03  0.32964630121E+03  0.00000000000E+00 0.  1.
   -9000007    1    1    2    0  502 -0.67147216391E+02  0.18704435633E+03  0.12703514968E+04  0.13465835530E+04  0.40000000000E+03 0.  1.
<mgrwt>
<rscale>  2 0.44658422E+03</rscale>
<asrwt>0</asrwt>
<pdfrwt beam="1">  1       21 0.24264730E+00 0.44664789E+03</pdfrwt>
<pdfrwt beam="2">  1       21 0.34382702E-01 0.44664789E+03</pdfrwt>
<totfact> 0.48737956E+02</totfact>
</mgrwt>
</event>
<event>
 6    1  0.9190795E-004  0.4698860E+03  0.7818608E-02  0.1021985E+00
         21   -1    0    0  503  502  0.00000000000E+00  0.00000000000E+00  0.57984156653E+03  0.57984156653E+03  0.00000000000E+00 0. -1.
         21   -1    0    0  501  503 -0.00000000000E+00 -0.00000000000E+00 -0.53181844238E+03  0.53181844238E+03  0.00000000000E+00 0. -1.
    9000007    2    1    2  501    0 -0.19211310435E+03  0.15315293573E+03 -0.27255479446E+03  0.54321171004E+03  0.40053661425E+03 0.  0.
    9000005    1    3    3    0    0 -0.11264204394E+03  0.14494001907E+03 -0.37249005385E+03  0.41526579368E+03  0.99999687468E+00 0.  0.
          4    1    3    3  501    0 -0.79471060409E+02  0.82129166587E+01  0.99935259389E+02  0.12794591635E+03  0.00000000000E+00 0.  1.
   -9000007    1    1    2    0  502  0.19211310435E+03 -0.15315293573E+03  0.32057791862E+03  0.56844829887E+03  0.40000000000E+03 0. -1.
<mgrwt>
<rscale>  2 0.46977162E+03</rscale>
<asrwt>0</asrwt>
<pdfrwt beam="1">  1       21 0.89206396E-01 0.46988599E+03</pdfrwt>
<pdfrwt beam="2">  1       21 0.81818221E-01 0.46988599E+03</pdfrwt>
<totfact> 0.11873968E+03</totfact>
</mgrwt>
</event>
<event>
 6    1  0.9190795E-004  0.5052394E+03  0.7818608E-02  0.1012774E+00
         21   -1    0    0  503  502  0.00000000000E+00  0.00000000000E+00  0.15549126678E+03  0.15549126678E+03  0.00000000000E+00 0. -1.
         21   -1    0    0  501  503 -0.00000000000E+00 -0.00000000000E+00 -0.19402110642E+04  0.19402110642E+04  0.00000000000E+00 0.  1.
    9000007    2    1    2  501    0  0.29801636263E+03 -0.31116681400E+02 -0.13194369096E+04  0.14128625504E+04  0.40679826403E+03 0.  0.
    9000005    1    3    3    0    0  0.20085191778E+03  0.17911701293E+03 -0.61426369444E+03  0.67063051190E+03  0.99999687468E+00 0.  0.
          4    1    3    3  501    0  0.97164444854E+02 -0.21023369433E+03 -0.70517321515E+03  0.74223203847E+03  0.00000000000E+00 0.  1.
   -9000007    1    1    2    0  502 -0.29801636263E+03  0.31116681400E+02 -0.46528288782E+03  0.68283978059E+03  0.40000000000E+03 0. -1.
<mgrwt>
<rscale>  2 0.50386946E+03</rscale>
<asrwt>0</asrwt>
<pdfrwt beam="1">  1       21 0.23921734E-01 0.50523938E+03</pdfrwt>
<pdfrwt beam="2">  1       21 0.29849400E+00 0.50523938E+03</pdfrwt>
<totfact> 0.44331893E+02</totfact>
</mgrwt>
</event>
<event>
 6    1  0.9190795E-004  0.4609690E+03  0.7818608E-02  0.1024625E+00
         21   -1    0    0  503  502  0.00000000000E+00  0.00000000000E+00  0.13172584368E+04  0.13172584368E+04  0.00000000000E+00 0.  1.
         21   -1    0    0  501  503 -0.00000000000E+00 -0.00000000000E+00 -0.16234375527E+03  0.16234375527E+03  0.00000000000E+00 0.  1.
    9000007    2    1    2  501    0 -0.13066418543E+03 -0.18820021350E+03  0.65055164930E+03  0.79632002636E+03  0.39801468095E+03 0.  0.
    9000005    1    3    3    0    0 -0.25844890101E+02 -0.87280438750E+02 -0.33472637664E+02  0.96990983079E+02  0.99999687468E+00 0.  0.
          4    1    3    3  501    0 -0.10481929533E+03 -0.10091977475E+03  0.68402428697E+03  0.69932904328E+03  0.00000000000E+00 0.  1.
   -9000007    1    1    2    0  502  0.13066418543E+03  0.18820021350E+03  0.50436303225E+03  0.68328216574E+03  0.40000000000E+03 0.  1.
<mgrwt>
<rscale>  2 0.46053801E+03</rscale>
<asrwt>0</asrwt>
<pdfrwt beam="1">  1       21 0.20265514E+00 0.46096903E+03</pdfrwt>
<pdfrwt beam="2">  1       21 0.24975963E-01 0.46096903E+03</pdfrwt>
<totfact> 0.16415981E+03</totfact>
</mgrwt>
</event>
<event>
 6    1  0.9190795E-004  0.4300335E+03  0.7818608E-02  0.1033873E+00
         21   -1    0    0  503  502  0.00000000000E+00  0.00000000000E+00  0.96353312464E+02  0.96353312464E+02  0.00000000000E+00 0.  1.
         21   -1    0    0  501  503 -0.00000000000E+00 -0.00000000000E+00 -0.22160227594E+04  0.22160227594E+04  0.00000000000E+00 0.  1.
    9000007    2    1    2  501    0  0.67369622779E+02 -0.14279419556E+03 -0.14835467041E+04  0.15445342963E+04  0.39968302549E+03 0.  0.
    9000005    1    3    3    0    0  0.77781401275E+02 -0.13300204498E+03 -0.16442612237E+03  0.22533628217E+03  0.99999687468E+00 0.  0.
          4    1    3    3  501    0 -0.10411778496E+02 -0.97921505815E+01 -0.13191205817E+04  0.13191980141E+04  0.00000000000E+00 0.  1.
   -9000007    1    1    2    0  502 -0.67369622779E+02  0.14279419556E+03 -0.63612274293E+03  0.76784177565E+03  0.40000000000E+03 0.  1.
<mgrwt>
<rscale>  2 0.42995982E+03</rscale>
<asrwt>0</asrwt>
<pdfrwt beam="1">  1       21 0.14823587E-01 0.43003354E+03</pdfrwt>
<pdfrwt beam="2">  1       21 0.34092657E+00 0.43003354E+03</pdfrwt>
<totfact> 0.63388004E+02</totfact>
</mgrwt>
</event>
<event>
 6    1  0.9190795E-004  0.4284686E+03  0.7818608E-02  0.1034410E+00
         21   -1    0    0  503  502  0.00000000000E+00  0.00000000000E+00  0.18795269942E+04  0.18795269942E+04  0.00000000000E+00 0.  1.
         21   -1    0    0  501  503 -0.00000000000E+00 -0.00000000000E+00 -0.10958106170E+03  0.10958106170E+03  0.00000000000E+00 0.  1.
    9000007    2    1    2  501    0 -0.28323535593E+02 -0.14860537050E+03  0.55536254304E+03  0.70143628531E+03  0.40087345799E+03 0.  0.
    9000005    1    3    3    0    0 -0.28750295032E+02 -0.28780311479E+03  0.37084177132E+03  0.47029972538E+03  0.99999687468E+00 0.  0.
          4    1    3    3  501    0  0.42675943929E+00  0.13919774428E+03  0.18452077172E+03  0.23113655992E+03  0.00000000000E+00 0.  1.
   -9000007    1    1    2    0  502  0.28323535593E+02  0.14860537050E+03  0.12145833894E+04  0.12876717706E+04  0.40000000000E+03 0. -1.
<mgrwt>
<rscale>  2 0.42826414E+03</rscale>
<asrwt>0</asrwt>
<pdfrwt beam="1">  1       21 0.28915798E+00 0.42846856E+03</pdfrwt>
<pdfrwt beam="2">  1       21 0.16858626E-01 0.42846856E+03</pdfrwt>
<totfact> 0.10239793E+03</totfact>
</mgrwt>
</event>
<event>
 6    1  0.9190795E-004  0.6240643E+03  0.7818608E-02  0.9856744E-01
         21   -1    0    0  503  502  0.00000000000E+00  0.00000000000E+00  0.25415856035E+03  0.25415856035E+03  0.00000000000E+00 0. -1.
         21   -1    0    0  501  503 -0.00000000000E+00 -0.00000000000E+00 -0.18356681323E+04  0.18356681323E+04  0.00000000000E+00 0.  1.
    9000007    2    1    2  501    0  0.45709191497E+03  0.14287863160E+03 -0.12157099764E+04  0.13665309950E+04  0.40013609119E+03 0.  0.
    9000005    1    3    3    0    0  0.42652815011E+03  0.21212779675E+03 -0.11973645377E+04  0.12886455296E+04  0.99999687468E+00 0.  0.
          4    1    3    3  501    0  0.30563764861E+02 -0.69249165148E+02 -0.18345438766E+02  0.77885465394E+02  0.00000000000E+00 0.  1.
   -9000007    1    1    2    0  502 -0.45709191497E+03 -0.14287863160E+03 -0.36579959548E+03  0.72329569759E+03  0.40000000000E+03 0. -1.
<mgrwt>
<rscale>  2 0.62404246E+03</rscale>
<asrwt>0</asrwt>
<pdfrwt beam="1">  1       21 0.39101317E-01 0.62406427E+03</pdfrwt>
<pdfrwt beam="2">  1       21 0.28241048E+00 0.62406427E+03</pdfrwt>
<totfact> 0.19669291E+02</totfact>
</mgrwt>
</event>
<event>
 6    1  0.9190795E-004  0.4806676E+03  0.7818608E-02  0.1019008E+00
         21   -1    0    0  503  502  0.00000000000E+00  0.00000000000E+00  0.46976326250E+03  0.46976326250E+03  0.00000000000E+00 0.  1.
         21   -1    0    0  501  503 -0.00000000000E+00 -0.00000000000E+00 -0.49336293460E+03  0.49336293460E+03  0.00000000000E+00 0.  1.
    9000007    2    1    2  501    0 -0.26213833235E+03  0.39295002788E+02  0.21561618064E+02  0.48115094394E+03  0.40097471859E+03 0.  0.
    9000005    1    3    3    0    0 -0.11650439313E+03  0.16960892317E+03 -0.12149438598E+03  0.23896097224E+03  0.99999687468E+00 0.  0.
          4    1    3    3  501    0 -0.14563393922E+03 -0.13031392038E+03  0.14305600404E+03  0.24218997170E+03  0.00000000000E+00 0.  1.
   -9000007    1    1    2    0  502  0.26213833235E+03 -0.39295002788E+02 -0.45161290159E+02  0.48197525316E+03  0.40000000000E+03 0.  1.
<mgrwt>
<rscale>  2 0.48046425E+03</rscale>
<asrwt>0</asrwt>
<pdfrwt beam="1">  1       21 0.72271271E-01 0.48066759E+03</pdfrwt>
<pdfrwt beam="2">  1       21 0.75901990E-01 0.48066759E+03</pdfrwt>
<totfact> 0.22899069E+03</totfact>
</mgrwt>
</event>
<event>
 6    1  0.9190795E-004  0.6637010E+03  0.7818608E-02  0.9781438E-01
         21   -1    0    0  503  502  0.00000000000E+00  0.00000000000E+00  0.36517642320E+03  0.36517642320E+03  0.00000000000E+00 0. -1.
         21   -1    0    0  501  503 -0.00000000000E+00 -0.00000000000E+00 -0.14270987018E+04  0.14270987018E+04  0.00000000000E+00 0.  1.
    9000007    2    1    2  501    0  0.49663003810E+03  0.18373758812E+03 -0.17836058680E+03  0.68724926140E+03  0.40012267161E+03 0.  0.
    9000005    1    3    3    0    0 -0.34969170855E+02  0.55871327512E+02  0.61532794571E+02  0.90176121837E+02  0.99999687468E+00 0.  0.
          4    1    3    3  501    0  0.53159920895E+03  0.12786626061E+03 -0.23989338137E+03  0.59707313956E+03  0.00000000000E+00 0.  1.
   -9000007    1    1    2    0  502 -0.49663003810E+03 -0.18373758812E+03 -0.88356169181E+03  0.11050258636E+04  0.40000000000E+03 0. -1.
<mgrwt>
<rscale>  2 0.66368254E+03</rscale>
<asrwt>0</asrwt>
<pdfrwt beam="1">  1       21 0.56180989E-01 0.66370102E+03</pdfrwt>
<pdfrwt beam="2">  1       21 0.21955364E+00 0.66370102E+03</pdfrwt>
<totfact> 0.22198343E+02</totfact>
</mgrwt>
</event>
<event>
 6    1  0.9190795E-004  0.4555081E+03  0.7818608E-02  0.1026207E+00
         21   -1    0    0  503  502  0.00000000000E+00  0.00000000000E+00  0.53088748573E+03  0.53088748573E+03  0.00000000000E+00 0.  1.
         21   -1    0    0  501  503 -0.00000000000E+00 -0.00000000000E+00 -0.18204967276E+04  0.18204967276E+04  0.00000000000E+00 0. -1.
    9000007    2    1    2  501    0  0.18672165570E+03 -0.10585398226E+03 -0.16874029817E+04  0.17478033143E+04  0.40176804309E+03 0.  0.
    9000005    1    3    3    0    0  0.24409604207E+03  0.62267228817E+02 -0.68656459050E+03  0.73132210582E+03  0.99999687468E+00 0.  0.
          4    1    3    3  501    0 -0.57374386376E+02 -0.16812121107E+03 -0.10008383912E+04  0.10164812084E+04  0.00000000000E+00 0.  1.
   -9000007    1    1    2    0  502 -0.18672165570E+03  0.10585398226E+03  0.39779373983E+03  0.60358089906E+03  0.40000000000E+03 0.  1.
<mgrwt>
<rscale>  2 0.45511790E+03</rscale>
<asrwt>0</asrwt>
<pdfrwt beam="1">  1       21 0.81674997E-01 0.45550807E+03</pdfrwt>
<pdfrwt beam="2">  1       21 0.28007642E+00 0.45550807E+03</pdfrwt>
<totfact> 0.44455262E+01</totfact>
</mgrwt>
</event>
<event>
 6    1  0.9190795E-004  0.6137663E+03  0.7818608E-02  0.9877914E-01
         21   -1    0    0  503  502  0.00000000000E+00  0.00000000000E+00  0.40503206831E+03  0.40503206831E+03  0.00000000000E+00 0.  1.
         21   -1    0    0  501  503 -0.00000000000E+00 -0.00000000000E+00 -0.94001585250E+03  0.94001585250E+03  0.00000000000E+00 0.  1.
    9000007    2    1    2  501    0 -0.42325414940E+03 -0.19381701250E+03 -0.34299056145E+03  0.70195344338E+03  0.39797864530E+03 0.  0.
    9000005    1    3    3    0    0 -0.24641299055E+02  0.36666273900E+02  0.70426427126E+02  0.83141390969E+02  0.99999687468E+00 0.  0.
          4    1    3    3  501    0 -0.39861285035E+03 -0.23048328640E+03 -0.41341698857E+03  0.61881205241E+03  0.00000000000E+00 0.  1.
   -9000007    1    1    2    0  502  0.42325414940E+03  0.19381701250E+03 -0.19199322274E+03  0.64309447743E+03  0.40000000000E+03 0.  1.
<mgrwt>
<rscale>  2 0.61343721E+03</rscale>
<asrwt>0</asrwt>
<pdfrwt beam="1">  1       21 0.62312626E-01 0.61376633E+03</pdfrwt>
<pdfrwt beam="2">  1       21 0.14461782E+00 0.61376633E+03</pdfrwt>
<totfact> 0.61916632E+02</totfact>
</mgrwt>
</event>
<event>
 6    1  0.9190795E-004  0.5160846E+03  0.7818608E-02  0.1009668E+00
         21   -1    0    0  503  502  0.00000000000E+00  0.00000000000E+00  0.38425801721E+03  0.38425801721E+03  0.00000000000E+00 0. -1.
         21   -1    0    0  501  503 -0.00000000000E+00 -0.00000000000E+00 -0.12175867764E+04  0.12175867764E+04  0.00000000000E+00 0.  1.
    9000007    2    1    2  501    0 -0.11042976013E+03 -0.30683638576E+03 -0.94233619497E+03  0.10743735426E+04  0.39992212384E+03 0.  0.
    9000005    1    3    3    0    0 -0.20054477134E+03 -0.62290759648E+02 -0.64828679361E+03  0.68145073983E+03  0.99999687468E+00 0.  0.
          4    1    3    3  501    0  0.90115011219E+02 -0.24454562611E+03 -0.29404940136E+03  0.39292280277E+03  0.00000000000E+00 0.  1.
   -9000007    1    1    2    0  502  0.11042976013E+03  0.30683638576E+03  0.10900743582E+03  0.52747125098E+03  0.40000000000E+03 0. -1.
<mgrwt>
<rscale>  2 0.51606950E+03</rscale>
<asrwt>0</asrwt>
<pdfrwt beam="1">  1       21 0.59116618E-01 0.51608459E+03</pdfrwt>
<pdfrwt beam="2">  1       21 0.18732104E+00 0.51608459E+03</pdfrwt>
<totfact> 0.34580054E+02</totfact>
</mgrwt>
</event>
<event>
 6    1  0.9190795E-004  0.4431118E+03  0.7818608E-02  0.1029870E+00
         21   -1    0    0  503  502  0.00000000000E+00  0.00000000000E+00  0.19195835719E+03  0.19195835719E+03  0.00000000000E+00 0.  1.
         21   -1    0    0  501  503 -0.00000000000E+00 -0.00000000000E+00 -0.12493895757E+04  0.12493895757E+04  0.00000000000E+00 0.  1.
    9000007    2    1    2  501    0  0.61137973267E+02  0.18058310029E+03 -0.21986170364E+03  0.49378748620E+03  0.39892205368E+03 0.  0.
    9000005    1    3    3    0    0  0.19370817367E+03 -0.26623623493E+02 -0.11039379124E+03  0.22454278660E+03  0.99999687468E+00 0.  0.
          4    1    3    3  501    0 -0.13257020041E+03  0.20720672378E+03 -0.10946791240E+03  0.26924469960E+03  0.00000000000E+00 0.  1.
   -9000007    1    1    2    0  502 -0.61137973267E+02 -0.18058310029E+03 -0.83756951492E+03  0.94756044673E+03  0.40000000000E+03 0.  1.
<mgrwt>
<rscale>  2 0.44286844E+03</rscale>
<asrwt>0</asrwt>
<pdfrwt beam="1">  1       21 0.29532054E-01 0.44311185E+03</pdfrwt>
<pdfrwt beam="2">  1       21 0.19221378E+00 0.44311185E+03</pdfrwt>
<totfact> 0.13991182E+03</totfact>
</mgrwt>
</event>
<event>
 6    1  0.9190795E-004  0.4529149E+03  0.7818608E-02  0.1026902E+00
         21   -1    0    0  503  502  0.00000000000E+00  0.00000000000E+00  0.11728830597E+04  0.11728830597E+04  0.00000000000E+00 0. -1.
         21   -1    0    0  501  503 -0.00000000000E+00 -0.00000000000E+00 -0.23569310307E+03  0.23569310307E+03  0.00000000000E+00 0.  1.
    9000007    2    1    2  501    0 -0.20511791289E+03  0.49953829523E+02  0.11042681524E+03  0.46618238348E+03  0.40070336892E+03 0.  0.
    9000005    1    3    3    0    0 -0.76204382965E+01 -0.20401370865E+02  0.22581966438E+03  0.22686958330E+03  0.99999687468E+00 0.  0.
          4    1    3    3  501    0 -0.19749747460E+03  0.70355200387E+02 -0.11539284915E+03  0.23931280017E+03  0.00000000000E+00 0.  1.
   -9000007    1    1    2    0  502  0.20511791289E+03 -0.49953829523E+02  0.82676314143E+03  0.94239377932E+03  0.40000000000E+03 0.  1.
<mgrwt>
<rscale>  2 0.45275931E+03</rscale>
<asrwt>0</asrwt>
<pdfrwt beam="1">  1       21 0.18044354E+00 0.45291493E+03</pdfrwt>
<pdfrwt beam="2">  1       21 0.36260478E-01 0.45291493E+03</pdfrwt>
<totfact> 0.11127357E+03</totfact>
</mgrwt>
</event>
<event>
 6    1  0.9190795E-004  0.5179013E+03  0.7818608E-02  0.1009236E+00
         21   -1    0    0  503  502  0.00000000000E+00  0.00000000000E+00  0.17786141776E+03  0.17786141776E+03  0.00000000000E+00 0.  1.
         21   -1    0    0  501  503 -0.00000000000E+00 -0.00000000000E+00 -0.20755710797E+04  0.20755710797E+04  0.00000000000E+00 0.  1.
    9000007    2    1    2  501    0  0.32740431473E+03 -0.24092345182E+02 -0.15389666436E+04  0.16237733996E+04  0.40055922970E+03 0.  0.
    9000005    1    3    3    0    0 -0.84983204922E+02 -0.40585454129E+02 -0.17501867331E+03  0.19875074894E+03  0.99999687468E+00 0.  0.
          4    1    3    3  501    0  0.41238751966E+03  0.16493108947E+02 -0.13639479703E+04  0.14250226506E+04  0.00000000000E+00 0.  1.
   -9000007    1    1    2    0  502 -0.32740431473E+03  0.24092345182E+02 -0.35874301834E+03  0.62965909793E+03  0.40000000000E+03 0.  1.
<mgrwt>
<rscale>  2 0.51779313E+03</rscale>
<asrwt>0</asrwt>
<pdfrwt beam="1">  1       21 0.27363296E-01 0.51790127E+03</pdfrwt>
<pdfrwt beam="2">  1       21 0.31931862E+00 0.51790127E+03</pdfrwt>
<totfact> 0.25332042E+02</totfact>
</mgrwt>
</event>
<event>
 6    1  0.9190795E-004  0.4740606E+03  0.7818608E-02  0.1020797E+00
         21   -1    0    0  503  502  0.00000000000E+00  0.00000000000E+00  0.37447374484E+03  0.37447374484E+03  0.00000000000E+00 0.  1.
         21   -1    0    0  501  503 -0.00000000000E+00 -0.00000000000E+00 -0.60195796213E+03  0.60195796213E+03  0.00000000000E+00 0.  1.
    9000007    2    1    2  501    0  0.19545551265E+03  0.16288206667E+03 -0.84673633402E+02  0.48132738671E+03  0.39971615421E+03 0.  0.
    9000005    1    3    3    0    0  0.53072108805E+02  0.27008743076E+03  0.17638505393E+02  0.27581875544E+03  0.99999687468E+00 0.  0.
          4    1    3    3  501    0  0.14238340385E+03 -0.10720536409E+03 -0.10231213879E+03  0.20550863127E+03  0.00000000000E+00 0.  1.
   -9000007    1    1    2    0  502 -0.19545551265E+03 -0.16288206667E+03 -0.14281058388E+03  0.49510432026E+03  0.40000000000E+03 0.  1.
<mgrwt>
<rscale>  2 0.47400069E+03</rscale>
<asrwt>0</asrwt>
<pdfrwt beam="1">  1       21 0.57611346E-01 0.47406057E+03</pdfrwt>
<pdfrwt beam="2">  1       21 0.92608916E-01 0.47406057E+03</pdfrwt>
<totfact> 0.23865656E+03</totfact>
</mgrwt>
</event>
<event>
 6    1  0.9190795E-004  0.4297760E+03  0.7818608E-02  0.1033982E+00
         21   -1    0    0  503  502  0.00000000000E+00  0.00000000000E+00  0.10139224818E+03  0.10139224818E+03  0.00000000000E+00 0. -1.
         21   -1    0    0  501  503 -0.00000000000E+00 -0.00000000000E+00 -0.18484977345E+04  0.18484977345E+04  0.00000000000E+00 0. -1.
    9000007    2    1    2  501    0  0.38351581424E+02 -0.15243547512E+03 -0.74970707468E+03  0.86383703304E+03  0.39930728010E+03 0.  0.
    9000005    1    3    3    0    0  0.99514843111E+02 -0.75636910691E+02 -0.75522889830E+03  0.76550364799E+03  0.99999687468E+00 0.  0.
          4    1    3    3  501    0 -0.61163261687E+02 -0.76798564434E+02  0.55218236173E+01  0.98333385050E+02  0.00000000000E+00 0.  1.
   -9000007    1    1    2    0  502 -0.38351581424E+02  0.15243547512E+03 -0.99739841163E+03  0.10860529496E+04  0.40000000000E+03 0.  1.
<mgrwt>
<rscale>  2 0.42961476E+03</rscale>
<asrwt>0</asrwt>
<pdfrwt beam="1">  1       21 0.15598808E-01 0.42977601E+03</pdfrwt>
<pdfrwt beam="2">  1       21 0.28438426E+00 0.42977601E+03</pdfrwt>
<totfact> 0.12635029E+03</totfact>
</mgrwt>
</event>
<event>
 6    1  0.9190795E-004  0.7025856E+03  0.7818608E-02  0.9712921E-01
         21   -1    0    0  503  502  0.00000000000E+00  0.00000000000E+00  0.22065778575E+03  0.22065778575E+03  0.00000000000E+00 0.  1.
         21   -1    0    0  501  503 -0.00000000000E+00 -0.00000000000E+00 -0.23783094301E+04  0.23783094301E+04  0.00000000000E+00 0. -1.
    9000007    2    1    2  501    0  0.57728278700E+03  0.19264856044E+02 -0.13961711798E+04  0.15628788756E+04  0.39958711915E+03 0.  0.
    9000005    1    3    3    0    0  0.45131250200E+03 -0.72156420418E+02 -0.61434063527E+03  0.76570551755E+03  0.99999687468E+00 0.  0.
          4    1    3    3  501    0  0.12597028499E+03  0.91421276463E+02 -0.78183054452E+03  0.79717335808E+03  0.00000000000E+00 0.  1.
   -9000007    1    1    2    0  502 -0.57728278700E+03 -0.19264856044E+02 -0.76148046457E+03  0.10360883402E+04  0.40000000000E+03 0.  1.
<mgrwt>
<rscale>  2 0.70252687E+03</rscale>
<asrwt>0</asrwt>
<pdfrwt beam="1">  1       21 0.33947351E-01 0.70258562E+03</pdfrwt>
<pdfrwt beam="2">  1       21 0.36589377E+00 0.70258562E+03</pdfrwt>
<totfact> 0.77683993E+01</totfact>
</mgrwt>
</event>
<event>
 6    1  0.9190795E-004  0.5904787E+03  0.7818608E-02  0.9925599E-01
         21   -1    0    0  503  502  0.00000000000E+00  0.00000000000E+00  0.60436860666E+03  0.60436860666E+03  0.00000000000E+00 0. -1.
         21   -1    0    0  501  503 -0.00000000000E+00 -0.00000000000E+00 -0.67013603921E+03  0.67013603921E+03  0.00000000000E+00 0.  1.
    9000007    2    1    2  501    0  0.40603283947E+03 -0.15428029967E+03 -0.27112345631E+03  0.64933572943E+03  0.39932929188E+03 0.  0.
    9000005    1    3    3    0    0 -0.21802932947E+02  0.87540252052E+02 -0.84605702550E+02  0.12368422904E+03  0.99999687468E+00 0.  0.
          4    1    3    3  501    0  0.42783577242E+03 -0.24182055172E+03 -0.18651775376E+03  0.52565150039E+03  0.00000000000E+00 0.  1.
   -9000007    1    1    2    0  502 -0.40603283947E+03  0.15428029967E+03  0.20535602376E+03  0.62516891645E+03  0.40000000000E+03 0. -1.
<mgrwt>
<rscale>  2 0.59036512E+03</rscale>
<asrwt>0</asrwt>
<pdfrwt beam="1">  1       21 0.92979786E-01 0.59047869E+03</pdfrwt>
<pdfrwt beam="2">  1       21 0.10309785E+00 0.59047869E+03</pdfrwt>
<totfact> 0.59295844E+02</totfact>
</mgrwt>
</event>
<event>
 6    1  0.9190795E-004  0.4084395E+03  0.7818608E-02  0.1040951E+00
         21   -1    0    0  503  502  0.00000000000E+00  0.00000000000E+00  0.21971633635E+04  0.21971633635E+04  0.00000000000E+00 0. -1.
         21   -1    0    0  501  503 -0.00000000000E+00 -0.00000000000E+00 -0.16125600981E+03  0.16125600981E+03  0.00000000000E+00 0.  1.
    9000007    2    1    2  501    0 -0.78427852147E+01  0.78896618869E+02  0.15993177020E+03  0.43863538139E+03  0.40067023965E+03 0.  0.
    9000005    1    3    3    0    0 -0.10615727458E+03 -0.62118813855E+02  0.22369914545E+03  0.25528498125E+03  0.99999687468E+00 0.  0.
          4    1    3    3  501    0  0.98314489368E+02  0.14101543272E+03 -0.63767375253E+02  0.18335040014E+03  0.00000000000E+00 0.  1.
   -9000007    1    1    2    0  502  0.78427852147E+01 -0.78896618869E+02  0.18759755835E+04  0.19197839919E+04  0.40000000000E+03 0. -1.
<mgrwt>
<rscale>  2 0.40827504E+03</rscale>
<asrwt>0</asrwt>
<pdfrwt beam="1">  1       21 0.33802511E+00 0.40843950E+03</pdfrwt>
<pdfrwt beam="2">  1       21 0.24808618E-01 0.40843950E+03</pdfrwt>
<totfact> 0.25243091E+02</totfact>
</mgrwt>
</event>
<event>
 6    1  0.9190795E-004  0.5076968E+03  0.7818608E-02  0.1012281E+00
         21   -1    0    0  503  502  0.00000000000E+00  0.00000000000E+00  0.18798328439E+03  0.18798328439E+03  0.00000000000E+00 0. -1.
         21   -1    0    0  501  503 -0.00000000000E+00 -0.00000000000E+00 -0.14542890241E+04  0.14542890241E+04  0.00000000000E+00 0. -1.
    9000007    2    1    2  501    0 -0.19208218130E+03 -0.23059296965E+03 -0.41839387204E+03  0.65788253946E+03  0.40949642432E+03 0.  0.
    9000005    1    3    3    0    0 -0.29611947051E+03 -0.94168236483E+02 -0.36246992360E+03  0.47743045890E+03  0.99999687468E+00 0.  0.
          4    1    3    3  501    0  0.10403728922E+03 -0.13642473317E+03 -0.55923948446E+02  0.18045208056E+03  0.00000000000E+00 0.  1.
   -9000007    1    1    2    0  502  0.19208218130E+03  0.23059296965E+03 -0.84791186764E+03  0.98438976900E+03  0.40000000000E+03 0. -1.
<mgrwt>
<rscale>  2 0.50577890E+03</rscale>
<asrwt>0</asrwt>
<pdfrwt beam="1">  1       21 0.28920507E-01 0.50769676E+03</pdfrwt>
<pdfrwt beam="2">  1       21 0.22373676E+00 0.50769676E+03</pdfrwt>
<totfact> 0.87983148E+02</totfact>
</mgrwt>
</event>
<event>
 6    1  0.9190795E-004  0.4412861E+03  0.7818608E-02  0.1030448E+00
         21   -1    0    0  503  502  0.00000000000E+00  0.00000000000E+00  0.91580621599E+03  0.91580621599E+03  0.00000000000E+00 0.  1.
         21   -1    0    0  501  503 -0.00000000000E+00 -0.00000000000E+00 -0.28197570154E+03  0.28197570154E+03  0.00000000000E+00 0.  1.
    9000007    2    1    2  501    0 -0.14714445836E+02 -0.18282755472E+03  0.18992737149E+02  0.44169467252E+03  0.40136147048E+03 0.  0.
    9000005    1    3    3    0    0 -0.20061780873E+03 -0.10025984473E+03  0.64264065548E+02  0.23330326136E+03  0.99999687468E+00 0.  0.
          4    1    3    3  501    0  0.18590336290E+03 -0.82567709993E+02 -0.45271328399E+02  0.20839141116E+03  0.00000000000E+00 0.  1.
   -9000007    1    1    2    0  502  0.14714445836E+02  0.18282755472E+03  0.61483777730E+03  0.75608724502E+03  0.40000000000E+03 0.  1.
<mgrwt>
<rscale>  2 0.44097633E+03</rscale>
<asrwt>0</asrwt>
<pdfrwt beam="1">  1       21 0.14089326E+00 0.44128614E+03</pdfrwt>
<pdfrwt beam="2">  1       21 0.43380878E-01 0.44128614E+03</pdfrwt>
<totfact> 0.15396404E+03</totfact>
</mgrwt>
</event>
<event>
 6    1  0.9190795E-004  0.4270540E+03  0.7818608E-02  0.1034926E+00
         21   -1    0    0  503  502  0.00000000000E+00  0.00000000000E+00  0.72609507604E+03  0.72609507604E+03  0.00000000000E+00 0.  1.
         21   -1    0    0  501  503 -0.00000000000E+00 -0.00000000000E+00 -0.27717569219E+03  0.27717569219E+03  0.00000000000E+00 0. -1.
    9000007    2    1    2  501    0 -0.92030215867E+02  0.11183809988E+03  0.68382263606E+02  0.43249426109E+03  0.40174348866E+03 0.  0.
    9000005    1    3    3    0    0 -0.83924658224E+02  0.41588335649E+02 -0.16439751945E+03  0.18921015384E+03  0.99999687468E+00 0.  0.
          4    1    3    3  501    0 -0.81055576427E+01  0.70249764235E+02  0.23277978306E+03  0.24328410725E+03  0.00000000000E+00 0.  1.
   -9000007    1    1    2    0  502  0.92030215867E+02 -0.11183809988E+03  0.38053712025E+03  0.57077650714E+03  0.40000000000E+03 0.  1.
<mgrwt>
<rscale>  2 0.42664351E+03</rscale>
<asrwt>0</asrwt>
<pdfrwt beam="1">  1       21 0.11170693E+00 0.42705404E+03</pdfrwt>
<pdfrwt beam="2">  1       21 0.42642415E-01 0.42705404E+03</pdfrwt>
<totfact> 0.29128677E+03</totfact>
</mgrwt>
</event>
<event>
 6    1  0.9190795E-004  0.4509794E+03  0.7818608E-02  0.1027447E+00
         21   -1    0    0  503  502  0.00000000000E+00  0.00000000000E+00  0.88477236442E+03  0.88477236442E+03  0.00000000000E+00 0. -1.
         21   -1    0    0  501  503 -0.00000000000E+00 -0.00000000000E+00 -0.24131095819E+03  0.24131095819E+03  0.00000000000E+00 0.  1.
    9000007    2    1    2  501    0 -0.11989884178E+03  0.17031338265E+03  0.44486770321E+03  0.63331376242E+03  0.39974575388E+03 0.  0.
    9000005    1    3    3    0    0 -0.14668477734E+03 -0.73826311090E+02  0.31559849861E+03  0.35576700301E+03  0.99999687468E+00 0.  0.
          4    1    3    3  501    0  0.26785935561E+02  0.24413969374E+03  0.12926920460E+03  0.27754675942E+03  0.00000000000E+00 0.  1.
   -9000007    1    1    2    0  502  0.11989884178E+03 -0.17031338265E+03  0.19859370301E+03  0.49276956019E+03  0.40000000000E+03 0. -1.
<mgrwt>
<rscale>  2 0.45092297E+03</rscale>
<asrwt>0</asrwt>
<pdfrwt beam="1">  1       21 0.13611882E+00 0.45097936E+03</pdfrwt>
<pdfrwt beam="2">  1       21 0.37124763E-01 0.45097936E+03</pdfrwt>
<totfact> 0.23164236E+03</totfact>
</mgrwt>
</event>
<event>
 6    1  0.9190795E-004  0.4018714E+03  0.7818608E-02  0.1043174E+00
         21   -1    0    0  503  502  0.00000000000E+00  0.00000000000E+00  0.67426492200E+03  0.67426492200E+03  0.00000000000E+00 0. -1.
         21   -1    0    0  501  503 -0.00000000000E+00 -0.00000000000E+00 -0.24526989908E+03  0.24526989908E+03  0.00000000000E+00 0. -1.
    9000007    2    1    2  501    0  0.21669452867E+02  0.32110039643E+02  0.28645139662E+03  0.49313207105E+03  0.39952999517E+03 0.  0.
    9000005    1    3    3    0    0  0.20352100364E+03  0.51573491067E+02  0.20320232317E+03  0.29218625573E+03  0.99999687468E+00 0.  0.
          4    1    3    3  501    0 -0.18185155078E+03 -0.19463451424E+02  0.83249073453E+02  0.20094581531E+03  0.00000000000E+00 0.  1.
   -9000007    1    1    2    0  502 -0.21669452867E+02 -0.32110039643E+02  0.14254362630E+03  0.42640275003E+03  0.40000000000E+03 0. -1.
<mgrwt>
<rscale>  2 0.40175439E+03</rscale>
<asrwt>0</asrwt>
<pdfrwt beam="1">  1       21 0.10373306E+00 0.40187140E+03</pdfrwt>
<pdfrwt beam="2">  1       21 0.37733831E-01 0.40187140E+03</pdfrwt>
<totfact> 0.45404507E+03</totfact>
</mgrwt>
</event>
<event>
 6    1  0.9190795E-004  0.4819467E+03  0.7818608E-02  0.1018630E+00
         21   -1    0    0  503  502  0.00000000000E+00  0.00000000000E+00  0.14495914838E+03  0.14495914838E+03  0.00000000000E+00 0. -1.
         21   -1    0    0  501  503 -0.00000000000E+00 -0.00000000000E+00 -0.16791594508E+04  0.16791594508E+04  0.00000000000E+00 0.  1.
    9000007    2    1    2  501    0 -0.21475053588E+03 -0.16172466596E+03 -0.96364450165E+03  0.10772540987E+04  0.39949093531E+03 0.  0.
    9000005    1    3    3    0    0 -0.29474533252E+02 -0.20229324790E+03 -0.18456712926E+03  0.27542209688E+03  0.99999687468E+00 0.  0.
          4    1    3    3  501    0 -0.18527600262E+03  0.40568581935E+02 -0.77907737239E+03  0.80183200183E+03  0.00000000000E+00 0.  1.
   -9000007    1    1    2    0  502  0.21475053588E+03  0.16172466596E+03 -0.57055580073E+03  0.74686450042E+03  0.40000000000E+03 0.  1.
<mgrwt>
<rscale>  2 0.48184110E+03</rscale>
<asrwt>0</asrwt>
<pdfrwt beam="1">  1       21 0.22301407E-01 0.48194674E+03</pdfrwt>
<pdfrwt beam="2">  1       21 0.25833223E+00 0.48194674E+03</pdfrwt>
<totfact> 0.89984493E+02</totfact>
</mgrwt>
</event>
<event>
 6    1  0.9190795E-004  0.4050059E+03  0.7818608E-02  0.1042106E+00
         21   -1    0    0  503  502  0.00000000000E+00  0.00000000000E+00  0.12792797817E+03  0.12792797817E+03  0.00000000000E+00 0.  1.
         21   -1    0    0  501  503 -0.00000000000E+00 -0.00000000000E+00 -0.12867557350E+04  0.12867557350E+04  0.00000000000E+00 0.  1.
    9000007    2    1    2  501    0 -0.59310451830E+02  0.85455972545E+01 -0.62916892582E+03  0.74825349610E+03  0.40054837447E+03 0.  0.
    9000005    1    3    3    0    0 -0.87548403484E+02 -0.43728953593E+02  0.17022564053E+02  0.99336357975E+02  0.99999687468E+00 0.  0.
          4    1    3    3  501    0  0.28237951654E+02  0.52274550847E+02 -0.64619148987E+03  0.64891713813E+03  0.00000000000E+00 0.  1.
   -9000007    1    1    2    0  502  0.59310451830E+02 -0.85455972545E+01 -0.52965883099E+03  0.66643021704E+03  0.40000000000E+03 0.  1.
<mgrwt>
<rscale>  2 0.40487022E+03</rscale>
<asrwt>0</asrwt>
<pdfrwt beam="1">  1       21 0.19681228E-01 0.40500587E+03</pdfrwt>
<pdfrwt beam="2">  1       21 0.19796242E+00 0.40500587E+03</pdfrwt>
<totfact> 0.28574661E+03</totfact>
</mgrwt>
</event>
<event>
 6    1  0.9190795E-004  0.4037798E+03  0.7818608E-02  0.1042500E+00
         21   -1    0    0  503  502  0.00000000000E+00  0.00000000000E+00  0.15056493157E+03  0.15056493157E+03  0.00000000000E+00 0.  1.
         21   -1    0    0  501  503 -0.00000000000E+00 -0.00000000000E+00 -0.11047175427E+04  0.11047175427E+04  0.00000000000E+00 0.  1.
    9000007    2    1    2  501    0  0.61863728902E+01  0.54771255502E+02 -0.56657098220E+03  0.69558819993E+03  0.39975255392E+03 0.  0.
    9000005    1    3    3    0    0 -0.18333778786E+03 -0.43980678361E+02 -0.29334581721E+03  0.34871164734E+03  0.99999687468E+00 0.  0.
          4    1    3    3  501    0  0.18952416075E+03  0.98751933863E+02 -0.27322516499E+03  0.34687655258E+03  0.00000000000E+00 0.  1.
   -9000007    1    1    2    0  502 -0.61863728902E+01 -0.54771255502E+02 -0.38758162892E+03  0.55969427432E+03  0.40000000000E+03 0.  1.
<mgrwt>
<rscale>  2 0.40371855E+03</rscale>
<asrwt>0</asrwt>
<pdfrwt beam="1">  1       21 0.23163835E-01 0.40377984E+03</pdfrwt>
<pdfrwt beam="2">  1       21 0.16995655E+00 0.40377984E+03</pdfrwt>
<totfact> 0.32768254E+03</totfact>
</mgrwt>
</event>
<event>
 6    1  0.9190795E-004  0.4528590E+03  0.7818608E-02  0.1026875E+00
         21   -1    0    0  503  502  0.00000000000E+00  0.00000000000E+00  0.32474336717E+03  0.32474336717E+03  0.00000000000E+00 0.  1.
         21   -1    0    0  501  503 -0.00000000000E+00 -0.00000000000E+00 -0.83170709407E+03  0.83170709407E+03  0.00000000000E+00 0. -1.
    9000007    2    1    2  501    0  0.72341435224E+00  0.21232237353E+03 -0.53718717525E+03  0.70258399359E+03  0.39996611501E+03 0.  0.
    9000005    1    3    3    0    0 -0.10524728277E+03  0.21278741846E+03 -0.54686699068E+03  0.59617110084E+03  0.99999687468E+00 0.  0.
          4    1    3    3  501    0  0.10597069712E+03 -0.46504493272E+00  0.96798154320E+01  0.10641289274E+03  0.00000000000E+00 0.  1.
   -9000007    1    1    2    0  502 -0.72341435224E+00 -0.21232237353E+03  0.30223448357E+02  0.45386646765E+03  0.40000000000E+03 0.  1.
<mgrwt>
<rscale>  2 0.45285156E+03</rscale>
<asrwt>0</asrwt>
<pdfrwt beam="1">  1       21 0.49960518E-01 0.45285904E+03</pdfrwt>
<pdfrwt beam="2">  1       21 0.12795494E+00 0.45285904E+03</pdfrwt>
<totfact> 0.14652330E+03</totfact>
</mgrwt>
</event>
<event>
 6    1  0.9190795E-004  0.4197482E+03  0.7818608E-02  0.1037158E+00
         21   -1    0    0  503  502  0.00000000000E+00  0.00000000000E+00  0.11921763049E+03  0.11921763049E+03  0.00000000000E+00 0.  1.
         21   -1    0    0  501  503 -0.00000000000E+00 -0.00000000000E+00 -0.14781966622E+04  0.14781966622E+04  0.00000000000E+00 0.  1.
    9000007    2    1    2  501    0 -0.11543845633E+03 -0.53502577350E+02 -0.69729434840E+03  0.81382308350E+03  0.39987503042E+03 0.  0.
    9000005    1    3    3    0    0 -0.15142537652E+03  0.14908991238E+03 -0.32149928941E+03  0.38538323746E+03  0.99999687468E+00 0.  0.
          4    1    3    3  501    0  0.35986920197E+02 -0.20259248973E+03 -0.37579505899E+03  0.42843984605E+03  0.00000000000E+00 0.  1.
   -9000007    1    1    2    0  502  0.11543845633E+03  0.53502577350E+02 -0.66168468333E+03  0.78359120920E+03  0.40000000000E+03 0.  1.
<mgrwt>
<rscale>  2 0.41971844E+03</rscale>
<asrwt>0</asrwt>
<pdfrwt beam="1">  1       21 0.18341174E-01 0.41974821E+03</pdfrwt>
<pdfrwt beam="2">  1       21 0.22741487E+00 0.41974821E+03</pdfrwt>
<totfact> 0.20911994E+03</totfact>
</mgrwt>
</event>
<event>
 6    1  0.9190795E-004  0.5111171E+03  0.7818608E-02  0.1010999E+00
         21   -1    0    0  503  502  0.00000000000E+00  0.00000000000E+00  0.18953000056E+04  0.18953000056E+04  0.00000000000E+00 0.  1.
         21   -1    0    0  501  503 -0.00000000000E+00 -0.00000000000E+00 -0.22922202973E+03  0.22922202973E+03  0.00000000000E+00 0.  1.
    9000007    2    1    2  501    0  0.30845792398E+03  0.78066691143E+02  0.16040942462E+03  0.53446590885E+03  0.39834899911E+03 0.  0.
    9000005    1    3    3    0    0  0.25810194309E+03  0.23046011515E+03  0.13751453840E+03  0.37234355905E+03  0.99999687468E+00 0.  0.
          4    1    3    3  501    0  0.50355980890E+02 -0.15239342401E+03  0.22894886213E+02  0.16212234981E+03  0.00000000000E+00 0.  1.
   -9000007    1    1    2    0  502 -0.30845792398E+03 -0.78066691143E+02  0.15056685513E+04  0.15900561265E+04  0.40000000000E+03 0. -1.
<mgrwt>
<rscale>  2 0.51079404E+03</rscale>
<asrwt>0</asrwt>
<pdfrwt beam="1">  1       21 0.29158461E+00 0.51111711E+03</pdfrwt>
<pdfrwt beam="2">  1       21 0.35264929E-01 0.51111711E+03</pdfrwt>
<totfact> 0.22524210E+02</totfact>
</mgrwt>
</event>
<event>
 6    1  0.9190795E-004  0.4370039E+03  0.7818608E-02  0.1031704E+00
         21   -1    0    0  503  502  0.00000000000E+00  0.00000000000E+00  0.56661309338E+03  0.56661309338E+03  0.00000000000E+00 0. -1.
         21   -1    0    0  501  503 -0.00000000000E+00 -0.00000000000E+00 -0.39225362156E+03  0.39225362156E+03  0.00000000000E+00 0. -1.
    9000007    2    1    2  501    0  0.16909238742E+03 -0.48787370249E+02 -0.93286401428E+02  0.44641500362E+03  0.39951415468E+03 0.  0.
    9000005    1    3    3    0    0  0.22037641959E+03 -0.11323392360E+03 -0.19517018232E+03  0.31540464141E+03  0.99999687468E+00 0.  0.
          4    1    3    3  501    0 -0.51284032170E+02  0.64446553353E+02  0.10188378090E+03  0.13101036220E+03  0.00000000000E+00 0.  1.
   -9000007    1    1    2    0  502 -0.16909238742E+03  0.48787370249E+02  0.26764587325E+03  0.51245171133E+03  0.40000000000E+03 0. -1.
<mgrwt>
<rscale>  2 0.43689273E+03</rscale>
<asrwt>0</asrwt>
<pdfrwt beam="1">  1       21 0.87171245E-01 0.43700394E+03</pdfrwt>
<pdfrwt beam="2">  1       21 0.60346711E-01 0.43700394E+03</pdfrwt>
<totfact> 0.25222920E+03</totfact>
</mgrwt>
</event>
<event>
 6    1  0.9190795E-004  0.7107587E+03  0.7818608E-02  0.9699544E-01
         21   -1    0    0  503  502  0.00000000000E+00  0.00000000000E+00  0.13973867500E+04  0.13973867500E+04  0.00000000000E+00 0.  1.
         21   -1    0    0  501  503 -0.00000000000E+00 -0.00000000000E+00 -0.36086783959E+03  0.36086783959E+03  0.00000000000E+00 0.  1.
    9000007    2    1    2  501    0 -0.23532094381E+03 -0.53664667374E+03  0.51776660257E+03  0.87935211725E+03  0.40225898665E+03 0.  0.
    9000005    1    3    3    0    0  0.59035872199E+02 -0.12769723108E+02 -0.28918413852E+02  0.66974433092E+02  0.99999687468E+00 0.  0.
          4    1    3    3  501    0 -0.29435681601E+03 -0.52387695063E+03  0.54668501642E+03  0.81237768416E+03  0.00000000000E+00 0.  1.
   -9000007    1    1    2    0  502  0.23532094381E+03  0.53664667374E+03  0.51875230789E+03  0.87890247239E+03  0.40000000000E+03 0.  1.
<mgrwt>
<rscale>  2 0.71043945E+03</rscale>
<asrwt>0</asrwt>
<pdfrwt beam="1">  1       21 0.21498257E+00 0.71075867E+03</pdfrwt>
<pdfrwt beam="2">  1       21 0.55518130E-01 0.71075867E+03</pdfrwt>
<totfact> 0.24015064E+02</totfact>
</mgrwt>
</event>
<event>
 6    1  0.9190795E-004  0.4341514E+03  0.7818608E-02  0.1032641E+00
         21   -1    0    0  503  502  0.00000000000E+00  0.00000000000E+00  0.14953069144E+04  0.14953069144E+04  0.00000000000E+00 0. -1.
         21   -1    0    0  501  503 -0.00000000000E+00 -0.00000000000E+00 -0.12581088519E+03  0.12581088519E+03  0.00000000000E+00 0. -1.
    9000007    2    1    2  501    0  0.27255254635E+02  0.16372575277E+03  0.66618443831E+03  0.79516612732E+03  0.40117140123E+03 0.  0.
    9000005    1    3    3    0    0 -0.12289303435E+03  0.89824584328E+02  0.59350511014E+03  0.61271565151E+03  0.99999687468E+00 0.  0.
          4    1    3    3  501    0  0.15014828898E+03  0.73901168441E+02  0.72679328167E+02  0.18245047581E+03  0.00000000000E+00 0.  1.
   -9000007    1    1    2    0  502 -0.27255254635E+02 -0.16372575277E+03  0.70331159087E+03  0.82595167224E+03  0.40000000000E+03 0. -1.
<mgrwt>
<rscale>  2 0.43388063E+03</rscale>
<asrwt>0</asrwt>
<pdfrwt beam="1">  1       21 0.23004721E+00 0.43415143E+03</pdfrwt>
<pdfrwt beam="2">  1       21 0.19355522E-01 0.43415143E+03</pdfrwt>
<totfact> 0.18059124E+03</totfact>
</mgrwt>
</event>
<event>
 6    1  0.9190795E-004  0.4684204E+03  0.7818608E-02  0.1022414E+00
         21   -1    0    0  503  502  0.00000000000E+00  0.00000000000E+00  0.25438468926E+03  0.25438468926E+03  0.00000000000E+00 0.  1.
         21   -1    0    0  501  503 -0.00000000000E+00 -0.00000000000E+00 -0.11647393962E+04  0.11647393962E+04  0.00000000000E+00 0. -1.
    9000007    2    1    2  501    0  0.71744980632E+01  0.24365177788E+03 -0.81709856577E+03  0.94151088410E+03  0.39921800611E+03 0.  0.
    9000005    1    3    3    0    0  0.14514144793E+01  0.18498243903E+03 -0.85277397864E+03  0.87260819845E+03  0.99999687468E+00 0.  0.
          4    1    3    3  501    0  0.57230835839E+01  0.58669338845E+02  0.35675412871E+02  0.68902685650E+02  0.00000000000E+00 0.  1.
   -9000007    1    1    2    0  502 -0.71744980632E+01 -0.24365177788E+03 -0.93256141218E+02  0.47761320141E+03  0.40000000000E+03 0.  1.
<mgrwt>
<rscale>  2 0.46825340E+03</rscale>
<asrwt>0</asrwt>
<pdfrwt beam="1">  1       21 0.39136106E-01 0.46842039E+03</pdfrwt>
<pdfrwt beam="2">  1       21 0.17919068E+00 0.46842039E+03</pdfrwt>
<totfact> 0.96510097E+02</totfact>
</mgrwt>
</event>
<event>
 6    1  0.9190795E-004  0.4948095E+03  0.7818608E-02  0.1015163E+00
         21   -1    0    0  503  502  0.00000000000E+00  0.00000000000E+00  0.13140678327E+04  0.13140678327E+04  0.00000000000E+00 0.  1.
         21   -1    0    0  501  503 -0.00000000000E+00 -0.00000000000E+00 -0.50193085972E+03  0.50193085972E+03  0.00000000000E+00 0.  1.
    9000007    2    1    2  501    0  0.20514006558E+03 -0.20601546129E+03 -0.31403108861E+03  0.58604775042E+03  0.40038934097E+03 0.  0.
    9000005    1    3    3    0    0  0.37998406116E+02 -0.23832232080E+03 -0.14808181052E+02  0.24178852264E+03  0.99999687468E+00 0.  0.
          4    1    3    3  501    0  0.16714165946E+03  0.32306859518E+02 -0.29922290756E+03  0.34425922778E+03  0.00000000000E+00 0.  1.
   -9000007    1    1    2    0  502 -0.20514006558E+03  0.20601546129E+03  0.11261680616E+04  0.12299509420E+04  0.40000000000E+03 0.  1.
<mgrwt>
<rscale>  2 0.49473073E+03</rscale>
<asrwt>0</asrwt>
<pdfrwt beam="1">  1       21 0.20216428E+00 0.49480950E+03</pdfrwt>
<pdfrwt beam="2">  1       21 0.77220133E-01 0.49480950E+03</pdfrwt>
<totfact> 0.15199468E+02</totfact>
</mgrwt>
</event>
<event>
 6    1  0.9190795E-004  0.4277937E+03  0.7818608E-02  0.1034560E+00
         21   -1    0    0  503  502  0.00000000000E+00  0.00000000000E+00  0.42708587987E+03  0.42708587987E+03  0.00000000000E+00 0. -1.
         21   -1    0    0  501  503 -0.00000000000E+00 -0.00000000000E+00 -0.44170767249E+03  0.44170767249E+03  0.00000000000E+00 0. -1.
    9000007    2    1    2  501    0  0.12410457537E+02 -0.15115567083E+03 -0.82437325472E+02  0.43566423821E+03  0.40000669937E+03 0.  0.
    9000005    1    3    3    0    0 -0.49404353568E+02 -0.23991175668E+01 -0.21897603912E+03  0.22449510378E+03  0.99999687468E+00 0.  0.
          4    1    3    3  501    0  0.61814811105E+02 -0.14875655326E+03  0.13653871365E+03  0.21116913443E+03  0.00000000000E+00 0.  1.
   -9000007    1    1    2    0  502 -0.12410457537E+02  0.15115567083E+03  0.67815532859E+02  0.43312931415E+03  0.40000000000E+03 0. -1.
<mgrwt>
<rscale>  2 0.42779209E+03</rscale>
<asrwt>0</asrwt>
<pdfrwt beam="1">  1       21 0.65705520E-01 0.42779366E+03</pdfrwt>
<pdfrwt beam="2">  1       21 0.67955026E-01 0.42779366E+03</pdfrwt>
<totfact> 0.37112652E+03</totfact>
</mgrwt>
</event>
<event>
 6    1  0.9190795E-004  0.4645813E+03  0.7818608E-02  0.1023463E+00
         21   -1    0    0  503  502  0.00000000000E+00  0.00000000000E+00  0.10633965213E+04  0.10633965213E+04  0.00000000000E+00 0.  1.
         21   -1    0    0  501  503 -0.00000000000E+00 -0.00000000000E+00 -0.25071199488E+03  0.25071199488E+03  0.00000000000E+00 0.  1.
    9000007    2    1    2  501    0 -0.18434440803E+03 -0.14773625821E+03  0.11958544114E+03  0.47972538788E+03  0.40003363270E+03 0.  0.
    9000005    1    3    3    0    0  0.54345674206E+02 -0.13163315493E+03 -0.84217402313E+02  0.16545183779E+03  0.99999687468E+00 0.  0.
          4    1    3    3  501    0 -0.23869008223E+03 -0.16103103279E+02  0.20380284345E+03  0.31427355010E+03  0.00000000000E+00 0.  1.
   -9000007    1    1    2    0  502  0.18434440803E+03  0.14773625821E+03  0.69309908528E+03  0.83438312829E+03  0.40000000000E+03 0.  1.
<mgrwt>
<rscale>  2 0.46457404E+03</rscale>
<asrwt>0</asrwt>
<pdfrwt beam="1">  1       21 0.16359946E+00 0.46458128E+03</pdfrwt>
<pdfrwt beam="2">  1       21 0.38571077E-01 0.46458128E+03</pdfrwt>
<totfact> 0.12924773E+03</totfact>
</mgrwt>
</event>
<event>
 6    1  0.9190795E-004  0.5489940E+03  0.7818608E-02  0.1001740E+00
         21   -1    0    0  503  502  0.00000000000E+00  0.00000000000E+00  0.12738275517E+04  0.12738275517E+04  0.00000000000E+00 0. -1.
         21   -1    0    0  501  503 -0.00000000000E+00 -0.00000000000E+00 -0.24495893758E+03  0.24495893758E+03  0.00000000000E+00 0.  1.
    9000007    2    1    2  501    0 -0.91980500786E+02 -0.36460108640E+03  0.65536951872E+03  0.85478653522E+03  0.39969544655E+03 0.  0.
    9000005    1    3    3    0    0  0.23811257639E+02 -0.14310292802E+03  0.57382886787E+03  0.59188342906E+03  0.99999687468E+00 0.  0.
          4    1    3    3  501    0 -0.11579175843E+03 -0.22149815838E+03  0.81540650844E+02  0.26290310615E+03  0.00000000000E+00 0.  1.
   -9000007    1    1    2    0  502  0.91980500786E+02  0.36460108640E+03  0.37349909541E+03  0.66399995407E+03  0.40000000000E+03 0. -1.
<mgrwt>
<rscale>  2 0.54893848E+03</rscale>
<asrwt>0</asrwt>
<pdfrwt beam="1">  1       21 0.19597347E+00 0.54899396E+03</pdfrwt>
<pdfrwt beam="2">  1       21 0.37685991E-01 0.54899396E+03</pdfrwt>
<totfact> 0.77261506E+02</totfact>
</mgrwt>
</event>
<event>
 6    1  0.9190795E-004  0.4765259E+03  0.7818608E-02  0.1020103E+00
         21   -1    0    0  503  502  0.00000000000E+00  0.00000000000E+00  0.54428980193E+03  0.54428980193E+03  0.00000000000E+00 0. -1.
         21   -1    0    0  501  503 -0.00000000000E+00 -0.00000000000E+00 -0.65893960270E+03  0.65893960270E+03  0.00000000000E+00 0.  1.
    9000007    2    1    2  501    0  0.32319956654E+02 -0.25696766858E+03 -0.42179342410E+03  0.63629539821E+03  0.39985644783E+03 0.  0.
    9000005    1    3    3    0    0 -0.20287475382E+02 -0.27744588755E+02  0.77279920360E+02  0.84584454525E+02  0.99999687468E+00 0.  0.
          4    1    3    3  501    0  0.52607432036E+02 -0.22922307983E+03 -0.49907334446E+03  0.55171094368E+03  0.00000000000E+00 0.  1.
   -9000007    1    1    2    0  502 -0.32319956654E+02  0.25696766858E+03  0.30714362333E+03  0.56693400643E+03  0.40000000000E+03 0.  1.
<mgrwt>
<rscale>  2 0.47649580E+03</rscale>
<asrwt>0</asrwt>
<pdfrwt beam="1">  1       21 0.83736893E-01 0.47652593E+03</pdfrwt>
<pdfrwt beam="2">  1       21 0.10137532E+00 0.47652593E+03</pdfrwt>
<totfact> 0.82528170E+02</totfact>
</mgrwt>
</event>
<event>
 6    1  0.9190795E-004  0.4480127E+03  0.7818608E-02  0.1028341E+00
         21   -1    0    0  503  502  0.00000000000E+00  0.00000000000E+00  0.28467305158E+03  0.28467305158E+03  0.00000000000E+00 0. -1.
         21   -1    0    0  501  503 -0.00000000000E+00 -0.00000000000E+00 -0.10306186272E+04  0.10306186272E+04  0.00000000000E+00 0. -1.
    9000007    2    1    2  501    0  0.34201549620E+02  0.19811740668E+03 -0.74297507104E+03  0.86759861794E+03  0.40036877106E+03 0.  0.
    9000005    1    3    3    0    0 -0.15117038406E+03  0.21393890447E+03 -0.43217264744E+03  0.50536772458E+03  0.99999687468E+00 0.  0.
          4    1    3    3  501    0  0.18537193368E+03 -0.15821497789E+02 -0.31080242360E+03  0.36223089336E+03  0.00000000000E+00 0.  1.
   -9000007    1    1    2    0  502 -0.34201549620E+02 -0.19811740668E+03 -0.29705045824E+01  0.44769306084E+03  0.40000000000E+03 0. -1.
<mgrwt>
<rscale>  2 0.44793033E+03</rscale>
<asrwt>0</asrwt>
<pdfrwt beam="1">  1       21 0.43795854E-01 0.44801273E+03</pdfrwt>
<pdfrwt beam="2">  1       21 0.15855671E+00 0.44801273E+03</pdfrwt>
<totfact> 0.10922333E+03</totfact>
</mgrwt>
</event>
<event>
 6    1  0.9190795E-004  0.4365466E+03  0.7818608E-02  0.1031831E+00
         21   -1    0    0  503  502  0.00000000000E+00  0.00000000000E+00  0.46089564497E+03  0.46089564497E+03  0.00000000000E+00 0.  1.
         21   -1    0    0  501  503 -0.00000000000E+00 -0.00000000000E+00 -0.45342666074E+03  0.45342666074E+03  0.00000000000E+00 0.  1.
    9000007    2    1    2  501    0  0.17408156738E+03  0.16386856947E+02 -0.13235762440E+03  0.45592902297E+03  0.39972467032E+03 0.  0.
    9000005    1    3    3    0    0  0.14050718112E+02 -0.71196072617E+02 -0.23545221877E+03  0.24638394987E+03  0.99999687468E+00 0.  0.
          4    1    3    3  501    0  0.16003084927E+03  0.87582929564E+02  0.10309459437E+03  0.20954507309E+03  0.00000000000E+00 0.  1.
   -9000007    1    1    2    0  502 -0.17408156738E+03 -0.16386856947E+02  0.13982660864E+03  0.45839328275E+03  0.40000000000E+03 0.  1.
<mgrwt>
<rscale>  2 0.43648351E+03</rscale>
<asrwt>0</asrwt>
<pdfrwt beam="1">  1       21 0.70907023E-01 0.43654659E+03</pdfrwt>
<pdfrwt beam="2">  1       21 0.69757947E-01 0.43654659E+03</pdfrwt>
<totfact> 0.29412566E+03</totfact>
</mgrwt>
</event>
<event>
 6    1  0.9190795E-004  0.4534676E+03  0.7818608E-02  0.1027091E+00
         21   -1    0    0  503  502  0.00000000000E+00  0.00000000000E+00  0.31286977122E+03  0.31286977122E+03  0.00000000000E+00 0.  1.
         21   -1    0    0  501  503 -0.00000000000E+00 -0.00000000000E+00 -0.77253851076E+03  0.77253851076E+03  0.00000000000E+00 0. -1.
    9000007    2    1    2  501    0  0.95397323318E+02  0.17806410060E+03 -0.44754938274E+03  0.63712895831E+03  0.40598692875E+03 0.  0.
    9000005    1    3    3    0    0 -0.14162591872E+03  0.59579703155E+02 -0.29173966255E+03  0.32972817984E+03  0.99999687468E+00 0.  0.
          4    1    3    3  501    0  0.23702324203E+03  0.11848439744E+03 -0.15580972019E+03  0.30740077847E+03  0.00000000000E+00 0.  1.
   -9000007    1    1    2    0  502 -0.95397323318E+02 -0.17806410060E+03 -0.12119356791E+02  0.44827932367E+03  0.40000000000E+03 0.  1.
<mgrwt>
<rscale>  2 0.45212360E+03</rscale>
<asrwt>0</asrwt>
<pdfrwt beam="1">  1       21 0.48133811E-01 0.45346759E+03</pdfrwt>
<pdfrwt beam="2">  1       21 0.11885208E+00 0.45346759E+03</pdfrwt>
<totfact> 0.19156056E+03</totfact>
</mgrwt>
</event>
<event>
 6    1  0.9190795E-004  0.5583328E+03  0.7818608E-02  0.9996247E-01
         21   -1    0    0  503  502  0.00000000000E+00  0.00000000000E+00  0.16131685389E+04  0.16131685389E+04  0.00000000000E+00 0.  1.
         21   -1    0    0  501  503 -0.00000000000E+00 -0.00000000000E+00 -0.26424221406E+03  0.26424221406E+03  0.00000000000E+00 0. -1.
    9000007    2    1    2  501    0 -0.56713460199E+02 -0.38538171034E+03  0.18670592799E+03  0.58803426407E+03  0.39898585557E+03 0.  0.
    9000005    1    3    3    0    0 -0.43216737100E+02 -0.46985543953E+03  0.15202125688E+03  0.49572500740E+03  0.99999687468E+00 0.  0.
          4    1    3    3  501    0 -0.13496723099E+02  0.84473729191E+02  0.34684671112E+02  0.92309256676E+02  0.00000000000E+00 0.  1.
   -9000007    1    1    2    0  502  0.56713460199E+02  0.38538171034E+03  0.11622203969E+04  0.12893764889E+04  0.40000000000E+03 0.  1.
<mgrwt>
<rscale>  2 0.55815115E+03</rscale>
<asrwt>0</asrwt>
<pdfrwt beam="1">  1       21 0.24817977E+00 0.55833277E+03</pdfrwt>
<pdfrwt beam="2">  1       21 0.40652649E-01 0.55833277E+03</pdfrwt>
<totfact> 0.30304302E+02</totfact>
</mgrwt>
</event>
<event>
 6    1  0.9190795E-004  0.4186670E+03  0.7818608E-02  0.1037664E+00
         21   -1    0    0  503  502  0.00000000000E+00  0.00000000000E+00  0.12043391023E+04  0.12043391023E+04  0.00000000000E+00 0. -1.
         21   -1    0    0  501  503 -0.00000000000E+00 -0.00000000000E+00 -0.41272587116E+03  0.41272587116E+03  0.00000000000E+00 0. -1.
    9000007    2    1    2  501    0  0.84164351204E+02  0.90544986012E+02 -0.25589926991E+03  0.48898497968E+03  0.39791939071E+03 0.  0.
    9000005    1    3    3    0    0  0.51573680550E+02  0.18754845453E+03 -0.31544068686E+03  0.37059154637E+03  0.99999687468E+00 0.  0.
          4    1    3    3  501    0  0.32590670654E+02 -0.97003468513E+02  0.59541416954E+02  0.11839343331E+03  0.00000000000E+00 0.  1.
   -9000007    1    1    2    0  502 -0.84164351204E+02 -0.90544986012E+02  0.10475125011E+04  0.11280799938E+04  0.40000000000E+03 0. -1.
<mgrwt>
<rscale>  2 0.41816924E+03</rscale>
<asrwt>0</asrwt>
<pdfrwt beam="1">  1       21 0.18528294E+00 0.41866697E+03</pdfrwt>
<pdfrwt beam="2">  1       21 0.63496289E-01 0.41866697E+03</pdfrwt>
<totfact> 0.31997108E+02</totfact>
</mgrwt>
</event>
<event>
 6    1  0.9190795E-004  0.4298086E+03  0.7818608E-02  0.1033936E+00
         21   -1    0    0  503  502  0.00000000000E+00  0.00000000000E+00  0.14937187294E+03  0.14937187294E+03  0.00000000000E+00 0. -1.
         21   -1    0    0  501  503 -0.00000000000E+00 -0.00000000000E+00 -0.15705890473E+04  0.15705890473E+04  0.00000000000E+00 0. -1.
    9000007    2    1    2  501    0 -0.51346241203E+02  0.14809654015E+03 -0.31391878728E+03  0.53224094494E+03  0.40020794191E+03 0.  0.
    9000005    1    3    3    0    0 -0.15065870918E+03 -0.73000613528E+02 -0.20989244495E+03  0.26848272695E+03  0.99999687468E+00 0.  0.
          4    1    3    3  501    0  0.99312467977E+02  0.22109715367E+03 -0.10402634233E+03  0.26375821799E+03  0.00000000000E+00 0.  1.
   -9000007    1    1    2    0  502  0.51346241203E+02 -0.14809654015E+03 -0.11072983871E+04  0.11877199753E+04  0.40000000000E+03 0.  1.
<mgrwt>
<rscale>  2 0.42976017E+03</rscale>
<asrwt>0</asrwt>
<pdfrwt beam="1">  1       21 0.22980290E-01 0.42980858E+03</pdfrwt>
<pdfrwt beam="2">  1       21 0.24162907E+00 0.42980858E+03</pdfrwt>
<totfact> 0.11038796E+03</totfact>
</mgrwt>
</event>
<event>
 6    1  0.9190795E-004  0.4196191E+03  0.7818608E-02  0.1037208E+00
         21   -1    0    0  503  502  0.00000000000E+00  0.00000000000E+00  0.37069163972E+03  0.37069163972E+03  0.00000000000E+00 0. -1.
         21   -1    0    0  501  503 -0.00000000000E+00 -0.00000000000E+00 -0.62971170112E+03  0.62971170112E+03  0.00000000000E+00 0. -1.
    9000007    2    1    2  501    0  0.12215897940E+03 -0.31159591776E+02 -0.37766758884E+03  0.56454674496E+03  0.40023303610E+03 0.  0.
    9000005    1    3    3    0    0  0.89973379780E+02 -0.53420937748E+02 -0.46087001163E+03  0.47260043723E+03  0.99999687468E+00 0.  0.
          4    1    3    3  501    0  0.32185599622E+02  0.22261345972E+02  0.83202422791E+02  0.91946307733E+02  0.00000000000E+00 0.  1.
   -9000007    1    1    2    0  502 -0.12215897940E+03  0.31159591776E+02  0.11864752743E+03  0.43585659588E+03  0.40000000000E+03 0. -1.
<mgrwt>
<rscale>  2 0.41956356E+03</rscale>
<asrwt>0</asrwt>
<pdfrwt beam="1">  1       21 0.57029484E-01 0.41961914E+03</pdfrwt>
<pdfrwt beam="2">  1       21 0.96878722E-01 0.41961914E+03</pdfrwt>
<totfact> 0.22350333E+03</totfact>
</mgrwt>
</event>
<event>
 6    1  0.9190795E-004  0.4145052E+03  0.7818608E-02  0.1038874E+00
         21   -1    0    0  503  502  0.00000000000E+00  0.00000000000E+00  0.68957902895E+03  0.68957902895E+03  0.00000000000E+00 0.  1.
         21   -1    0    0  501  503 -0.00000000000E+00 -0.00000000000E+00 -0.26001433045E+03  0.26001433045E+03  0.00000000000E+00 0.  1.
    9000007    2    1    2  501    0  0.99005012082E+02 -0.44388660017E+02  0.11764348250E+03  0.43087649005E+03  0.40005276545E+03 0.  0.
    9000005    1    3    3    0    0 -0.81644639686E+02 -0.41417754683E+01  0.20904151316E+03  0.22446014281E+03  0.99999687468E+00 0.  0.
          4    1    3    3  501    0  0.18064965177E+03 -0.40246884549E+02 -0.91398030654E+02  0.20641634724E+03  0.00000000000E+00 0.  1.
   -9000007    1    1    2    0  502 -0.99005012082E+02  0.44388660017E+02  0.31192121600E+03  0.51871686935E+03  0.40000000000E+03 0.  1.
<mgrwt>
<rscale>  2 0.41449247E+03</rscale>
<asrwt>0</asrwt>
<pdfrwt beam="1">  1       21 0.10608908E+00 0.41450520E+03</pdfrwt>
<pdfrwt beam="2">  1       21 0.40002205E-01 0.41450520E+03</pdfrwt>
<totfact> 0.37945724E+03</totfact>
</mgrwt>
</event>
<event>
 6    1  0.9190795E-004  0.4225314E+03  0.7818608E-02  0.1036255E+00
         21   -1    0    0  503  502  0.00000000000E+00  0.00000000000E+00  0.35959579192E+03  0.35959579192E+03  0.00000000000E+00 0. -1.
         21   -1    0    0  501  503 -0.00000000000E+00 -0.00000000000E+00 -0.10926738506E+04  0.10926738506E+04  0.00000000000E+00 0. -1.
    9000007    2    1    2  501    0  0.88958931748E+02 -0.10258965942E+03 -0.90299084981E+03  0.99695800604E+03  0.40011805910E+03 0.  0.
    9000005    1    3    3    0    0 -0.62117335959E+02  0.12888662651E+03 -0.36666472293E+03  0.39359159665E+03  0.99999687468E+00 0.  0.
          4    1    3    3  501    0  0.15107626771E+03 -0.23147628593E+03 -0.53632612688E+03  0.60336640940E+03  0.00000000000E+00 0.  1.
   -9000007    1    1    2    0  502 -0.88958931748E+02  0.10258965942E+03  0.16991279110E+03  0.45531163651E+03  0.40000000000E+03 0. -1.
<mgrwt>
<rscale>  2 0.42250346E+03</rscale>
<asrwt>0</asrwt>
<pdfrwt beam="1">  1       21 0.55322429E-01 0.42253141E+03</pdfrwt>
<pdfrwt beam="2">  1       21 0.16810367E+00 0.42253141E+03</pdfrwt>
<totfact> 0.57150796E+02</totfact>
</mgrwt>
</event>
<event>
 6    1  0.9190795E-004  0.4786493E+03  0.7818608E-02  0.1019542E+00
         21   -1    0    0  503  502  0.00000000000E+00  0.00000000000E+00  0.54948632532E+03  0.54948632532E+03  0.00000000000E+00 0.  1.
         21   -1    0    0  501  503 -0.00000000000E+00 -0.00000000000E+00 -0.44904140116E+03  0.44904140116E+03  0.00000000000E+00 0.  1.
    9000007    2    1    2  501    0 -0.18879538026E+02  0.26219967681E+03  0.18459555865E+03  0.51253756530E+03  0.39939219834E+03 0.  0.
    9000005    1    3    3    0    0 -0.13077823576E+03 -0.43741038320E+02 -0.41681527925E+00  0.13790358628E+03  0.99999687468E+00 0.  0.
          4    1    3    3  501    0  0.11189869773E+03  0.30594071513E+03  0.18501237393E+03  0.37463397902E+03  0.00000000000E+00 0.  1.
   -9000007    1    1    2    0  502  0.18879538026E+02 -0.26219967681E+03 -0.84150634487E+02  0.48599016118E+03  0.40000000000E+03 0.  1.
<mgrwt>
<rscale>  2 0.47852225E+03</rscale>
<asrwt>0</asrwt>
<pdfrwt beam="1">  1       21 0.84536358E-01 0.47864925E+03</pdfrwt>
<pdfrwt beam="2">  1       21 0.69083292E-01 0.47864925E+03</pdfrwt>
<totfact> 0.19773440E+03</totfact>
</mgrwt>
</event>
<event>
 6    1  0.9190795E-004  0.4224843E+03  0.7818608E-02  0.1036321E+00
         21   -1    0    0  503  502  0.00000000000E+00  0.00000000000E+00  0.64454228859E+03  0.64454228859E+03  0.00000000000E+00 0. -1.
         21   -1    0    0  501  503 -0.00000000000E+00 -0.00000000000E+00 -0.28214047220E+03  0.28214047220E+03  0.00000000000E+00 0.  1.
    9000007    2    1    2  501    0  0.11181162941E+03  0.77402305124E+02  0.24689482607E+03  0.48869323794E+03  0.39921306137E+03 0.  0.
    9000005    1    3    3    0    0  0.21259465180E+03  0.11547007538E+03  0.28552877219E+03  0.37424257377E+03  0.99999687468E+00 0.  0.
          4    1    3    3  501    0 -0.10078302240E+03 -0.38067770255E+02 -0.38633946123E+02  0.11445066417E+03  0.00000000000E+00 0.  1.
   -9000007    1    1    2    0  502 -0.11181162941E+03 -0.77402305124E+02  0.11550699033E+03  0.43798952285E+03  0.40000000000E+03 0.  1.
<mgrwt>
<rscale>  2 0.42229790E+03</rscale>
<asrwt>0</asrwt>
<pdfrwt beam="1">  1       21 0.99160352E-01 0.42248427E+03</pdfrwt>
<pdfrwt beam="2">  1       21 0.43406226E-01 0.42248427E+03</pdfrwt>
<totfact> 0.37683663E+03</totfact>
</mgrwt>
</event>
<event>
 6    1  0.9190795E-004  0.4495132E+03  0.7818608E-02  0.1027912E+00
         21   -1    0    0  503  502  0.00000000000E+00  0.00000000000E+00  0.38395263244E+03  0.38395263244E+03  0.00000000000E+00 0. -1.
         21   -1    0    0  501  503 -0.00000000000E+00 -0.00000000000E+00 -0.56320267365E+03  0.56320267365E+03  0.00000000000E+00 0.  1.
    9000007    2    1    2  501    0 -0.48044623749E+02  0.19938357783E+03 -0.21199402949E+03  0.49645111734E+03  0.39932461281E+03 0.  0.
    9000005    1    3    3    0    0  0.34165846040E+02 -0.10925878274E+03 -0.11589695519E+03  0.16290454523E+03  0.99999687468E+00 0.  0.
          4    1    3    3  501    0 -0.82210469789E+02  0.30864236057E+03 -0.96097074300E+02  0.33354657211E+03  0.00000000000E+00 0.  1.
   -9000007    1    1    2    0  502  0.48044623749E+02 -0.19938357783E+03  0.32743988276E+02  0.45070418874E+03  0.40000000000E+03 0. -1.
<mgrwt>
<rscale>  2 0.44936288E+03</rscale>
<asrwt>0</asrwt>
<pdfrwt beam="1">  1       21 0.59069636E-01 0.44951318E+03</pdfrwt>
<pdfrwt beam="2">  1       21 0.86646565E-01 0.44951318E+03</pdfrwt>
<totfact> 0.26686830E+03</totfact>
</mgrwt>
</event>
<event>
 6    1  0.9190795E-004  0.5882685E+03  0.7818608E-02  0.9930101E-01
         21   -1    0    0  503  502  0.00000000000E+00  0.00000000000E+00  0.29147647884E+03  0.29147647884E+03  0.00000000000E+00 0. -1.
         21   -1    0    0  501  503 -0.00000000000E+00 -0.00000000000E+00 -0.16196991263E+04  0.16196991263E+04  0.00000000000E+00 0. -1.
    9000007    2    1    2  501    0  0.41793506732E+03  0.10617955225E+03 -0.11580228424E+04  0.12988751957E+04  0.40014503945E+03 0.  0.
    9000005    1    3    3    0    0  0.30329215007E+03 -0.37056994871E+02 -0.32576538254E+03  0.44663568332E+03  0.99999687468E+00 0.  0.
          4    1    3    3  501    0  0.11464291725E+03  0.14323654712E+03 -0.83225745989E+03  0.85223951237E+03  0.00000000000E+00 0.  1.
   -9000007    1    1    2    0  502 -0.41793506732E+03 -0.10617955225E+03 -0.17019980508E+03  0.61230040949E+03  0.40000000000E+03 0. -1.
<mgrwt>
<rscale>  2 0.58824387E+03</rscale>
<asrwt>0</asrwt>
<pdfrwt beam="1">  1       21 0.44842534E-01 0.58826854E+03</pdfrwt>
<pdfrwt beam="2">  1       21 0.24918449E+00 0.58826854E+03</pdfrwt>
<totfact> 0.24020777E+02</totfact>
</mgrwt>
</event>
<event>
 6    1  0.9190795E-004  0.6516737E+03  0.7818608E-02  0.9803651E-01
         21   -1    0    0  503  502  0.00000000000E+00  0.00000000000E+00  0.12109444157E+04  0.12109444157E+04  0.00000000000E+00 0.  1.
         21   -1    0    0  501  503 -0.00000000000E+00 -0.00000000000E+00 -0.35892589531E+03  0.35892589531E+03  0.00000000000E+00 0. -1.
    9000007    2    1    2  501    0 -0.45057655744E+03  0.24827354761E+03  0.30712877050E+03  0.72042117886E+03  0.40002450516E+03 0.  0.
    9000005    1    3    3    0    0 -0.35972116928E+03  0.66496151364E+02  0.17014833231E+02  0.36621245517E+03  0.99999687468E+00 0.  0.
          4    1    3    3  501    0 -0.90855388155E+02  0.18177739625E+03  0.29011393727E+03  0.35420872369E+03  0.00000000000E+00 0.  1.
   -9000007    1    1    2    0  502  0.45057655744E+03 -0.24827354761E+03  0.54488974985E+03  0.84944913211E+03  0.40000000000E+03 0.  1.
<mgrwt>
<rscale>  2 0.65166993E+03</rscale>
<asrwt>0</asrwt>
<pdfrwt beam="1">  1       21 0.18629914E+00 0.65167369E+03</pdfrwt>
<pdfrwt beam="2">  1       21 0.55219369E-01 0.65167369E+03</pdfrwt>
<totfact> 0.38770808E+02</totfact>
</mgrwt>
</event>
<event>
 6    1  0.9190795E-004  0.5477570E+03  0.7818608E-02  0.1002021E+00
         21   -1    0    0  503  502  0.00000000000E+00  0.00000000000E+00  0.16577285993E+04  0.16577285993E+04  0.00000000000E+00 0. -1.
         21   -1    0    0  501  503 -0.00000000000E+00 -0.00000000000E+00 -0.37525266206E+03  0.37525266206E+03  0.00000000000E+00 0. -1.
    9000007    2    1    2  501    0 -0.35301167234E+03  0.12417914235E+03 -0.90222363090E+02  0.55503054367E+03  0.39985138414E+03 0.  0.
    9000005    1    3    3    0    0 -0.35177491741E+03  0.94619277236E+02 -0.21755973432E+03  0.42430135297E+03  0.99999687468E+00 0.  0.
          4    1    3    3  501    0 -0.12367549263E+01  0.29559865109E+02  0.12733737123E+03  0.13072919069E+03  0.00000000000E+00 0.  1.
   -9000007    1    1    2    0  502  0.35301167234E+03 -0.12417914235E+03  0.13726983003E+04  0.14779507177E+04  0.40000000000E+03 0. -1.
<mgrwt>
<rscale>  2 0.54772984E+03</rscale>
<asrwt>0</asrwt>
<pdfrwt beam="1">  1       21 0.25503517E+00 0.54775697E+03</pdfrwt>
<pdfrwt beam="2">  1       21 0.57731180E-01 0.54775697E+03</pdfrwt>
<totfact> 0.13093295E+02</totfact>
</mgrwt>
</event>
<event>
 6    1  0.9190795E-004  0.4305879E+03  0.7818608E-02  0.1033697E+00
         21   -1    0    0  503  502  0.00000000000E+00  0.00000000000E+00  0.32655013197E+03  0.32655013197E+03  0.00000000000E+00 0. -1.
         21   -1    0    0  501  503 -0.00000000000E+00 -0.00000000000E+00 -0.58628299301E+03  0.58628299301E+03  0.00000000000E+00 0. -1.
    9000007    2    1    2  501    0  0.20854590732E+02 -0.15802233197E+03 -0.21174837319E+03  0.47957975519E+03  0.39969162699E+03 0.  0.
    9000005    1    3    3    0    0  0.20287358825E+03 -0.72931345779E+02 -0.16954628176E+03  0.27426923936E+03  0.99999687468E+00 0.  0.
          4    1    3    3  501    0 -0.18201899752E+03 -0.85090986188E+02 -0.42202091427E+02  0.20531051583E+03  0.00000000000E+00 0.  1.
   -9000007    1    1    2    0  502 -0.20854590732E+02  0.15802233197E+03 -0.47984487858E+02  0.43325336979E+03  0.40000000000E+03 0. -1.
<mgrwt>
<rscale>  2 0.43051631E+03</rscale>
<asrwt>0</asrwt>
<pdfrwt beam="1">  1       21 0.50238482E-01 0.43058794E+03</pdfrwt>
<pdfrwt beam="2">  1       21 0.90197383E-01 0.43058794E+03</pdfrwt>
<totfact> 0.34650188E+03</totfact>
</mgrwt>
</event>
<event>
 6    1  0.9190795E-004  0.4890073E+03  0.7818608E-02  0.1016753E+00
         21   -1    0    0  503  502  0.00000000000E+00  0.00000000000E+00  0.82713567149E+03  0.82713567149E+03  0.00000000000E+00 0. -1.
         21   -1    0    0  501  503 -0.00000000000E+00 -0.00000000000E+00 -0.30757902661E+03  0.30757902661E+03  0.00000000000E+00 0.  1.
    9000007    2    1    2  501    0  0.23508373677E+03  0.15140681473E+03  0.11884527679E+03  0.50324182667E+03  0.40117296700E+03 0.  0.
    9000005    1    3    3    0    0 -0.11220995052E+03  0.36426956763E+02 -0.19122892568E+01  0.11799429231E+03  0.99999687468E+00 0.  0.
          4    1    3    3  501    0  0.34729368729E+03  0.11497985797E+03  0.12075756605E+03  0.38524753435E+03  0.00000000000E+00 0.  1.
   -9000007    1    1    2    0  502 -0.23508373677E+03 -0.15140681473E+03  0.40071136809E+03  0.63147287143E+03  0.40000000000E+03 0.  1.
<mgrwt>
<rscale>  2 0.48876666E+03</rscale>
<asrwt>0</asrwt>
<pdfrwt beam="1">  1       21 0.12725164E+00 0.48900730E+03</pdfrwt>
<pdfrwt beam="2">  1       21 0.47319851E-01 0.48900730E+03</pdfrwt>
<totfact> 0.16447698E+03</totfact>
</mgrwt>
</event>
<event>
 6    1  0.9190795E-004  0.6904680E+03  0.7818608E-02  0.9733892E-01
         21   -1    0    0  503  502  0.00000000000E+00  0.00000000000E+00  0.75624959203E+03  0.75624959203E+03  0.00000000000E+00 0.  1.
         21   -1    0    0  501  503 -0.00000000000E+00 -0.00000000000E+00 -0.63313464468E+03  0.63313464468E+03  0.00000000000E+00 0. -1.
    9000007    2    1    2  501    0  0.16487943951E+03 -0.53746333321E+03  0.12306583271E+02  0.69057771294E+03  0.40086663805E+03 0.  0.
    9000005    1    3    3    0    0  0.79021199740E+02 -0.46619553673E+03 -0.14781512790E+03  0.49541188975E+03  0.99999687468E+00 0.  0.
          4    1    3    3  501    0  0.85858239774E+02 -0.71267796475E+02  0.16012171117E+03  0.19516582319E+03  0.00000000000E+00 0.  1.
   -9000007    1    1    2    0  502 -0.16487943951E+03  0.53746333321E+03  0.11080836409E+03  0.69880652377E+03  0.40000000000E+03 0.  1.
<mgrwt>
<rscale>  2 0.69034232E+03</rscale>
<asrwt>0</asrwt>
<pdfrwt beam="1">  1       21 0.11634609E+00 0.69046805E+03</pdfrwt>
<pdfrwt beam="2">  1       21 0.97405330E-01 0.69046805E+03</pdfrwt>
<totfact> 0.37960447E+02</totfact>
</mgrwt>
</event>
<event>
 6    1  0.9190795E-004  0.5225245E+03  0.7818608E-02  0.1008125E+00
         21   -1    0    0  503  502  0.00000000000E+00  0.00000000000E+00  0.58455070916E+03  0.58455070916E+03  0.00000000000E+00 0.  1.
         21   -1    0    0  501  503 -0.00000000000E+00 -0.00000000000E+00 -0.61536158755E+03  0.61536158755E+03  0.00000000000E+00 0. -1.
    9000007    2    1    2  501    0  0.32828245246E+03 -0.64719806064E+02 -0.31083673893E+03  0.60798957839E+03  0.40134003946E+03 0.  0.
    9000005    1    3    3    0    0  0.17520096789E+03  0.54650396747E+01 -0.38572421526E+03  0.42368551549E+03  0.99999687468E+00 0.  0.
          4    1    3    3  501    0  0.15308148457E+03 -0.70184845739E+02  0.74887476328E+02  0.18430406290E+03  0.00000000000E+00 0.  1.
   -9000007    1    1    2    0  502 -0.32828245246E+03  0.64719806064E+02  0.28002586054E+03  0.59192271832E+03  0.40000000000E+03 0.  1.
<mgrwt>
<rscale>  2 0.52226717E+03</rscale>
<asrwt>0</asrwt>
<pdfrwt beam="1">  1       21 0.89930878E-01 0.52252450E+03</pdfrwt>
<pdfrwt beam="2">  1       21 0.94671013E-01 0.52252450E+03</pdfrwt>
<totfact> 0.80911805E+02</totfact>
</mgrwt>
</event>
<event>
 6    1  0.9190795E-004  0.4957927E+03  0.7818608E-02  0.1014898E+00
         21   -1    0    0  503  502  0.00000000000E+00  0.00000000000E+00  0.69200150003E+03  0.69200150003E+03  0.00000000000E+00 0.  1.
         21   -1    0    0  501  503 -0.00000000000E+00 -0.00000000000E+00 -0.60131332473E+03  0.60131332473E+03  0.00000000000E+00 0.  1.
    9000007    2    1    2  501    0 -0.25623796611E+03 -0.14195966448E+03 -0.36849569693E+03  0.61754839312E+03  0.39970801540E+03 0.  0.
    9000005    1    3    3    0    0  0.10241362140E+03 -0.22021833035E+02 -0.27426805763E+02  0.10829007640E+03  0.99999687468E+00 0.  0.
          4    1    3    3  501    0 -0.35865158751E+03 -0.11993783144E+03 -0.34106889116E+03  0.50925831672E+03  0.00000000000E+00 0.  1.
   -9000007    1    1    2    0  502  0.25623796611E+03  0.14195966448E+03  0.45918387223E+03  0.67576643164E+03  0.40000000000E+03 0.  1.
<mgrwt>
<rscale>  2 0.49573385E+03</rscale>
<asrwt>0</asrwt>
<pdfrwt beam="1">  1       21 0.10646177E+00 0.49579274E+03</pdfrwt>
<pdfrwt beam="2">  1       21 0.92509742E-01 0.49579274E+03</pdfrwt>
<totfact> 0.57371480E+02</totfact>
</mgrwt>
</event>
<event>
 6    1  0.9190795E-004  0.4282324E+03  0.7818608E-02  0.1034446E+00
         21   -1    0    0  503  502  0.00000000000E+00  0.00000000000E+00  0.14870811351E+03  0.14870811351E+03  0.00000000000E+00 0. -1.
         21   -1    0    0  501  503 -0.00000000000E+00 -0.00000000000E+00 -0.12322162633E+04  0.12322162633E+04  0.00000000000E+00 0. -1.
    9000007    2    1    2  501    0 -0.15108303710E+03 -0.23598430041E+02 -0.54349635655E+03  0.69172505379E+03  0.39964020125E+03 0.  0.
    9000005    1    3    3    0    0 -0.28737185496E+03  0.40591585003E+01 -0.39211346792E+03  0.48616152821E+03  0.99999687468E+00 0.  0.
          4    1    3    3  501    0  0.13628881786E+03 -0.27657588541E+02 -0.15138288863E+03  0.20556352558E+03  0.00000000000E+00 0.  1.
   -9000007    1    1    2    0  502  0.15108303710E+03  0.23598430041E+02 -0.54001179319E+03  0.68919932297E+03  0.40000000000E+03 0. -1.
<mgrwt>
<rscale>  2 0.42814834E+03</rscale>
<asrwt>0</asrwt>
<pdfrwt beam="1">  1       21 0.22878172E-01 0.42823238E+03</pdfrwt>
<pdfrwt beam="2">  1       21 0.18957173E+00 0.42823238E+03</pdfrwt>
<totfact> 0.24169103E+03</totfact>
</mgrwt>
</event>
<event>
 6    1  0.9190795E-004  0.5042930E+03  0.7818608E-02  0.1012676E+00
         21   -1    0    0  503  502  0.00000000000E+00  0.00000000000E+00  0.14032147531E+04  0.14032147531E+04  0.00000000000E+00 0.  1.
         21   -1    0    0  501  503 -0.00000000000E+00 -0.00000000000E+00 -0.18140357261E+03  0.18140357261E+03  0.00000000000E+00 0. -1.
    9000007    2    1    2  501    0  0.35697636357E+02  0.30472048777E+03  0.63945604576E+03  0.81438044048E+03  0.40022814801E+03 0.  0.
    9000005    1    3    3    0    0 -0.95246925235E+02 -0.53379250817E+02  0.23163086559E+03  0.25607651019E+03  0.99999687468E+00 0.  0.
          4    1    3    3  501    0  0.13094456159E+03  0.35809973859E+03  0.40782518017E+03  0.55830393029E+03  0.00000000000E+00 0.  1.
   -9000007    1    1    2    0  502 -0.35697636357E+02 -0.30472048777E+03  0.58235513475E+03  0.77023788525E+03  0.40000000000E+03 0.  1.
<mgrwt>
<rscale>  2 0.50424777E+03</rscale>
<asrwt>0</asrwt>
<pdfrwt beam="1">  1       21 0.21587919E+00 0.50429304E+03</pdfrwt>
<pdfrwt beam="2">  1       21 0.27908243E-01 0.50429304E+03</pdfrwt>
<totfact> 0.10621166E+03</totfact>
</mgrwt>
</event>
<event>
 6    1  0.9190795E-004  0.5832802E+03  0.7818608E-02  0.9941417E-01
         21   -1    0    0  503  502  0.00000000000E+00  0.00000000000E+00  0.46715059871E+03  0.46715059871E+03  0.00000000000E+00 0.  1.
         21   -1    0    0  501  503 -0.00000000000E+00 -0.00000000000E+00 -0.88078095049E+03  0.88078095049E+03  0.00000000000E+00 0.  1.
    9000007    2    1    2  501    0  0.42437995642E+03  0.10839052374E+02 -0.48855911828E+03  0.75985829483E+03  0.39809393829E+03 0.  0.
    9000005    1    3    3    0    0  0.69588324643E+02 -0.99939710214E+02 -0.33723367552E+03  0.35854990239E+03  0.99999687468E+00 0.  0.
          4    1    3    3  501    0  0.35479163177E+03  0.11077876259E+03 -0.15132544276E+03  0.40130839244E+03  0.00000000000E+00 0.  1.
   -9000007    1    1    2    0  502 -0.42437995642E+03 -0.10839052374E+02  0.74928766499E+02  0.58807325438E+03  0.40000000000E+03 0.  1.
<mgrwt>
<rscale>  2 0.58295359E+03</rscale>
<asrwt>0</asrwt>
<pdfrwt beam="1">  1       21 0.71869323E-01 0.58328023E+03</pdfrwt>
<pdfrwt beam="2">  1       21 0.13550476E+00 0.58328023E+03</pdfrwt>
<totfact> 0.54041413E+02</totfact>
</mgrwt>
</event>
<event>
 6    1  0.9190795E-004  0.4738610E+03  0.7818608E-02  0.1020852E+00
         21   -1    0    0  503  502  0.00000000000E+00  0.00000000000E+00  0.83618727526E+03  0.83618727526E+03  0.00000000000E+00 0.  1.
         21   -1    0    0  501  503 -0.00000000000E+00 -0.00000000000E+00 -0.32618112502E+03  0.32618112502E+03  0.00000000000E+00 0.  1.
    9000007    2    1    2  501    0  0.24627925329E+03  0.60627910787E+02  0.10451788342E+02  0.47397623395E+03  0.40026868014E+03 0.  0.
    9000005    1    3    3    0    0  0.14357435398E+03  0.13044642544E+03 -0.16796085255E+03  0.25659640102E+03  0.99999687468E+00 0.  0.
          4    1    3    3  501    0  0.10270489931E+03 -0.69818514658E+02  0.17841264090E+03  0.21737983293E+03  0.00000000000E+00 0.  1.
   -9000007    1    1    2    0  502 -0.24627925329E+03 -0.60627910787E+02  0.49955436190E+03  0.68839216633E+03  0.40000000000E+03 0.  1.
<mgrwt>
<rscale>  2 0.47380424E+03</rscale>
<asrwt>0</asrwt>
<pdfrwt beam="1">  1       21 0.12864420E+00 0.47386098E+03</pdfrwt>
<pdfrwt beam="2">  1       21 0.50181712E-01 0.47386098E+03</pdfrwt>
<totfact> 0.14197357E+03</totfact>
</mgrwt>
</event>
<event>
 6    1  0.9190795E-004  0.6984666E+03  0.7818608E-02  0.9720895E-01
         21   -1    0    0  503  502  0.00000000000E+00  0.00000000000E+00  0.61519406707E+03  0.61519406707E+03  0.00000000000E+00 0.  1.
         21   -1    0    0  501  503 -0.00000000000E+00 -0.00000000000E+00 -0.98908587709E+03  0.98908587709E+03  0.00000000000E+00 0. -1.
    9000007    2    1    2  501    0 -0.54838513696E+03 -0.15415624117E+03 -0.54683309463E+03  0.88706373335E+03  0.40418464655E+03 0.  0.
    9000005    1    3    3    0    0 -0.34285666147E+03 -0.90434173942E+02 -0.56931934004E+03  0.67071196580E+03  0.99999687468E+00 0.  0.
          4    1    3    3  501    0 -0.20552847549E+03 -0.63722067232E+02  0.22486245406E+02  0.21635176755E+03  0.00000000000E+00 0.  1.
   -9000007    1    1    2    0  502  0.54838513696E+03  0.15415624117E+03  0.17294128461E+03  0.71721621081E+03  0.40000000000E+03 0. -1.
<mgrwt>
<rscale>  2 0.69786255E+03</rscale>
<asrwt>0</asrwt>
<pdfrwt beam="1">  1       21 0.94645242E-01 0.69846663E+03</pdfrwt>
<pdfrwt beam="2">  1       21 0.15216706E+00 0.69846663E+03</pdfrwt>
<totfact> 0.19920957E+02</totfact>
</mgrwt>
</event>
<event>
 6    1  0.9190795E-004  0.4493547E+03  0.7818608E-02  0.1027959E+00
         21   -1    0    0  503  502  0.00000000000E+00  0.00000000000E+00  0.23702941242E+03  0.23702941242E+03  0.00000000000E+00 0.  1.
         21   -1    0    0  501  503 -0.00000000000E+00 -0.00000000000E+00 -0.10486537412E+04  0.10486537412E+04  0.00000000000E+00 0.  1.
    9000007    2    1    2  501    0 -0.69696259010E+02 -0.19111297624E+03 -0.68530212855E+03  0.81948680393E+03  0.40067178115E+03 0.  0.
    9000005    1    3    3    0    0 -0.55614762986E+02 -0.27234799090E+02 -0.64783853091E+03  0.65079220821E+03  0.99999687468E+00 0.  0.
          4    1    3    3  501    0 -0.14081496024E+02 -0.16387817715E+03 -0.37463597642E+02  0.16869459572E+03  0.00000000000E+00 0.  1.
   -9000007    1    1    2    0  502  0.69696259010E+02  0.19111297624E+03 -0.12632220026E+03  0.46619634971E+03  0.40000000000E+03 0.  1.
<mgrwt>
<rscale>  2 0.44920487E+03</rscale>
<asrwt>0</asrwt>
<pdfrwt beam="1">  1       21 0.36466063E-01 0.44935466E+03</pdfrwt>
<pdfrwt beam="2">  1       21 0.16133134E+00 0.44935466E+03</pdfrwt>
<totfact> 0.15168051E+03</totfact>
</mgrwt>
</event>
<event>
 6    1  0.9190795E-004  0.4407468E+03  0.7818608E-02  0.1030846E+00
         21   -1    0    0  503  502  0.00000000000E+00  0.00000000000E+00  0.10625070723E+03  0.10625070723E+03  0.00000000000E+00 0. -1.
         21   -1    0    0  501  503 -0.00000000000E+00 -0.00000000000E+00 -0.23754141808E+04  0.23754141808E+04  0.00000000000E+00 0.  1.
    9000007    2    1    2  501    0 -0.13414748080E+03  0.11187817457E+03 -0.53375417280E+03  0.69220750833E+03  0.40465472325E+03 0.  0.
    9000005    1    3    3    0    0  0.63163751381E+01  0.94685631825E+02  0.38724326438E+02  0.10249799472E+03  0.99999687468E+00 0.  0.
          4    1    3    3  501    0 -0.14046385594E+03  0.17192542744E+02 -0.57247849924E+03  0.58970951361E+03  0.00000000000E+00 0.  1.
   -9000007    1    1    2    0  502  0.13414748080E+03 -0.11187817457E+03 -0.17354093008E+04  0.17894573797E+04  0.40000000000E+03 0.  1.
<mgrwt>
<rscale>  2 0.43967546E+03</rscale>
<asrwt>0</asrwt>
<pdfrwt beam="1">  1       21 0.16346262E-01 0.44074677E+03</pdfrwt>
<pdfrwt beam="2">  1       21 0.36544835E+00 0.44074677E+03</pdfrwt>
<totfact> 0.37107934E+02</totfact>
</mgrwt>
</event>
<event>
 6    1  0.9190795E-004  0.4195938E+03  0.7818608E-02  0.1037214E+00
         21   -1    0    0  503  502  0.00000000000E+00  0.00000000000E+00  0.41090208507E+03  0.41090208507E+03  0.00000000000E+00 0. -1.
         21   -1    0    0  501  503 -0.00000000000E+00 -0.00000000000E+00 -0.56847587791E+03  0.56847587791E+03  0.00000000000E+00 0. -1.
    9000007    2    1    2  501    0 -0.10009562087E+03  0.76717489605E+02  0.16438092985E+03  0.45064405071E+03  0.40019278331E+03 0.  0.
    9000005    1    3    3    0    0 -0.79631318129E+02  0.19189332008E+03  0.23525963603E+03  0.31386667465E+03  0.99999687468E+00 0.  0.
          4    1    3    3  501    0 -0.20464302742E+02 -0.11517583047E+03 -0.70878706181E+02  0.13677737606E+03  0.00000000000E+00 0.  1.
   -9000007    1    1    2    0  502  0.10009562087E+03 -0.76717489605E+02 -0.32195472268E+03  0.52873391227E+03  0.40000000000E+03 0.  1.
<mgrwt>
<rscale>  2 0.41954784E+03</rscale>
<asrwt>0</asrwt>
<pdfrwt beam="1">  1       21 0.63215706E-01 0.41959382E+03</pdfrwt>
<pdfrwt beam="2">  1       21 0.87457827E-01 0.41959382E+03</pdfrwt>
<totfact> 0.22749210E+03</totfact>
</mgrwt>
</event>
<event>
 6    1  0.9190795E-004  0.4755846E+03  0.7818608E-02  0.1020379E+00
         21   -1    0    0  503  502  0.00000000000E+00  0.00000000000E+00  0.15223724758E+04  0.15223724758E+04  0.00000000000E+00 0.  1.
         21   -1    0    0  501  503 -0.00000000000E+00 -0.00000000000E+00 -0.15560873046E+03  0.15560873046E+03  0.00000000000E+00 0. -1.
    9000007    2    1    2  501    0 -0.23028338822E+03 -0.11467459202E+03  0.86287850176E+03  0.98510240037E+03  0.39960821998E+03 0.  0.
    9000005    1    3    3    0    0 -0.10855888645E+03  0.99500852199E+02  0.86974433652E+02  0.17102924755E+03  0.99999687468E+00 0.  0.
          4    1    3    3  501    0 -0.12172450178E+03 -0.21417544422E+03  0.77590406811E+03  0.81407315282E+03  0.00000000000E+00 0.  1.
   -9000007    1    1    2    0  502  0.23028338822E+03  0.11467459202E+03  0.50388524361E+03  0.69287880591E+03  0.40000000000E+03 0. -1.
<mgrwt>
<rscale>  2 0.47550220E+03</rscale>
<asrwt>0</asrwt>
<pdfrwt beam="1">  1       21 0.23421114E+00 0.47558459E+03</pdfrwt>
<pdfrwt beam="2">  1       21 0.23939806E-01 0.47558459E+03</pdfrwt>
<totfact> 0.11096495E+03</totfact>
</mgrwt>
</event>
<event>
 6    1  0.9190795E-004  0.4253447E+03  0.7818608E-02  0.1035554E+00
         21   -1    0    0  503  502  0.00000000000E+00  0.00000000000E+00  0.10263570652E+04  0.10263570652E+04  0.00000000000E+00 0. -1.
         21   -1    0    0  501  503 -0.00000000000E+00 -0.00000000000E+00 -0.18061839317E+03  0.18061839317E+03  0.00000000000E+00 0. -1.
    9000007    2    1    2  501    0  0.59554499959E+02  0.12297181828E+03  0.31938235385E+03  0.53190525444E+03  0.40280181876E+03 0.  0.
    9000005    1    3    3    0    0  0.20091785815E+03 -0.38591167452E+01  0.26833834507E+03  0.33524520270E+03  0.99999687468E+00 0.  0.
          4    1    3    3  501    0 -0.14136335819E+03  0.12683093502E+03  0.51044008780E+02  0.19666005174E+03  0.00000000000E+00 0.  1.
   -9000007    1    1    2    0  502 -0.59554499959E+02 -0.12297181828E+03  0.52635631819E+03  0.67507020394E+03  0.40000000000E+03 0. -1.
<mgrwt>
<rscale>  2 0.42468005E+03</rscale>
<asrwt>0</asrwt>
<pdfrwt beam="1">  1       21 0.15790108E+00 0.42534470E+03</pdfrwt>
<pdfrwt beam="2">  1       21 0.27787446E-01 0.42534470E+03</pdfrwt>
<totfact> 0.28005769E+03</totfact>
</mgrwt>
</event>
<event>
 6    1  0.9190795E-004  0.4757740E+03  0.7818608E-02  0.1020311E+00
         21   -1    0    0  503  502  0.00000000000E+00  0.00000000000E+00  0.88844846890E+03  0.88844846890E+03  0.00000000000E+00 0. -1.
         21   -1    0    0  501  503 -0.00000000000E+00 -0.00000000000E+00 -0.38556167521E+03  0.38556167521E+03  0.00000000000E+00 0. -1.
    9000007    2    1    2  501    0 -0.25744221693E+03  0.91847815184E+01 -0.11965591464E+03  0.49047949444E+03  0.39986465372E+03 0.  0.
    9000005    1    3    3    0    0 -0.64110780082E+00  0.16170560787E+03 -0.10218384050E+03  0.19128944532E+03  0.99999687468E+00 0.  0.
          4    1    3    3  501    0 -0.25680110913E+03 -0.15252082636E+03 -0.17472074141E+02  0.29919004913E+03  0.00000000000E+00 0.  1.
   -9000007    1    1    2    0  502  0.25744221693E+03 -0.91847815184E+01  0.62254270833E+03  0.78353064967E+03  0.40000000000E+03 0. -1.
<mgrwt>
<rscale>  2 0.47574551E+03</rscale>
<asrwt>0</asrwt>
<pdfrwt beam="1">  1       21 0.13668438E+00 0.47577395E+03</pdfrwt>
<pdfrwt beam="2">  1       21 0.59317181E-01 0.47577395E+03</pdfrwt>
<totfact> 0.84390570E+02</totfact>
</mgrwt>
</event>
<event>
 6    1  0.9190795E-004  0.4281400E+03  0.7818608E-02  0.1034454E+00
         21   -1    0    0  503  502  0.00000000000E+00  0.00000000000E+00  0.30082998031E+03  0.30082998031E+03  0.00000000000E+00 0. -1.
         21   -1    0    0  501  503 -0.00000000000E+00 -0.00000000000E+00 -0.61006387549E+03  0.61006387549E+03  0.00000000000E+00 0. -1.
    9000007    2    1    2  501    0  0.14711340372E+03 -0.40761839572E+02 -0.13779698882E+03  0.44970572284E+03  0.39992917611E+03 0.  0.
    9000005    1    3    3    0    0  0.27432925903E+03 -0.42357820157E+02 -0.16024372954E+03  0.32051486726E+03  0.99999687468E+00 0.  0.
          4    1    3    3  501    0 -0.12721585531E+03  0.15959805853E+01  0.22446740716E+02  0.12919085558E+03  0.00000000000E+00 0.  1.
   -9000007    1    1    2    0  502 -0.14711340372E+03  0.40761839572E+02 -0.17143690637E+03  0.46118813296E+03  0.40000000000E+03 0. -1.
<mgrwt>
<rscale>  2 0.42812348E+03</rscale>
<asrwt>0</asrwt>
<pdfrwt beam="1">  1       21 0.46281536E-01 0.42814003E+03</pdfrwt>
<pdfrwt beam="2">  1       21 0.93855979E-01 0.42814003E+03</pdfrwt>
<totfact> 0.37527774E+03</totfact>
</mgrwt>
</event>
<event>
 6    1  0.9190795E-004  0.5734369E+03  0.7818608E-02  0.9962140E-01
         21   -1    0    0  503  502  0.00000000000E+00  0.00000000000E+00  0.11087042575E+04  0.11087042575E+04  0.00000000000E+00 0.  1.
         21   -1    0    0  501  503 -0.00000000000E+00 -0.00000000000E+00 -0.30278450631E+03  0.30278450631E+03  0.00000000000E+00 0. -1.
    9000007    2    1    2  501    0 -0.37857575426E+03  0.15947114549E+03  0.30174294698E+03  0.64798048105E+03  0.40009905001E+03 0.  0.
    9000005    1    3    3    0    0 -0.14737046530E+03  0.27649979913E+03  0.14627553248E+03  0.34578566246E+03  0.99999687468E+00 0.  0.
          4    1    3    3  501    0 -0.23120528896E+03 -0.11702865365E+03  0.15546741450E+03  0.30219481860E+03  0.00000000000E+00 0.  1.
   -9000007    1    1    2    0  502  0.37857575426E+03 -0.15947114549E+03  0.50417680422E+03  0.76350828278E+03  0.40000000000E+03 0.  1.
<mgrwt>
<rscale>  2 0.57341964E+03</rscale>
<asrwt>0</asrwt>
<pdfrwt beam="1">  1       21 0.17056988E+00 0.57343692E+03</pdfrwt>
<pdfrwt beam="2">  1       21 0.46582232E-01 0.57343692E+03</pdfrwt>
<totfact> 0.74350244E+02</totfact>
</mgrwt>
</event>
<event>
 6    1  0.9190795E-004  0.4695684E+03  0.7818608E-02  0.1022047E+00
         21   -1    0    0  503  502  0.00000000000E+00  0.00000000000E+00  0.82331115637E+03  0.82331115637E+03  0.00000000000E+00 0. -1.
         21   -1    0    0  501  503 -0.00000000000E+00 -0.00000000000E+00 -0.35035175032E+03  0.35035175032E+03  0.00000000000E+00 0. -1.
    9000007    2    1    2  501    0  0.38644099549E+02 -0.24277730224E+03 -0.48401880698E+02  0.47205633871E+03  0.40007531785E+03 0.  0.
    9000005    1    3    3    0    0  0.15418796572E+03 -0.14011395906E+03  0.12245125872E+03  0.24166332169E+03  0.99999687468E+00 0.  0.
          4    1    3    3  501    0 -0.11554386617E+03 -0.10266334318E+03 -0.17085313942E+03  0.23039301702E+03  0.00000000000E+00 0.  1.
   -9000007    1    1    2    0  502 -0.38644099549E+02  0.24277730224E+03  0.52136128675E+03  0.70160656798E+03  0.40000000000E+03 0. -1.
<mgrwt>
<rscale>  2 0.46955232E+03</rscale>
<asrwt>0</asrwt>
<pdfrwt beam="1">  1       21 0.12666325E+00 0.46956836E+03</pdfrwt>
<pdfrwt beam="2">  1       21 0.53900270E-01 0.46956836E+03</pdfrwt>
<totfact> 0.12701780E+03</totfact>
</mgrwt>
</event>
<event>
 6    1  0.9190795E-004  0.4063345E+03  0.7818608E-02  0.1041625E+00
         21   -1    0    0  503  502  0.00000000000E+00  0.00000000000E+00  0.72646737802E+03  0.72646737802E+03  0.00000000000E+00 0. -1.
         21   -1    0    0  501  503 -0.00000000000E+00 -0.00000000000E+00 -0.22802807881E+03  0.22802807881E+03  0.00000000000E+00 0.  1.
    9000007    2    1    2  501    0  0.25980859117E+02  0.66578413251E+02  0.21973918386E+03  0.46176688607E+03  0.39979451972E+03 0.  0.
    9000005    1    3    3    0    0 -0.93422802001E+02 -0.84926940802E+02  0.23654713789E+03  0.26813420827E+03  0.99999687468E+00 0.  0.
          4    1    3    3  501    0  0.11940366112E+03  0.15150535405E+03 -0.16807954022E+02  0.19363267780E+03  0.00000000000E+00 0.  1.
   -9000007    1    1    2    0  502 -0.25980859117E+02 -0.66578413251E+02  0.27870011534E+03  0.49272857076E+03  0.40000000000E+03 0. -1.
<mgrwt>
<rscale>  2 0.40628388E+03</rscale>
<asrwt>0</asrwt>
<pdfrwt beam="1">  1       21 0.11176421E+00 0.40633446E+03</pdfrwt>
<pdfrwt beam="2">  1       21 0.35081243E-01 0.40633446E+03</pdfrwt>
<totfact> 0.43727019E+03</totfact>
</mgrwt>
</event>
<event>
 6    1  0.9190795E-004  0.5199310E+03  0.7818608E-02  0.1008708E+00
         21   -1    0    0  503  502  0.00000000000E+00  0.00000000000E+00  0.81185008508E+03  0.81185008508E+03  0.00000000000E+00 0. -1.
         21   -1    0    0  501  503 -0.00000000000E+00 -0.00000000000E+00 -0.41186822819E+03  0.41186822819E+03  0.00000000000E+00 0. -1.
    9000007    2    1    2  501    0 -0.15976633038E+03  0.29120940226E+03  0.46784554635E+03  0.69937712984E+03  0.39990088549E+03 0.  0.
    9000005    1    3    3    0    0 -0.17149639158E+03  0.78749178211E+02  0.44744999857E+03  0.48561810779E+03  0.99999687468E+00 0.  0.
          4    1    3    3  501    0  0.11730061198E+02  0.21246022405E+03  0.20395547780E+02  0.21375902205E+03  0.00000000000E+00 0.  1.
   -9000007    1    1    2    0  502  0.15976633038E+03 -0.29120940226E+03 -0.67863689461E+02  0.52434118343E+03  0.40000000000E+03 0. -1.
<mgrwt>
<rscale>  2 0.51991189E+03</rscale>
<asrwt>0</asrwt>
<pdfrwt beam="1">  1       21 0.12490001E+00 0.51993095E+03</pdfrwt>
<pdfrwt beam="2">  1       21 0.63364343E-01 0.51993095E+03</pdfrwt>
<totfact> 0.90735540E+02</totfact>
</mgrwt>
</event>
<event>
 6    1  0.9190795E-004  0.5462280E+03  0.7818608E-02  0.1002389E+00
         21   -1    0    0  503  502  0.00000000000E+00  0.00000000000E+00  0.12663082629E+04  0.12663082629E+04  0.00000000000E+00 0.  1.
         21   -1    0    0  501  503 -0.00000000000E+00 -0.00000000000E+00 -0.23852745302E+03  0.23852745302E+03  0.00000000000E+00 0.  1.
    9000007    2    1    2  501    0 -0.12912841907E+03 -0.34835256576E+03  0.42903328617E+03  0.69457510609E+03  0.40042647099E+03 0.  0.
    9000005    1    3    3    0    0 -0.19858050126E+03 -0.82668861164E+01  0.16856213647E+03  0.26060842413E+03  0.99999687468E+00 0.  0.
          4    1    3    3  501    0  0.69452082184E+02 -0.34008567965E+03  0.26047114970E+03  0.43396668196E+03  0.00000000000E+00 0.  1.
   -9000007    1    1    2    0  502  0.12912841907E+03  0.34835256576E+03  0.59874752367E+03  0.81026060980E+03  0.40000000000E+03 0.  1.
<mgrwt>
<rscale>  2 0.54614983E+03</rscale>
<asrwt>0</asrwt>
<pdfrwt beam="1">  1       21 0.19481665E+00 0.54622799E+03</pdfrwt>
<pdfrwt beam="2">  1       21 0.36696532E-01 0.54622799E+03</pdfrwt>
<totfact> 0.83166593E+02</totfact>
</mgrwt>
</event>
<event>
 6    1  0.9190795E-004  0.4425338E+03  0.7818608E-02  0.1030056E+00
         21   -1    0    0  503  502  0.00000000000E+00  0.00000000000E+00  0.22471343709E+03  0.22471343709E+03  0.00000000000E+00 0. -1.
         21   -1    0    0  501  503 -0.00000000000E+00 -0.00000000000E+00 -0.16211727135E+04  0.16211727135E+04  0.00000000000E+00 0. -1.
    9000007    2    1    2  501    0 -0.87472761663E+02  0.16788301464E+03 -0.13262924947E+04  0.13978241371E+04  0.39877856779E+03 0.  0.
    9000005    1    3    3    0    0 -0.23160770727E+03  0.58756362596E+02 -0.96076443366E+03  0.99003218998E+03  0.99999687468E+00 0.  0.
          4    1    3    3  501    0  0.14413494561E+03  0.10912665204E+03 -0.36552806108E+03  0.40779194716E+03  0.00000000000E+00 0.  1.
   -9000007    1    1    2    0  502  0.87472761663E+02 -0.16788301464E+03 -0.70166781661E+02  0.44806201344E+03  0.40000000000E+03 0. -1.
<mgrwt>
<rscale>  2 0.44225764E+03</rscale>
<asrwt>0</asrwt>
<pdfrwt beam="1">  1       21 0.34571297E-01 0.44253383E+03</pdfrwt>
<pdfrwt beam="2">  1       21 0.24941119E+00 0.44253383E+03</pdfrwt>
<totfact> 0.43888487E+02</totfact>
</mgrwt>
</event>
<event>
 6    1  0.9190795E-004  0.4800235E+03  0.7818608E-02  0.1019140E+00
         21   -1    0    0  503  502  0.00000000000E+00  0.00000000000E+00  0.42827726392E+03  0.42827726392E+03  0.00000000000E+00 0. -1.
         21   -1    0    0  501  503 -0.00000000000E+00 -0.00000000000E+00 -0.64472279283E+03  0.64472279283E+03  0.00000000000E+00 0.  1.
    9000007    2    1    2  501    0 -0.26482435290E+03  0.17047822442E+02 -0.32664937492E+03  0.58048868245E+03  0.39980586561E+03 0.  0.
    9000005    1    3    3    0    0 -0.31549923009E+03  0.12916410610E+03 -0.16898853523E+03  0.38050132132E+03  0.99999687468E+00 0.  0.
          4    1    3    3  501    0  0.50674877190E+02 -0.11211628366E+03 -0.15766083969E+03  0.19998736113E+03  0.00000000000E+00 0.  1.
   -9000007    1    1    2    0  502  0.26482435290E+03 -0.17047822442E+02  0.11020384600E+03  0.49251137430E+03  0.40000000000E+03 0. -1.
<mgrwt>
<rscale>  2 0.47998306E+03</rscale>
<asrwt>0</asrwt>
<pdfrwt beam="1">  1       21 0.65888811E-01 0.48002351E+03</pdfrwt>
<pdfrwt beam="2">  1       21 0.99188121E-01 0.48002351E+03</pdfrwt>
<totfact> 0.15017354E+03</totfact>
</mgrwt>
</event>
<event>
 6    1  0.9190795E-004  0.4618087E+03  0.7818608E-02  0.1024460E+00
         21   -1    0    0  503  502  0.00000000000E+00  0.00000000000E+00  0.44171161255E+03  0.44171161255E+03  0.00000000000E+00 0. -1.
         21   -1    0    0  501  503 -0.00000000000E+00 -0.00000000000E+00 -0.50356553732E+03  0.50356553732E+03  0.00000000000E+00 0.  1.
    9000007    2    1    2  501    0 -0.20948564856E+03  0.96866026997E+02  0.71614250838E+02  0.46456827952E+03  0.39677174959E+03 0.  0.
    9000005    1    3    3    0    0 -0.10988669145E+03 -0.26545449583E+02  0.22002375145E+03  0.24736854498E+03  0.99999687468E+00 0.  0.
          4    1    3    3  501    0 -0.99598957117E+02  0.12341147658E+03 -0.14840950061E+03  0.21719973454E+03  0.00000000000E+00 0.  1.
   -9000007    1    1    2    0  502  0.20948564856E+03 -0.96866026997E+02 -0.13346817561E+03  0.48070887036E+03  0.40000000000E+03 0. -1.
<mgrwt>
<rscale>  2 0.46110876E+03</rscale>
<asrwt>0</asrwt>
<pdfrwt beam="1">  1       21 0.67955633E-01 0.46180869E+03</pdfrwt>
<pdfrwt beam="2">  1       21 0.77471621E-01 0.46180869E+03</pdfrwt>
<totfact> 0.25269138E+03</totfact>
</mgrwt>
</event>
<event>
 6    1  0.9190795E-004  0.5718409E+03  0.7818608E-02  0.9965614E-01
         21   -1    0    0  503  502  0.00000000000E+00  0.00000000000E+00  0.10636841065E+04  0.10636841065E+04  0.00000000000E+00 0. -1.
         21   -1    0    0  501  503 -0.00000000000E+00 -0.00000000000E+00 -0.83028004202E+03  0.83028004202E+03  0.00000000000E+00 0.  1.
    9000007    2    1    2  501    0  0.40101189252E+03  0.78686094911E+02 -0.63478403407E+03  0.85437162548E+03  0.39999758129E+03 0.  0.
    9000005    1    3    3    0    0  0.33815527445E+02  0.15361262996E+03 -0.34987366311E+03  0.38360514870E+03  0.99999687468E+00 0.  0.
          4    1    3    3  501    0  0.36719636507E+03 -0.74926535047E+02 -0.28491037096E+03  0.47076647678E+03  0.00000000000E+00 0.  1.
   -9000007    1    1    2    0  502 -0.40101189252E+03 -0.78686094911E+02  0.86818809851E+03  0.10395925230E+04  0.40000000000E+03 0. -1.
<mgrwt>
<rscale>  2 0.57184050E+03</rscale>
<asrwt>0</asrwt>
<pdfrwt beam="1">  1       21 0.16364371E+00 0.57184092E+03</pdfrwt>
<pdfrwt beam="2">  1       21 0.12773539E+00 0.57184092E+03</pdfrwt>
<totfact> 0.80289123E+01</totfact>
</mgrwt>
</event>
<event>
 6    1  0.9190795E-004  0.4391648E+03  0.7818608E-02  0.1031288E+00
         21   -1    0    0  503  502  0.00000000000E+00  0.00000000000E+00  0.68249609868E+03  0.68249609868E+03  0.00000000000E+00 0.  1.
         21   -1    0    0  501  503 -0.00000000000E+00 -0.00000000000E+00 -0.62802669755E+03  0.62802669755E+03  0.00000000000E+00 0. -1.
    9000007    2    1    2  501    0  0.13684666228E+03 -0.10448109833E+03 -0.46034462458E+03  0.63622553986E+03  0.40400798916E+03 0.  0.
    9000005    1    3    3    0    0  0.27911306002E+03 -0.94680566432E+02 -0.28239922235E+03  0.40818969942E+03  0.99999687468E+00 0.  0.
          4    1    3    3  501    0 -0.14226639774E+03 -0.98005319006E+01 -0.17794540222E+03  0.22803584044E+03  0.00000000000E+00 0.  1.
   -9000007    1    1    2    0  502 -0.13684666228E+03  0.10448109833E+03  0.51481402570E+03  0.67429725637E+03  0.40000000000E+03 0.  1.
<mgrwt>
<rscale>  2 0.43824086E+03</rscale>
<asrwt>0</asrwt>
<pdfrwt beam="1">  1       21 0.10499940E+00 0.43916485E+03</pdfrwt>
<pdfrwt beam="2">  1       21 0.96619492E-01 0.43916485E+03</pdfrwt>
<totfact> 0.54810681E+02</totfact>
</mgrwt>
</event>
<event>
 6    1  0.9190795E-004  0.6042754E+03  0.7818608E-02  0.9897709E-01
         21   -1    0    0  503  502  0.00000000000E+00  0.00000000000E+00  0.28299532494E+03  0.28299532494E+03  0.00000000000E+00 0. -1.
         21   -1    0    0  501  503 -0.00000000000E+00 -0.00000000000E+00 -0.23578821971E+04  0.23578821971E+04  0.00000000000E+00 0. -1.
    9000007    2    1    2  501    0  0.44632763031E+03  0.77073790515E+02 -0.19268635823E+04  0.20187363668E+04  0.39666677543E+03 0.  0.
    9000005    1    3    3    0    0  0.34312044068E+03  0.17121729440E+00 -0.18181972685E+04  0.18502902403E+04  0.99999687468E+00 0.  0.
          4    1    3    3  501    0  0.10320718963E+03  0.76902573221E+02 -0.10866631386E+03  0.16844612648E+03  0.00000000000E+00 0.  1.
   -9000007    1    1    2    0  502 -0.44632763031E+03 -0.77073790515E+02 -0.14802328979E+03  0.62214115527E+03  0.40000000000E+03 0. -1.
<mgrwt>
<rscale>  2 0.60372431E+03</rscale>
<asrwt>0</asrwt>
<pdfrwt beam="1">  1       21 0.43537743E-01 0.60427537E+03</pdfrwt>
<pdfrwt beam="2">  1       21 0.36275110E+00 0.60427537E+03</pdfrwt>
<totfact> 0.50907950E+01</totfact>
</mgrwt>
</event>
<event>
 6    1  0.9190795E-004  0.4087571E+03  0.7818608E-02  0.1040789E+00
         21   -1    0    0  503  502  0.00000000000E+00  0.00000000000E+00  0.80071114557E+03  0.80071114557E+03  0.00000000000E+00 0. -1.
         21   -1    0    0  501  503 -0.00000000000E+00 -0.00000000000E+00 -0.24807053653E+03  0.24807053653E+03  0.00000000000E+00 0. -1.
    9000007    2    1    2  501    0  0.77274705612E+02  0.33262067044E+02  0.67320933042E+02  0.41426380754E+03  0.40000581118E+03 0.  0.
    9000005    1    3    3    0    0  0.15143935692E+02  0.18879109340E+03 -0.65608825079E+02  0.20044184607E+03  0.99999687468E+00 0.  0.
          4    1    3    3  501    0  0.62130769919E+02 -0.15552902636E+03  0.13292975812E+03  0.21382196146E+03  0.00000000000E+00 0.  1.
   -9000007    1    1    2    0  502 -0.77274705612E+02 -0.33262067044E+02  0.48531967600E+03  0.63451787457E+03  0.40000000000E+03 0. -1.
<mgrwt>
<rscale>  2 0.40875571E+03</rscale>
<asrwt>0</asrwt>
<pdfrwt beam="1">  1       21 0.12318633E+00 0.40875713E+03</pdfrwt>
<pdfrwt beam="2">  1       21 0.38164698E-01 0.40875713E+03</pdfrwt>
<totfact> 0.28824432E+03</totfact>
</mgrwt>
</event>
<event>
 6    1  0.9190795E-004  0.4602967E+03  0.7818608E-02  0.1024725E+00
         21   -1    0    0  503  502  0.00000000000E+00  0.00000000000E+00  0.62578516683E+03  0.62578516683E+03  0.00000000000E+00 0. -1.
         21   -1    0    0  501  503 -0.00000000000E+00 -0.00000000000E+00 -0.45771204273E+03  0.45771204273E+03  0.00000000000E+00 0. -1.
    9000007    2    1    2  501    0 -0.21995501353E+03 -0.55847078702E+02 -0.19267811799E+03  0.49899694195E+03  0.40046721058E+03 0.  0.
    9000005    1    3    3    0    0 -0.13460705855E+03 -0.22210926957E+03 -0.51488919521E+02  0.26477102687E+03  0.99999687468E+00 0.  0.
          4    1    3    3  501    0 -0.85347954975E+02  0.16626219087E+03 -0.14118919847E+03  0.23422591508E+03  0.00000000000E+00 0.  1.
   -9000007    1    1    2    0  502  0.21995501353E+03  0.55847078702E+02  0.36075124209E+03  0.58450026762E+03  0.40000000000E+03 0.  1.
<mgrwt>
<rscale>  2 0.46019510E+03</rscale>
<asrwt>0</asrwt>
<pdfrwt beam="1">  1       21 0.96274641E-01 0.46029674E+03</pdfrwt>
<pdfrwt beam="2">  1       21 0.70417237E-01 0.46029674E+03</pdfrwt>
<totfact> 0.14007101E+03</totfact>
</mgrwt>
</event>
<event>
 6    1  0.9190795E-004  0.5028263E+03  0.7818608E-02  0.1013081E+00
         21   -1    0    0  503  502  0.00000000000E+00  0.00000000000E+00  0.34463773800E+03  0.34463773800E+03  0.00000000000E+00 0. -1.
         21   -1    0    0  501  503 -0.00000000000E+00 -0.00000000000E+00 -0.10855555259E+04  0.10855555259E+04  0.00000000000E+00 0. -1.
    9000007    2    1    2  501    0  0.47570905302E+02 -0.30095059270E+03 -0.77796133967E+03  0.92600433596E+03  0.39928177259E+03 0.  0.
    9000005    1    3    3    0    0  0.18929713606E+03 -0.71308601955E+02 -0.49626442562E+03  0.53590829679E+03  0.99999687468E+00 0.  0.
          4    1    3    3  501    0 -0.14172623075E+03 -0.22964199075E+03 -0.28169691405E+03  0.39009603918E+03  0.00000000000E+00 0.  1.
   -9000007    1    1    2    0  502 -0.47570905302E+02  0.30095059270E+03  0.37043551804E+02  0.50418892789E+03  0.40000000000E+03 0.  1.
<mgrwt>
<rscale>  2 0.50268341E+03</rscale>
<asrwt>0</asrwt>
<pdfrwt beam="1">  1       21 0.53021190E-01 0.50282626E+03</pdfrwt>
<pdfrwt beam="2">  1       21 0.16700854E+00 0.50282626E+03</pdfrwt>
<totfact> 0.61525194E+02</totfact>
</mgrwt>
</event>
<event>
 6    1  0.9190795E-004  0.5330376E+03  0.7818608E-02  0.1005528E+00
         21   -1    0    0  503  502  0.00000000000E+00  0.00000000000E+00  0.34026290022E+03  0.34026290022E+03  0.00000000000E+00 0. -1.
         21   -1    0    0  501  503 -0.00000000000E+00 -0.00000000000E+00 -0.94646598393E+03  0.94646598393E+03  0.00000000000E+00 0. -1.
    9000007    2    1    2  501    0 -0.17008883894E+03 -0.30769348639E+03 -0.52474602163E+03  0.74798892122E+03  0.40065389595E+03 0.  0.
    9000005    1    3    3    0    0 -0.20751981894E+03 -0.34416640633E+03 -0.26120587070E+03  0.47931669842E+03  0.99999687468E+00 0.  0.
          4    1    3    3  501    0  0.37430979992E+02  0.36472919940E+02 -0.26354015093E+03  0.26867222280E+03  0.00000000000E+00 0.  1.
   -9000007    1    1    2    0  502  0.17008883894E+03  0.30769348639E+03 -0.81457062081E+02  0.53873996294E+03  0.40000000000E+03 0. -1.
<mgrwt>
<rscale>  2 0.53291469E+03</rscale>
<asrwt>0</asrwt>
<pdfrwt beam="1">  1       21 0.52348138E-01 0.53303756E+03</pdfrwt>
<pdfrwt beam="2">  1       21 0.14561015E+00 0.53303756E+03</pdfrwt>
<totfact> 0.91412825E+02</totfact>
</mgrwt>
</event>
<event>
 6    1  0.9190795E-004  0.5084297E+03  0.7818608E-02  0.1011611E+00
         21   -1    0    0  503  502  0.00000000000E+00  0.00000000000E+00  0.13182132068E+04  0.13182132068E+04  0.00000000000E+00 0. -1.
         21   -1    0    0  501  503 -0.00000000000E+00 -0.00000000000E+00 -0.28334400594E+03  0.28334400594E+03  0.00000000000E+00 0. -1.
    9000007    2    1    2  501    0 -0.61294886705E+02 -0.30780464038E+03  0.72885227331E+02  0.51347912497E+03  0.39980969928E+03 0.  0.
    9000005    1    3    3    0    0 -0.21965200834E+03 -0.22258883855E+03 -0.15497841386E+02  0.31310378295E+03  0.99999687468E+00 0.  0.
          4    1    3    3  501    0  0.15835712164E+03 -0.85215801836E+02  0.88383068716E+02  0.20037534202E+03  0.00000000000E+00 0.  1.
   -9000007    1    1    2    0  502  0.61294886705E+02  0.30780464038E+03  0.96198397356E+03  0.10880780878E+04  0.40000000000E+03 0. -1.
<mgrwt>
<rscale>  2 0.50839227E+03</rscale>
<asrwt>0</asrwt>
<pdfrwt beam="1">  1       21 0.20280203E+00 0.50842970E+03</pdfrwt>
<pdfrwt beam="2">  1       21 0.43591386E-01 0.50842970E+03</pdfrwt>
<totfact> 0.52258249E+02</totfact>
</mgrwt>
</event>
<event>
 6    1  0.9190795E-004  0.4275234E+03  0.7818608E-02  0.1034650E+00
         21   -1    0    0  503  502  0.00000000000E+00  0.00000000000E+00  0.72112473426E+03  0.72112473426E+03  0.00000000000E+00 0. -1.
         21   -1    0    0  501  503 -0.00000000000E+00 -0.00000000000E+00 -0.26477094384E+03  0.26477094384E+03  0.00000000000E+00 0. -1.
    9000007    2    1    2  501    0  0.14734978744E+02 -0.15000819286E+03  0.12613062279E+03  0.44574114653E+03  0.40007081646E+03 0.  0.
    9000005    1    3    3    0    0 -0.15135622079E+00 -0.16983828187E+02 -0.14361023687E+03  0.14461456861E+03  0.99999687468E+00 0.  0.
          4    1    3    3  501    0  0.14886334965E+02 -0.13302436468E+03  0.26974085965E+03  0.30112657792E+03  0.00000000000E+00 0.  1.
   -9000007    1    1    2    0  502 -0.14734978744E+02  0.15000819286E+03  0.33022316763E+03  0.54015453156E+03  0.40000000000E+03 0. -1.
<mgrwt>
<rscale>  2 0.42750681E+03</rscale>
<asrwt>0</asrwt>
<pdfrwt beam="1">  1       21 0.11094227E+00 0.42752337E+03</pdfrwt>
<pdfrwt beam="2">  1       21 0.40733992E-01 0.42752337E+03</pdfrwt>
<totfact> 0.32569804E+03</totfact>
</mgrwt>
</event>
<event>
 6    1  0.9190795E-004  0.4277767E+03  0.7818608E-02  0.1034619E+00
         21   -1    0    0  503  502  0.00000000000E+00  0.00000000000E+00  0.15918489244E+03  0.15918489244E+03  0.00000000000E+00 0.  1.
         21   -1    0    0  501  503 -0.00000000000E+00 -0.00000000000E+00 -0.11557147162E+04  0.11557147162E+04  0.00000000000E+00 0.  1.
    9000007    2    1    2  501    0  0.79322417297E+02 -0.12923178152E+03 -0.44322584676E+03  0.61551545797E+03  0.39927087111E+03 0.  0.
    9000005    1    3    3    0    0 -0.95383033645E+02  0.58885945070E+02 -0.10797253498E+02  0.11261908502E+03  0.99999687468E+00 0.  0.
          4    1    3    3  501    0  0.17470545094E+03 -0.18811772659E+03 -0.43242859327E+03  0.50289637295E+03  0.00000000000E+00 0.  1.
   -9000007    1    1    2    0  502 -0.79322417297E+02  0.12923178152E+03 -0.55330397699E+03  0.69938415066E+03  0.40000000000E+03 0.  1.
<mgrwt>
<rscale>  2 0.42760616E+03</rscale>
<asrwt>0</asrwt>
<pdfrwt beam="1">  1       21 0.24489985E-01 0.42777669E+03</pdfrwt>
<pdfrwt beam="2">  1       21 0.17780226E+00 0.42777669E+03</pdfrwt>
<totfact> 0.25589404E+03</totfact>
</mgrwt>
</event>
<event>
 6    1  0.9190795E-004  0.5175791E+03  0.7818608E-02  0.1009304E+00
         21   -1    0    0  503  502  0.00000000000E+00  0.00000000000E+00  0.46871783544E+03  0.46871783544E+03  0.00000000000E+00 0.  1.
         21   -1    0    0  501  503 -0.00000000000E+00 -0.00000000000E+00 -0.57325351962E+03  0.57325351962E+03  0.00000000000E+00 0.  1.
    9000007    2    1    2  501    0  0.43277525552E+02 -0.32523758899E+03 -0.82828889820E+02  0.52416480968E+03  0.40029450309E+03 0.  0.
    9000005    1    3    3    0    0  0.20736051896E+03 -0.13415636867E+03  0.28842530388E+02  0.24865479611E+03  0.99999687468E+00 0.  0.
          4    1    3    3  501    0 -0.16408299341E+03 -0.19108122033E+03 -0.11167142021E+03  0.27551001357E+03  0.00000000000E+00 0.  1.
   -9000007    1    1    2    0  502 -0.43277525552E+02  0.32523758899E+03 -0.21706794352E+02  0.51780654538E+03  0.40000000000E+03 0.  1.
<mgrwt>
<rscale>  2 0.51752216E+03</rscale>
<asrwt>0</asrwt>
<pdfrwt beam="1">  1       21 0.72110436E-01 0.51757910E+03</pdfrwt>
<pdfrwt beam="2">  1       21 0.88192849E-01 0.51757910E+03</pdfrwt>
<totfact> 0.16029719E+03</totfact>
</mgrwt>
</event>
<event>
 6    1  0.9190795E-004  0.5762165E+03  0.7818608E-02  0.9957789E-01
         21   -1    0    0  503  502  0.00000000000E+00  0.00000000000E+00  0.36136981688E+03  0.36136981688E+03  0.00000000000E+00 0.  1.
         21   -1    0    0  501  503 -0.00000000000E+00 -0.00000000000E+00 -0.91644136966E+03  0.91644136966E+03  0.00000000000E+00 0.  1.
    9000007    2    1    2  501    0 -0.24868063800E+03  0.33193881381E+03 -0.24141796079E+03  0.62175935047E+03  0.39531838090E+03 0.  0.
    9000005    1    3    3    0    0 -0.52006728557E+02 -0.87709005454E+02 -0.65223159967E+01  0.10218175010E+03  0.99999687468E+00 0.  0.
          4    1    3    3  501    0 -0.19667390944E+03  0.41964781927E+03 -0.23489564480E+03  0.51957760038E+03  0.00000000000E+00 0.  1.
   -9000007    1    1    2    0  502  0.24868063800E+03 -0.33193881381E+03 -0.31365359199E+03  0.65605183606E+03  0.40000000000E+03 0.  1.
<mgrwt>
<rscale>  2 0.57540477E+03</rscale>
<asrwt>0</asrwt>
<pdfrwt beam="1">  1       21 0.55595357E-01 0.57621648E+03</pdfrwt>
<pdfrwt beam="2">  1       21 0.14099098E+00 0.57621648E+03</pdfrwt>
<totfact> 0.86257125E+02</totfact>
</mgrwt>
</event>
<event>
 6    1  0.9190795E-004  0.4059871E+03  0.7818608E-02  0.1041857E+00
         21   -1    0    0  503  502  0.00000000000E+00  0.00000000000E+00  0.13909463755E+03  0.13909463755E+03  0.00000000000E+00 0.  1.
         21   -1    0    0  501  503 -0.00000000000E+00 -0.00000000000E+00 -0.12333903014E+04  0.12333903014E+04  0.00000000000E+00 0.  1.
    9000007    2    1    2  501    0 -0.55298211659E+02 -0.22874094261E+02 -0.40604777884E+03  0.57419535013E+03  0.40155246856E+03 0.  0.
    9000005    1    3    3    0    0  0.14129511729E+03 -0.64890424791E+02 -0.31949597533E+03  0.35532204497E+03  0.99999687468E+00 0.  0.
          4    1    3    3  501    0 -0.19659332895E+03  0.42016330529E+02 -0.86551803514E+02  0.21887330516E+03  0.00000000000E+00 0.  1.
   -9000007    1    1    2    0  502  0.55298211659E+02  0.22874094261E+02 -0.68824788506E+03  0.79828958886E+03  0.40000000000E+03 0. -1.
<mgrwt>
<rscale>  2 0.40560266E+03</rscale>
<asrwt>0</asrwt>
<pdfrwt beam="1">  1       21 0.21399174E-01 0.40598707E+03</pdfrwt>
<pdfrwt beam="2">  1       21 0.18975236E+00 0.40598707E+03</pdfrwt>
<totfact> 0.27667906E+03</totfact>
</mgrwt>
</event>
<event>
 6    1  0.9190795E-004  0.4827151E+03  0.7818608E-02  0.1018412E+00
         21   -1    0    0  503  502  0.00000000000E+00  0.00000000000E+00  0.22623989021E+03  0.22623989021E+03  0.00000000000E+00 0. -1.
         21   -1    0    0  501  503 -0.00000000000E+00 -0.00000000000E+00 -0.10294414363E+04  0.10294414363E+04  0.00000000000E+00 0. -1.
    9000007    2    1    2  501    0  0.26390726519E+03  0.55451208312E+02 -0.39426647235E+03  0.62326550157E+03  0.40036477505E+03 0.  0.
    9000005    1    3    3    0    0  0.12341239728E+03 -0.12100439800E+03 -0.44510322254E+01  0.17289735631E+03  0.99999687468E+00 0.  0.
          4    1    3    3  501    0  0.14049486791E+03  0.17645560631E+03 -0.38981544013E+03  0.45036814526E+03  0.00000000000E+00 0.  1.
   -9000007    1    1    2    0  502 -0.26390726519E+03 -0.55451208312E+02 -0.40893507377E+03  0.63241582498E+03  0.40000000000E+03 0. -1.
<mgrwt>
<rscale>  2 0.48263942E+03</rscale>
<asrwt>0</asrwt>
<pdfrwt beam="1">  1       21 0.34806136E-01 0.48271507E+03</pdfrwt>
<pdfrwt beam="2">  1       21 0.15837561E+00 0.48271507E+03</pdfrwt>
<totfact> 0.17322623E+03</totfact>
</mgrwt>
</event>
<event>
 6    1  0.9190795E-004  0.4465933E+03  0.7818608E-02  0.1028762E+00
         21   -1    0    0  503  502  0.00000000000E+00  0.00000000000E+00  0.79531905287E+02  0.79531905287E+02  0.00000000000E+00 0. -1.
         21   -1    0    0  501  503 -0.00000000000E+00 -0.00000000000E+00 -0.28172042174E+04  0.28172042174E+04  0.00000000000E+00 0.  1.
    9000007    2    1    2  501    0 -0.14775787022E+03 -0.13271462473E+03 -0.88732162472E+03  0.99325425354E+03  0.39971087883E+03 0.  0.
    9000005    1    3    3    0    0  0.98992561341E+02  0.60934678445E+01 -0.53530514455E+02  0.11270835605E+03  0.99999687468E+00 0.  0.
          4    1    3    3  501    0 -0.24675043156E+03 -0.13880809257E+03 -0.83379111026E+03  0.88054589750E+03  0.00000000000E+00 0.  1.
   -9000007    1    1    2    0  502  0.14775787022E+03  0.13271462473E+03 -0.18503506874E+04  0.19034818692E+04  0.40000000000E+03 0.  1.
<mgrwt>
<rscale>  2 0.44652853E+03</rscale>
<asrwt>0</asrwt>
<pdfrwt beam="1">  1       21 0.12235679E-01 0.44659328E+03</pdfrwt>
<pdfrwt beam="2">  1       21 0.43341598E+00 0.44659328E+03</pdfrwt>
<totfact> 0.23121798E+02</totfact>
</mgrwt>
</event>
<event>
 6    1  0.9190795E-004  0.5230246E+03  0.7818608E-02  0.1007941E+00
         21   -1    0    0  503  502  0.00000000000E+00  0.00000000000E+00  0.28997254976E+03  0.28997254976E+03  0.00000000000E+00 0. -1.
         21   -1    0    0  501  503 -0.00000000000E+00 -0.00000000000E+00 -0.13061126250E+04  0.13061126250E+04  0.00000000000E+00 0. -1.
    9000007    2    1    2  501    0  0.29117291584E+03  0.16946429476E+03 -0.92870354936E+03  0.10658541306E+04  0.40006865778E+03 0.  0.
    9000005    1    3    3    0    0  0.17218789816E+03  0.29856291017E+02 -0.70796145302E+02  0.18855546815E+03  0.99999687468E+00 0.  0.
          4    1    3    3  501    0  0.11898501768E+03  0.13960800375E+03 -0.85790740406E+03  0.87729866242E+03  0.00000000000E+00 0.  1.
   -9000007    1    1    2    0  502 -0.29117291584E+03 -0.16946429476E+03 -0.87436525826E+02  0.53023104414E+03  0.40000000000E+03 0. -1.
<mgrwt>
<rscale>  2 0.52301148E+03</rscale>
<asrwt>0</asrwt>
<pdfrwt beam="1">  1       21 0.44611161E-01 0.52302461E+03</pdfrwt>
<pdfrwt beam="2">  1       21 0.20094041E+00 0.52302461E+03</pdfrwt>
<totfact> 0.50920029E+02</totfact>
</mgrwt>
</event>
<event>
 6    1  0.9190795E-004  0.5548537E+03  0.7818608E-02  0.1000483E+00
         21   -1    0    0  503  502  0.00000000000E+00  0.00000000000E+00  0.31936721995E+03  0.31936721995E+03  0.00000000000E+00 0.  1.
         21   -1    0    0  501  503 -0.00000000000E+00 -0.00000000000E+00 -0.14457551025E+04  0.14457551025E+04  0.00000000000E+00 0.  1.
    9000007    2    1    2  501    0  0.79347345944E+02  0.37350542609E+03 -0.10749986513E+04  0.12097457315E+04  0.40256717452E+03 0.  0.
    9000005    1    3    3    0    0 -0.16827822101E+02 -0.77650620032E+02 -0.27532059577E+03  0.28655754193E+03  0.99999687468E+00 0.  0.
          4    1    3    3  501    0  0.96175168045E+02  0.45115604612E+03 -0.79967805556E+03  0.92318818961E+03  0.00000000000E+00 0.  1.
   -9000007    1    1    2    0  502 -0.79347345944E+02 -0.37350542609E+03 -0.51389231216E+02  0.55537659089E+03  0.40000000000E+03 0.  1.
<mgrwt>
<rscale>  2 0.55438818E+03</rscale>
<asrwt>0</asrwt>
<pdfrwt beam="1">  1       21 0.49133419E-01 0.55485371E+03</pdfrwt>
<pdfrwt beam="2">  1       21 0.22242386E+00 0.55485371E+03</pdfrwt>
<totfact> 0.29623886E+02</totfact>
</mgrwt>
</event>
<event>
 6    1  0.9190795E-004  0.5007424E+03  0.7818608E-02  0.1013595E+00
         21   -1    0    0  503  502  0.00000000000E+00  0.00000000000E+00  0.29640208998E+03  0.29640208998E+03  0.00000000000E+00 0.  1.
         21   -1    0    0  501  503 -0.00000000000E+00 -0.00000000000E+00 -0.11743559637E+04  0.11743559637E+04  0.00000000000E+00 0.  1.
    9000007    2    1    2  501    0 -0.23571071279E+03  0.18757244506E+03 -0.82796071339E+03  0.96752622009E+03  0.39980630483E+03 0.  0.
    9000005    1    3    3    0    0 -0.97135286690E+02 -0.51158257772E+02 -0.17280604630E+02  0.11113977933E+03  0.99999687468E+00 0.  0.
          4    1    3    3  501    0 -0.13857542610E+03  0.23873070283E+03 -0.81068010876E+03  0.85638644076E+03  0.00000000000E+00 0.  1.
   -9000007    1    1    2    0  502  0.23571071279E+03 -0.18757244506E+03 -0.49993160337E+02  0.50323183360E+03  0.40000000000E+03 0.  1.
<mgrwt>
<rscale>  2 0.50070373E+03</rscale>
<asrwt>0</asrwt>
<pdfrwt beam="1">  1       21 0.45600322E-01 0.50074241E+03</pdfrwt>
<pdfrwt beam="2">  1       21 0.18067015E+00 0.50074241E+03</pdfrwt>
<totfact> 0.67621142E+02</totfact>
</mgrwt>
</event>
<event>
 6    1  0.9190795E-004  0.9138870E+03  0.7818608E-02  0.9408532E-01
         21   -1    0    0  503  502  0.00000000000E+00  0.00000000000E+00  0.10183816567E+04  0.10183816567E+04  0.00000000000E+00 0. -1.
         21   -1    0    0  501  503 -0.00000000000E+00 -0.00000000000E+00 -0.13795741390E+04  0.13795741390E+04  0.00000000000E+00 0.  1.
    9000007    2    1    2  501    0  0.43739429745E+03 -0.69561166832E+03 -0.94438393687E+03  0.13138425003E+04  0.39891318701E+03 0.  0.
    9000005    1    3    3    0    0 -0.60241243587E+02 -0.85698482040E+02 -0.22186501996E+03  0.24535346814E+03  0.99999687468E+00 0.  0.
          4    1    3    3  501    0  0.49763554104E+03 -0.60991318628E+03 -0.72251891691E+03  0.10684890321E+04  0.00000000000E+00 0.  1.
   -9000007    1    1    2    0  502 -0.43739429745E+03  0.69561166832E+03  0.58319145462E+03  0.10841132954E+04  0.40000000000E+03 0. -1.
<mgrwt>
<rscale>  2 0.91376814E+03</rscale>
<asrwt>0</asrwt>
<pdfrwt beam="1">  1       21 0.15667410E+00 0.91388695E+03</pdfrwt>
<pdfrwt beam="2">  1       21 0.21224217E+00 0.91388695E+03</pdfrwt>
<totfact> 0.18528574E+01</totfact>
</mgrwt>
</event>
<event>
 6    1  0.9190795E-004  0.4745837E+03  0.7818608E-02  0.1020709E+00
         21   -1    0    0  503  502  0.00000000000E+00  0.00000000000E+00  0.95182609250E+03  0.95182609250E+03  0.00000000000E+00 0. -1.
         21   -1    0    0  501  503 -0.00000000000E+00 -0.00000000000E+00 -0.24324385647E+03  0.24324385647E+03  0.00000000000E+00 0. -1.
    9000007    2    1    2  501    0  0.12153076346E+03 -0.22235638205E+03  0.45712424225E+03  0.65893264404E+03  0.40126994583E+03 0.  0.
    9000005    1    3    3    0    0  0.25605815595E+03 -0.12960005925E+03  0.18478849290E+03  0.34133523359E+03  0.99999687468E+00 0.  0.
          4    1    3    3  501    0 -0.13452739249E+03 -0.92756322795E+02  0.27233574935E+03  0.31759741045E+03  0.00000000000E+00 0.  1.
   -9000007    1    1    2    0  502 -0.12153076346E+03  0.22235638205E+03  0.25145799378E+03  0.53613730493E+03  0.40000000000E+03 0. -1.
<mgrwt>
<rscale>  2 0.47431512E+03</rscale>
<asrwt>0</asrwt>
<pdfrwt beam="1">  1       21 0.14643478E+00 0.47458367E+03</pdfrwt>
<pdfrwt beam="2">  1       21 0.37422132E-01 0.47458367E+03</pdfrwt>
<totfact> 0.18583942E+03</totfact>
</mgrwt>
</event>
<event>
 6    1  0.9190795E-004  0.5734934E+03  0.7818608E-02  0.9962358E-01
         21   -1    0    0  503  502  0.00000000000E+00  0.00000000000E+00  0.22469319132E+03  0.22469319132E+03  0.00000000000E+00 0. -1.
         21   -1    0    0  501  503 -0.00000000000E+00 -0.00000000000E+00 -0.15027431481E+04  0.15027431481E+04  0.00000000000E+00 0. -1.
    9000007    2    1    2  501    0  0.19998390042E+03  0.35902806445E+03 -0.49640124567E+03  0.75796771225E+03  0.39900644685E+03 0.  0.
    9000005    1    3    3    0    0  0.84113786382E+02  0.20201908127E+03 -0.51733336595E+03  0.56171313833E+03  0.99999687468E+00 0.  0.
          4    1    3    3  501    0  0.11587011403E+03  0.15700898318E+03  0.20932120279E+02  0.19625457392E+03  0.00000000000E+00 0.  1.
   -9000007    1    1    2    0  502 -0.19998390042E+03 -0.35902806445E+03 -0.78164871111E+03  0.96946862717E+03  0.40000000000E+03 0. -1.
<mgrwt>
<rscale>  2 0.57332021E+03</rscale>
<asrwt>0</asrwt>
<pdfrwt beam="1">  1       21 0.34568184E-01 0.57349343E+03</pdfrwt>
<pdfrwt beam="2">  1       21 0.23119125E+00 0.57349343E+03</pdfrwt>
<totfact> 0.53685216E+02</totfact>
</mgrwt>
</event>
<event>
 6    1  0.9190795E-004  0.4221917E+03  0.7818608E-02  0.1036412E+00
         21   -1    0    0  503  502  0.00000000000E+00  0.00000000000E+00  0.22549864785E+03  0.22549864785E+03  0.00000000000E+00 0. -1.
         21   -1    0    0  501  503 -0.00000000000E+00 -0.00000000000E+00 -0.93561700312E+03  0.93561700312E+03  0.00000000000E+00 0. -1.
    9000007    2    1    2  501    0 -0.37651217291E+02  0.12744027203E+03 -0.58500943870E+03  0.72144432133E+03  0.40073336312E+03 0.  0.
    9000005    1    3    3    0    0  0.14646356200E+03  0.16954625925E+03 -0.24141691323E+03  0.32936398559E+03  0.99999687468E+00 0.  0.
          4    1    3    3  501    0 -0.18411477929E+03 -0.42105987221E+02 -0.34359252547E+03  0.39208033574E+03  0.00000000000E+00 0.  1.
   -9000007    1    1    2    0  502  0.37651217291E+02 -0.12744027203E+03 -0.12510891657E+03  0.43967132963E+03  0.40000000000E+03 0.  1.
<mgrwt>
<rscale>  2 0.42201763E+03</rscale>
<asrwt>0</asrwt>
<pdfrwt beam="1">  1       21 0.34692100E-01 0.42219174E+03</pdfrwt>
<pdfrwt beam="2">  1       21 0.14394108E+00 0.42219174E+03</pdfrwt>
<totfact> 0.23172807E+03</totfact>
</mgrwt>
</event>
<event>
 6    1  0.9190795E-004  0.4248066E+03  0.7818608E-02  0.1035562E+00
         21   -1    0    0  503  502  0.00000000000E+00  0.00000000000E+00  0.98523759170E+03  0.98523759170E+03  0.00000000000E+00 0.  1.
         21   -1    0    0  501  503 -0.00000000000E+00 -0.00000000000E+00 -0.19093819631E+03  0.19093819631E+03  0.00000000000E+00 0.  1.
    9000007    2    1    2  501    0  0.14073136416E+03 -0.11842072347E+02  0.27678157318E+03  0.50701941776E+03  0.40064335661E+03 0.  0.
    9000005    1    3    3    0    0  0.26003304014E+02  0.13631362378E+03  0.28759231980E+03  0.31932415857E+03  0.99999687468E+00 0.  0.
          4    1    3    3  501    0  0.11472806015E+03 -0.14815569612E+03 -0.10810746615E+02  0.18769525919E+03  0.00000000000E+00 0.  1.
   -9000007    1    1    2    0  502 -0.14073136416E+03  0.11842072347E+02  0.51751782221E+03  0.66915637025E+03  0.40000000000E+03 0.  1.
<mgrwt>
<rscale>  2 0.42465485E+03</rscale>
<asrwt>0</asrwt>
<pdfrwt beam="1">  1       21 0.15157501E+00 0.42480660E+03</pdfrwt>
<pdfrwt beam="2">  1       21 0.29375108E-01 0.42480660E+03</pdfrwt>
<totfact> 0.28080587E+03</totfact>
</mgrwt>
</event>
<event>
 6    1  0.9190795E-004  0.4488077E+03  0.7818608E-02  0.1028141E+00
         21   -1    0    0  503  502  0.00000000000E+00  0.00000000000E+00  0.21927722647E+03  0.21927722647E+03  0.00000000000E+00 0. -1.
         21   -1    0    0  501  503 -0.00000000000E+00 -0.00000000000E+00 -0.14487383641E+04  0.14487383641E+04  0.00000000000E+00 0. -1.
    9000007    2    1    2  501    0  0.89635147550E+02 -0.18065555583E+03 -0.11204277426E+04  0.12069741925E+04  0.40094573869E+03 0.  0.
    9000005    1    3    3    0    0  0.20987651223E+03 -0.21256608430E+03 -0.95077546800E+03  0.99659795361E+03  0.99999687468E+00 0.  0.
          4    1    3    3  501    0 -0.12024136468E+03  0.31910528468E+02 -0.16965227463E+03  0.21037623890E+03  0.00000000000E+00 0.  1.
   -9000007    1    1    2    0  502 -0.89635147550E+02  0.18065555583E+03 -0.10903339502E+03  0.46104139810E+03  0.40000000000E+03 0. -1.
<mgrwt>
<rscale>  2 0.44859641E+03</rscale>
<asrwt>0</asrwt>
<pdfrwt beam="1">  1       21 0.33734958E-01 0.44880773E+03</pdfrwt>
<pdfrwt beam="2">  1       21 0.22288283E+00 0.44880773E+03</pdfrwt>
<totfact> 0.67287761E+02</totfact>
</mgrwt>
</event>
<event>
 6    1  0.9190795E-004  0.4929758E+03  0.7818608E-02  0.1015712E+00
         21   -1    0    0  503  502  0.00000000000E+00  0.00000000000E+00  0.35439872759E+03  0.35439872759E+03  0.00000000000E+00 0.  1.
         21   -1    0    0  501  503 -0.00000000000E+00 -0.00000000000E+00 -0.16692440320E+04  0.16692440320E+04  0.00000000000E+00 0. -1.
    9000007    2    1    2  501    0  0.24735797507E+03 -0.14356835295E+03 -0.14351093585E+04  0.15174201974E+04  0.40153124998E+03 0.  0.
    9000005    1    3    3    0    0  0.53958596704E+02  0.13601104115E+03 -0.55416036971E+03  0.57315377415E+03  0.99999687468E+00 0.  0.
          4    1    3    3  501    0  0.19339937837E+03 -0.27957939410E+03 -0.88094898880E+03  0.94426642322E+03  0.00000000000E+00 0.  1.
   -9000007    1    1    2    0  502 -0.24735797507E+03  0.14356835295E+03  0.12026405409E+03  0.50622256222E+03  0.40000000000E+03 0.  1.
<mgrwt>
<rscale>  2 0.49266395E+03</rscale>
<asrwt>0</asrwt>
<pdfrwt beam="1">  1       21 0.54522881E-01 0.49297585E+03</pdfrwt>
<pdfrwt beam="2">  1       21 0.25680678E+00 0.49297585E+03</pdfrwt>
<totfact> 0.14861280E+02</totfact>
</mgrwt>
</event>
<event>
 6    1  0.9190795E-004  0.4293196E+03  0.7818608E-02  0.1034109E+00
         21   -1    0    0  503  502  0.00000000000E+00  0.00000000000E+00  0.36746429767E+03  0.36746429767E+03  0.00000000000E+00 0. -1.
         21   -1    0    0  501  503 -0.00000000000E+00 -0.00000000000E+00 -0.54935756439E+03  0.54935756439E+03  0.00000000000E+00 0. -1.
    9000007    2    1    2  501    0  0.14583051503E+03  0.55215456542E+02 -0.22679406735E+03  0.48516068978E+03  0.39953730761E+03 0.  0.
    9000005    1    3    3    0    0  0.27738730100E+03  0.88375291148E+02 -0.17659126764E+03  0.34049872635E+03  0.99999687468E+00 0.  0.
          4    1    3    3  501    0 -0.13155678597E+03 -0.33159834606E+02 -0.50202799710E+02  0.14466196344E+03  0.00000000000E+00 0.  1.
   -9000007    1    1    2    0  502 -0.14583051503E+03 -0.55215456542E+02  0.44900800628E+02  0.43166117228E+03  0.40000000000E+03 0. -1.
<mgrwt>
<rscale>  2 0.42921176E+03</rscale>
<asrwt>0</asrwt>
<pdfrwt beam="1">  1       21 0.56532969E-01 0.42931956E+03</pdfrwt>
<pdfrwt beam="2">  1       21 0.84516548E-01 0.42931956E+03</pdfrwt>
<totfact> 0.31354452E+03</totfact>
</mgrwt>
</event>
<event>
 6    1  0.9190795E-004  0.4200976E+03  0.7818608E-02  0.1037389E+00
         21   -1    0    0  503  502  0.00000000000E+00  0.00000000000E+00  0.17427504954E+03  0.17427504954E+03  0.00000000000E+00 0.  1.
         21   -1    0    0  501  503 -0.00000000000E+00 -0.00000000000E+00 -0.10050604247E+04  0.10050604247E+04  0.00000000000E+00 0.  1.
    9000007    2    1    2  501    0  0.43405482154E+02 -0.12082188281E+03 -0.44442736416E+03  0.60858642613E+03  0.39544884980E+03 0.  0.
    9000005    1    3    3    0    0 -0.12629054546E+01  0.61222358297E+02  0.50483198693E+02  0.79368289825E+02  0.99999687468E+00 0.  0.
          4    1    3    3  501    0  0.44668387609E+02 -0.18204424110E+03 -0.49491056285E+03  0.52921813630E+03  0.00000000000E+00 0.  1.
   -9000007    1    1    2    0  502 -0.43405482154E+02  0.12082188281E+03 -0.38635801099E+03  0.57074904809E+03  0.40000000000E+03 0.  1.
<mgrwt>
<rscale>  2 0.41901058E+03</rscale>
<asrwt>0</asrwt>
<pdfrwt beam="1">  1       21 0.26811546E-01 0.42009756E+03</pdfrwt>
<pdfrwt beam="2">  1       21 0.15462468E+00 0.42009756E+03</pdfrwt>
<totfact> 0.31896052E+03</totfact>
</mgrwt>
</event>
<event>
 6    1  0.9190795E-004  0.4008136E+03  0.7818608E-02  0.1043548E+00
         21   -1    0    0  503  502  0.00000000000E+00  0.00000000000E+00  0.11099400808E+03  0.11099400808E+03  0.00000000000E+00 0.  1.
         21   -1    0    0  501  503 -0.00000000000E+00 -0.00000000000E+00 -0.16615173010E+04  0.16615173010E+04  0.00000000000E+00 0.  1.
    9000007    2    1    2  501    0  0.18163571713E+02 -0.17934199230E+02 -0.10944833696E+04  0.11653672055E+04  0.39941873581E+03 0.  0.
    9000005    1    3    3    0    0 -0.11418272438E+03 -0.85062795332E+02 -0.14094094739E+03  0.20034651068E+03  0.99999687468E+00 0.  0.
          4    1    3    3  501    0  0.13234629609E+03  0.67128596103E+02 -0.95354242221E+03  0.96502069484E+03  0.00000000000E+00 0.  1.
   -9000007    1    1    2    0  502 -0.18163571713E+02  0.17934199230E+02 -0.45603992330E+03  0.60714410356E+03  0.40000000000E+03 0.  1.
<mgrwt>
<rscale>  2 0.40066851E+03</rscale>
<asrwt>0</asrwt>
<pdfrwt beam="1">  1       21 0.17076002E-01 0.40081361E+03</pdfrwt>
<pdfrwt beam="2">  1       21 0.25561803E+00 0.40081361E+03</pdfrwt>
<totfact> 0.16168635E+03</totfact>
</mgrwt>
</event>
<event>
 6    1  0.9190795E-004  0.4105030E+03  0.7818608E-02  0.1040211E+00
         21   -1    0    0  503  502  0.00000000000E+00  0.00000000000E+00  0.14819351791E+04  0.14819351791E+04  0.00000000000E+00 0. -1.
         21   -1    0    0  501  503 -0.00000000000E+00 -0.00000000000E+00 -0.11618221775E+03  0.11618221775E+03  0.00000000000E+00 0.  1.
    9000007    2    1    2  501    0  0.30916242572E+02  0.86430366294E+02  0.56574350852E+03  0.69898384343E+03  0.40010832743E+03 0.  0.
    9000005    1    3    3    0    0 -0.11045113507E+03 -0.19726987188E+02  0.64209280398E+01  0.11238699023E+03  0.99999687468E+00 0.  0.
          4    1    3    3  501    0  0.14136737764E+03  0.10615735348E+03  0.55932258048E+03  0.58659685321E+03  0.00000000000E+00 0.  1.
   -9000007    1    1    2    0  502 -0.30916242572E+02 -0.86430366294E+02  0.80000945281E+03  0.89913355340E+03  0.40000000000E+03 0.  1.
<mgrwt>
<rscale>  2 0.41047658E+03</rscale>
<asrwt>0</asrwt>
<pdfrwt beam="1">  1       21 0.22799001E+00 0.41050298E+03</pdfrwt>
<pdfrwt beam="2">  1       21 0.17874188E-01 0.41050298E+03</pdfrwt>
<totfact> 0.21866247E+03</totfact>
</mgrwt>
</event>
<event>
 6    1  0.9190795E-004  0.4174500E+03  0.7818608E-02  0.1037981E+00
         21   -1    0    0  503  502  0.00000000000E+00  0.00000000000E+00  0.31606313224E+03  0.31606313224E+03  0.00000000000E+00 0.  1.
         21   -1    0    0  501  503 -0.00000000000E+00 -0.00000000000E+00 -0.55665538000E+03  0.55665538000E+03  0.00000000000E+00 0.  1.
    9000007    2    1    2  501    0  0.10681612112E+03  0.53430311629E+02 -0.72644517446E+02  0.42275082223E+03  0.39896935954E+03 0.  0.
    9000005    1    3    3    0    0 -0.10842631895E+03  0.14139802887E+03  0.30582883920E+01  0.17821341794E+03  0.99999687468E+00 0.  0.
          4    1    3    3  501    0  0.21524244007E+03 -0.87967717246E+02 -0.75702805838E+02  0.24453740429E+03  0.00000000000E+00 0.  1.
   -9000007    1    1    2    0  502 -0.10681612112E+03 -0.53430311629E+02 -0.16794773032E+03  0.44996769001E+03  0.40000000000E+03 0. -1.
<mgrwt>
<rscale>  2 0.41720289E+03</rscale>
<asrwt>0</asrwt>
<pdfrwt beam="1">  1       21 0.48625098E-01 0.41744998E+03</pdfrwt>
<pdfrwt beam="2">  1       21 0.85639288E-01 0.41744998E+03</pdfrwt>
<totfact> 0.42153656E+03</totfact>
</mgrwt>
</event>
<event>
 6    1  0.9190795E-004  0.5498589E+03  0.7818608E-02  0.1001579E+00
         21   -1    0    0  503  502  0.00000000000E+00  0.00000000000E+00  0.28957120171E+03  0.28957120171E+03  0.00000000000E+00 0. -1.
         21   -1    0    0  501  503 -0.00000000000E+00 -0.00000000000E+00 -0.10533627243E+04  0.10533627243E+04  0.00000000000E+00 0.  1.
    9000007    2    1    2  501    0  0.14902801174E+03  0.34660566859E+03 -0.45009397033E+03  0.70988496102E+03  0.39875711651E+03 0.  0.
    9000005    1    3    3    0    0  0.13715129005E+03  0.25918282997E+03 -0.46669941532E+02  0.29692642043E+03  0.99999687468E+00 0.  0.
          4    1    3    3  501    0  0.11876721691E+02  0.87422838616E+02 -0.40342402880E+03  0.41295854059E+03  0.00000000000E+00 0.  1.
   -9000007    1    1    2    0  502 -0.14902801174E+03 -0.34660566859E+03 -0.31369755225E+03  0.63304896498E+03  0.40000000000E+03 0. -1.
<mgrwt>
<rscale>  2 0.54963291E+03</rscale>
<asrwt>0</asrwt>
<pdfrwt beam="1">  1       21 0.44549415E-01 0.54985893E+03</pdfrwt>
<pdfrwt beam="2">  1       21 0.16205581E+00 0.54985893E+03</pdfrwt>
<totfact> 0.95291672E+02</totfact>
</mgrwt>
</event>
<event>
 6    1  0.9190795E-004  0.4531455E+03  0.7818608E-02  0.1026850E+00
         21   -1    0    0  503  502  0.00000000000E+00  0.00000000000E+00  0.22417533316E+03  0.22417533316E+03  0.00000000000E+00 0.  1.
         21   -1    0    0  501  503 -0.00000000000E+00 -0.00000000000E+00 -0.11988626462E+04  0.11988626462E+04  0.00000000000E+00 0. -1.
    9000007    2    1    2  501    0 -0.19942956231E+03 -0.69360574984E+02 -0.83434144385E+03  0.94945588224E+03  0.40094611572E+03 0.  0.
    9000005    1    3    3    0    0 -0.40824055030E+02  0.13148916405E+03 -0.95544406230E+02  0.16758799864E+03  0.99999687468E+00 0.  0.
          4    1    3    3  501    0 -0.15860550728E+03 -0.20084973904E+03 -0.73879703762E+03  0.78186788360E+03  0.00000000000E+00 0.  1.
   -9000007    1    1    2    0  502  0.19942956231E+03  0.69360574984E+02 -0.14034586915E+03  0.47358209708E+03  0.40000000000E+03 0.  1.
<mgrwt>
<rscale>  2 0.45293611E+03</rscale>
<asrwt>0</asrwt>
<pdfrwt beam="1">  1       21 0.34488513E-01 0.45314548E+03</pdfrwt>
<pdfrwt beam="2">  1       21 0.18444041E+00 0.45314548E+03</pdfrwt>
<totfact> 0.11547204E+03</totfact>
</mgrwt>
</event>
<event>
 6    1  0.9190795E-004  0.4179133E+03  0.7818608E-02  0.1037758E+00
         21   -1    0    0  503  502  0.00000000000E+00  0.00000000000E+00  0.47256235658E+03  0.47256235658E+03  0.00000000000E+00 0. -1.
         21   -1    0    0  501  503 -0.00000000000E+00 -0.00000000000E+00 -0.96732621775E+03  0.96732621775E+03  0.00000000000E+00 0. -1.
    9000007    2    1    2  501    0  0.65967460624E+02 -0.10094804333E+03 -0.81339009988E+03  0.91446979535E+03  0.40013665005E+03 0.  0.
    9000005    1    3    3    0    0  0.13558292167E+03  0.11101957447E+03 -0.22493509209E+03  0.28514008876E+03  0.99999687468E+00 0.  0.
          4    1    3    3  501    0 -0.69615461050E+02 -0.21196761780E+03 -0.58845500778E+03  0.62932970659E+03  0.00000000000E+00 0.  1.
   -9000007    1    1    2    0  502 -0.65967460624E+02  0.10094804333E+03  0.31862623870E+03  0.52541877898E+03  0.40000000000E+03 0. -1.
<mgrwt>
<rscale>  2 0.41788062E+03</rscale>
<asrwt>0</asrwt>
<pdfrwt beam="1">  1       21 0.72701901E-01 0.41791333E+03</pdfrwt>
<pdfrwt beam="2">  1       21 0.14881942E+00 0.41791333E+03</pdfrwt>
<totfact> 0.43869595E+02</totfact>
</mgrwt>
</event>
<event>
 6    1  0.9190795E-004  0.4913440E+03  0.7818608E-02  0.1016084E+00
         21   -1    0    0  503  502  0.00000000000E+00  0.00000000000E+00  0.87935969917E+03  0.87935969917E+03  0.00000000000E+00 0. -1.
         21   -1    0    0  501  503 -0.00000000000E+00 -0.00000000000E+00 -0.27449310925E+03  0.27449310925E+03  0.00000000000E+00 0. -1.
    9000007    2    1    2  501    0  0.27817405401E+03 -0.63546101131E+02  0.28980760392E+03  0.57017389330E+03  0.39961345074E+03 0.  0.
    9000005    1    3    3    0    0  0.22976253986E+03  0.40810795650E+02  0.36465240094E+03  0.43293038617E+03  0.99999687468E+00 0.  0.
          4    1    3    3  501    0  0.48411514151E+02 -0.10435689678E+03 -0.74844797017E+02  0.13724350713E+03  0.00000000000E+00 0.  1.
   -9000007    1    1    2    0  502 -0.27817405401E+03  0.63546101131E+02  0.31505898600E+03  0.58367891512E+03  0.40000000000E+03 0. -1.
<mgrwt>
<rscale>  2 0.49126531E+03</rscale>
<asrwt>0</asrwt>
<pdfrwt beam="1">  1       21 0.13528611E+00 0.49134398E+03</pdfrwt>
<pdfrwt beam="2">  1       21 0.42229709E-01 0.49134398E+03</pdfrwt>
<totfact> 0.17784823E+03</totfact>
</mgrwt>
</event>
<event>
 6    1  0.9190795E-004  0.4102788E+03  0.7818608E-02  0.1040301E+00
         21   -1    0    0  503  502  0.00000000000E+00  0.00000000000E+00  0.34731827435E+03  0.34731827435E+03  0.00000000000E+00 0. -1.
         21   -1    0    0  501  503 -0.00000000000E+00 -0.00000000000E+00 -0.13095059343E+04  0.13095059343E+04  0.00000000000E+00 0. -1.
    9000007    2    1    2  501    0 -0.53588373237E+02  0.73871425236E+02 -0.11386441626E+04  0.12102084918E+04  0.39970659650E+03 0.  0.
    9000005    1    3    3    0    0 -0.18304745496E+03 -0.76014133040E+02 -0.41422484133E+03  0.45920337364E+03  0.99999687468E+00 0.  0.
          4    1    3    3  501    0  0.12945908172E+03  0.14988555828E+03 -0.72441932131E+03  0.75100511817E+03  0.00000000000E+00 0.  1.
   -9000007    1    1    2    0  502  0.53588373237E+02 -0.73871425236E+02  0.17645650269E+03  0.44661571687E+03  0.40000000000E+03 0. -1.
<mgrwt>
<rscale>  2 0.41020728E+03</rscale>
<asrwt>0</asrwt>
<pdfrwt beam="1">  1       21 0.53433580E-01 0.41027881E+03</pdfrwt>
<pdfrwt beam="2">  1       21 0.20146246E+00 0.41027881E+03</pdfrwt>
<totfact> 0.36373468E+02</totfact>
</mgrwt>
</event>
<event>
 6    1  0.9190795E-004  0.4963539E+03  0.7818608E-02  0.1014742E+00
         21   -1    0    0  503  502  0.00000000000E+00  0.00000000000E+00  0.12927922441E+04  0.12927922441E+04  0.00000000000E+00 0.  1.
         21   -1    0    0  501  503 -0.00000000000E+00 -0.00000000000E+00 -0.20539675664E+03  0.20539675664E+03  0.00000000000E+00 0. -1.
    9000007    2    1    2  501    0  0.15275611464E+03 -0.25085140158E+03  0.34220945699E+03  0.60288844996E+03  0.40013287093E+03 0.  0.
    9000005    1    3    3    0    0 -0.41569818705E+02 -0.16071226866E+03 -0.34481939904E+02  0.16954789087E+03  0.99999687468E+00 0.  0.
          4    1    3    3  501    0  0.19432593335E+03 -0.90139132926E+02  0.37669139690E+03  0.43334055909E+03  0.00000000000E+00 0.  1.
   -9000007    1    1    2    0  502 -0.15275611464E+03  0.25085140158E+03  0.74518603050E+03  0.89530055081E+03  0.40000000000E+03 0.  1.
<mgrwt>
<rscale>  2 0.49632710E+03</rscale>
<asrwt>0</asrwt>
<pdfrwt beam="1">  1       21 0.19889111E+00 0.49635388E+03</pdfrwt>
<pdfrwt beam="2">  1       21 0.31599502E-01 0.49635388E+03</pdfrwt>
<totfact> 0.10769512E+03</totfact>
</mgrwt>
</event>
<event>
 6    1  0.9190795E-004  0.5052476E+03  0.7818608E-02  0.1012431E+00
         21   -1    0    0  503  502  0.00000000000E+00  0.00000000000E+00  0.20971760620E+03  0.20971760620E+03  0.00000000000E+00 0.  1.
         21   -1    0    0  501  503 -0.00000000000E+00 -0.00000000000E+00 -0.12797263191E+04  0.12797263191E+04  0.00000000000E+00 0. -1.
    9000007    2    1    2  501    0 -0.21589665872E+03  0.22059861446E+03 -0.70009359545E+03  0.86325520768E+03  0.39975416853E+03 0.  0.
    9000005    1    3    3    0    0 -0.10988383361E+03 -0.10468449892E+03 -0.30461149537E+03  0.34032699615E+03  0.99999687468E+00 0.  0.
          4    1    3    3  501    0 -0.10601282510E+03  0.32528311337E+03 -0.39548210008E+03  0.52292821153E+03  0.00000000000E+00 0.  1.
   -9000007    1    1    2    0  502  0.21589665872E+03 -0.22059861446E+03 -0.36991511745E+03  0.62618871761E+03  0.40000000000E+03 0.  1.
<mgrwt>
<rscale>  2 0.50519892E+03</rscale>
<asrwt>0</asrwt>
<pdfrwt beam="1">  1       21 0.32264248E-01 0.50524758E+03</pdfrwt>
<pdfrwt beam="2">  1       21 0.19688097E+00 0.50524758E+03</pdfrwt>
<totfact> 0.10618558E+03</totfact>
</mgrwt>
</event>
<event>
 6    1  0.9190795E-004  0.4225027E+03  0.7818608E-02  0.1036308E+00
         21   -1    0    0  503  502  0.00000000000E+00  0.00000000000E+00  0.11402555539E+04  0.11402555539E+04  0.00000000000E+00 0.  1.
         21   -1    0    0  501  503 -0.00000000000E+00 -0.00000000000E+00 -0.69649224980E+03  0.69649224980E+03  0.00000000000E+00 0.  1.
    9000007    2    1    2  501    0  0.75287479687E+02  0.11331505055E+03 -0.58694162312E+03  0.72280832947E+03  0.39930302642E+03 0.  0.
    9000005    1    3    3    0    0 -0.16537807562E+03  0.49110961800E+02 -0.22821427892E+03  0.28608486776E+03  0.99999687468E+00 0.  0.
          4    1    3    3  501    0  0.24066555531E+03  0.64204088750E+02 -0.35872734421E+03  0.43672346171E+03  0.00000000000E+00 0.  1.
   -9000007    1    1    2    0  502 -0.75287479687E+02 -0.11331505055E+03  0.10307049273E+04  0.11139394743E+04  0.40000000000E+03 0.  1.
<mgrwt>
<rscale>  2 0.42233762E+03</rscale>
<asrwt>0</asrwt>
<pdfrwt beam="1">  1       21 0.17542393E+00 0.42250267E+03</pdfrwt>
<pdfrwt beam="2">  1       21 0.10715265E+00 0.42250267E+03</pdfrwt>
<totfact> 0.11081616E+02</totfact>
</mgrwt>
</event>
<event>
 6    1  0.9190795E-004  0.4181089E+03  0.7818608E-02  0.1037689E+00
         21   -1    0    0  503  502  0.00000000000E+00  0.00000000000E+00  0.88014375472E+03  0.88014375472E+03  0.00000000000E+00 0. -1.
         21   -1    0    0  501  503 -0.00000000000E+00 -0.00000000000E+00 -0.25687039240E+03  0.25687039240E+03  0.00000000000E+00 0. -1.
    9000007    2    1    2  501    0 -0.10927473903E+03 -0.53049080177E+02  0.58245891409E+03  0.71698915658E+03  0.40007485618E+03 0.  0.
    9000005    1    3    3    0    0 -0.13194498906E+03 -0.16781632728E+03  0.55804502113E+03  0.59748392902E+03  0.99999687468E+00 0.  0.
          4    1    3    3  501    0  0.22670250026E+02  0.11476724710E+03  0.24413892965E+02  0.11950522756E+03  0.00000000000E+00 0.  1.
   -9000007    1    1    2    0  502  0.10927473903E+03  0.53049080177E+02  0.40814448223E+02  0.42002499054E+03  0.40000000000E+03 0. -1.
<mgrwt>
<rscale>  2 0.41809101E+03</rscale>
<asrwt>0</asrwt>
<pdfrwt beam="1">  1       21 0.13540673E+00 0.41810891E+03</pdfrwt>
<pdfrwt beam="2">  1       21 0.39518522E-01 0.41810891E+03</pdfrwt>
<totfact> 0.20938882E+03</totfact>
</mgrwt>
</event>
<event>
 6    1  0.9190795E-004  0.4775183E+03  0.7818608E-02  0.1019821E+00
         21   -1    0    0  503  502  0.00000000000E+00  0.00000000000E+00  0.48350568797E+03  0.48350568797E+03  0.00000000000E+00 0. -1.
         21   -1    0    0  501  503 -0.00000000000E+00 -0.00000000000E+00 -0.53601934208E+03  0.53601934208E+03  0.00000000000E+00 0. -1.
    9000007    2    1    2  501    0  0.16726618377E+03  0.20011428589E+03  0.15047902706E+03  0.50065150764E+03  0.39998036310E+03 0.  0.
    9000005    1    3    3    0    0  0.21495631107E+03  0.28121200854E+03  0.18628565954E+03  0.39998719525E+03  0.99999687468E+00 0.  0.
          4    1    3    3  501    0 -0.47690127304E+02 -0.81097722648E+02 -0.35806632475E+02  0.10066431240E+03  0.00000000000E+00 0.  1.
   -9000007    1    1    2    0  502 -0.16726618377E+03 -0.20011428589E+03 -0.20299268117E+03  0.51887352241E+03  0.40000000000E+03 0. -1.
<mgrwt>
<rscale>  2 0.47751416E+03</rscale>
<asrwt>0</asrwt>
<pdfrwt beam="1">  1       21 0.74385490E-01 0.47751828E+03</pdfrwt>
<pdfrwt beam="2">  1       21 0.82464515E-01 0.47751828E+03</pdfrwt>
<totfact> 0.17728485E+03</totfact>
</mgrwt>
</event>
<event>
 6    1  0.9190795E-004  0.4662247E+03  0.7818608E-02  0.1022994E+00
         21   -1    0    0  503  502  0.00000000000E+00  0.00000000000E+00  0.14305044979E+04  0.14305044979E+04  0.00000000000E+00 0. -1.
         21   -1    0    0  501  503 -0.00000000000E+00 -0.00000000000E+00 -0.24717994818E+04  0.24717994818E+04  0.00000000000E+00 0.  1.
    9000007    2    1    2  501    0 -0.23897706045E+03 -0.15983599596E+02 -0.24108799605E+04  0.24555391338E+04  0.39995592615E+03 0.  0.
    9000005    1    3    3    0    0  0.35397180732E+02  0.65762498738E+02 -0.14740298253E+04  0.14759209303E+04  0.99999687468E+00 0.  0.
          4    1    3    3  501    0 -0.27437424118E+03 -0.81746098334E+02 -0.93685013522E+03  0.97961820352E+03  0.00000000000E+00 0.  1.
   -9000007    1    1    2    0  502  0.23897706045E+03  0.15983599596E+02  0.13695849767E+04  0.14467648459E+04  0.40000000000E+03 0. -1.
<mgrwt>
<rscale>  2 0.46621529E+03</rscale>
<asrwt>0</asrwt>
<pdfrwt beam="1">  1       21 0.22007762E+00 0.46622474E+03</pdfrwt>
<pdfrwt beam="2">  1       21 0.38027684E+00 0.46622474E+03</pdfrwt>
<totfact> 0.76153333E-01</totfact>
</mgrwt>
</event>
<event>
 6    1  0.9190795E-004  0.5223248E+03  0.7818608E-02  0.1008194E+00
         21   -1    0    0  503  502  0.00000000000E+00  0.00000000000E+00  0.65318199888E+03  0.65318199888E+03  0.00000000000E+00 0.  1.
         21   -1    0    0  501  503 -0.00000000000E+00 -0.00000000000E+00 -0.54959216388E+03  0.54959216388E+03  0.00000000000E+00 0.  1.
    9000007    2    1    2  501    0  0.33567284355E+03  0.12122885057E+02 -0.24408897984E+03  0.57531597250E+03  0.39822834642E+03 0.  0.
    9000005    1    3    3    0    0  0.27039345102E+03 -0.12407418613E+03 -0.11166986246E+02  0.29771248479E+03  0.99999687468E+00 0.  0.
          4    1    3    3  501    0  0.65279392525E+02  0.13619707119E+03 -0.23292199359E+03  0.27760348771E+03  0.00000000000E+00 0.  1.
   -9000007    1    1    2    0  502 -0.33567284355E+03 -0.12122885057E+02  0.34767881484E+03  0.62745819026E+03  0.40000000000E+03 0.  1.
<mgrwt>
<rscale>  2 0.52198562E+03</rscale>
<asrwt>0</asrwt>
<pdfrwt beam="1">  1       21 0.10048954E+00 0.52232482E+03</pdfrwt>
<pdfrwt beam="2">  1       21 0.84552640E-01 0.52232482E+03</pdfrwt>
<totfact> 0.81012886E+02</totfact>
</mgrwt>
</event>
<event>
 6    1  0.9190795E-004  0.6014322E+03  0.7818608E-02  0.9902736E-01
         21   -1    0    0  503  502  0.00000000000E+00  0.00000000000E+00  0.40290410706E+03  0.40290410706E+03  0.00000000000E+00 0. -1.
         21   -1    0    0  501  503 -0.00000000000E+00 -0.00000000000E+00 -0.91833425496E+03  0.91833425496E+03  0.00000000000E+00 0. -1.
    9000007    2    1    2  501    0  0.41263761195E+03 -0.17734408833E+03 -0.35845636790E+03  0.69965852639E+03  0.39913702084E+03 0.  0.
    9000005    1    3    3    0    0  0.49234699269E+03 -0.16036098830E+03 -0.29174334366E+03  0.59433692999E+03  0.99999687468E+00 0.  0.
          4    1    3    3  501    0 -0.79709380746E+02 -0.16983100033E+02 -0.66713024238E+02  0.10532159640E+03  0.00000000000E+00 0.  1.
   -9000007    1    1    2    0  502 -0.41263761195E+03  0.17734408833E+03 -0.15697377999E+03  0.62157983563E+03  0.40000000000E+03 0. -1.
<mgrwt>
<rscale>  2 0.60128878E+03</rscale>
<asrwt>0</asrwt>
<pdfrwt beam="1">  1       21 0.61985248E-01 0.60143223E+03</pdfrwt>
<pdfrwt beam="2">  1       21 0.14128219E+00 0.60143223E+03</pdfrwt>
<totfact> 0.66987564E+02</totfact>
</mgrwt>
</event>
<event>
 6    1  0.9190795E-004  0.4060830E+03  0.7818608E-02  0.1041731E+00
         21   -1    0    0  503  502  0.00000000000E+00  0.00000000000E+00  0.13743498182E+04  0.13743498182E+04  0.00000000000E+00 0. -1.
         21   -1    0    0  501  503 -0.00000000000E+00 -0.00000000000E+00 -0.17235176882E+03  0.17235176882E+03  0.00000000000E+00 0. -1.
    9000007    2    1    2  501    0 -0.19507580841E+02  0.67252013914E+02  0.17397289905E+03  0.44137851715E+03  0.39955606203E+03 0.  0.
    9000005    1    3    3    0    0  0.58986254961E+02  0.17938955998E+03 -0.34518072722E+02  0.19197002329E+03  0.99999687468E+00 0.  0.
          4    1    3    3  501    0 -0.78493835802E+02 -0.11213754606E+03  0.20849097178E+03  0.24940849386E+03  0.00000000000E+00 0.  1.
   -9000007    1    1    2    0  502  0.19507580841E+02 -0.67252013914E+02  0.10280251503E+04  0.11053230698E+04  0.40000000000E+03 0. -1.
<mgrwt>
<rscale>  2 0.40597361E+03</rscale>
<asrwt>0</asrwt>
<pdfrwt beam="1">  1       21 0.21143843E+00 0.40608297E+03</pdfrwt>
<pdfrwt beam="2">  1       21 0.26515658E-01 0.40608297E+03</pdfrwt>
<totfact> 0.13126166E+03</totfact>
</mgrwt>
</event>
<event>
 6    1  0.9190795E-004  0.5452057E+03  0.7818608E-02  0.1002636E+00
         21   -1    0    0  503  502  0.00000000000E+00  0.00000000000E+00  0.52108527351E+03  0.52108527351E+03  0.00000000000E+00 0. -1.
         21   -1    0    0  501  503 -0.00000000000E+00 -0.00000000000E+00 -0.71019898422E+03  0.71019898422E+03  0.00000000000E+00 0. -1.
    9000007    2    1    2  501    0 -0.70614561168E+01  0.36974114933E+03 -0.36814958735E+03  0.65786274889E+03  0.40061315012E+03 0.  0.
    9000005    1    3    3    0    0 -0.65841204229E+01  0.45705378954E+03 -0.32174637708E+03  0.55898412171E+03  0.99999687468E+00 0.  0.
          4    1    3    3  501    0 -0.47733569385E+00 -0.87312640210E+02 -0.46403210268E+02  0.98878627180E+02  0.00000000000E+00 0.  1.
   -9000007    1    1    2    0  502  0.70614561168E+01 -0.36974114933E+03  0.17903587664E+03  0.57342150883E+03  0.40000000000E+03 0. -1.
<mgrwt>
<rscale>  2 0.54509309E+03</rscale>
<asrwt>0</asrwt>
<pdfrwt beam="1">  1       21 0.80166965E-01 0.54520572E+03</pdfrwt>
<pdfrwt beam="2">  1       21 0.10926138E+00 0.54520572E+03</pdfrwt>
<totfact> 0.73995545E+02</totfact>
</mgrwt>
</event>
<event>
 6    1  0.9190795E-004  0.4205374E+03  0.7818608E-02  0.1036966E+00
         21   -1    0    0  503  502  0.00000000000E+00  0.00000000000E+00  0.53437743376E+03  0.53437743376E+03  0.00000000000E+00 0. -1.
         21   -1    0    0  501  503 -0.00000000000E+00 -0.00000000000E+00 -0.37662944609E+03  0.37662944609E+03  0.00000000000E+00 0. -1.
    9000007    2    1    2  501    0 -0.83427118382E+02  0.95486075484E+02 -0.80938464764E+02  0.42825549739E+03  0.40096640916E+03 0.  0.
    9000005    1    3    3    0    0 -0.88327690782E+02  0.52562824138E+02 -0.24124456457E+03  0.26222999708E+03  0.99999687468E+00 0.  0.
          4    1    3    3  501    0  0.49005723997E+01  0.42923251346E+02  0.16030609981E+03  0.16602550031E+03  0.00000000000E+00 0.  1.
   -9000007    1    1    2    0  502  0.83427118382E+02 -0.95486075484E+02  0.23868645243E+03  0.48275138246E+03  0.40000000000E+03 0.  1.
<mgrwt>
<rscale>  2 0.42030691E+03</rscale>
<asrwt>0</asrwt>
<pdfrwt beam="1">  1       21 0.82211913E-01 0.42053744E+03</pdfrwt>
<pdfrwt beam="2">  1       21 0.57942992E-01 0.42053744E+03</pdfrwt>
<totfact> 0.31800168E+03</totfact>
</mgrwt>
</event>
<event>
 6    1  0.9190795E-004  0.7682786E+03  0.7818608E-02  0.9607126E-01
         21   -1    0    0  503  502  0.00000000000E+00  0.00000000000E+00  0.14351002920E+04  0.14351002920E+04  0.00000000000E+00 0.  1.
         21   -1    0    0  501  503 -0.00000000000E+00 -0.00000000000E+00 -0.45713896091E+03  0.45713896091E+03  0.00000000000E+00 0. -1.
    9000007    2    1    2  501    0 -0.64674498991E+03 -0.10942058584E+03  0.78867977754E+03  0.11009874263E+04  0.39988195112E+03 0.  0.
    9000005    1    3    3    0    0  0.13407956050E+02  0.42512399520E+02 -0.17577018905E+02  0.47927330259E+02  0.99999687468E+00 0.  0.
          4    1    3    3  501    0 -0.66015294596E+03 -0.15193298536E+03  0.80625679645E+03  0.10530600961E+04  0.00000000000E+00 0.  1.
   -9000007    1    1    2    0  502  0.64674498991E+03  0.10942058584E+03  0.18928155357E+03  0.79125182660E+03  0.40000000000E+03 0. -1.
<mgrwt>
<rscale>  2 0.76826320E+03</rscale>
<asrwt>0</asrwt>
<pdfrwt beam="1">  1       21 0.22078466E+00 0.76827856E+03</pdfrwt>
<pdfrwt beam="2">  1       21 0.70329071E-01 0.76827856E+03</pdfrwt>
<totfact> 0.12744295E+02</totfact>
</mgrwt>
</event>
<event>
 6    1  0.9190795E-004  0.4055972E+03  0.7818608E-02  0.1041917E+00
         21   -1    0    0  503  502  0.00000000000E+00  0.00000000000E+00  0.20437669509E+03  0.20437669509E+03  0.00000000000E+00 0.  1.
         21   -1    0    0  501  503 -0.00000000000E+00 -0.00000000000E+00 -0.90634786046E+03  0.90634786046E+03  0.00000000000E+00 0.  1.
    9000007    2    1    2  501    0 -0.40572722382E+02 -0.48015071981E+02 -0.53826891465E+03  0.67397517681E+03  0.40069629588E+03 0.  0.
    9000005    1    3    3    0    0  0.11341812479E+03 -0.88746636252E+02 -0.37979015923E+02  0.14893972647E+03  0.99999687468E+00 0.  0.
          4    1    3    3  501    0 -0.15399084717E+03  0.40731564271E+02 -0.50028989873E+03  0.52503545034E+03  0.00000000000E+00 0.  1.
   -9000007    1    1    2    0  502  0.40572722382E+02  0.48015071981E+02 -0.16370225073E+03  0.43674937874E+03  0.40000000000E+03 0.  1.
<mgrwt>
<rscale>  2 0.40542516E+03</rscale>
<asrwt>0</asrwt>
<pdfrwt beam="1">  1       21 0.31442568E-01 0.40559723E+03</pdfrwt>
<pdfrwt beam="2">  1       21 0.13943813E+00 0.40559723E+03</pdfrwt>
<totfact> 0.30931524E+03</totfact>
</mgrwt>
</event>
<event>
 6    1  0.9190795E-004  0.4105731E+03  0.7818608E-02  0.1040250E+00
         21   -1    0    0  503  502  0.00000000000E+00  0.00000000000E+00  0.14966587548E+03  0.14966587548E+03  0.00000000000E+00 0. -1.
         21   -1    0    0  501  503 -0.00000000000E+00 -0.00000000000E+00 -0.13745533287E+04  0.13745533287E+04  0.00000000000E+00 0. -1.
    9000007    2    1    2  501    0  0.69932629207E+02 -0.60660712033E+02 -0.93731272625E+03  0.10229512936E+04  0.39912893607E+03 0.  0.
    9000005    1    3    3    0    0  0.13382377712E+03 -0.20559492020E+03 -0.48126469701E+03  0.54018032463E+03  0.99999687468E+00 0.  0.
          4    1    3    3  501    0 -0.63891147909E+02  0.14493420817E+03 -0.45604802924E+03  0.48277096894E+03  0.00000000000E+00 0.  1.
   -9000007    1    1    2    0  502 -0.69932629207E+02  0.60660712033E+02 -0.28757472698E+03  0.50126791061E+03  0.40000000000E+03 0. -1.
<mgrwt>
<rscale>  2 0.41036082E+03</rscale>
<asrwt>0</asrwt>
<pdfrwt beam="1">  1       21 0.23025519E-01 0.41057313E+03</pdfrwt>
<pdfrwt beam="2">  1       21 0.21146975E+00 0.41057313E+03</pdfrwt>
<totfact> 0.17212243E+03</totfact>
</mgrwt>
</event>
<event>
 6    1  0.9190795E-004  0.4630817E+03  0.7818608E-02  0.1023946E+00
         21   -1    0    0  503  502  0.00000000000E+00  0.00000000000E+00  0.88375797577E+03  0.88375797577E+03  0.00000000000E+00 0.  1.
         21   -1    0    0  501  503 -0.00000000000E+00 -0.00000000000E+00 -0.47375917853E+03  0.47375917853E+03  0.00000000000E+00 0. -1.
    9000007    2    1    2  501    0 -0.12147632847E+02 -0.23301727977E+03 -0.26956961106E+03  0.53516817775E+03  0.39911475244E+03 0.  0.
    9000005    1    3    3    0    0 -0.38932786787E+02 -0.29474205491E+03 -0.33039370764E+03  0.44446556994E+03  0.99999687468E+00 0.  0.
          4    1    3    3  501    0  0.26785153940E+02  0.61724775142E+02  0.60824096581E+02  0.90702607806E+02  0.00000000000E+00 0.  1.
   -9000007    1    1    2    0  502  0.12147632847E+02  0.23301727977E+03  0.67956840830E+03  0.82234897654E+03  0.40000000000E+03 0.  1.
<mgrwt>
<rscale>  2 0.46289042E+03</rscale>
<asrwt>0</asrwt>
<pdfrwt beam="1">  1       21 0.13596277E+00 0.46308165E+03</pdfrwt>
<pdfrwt beam="2">  1       21 0.72886028E-01 0.46308165E+03</pdfrwt>
<totfact> 0.54354353E+02</totfact>
</mgrwt>
</event>
<event>
 6    1  0.9190795E-004  0.4623568E+03  0.7818608E-02  0.1024139E+00
         21   -1    0    0  503  502  0.00000000000E+00  0.00000000000E+00  0.84323992472E+03  0.84323992472E+03  0.00000000000E+00 0. -1.
         21   -1    0    0  501  503 -0.00000000000E+00 -0.00000000000E+00 -0.48635059417E+03  0.48635059417E+03  0.00000000000E+00 0.  1.
    9000007    2    1    2  501    0 -0.21941938511E+03  0.71581912238E+02 -0.28177515795E+03  0.54145273551E+03  0.40063073824E+03 0.  0.
    9000005    1    3    3    0    0 -0.28431100777E+03  0.13392244083E+03 -0.85755011081E+02  0.32576508594E+03  0.99999687468E+00 0.  0.
          4    1    3    3  501    0  0.64891622656E+02 -0.62340528596E+02 -0.19602014687E+03  0.21568764957E+03  0.00000000000E+00 0.  1.
   -9000007    1    1    2    0  502  0.21941938511E+03 -0.71581912238E+02  0.63866448850E+03  0.78813778338E+03  0.40000000000E+03 0. -1.
<mgrwt>
<rscale>  2 0.46222015E+03</rscale>
<asrwt>0</asrwt>
<pdfrwt beam="1">  1       21 0.12972922E+00 0.46235682E+03</pdfrwt>
<pdfrwt beam="2">  1       21 0.74823168E-01 0.46235682E+03</pdfrwt>
<totfact> 0.57894401E+02</totfact>
</mgrwt>
</event>
<event>
 6    1  0.9190795E-004  0.4741482E+03  0.7818608E-02  0.1020773E+00
         21   -1    0    0  503  502  0.00000000000E+00  0.00000000000E+00  0.10215764149E+03  0.10215764149E+03  0.00000000000E+00 0. -1.
         21   -1    0    0  501  503 -0.00000000000E+00 -0.00000000000E+00 -0.23233116462E+04  0.23233116462E+04  0.00000000000E+00 0.  1.
    9000007    2    1    2  501    0 -0.18076195124E+03 -0.17861737247E+03 -0.13907903386E+04  0.14693924776E+04  0.40029668816E+03 0.  0.
    9000005    1    3    3    0    0 -0.66184536595E+02 -0.91101183348E+01 -0.32992432633E+01  0.66897474842E+02  0.99999687468E+00 0.  0.
          4    1    3    3  501    0 -0.11457741464E+03 -0.16950725413E+03 -0.13874910953E+04  0.14024950028E+04  0.00000000000E+00 0.  1.
   -9000007    1    1    2    0  502  0.18076195124E+03  0.17861737247E+03 -0.83036366611E+03  0.95607681007E+03  0.40000000000E+03 0.  1.
<mgrwt>
<rscale>  2 0.47408555E+03</rscale>
<asrwt>0</asrwt>
<pdfrwt beam="1">  1       21 0.15716561E-01 0.47414817E+03</pdfrwt>
<pdfrwt beam="2">  1       21 0.35743254E+00 0.47414817E+03</pdfrwt>
<totfact> 0.43857242E+02</totfact>
</mgrwt>
</event>
<event>
 6    1  0.9190795E-004  0.4834632E+03  0.7818608E-02  0.1018202E+00
         21   -1    0    0  503  502  0.00000000000E+00  0.00000000000E+00  0.28786165776E+03  0.28786165776E+03  0.00000000000E+00 0. -1.
         21   -1    0    0  501  503 -0.00000000000E+00 -0.00000000000E+00 -0.13757867899E+04  0.13757867899E+04  0.00000000000E+00 0. -1.
    9000007    2    1    2  501    0  0.20463302304E+03 -0.17793954709E+03 -0.10766986257E+04  0.11802612416E+04  0.40024931158E+03 0.  0.
    9000005    1    3    3    0    0  0.40251725740E+01  0.11154561048E+03 -0.13692607534E+03  0.17665892373E+03  0.99999687468E+00 0.  0.
          4    1    3    3  501    0  0.20060785047E+03 -0.28948515757E+03 -0.93977255035E+03  0.10036023179E+04  0.00000000000E+00 0.  1.
   -9000007    1    1    2    0  502 -0.20463302304E+03  0.17793954709E+03 -0.11226506499E+02  0.48338720606E+03  0.40000000000E+03 0. -1.
<mgrwt>
<rscale>  2 0.48341160E+03</rscale>
<asrwt>0</asrwt>
<pdfrwt beam="1">  1       21 0.44286409E-01 0.48346320E+03</pdfrwt>
<pdfrwt beam="2">  1       21 0.21165951E+00 0.48346320E+03</pdfrwt>
<totfact> 0.44701667E+02</totfact>
</mgrwt>
</event>
<event>
 6    1  0.9190795E-004  0.5063259E+03  0.7818608E-02  0.1012145E+00
         21   -1    0    0  503  502  0.00000000000E+00  0.00000000000E+00  0.34287622190E+03  0.34287622190E+03  0.00000000000E+00 0.  1.
         21   -1    0    0  501  503 -0.00000000000E+00 -0.00000000000E+00 -0.90932206096E+03  0.90932206096E+03  0.00000000000E+00 0. -1.
    9000007    2    1    2  501    0  0.54248151923E+02  0.30554732752E+03 -0.19197186219E+02  0.50668965154E+03  0.40007979164E+03 0.  0.
    9000005    1    3    3    0    0  0.13863297645E+03  0.35137608798E+03 -0.88869435228E+02  0.38805029813E+03  0.99999687468E+00 0.  0.
          4    1    3    3  501    0 -0.84384824528E+02 -0.45828760461E+02  0.69672249009E+02  0.11863935341E+03  0.00000000000E+00 0.  1.
   -9000007    1    1    2    0  502 -0.54248151923E+02 -0.30554732752E+03 -0.54724865284E+03  0.74550863132E+03  0.40000000000E+03 0.  1.
<mgrwt>
<rscale>  2 0.50631009E+03</rscale>
<asrwt>0</asrwt>
<pdfrwt beam="1">  1       21 0.52750188E-01 0.50632585E+03</pdfrwt>
<pdfrwt beam="2">  1       21 0.13989570E+00 0.50632585E+03</pdfrwt>
<totfact> 0.10112020E+03</totfact>
</mgrwt>
</event>
<event>
 6    1  0.9190795E-004  0.4197553E+03  0.7818608E-02  0.1037206E+00
         21   -1    0    0  503  502  0.00000000000E+00  0.00000000000E+00  0.33326931808E+03  0.33326931808E+03  0.00000000000E+00 0.  1.
         21   -1    0    0  501  503 -0.00000000000E+00 -0.00000000000E+00 -0.59829435298E+03  0.59829435298E+03  0.00000000000E+00 0.  1.
    9000007    2    1    2  501    0 -0.11283372771E+03  0.58847536992E+02 -0.29234326546E+03  0.51092039174E+03  0.39922497306E+03 0.  0.
    9000005    1    3    3    0    0  0.13358390655E+03  0.61780632183E+02 -0.19874379266E+03  0.24730871743E+03  0.99999687468E+00 0.  0.
          4    1    3    3  501    0 -0.24641763426E+03 -0.29330951907E+01 -0.93599472802E+02  0.26361167431E+03  0.00000000000E+00 0.  1.
   -9000007    1    1    2    0  502  0.11283372771E+03 -0.58847536992E+02  0.27318230566E+02  0.42064327932E+03  0.40000000000E+03 0.  1.
<mgrwt>
<rscale>  2 0.41957052E+03</rscale>
<asrwt>0</asrwt>
<pdfrwt beam="1">  1       21 0.51272203E-01 0.41975527E+03</pdfrwt>
<pdfrwt beam="2">  1       21 0.92045285E-01 0.41975527E+03</pdfrwt>
<totfact> 0.31748702E+03</totfact>
</mgrwt>
</event>
<event>
 6    1  0.9190795E-004  0.6868446E+03  0.7818608E-02  0.9740027E-01
         21   -1    0    0  503  502  0.00000000000E+00  0.00000000000E+00  0.99626355870E+03  0.99626355870E+03  0.00000000000E+00 0.  1.
         21   -1    0    0  501  503 -0.00000000000E+00 -0.00000000000E+00 -0.58215360378E+03  0.58215360378E+03  0.00000000000E+00 0. -1.
    9000007    2    1    2  501    0 -0.41649190400E+03 -0.37187364041E+03 -0.13393895496E+03  0.69971748788E+03  0.39988674479E+03 0.  0.
    9000005    1    3    3    0    0 -0.32315435933E+02 -0.14860707739E+03 -0.19918903168E+03  0.25061049696E+03  0.99999687468E+00 0.  0.
          4    1    3    3  501    0 -0.38417646807E+03 -0.22326656302E+03  0.65250076728E+02  0.44910699092E+03  0.00000000000E+00 0.  1.
   -9000007    1    1    2    0  502  0.41649190400E+03  0.37187364041E+03  0.54804890987E+03  0.87869967460E+03  0.40000000000E+03 0. -1.
<mgrwt>
<rscale>  2 0.68682812E+03</rscale>
<asrwt>0</asrwt>
<pdfrwt beam="1">  1       21 0.15327132E+00 0.68684460E+03</pdfrwt>
<pdfrwt beam="2">  1       21 0.89562093E-01 0.68684460E+03</pdfrwt>
<totfact> 0.22382969E+02</totfact>
</mgrwt>
</event>
<event>
 6    1  0.9190795E-004  0.4139553E+03  0.7818608E-02  0.1039174E+00
         21   -1    0    0  503  502  0.00000000000E+00  0.00000000000E+00  0.11479737233E+04  0.11479737233E+04  0.00000000000E+00 0. -1.
         21   -1    0    0  501  503 -0.00000000000E+00 -0.00000000000E+00 -0.16652941981E+03  0.16652941981E+03  0.00000000000E+00 0. -1.
    9000007    2    1    2  501    0  0.63759713633E+02 -0.85403035728E+02  0.27512660188E+03  0.49581903113E+03  0.39847570186E+03 0.  0.
    9000005    1    3    3    0    0  0.20199108321E+03  0.56683557095E+02  0.17769255925E+03  0.27493466305E+03  0.99999687468E+00 0.  0.
          4    1    3    3  501    0 -0.13823136958E+03 -0.14208659282E+03  0.97434042627E+02  0.22088436807E+03  0.00000000000E+00 0.  1.
   -9000007    1    1    2    0  502 -0.63759713633E+02  0.85403035728E+02  0.70631770158E+03  0.81868411195E+03  0.40000000000E+03 0. -1.
<mgrwt>
<rscale>  2 0.41358661E+03</rscale>
<asrwt>0</asrwt>
<pdfrwt beam="1">  1       21 0.17661134E+00 0.41395529E+03</pdfrwt>
<pdfrwt beam="2">  1       21 0.25619912E-01 0.41395529E+03</pdfrwt>
<totfact> 0.24044006E+03</totfact>
</mgrwt>
</event>
<event>
 6    1  0.9190795E-004  0.5219102E+03  0.7818608E-02  0.1008249E+00
         21   -1    0    0  503  502  0.00000000000E+00  0.00000000000E+00  0.90523683712E+03  0.90523683712E+03  0.00000000000E+00 0.  1.
         21   -1    0    0  501  503 -0.00000000000E+00 -0.00000000000E+00 -0.38688704745E+03  0.38688704745E+03  0.00000000000E+00 0. -1.
    9000007    2    1    2  501    0 -0.54800065911E+02  0.32982794721E+03 -0.45870407445E+02  0.52392211888E+03  0.40075025938E+03 0.  0.
    9000005    1    3    3    0    0 -0.36846463459E+02  0.37196089371E+03 -0.15570857027E+03  0.40491817343E+03  0.99999687468E+00 0.  0.
          4    1    3    3  501    0 -0.17953602451E+02 -0.42132946508E+02  0.10983816282E+03  0.11900394546E+03  0.00000000000E+00 0.  1.
   -9000007    1    1    2    0  502  0.54800065911E+02 -0.32982794721E+03  0.56422019711E+03  0.76820176569E+03  0.40000000000E+03 0. -1.
<mgrwt>
<rscale>  2 0.52176621E+03</rscale>
<asrwt>0</asrwt>
<pdfrwt beam="1">  1       21 0.13926721E+00 0.52191023E+03</pdfrwt>
<pdfrwt beam="2">  1       21 0.59521084E-01 0.52191023E+03</pdfrwt>
<totfact> 0.78276716E+02</totfact>
</mgrwt>
</event>
<event>
 6    1  0.9190795E-004  0.4668250E+03  0.7818608E-02  0.1022874E+00
         21   -1    0    0  503  502  0.00000000000E+00  0.00000000000E+00  0.87993982368E+03  0.87993982368E+03  0.00000000000E+00 0.  1.
         21   -1    0    0  501  503 -0.00000000000E+00 -0.00000000000E+00 -0.24733310252E+03  0.24733310252E+03  0.00000000000E+00 0.  1.
    9000007    2    1    2  501    0 -0.79316908409E+02 -0.22566258368E+03  0.30658363446E+03  0.55849720001E+03  0.40088754517E+03 0.  0.
    9000005    1    3    3    0    0  0.23416655604E+02  0.45637512507E+02 -0.67704564088E+02  0.84947220670E+02  0.99999687468E+00 0.  0.
          4    1    3    3  501    0 -0.10273356401E+03 -0.27130009619E+03  0.37428819854E+03  0.47354997934E+03  0.00000000000E+00 0.  1.
   -9000007    1    1    2    0  502  0.79316908409E+02  0.22566258368E+03  0.32602308670E+03  0.56877572618E+03  0.40000000000E+03 0.  1.
<mgrwt>
<rscale>  2 0.46663441E+03</rscale>
<asrwt>0</asrwt>
<pdfrwt beam="1">  1       21 0.13537536E+00 0.46682502E+03</pdfrwt>
<pdfrwt beam="2">  1       21 0.38051247E-01 0.46682502E+03</pdfrwt>
<totfact> 0.22212325E+03</totfact>
</mgrwt>
</event>
<event>
 6    1  0.9190795E-004  0.4679696E+03  0.7818608E-02  0.1022501E+00
         21   -1    0    0  503  502  0.00000000000E+00  0.00000000000E+00  0.16119620536E+03  0.16119620536E+03  0.00000000000E+00 0. -1.
         21   -1    0    0  501  503 -0.00000000000E+00 -0.00000000000E+00 -0.20851040417E+04  0.20851040417E+04  0.00000000000E+00 0.  1.
    9000007    2    1    2  501    0 -0.10256306954E+02 -0.24267330126E+03 -0.16249975122E+04  0.16910139202E+04  0.39989453677E+03 0.  0.
    9000005    1    3    3    0    0 -0.15546824033E+03 -0.97129370228E+02 -0.31082830120E+03  0.36085969730E+03  0.99999687468E+00 0.  0.
          4    1    3    3  501    0  0.14521193338E+03 -0.14554393103E+03 -0.13141692110E+04  0.13301542229E+04  0.00000000000E+00 0.  1.
   -9000007    1    1    2    0  502  0.10256306954E+02  0.24267330126E+03 -0.29891032416E+03  0.55528632692E+03  0.40000000000E+03 0. -1.
<mgrwt>
<rscale>  2 0.46794704E+03</rscale>
<asrwt>0</asrwt>
<pdfrwt beam="1">  1       21 0.24799417E-01 0.46796957E+03</pdfrwt>
<pdfrwt beam="2">  1       21 0.32078522E+00 0.46796957E+03</pdfrwt>
<totfact> 0.30935089E+02</totfact>
</mgrwt>
</event>
<event>
 6    1  0.9190795E-004  0.5287963E+03  0.7818608E-02  0.1006649E+00
         21   -1    0    0  503  502  0.00000000000E+00  0.00000000000E+00  0.63137488044E+03  0.63137488044E+03  0.00000000000E+00 0.  1.
         21   -1    0    0  501  503 -0.00000000000E+00 -0.00000000000E+00 -0.54510525447E+03  0.54510525447E+03  0.00000000000E+00 0. -1.
    9000007    2    1    2  501    0  0.34263842121E+03  0.81139300233E+01 -0.21365379480E+03  0.57032752882E+03  0.40268923818E+03 0.  0.
    9000005    1    3    3    0    0  0.33020646980E+02 -0.13947706755E+03 -0.17340714670E+03  0.22497834123E+03  0.99999687468E+00 0.  0.
          4    1    3    3  501    0  0.30961777423E+03  0.14759099757E+03 -0.40246648095E+02  0.34534918759E+03  0.00000000000E+00 0.  1.
   -9000007    1    1    2    0  502 -0.34263842121E+03 -0.81139300233E+01  0.29992342077E+03  0.60615260609E+03  0.40000000000E+03 0.  1.
<mgrwt>
<rscale>  2 0.52828432E+03</rscale>
<asrwt>0</asrwt>
<pdfrwt beam="1">  1       21 0.97134597E-01 0.52879632E+03</pdfrwt>
<pdfrwt beam="2">  1       21 0.83862347E-01 0.52879632E+03</pdfrwt>
<totfact> 0.89482728E+02</totfact>
</mgrwt>
</event>
<event>
 6    1  0.9190795E-004  0.4255183E+03  0.7818608E-02  0.1035298E+00
         21   -1    0    0  503  502  0.00000000000E+00  0.00000000000E+00  0.98871993955E+03  0.98871993955E+03  0.00000000000E+00 0.  1.
         21   -1    0    0  501  503 -0.00000000000E+00 -0.00000000000E+00 -0.52778958761E+03  0.52778958761E+03  0.00000000000E+00 0.  1.
    9000007    2    1    2  501    0 -0.12788019734E+03 -0.68647402247E+02 -0.38235715085E+03  0.57194633549E+03  0.39982472306E+03 0.  0.
    9000005    1    3    3    0    0 -0.15316591102E+03  0.11130678623E+03 -0.54388181319E+02  0.19699764268E+03  0.99999687468E+00 0.  0.
          4    1    3    3  501    0  0.25285713680E+02 -0.17995418848E+03 -0.32796896953E+03  0.37494869281E+03  0.00000000000E+00 0.  1.
   -9000007    1    1    2    0  502  0.12788019734E+03  0.68647402247E+02  0.84328750278E+03  0.94456319167E+03  0.40000000000E+03 0.  1.
<mgrwt>
<rscale>  2 0.42547709E+03</rscale>
<asrwt>0</asrwt>
<pdfrwt beam="1">  1       21 0.15211076E+00 0.42551828E+03</pdfrwt>
<pdfrwt beam="2">  1       21 0.81198398E-01 0.42551828E+03</pdfrwt>
<totfact> 0.31979523E+02</totfact>
</mgrwt>
</event>
<event>
 6    1  0.9190795E-004  0.4844582E+03  0.7818608E-02  0.1017919E+00
         21   -1    0    0  503  502  0.00000000000E+00  0.00000000000E+00  0.19723390153E+03  0.19723390153E+03  0.00000000000E+00 0.  1.
         21   -1    0    0  501  503 -0.00000000000E+00 -0.00000000000E+00 -0.13502260940E+04  0.13502260940E+04  0.00000000000E+00 0. -1.
    9000007    2    1    2  501    0  0.89253450074E+02 -0.25832842966E+03 -0.84310153698E+03  0.97236698193E+03  0.39997198647E+03 0.  0.
    9000005    1    3    3    0    0 -0.10649442298E+03 -0.24776219358E+03 -0.35086769227E+03  0.44253395821E+03  0.99999687468E+00 0.  0.
          4    1    3    3  501    0  0.19574787305E+03 -0.10566236086E+02 -0.49223384471E+03  0.52983302372E+03  0.00000000000E+00 0.  1.
   -9000007    1    1    2    0  502 -0.89253450074E+02  0.25832842966E+03 -0.30989065547E+03  0.57509301358E+03  0.40000000000E+03 0.  1.
<mgrwt>
<rscale>  2 0.48445243E+03</rscale>
<asrwt>0</asrwt>
<pdfrwt beam="1">  1       21 0.30343677E-01 0.48445821E+03</pdfrwt>
<pdfrwt beam="2">  1       21 0.20772709E+00 0.48445821E+03</pdfrwt>
<totfact> 0.10254059E+03</totfact>
</mgrwt>
</event>
<event>
 6    1  0.9190795E-004  0.6691786E+03  0.7818608E-02  0.9772310E-01
         21   -1    0    0  503  502  0.00000000000E+00  0.00000000000E+00  0.26958959740E+04  0.26958959740E+04  0.00000000000E+00 0.  1.
         21   -1    0    0  501  503 -0.00000000000E+00 -0.00000000000E+00 -0.16678386108E+03  0.16678386108E+03  0.00000000000E+00 0. -1.
    9000007    2    1    2  501    0 -0.49374195618E+03  0.20361927538E+03  0.13854306160E+04  0.15385766311E+04  0.40318498132E+03 0.  0.
    9000005    1    3    3    0    0 -0.47461355826E+03  0.83211877866E+02  0.74924943020E+03  0.89081869926E+03  0.99999687468E+00 0.  0.
          4    1    3    3  501    0 -0.19128397922E+02  0.12040739751E+03  0.63618118585E+03  0.64775793180E+03  0.00000000000E+00 0.  1.
   -9000007    1    1    2    0  502  0.49374195618E+03 -0.20361927538E+03  0.11436814969E+04  0.13241032040E+04  0.40000000000E+03 0.  1.
<mgrwt>
<rscale>  2 0.66869960E+03</rscale>
<asrwt>0</asrwt>
<pdfrwt beam="1">  1       21 0.41475320E+00 0.66917864E+03</pdfrwt>
<pdfrwt beam="2">  1       21 0.25659057E-01 0.66917864E+03</pdfrwt>
<totfact> 0.66879890E+01</totfact>
</mgrwt>
</event>
<event>
 6    1  0.9190795E-004  0.4983161E+03  0.7818608E-02  0.1014431E+00
         21   -1    0    0  503  502  0.00000000000E+00  0.00000000000E+00  0.98492355936E+02  0.98492355936E+02  0.00000000000E+00 0. -1.
         21   -1    0    0  501  503 -0.00000000000E+00 -0.00000000000E+00 -0.27790041126E+04  0.27790041126E+04  0.00000000000E+00 0. -1.
    9000007    2    1    2  501    0 -0.22424314157E+03 -0.19502300704E+03 -0.17881372119E+04  0.18554146283E+04  0.39599216515E+03 0.  0.
    9000005    1    3    3    0    0 -0.86902115723E+02  0.57985689411E+02 -0.10604430838E+03  0.14886474810E+03  0.99999687468E+00 0.  0.
          4    1    3    3  501    0 -0.13734102585E+03 -0.25300869645E+03 -0.16820929035E+04  0.17065498802E+04  0.00000000000E+00 0.  1.
   -9000007    1    1    2    0  502  0.22424314157E+03  0.19502300704E+03 -0.89237454481E+03  0.10220818402E+04  0.40000000000E+03 0. -1.
<mgrwt>
<rscale>  2 0.49751134E+03</rscale>
<asrwt>0</asrwt>
<pdfrwt beam="1">  1       21 0.15152671E-01 0.49831612E+03</pdfrwt>
<pdfrwt beam="2">  1       21 0.42753907E+00 0.49831612E+03</pdfrwt>
<totfact> 0.16489419E+02</totfact>
</mgrwt>
</event>
<event>
 6    1  0.9190795E-004  0.5615259E+03  0.7818608E-02  0.9988910E-01
         21   -1    0    0  503  502  0.00000000000E+00  0.00000000000E+00  0.59698330387E+03  0.59698330387E+03  0.00000000000E+00 0.  1.
         21   -1    0    0  501  503 -0.00000000000E+00 -0.00000000000E+00 -0.12241449375E+04  0.12241449375E+04  0.00000000000E+00 0.  1.
    9000007    2    1    2  501    0 -0.38850281763E+03 -0.61451316898E+02 -0.10004707938E+04  0.11472807567E+04  0.40075007385E+03 0.  0.
    9000005    1    3    3    0    0 -0.29930414525E+03 -0.20781995333E+03 -0.82549408360E+03  0.90233784494E+03  0.99999687468E+00 0.  0.
          4    1    3    3  501    0 -0.89198672382E+02  0.14636863643E+03 -0.17497671020E+03  0.24494291172E+03  0.00000000000E+00 0.  1.
   -9000007    1    1    2    0  502  0.38850281763E+03  0.61451316898E+02  0.37330916014E+03  0.67384748475E+03  0.40000000000E+03 0.  1.
<mgrwt>
<rscale>  2 0.56139208E+03</rscale>
<asrwt>0</asrwt>
<pdfrwt beam="1">  1       21 0.91843586E-01 0.56152589E+03</pdfrwt>
<pdfrwt beam="2">  1       21 0.18832999E+00 0.56152589E+03</pdfrwt>
<totfact> 0.12184964E+02</totfact>
</mgrwt>
</event>
<event>
 6    1  0.9190795E-004  0.5110929E+03  0.7818608E-02  0.1010927E+00
         21   -1    0    0  503  502  0.00000000000E+00  0.00000000000E+00  0.13594547880E+03  0.13594547880E+03  0.00000000000E+00 0. -1.
         21   -1    0    0  501  503 -0.00000000000E+00 -0.00000000000E+00 -0.19596461591E+04  0.19596461591E+04  0.00000000000E+00 0.  1.
    9000007    2    1    2  501    0 -0.18378062347E+03  0.25969335676E+03 -0.10584431447E+04  0.11753552265E+04  0.39992756939E+03 0.  0.
    9000005    1    3    3    0    0 -0.19627461825E+02 -0.70708390240E+02 -0.50443293379E+03  0.50974356141E+03  0.99999687468E+00 0.  0.
          4    1    3    3  501    0 -0.16415316164E+03  0.33040174700E+03 -0.55401021090E+03  0.66561166507E+03  0.00000000000E+00 0.  1.
   -9000007    1    1    2    0  502  0.18378062347E+03 -0.25969335676E+03 -0.76525753566E+03  0.92023641147E+03  0.40000000000E+03 0. -1.
<mgrwt>
<rscale>  2 0.51107873E+03</rscale>
<asrwt>0</asrwt>
<pdfrwt beam="1">  1       21 0.20914690E-01 0.51109290E+03</pdfrwt>
<pdfrwt beam="2">  1       21 0.30148401E+00 0.51109290E+03</pdfrwt>
<totfact> 0.54947059E+02</totfact>
</mgrwt>
</event>
<event>
 6    1  0.9190795E-004  0.4442870E+03  0.7818608E-02  0.1029514E+00
         21   -1    0    0  503  502  0.00000000000E+00  0.00000000000E+00  0.22759580797E+04  0.22759580797E+04  0.00000000000E+00 0. -1.
         21   -1    0    0  501  503 -0.00000000000E+00 -0.00000000000E+00 -0.86579945147E+02  0.86579945147E+02  0.00000000000E+00 0. -1.
    9000007    2    1    2  501    0  0.18644489948E+03 -0.41954801300E+02  0.11219900945E+04  0.12067529523E+04  0.40108479131E+03 0.  0.
    9000005    1    3    3    0    0  0.21815756490E+03 -0.93999825135E+02  0.30072683829E+03  0.38323142030E+03  0.99999687468E+00 0.  0.
          4    1    3    3  501    0 -0.31712665414E+02  0.52045023835E+02  0.82126325618E+03  0.82352153197E+03  0.00000000000E+00 0.  1.
   -9000007    1    1    2    0  502 -0.18644489948E+03  0.41954801300E+02  0.10673880401E+04  0.11557850726E+04  0.40000000000E+03 0. -1.
<mgrwt>
<rscale>  2 0.44404201E+03</rscale>
<asrwt>0</asrwt>
<pdfrwt beam="1">  1       21 0.35014735E+00 0.44428697E+03</pdfrwt>
<pdfrwt beam="2">  1       21 0.13319993E-01 0.44428697E+03</pdfrwt>
<totfact> 0.67233958E+02</totfact>
</mgrwt>
</event>
<event>
 6    1  0.9190795E-004  0.5583704E+03  0.7818608E-02  0.9996736E-01
         21   -1    0    0  503  502  0.00000000000E+00  0.00000000000E+00  0.68587074358E+03  0.68587074358E+03  0.00000000000E+00 0. -1.
         21   -1    0    0  501  503 -0.00000000000E+00 -0.00000000000E+00 -0.58523512922E+03  0.58523512922E+03  0.00000000000E+00 0. -1.
    9000007    2    1    2  501    0 -0.31832251386E+03  0.22460705697E+03 -0.25166753689E+03  0.61088237787E+03  0.39757160059E+03 0.  0.
    9000005    1    3    3    0    0 -0.35923106274E+03  0.19601407720E+03 -0.32471833244E+03  0.52240929386E+03  0.99999687468E+00 0.  0.
          4    1    3    3  501    0  0.40908548883E+02  0.28592979767E+02  0.73050795546E+02  0.88473084006E+02  0.00000000000E+00 0.  1.
   -9000007    1    1    2    0  502  0.31832251386E+03 -0.22460705697E+03  0.35230315126E+03  0.66022349493E+03  0.40000000000E+03 0. -1.
<mgrwt>
<rscale>  2 0.55793567E+03</rscale>
<asrwt>0</asrwt>
<pdfrwt beam="1">  1       21 0.10551858E+00 0.55837044E+03</pdfrwt>
<pdfrwt beam="2">  1       21 0.90036173E-01 0.55837044E+03</pdfrwt>
<totfact> 0.61130996E+02</totfact>
</mgrwt>
</event>
<event>
 6    1  0.9190795E-004  0.9768892E+03  0.7818608E-02  0.9334311E-01
         21   -1    0    0  503  502  0.00000000000E+00  0.00000000000E+00  0.87099563116E+03  0.87099563116E+03  0.00000000000E+00 0. -1.
         21   -1    0    0  501  503 -0.00000000000E+00 -0.00000000000E+00 -0.24497077442E+04  0.24497077442E+04  0.00000000000E+00 0.  1.
    9000007    2    1    2  501    0 -0.75604289397E+03 -0.47192336628E+03 -0.20238266302E+04  0.22471860469E+04  0.39957274566E+03 0.  0.
    9000005    1    3    3    0    0  0.47062360706E+02 -0.52267084776E+02 -0.13346184989E+03  0.15086344593E+03  0.99999687468E+00 0.  0.
          4    1    3    3  501    0 -0.80310525467E+03 -0.41965628150E+03 -0.18903647803E+04  0.20963226010E+04  0.00000000000E+00 0.  1.
   -9000007    1    1    2    0  502  0.75604289397E+03  0.47192336628E+03  0.44511451716E+03  0.10735173285E+04  0.40000000000E+03 0. -1.
<mgrwt>
<rscale>  2 0.97684549E+03</rscale>
<asrwt>0</asrwt>
<pdfrwt beam="1">  1       21 0.13399933E+00 0.97688921E+03</pdfrwt>
<pdfrwt beam="2">  1       21 0.37687812E+00 0.97688921E+03</pdfrwt>
<totfact> 0.25407654E+00</totfact>
</mgrwt>
</event>
<event>
 6    1  0.9190795E-004  0.4542334E+03  0.7818608E-02  0.1026534E+00
         21   -1    0    0  503  502  0.00000000000E+00  0.00000000000E+00  0.37832061471E+03  0.37832061471E+03  0.00000000000E+00 0. -1.
         21   -1    0    0  501  503 -0.00000000000E+00 -0.00000000000E+00 -0.58027815667E+03  0.58027815667E+03  0.00000000000E+00 0.  1.
    9000007    2    1    2  501    0  0.93167332187E+02 -0.19403047370E+03  0.18491928520E+02  0.45369685462E+03  0.39896228890E+03 0.  0.
    9000005    1    3    3    0    0  0.15116536515E+03  0.53762748676E+02  0.96858591909E+02  0.18741394715E+03  0.99999687468E+00 0.  0.
          4    1    3    3  501    0 -0.57998032959E+02 -0.24779322237E+03 -0.78366663389E+02  0.26628290747E+03  0.00000000000E+00 0.  1.
   -9000007    1    1    2    0  502 -0.93167332187E+02  0.19403047370E+03 -0.22044947048E+03  0.50490191676E+03  0.40000000000E+03 0. -1.
<mgrwt>
<rscale>  2 0.45400484E+03</rscale>
<asrwt>0</asrwt>
<pdfrwt beam="1">  1       21 0.58203171E-01 0.45423339E+03</pdfrwt>
<pdfrwt beam="2">  1       21 0.89273563E-01 0.45423339E+03</pdfrwt>
<totfact> 0.25644620E+03</totfact>
</mgrwt>
</event>
<event>
 6    1  0.9190795E-004  0.4183515E+03  0.7818608E-02  0.1038224E+00
         21   -1    0    0  503  502  0.00000000000E+00  0.00000000000E+00  0.90433560519E+03  0.90433560519E+03  0.00000000000E+00 0.  1.
         21   -1    0    0  501  503 -0.00000000000E+00 -0.00000000000E+00 -0.28637351932E+03  0.28637351932E+03  0.00000000000E+00 0.  1.
    9000007    2    1    2  501    0  0.12254695453E+03  0.44626217680E+00 -0.38103985922E+02  0.41260845893E+03  0.39214266718E+03 0.  0.
    9000005    1    3    3    0    0 -0.13575566539E+03 -0.28915091568E+02 -0.61039219162E+02  0.15163267944E+03  0.99999687468E+00 0.  0.
          4    1    3    3  501    0  0.25830261992E+03  0.29361353745E+02  0.22935233240E+02  0.26097577948E+03  0.00000000000E+00 0.  1.
   -9000007    1    1    2    0  502 -0.12254695453E+03 -0.44626217680E+00  0.65606607180E+03  0.77810066558E+03  0.40000000000E+03 0.  1.
<mgrwt>
<rscale>  2 0.41646216E+03</rscale>
<asrwt>0</asrwt>
<pdfrwt beam="1">  1       21 0.13912855E+00 0.41835147E+03</pdfrwt>
<pdfrwt beam="2">  1       21 0.44057465E-01 0.41835147E+03</pdfrwt>
<totfact> 0.15565385E+03</totfact>
</mgrwt>
</event>
<event>
 6    1  0.9190795E-004  0.6242612E+03  0.7818608E-02  0.9856399E-01
         21   -1    0    0  503  502  0.00000000000E+00  0.00000000000E+00  0.12311320842E+04  0.12311320842E+04  0.00000000000E+00 0.  1.
         21   -1    0    0  501  503 -0.00000000000E+00 -0.00000000000E+00 -0.10037212266E+04  0.10037212266E+04  0.00000000000E+00 0. -1.
    9000007    2    1    2  501    0  0.25466121169E+03  0.40574733690E+03 -0.81093730762E+03  0.10233871965E+04  0.40027341010E+03 0.  0.
    9000005    1    3    3    0    0  0.10546803257E+03  0.35313602235E+03 -0.77930327757E+03  0.86205751235E+03  0.99999687468E+00 0.  0.
          4    1    3    3  501    0  0.14919317912E+03  0.52611314545E+02 -0.31634030048E+02  0.16132968410E+03  0.00000000000E+00 0.  1.
   -9000007    1    1    2    0  502 -0.25466121169E+03 -0.40574733690E+03  0.10383481652E+04  0.12114661144E+04  0.40000000000E+03 0.  1.
<mgrwt>
<rscale>  2 0.62421737E+03</rscale>
<asrwt>0</asrwt>
<pdfrwt beam="1">  1       21 0.18940494E+00 0.62426119E+03</pdfrwt>
<pdfrwt beam="2">  1       21 0.15441865E+00 0.62426119E+03</pdfrwt>
<totfact> 0.30739291E+01</totfact>
</mgrwt>
</event>
<event>
 6    1  0.9190795E-004  0.5178303E+03  0.7818608E-02  0.1009229E+00
         21   -1    0    0  503  502  0.00000000000E+00  0.00000000000E+00  0.55663109457E+03  0.55663109457E+03  0.00000000000E+00 0.  1.
         21   -1    0    0  501  503 -0.00000000000E+00 -0.00000000000E+00 -0.53299994965E+03  0.53299994965E+03  0.00000000000E+00 0. -1.
    9000007    2    1    2  501    0  0.31154974540E+03 -0.10513217077E+03 -0.15719782690E+03  0.54116487914E+03  0.40004031352E+03 0.  0.
    9000005    1    3    3    0    0 -0.90459678273E+02  0.37157914973E+01 -0.72883507353E+02  0.11623151955E+03  0.99999687468E+00 0.  0.
          4    1    3    3  501    0  0.40200942367E+03 -0.10884796227E+03 -0.84314319546E+02  0.42493335959E+03  0.00000000000E+00 0.  1.
   -9000007    1    1    2    0  502 -0.31154974540E+03  0.10513217077E+03  0.18082897182E+03  0.54846616508E+03  0.40000000000E+03 0.  1.
<mgrwt>
<rscale>  2 0.51782256E+03</rscale>
<asrwt>0</asrwt>
<pdfrwt beam="1">  1       21 0.85635553E-01 0.51783035E+03</pdfrwt>
<pdfrwt beam="2">  1       21 0.81999992E-01 0.51783035E+03</pdfrwt>
<totfact> 0.12783734E+03</totfact>
</mgrwt>
</event>
<event>
 6    1  0.9190795E-004  0.4653947E+03  0.7818608E-02  0.1023242E+00
         21   -1    0    0  503  502  0.00000000000E+00  0.00000000000E+00  0.33794103616E+03  0.33794103616E+03  0.00000000000E+00 0.  1.
         21   -1    0    0  501  503 -0.00000000000E+00 -0.00000000000E+00 -0.12496454948E+04  0.12496454948E+04  0.00000000000E+00 0.  1.
    9000007    2    1    2  501    0 -0.23014035428E+03 -0.60230076139E+02 -0.10099456840E+04  0.11119358365E+04  0.39977340480E+03 0.  0.
    9000005    1    3    3    0    0  0.39121169743E+02  0.91947120823E+02 -0.68932367803E+02  0.12139773587E+03  0.99999687468E+00 0.  0.
          4    1    3    3  501    0 -0.26926152402E+03 -0.15217719696E+03 -0.94101331621E+03  0.99053810067E+03  0.00000000000E+00 0.  1.
   -9000007    1    1    2    0  502  0.23014035428E+03  0.60230076139E+02  0.98241225379E+02  0.47565069442E+03  0.40000000000E+03 0.  1.
<mgrwt>
<rscale>  2 0.46534603E+03</rscale>
<asrwt>0</asrwt>
<pdfrwt beam="1">  1       21 0.51990930E-01 0.46539472E+03</pdfrwt>
<pdfrwt beam="2">  1       21 0.19225315E+00 0.46539472E+03</pdfrwt>
<totfact> 0.43232326E+02</totfact>
</mgrwt>
</event>
<event>
 6    1  0.9190795E-004  0.4614634E+03  0.7818608E-02  0.1024469E+00
         21   -1    0    0  503  502  0.00000000000E+00  0.00000000000E+00  0.48198651701E+03  0.48198651701E+03  0.00000000000E+00 0.  1.
         21   -1    0    0  501  503 -0.00000000000E+00 -0.00000000000E+00 -0.47421858373E+03  0.47421858373E+03  0.00000000000E+00 0.  1.
    9000007    2    1    2  501    0 -0.18875435157E+03  0.12610213903E+03 -0.12389638149E+03  0.47780626453E+03  0.40176928500E+03 0.  0.
    9000005    1    3    3    0    0 -0.12636951763E+03  0.10834854649E+03  0.13286101620E+03  0.21298289164E+03  0.99999687468E+00 0.  0.
          4    1    3    3  501    0 -0.62384833941E+02  0.17753592542E+02 -0.25675739770E+03  0.26482337288E+03  0.00000000000E+00 0.  1.
   -9000007    1    1    2    0  502  0.18875435157E+03 -0.12610213903E+03  0.13166431477E+03  0.47839883621E+03  0.40000000000E+03 0.  1.
<mgrwt>
<rscale>  2 0.46107807E+03</rscale>
<asrwt>0</asrwt>
<pdfrwt beam="1">  1       21 0.74151772E-01 0.46146345E+03</pdfrwt>
<pdfrwt beam="2">  1       21 0.72956705E-01 0.46146345E+03</pdfrwt>
<totfact> 0.23800262E+03</totfact>
</mgrwt>
</event>
<event>
 6    1  0.9190795E-004  0.4813894E+03  0.7818608E-02  0.1018786E+00
         21   -1    0    0  503  502  0.00000000000E+00  0.00000000000E+00  0.48656623182E+03  0.48656623182E+03  0.00000000000E+00 0. -1.
         21   -1    0    0  501  503 -0.00000000000E+00 -0.00000000000E+00 -0.12269346927E+04  0.12269346927E+04  0.00000000000E+00 0.  1.
    9000007    2    1    2  501    0 -0.19286463346E+03  0.18584675234E+03 -0.10404638557E+04  0.11462328855E+04  0.39943586544E+03 0.  0.
    9000005    1    3    3    0    0  0.90261755960E+02  0.13853171988E+03 -0.58449131047E+03  0.60742844353E+03  0.99999687468E+00 0.  0.
          4    1    3    3  501    0 -0.28312638942E+03  0.47315032455E+02 -0.45597254520E+03  0.53880444194E+03  0.00000000000E+00 0.  1.
   -9000007    1    1    2    0  502  0.19286463346E+03 -0.18584675234E+03  0.30009539476E+03  0.56726803907E+03  0.40000000000E+03 0. -1.
<mgrwt>
<rscale>  2 0.48127222E+03</rscale>
<asrwt>0</asrwt>
<pdfrwt beam="1">  1       21 0.74856344E-01 0.48138943E+03</pdfrwt>
<pdfrwt beam="2">  1       21 0.18875918E+00 0.48138943E+03</pdfrwt>
<totfact> 0.20252146E+02</totfact>
</mgrwt>
</event>
<event>
 6    1  0.9190795E-004  0.6218528E+03  0.7818608E-02  0.9861133E-01
         21   -1    0    0  503  502  0.00000000000E+00  0.00000000000E+00  0.80815705093E+03  0.80815705093E+03  0.00000000000E+00 0. -1.
         21   -1    0    0  501  503 -0.00000000000E+00 -0.00000000000E+00 -0.49710997620E+03  0.49710997620E+03  0.00000000000E+00 0. -1.
    9000007    2    1    2  501    0  0.16554008719E+03 -0.44642736273E+03  0.28938022445E+02  0.62241533896E+03  0.39982813104E+03 0.  0.
    9000005    1    3    3    0    0  0.17953523798E+03 -0.42719915442E+03 -0.11424703571E+03  0.47726869201E+03  0.99999687468E+00 0.  0.
          4    1    3    3  501    0 -0.13995150793E+02 -0.19228208312E+02  0.14318505816E+03  0.14514664695E+03  0.00000000000E+00 0.  1.
   -9000007    1    1    2    0  502 -0.16554008719E+03  0.44642736273E+03  0.28210905228E+03  0.68285168817E+03  0.40000000000E+03 0. -1.
<mgrwt>
<rscale>  2 0.62182517E+03</rscale>
<asrwt>0</asrwt>
<pdfrwt beam="1">  1       21 0.12433185E+00 0.62185280E+03</pdfrwt>
<pdfrwt beam="2">  1       21 0.76478458E-01 0.62185280E+03</pdfrwt>
<totfact> 0.57967756E+02</totfact>
</mgrwt>
</event>
<event>
 6    1  0.9190795E-004  0.5572002E+03  0.7818608E-02  0.9999078E-01
         21   -1    0    0  503  502  0.00000000000E+00  0.00000000000E+00  0.13685802378E+03  0.13685802378E+03  0.00000000000E+00 0. -1.
         21   -1    0    0  501  503 -0.00000000000E+00 -0.00000000000E+00 -0.22881979450E+04  0.22881979450E+04  0.00000000000E+00 0.  1.
    9000007    2    1    2  501    0  0.35970852891E+02 -0.38454181546E+03 -0.95158005605E+03  0.11027133338E+04  0.40162891264E+03 0.  0.
    9000005    1    3    3    0    0  0.52788097672E+02 -0.16120714218E+03 -0.54613016879E+02  0.17820748455E+03  0.99999687468E+00 0.  0.
          4    1    3    3  501    0 -0.16817244781E+02 -0.22333467328E+03 -0.89696703917E+03  0.92450584929E+03  0.00000000000E+00 0.  1.
   -9000007    1    1    2    0  502 -0.35970852891E+02  0.38454181546E+03 -0.11997598652E+04  0.13223426349E+04  0.40000000000E+03 0. -1.
<mgrwt>
<rscale>  2 0.55690675E+03</rscale>
<asrwt>0</asrwt>
<pdfrwt beam="1">  1       21 0.21055079E-01 0.55720023E+03</pdfrwt>
<pdfrwt beam="2">  1       21 0.35203047E+00 0.55720023E+03</pdfrwt>
<totfact> 0.26052196E+02</totfact>
</mgrwt>
</event>
<event>
 6    1  0.9190795E-004  0.4008566E+03  0.7818608E-02  0.1043509E+00
         21   -1    0    0  503  502  0.00000000000E+00  0.00000000000E+00  0.14119251585E+04  0.14119251585E+04  0.00000000000E+00 0. -1.
         21   -1    0    0  501  503 -0.00000000000E+00 -0.00000000000E+00 -0.41739691086E+03  0.41739691086E+03  0.00000000000E+00 0. -1.
    9000007    2    1    2  501    0  0.98439022766E+00  0.21108436870E+02 -0.28285735473E+03  0.49060607548E+03  0.40029926686E+03 0.  0.
    9000005    1    3    3    0    0  0.15354413440E+03  0.51473603573E+02 -0.29294352642E+03  0.33472711683E+03  0.99999687468E+00 0.  0.
          4    1    3    3  501    0 -0.15255974417E+03 -0.30365166704E+02  0.10086171694E+02  0.15587895865E+03  0.00000000000E+00 0.  1.
   -9000007    1    1    2    0  502 -0.98439022766E+00 -0.21108436870E+02  0.12773856023E+04  0.13387159939E+04  0.40000000000E+03 0. -1.
<mgrwt>
<rscale>  2 0.40078190E+03</rscale>
<asrwt>0</asrwt>
<pdfrwt beam="1">  1       21 0.21721925E+00 0.40085663E+03</pdfrwt>
<pdfrwt beam="2">  1       21 0.64214910E-01 0.40085663E+03</pdfrwt>
<totfact> 0.19363325E+02</totfact>
</mgrwt>
</event>
<event>
 6    1  0.9190795E-004  0.5491280E+03  0.7818608E-02  0.1001706E+00
         21   -1    0    0  503  502  0.00000000000E+00  0.00000000000E+00  0.16504329654E+04  0.16504329654E+04  0.00000000000E+00 0.  1.
         21   -1    0    0  501  503 -0.00000000000E+00 -0.00000000000E+00 -0.18326485639E+03  0.18326485639E+03  0.00000000000E+00 0. -1.
    9000007    2    1    2  501    0 -0.37592997387E+03  0.50188876520E+01  0.68042359570E+03  0.87436708439E+03  0.40024117004E+03 0.  0.
    9000005    1    3    3    0    0  0.44323402333E+02 -0.97909392567E+02  0.20545795032E+03  0.23187234093E+03  0.99999687468E+00 0.  0.
          4    1    3    3  501    0 -0.42025337620E+03  0.10292828022E+03  0.47496564538E+03  0.64249474345E+03  0.00000000000E+00 0.  1.
   -9000007    1    1    2    0  502  0.37592997387E+03 -0.50188876520E+01  0.78674451330E+03  0.95933073738E+03  0.40000000000E+03 0. -1.
<mgrwt>
<rscale>  2 0.54908403E+03</rscale>
<asrwt>0</asrwt>
<pdfrwt beam="1">  1       21 0.25391275E+00 0.54912797E+03</pdfrwt>
<pdfrwt beam="2">  1       21 0.28194594E-01 0.54912797E+03</pdfrwt>
<totfact> 0.58824411E+02</totfact>
</mgrwt>
</event>
<event>
 6    1  0.9190795E-004  0.4091047E+03  0.7818608E-02  0.1040924E+00
         21   -1    0    0  503  502  0.00000000000E+00  0.00000000000E+00  0.23352909744E+04  0.23352909744E+04  0.00000000000E+00 0. -1.
         21   -1    0    0  501  503 -0.00000000000E+00 -0.00000000000E+00 -0.23898670097E+03  0.23898670097E+03  0.00000000000E+00 0. -1.
    9000007    2    1    2  501    0 -0.86864554991E+01 -0.69706562932E+02 -0.29367799640E+02  0.41015747963E+03  0.40302882157E+03 0.  0.
    9000005    1    3    3    0    0  0.36400803712E+02  0.14493123589E+03 -0.99923289408E+02  0.17976580712E+03  0.99999687468E+00 0.  0.
          4    1    3    3  501    0 -0.45087259211E+02 -0.21463779882E+03  0.70555489768E+02  0.23039167251E+03  0.00000000000E+00 0.  1.
   -9000007    1    1    2    0  502  0.86864554991E+01  0.69706562932E+02  0.21256720731E+04  0.21641201958E+04  0.40000000000E+03 0. -1.
<mgrwt>
<rscale>  2 0.40835682E+03</rscale>
<asrwt>0</asrwt>
<pdfrwt beam="1">  1       21 0.35927552E+00 0.40910474E+03</pdfrwt>
<pdfrwt beam="2">  1       21 0.36767186E-01 0.40910474E+03</pdfrwt>
<totfact> 0.85699749E+01</totfact>
</mgrwt>
</event>
<event>
 6    1  0.9190795E-004  0.6617140E+03  0.7818608E-02  0.9785234E-01
         21   -1    0    0  503  502  0.00000000000E+00  0.00000000000E+00  0.65325264520E+03  0.65325264520E+03  0.00000000000E+00 0. -1.
         21   -1    0    0  501  503 -0.00000000000E+00 -0.00000000000E+00 -0.85101298317E+03  0.85101298317E+03  0.00000000000E+00 0.  1.
    9000007    2    1    2  501    0  0.29317651251E+03 -0.43807867209E+03 -0.44586782153E+03  0.79756716804E+03  0.39931176146E+03 0.  0.
    9000005    1    3    3    0    0  0.80287929513E+02 -0.11325864100E+02  0.61105309048E+02  0.10153465227E+03  0.99999687468E+00 0.  0.
          4    1    3    3  501    0  0.21288858299E+03 -0.42675280799E+03 -0.50697313057E+03  0.69603251578E+03  0.00000000000E+00 0.  1.
   -9000007    1    1    2    0  502 -0.29317651251E+03  0.43807867209E+03  0.24810748356E+03  0.70669846032E+03  0.40000000000E+03 0. -1.
<mgrwt>
<rscale>  2 0.66161000E+03</rscale>
<asrwt>0</asrwt>
<pdfrwt beam="1">  1       21 0.10050041E+00 0.66171398E+03</pdfrwt>
<pdfrwt beam="2">  1       21 0.13092507E+00 0.66171398E+03</pdfrwt>
<totfact> 0.26128971E+02</totfact>
</mgrwt>
</event>
<event>
 6    1  0.9190795E-004  0.4289392E+03  0.7818608E-02  0.1034205E+00
         21   -1    0    0  503  502  0.00000000000E+00  0.00000000000E+00  0.15491515148E+03  0.15491515148E+03  0.00000000000E+00 0. -1.
         21   -1    0    0  501  503 -0.00000000000E+00 -0.00000000000E+00 -0.14074302387E+04  0.14074302387E+04  0.00000000000E+00 0. -1.
    9000007    2    1    2  501    0 -0.71237912427E+02 -0.13752828214E+03 -0.93509245799E+03  0.10287294289E+04  0.39987180999E+03 0.  0.
    9000005    1    3    3    0    0  0.16083505151E+03 -0.56090049274E+01 -0.38514448517E+03  0.41741663740E+03  0.99999687468E+00 0.  0.
          4    1    3    3  501    0 -0.23207296394E+03 -0.13191927721E+03 -0.54994797282E+03  0.61131279154E+03  0.00000000000E+00 0.  1.
   -9000007    1    1    2    0  502  0.71237912427E+02  0.13752828214E+03 -0.31742262927E+03  0.53361596128E+03  0.40000000000E+03 0. -1.
<mgrwt>
<rscale>  2 0.42890935E+03</rscale>
<asrwt>0</asrwt>
<pdfrwt beam="1">  1       21 0.23833099E-01 0.42893924E+03</pdfrwt>
<pdfrwt beam="2">  1       21 0.21652774E+00 0.42893924E+03</pdfrwt>
<totfact> 0.14808196E+03</totfact>
</mgrwt>
</event>
<event>
 6    1  0.9190795E-004  0.4904304E+03  0.7818608E-02  0.1016398E+00
         21   -1    0    0  503  502  0.00000000000E+00  0.00000000000E+00  0.27747611809E+03  0.27747611809E+03  0.00000000000E+00 0. -1.
         21   -1    0    0  501  503 -0.00000000000E+00 -0.00000000000E+00 -0.12287788014E+04  0.12287788014E+04  0.00000000000E+00 0. -1.
    9000007    2    1    2  501    0  0.24946936627E+03 -0.13021065564E+03 -0.88622281069E+03  0.10128735565E+04  0.40166178769E+03 0.  0.
    9000005    1    3    3    0    0  0.23901632685E+02 -0.14792628110E+02 -0.69465805331E+03  0.69522724408E+03  0.99999687468E+00 0.  0.
          4    1    3    3  501    0  0.22556773359E+03 -0.11541802753E+03 -0.19156475738E+03  0.31764631241E+03  0.00000000000E+00 0.  1.
   -9000007    1    1    2    0  502 -0.24946936627E+03  0.13021065564E+03 -0.65079872647E+02  0.49338136302E+03  0.40000000000E+03 0. -1.
<mgrwt>
<rscale>  2 0.49009002E+03</rscale>
<asrwt>0</asrwt>
<pdfrwt beam="1">  1       21 0.42688634E-01 0.49043039E+03</pdfrwt>
<pdfrwt beam="2">  1       21 0.18904289E+00 0.49043039E+03</pdfrwt>
<totfact> 0.68169685E+02</totfact>
</mgrwt>
</event>
<event>
 6    1  0.9190795E-004  0.4543129E+03  0.7818608E-02  0.1026499E+00
         21   -1    0    0  503  502  0.00000000000E+00  0.00000000000E+00  0.15018415578E+04  0.15018415578E+04  0.00000000000E+00 0.  1.
         21   -1    0    0  501  503 -0.00000000000E+00 -0.00000000000E+00 -0.13728139149E+03  0.13728139149E+03  0.00000000000E+00 0.  1.
    9000007    2    1    2  501    0 -0.14761994105E+03 -0.15687110520E+03  0.66208955392E+03  0.80254351379E+03  0.39914073141E+03 0.  0.
    9000005    1    3    3    0    0 -0.11828930359E+03 -0.83033814768E+02  0.91801915167E+01  0.14481798800E+03  0.99999687468E+00 0.  0.
          4    1    3    3  501    0 -0.29330637456E+02 -0.73837290429E+02  0.65290936241E+03  0.65772552578E+03  0.00000000000E+00 0.  1.
   -9000007    1    1    2    0  502  0.14761994105E+03  0.15687110520E+03  0.70247061242E+03  0.83657943553E+03  0.40000000000E+03 0.  1.
<mgrwt>
<rscale>  2 0.45412367E+03</rscale>
<asrwt>0</asrwt>
<pdfrwt beam="1">  1       21 0.23105254E+00 0.45431288E+03</pdfrwt>
<pdfrwt beam="2">  1       21 0.21120215E-01 0.45431288E+03</pdfrwt>
<totfact> 0.14931910E+03</totfact>
</mgrwt>
</event>
<event>
 6    1  0.9190795E-004  0.4165690E+03  0.7818608E-02  0.1038213E+00
         21   -1    0    0  503  502  0.00000000000E+00  0.00000000000E+00  0.75616511689E+03  0.75616511689E+03  0.00000000000E+00 0. -1.
         21   -1    0    0  501  503 -0.00000000000E+00 -0.00000000000E+00 -0.23607822764E+03  0.23607822764E+03  0.00000000000E+00 0. -1.
    9000007    2    1    2  501    0 -0.11522787893E+03  0.28799680242E+01  0.34404137882E+03  0.54027234985E+03  0.40030486304E+03 0.  0.
    9000005    1    3    3    0    0 -0.24065837601E+03  0.70130028953E+02  0.30073854110E+03  0.39150906120E+03  0.99999687468E+00 0.  0.
          4    1    3    3  501    0  0.12543049708E+03 -0.67250060929E+02  0.43302837718E+02  0.14876328864E+03  0.00000000000E+00 0.  1.
   -9000007    1    1    2    0  502  0.11522787893E+03 -0.28799680242E+01  0.17604551043E+03  0.45197099469E+03  0.40000000000E+03 0. -1.
<mgrwt>
<rscale>  2 0.41649575E+03</rscale>
<asrwt>0</asrwt>
<pdfrwt beam="1">  1       21 0.11633309E+00 0.41656901E+03</pdfrwt>
<pdfrwt beam="2">  1       21 0.36319728E-01 0.41656901E+03</pdfrwt>
<totfact> 0.36745138E+03</totfact>
</mgrwt>
</event>
<event>
 6    1  0.9190795E-004  0.4611565E+03  0.7818608E-02  0.1024455E+00
         21   -1    0    0  503  502  0.00000000000E+00  0.00000000000E+00  0.17735173238E+04  0.17735173238E+04  0.00000000000E+00 0.  1.
         21   -1    0    0  501  503 -0.00000000000E+00 -0.00000000000E+00 -0.12001282451E+03  0.12001282451E+03  0.00000000000E+00 0. -1.
    9000007    2    1    2  501    0  0.61878060000E+02 -0.22074561668E+03  0.85820785566E+03  0.97426181264E+03  0.40013477036E+03 0.  0.
    9000005    1    3    3    0    0  0.20895525643E+03 -0.15492241642E+03  0.31966027768E+03  0.41212491726E+03  0.99999687468E+00 0.  0.
          4    1    3    3  501    0 -0.14707719643E+03 -0.65823200258E+02  0.53854757798E+03  0.56213689538E+03  0.00000000000E+00 0.  1.
   -9000007    1    1    2    0  502 -0.61878060000E+02  0.22074561668E+03  0.79529664366E+03  0.91926833570E+03  0.40000000000E+03 0. -1.
<mgrwt>
<rscale>  2 0.46112731E+03</rscale>
<asrwt>0</asrwt>
<pdfrwt beam="1">  1       21 0.27284880E+00 0.46115654E+03</pdfrwt>
<pdfrwt beam="2">  1       21 0.18463513E-01 0.46115654E+03</pdfrwt>
<totfact> 0.10636815E+03</totfact>
</mgrwt>
</event>
<event>
 6    1  0.9190795E-004  0.4123286E+03  0.7818608E-02  0.1039606E+00
         21   -1    0    0  503  502  0.00000000000E+00  0.00000000000E+00  0.79957066227E+02  0.79957066227E+02  0.00000000000E+00 0. -1.
         21   -1    0    0  501  503 -0.00000000000E+00 -0.00000000000E+00 -0.22197327970E+04  0.22197327970E+04  0.00000000000E+00 0. -1.
    9000007    2    1    2  501    0 -0.40903361500E+02  0.90568302562E+02 -0.13070658016E+04  0.13705604166E+04  0.40017389155E+03 0.  0.
    9000005    1    3    3    0    0 -0.17742502398E+03  0.52036036525E+02 -0.11232801473E+04  0.11383965379E+04  0.99999687468E+00 0.  0.
          4    1    3    3  501    0  0.13652166248E+03  0.38532266037E+02 -0.18378565437E+03  0.23216387877E+03  0.00000000000E+00 0.  1.
   -9000007    1    1    2    0  502  0.40903361500E+02 -0.90568302562E+02 -0.83270992915E+03  0.92912944659E+03  0.40000000000E+03 0. -1.
<mgrwt>
<rscale>  2 0.41228637E+03</rscale>
<asrwt>0</asrwt>
<pdfrwt beam="1">  1       21 0.12301087E-01 0.41232857E+03</pdfrwt>
<pdfrwt beam="2">  1       21 0.34149735E+00 0.41232857E+03</pdfrwt>
<totfact> 0.89549383E+02</totfact>
</mgrwt>
</event>
<event>
 6    1  0.9190795E-004  0.4093791E+03  0.7818608E-02  0.1040739E+00
         21   -1    0    0  503  502  0.00000000000E+00  0.00000000000E+00  0.79149825526E+03  0.79149825526E+03  0.00000000000E+00 0.  1.
         21   -1    0    0  501  503 -0.00000000000E+00 -0.00000000000E+00 -0.28771333076E+03  0.28771333076E+03  0.00000000000E+00 0.  1.
    9000007    2    1    2  501    0  0.60246851069E+02  0.49187002150E+02 -0.26741689069E+02  0.41025154839E+03  0.40192309062E+03 0.  0.
    9000005    1    3    3    0    0  0.17901497600E+03  0.14078294170E+03  0.61931614430E+02  0.23601424356E+03  0.99999687468E+00 0.  0.
          4    1    3    3  501    0 -0.11876812493E+03 -0.91595939545E+02 -0.88673303499E+02  0.17423730483E+03  0.00000000000E+00 0.  1.
   -9000007    1    1    2    0  502 -0.60246851069E+02 -0.49187002150E+02  0.53052661357E+03  0.66896003763E+03  0.40000000000E+03 0.  1.
<mgrwt>
<rscale>  2 0.40890627E+03</rscale>
<asrwt>0</asrwt>
<pdfrwt beam="1">  1       21 0.12176896E+00 0.40937906E+03</pdfrwt>
<pdfrwt beam="2">  1       21 0.44263590E-01 0.40937906E+03</pdfrwt>
<totfact> 0.21856932E+03</totfact>
</mgrwt>
</event>
<event>
 6    1  0.9190795E-004  0.4794557E+03  0.7818608E-02  0.1019290E+00
         21   -1    0    0  503  502  0.00000000000E+00  0.00000000000E+00  0.37297788717E+03  0.37297788717E+03  0.00000000000E+00 0. -1.
         21   -1    0    0  501  503 -0.00000000000E+00 -0.00000000000E+00 -0.14733220454E+04  0.14733220454E+04  0.00000000000E+00 0. -1.
    9000007    2    1    2  501    0  0.12014141950E+03  0.23532048826E+03 -0.12542897347E+04  0.13428032261E+04  0.40008508169E+03 0.  0.
    9000005    1    3    3    0    0  0.14074892479E+03  0.33248715325E+03 -0.11129668736E+04  0.11700659078E+04  0.99999687468E+00 0.  0.
          4    1    3    3  501    0 -0.20607505283E+02 -0.97166664995E+02 -0.14132286108E+03  0.17273731827E+03  0.00000000000E+00 0.  1.
   -9000007    1    1    2    0  502 -0.12014141950E+03 -0.23532048826E+03  0.15394557649E+03  0.50349670644E+03  0.40000000000E+03 0. -1.
<mgrwt>
<rscale>  2 0.47943795E+03</rscale>
<asrwt>0</asrwt>
<pdfrwt beam="1">  1       21 0.57381213E-01 0.47945570E+03</pdfrwt>
<pdfrwt beam="2">  1       21 0.22666493E+00 0.47945570E+03</pdfrwt>
<totfact> 0.20640642E+02</totfact>
</mgrwt>
</event>
<event>
 6    1  0.9190795E-004  0.5296003E+03  0.7818608E-02  0.1006342E+00
         21   -1    0    0  503  502  0.00000000000E+00  0.00000000000E+00  0.10915509791E+04  0.10915509791E+04  0.00000000000E+00 0.  1.
         21   -1    0    0  501  503 -0.00000000000E+00 -0.00000000000E+00 -0.28380119566E+03  0.28380119566E+03  0.00000000000E+00 0.  1.
    9000007    2    1    2  501    0 -0.13227221432E+03  0.32055654583E+03  0.61586642280E+03  0.81226100822E+03  0.40027997325E+03 0.  0.
    9000005    1    3    3    0    0 -0.63192938384E+02  0.78818893036E+02  0.54040325893E+03  0.54976581161E+03  0.99999687468E+00 0.  0.
          4    1    3    3  501    0 -0.69079275939E+02  0.24173765279E+03  0.75463163876E+02  0.26249519661E+03  0.00000000000E+00 0.  1.
   -9000007    1    1    2    0  502  0.13227221432E+03 -0.32055654583E+03  0.19188336063E+03  0.56309116655E+03  0.40000000000E+03 0.  1.
<mgrwt>
<rscale>  2 0.52954741E+03</rscale>
<asrwt>0</asrwt>
<pdfrwt beam="1">  1       21 0.16793092E+00 0.52960032E+03</pdfrwt>
<pdfrwt beam="2">  1       21 0.43661723E-01 0.52960032E+03</pdfrwt>
<totfact> 0.90515127E+02</totfact>
</mgrwt>
</event>
<event>
 6    1  0.9190795E-004  0.4235580E+03  0.7818608E-02  0.1036013E+00
         21   -1    0    0  503  502  0.00000000000E+00  0.00000000000E+00  0.87428173680E+03  0.87428173680E+03  0.00000000000E+00 0.  1.
         21   -1    0    0  501  503 -0.00000000000E+00 -0.00000000000E+00 -0.75353030996E+03  0.75353030996E+03  0.00000000000E+00 0.  1.
    9000007    2    1    2  501    0  0.13548797686E+03  0.32317136974E+02 -0.63432025950E+03  0.76205535997E+03  0.39870388864E+03 0.  0.
    9000005    1    3    3    0    0  0.88857420230E+02 -0.17173191922E+03 -0.19091195930E+03  0.27172756468E+03  0.99999687468E+00 0.  0.
          4    1    3    3  501    0  0.46630556635E+02  0.20404905619E+03 -0.44340830020E+03  0.49032779529E+03  0.00000000000E+00 0.  1.
   -9000007    1    1    2    0  502 -0.13548797686E+03 -0.32317136974E+02  0.75507168634E+03  0.86575668679E+03  0.40000000000E+03 0.  1.
<mgrwt>
<rscale>  2 0.42325173E+03</rscale>
<asrwt>0</asrwt>
<pdfrwt beam="1">  1       21 0.13450488E+00 0.42355801E+03</pdfrwt>
<pdfrwt beam="2">  1       21 0.11592774E+00 0.42355801E+03</pdfrwt>
<totfact> 0.18861540E+02</totfact>
</mgrwt>
</event>
<event>
 6    1  0.9190795E-004  0.4703930E+03  0.7818608E-02  0.1021831E+00
         21   -1    0    0  503  502  0.00000000000E+00  0.00000000000E+00  0.41234905141E+03  0.41234905141E+03  0.00000000000E+00 0.  1.
         21   -1    0    0  501  503 -0.00000000000E+00 -0.00000000000E+00 -0.61595738662E+03  0.61595738662E+03  0.00000000000E+00 0. -1.
    9000007    2    1    2  501    0 -0.98644509711E+01 -0.24673770899E+03 -0.28678596049E+03  0.55092260736E+03  0.40036574247E+03 0.  0.
    9000005    1    3    3    0    0  0.17827138145E+03 -0.17724321125E+03 -0.82351480515E+02  0.26453470040E+03  0.99999687468E+00 0.  0.
          4    1    3    3  501    0 -0.18813583242E+03 -0.69494497744E+02 -0.20443447997E+03  0.28638790697E+03  0.00000000000E+00 0.  1.
   -9000007    1    1    2    0  502  0.98644509711E+01  0.24673770899E+03  0.83177625278E+02  0.47738383066E+03  0.40000000000E+03 0.  1.
<mgrwt>
<rscale>  2 0.47031512E+03</rscale>
<asrwt>0</asrwt>
<pdfrwt beam="1">  1       21 0.63438316E-01 0.47039296E+03</pdfrwt>
<pdfrwt beam="2">  1       21 0.94762675E-01 0.47039296E+03</pdfrwt>
<totfact> 0.18302909E+03</totfact>
</mgrwt>
</event>
<event>
 6    1  0.9190795E-004  0.4941341E+03  0.7818608E-02  0.1015370E+00
         21   -1    0    0  503  502  0.00000000000E+00  0.00000000000E+00  0.62720654940E+03  0.62720654940E+03  0.00000000000E+00 0. -1.
         21   -1    0    0  501  503 -0.00000000000E+00 -0.00000000000E+00 -0.54841029961E+03  0.54841029961E+03  0.00000000000E+00 0.  1.
    9000007    2    1    2  501    0  0.17938154924E+03 -0.22801478973E+03 -0.27781270394E+03  0.56624140610E+03  0.39910017159E+03 0.  0.
    9000005    1    3    3    0    0  0.18648396724E+03 -0.28965147672E+03 -0.72873452631E+02  0.35211615711E+03  0.99999687468E+00 0.  0.
          4    1    3    3  501    0 -0.71024180002E+01  0.61636686999E+02 -0.20493925131E+03  0.21412524899E+03  0.00000000000E+00 0.  1.
   -9000007    1    1    2    0  502 -0.17938154924E+03  0.22801478973E+03  0.35660895374E+03  0.60937544291E+03  0.40000000000E+03 0. -1.
<mgrwt>
<rscale>  2 0.49395194E+03</rscale>
<asrwt>0</asrwt>
<pdfrwt beam="1">  1       21 0.96493316E-01 0.49413408E+03</pdfrwt>
<pdfrwt beam="2">  1       21 0.84370815E-01 0.49413408E+03</pdfrwt>
<totfact> 0.90774468E+02</totfact>
</mgrwt>
</event>
<event>
 6    1  0.9190795E-004  0.4128028E+03  0.7818608E-02  0.1039482E+00
         21   -1    0    0  503  502  0.00000000000E+00  0.00000000000E+00  0.24860465423E+03  0.24860465423E+03  0.00000000000E+00 0.  1.
         21   -1    0    0  501  503 -0.00000000000E+00 -0.00000000000E+00 -0.21172737505E+04  0.21172737505E+04  0.00000000000E+00 0.  1.
    9000007    2    1    2  501    0 -0.98130349257E+02  0.27866761852E+02 -0.19072359138E+04  0.19512779690E+04  0.39941301862E+03 0.  0.
    9000005    1    3    3    0    0  0.10097163662E+03 -0.12947196683E+02 -0.14391212167E+03  0.17627989125E+03  0.99999687468E+00 0.  0.
          4    1    3    3  501    0 -0.19910198588E+03  0.40813958535E+02 -0.17633237922E+04  0.17749980777E+04  0.00000000000E+00 0.  1.
   -9000007    1    1    2    0  502  0.98130349257E+02 -0.27866761852E+02  0.38566817599E+02  0.41460043570E+03  0.40000000000E+03 0.  1.
<mgrwt>
<rscale>  2 0.41266050E+03</rscale>
<asrwt>0</asrwt>
<pdfrwt beam="1">  1       21 0.38246871E-01 0.41280276E+03</pdfrwt>
<pdfrwt beam="2">  1       21 0.32573441E+00 0.41280276E+03</pdfrwt>
<totfact> 0.12618794E+02</totfact>
</mgrwt>
</event>
<event>
 6    1  0.9190795E-004  0.4858964E+03  0.7818608E-02  0.1017600E+00
         21   -1    0    0  503  502  0.00000000000E+00  0.00000000000E+00  0.47280166568E+03  0.47280166568E+03  0.00000000000E+00 0. -1.
         21   -1    0    0  501  503 -0.00000000000E+00 -0.00000000000E+00 -0.59021907669E+03  0.59021907669E+03  0.00000000000E+00 0. -1.
    9000007    2    1    2  501    0  0.22833277061E+03  0.15478851259E+03 -0.26846368446E+03  0.55418843750E+03  0.39869378804E+03 0.  0.
    9000005    1    3    3    0    0  0.44737524756E+02  0.35358140121E+02 -0.32339271846E+03  0.32838315203E+03  0.99999687468E+00 0.  0.
          4    1    3    3  501    0  0.18359524585E+03  0.11943037247E+03  0.54929034003E+02  0.22580528546E+03  0.00000000000E+00 0.  1.
   -9000007    1    1    2    0  502 -0.22833277061E+03 -0.15478851259E+03  0.15104627344E+03  0.50883230487E+03  0.40000000000E+03 0. -1.
<mgrwt>
<rscale>  2 0.48562752E+03</rscale>
<asrwt>0</asrwt>
<pdfrwt beam="1">  1       21 0.72738718E-01 0.48589643E+03</pdfrwt>
<pdfrwt beam="2">  1       21 0.90802935E-01 0.48589643E+03</pdfrwt>
<totfact> 0.14827177E+03</totfact>
</mgrwt>
</event>
<event>
 6    1  0.9190795E-004  0.4705875E+03  0.7818608E-02  0.1021772E+00
         21   -1    0    0  503  502  0.00000000000E+00  0.00000000000E+00  0.15286590162E+03  0.15286590162E+03  0.00000000000E+00 0. -1.
         21   -1    0    0  501  503 -0.00000000000E+00 -0.00000000000E+00 -0.15922653246E+04  0.15922653246E+04  0.00000000000E+00 0. -1.
    9000007    2    1    2  501    0 -0.57579691447E+02  0.24062886827E+03 -0.98260729076E+03  0.10894813767E+04  0.40029352884E+03 0.  0.
    9000005    1    3    3    0    0 -0.11689574395E+03  0.31941152595E+03 -0.55734016121E+03  0.65292985317E+03  0.99999687468E+00 0.  0.
          4    1    3    3  501    0  0.59316052499E+02 -0.78782657680E+02 -0.42526712955E+03  0.43655152354E+03  0.00000000000E+00 0.  1.
   -9000007    1    1    2    0  502  0.57579691447E+02 -0.24062886827E+03 -0.45679213222E+03  0.65564984952E+03  0.40000000000E+03 0. -1.
<mgrwt>
<rscale>  2 0.47052506E+03</rscale>
<asrwt>0</asrwt>
<pdfrwt beam="1">  1       21 0.23517830E-01 0.47058749E+03</pdfrwt>
<pdfrwt beam="2">  1       21 0.24496390E+00 0.47058749E+03</pdfrwt>
<totfact> 0.98677969E+02</totfact>
</mgrwt>
</event>
<event>
 6    1  0.9190795E-004  0.4243780E+03  0.7818608E-02  0.1035678E+00
         21   -1    0    0  503  502  0.00000000000E+00  0.00000000000E+00  0.41809603741E+03  0.41809603741E+03  0.00000000000E+00 0. -1.
         21   -1    0    0  501  503 -0.00000000000E+00 -0.00000000000E+00 -0.78425909303E+03  0.78425909303E+03  0.00000000000E+00 0. -1.
    9000007    2    1    2  501    0  0.47199705115E+02  0.13367460107E+03 -0.58685671404E+03  0.72402218991E+03  0.39963810822E+03 0.  0.
    9000005    1    3    3    0    0  0.38606063981E+02  0.27498862234E+03 -0.43786178644E+03  0.51849119049E+03  0.99999687468E+00 0.  0.
          4    1    3    3  501    0  0.85936411340E+01 -0.14131402127E+03 -0.14899492759E+03  0.20553099942E+03  0.00000000000E+00 0.  1.
   -9000007    1    1    2    0  502 -0.47199705115E+02 -0.13367460107E+03  0.22069365842E+03  0.47833294053E+03  0.40000000000E+03 0. -1.
<mgrwt>
<rscale>  2 0.42429273E+03</rscale>
<asrwt>0</asrwt>
<pdfrwt beam="1">  1       21 0.64322467E-01 0.42437803E+03</pdfrwt>
<pdfrwt beam="2">  1       21 0.12065525E+00 0.42437803E+03</pdfrwt>
<totfact> 0.99648427E+02</totfact>
</mgrwt>
</event>
<event>
 6    1  0.9190795E-004  0.6318292E+03  0.7818608E-02  0.9841573E-01
         21   -1    0    0  503  502  0.00000000000E+00  0.00000000000E+00  0.39827363864E+03  0.39827363864E+03  0.00000000000E+00 0.  1.
         21   -1    0    0  501  503 -0.00000000000E+00 -0.00000000000E+00 -0.10080574423E+04  0.10080574423E+04  0.00000000000E+00 0.  1.
    9000007    2    1    2  501    0  0.48528821639E+03 -0.58961119735E+02 -0.35916641204E+03  0.72677965275E+03  0.40028375623E+03 0.  0.
    9000005    1    3    3    0    0  0.44475524422E+02  0.11543536050E+03 -0.18332388633E+03  0.22116067015E+03  0.99999687468E+00 0.  0.
          4    1    3    3  501    0  0.44081269197E+03 -0.17439648024E+03 -0.17584252571E+03  0.50561898260E+03  0.00000000000E+00 0.  1.
   -9000007    1    1    2    0  502 -0.48528821639E+03  0.58961119735E+02 -0.25061739165E+03  0.67955142822E+03  0.40000000000E+03 0.  1.
<mgrwt>
<rscale>  2 0.63178427E+03</rscale>
<asrwt>0</asrwt>
<pdfrwt beam="1">  1       21 0.61272868E-01 0.63182921E+03</pdfrwt>
<pdfrwt beam="2">  1       21 0.15508576E+00 0.63182921E+03</pdfrwt>
<totfact> 0.52755877E+02</totfact>
</mgrwt>
</event>
<event>
 6    1  0.9190795E-004  0.5686612E+03  0.7818608E-02  0.9973083E-01
         21   -1    0    0  503  502  0.00000000000E+00  0.00000000000E+00  0.10544737889E+04  0.10544737889E+04  0.00000000000E+00 0.  1.
         21   -1    0    0  501  503 -0.00000000000E+00 -0.00000000000E+00 -0.33646855194E+03  0.33646855194E+03  0.00000000000E+00 0.  1.
    9000007    2    1    2  501    0 -0.40080884599E+03  0.52229039762E+02  0.56721447470E+03  0.80262826008E+03  0.39887875345E+03 0.  0.
    9000005    1    3    3    0    0 -0.37258938378E+02  0.74009555665E+02 -0.41960869718E+02  0.92883569053E+02  0.99999687468E+00 0.  0.
          4    1    3    3  501    0 -0.36354990761E+03 -0.21780515903E+02  0.60917534442E+03  0.70974469103E+03  0.00000000000E+00 0.  1.
   -9000007    1    1    2    0  502  0.40080884599E+03 -0.52229039762E+02  0.15079076222E+03  0.58831408073E+03  0.40000000000E+03 0.  1.
<mgrwt>
<rscale>  2 0.56846410E+03</rscale>
<asrwt>0</asrwt>
<pdfrwt beam="1">  1       21 0.16222674E+00 0.56866124E+03</pdfrwt>
<pdfrwt beam="2">  1       21 0.51764393E-01 0.56866124E+03</pdfrwt>
<totfact> 0.68607885E+02</totfact>
</mgrwt>
</event>
<event>
 6    1  0.9190795E-004  0.4310138E+03  0.7818608E-02  0.1033559E+00
         21   -1    0    0  503  502  0.00000000000E+00  0.00000000000E+00  0.73118290630E+03  0.73118290630E+03  0.00000000000E+00 0. -1.
         21   -1    0    0  501  503 -0.00000000000E+00 -0.00000000000E+00 -0.26250606483E+03  0.26250606483E+03  0.00000000000E+00 0. -1.
    9000007    2    1    2  501    0  0.14488191518E+03  0.67610846253E+02  0.14458566758E+03  0.45461839609E+03  0.40026350685E+03 0.  0.
    9000005    1    3    3    0    0  0.15914722130E+03 -0.11782332319E+03 -0.29101698527E+02  0.20014515329E+03  0.99999687468E+00 0.  0.
          4    1    3    3  501    0 -0.14265306117E+02  0.18543416944E+03  0.17368736610E+03  0.25447324280E+03  0.00000000000E+00 0.  1.
   -9000007    1    1    2    0  502 -0.14488191518E+03 -0.67610846253E+02  0.32409117389E+03  0.53907057504E+03  0.40000000000E+03 0. -1.
<mgrwt>
<rscale>  2 0.43095258E+03</rscale>
<asrwt>0</asrwt>
<pdfrwt beam="1">  1       21 0.11248968E+00 0.43101377E+03</pdfrwt>
<pdfrwt beam="2">  1       21 0.40385549E-01 0.43101377E+03</pdfrwt>
<totfact> 0.31988670E+03</totfact>
</mgrwt>
</event>
<event>
 6    1  0.9190795E-004  0.4578558E+03  0.7818608E-02  0.1025454E+00
         21   -1    0    0  503  502  0.00000000000E+00  0.00000000000E+00  0.55406932501E+03  0.55406932501E+03  0.00000000000E+00 0. -1.
         21   -1    0    0  501  503 -0.00000000000E+00 -0.00000000000E+00 -0.44513642408E+03  0.44513642408E+03  0.00000000000E+00 0. -1.
    9000007    2    1    2  501    0 -0.47300898660E+02  0.21770283674E+03 -0.13988340516E+03  0.47810935271E+03  0.39923587761E+03 0.  0.
    9000005    1    3    3    0    0 -0.10178127477E+03  0.27946998570E+03 -0.21471275810E+03  0.36683166342E+03  0.99999687468E+00 0.  0.
          4    1    3    3  501    0  0.54480376108E+02 -0.61767148961E+02  0.74829352946E+02  0.11127768929E+03  0.00000000000E+00 0.  1.
   -9000007    1    1    2    0  502  0.47300898660E+02 -0.21770283674E+03  0.24881630609E+03  0.52109639637E+03  0.40000000000E+03 0. -1.
<mgrwt>
<rscale>  2 0.45768882E+03</rscale>
<asrwt>0</asrwt>
<pdfrwt beam="1">  1       21 0.85241435E-01 0.45785576E+03</pdfrwt>
<pdfrwt beam="2">  1       21 0.68482526E-01 0.45785576E+03</pdfrwt>
<totfact> 0.19926309E+03</totfact>
</mgrwt>
</event>
<event>
 6    1  0.9190795E-004  0.5166267E+03  0.7818608E-02  0.1009570E+00
         21   -1    0    0  503  502  0.00000000000E+00  0.00000000000E+00  0.14254207986E+04  0.14254207986E+04  0.00000000000E+00 0. -1.
         21   -1    0    0  501  503 -0.00000000000E+00 -0.00000000000E+00 -0.23580978387E+03  0.23580978387E+03  0.00000000000E+00 0.  1.
    9000007    2    1    2  501    0  0.32383813412E+03 -0.36690460209E+02  0.21723023071E+03  0.56043917803E+03  0.40085629863E+03 0.  0.
    9000005    1    3    3    0    0  0.36342056748E+03 -0.82023577680E+02  0.28554010464E+03  0.46940017844E+03  0.99999687468E+00 0.  0.
          4    1    3    3  501    0 -0.39582433363E+02  0.45333117470E+02 -0.68309873928E+02  0.91038999591E+02  0.00000000000E+00 0.  1.
   -9000007    1    1    2    0  502 -0.32383813412E+03  0.36690460209E+02  0.97238078404E+03  0.11007914045E+04  0.40000000000E+03 0.  1.
<mgrwt>
<rscale>  2 0.51646054E+03</rscale>
<asrwt>0</asrwt>
<pdfrwt beam="1">  1       21 0.21929550E+00 0.51662665E+03</pdfrwt>
<pdfrwt beam="2">  1       21 0.36278429E-01 0.51662665E+03</pdfrwt>
<totfact> 0.59337314E+02</totfact>
</mgrwt>
</event>
<event>
 6    1  0.9190795E-004  0.4611299E+03  0.7818608E-02  0.1024543E+00
         21   -1    0    0  503  502  0.00000000000E+00  0.00000000000E+00  0.10736949711E+04  0.10736949711E+04  0.00000000000E+00 0. -1.
         21   -1    0    0  501  503 -0.00000000000E+00 -0.00000000000E+00 -0.28933336824E+03  0.28933336824E+03  0.00000000000E+00 0. -1.
    9000007    2    1    2  501    0 -0.21487512734E+03 -0.73049200996E+02  0.77645228977E+03  0.90306088030E+03  0.40141411175E+03 0.  0.
    9000005    1    3    3    0    0 -0.22804284444E+03  0.68168119392E+02  0.70531068722E+03  0.74438874045E+03  0.99999687468E+00 0.  0.
          4    1    3    3  501    0  0.13167717099E+02 -0.14121732039E+03  0.71141602548E+02  0.15867213985E+03  0.00000000000E+00 0.  1.
   -9000007    1    1    2    0  502  0.21487512734E+03  0.73049200996E+02  0.79093130467E+01  0.45996745901E+03  0.40000000000E+03 0. -1.
<mgrwt>
<rscale>  2 0.46082199E+03</rscale>
<asrwt>0</asrwt>
<pdfrwt beam="1">  1       21 0.16518384E+00 0.46112991E+03</pdfrwt>
<pdfrwt beam="2">  1       21 0.44512826E-01 0.46112991E+03</pdfrwt>
<totfact> 0.93616313E+02</totfact>
</mgrwt>
</event>
<event>
 6    1  0.9190795E-004  0.5392290E+03  0.7818608E-02  0.1004048E+00
         21   -1    0    0  503  502  0.00000000000E+00  0.00000000000E+00  0.55854773814E+03  0.55854773814E+03  0.00000000000E+00 0.  1.
         21   -1    0    0  501  503 -0.00000000000E+00 -0.00000000000E+00 -0.52106951739E+03  0.52106951739E+03  0.00000000000E+00 0. -1.
    9000007    2    1    2  501    0  0.35097537266E+03  0.83969725033E+02 -0.45251217811E+01  0.53924802277E+03  0.40066610338E+03 0.  0.
    9000005    1    3    3    0    0  0.24899413069E+03 -0.11213134890E+03 -0.10992086593E+03  0.29437240578E+03  0.99999687468E+00 0.  0.
          4    1    3    3  501    0  0.10198124197E+03  0.19610107393E+03  0.10539574415E+03  0.24487561699E+03  0.00000000000E+00 0.  1.
   -9000007    1    1    2    0  502 -0.35097537266E+03 -0.83969725033E+02  0.42003342529E+02  0.54036923276E+03  0.40000000000E+03 0.  1.
<mgrwt>
<rscale>  2 0.53910531E+03</rscale>
<asrwt>0</asrwt>
<pdfrwt beam="1">  1       21 0.85930421E-01 0.53922904E+03</pdfrwt>
<pdfrwt beam="2">  1       21 0.80164541E-01 0.53922904E+03</pdfrwt>
<totfact> 0.13271373E+03</totfact>
</mgrwt>
</event>
<event>
 6    1  0.9190795E-004  0.7917624E+03  0.7818608E-02  0.9574433E-01
         21   -1    0    0  503  502  0.00000000000E+00  0.00000000000E+00  0.70315584386E+03  0.70315584386E+03  0.00000000000E+00 0. -1.
         21   -1    0    0  501  503 -0.00000000000E+00 -0.00000000000E+00 -0.89346689906E+03  0.89346689906E+03  0.00000000000E+00 0.  1.
    9000007    2    1    2  501    0  0.50368134639E+03 -0.45038694119E+03 -0.14086087453E+02  0.79188767177E+03  0.41272796289E+03 0.  0.
    9000005    1    3    3    0    0  0.31550647375E+03 -0.49719573352E+03  0.41076055808E+02  0.59028482511E+03  0.99999687468E+00 0.  0.
          4    1    3    3  501    0  0.18817487263E+03  0.46808792328E+02 -0.55162143261E+02  0.20160284665E+03  0.00000000000E+00 0.  1.
   -9000007    1    1    2    0  502 -0.50368134639E+03  0.45038694119E+03 -0.17622496775E+03  0.80473507116E+03  0.40000000000E+03 0.  1.
<mgrwt>
<rscale>  2 0.79011734E+03</rscale>
<asrwt>0</asrwt>
<pdfrwt beam="1">  1       21 0.10817782E+00 0.79176238E+03</pdfrwt>
<pdfrwt beam="2">  1       21 0.13745645E+00 0.79176238E+03</pdfrwt>
<totfact> 0.18392294E+02</totfact>
</mgrwt>
</event>
<event>
 6    1  0.9190795E-004  0.4151349E+03  0.7818608E-02  0.1038752E+00
         21   -1    0    0  503  502  0.00000000000E+00  0.00000000000E+00  0.31962695278E+04  0.31962695278E+04  0.00000000000E+00 0. -1.
         21   -1    0    0  501  503 -0.00000000000E+00 -0.00000000000E+00 -0.78143862774E+02  0.78143862774E+02  0.00000000000E+00 0. -1.
    9000007    2    1    2  501    0  0.76758141064E+02 -0.80281947777E+02  0.24718921449E+04  0.25063282613E+04  0.39886535788E+03 0.  0.
    9000005    1    3    3    0    0  0.15771183056E+03 -0.19711291853E+03  0.19157044152E+04  0.19322657505E+04  0.99999687468E+00 0.  0.
          4    1    3    3  501    0 -0.80953689492E+02  0.11683097075E+03  0.55618772975E+03  0.57406251079E+03  0.00000000000E+00 0.  1.
   -9000007    1    1    2    0  502 -0.76758141064E+02  0.80281947777E+02  0.64623352009E+03  0.76808512930E+03  0.40000000000E+03 0. -1.
<mgrwt>
<rscale>  2 0.41486136E+03</rscale>
<asrwt>0</asrwt>
<pdfrwt beam="1">  1       21 0.49173367E+00 0.41513492E+03</pdfrwt>
<pdfrwt beam="2">  1       21 0.12022135E-01 0.41513492E+03</pdfrwt>
<totfact> 0.97244852E+01</totfact>
</mgrwt>
</event>
<event>
 6    1  0.9190795E-004  0.9322212E+03  0.7818608E-02  0.9386479E-01
         21   -1    0    0  503  502  0.00000000000E+00  0.00000000000E+00  0.22217980885E+04  0.22217980885E+04  0.00000000000E+00 0. -1.
         21   -1    0    0  501  503 -0.00000000000E+00 -0.00000000000E+00 -0.45213510251E+03  0.45213510251E+03  0.00000000000E+00 0.  1.
    9000007    2    1    2  501    0  0.54925060154E+03 -0.63676873183E+03  0.13780075731E+04  0.16637131143E+04  0.40235036197E+03 0.  0.
    9000005    1    3    3    0    0  0.19175773075E+03 -0.47256681055E+03  0.56884612501E+03  0.76398778241E+03  0.99999687468E+00 0.  0.
          4    1    3    3  501    0  0.35749287079E+03 -0.16420192127E+03  0.80916144813E+03  0.89972533184E+03  0.00000000000E+00 0.  1.
   -9000007    1    1    2    0  502 -0.54925060154E+03  0.63676873183E+03  0.39165541288E+03  0.10102200768E+04  0.40000000000E+03 0.  1.
<mgrwt>
<rscale>  2 0.93196814E+03</rscale>
<asrwt>0</asrwt>
<pdfrwt beam="1">  1       21 0.34181508E+00 0.93222125E+03</pdfrwt>
<pdfrwt beam="2">  1       21 0.69559248E-01 0.93222125E+03</pdfrwt>
<totfact> 0.21637803E+01</totfact>
</mgrwt>
</event>
<event>
 6    1  0.9190795E-004  0.4878164E+03  0.7818608E-02  0.1017050E+00
         21   -1    0    0  503  502  0.00000000000E+00  0.00000000000E+00  0.23889663975E+04  0.23889663975E+04  0.00000000000E+00 0. -1.
         21   -1    0    0  501  503 -0.00000000000E+00 -0.00000000000E+00 -0.10935023199E+03  0.10935023199E+03  0.00000000000E+00 0. -1.
    9000007    2    1    2  501    0  0.25150953243E+03  0.11882035439E+03  0.15156204555E+04  0.15921903875E+04  0.40073625169E+03 0.  0.
    9000005    1    3    3    0    0  0.34485611645E+03  0.19836813315E+02  0.96335935777E+03  0.10234165781E+04  0.99999687468E+00 0.  0.
          4    1    3    3  501    0 -0.93346584027E+02  0.98983541075E+02  0.55226109769E+03  0.56877380933E+03  0.00000000000E+00 0.  1.
   -9000007    1    1    2    0  502 -0.25150953243E+03 -0.11882035439E+03  0.76399571008E+03  0.90612624205E+03  0.40000000000E+03 0. -1.
<mgrwt>
<rscale>  2 0.48766519E+03</rscale>
<asrwt>0</asrwt>
<pdfrwt beam="1">  1       21 0.36753325E+00 0.48781643E+03</pdfrwt>
<pdfrwt beam="2">  1       21 0.16823114E-01 0.48781643E+03</pdfrwt>
<totfact> 0.33151407E+02</totfact>
</mgrwt>
</event>
<event>
 6    1  0.9190795E-004  0.4699210E+03  0.7818608E-02  0.1021982E+00
         21   -1    0    0  503  502  0.00000000000E+00  0.00000000000E+00  0.14014666514E+04  0.14014666514E+04  0.00000000000E+00 0.  1.
         21   -1    0    0  501  503 -0.00000000000E+00 -0.00000000000E+00 -0.20356019311E+03  0.20356019311E+03  0.00000000000E+00 0. -1.
    9000007    2    1    2  501    0  0.12040472561E+03  0.21401564693E+03  0.21699127047E+03  0.51760116854E+03  0.40065666490E+03 0.  0.
    9000005    1    3    3    0    0  0.25107498435E+03  0.22716516621E+03  0.15649675614E+03  0.37300790230E+03  0.99999687468E+00 0.  0.
          4    1    3    3  501    0 -0.13067025874E+03 -0.13149519277E+02  0.60494514324E+02  0.14459326623E+03  0.00000000000E+00 0.  1.
   -9000007    1    1    2    0  502 -0.12040472561E+03 -0.21401564693E+03  0.98091518780E+03  0.10874256760E+04  0.40000000000E+03 0.  1.
<mgrwt>
<rscale>  2 0.46978101E+03</rscale>
<asrwt>0</asrwt>
<pdfrwt beam="1">  1       21 0.21561025E+00 0.46992101E+03</pdfrwt>
<pdfrwt beam="2">  1       21 0.31316954E-01 0.46992101E+03</pdfrwt>
<totfact> 0.86097014E+02</totfact>
</mgrwt>
</event>
<event>
 6    1  0.9190795E-004  0.4113066E+03  0.7818608E-02  0.1039959E+00
         21   -1    0    0  503  502  0.00000000000E+00  0.00000000000E+00  0.34319111360E+03  0.34319111360E+03  0.00000000000E+00 0. -1.
         21   -1    0    0  501  503 -0.00000000000E+00 -0.00000000000E+00 -0.76013207914E+03  0.76013207914E+03  0.00000000000E+00 0. -1.
    9000007    2    1    2  501    0  0.90504948374E+02 -0.26947294651E+02 -0.53581825409E+03  0.67548080108E+03  0.40031963334E+03 0.  0.
    9000005    1    3    3    0    0  0.13734952881E+03 -0.75142269191E+02 -0.22961297604E+02  0.15823866426E+03  0.99999687468E+00 0.  0.
          4    1    3    3  501    0 -0.46844580440E+02  0.48194974539E+02 -0.51285695649E+03  0.51724213682E+03  0.00000000000E+00 0.  1.
   -9000007    1    1    2    0  502 -0.90504948374E+02  0.26947294651E+02  0.11887728855E+03  0.42784239166E+03  0.40000000000E+03 0. -1.
<mgrwt>
<rscale>  2 0.41122880E+03</rscale>
<asrwt>0</asrwt>
<pdfrwt beam="1">  1       21 0.52798633E-01 0.41130659E+03</pdfrwt>
<pdfrwt beam="2">  1       21 0.11694340E+00 0.41130659E+03</pdfrwt>
<totfact> 0.16668381E+03</totfact>
</mgrwt>
</event>
<event>
 6    1  0.9190795E-004  0.5532502E+03  0.7818608E-02  0.1000751E+00
         21   -1    0    0  503  502  0.00000000000E+00  0.00000000000E+00  0.16031295874E+03  0.16031295874E+03  0.00000000000E+00 0.  1.
         21   -1    0    0  501  503 -0.00000000000E+00 -0.00000000000E+00 -0.20709439487E+04  0.20709439487E+04  0.00000000000E+00 0.  1.
    9000007    2    1    2  501    0  0.27115353892E+03  0.26937257097E+03 -0.12672983730E+04  0.13827507615E+04  0.39983581449E+03 0.  0.
    9000005    1    3    3    0    0  0.24003263560E+03 -0.23504428246E+02 -0.74582217136E+03  0.78384937047E+03  0.99999687468E+00 0.  0.
          4    1    3    3  501    0  0.31120903320E+02  0.29287699922E+03 -0.52147620164E+03  0.59890139103E+03  0.00000000000E+00 0.  1.
   -9000007    1    1    2    0  502 -0.27115353892E+03 -0.26937257097E+03 -0.64333261701E+03  0.84850614598E+03  0.40000000000E+03 0.  1.
<mgrwt>
<rscale>  2 0.55322056E+03</rscale>
<asrwt>0</asrwt>
<pdfrwt beam="1">  1       21 0.24663533E-01 0.55325024E+03</pdfrwt>
<pdfrwt beam="2">  1       21 0.31860675E+00 0.55325024E+03</pdfrwt>
<totfact> 0.30815543E+02</totfact>
</mgrwt>
</event>
<event>
 6    1  0.9190795E-004  0.5782791E+03  0.7818608E-02  0.9953028E-01
         21   -1    0    0  503  502  0.00000000000E+00  0.00000000000E+00  0.15290911972E+04  0.15290911972E+04  0.00000000000E+00 0. -1.
         21   -1    0    0  501  503 -0.00000000000E+00 -0.00000000000E+00 -0.22897791016E+03  0.22897791016E+03  0.00000000000E+00 0. -1.
    9000007    2    1    2  501    0  0.29213460609E+03  0.29304961155E+03  0.45604807294E+03  0.73646899550E+03  0.40396291117E+03 0.  0.
    9000005    1    3    3    0    0  0.21871745165E+03  0.25329610401E+03  0.52875242292E+03  0.62576062891E+03  0.99999687468E+00 0.  0.
          4    1    3    3  501    0  0.73417154443E+02  0.39753507539E+02 -0.72704349975E+02  0.11070836659E+03  0.00000000000E+00 0.  1.
   -9000007    1    1    2    0  502 -0.29213460609E+03 -0.29304961155E+03  0.84406521412E+03  0.10216001119E+04  0.40000000000E+03 0. -1.
<mgrwt>
<rscale>  2 0.57758754E+03</rscale>
<asrwt>0</asrwt>
<pdfrwt beam="1">  1       21 0.23524479E+00 0.57827912E+03</pdfrwt>
<pdfrwt beam="2">  1       21 0.35227372E-01 0.57827912E+03</pdfrwt>
<totfact> 0.48602950E+02</totfact>
</mgrwt>
</event>
<event>
 6    1  0.9190795E-004  0.4387943E+03  0.7818608E-02  0.1031129E+00
         21   -1    0    0  503  502  0.00000000000E+00  0.00000000000E+00  0.32200503321E+03  0.32200503321E+03  0.00000000000E+00 0.  1.
         21   -1    0    0  501  503 -0.00000000000E+00 -0.00000000000E+00 -0.63100385092E+03  0.63100385092E+03  0.00000000000E+00 0.  1.
    9000007    2    1    2  501    0 -0.10277142914E+03 -0.14780604454E+03 -0.26393344140E+03  0.51205595967E+03  0.40016477968E+03 0.  0.
    9000005    1    3    3    0    0 -0.19040321847E+03  0.65054093521E+02 -0.17008297867E+03  0.26346658292E+03  0.99999687468E+00 0.  0.
          4    1    3    3  501    0  0.87631789334E+02 -0.21286013806E+03 -0.93850462725E+02  0.24858937675E+03  0.00000000000E+00 0.  1.
   -9000007    1    1    2    0  502  0.10277142914E+03  0.14780604454E+03 -0.45065376311E+02  0.44095292446E+03  0.40000000000E+03 0. -1.
<mgrwt>
<rscale>  2 0.43875674E+03</rscale>
<asrwt>0</asrwt>
<pdfrwt beam="1">  1       21 0.49539237E-01 0.43879431E+03</pdfrwt>
<pdfrwt beam="2">  1       21 0.97077514E-01 0.43879431E+03</pdfrwt>
<totfact> 0.29863660E+03</totfact>
</mgrwt>
</event>
<event>
 6    1  0.9190795E-004  0.4799115E+03  0.7818608E-02  0.1019194E+00
         21   -1    0    0  503  502  0.00000000000E+00  0.00000000000E+00  0.13481438641E+04  0.13481438641E+04  0.00000000000E+00 0. -1.
         21   -1    0    0  501  503 -0.00000000000E+00 -0.00000000000E+00 -0.23200553005E+03  0.23200553005E+03  0.00000000000E+00 0.  1.
    9000007    2    1    2  501    0 -0.23734426512E+03  0.11824859045E+03  0.15159818201E+03  0.50281345109E+03  0.39940496802E+03 0.  0.
    9000005    1    3    3    0    0 -0.34307640798E+03  0.14049614671E+03  0.10643752212E+03  0.38570783639E+03  0.99999687468E+00 0.  0.
          4    1    3    3  501    0  0.10573214285E+03 -0.22247556252E+02  0.45160659894E+02  0.11710561470E+03  0.00000000000E+00 0.  1.
   -9000007    1    1    2    0  502  0.23734426512E+03 -0.11824859045E+03  0.96454015207E+03  0.10773359431E+04  0.40000000000E+03 0. -1.
<mgrwt>
<rscale>  2 0.47978747E+03</rscale>
<asrwt>0</asrwt>
<pdfrwt beam="1">  1       21 0.20740674E+00 0.47991148E+03</pdfrwt>
<pdfrwt beam="2">  1       21 0.35693159E-01 0.47991148E+03</pdfrwt>
<totfact> 0.74475671E+02</totfact>
</mgrwt>
</event>
<event>
 6    1  0.9190795E-004  0.4830743E+03  0.7818608E-02  0.1018357E+00
         21   -1    0    0  503  502  0.00000000000E+00  0.00000000000E+00  0.86528806288E+03  0.86528806288E+03  0.00000000000E+00 0. -1.
         21   -1    0    0  501  503 -0.00000000000E+00 -0.00000000000E+00 -0.34401857312E+03  0.34401857312E+03  0.00000000000E+00 0. -1.
    9000007    2    1    2  501    0 -0.25293045751E+03 -0.96886559822E+02 -0.21591352836E+02  0.48263014936E+03  0.39887949652E+03 0.  0.
    9000005    1    3    3    0    0 -0.13375525527E+03 -0.14688336586E+03 -0.18692634443E+03  0.27277765619E+03  0.99999687468E+00 0.  0.
          4    1    3    3  501    0 -0.11917520224E+03  0.49996806038E+02  0.16533499160E+03  0.20985249317E+03  0.00000000000E+00 0.  1.
   -9000007    1    1    2    0  502  0.25293045751E+03  0.96886559822E+02  0.54286084260E+03  0.72667648664E+03  0.40000000000E+03 0. -1.
<mgrwt>
<rscale>  2 0.48284233E+03</rscale>
<asrwt>0</asrwt>
<pdfrwt beam="1">  1       21 0.13312124E+00 0.48307434E+03</pdfrwt>
<pdfrwt beam="2">  1       21 0.52925935E-01 0.48307434E+03</pdfrwt>
<totfact> 0.11547853E+03</totfact>
</mgrwt>
</event>
<event>
 6    1  0.9190795E-004  0.4975882E+03  0.7818608E-02  0.1014439E+00
         21   -1    0    0  503  502  0.00000000000E+00  0.00000000000E+00  0.10438978859E+04  0.10438978859E+04  0.00000000000E+00 0.  1.
         21   -1    0    0  501  503 -0.00000000000E+00 -0.00000000000E+00 -0.67807457206E+03  0.67807457206E+03  0.00000000000E+00 0. -1.
    9000007    2    1    2  501    0 -0.19099209643E+03 -0.22513691975E+03 -0.51148510683E+03  0.71359024942E+03  0.40053641035E+03 0.  0.
    9000005    1    3    3    0    0  0.12234612303E+03 -0.10502905733E+03 -0.14768180141E+03  0.21865633118E+03  0.99999687468E+00 0.  0.
          4    1    3    3  501    0 -0.31333821946E+03 -0.12010786243E+03 -0.36380330542E+03  0.49493391824E+03  0.00000000000E+00 0.  1.
   -9000007    1    1    2    0  502  0.19099209643E+03  0.22513691975E+03  0.87730842067E+03  0.10083822086E+04  0.40000000000E+03 0.  1.
<mgrwt>
<rscale>  2 0.49748026E+03</rscale>
<asrwt>0</asrwt>
<pdfrwt beam="1">  1       21 0.16059967E+00 0.49758821E+03</pdfrwt>
<pdfrwt beam="2">  1       21 0.10431916E+00 0.49758821E+03</pdfrwt>
<totfact> 0.14608366E+02</totfact>
</mgrwt>
</event>
<event>
 6    1  0.9190795E-004  0.4127623E+03  0.7818608E-02  0.1039469E+00
         21   -1    0    0  503  502  0.00000000000E+00  0.00000000000E+00  0.51426083950E+03  0.51426083950E+03  0.00000000000E+00 0.  1.
         21   -1    0    0  501  503 -0.00000000000E+00 -0.00000000000E+00 -0.49020690391E+03  0.49020690391E+03  0.00000000000E+00 0.  1.
    9000007    2    1    2  501    0  0.64313614754E+02  0.78971178188E+02 -0.27410741067E+03  0.49527929458E+03  0.39974244087E+03 0.  0.
    9000005    1    3    3    0    0 -0.48733051610E+02  0.20885620811E+03 -0.23605535984E+03  0.31893409803E+03  0.99999687468E+00 0.  0.
          4    1    3    3  501    0  0.11304666636E+03 -0.12988502992E+03 -0.38052050829E+02  0.17634519655E+03  0.00000000000E+00 0.  1.
   -9000007    1    1    2    0  502 -0.64313614754E+02 -0.78971178188E+02  0.29816134625E+03  0.50918844883E+03  0.40000000000E+03 0.  1.
<mgrwt>
<rscale>  2 0.41269985E+03</rscale>
<asrwt>0</asrwt>
<pdfrwt beam="1">  1       21 0.79117053E-01 0.41276227E+03</pdfrwt>
<pdfrwt beam="2">  1       21 0.75416446E-01 0.41276227E+03</pdfrwt>
<totfact> 0.19385176E+03</totfact>
</mgrwt>
</event>
<event>
 6    1  0.9190795E-004  0.5064556E+03  0.7818608E-02  0.1012145E+00
         21   -1    0    0  503  502  0.00000000000E+00  0.00000000000E+00  0.92089187440E+03  0.92089187440E+03  0.00000000000E+00 0. -1.
         21   -1    0    0  501  503 -0.00000000000E+00 -0.00000000000E+00 -0.30884408764E+03  0.30884408764E+03  0.00000000000E+00 0. -1.
    9000007    2    1    2  501    0  0.85409813551E+01 -0.30957646085E+03  0.11254153456E+03  0.51880908151E+03  0.40073274459E+03 0.  0.
    9000005    1    3    3    0    0 -0.15146995143E+03 -0.13972109792E+03  0.18242179319E+03  0.27521599156E+03  0.99999687468E+00 0.  0.
          4    1    3    3  501    0  0.16001093278E+03 -0.16985536293E+03 -0.69880258628E+02  0.24359308995E+03  0.00000000000E+00 0.  1.
   -9000007    1    1    2    0  502 -0.85409813551E+01  0.30957646085E+03  0.49950625220E+03  0.71092688053E+03  0.40000000000E+03 0. -1.
<mgrwt>
<rscale>  2 0.50631063E+03</rscale>
<asrwt>0</asrwt>
<pdfrwt beam="1">  1       21 0.14167567E+00 0.50645559E+03</pdfrwt>
<pdfrwt beam="2">  1       21 0.47514475E-01 0.50645559E+03</pdfrwt>
<totfact> 0.12216969E+03</totfact>
</mgrwt>
</event>
<event>
 6    1  0.9190795E-004  0.4413125E+03  0.7818608E-02  0.1030352E+00
         21   -1    0    0  503  502  0.00000000000E+00  0.00000000000E+00  0.23081580406E+03  0.23081580406E+03  0.00000000000E+00 0.  1.
         21   -1    0    0  501  503 -0.00000000000E+00 -0.00000000000E+00 -0.85513682697E+03  0.85513682697E+03  0.00000000000E+00 0. -1.
    9000007    2    1    2  501    0 -0.17425769261E+03  0.66264551620E+02 -0.37521650170E+03  0.57918858661E+03  0.39989406282E+03 0.  0.
    9000005    1    3    3    0    0 -0.99671853871E+00  0.19325278446E+03 -0.28911945008E+03  0.34776240245E+03  0.99999687468E+00 0.  0.
          4    1    3    3  501    0 -0.17326097407E+03 -0.12698823284E+03 -0.86097051625E+02  0.23142618416E+03  0.00000000000E+00 0.  1.
   -9000007    1    1    2    0  502  0.17425769261E+03 -0.66264551620E+02 -0.24910452120E+03  0.50676404442E+03  0.40000000000E+03 0.  1.
<mgrwt>
<rscale>  2 0.44128851E+03</rscale>
<asrwt>0</asrwt>
<pdfrwt beam="1">  1       21 0.35510123E-01 0.44131251E+03</pdfrwt>
<pdfrwt beam="2">  1       21 0.13155951E+00 0.44131251E+03</pdfrwt>
<totfact> 0.27816851E+03</totfact>
</mgrwt>
</event>
<event>
 6    1  0.9190795E-004  0.8492911E+03  0.7818608E-02  0.9491400E-01
         21   -1    0    0  503  502  0.00000000000E+00  0.00000000000E+00  0.79089664969E+03  0.79089664969E+03  0.00000000000E+00 0. -1.
         21   -1    0    0  501  503 -0.00000000000E+00 -0.00000000000E+00 -0.13816856040E+04  0.13816856040E+04  0.00000000000E+00 0.  1.
    9000007    2    1    2  501    0  0.52378039712E+03  0.53567662861E+03 -0.92895061783E+03  0.12584440444E+04  0.39929538915E+03 0.  0.
    9000005    1    3    3    0    0  0.82494438640E+02 -0.50768952498E+02 -0.37824395924E+02  0.10399280679E+03  0.99999687468E+00 0.  0.
          4    1    3    3  501    0  0.44128595848E+03  0.58644558110E+03 -0.89112622191E+03  0.11544512377E+04  0.00000000000E+00 0.  1.
   -9000007    1    1    2    0  502 -0.52378039712E+03 -0.53567662861E+03  0.33816166356E+03  0.91413820921E+03  0.40000000000E+03 0. -1.
<mgrwt>
<rscale>  2 0.84920817E+03</rscale>
<asrwt>0</asrwt>
<pdfrwt beam="1">  1       21 0.12167641E+00 0.84929109E+03</pdfrwt>
<pdfrwt beam="2">  1       21 0.21256701E+00 0.84929109E+03</pdfrwt>
<totfact> 0.37256039E+01</totfact>
</mgrwt>
</event>
<event>
 6    1  0.9190795E-004  0.4148420E+03  0.7818608E-02  0.1038799E+00
         21   -1    0    0  503  502  0.00000000000E+00  0.00000000000E+00  0.58658530718E+03  0.58658530718E+03  0.00000000000E+00 0. -1.
         21   -1    0    0  501  503 -0.00000000000E+00 -0.00000000000E+00 -0.38605165200E+03  0.38605165200E+03  0.00000000000E+00 0. -1.
    9000007    2    1    2  501    0 -0.28833222961E+02 -0.10416836079E+03 -0.13840617605E+03  0.43732152756E+03  0.40051397824E+03 0.  0.
    9000005    1    3    3    0    0 -0.10442833791E+03  0.14909632282E+02 -0.24088830794E+03  0.26297481209E+03  0.99999687468E+00 0.  0.
          4    1    3    3  501    0  0.75595114953E+02 -0.11907799307E+03  0.10248213190E+03  0.17434671548E+03  0.00000000000E+00 0.  1.
   -9000007    1    1    2    0  502  0.28833222961E+02  0.10416836079E+03  0.33893983122E+03  0.53531543162E+03  0.40000000000E+03 0. -1.
<mgrwt>
<rscale>  2 0.41471785E+03</rscale>
<asrwt>0</asrwt>
<pdfrwt beam="1">  1       21 0.90243893E-01 0.41484196E+03</pdfrwt>
<pdfrwt beam="2">  1       21 0.59392562E-01 0.41484196E+03</pdfrwt>
<totfact> 0.24275605E+03</totfact>
</mgrwt>
</event>
<event>
 6    1  0.9190795E-004  0.4457078E+03  0.7818608E-02  0.1029016E+00
         21   -1    0    0  503  502  0.00000000000E+00  0.00000000000E+00  0.37504846301E+03  0.37504846301E+03  0.00000000000E+00 0.  1.
         21   -1    0    0  501  503 -0.00000000000E+00 -0.00000000000E+00 -0.11047906856E+04  0.11047906856E+04  0.00000000000E+00 0.  1.
    9000007    2    1    2  501    0 -0.15391570019E+03  0.12233329989E+03 -0.89875236630E+03  0.10031632548E+04  0.39990651507E+03 0.  0.
    9000005    1    3    3    0    0 -0.20489033910E+03 -0.86995828547E+02 -0.36435107537E+03  0.42696724858E+03  0.99999687468E+00 0.  0.
          4    1    3    3  501    0  0.50974638910E+02  0.20932912844E+03 -0.53440129093E+03  0.57619600621E+03  0.00000000000E+00 0.  1.
   -9000007    1    1    2    0  502  0.15391570019E+03 -0.12233329989E+03  0.16901014375E+03  0.47667589379E+03  0.40000000000E+03 0.  1.
<mgrwt>
<rscale>  2 0.44568686E+03</rscale>
<asrwt>0</asrwt>
<pdfrwt beam="1">  1       21 0.57699764E-01 0.44570784E+03</pdfrwt>
<pdfrwt beam="2">  1       21 0.16996780E+00 0.44570784E+03</pdfrwt>
<totfact> 0.49998000E+02</totfact>
</mgrwt>
</event>
<event>
 6    1  0.9190795E-004  0.4500743E+03  0.7818608E-02  0.1027849E+00
         21   -1    0    0  503  502  0.00000000000E+00  0.00000000000E+00  0.11883928429E+03  0.11883928429E+03  0.00000000000E+00 0.  1.
         21   -1    0    0  501  503 -0.00000000000E+00 -0.00000000000E+00 -0.20045673170E+04  0.20045673170E+04  0.00000000000E+00 0. -1.
    9000007    2    1    2  501    0 -0.71806010255E+02 -0.19341864367E+03 -0.13569776703E+04  0.14290408327E+04  0.39774668952E+03 0.  0.
    9000005    1    3    3    0    0  0.26196360880E+02  0.31538606429E+02 -0.96972941072E+03  0.97059624099E+03  0.99999687468E+00 0.  0.
          4    1    3    3  501    0 -0.98002371136E+02 -0.22495725010E+03 -0.38724825955E+03  0.45844459168E+03  0.00000000000E+00 0.  1.
   -9000007    1    1    2    0  502  0.71806010255E+02  0.19341864367E+03 -0.52875036245E+03  0.69436576861E+03  0.40000000000E+03 0. -1.
<mgrwt>
<rscale>  2 0.44957311E+03</rscale>
<asrwt>0</asrwt>
<pdfrwt beam="1">  1       21 0.18282968E-01 0.45007430E+03</pdfrwt>
<pdfrwt beam="2">  1       21 0.30839495E+00 0.45007430E+03</pdfrwt>
<totfact> 0.66577100E+02</totfact>
</mgrwt>
</event>
<event>
 6    1  0.9190795E-004  0.4030790E+03  0.7818608E-02  0.1042750E+00
         21   -1    0    0  503  502  0.00000000000E+00  0.00000000000E+00  0.25072400418E+03  0.25072400418E+03  0.00000000000E+00 0. -1.
         21   -1    0    0  501  503 -0.00000000000E+00 -0.00000000000E+00 -0.69276051911E+03  0.69276051911E+03  0.00000000000E+00 0. -1.
    9000007    2    1    2  501    0 -0.44664530371E+02 -0.13391227544E+02 -0.34180073350E+03  0.52848879183E+03  0.40037284676E+03 0.  0.
    9000005    1    3    3    0    0 -0.16476685990E+03 -0.38701800649E+02 -0.42415544141E+01  0.16930723042E+03  0.99999687468E+00 0.  0.
          4    1    3    3  501    0  0.12010232953E+03  0.25310573105E+02 -0.33755917909E+03  0.35918156141E+03  0.00000000000E+00 0.  1.
   -9000007    1    1    2    0  502  0.44664530371E+02  0.13391227544E+02 -0.10023578143E+03  0.41499573146E+03  0.40000000000E+03 0. -1.
<mgrwt>
<rscale>  2 0.40298636E+03</rscale>
<asrwt>0</asrwt>
<pdfrwt beam="1">  1       21 0.38572924E-01 0.40307898E+03</pdfrwt>
<pdfrwt beam="2">  1       21 0.10657854E+00 0.40307898E+03</pdfrwt>
<totfact> 0.40602754E+03</totfact>
</mgrwt>
</event>
<event>
 6    1  0.9190795E-004  0.4315270E+03  0.7818608E-02  0.1033389E+00
         21   -1    0    0  503  502  0.00000000000E+00  0.00000000000E+00  0.29416941442E+03  0.29416941442E+03  0.00000000000E+00 0.  1.
         21   -1    0    0  501  503 -0.00000000000E+00 -0.00000000000E+00 -0.85121988081E+03  0.85121988081E+03  0.00000000000E+00 0.  1.
    9000007    2    1    2  501    0 -0.79482684670E+02  0.14064892540E+03 -0.56864165054E+03  0.71384095156E+03  0.40014492377E+03 0.  0.
    9000005    1    3    3    0    0  0.11418691825E+03 -0.53220615705E+02 -0.31966019465E+03  0.34359092869E+03  0.99999687468E+00 0.  0.
          4    1    3    3  501    0 -0.19366960292E+03  0.19386954110E+03 -0.24898145588E+03  0.37025002287E+03  0.00000000000E+00 0.  1.
   -9000007    1    1    2    0  502  0.79482684670E+02 -0.14064892540E+03  0.11591184153E+02  0.43154834367E+03  0.40000000000E+03 0.  1.
<mgrwt>
<rscale>  2 0.43149343E+03</rscale>
<asrwt>0</asrwt>
<pdfrwt beam="1">  1       21 0.45256834E-01 0.43152703E+03</pdfrwt>
<pdfrwt beam="2">  1       21 0.13095690E+00 0.43152703E+03</pdfrwt>
<totfact> 0.17147836E+03</totfact>
</mgrwt>
</event>
<event>
 6    1  0.9190795E-004  0.5434692E+03  0.7818608E-02  0.1003030E+00
         21   -1    0    0  503  502  0.00000000000E+00  0.00000000000E+00  0.18783613340E+04  0.18783613340E+04  0.00000000000E+00 0.  1.
         21   -1    0    0  501  503 -0.00000000000E+00 -0.00000000000E+00 -0.16059451563E+03  0.16059451563E+03  0.00000000000E+00 0.  1.
    9000007    2    1    2  501    0 -0.35156020414E+03  0.10733843669E+03  0.10077498015E+04  0.11449534552E+04  0.40030317869E+03 0.  0.
    9000005    1    3    3    0    0 -0.19983884918E+03  0.13205078718E+03  0.95162492357E+03  0.98130727664E+03  0.99999687468E+00 0.  0.
          4    1    3    3  501    0 -0.15172135497E+03 -0.24712350488E+02  0.56124877971E+02  0.16364617853E+03  0.00000000000E+00 0.  1.
   -9000007    1    1    2    0  502  0.35156020414E+03 -0.10733843669E+03  0.71001701681E+03  0.89400239445E+03  0.40000000000E+03 0.  1.
<mgrwt>
<rscale>  2 0.54341336E+03</rscale>
<asrwt>0</asrwt>
<pdfrwt beam="1">  1       21 0.28897865E+00 0.54346918E+03</pdfrwt>
<pdfrwt beam="2">  1       21 0.24706850E-01 0.54346918E+03</pdfrwt>
<totfact> 0.46681188E+02</totfact>
</mgrwt>
</event>
<event>
 6    1  0.9190795E-004  0.5494292E+03  0.7818608E-02  0.1001643E+00
         21   -1    0    0  503  502  0.00000000000E+00  0.00000000000E+00  0.10181419084E+04  0.10181419084E+04  0.00000000000E+00 0.  1.
         21   -1    0    0  501  503 -0.00000000000E+00 -0.00000000000E+00 -0.61916877746E+03  0.61916877746E+03  0.00000000000E+00 0.  1.
    9000007    2    1    2  501    0 -0.28071597749E+03 -0.25113932953E+03 -0.39167634914E+03  0.67450280098E+03  0.39958884269E+03 0.  0.
    9000005    1    3    3    0    0  0.64604362852E+02  0.47503765800E+02 -0.11651972904E+03  0.14145026940E+03  0.99999687468E+00 0.  0.
          4    1    3    3  501    0 -0.34532034034E+03 -0.29864309533E+03 -0.27515662010E+03  0.53305253158E+03  0.00000000000E+00 0.  1.
   -9000007    1    1    2    0  502  0.28071597749E+03  0.25113932953E+03  0.79064948007E+03  0.96280788488E+03  0.40000000000E+03 0.  1.
<mgrwt>
<rscale>  2 0.54935435E+03</rscale>
<asrwt>0</asrwt>
<pdfrwt beam="1">  1       21 0.15663722E+00 0.54942918E+03</pdfrwt>
<pdfrwt beam="2">  1       21 0.95256735E-01 0.54942918E+03</pdfrwt>
<totfact> 0.19105249E+02</totfact>
</mgrwt>
</event>
<event>
 6    1  0.9190795E-004  0.4361388E+03  0.7818608E-02  0.1032145E+00
         21   -1    0    0  503  502  0.00000000000E+00  0.00000000000E+00  0.19131262444E+03  0.19131262444E+03  0.00000000000E+00 0. -1.
         21   -1    0    0  501  503 -0.00000000000E+00 -0.00000000000E+00 -0.10022269487E+04  0.10022269487E+04  0.00000000000E+00 0. -1.
    9000007    2    1    2  501    0 -0.13491545978E+03 -0.98531418460E+02 -0.33616815615E+03  0.55065968868E+03  0.40287273650E+03 0.  0.
    9000005    1    3    3    0    0 -0.88425792962E+02 -0.10001655336E+03 -0.42766499697E+03  0.44801872889E+03  0.99999687468E+00 0.  0.
          4    1    3    3  501    0 -0.46489666818E+02  0.14851348946E+01  0.91496840819E+02  0.10264095979E+03  0.00000000000E+00 0.  1.
   -9000007    1    1    2    0  502  0.13491545978E+03  0.98531418460E+02 -0.47474616808E+03  0.64287988444E+03  0.40000000000E+03 0. -1.
<mgrwt>
<rscale>  2 0.43547424E+03</rscale>
<asrwt>0</asrwt>
<pdfrwt beam="1">  1       21 0.29432712E-01 0.43613881E+03</pdfrwt>
<pdfrwt beam="2">  1       21 0.15418876E+00 0.43613881E+03</pdfrwt>
<totfact> 0.26577356E+03</totfact>
</mgrwt>
</event>
<event>
 6    1  0.9190795E-004  0.5867384E+03  0.7818608E-02  0.9933643E-01
         21   -1    0    0  503  502  0.00000000000E+00  0.00000000000E+00  0.17575193322E+04  0.17575193322E+04  0.00000000000E+00 0.  1.
         21   -1    0    0  501  503 -0.00000000000E+00 -0.00000000000E+00 -0.79055745136E+03  0.79055745136E+03  0.00000000000E+00 0.  1.
    9000007    2    1    2  501    0 -0.64677967399E+02  0.42435677184E+03 -0.62176377521E+03  0.85446787964E+03  0.39907800727E+03 0.  0.
    9000005    1    3    3    0    0  0.94272140684E+02  0.21715463176E+03 -0.52511079437E+03  0.57600843480E+03  0.99999687468E+00 0.  0.
          4    1    3    3  501    0 -0.15895010808E+03  0.20720214008E+03 -0.96652980848E+02  0.27845944484E+03  0.00000000000E+00 0.  1.
   -9000007    1    1    2    0  502  0.64677967399E+02 -0.42435677184E+03  0.15887256561E+04  0.16936089040E+04  0.40000000000E+03 0.  1.
<mgrwt>
<rscale>  2 0.58658126E+03</rscale>
<asrwt>0</asrwt>
<pdfrwt beam="1">  1       21 0.27038759E+00 0.58673837E+03</pdfrwt>
<pdfrwt beam="2">  1       21 0.12162422E+00 0.58673837E+03</pdfrwt>
<totfact> 0.17842297E+01</totfact>
</mgrwt>
</event>
<event>
 6    1  0.9190795E-004  0.4129489E+03  0.7818608E-02  0.1039394E+00
         21   -1    0    0  503  502  0.00000000000E+00  0.00000000000E+00  0.36815353430E+03  0.36815353430E+03  0.00000000000E+00 0.  1.
         21   -1    0    0  501  503 -0.00000000000E+00 -0.00000000000E+00 -0.48825139803E+03  0.48825139803E+03  0.00000000000E+00 0.  1.
    9000007    2    1    2  501    0 -0.10179990084E+03 -0.91505096309E+01  0.37157948276E+02  0.41461726609E+03  0.40009975329E+03 0.  0.
    9000005    1    3    3    0    0  0.31845916591E+02  0.53075420250E+02  0.19145498694E+03  0.20121425063E+03  0.99999687468E+00 0.  0.
          4    1    3    3  501    0 -0.13364581743E+03 -0.62225929881E+02 -0.15429703867E+03  0.21340301546E+03  0.00000000000E+00 0.  1.
   -9000007    1    1    2    0  502  0.10179990084E+03  0.91505096309E+01 -0.15725581201E+03  0.44178766625E+03  0.40000000000E+03 0. -1.
<mgrwt>
<rscale>  2 0.41292470E+03</rscale>
<asrwt>0</asrwt>
<pdfrwt beam="1">  1       21 0.56639005E-01 0.41294886E+03</pdfrwt>
<pdfrwt beam="2">  1       21 0.75115600E-01 0.41294886E+03</pdfrwt>
<totfact> 0.41228152E+03</totfact>
</mgrwt>
</event>
<event>
 6    1  0.9190795E-004  0.4739633E+03  0.7818608E-02  0.1020895E+00
         21   -1    0    0  503  502  0.00000000000E+00  0.00000000000E+00  0.41584954125E+03  0.41584954125E+03  0.00000000000E+00 0. -1.
         21   -1    0    0  501  503 -0.00000000000E+00 -0.00000000000E+00 -0.64159625123E+03  0.64159625123E+03  0.00000000000E+00 0. -1.
    9000007    2    1    2  501    0  0.60868662439E+02  0.24685267887E+03  0.98909249970E+02  0.48295233606E+03  0.39852061433E+03 0.  0.
    9000005    1    3    3    0    0  0.32516944773E+02 -0.46599366444E+02  0.17036819602E+03  0.17959725738E+03  0.99999687468E+00 0.  0.
          4    1    3    3  501    0  0.28351717666E+02  0.29345204532E+03 -0.71458946045E+02  0.30335507869E+03  0.00000000000E+00 0.  1.
   -9000007    1    1    2    0  502 -0.60868662439E+02 -0.24685267887E+03 -0.32465595996E+03  0.57449345642E+03  0.40000000000E+03 0. -1.
<mgrwt>
<rscale>  2 0.47365106E+03</rscale>
<asrwt>0</asrwt>
<pdfrwt beam="1">  1       21 0.63976853E-01 0.47396333E+03</pdfrwt>
<pdfrwt beam="2">  1       21 0.98707115E-01 0.47396333E+03</pdfrwt>
<totfact> 0.16260470E+03</totfact>
</mgrwt>
</event>
<event>
 6    1  0.9190795E-004  0.4284642E+03  0.7818608E-02  0.1034353E+00
         21   -1    0    0  503  502  0.00000000000E+00  0.00000000000E+00  0.15489615658E+03  0.15489615658E+03  0.00000000000E+00 0. -1.
         21   -1    0    0  501  503 -0.00000000000E+00 -0.00000000000E+00 -0.14819710472E+04  0.14819710472E+04  0.00000000000E+00 0. -1.
    9000007    2    1    2  501    0 -0.10459867345E+03 -0.11212603618E+03 -0.10299758243E+04  0.11155410240E+04  0.40008554988E+03 0.  0.
    9000005    1    3    3    0    0  0.57402605909E+02 -0.74771177150E+02 -0.89890656201E+03  0.90383615513E+03  0.99999687468E+00 0.  0.
          4    1    3    3  501    0 -0.16200127936E+03 -0.37354859029E+02 -0.13106926228E+03  0.21170486892E+03  0.00000000000E+00 0.  1.
   -9000007    1    1    2    0  502  0.10459867345E+03  0.11212603618E+03 -0.29709906635E+03  0.52132617976E+03  0.40000000000E+03 0. -1.
<mgrwt>
<rscale>  2 0.42844424E+03</rscale>
<asrwt>0</asrwt>
<pdfrwt beam="1">  1       21 0.23830177E-01 0.42846421E+03</pdfrwt>
<pdfrwt beam="2">  1       21 0.22799555E+00 0.42846421E+03</pdfrwt>
<totfact> 0.12526243E+03</totfact>
</mgrwt>
</event>
<event>
 6    1  0.9190795E-004  0.4625610E+03  0.7818608E-02  0.1024093E+00
         21   -1    0    0  503  502  0.00000000000E+00  0.00000000000E+00  0.66158924464E+03  0.66158924464E+03  0.00000000000E+00 0.  1.
         21   -1    0    0  501  503 -0.00000000000E+00 -0.00000000000E+00 -0.32409321648E+03  0.32409321648E+03  0.00000000000E+00 0.  1.
    9000007    2    1    2  501    0  0.13492085942E+03 -0.18732369417E+03  0.19876599450E+03  0.50345862621E+03  0.40083520683E+03 0.  0.
    9000005    1    3    3    0    0 -0.12329226067E+03 -0.56774557110E+02  0.16268788051E+03  0.21187892376E+03  0.99999687468E+00 0.  0.
          4    1    3    3  501    0  0.25821312009E+03 -0.13054913706E+03  0.36078113991E+02  0.29157970246E+03  0.00000000000E+00 0.  1.
   -9000007    1    1    2    0  502 -0.13492085942E+03  0.18732369417E+03  0.13873003366E+03  0.48222383490E+03  0.40000000000E+03 0.  1.
<mgrwt>
<rscale>  2 0.46237999E+03</rscale>
<asrwt>0</asrwt>
<pdfrwt beam="1">  1       21 0.10178296E+00 0.46256099E+03</pdfrwt>
<pdfrwt beam="2">  1       21 0.49860495E-01 0.46256099E+03</pdfrwt>
<totfact> 0.26036193E+03</totfact>
</mgrwt>
</event>
<event>
 6    1  0.9190795E-004  0.4071353E+03  0.7818608E-02  0.1041368E+00
         21   -1    0    0  503  502  0.00000000000E+00  0.00000000000E+00  0.25127706934E+03  0.25127706934E+03  0.00000000000E+00 0.  1.
         21   -1    0    0  501  503 -0.00000000000E+00 -0.00000000000E+00 -0.97651323916E+03  0.97651323916E+03  0.00000000000E+00 0.  1.
    9000007    2    1    2  501    0 -0.74374753294E+02 -0.15084012740E+02 -0.71252787407E+03  0.82045674476E+03  0.39961752630E+03 0.  0.
    9000005    1    3    3    0    0 -0.14995670774E+03  0.15781502121E+03 -0.36439891721E+03  0.42447634324E+03  0.99999687468E+00 0.  0.
          4    1    3    3  501    0  0.75581954444E+02 -0.17289903395E+03 -0.34812895686E+03  0.39598040151E+03  0.00000000000E+00 0.  1.
   -9000007    1    1    2    0  502  0.74374753294E+02  0.15084012740E+02 -0.12708295747E+02  0.40733356374E+03  0.40000000000E+03 0.  1.
<mgrwt>
<rscale>  2 0.40704130E+03</rscale>
<asrwt>0</asrwt>
<pdfrwt beam="1">  1       21 0.38658010E-01 0.40713527E+03</pdfrwt>
<pdfrwt beam="2">  1       21 0.15023281E+00 0.40713527E+03</pdfrwt>
<totfact> 0.16682102E+03</totfact>
</mgrwt>
</event>
<event>
 6    1  0.9190795E-004  0.4995717E+03  0.7818608E-02  0.1013939E+00
         21   -1    0    0  503  502  0.00000000000E+00  0.00000000000E+00  0.14723754366E+03  0.14723754366E+03  0.00000000000E+00 0. -1.
         21   -1    0    0  501  503 -0.00000000000E+00 -0.00000000000E+00 -0.17975395308E+04  0.17975395308E+04  0.00000000000E+00 0.  1.
    9000007    2    1    2  501    0 -0.13428106778E+03 -0.26747042995E+03 -0.10596145990E+04  0.11711599685E+04  0.39907485187E+03 0.  0.
    9000005    1    3    3    0    0  0.11897656128E+03 -0.18722906400E+03 -0.36069713339E+03  0.42345432642E+03  0.99999687468E+00 0.  0.
          4    1    3    3  501    0 -0.25325762906E+03 -0.80241365959E+02 -0.69891746563E+03  0.74770564212E+03  0.00000000000E+00 0.  1.
   -9000007    1    1    2    0  502  0.13428106778E+03  0.26747042995E+03 -0.59068738808E+03  0.77361710588E+03  0.40000000000E+03 0. -1.
<mgrwt>
<rscale>  2 0.49938644E+03</rscale>
<asrwt>0</asrwt>
<pdfrwt beam="1">  1       21 0.22651928E-01 0.49957165E+03</pdfrwt>
<pdfrwt beam="2">  1       21 0.27654457E+00 0.49957165E+03</pdfrwt>
<totfact> 0.67074688E+02</totfact>
</mgrwt>
</event>
<event>
 6    1  0.9190795E-004  0.4750622E+03  0.7818608E-02  0.1020561E+00
         21   -1    0    0  503  502  0.00000000000E+00  0.00000000000E+00  0.49484077286E+03  0.49484077286E+03  0.00000000000E+00 0. -1.
         21   -1    0    0  501  503 -0.00000000000E+00 -0.00000000000E+00 -0.53650897551E+03  0.53650897551E+03  0.00000000000E+00 0. -1.
    9000007    2    1    2  501    0  0.24478928032E+03  0.70280733788E+02 -0.22154844678E+03  0.52418303463E+03  0.40102738837E+03 0.  0.
    9000005    1    3    3    0    0  0.10122777314E+03  0.22033942587E+03 -0.20199313838E+03  0.31559270048E+03  0.99999687468E+00 0.  0.
          4    1    3    3  501    0  0.14356150718E+03 -0.15005869208E+03 -0.19555308397E+02  0.20859033415E+03  0.00000000000E+00 0.  1.
   -9000007    1    1    2    0  502 -0.24478928032E+03 -0.70280733788E+02  0.17988024413E+03  0.50716671374E+03  0.40000000000E+03 0. -1.
<mgrwt>
<rscale>  2 0.47484536E+03</rscale>
<asrwt>0</asrwt>
<pdfrwt beam="1">  1       21 0.76129349E-01 0.47506225E+03</pdfrwt>
<pdfrwt beam="2">  1       21 0.82539843E-01 0.47506225E+03</pdfrwt>
<totfact> 0.16793158E+03</totfact>
</mgrwt>
</event>
<event>
 6    1  0.9190795E-004  0.4410968E+03  0.7818608E-02  0.1030455E+00
         21   -1    0    0  503  502  0.00000000000E+00  0.00000000000E+00  0.41226217401E+03  0.41226217401E+03  0.00000000000E+00 0. -1.
         21   -1    0    0  501  503 -0.00000000000E+00 -0.00000000000E+00 -0.49852557899E+03  0.49852557899E+03  0.00000000000E+00 0.  1.
    9000007    2    1    2  501    0  0.18522304443E+03 -0.16086552434E+02  0.63250774791E+02  0.44504013539E+03  0.39936663385E+03 0.  0.
    9000005    1    3    3    0    0 -0.84064274997E+02 -0.68615305391E+02  0.12322813715E+03  0.16419816151E+03  0.99999687468E+00 0.  0.
          4    1    3    3  501    0  0.26928731943E+03  0.52528752957E+02 -0.59977362360E+02  0.28084197387E+03  0.00000000000E+00 0.  1.
   -9000007    1    1    2    0  502 -0.18522304443E+03  0.16086552434E+02 -0.14951417978E+03  0.46574761761E+03  0.40000000000E+03 0.  1.
<mgrwt>
<rscale>  2 0.44095312E+03</rscale>
<asrwt>0</asrwt>
<pdfrwt beam="1">  1       21 0.63424949E-01 0.44109676E+03</pdfrwt>
<pdfrwt beam="2">  1       21 0.76696243E-01 0.44109676E+03</pdfrwt>
<totfact> 0.30376204E+03</totfact>
</mgrwt>
</event>
<event>
 6    1  0.9190795E-004  0.5029571E+03  0.7818608E-02  0.1013027E+00
         21   -1    0    0  503  502  0.00000000000E+00  0.00000000000E+00  0.14456912865E+04  0.14456912865E+04  0.00000000000E+00 0.  1.
         21   -1    0    0  501  503 -0.00000000000E+00 -0.00000000000E+00 -0.21363616835E+03  0.21363616835E+03  0.00000000000E+00 0.  1.
    9000007    2    1    2  501    0 -0.16729762602E+02 -0.30444367977E+03  0.26256404910E+03  0.56713755740E+03  0.39967397968E+03 0.  0.
    9000005    1    3    3    0    0 -0.28220299369E+02  0.93830480971E+01 -0.90118684895E+02  0.94904184571E+02  0.99999687468E+00 0.  0.
          4    1    3    3  501    0  0.11490536767E+02 -0.31382672787E+03  0.35268273399E+03  0.47223337283E+03  0.00000000000E+00 0.  1.
   -9000007    1    1    2    0  502  0.16729762602E+02  0.30444367977E+03  0.96949106906E+03  0.10921898974E+04  0.40000000000E+03 0.  1.
<mgrwt>
<rscale>  2 0.50289227E+03</rscale>
<asrwt>0</asrwt>
<pdfrwt beam="1">  1       21 0.22241404E+00 0.50295709E+03</pdfrwt>
<pdfrwt beam="2">  1       21 0.32867104E-01 0.50295709E+03</pdfrwt>
<totfact> 0.69616702E+02</totfact>
</mgrwt>
</event>
<event>
 6    1  0.9190795E-004  0.4248661E+03  0.7818608E-02  0.1036197E+00
         21   -1    0    0  503  502  0.00000000000E+00  0.00000000000E+00  0.70894906572E+03  0.70894906572E+03  0.00000000000E+00 0.  1.
         21   -1    0    0  501  503 -0.00000000000E+00 -0.00000000000E+00 -0.28702259560E+03  0.28702259560E+03  0.00000000000E+00 0.  1.
    9000007    2    1    2  501    0 -0.11497016450E+03  0.18473227888E+01  0.32686722752E+02  0.42612156502E+03  0.40901053166E+03 0.  0.
    9000005    1    3    3    0    0 -0.79939292421E+02 -0.19906254905E+03 -0.20111667458E+02  0.21545688215E+03  0.99999687468E+00 0.  0.
          4    1    3    3  501    0 -0.35030872080E+02  0.20090987184E+03  0.52798390210E+02  0.21066468287E+03  0.00000000000E+00 0.  1.
   -9000007    1    1    2    0  502  0.11497016450E+03 -0.18473227888E+01  0.38923974736E+03  0.56985009630E+03  0.40000000000E+03 0.  1.
<mgrwt>
<rscale>  2 0.42268250E+03</rscale>
<asrwt>0</asrwt>
<pdfrwt beam="1">  1       21 0.10906909E+00 0.42486606E+03</pdfrwt>
<pdfrwt beam="2">  1       21 0.44157323E-01 0.42486606E+03</pdfrwt>
<totfact> 0.28764347E+03</totfact>
</mgrwt>
</event>
<event>
 6    1  0.9190795E-004  0.4142640E+03  0.7818608E-02  0.1038960E+00
         21   -1    0    0  503  502  0.00000000000E+00  0.00000000000E+00  0.73632118516E+03  0.73632118516E+03  0.00000000000E+00 0.  1.
         21   -1    0    0  501  503 -0.00000000000E+00 -0.00000000000E+00 -0.34018504044E+03  0.34018504044E+03  0.00000000000E+00 0.  1.
    9000007    2    1    2  501    0 -0.10772229453E+03  0.32465895463E+01  0.50018173813E+03  0.64937612997E+03  0.39986617004E+03 0.  0.
    9000005    1    3    3    0    0 -0.14841304325E+03  0.89058669677E+02  0.37570351188E+02  0.17711693689E+03  0.99999687468E+00 0.  0.
          4    1    3    3  501    0  0.40690748717E+02 -0.85812080130E+02  0.46261138694E+03  0.47225919309E+03  0.00000000000E+00 0.  1.
   -9000007    1    1    2    0  502  0.10772229453E+03 -0.32465895463E+01 -0.10404559341E+03  0.42713009563E+03  0.40000000000E+03 0.  1.
<mgrwt>
<rscale>  2 0.41423166E+03</rscale>
<asrwt>0</asrwt>
<pdfrwt beam="1">  1       21 0.11328018E+00 0.41426397E+03</pdfrwt>
<pdfrwt beam="2">  1       21 0.52336160E-01 0.41426397E+03</pdfrwt>
<totfact> 0.18366100E+03</totfact>
</mgrwt>
</event>
<event>
 6    1  0.9190795E-004  0.7216798E+03  0.7818608E-02  0.9681070E-01
         21   -1    0    0  503  502  0.00000000000E+00  0.00000000000E+00  0.47194636327E+03  0.47194636327E+03  0.00000000000E+00 0. -1.
         21   -1    0    0  501  503 -0.00000000000E+00 -0.00000000000E+00 -0.12027379247E+04  0.12027379247E+04  0.00000000000E+00 0.  1.
    9000007    2    1    2  501    0  0.76829019928E+02  0.59575078087E+03 -0.60667287752E+03  0.94240897163E+03  0.39907517874E+03 0.  0.
    9000005    1    3    3    0    0 -0.62300700581E+02 -0.20053223005E+02  0.19514511975E+01  0.65485244150E+02  0.99999687468E+00 0.  0.
          4    1    3    3  501    0  0.13912972051E+03  0.61580400387E+03 -0.60862432872E+03  0.87692372748E+03  0.00000000000E+00 0.  1.
   -9000007    1    1    2    0  502 -0.76829019928E+02 -0.59575078087E+03 -0.12411868390E+03  0.73227531633E+03  0.40000000000E+03 0. -1.
<mgrwt>
<rscale>  2 0.72155169E+03</rscale>
<asrwt>0</asrwt>
<pdfrwt beam="1">  1       21 0.72607134E-01 0.72167977E+03</pdfrwt>
<pdfrwt beam="2">  1       21 0.18503660E+00 0.72167977E+03</pdfrwt>
<totfact> 0.20991021E+02</totfact>
</mgrwt>
</event>
<event>
 6    1  0.9190795E-004  0.4156849E+03  0.7818608E-02  0.1038585E+00
         21   -1    0    0  503  502  0.00000000000E+00  0.00000000000E+00  0.66323001595E+03  0.66323001595E+03  0.00000000000E+00 0.  1.
         21   -1    0    0  501  503 -0.00000000000E+00 -0.00000000000E+00 -0.42101450032E+03  0.42101450032E+03  0.00000000000E+00 0.  1.
    9000007    2    1    2  501    0  0.10818565302E+03  0.55829466999E+01 -0.21431228304E+03  0.46767908116E+03  0.40132114756E+03 0.  0.
    9000005    1    3    3    0    0 -0.24710230487E+02  0.17485017083E+03 -0.17556930418E+03  0.24901557842E+03  0.99999687468E+00 0.  0.
          4    1    3    3  501    0  0.13289588351E+03 -0.16926722413E+03 -0.38742978858E+02  0.21866350274E+03  0.00000000000E+00 0.  1.
   -9000007    1    1    2    0  502 -0.10818565302E+03 -0.55829466999E+01  0.45652779867E+03  0.61656543511E+03  0.40000000000E+03 0.  1.
<mgrwt>
<rscale>  2 0.41536573E+03</rscale>
<asrwt>0</asrwt>
<pdfrwt beam="1">  1       21 0.10203539E+00 0.41568494E+03</pdfrwt>
<pdfrwt beam="2">  1       21 0.64771462E-01 0.41568494E+03</pdfrwt>
<totfact> 0.14934936E+03</totfact>
</mgrwt>
</event>
<event>
 6    1  0.9190795E-004  0.4091522E+03  0.7818608E-02  0.1040677E+00
         21   -1    0    0  503  502  0.00000000000E+00  0.00000000000E+00  0.12276828862E+03  0.12276828862E+03  0.00000000000E+00 0.  1.
         21   -1    0    0  501  503 -0.00000000000E+00 -0.00000000000E+00 -0.15527063081E+04  0.15527063081E+04  0.00000000000E+00 0.  1.
    9000007    2    1    2  501    0 -0.73033842681E+02  0.43235719087E+02 -0.10081617996E+04  0.10880237909E+04  0.40025277740E+03 0.  0.
    9000005    1    3    3    0    0  0.99669722678E+02  0.16507363496E+03 -0.39713470961E+03  0.44147518181E+03  0.99999687468E+00 0.  0.
          4    1    3    3  501    0 -0.17270356536E+03 -0.12183791587E+03 -0.61102708999E+03  0.64654860910E+03  0.00000000000E+00 0.  1.
   -9000007    1    1    2    0  502  0.73033842681E+02 -0.43235719087E+02 -0.42177621984E+03  0.58745080577E+03  0.40000000000E+03 0.  1.
<mgrwt>
<rscale>  2 0.40909041E+03</rscale>
<asrwt>0</asrwt>
<pdfrwt beam="1">  1       21 0.18887427E-01 0.40915224E+03</pdfrwt>
<pdfrwt beam="2">  1       21 0.23887792E+00 0.40915224E+03</pdfrwt>
<totfact> 0.16866748E+03</totfact>
</mgrwt>
</event>
<event>
 6    1  0.9190795E-004  0.4257230E+03  0.7818608E-02  0.1035241E+00
         21   -1    0    0  503  502  0.00000000000E+00  0.00000000000E+00  0.43944375717E+03  0.43944375717E+03  0.00000000000E+00 0. -1.
         21   -1    0    0  501  503 -0.00000000000E+00 -0.00000000000E+00 -0.83606523504E+03  0.83606523504E+03  0.00000000000E+00 0. -1.
    9000007    2    1    2  501    0  0.25583175447E+02 -0.14347671451E+03 -0.65238868008E+03  0.77886331549E+03  0.39972116262E+03 0.  0.
    9000005    1    3    3    0    0 -0.20871195983E+02 -0.27898152776E+03 -0.46979463146E+03  0.54678541988E+03  0.99999687468E+00 0.  0.
          4    1    3    3  501    0  0.46454371430E+02  0.13550481325E+03 -0.18259404863E+03  0.23207789561E+03  0.00000000000E+00 0.  1.
   -9000007    1    1    2    0  502 -0.25583175447E+02  0.14347671451E+03  0.25576720221E+03  0.49664567672E+03  0.40000000000E+03 0. -1.
<mgrwt>
<rscale>  2 0.42565748E+03</rscale>
<asrwt>0</asrwt>
<pdfrwt beam="1">  1       21 0.67606733E-01 0.42572299E+03</pdfrwt>
<pdfrwt beam="2">  1       21 0.12862542E+00 0.42572299E+03</pdfrwt>
<totfact> 0.75651821E+02</totfact>
</mgrwt>
</event>
<event>
 6    1  0.9190795E-004  0.4189976E+03  0.7818608E-02  0.1037394E+00
         21   -1    0    0  503  502  0.00000000000E+00  0.00000000000E+00  0.15977459907E+03  0.15977459907E+03  0.00000000000E+00 0. -1.
         21   -1    0    0  501  503 -0.00000000000E+00 -0.00000000000E+00 -0.14645876549E+04  0.14645876549E+04  0.00000000000E+00 0. -1.
    9000007    2    1    2  501    0  0.10367429179E+03  0.69324281305E+02 -0.24650553485E+03  0.48613159909E+03  0.40000592266E+03 0.  0.
    9000005    1    3    3    0    0 -0.15163563953E+02  0.21605807481E+03 -0.19241451536E+03  0.28971601798E+03  0.99999687468E+00 0.  0.
          4    1    3    3  501    0  0.11883785574E+03 -0.14673379350E+03 -0.54091019486E+02  0.19641558111E+03  0.00000000000E+00 0.  1.
   -9000007    1    1    2    0  502 -0.10367429179E+03 -0.69324281305E+02 -0.10583075210E+04  0.11382306549E+04  0.40000000000E+03 0. -1.
<mgrwt>
<rscale>  2 0.41899614E+03</rscale>
<asrwt>0</asrwt>
<pdfrwt beam="1">  1       21 0.24580707E-01 0.41899756E+03</pdfrwt>
<pdfrwt beam="2">  1       21 0.22532118E+00 0.41899756E+03</pdfrwt>
<totfact> 0.12320332E+03</totfact>
</mgrwt>
</event>
<event>
 6    1  0.9190795E-004  0.5401496E+03  0.7818608E-02  0.1003808E+00
         21   -1    0    0  503  502  0.00000000000E+00  0.00000000000E+00  0.10865504532E+04  0.10865504532E+04  0.00000000000E+00 0.  1.
         21   -1    0    0  501  503 -0.00000000000E+00 -0.00000000000E+00 -0.26883254079E+03  0.26883254079E+03  0.00000000000E+00 0.  1.
    9000007    2    1    2  501    0  0.36066662897E+03  0.41001503155E+02  0.38337784197E+03  0.66226479533E+03  0.39981814480E+03 0.  0.
    9000005    1    3    3    0    0 -0.73151376160E+01  0.11031596332E+03 -0.19469422944E+02  0.11226389190E+03  0.99999687468E+00 0.  0.
          4    1    3    3  501    0  0.36798176659E+03 -0.69314460161E+02  0.40284726492E+03  0.55000090344E+03  0.00000000000E+00 0.  1.
   -9000007    1    1    2    0  502 -0.36066662897E+03 -0.41001503155E+02  0.43434007044E+03  0.69311819866E+03  0.40000000000E+03 0.  1.
<mgrwt>
<rscale>  2 0.54011589E+03</rscale>
<asrwt>0</asrwt>
<pdfrwt beam="1">  1       21 0.16716160E+00 0.54014955E+03</pdfrwt>
<pdfrwt beam="2">  1       21 0.41358853E-01 0.54014955E+03</pdfrwt>
<totfact> 0.10228616E+03</totfact>
</mgrwt>
</event>
<event>
 6    1  0.9190795E-004  0.4555178E+03  0.7818608E-02  0.1026480E+00
         21   -1    0    0  503  502  0.00000000000E+00  0.00000000000E+00  0.37383101146E+03  0.37383101146E+03  0.00000000000E+00 0. -1.
         21   -1    0    0  501  503 -0.00000000000E+00 -0.00000000000E+00 -0.56571304635E+03  0.56571304635E+03  0.00000000000E+00 0. -1.
    9000007    2    1    2  501    0  0.20665260172E+03  0.19078519403E+01 -0.17811151997E+03  0.48910142575E+03  0.40594033235E+03 0.  0.
    9000005    1    3    3    0    0  0.12544681402E+03  0.68141542879E+02 -0.29766060682E+03  0.33012574856E+03  0.99999687468E+00 0.  0.
          4    1    3    3  501    0  0.81205787699E+02 -0.66233690939E+02  0.11954908685E+03  0.15897567719E+03  0.00000000000E+00 0.  1.
   -9000007    1    1    2    0  502 -0.20665260172E+03 -0.19078519403E+01 -0.13770514917E+02  0.45044263206E+03  0.40000000000E+03 0. -1.
<mgrwt>
<rscale>  2 0.45419060E+03</rscale>
<asrwt>0</asrwt>
<pdfrwt beam="1">  1       21 0.57512464E-01 0.45551783E+03</pdfrwt>
<pdfrwt beam="2">  1       21 0.87032776E-01 0.45551783E+03</pdfrwt>
<totfact> 0.27934044E+03</totfact>
</mgrwt>
</event>
<event>
 6    1  0.9190795E-004  0.4245280E+03  0.7818608E-02  0.1035609E+00
         21   -1    0    0  503  502  0.00000000000E+00  0.00000000000E+00  0.46604482814E+03  0.46604482814E+03  0.00000000000E+00 0. -1.
         21   -1    0    0  501  503 -0.00000000000E+00 -0.00000000000E+00 -0.39098645379E+03  0.39098645379E+03  0.00000000000E+00 0. -1.
    9000007    2    1    2  501    0 -0.13426922915E+03  0.46859743424E+02  0.82726104282E+02  0.43243399562E+03  0.39991435432E+03 0.  0.
    9000005    1    3    3    0    0 -0.25094797475E+01  0.14191892646E+03  0.19042554146E+03  0.23750824409E+03  0.99999687468E+00 0.  0.
          4    1    3    3  501    0 -0.13175974941E+03 -0.95059183039E+02 -0.10769943717E+03  0.19492575153E+03  0.00000000000E+00 0.  1.
   -9000007    1    1    2    0  502  0.13426922915E+03 -0.46859743424E+02 -0.76677299328E+01  0.42459728630E+03  0.40000000000E+03 0. -1.
<mgrwt>
<rscale>  2 0.42450787E+03</rscale>
<asrwt>0</asrwt>
<pdfrwt beam="1">  1       21 0.71699204E-01 0.42452805E+03</pdfrwt>
<pdfrwt beam="2">  1       21 0.60151762E-01 0.42452805E+03</pdfrwt>
<totfact> 0.40022621E+03</totfact>
</mgrwt>
</event>
<event>
 6    1  0.9190795E-004  0.4400181E+03  0.7818608E-02  0.1030979E+00
         21   -1    0    0  503  502  0.00000000000E+00  0.00000000000E+00  0.53594963430E+03  0.53594963430E+03  0.00000000000E+00 0.  1.
         21   -1    0    0  501  503 -0.00000000000E+00 -0.00000000000E+00 -0.66169734607E+03  0.66169734607E+03  0.00000000000E+00 0.  1.
    9000007    2    1    2  501    0 -0.52530498101E+02  0.16776540262E+03 -0.46819452532E+03  0.64251230873E+03  0.40337485022E+03 0.  0.
    9000005    1    3    3    0    0 -0.60673886810E+02  0.47486859382E+02  0.61927797861E+02  0.98855321032E+02  0.99999687468E+00 0.  0.
          4    1    3    3  501    0  0.81433887092E+01  0.12027854324E+03 -0.53012232318E+03  0.54365698770E+03  0.00000000000E+00 0.  1.
   -9000007    1    1    2    0  502  0.52530498101E+02 -0.16776540262E+03  0.34244681355E+03  0.55513467164E+03  0.40000000000E+03 0.  1.
<mgrwt>
<rscale>  2 0.43924315E+03</rscale>
<asrwt>0</asrwt>
<pdfrwt beam="1">  1       21 0.82453790E-01 0.44001813E+03</pdfrwt>
<pdfrwt beam="2">  1       21 0.10179959E+00 0.44001813E+03</pdfrwt>
<totfact> 0.85977019E+02</totfact>
</mgrwt>
</event>
<event>
 6    1  0.9190795E-004  0.4072870E+03  0.7818608E-02  0.1041335E+00
         21   -1    0    0  503  502  0.00000000000E+00  0.00000000000E+00  0.28067764096E+03  0.28067764096E+03  0.00000000000E+00 0.  1.
         21   -1    0    0  501  503 -0.00000000000E+00 -0.00000000000E+00 -0.60340564430E+03  0.60340564430E+03  0.00000000000E+00 0.  1.
    9000007    2    1    2  501    0  0.40186959124E+02 -0.61531093987E+02 -0.22699759554E+03  0.46627306735E+03  0.40060154486E+03 0.  0.
    9000005    1    3    3    0    0 -0.14451947977E+03 -0.97859824251E+02 -0.41884029552E+01  0.17458799486E+03  0.99999687468E+00 0.  0.
          4    1    3    3  501    0  0.18470643889E+03  0.36328730264E+02 -0.22280919258E+03  0.29168507249E+03  0.00000000000E+00 0.  1.
   -9000007    1    1    2    0  502 -0.40186959124E+02  0.61531093987E+02 -0.95730407801E+02  0.41781021791E+03  0.40000000000E+03 0.  1.
<mgrwt>
<rscale>  2 0.40713896E+03</rscale>
<asrwt>0</asrwt>
<pdfrwt beam="1">  1       21 0.43181176E-01 0.40728696E+03</pdfrwt>
<pdfrwt beam="2">  1       21 0.92831637E-01 0.40728696E+03</pdfrwt>
<totfact> 0.44869933E+03</totfact>
</mgrwt>
</event>
<event>
 6    1  0.9190795E-004  0.4427099E+03  0.7818608E-02  0.1029948E+00
         21   -1    0    0  503  502  0.00000000000E+00  0.00000000000E+00  0.15268575867E+03  0.15268575867E+03  0.00000000000E+00 0. -1.
         21   -1    0    0  501  503 -0.00000000000E+00 -0.00000000000E+00 -0.13197155927E+04  0.13197155927E+04  0.00000000000E+00 0. -1.
    9000007    2    1    2  501    0  0.11038654966E+03  0.15317871240E+03 -0.70738125462E+03  0.83449405026E+03  0.40042873554E+03 0.  0.
    9000005    1    3    3    0    0  0.13634160174E+03  0.41097099296E+02 -0.27610394361E+02  0.14505632632E+03  0.99999687468E+00 0.  0.
          4    1    3    3  501    0 -0.25955052082E+02  0.11208161310E+03 -0.67977086026E+03  0.68943772394E+03  0.00000000000E+00 0.  1.
   -9000007    1    1    2    0  502 -0.11038654966E+03 -0.15317871240E+03 -0.45964857942E+03  0.63790730113E+03  0.40000000000E+03 0.  1.
<mgrwt>
<rscale>  2 0.44261296E+03</rscale>
<asrwt>0</asrwt>
<pdfrwt beam="1">  1       21 0.23490117E-01 0.44270993E+03</pdfrwt>
<pdfrwt beam="2">  1       21 0.20303317E+00 0.44270993E+03</pdfrwt>
<totfact> 0.18529965E+03</totfact>
</mgrwt>
</event>
<event>
 6    1  0.9190795E-004  0.4369118E+03  0.7818608E-02  0.1031745E+00
         21   -1    0    0  503  502  0.00000000000E+00  0.00000000000E+00  0.82715898163E+03  0.82715898163E+03  0.00000000000E+00 0.  1.
         21   -1    0    0  501  503 -0.00000000000E+00 -0.00000000000E+00 -0.29543527129E+03  0.29543527129E+03  0.00000000000E+00 0.  1.
    9000007    2    1    2  501    0 -0.17099371869E+03  0.33599556629E+02  0.52922790255E+03  0.68627554934E+03  0.40065468268E+03 0.  0.
    9000005    1    3    3    0    0  0.32294683150E+01 -0.41649795621E+02 -0.56668775514E+02  0.70409410258E+02  0.99999687468E+00 0.  0.
          4    1    3    3  501    0 -0.17422318700E+03  0.75249352250E+02  0.58589667806E+03  0.61586613908E+03  0.00000000000E+00 0.  1.
   -9000007    1    1    2    0  502  0.17099371869E+03 -0.33599556629E+02  0.24958077832E+01  0.43631870358E+03  0.40000000000E+03 0.  1.
<mgrwt>
<rscale>  2 0.43676169E+03</rscale>
<asrwt>0</asrwt>
<pdfrwt beam="1">  1       21 0.12725523E+00 0.43691184E+03</pdfrwt>
<pdfrwt beam="2">  1       21 0.45451581E-01 0.43691184E+03</pdfrwt>
<totfact> 0.18263089E+03</totfact>
</mgrwt>
</event>
<event>
 6    1  0.9190795E-004  0.4096126E+03  0.7818608E-02  0.1040569E+00
         21   -1    0    0  503  502  0.00000000000E+00  0.00000000000E+00  0.11262354977E+04  0.11262354977E+04  0.00000000000E+00 0. -1.
         21   -1    0    0  501  503 -0.00000000000E+00 -0.00000000000E+00 -0.14869213483E+03  0.14869213483E+03  0.00000000000E+00 0. -1.
    9000007    2    1    2  501    0  0.26016674318E+02 -0.80282374657E+02  0.49423260225E+03  0.64190992475E+03  0.40082459923E+03 0.  0.
    9000005    1    3    3    0    0  0.18527793656E+03  0.30378303036E+02  0.12717933919E+03  0.22677376255E+03  0.99999687468E+00 0.  0.
          4    1    3    3  501    0 -0.15926126224E+03 -0.11066067769E+03  0.36705326307E+03  0.41513616220E+03  0.00000000000E+00 0.  1.
   -9000007    1    1    2    0  502 -0.26016674318E+02  0.80282374657E+02  0.48331076062E+03  0.63301770777E+03  0.40000000000E+03 0. -1.
<mgrwt>
<rscale>  2 0.40941074E+03</rscale>
<asrwt>0</asrwt>
<pdfrwt beam="1">  1       21 0.17326699E+00 0.40961261E+03</pdfrwt>
<pdfrwt beam="2">  1       21 0.22875714E-01 0.40961261E+03</pdfrwt>
<totfact> 0.31693253E+03</totfact>
</mgrwt>
</event>
<event>
 6    1  0.9190795E-004  0.5288516E+03  0.7818608E-02  0.1006604E+00
         21   -1    0    0  503  502  0.00000000000E+00  0.00000000000E+00  0.17785143190E+03  0.17785143190E+03  0.00000000000E+00 0. -1.
         21   -1    0    0  501  503 -0.00000000000E+00 -0.00000000000E+00 -0.16305607141E+04  0.16305607141E+04  0.00000000000E+00 0. -1.
    9000007    2    1    2  501    0  0.23197571922E+03  0.25665407941E+03 -0.54825614430E+03  0.76069103357E+03  0.39797235835E+03 0.  0.
    9000005    1    3    3    0    0  0.17979602565E+03 -0.19658772266E+02 -0.48506589604E+02  0.18726176170E+03  0.99999687468E+00 0.  0.
          4    1    3    3  501    0  0.52179693572E+02  0.27631285167E+03 -0.49974955470E+03  0.57342927187E+03  0.00000000000E+00 0.  1.
   -9000007    1    1    2    0  502 -0.23197571922E+03 -0.25665407941E+03 -0.90445313788E+03  0.10477211124E+04  0.40000000000E+03 0. -1.
<mgrwt>
<rscale>  2 0.52846823E+03</rscale>
<asrwt>0</asrwt>
<pdfrwt beam="1">  1       21 0.27361758E-01 0.52885163E+03</pdfrwt>
<pdfrwt beam="2">  1       21 0.25085550E+00 0.52885163E+03</pdfrwt>
<totfact> 0.65759379E+02</totfact>
</mgrwt>
</event>
<event>
 6    1  0.9190795E-004  0.5220559E+03  0.7818608E-02  0.1008291E+00
         21   -1    0    0  503  502  0.00000000000E+00  0.00000000000E+00  0.15215768394E+04  0.15215768394E+04  0.00000000000E+00 0. -1.
         21   -1    0    0  501  503 -0.00000000000E+00 -0.00000000000E+00 -0.18953097295E+03  0.18953097295E+03  0.00000000000E+00 0. -1.
    9000007    2    1    2  501    0 -0.15168012212E+03  0.29922489378E+03  0.45840740875E+03  0.69337181943E+03  0.39759870608E+03 0.  0.
    9000005    1    3    3    0    0  0.72937311480E+02  0.17869385824E+03  0.30661760084E+02  0.19542898942E+03  0.99999687468E+00 0.  0.
          4    1    3    3  501    0 -0.22461743360E+03  0.12053103554E+03  0.42774564867E+03  0.49794283001E+03  0.00000000000E+00 0.  1.
   -9000007    1    1    2    0  502  0.15168012212E+03 -0.29922489378E+03  0.87363845769E+03  0.10177359929E+04  0.40000000000E+03 0. -1.
<mgrwt>
<rscale>  2 0.52159593E+03</rscale>
<asrwt>0</asrwt>
<pdfrwt beam="1">  1       21 0.23408874E+00 0.52205593E+03</pdfrwt>
<pdfrwt beam="2">  1       21 0.29158612E-01 0.52205593E+03</pdfrwt>
<totfact> 0.73973979E+02</totfact>
</mgrwt>
</event>
<event>
 6    1  0.9190795E-004  0.4337206E+03  0.7818608E-02  0.1032721E+00
         21   -1    0    0  503  502  0.00000000000E+00  0.00000000000E+00  0.24814155733E+03  0.24814155733E+03  0.00000000000E+00 0. -1.
         21   -1    0    0  501  503 -0.00000000000E+00 -0.00000000000E+00 -0.86116665939E+03  0.86116665939E+03  0.00000000000E+00 0. -1.
    9000007    2    1    2  501    0  0.13919612872E+03 -0.93477447417E+02 -0.49890865423E+03  0.66082615567E+03  0.39958449334E+03 0.  0.
    9000005    1    3    3    0    0 -0.46158961145E+02  0.11391660614E+03 -0.49935953829E+02  0.13267344243E+03  0.99999687468E+00 0.  0.
          4    1    3    3  501    0  0.18535508986E+03 -0.20739405356E+03 -0.44897270040E+03  0.52815271323E+03  0.00000000000E+00 0.  1.
   -9000007    1    1    2    0  502 -0.13919612872E+03  0.93477447417E+02 -0.11411644782E+03  0.44848206106E+03  0.40000000000E+03 0.  1.
<mgrwt>
<rscale>  2 0.43362482E+03</rscale>
<asrwt>0</asrwt>
<pdfrwt beam="1">  1       21 0.38175624E-01 0.43372064E+03</pdfrwt>
<pdfrwt beam="2">  1       21 0.13248718E+00 0.43372064E+03</pdfrwt>
<totfact> 0.23640759E+03</totfact>
</mgrwt>
</event>
<event>
 6    1  0.9190795E-004  0.5362017E+03  0.7818608E-02  0.1004750E+00
         21   -1    0    0  503  502  0.00000000000E+00  0.00000000000E+00  0.11849705524E+04  0.11849705524E+04  0.00000000000E+00 0. -1.
         21   -1    0    0  501  503 -0.00000000000E+00 -0.00000000000E+00 -0.25529166663E+03  0.25529166663E+03  0.00000000000E+00 0.  1.
    9000007    2    1    2  501    0  0.31808926316E+03 -0.16164564311E+03  0.62581697165E+03  0.82411113678E+03  0.40025265831E+03 0.  0.
    9000005    1    3    3    0    0  0.38877394696E+03 -0.19714527663E+03  0.59852778382E+03  0.74043767458E+03  0.99999687468E+00 0.  0.
          4    1    3    3  501    0 -0.70684683802E+02  0.35499633522E+02  0.27289187825E+02  0.83673462200E+02  0.00000000000E+00 0.  1.
   -9000007    1    1    2    0  502 -0.31808926316E+03  0.16164564311E+03  0.30386191408E+03  0.61615108220E+03  0.40000000000E+03 0.  1.
<mgrwt>
<rscale>  2 0.53615457E+03</rscale>
<asrwt>0</asrwt>
<pdfrwt beam="1">  1       21 0.18230316E+00 0.53620172E+03</pdfrwt>
<pdfrwt beam="2">  1       21 0.39275642E-01 0.53620172E+03</pdfrwt>
<totfact> 0.88641482E+02</totfact>
</mgrwt>
</event>
<event>
 6    1  0.9190795E-004  0.4327841E+03  0.7818608E-02  0.1033064E+00
         21   -1    0    0  503  502  0.00000000000E+00  0.00000000000E+00  0.21068754615E+03  0.21068754615E+03  0.00000000000E+00 0.  1.
         21   -1    0    0  501  503 -0.00000000000E+00 -0.00000000000E+00 -0.89623561712E+03  0.89623561712E+03  0.00000000000E+00 0.  1.
    9000007    2    1    2  501    0 -0.14654979475E+02  0.16458210464E+03 -0.28594203515E+03  0.51786712056E+03  0.39890032526E+03 0.  0.
    9000005    1    3    3    0    0 -0.18211925247E+03  0.96235227537E+02 -0.35628976713E+02  0.20904321351E+03  0.99999687468E+00 0.  0.
          4    1    3    3  501    0  0.16746427299E+03  0.68346877105E+02 -0.25031305844E+03  0.30882390705E+03  0.00000000000E+00 0.  1.
   -9000007    1    1    2    0  502  0.14654979475E+02 -0.16458210464E+03 -0.39960603582E+03  0.58905604271E+03  0.40000000000E+03 0.  1.
<mgrwt>
<rscale>  2 0.43252979E+03</rscale>
<asrwt>0</asrwt>
<pdfrwt beam="1">  1       21 0.32413469E-01 0.43278405E+03</pdfrwt>
<pdfrwt beam="2">  1       21 0.13788240E+00 0.43278405E+03</pdfrwt>
<totfact> 0.29662640E+03</totfact>
</mgrwt>
</event>
<event>
 6    1  0.9190795E-004  0.4246305E+03  0.7818608E-02  0.1035593E+00
         21   -1    0    0  503  502  0.00000000000E+00  0.00000000000E+00  0.44120216982E+03  0.44120216982E+03  0.00000000000E+00 0.  1.
         21   -1    0    0  501  503 -0.00000000000E+00 -0.00000000000E+00 -0.42784887145E+03  0.42784887145E+03  0.00000000000E+00 0.  1.
    9000007    2    1    2  501    0  0.13938503609E+03  0.25255887490E+02 -0.85956691700E+02  0.43324314521E+03  0.40030616019E+03 0.  0.
    9000005    1    3    3    0    0  0.37692675847E+02  0.20600923178E+03 -0.84517023346E+02  0.22584213208E+03  0.99999687468E+00 0.  0.
          4    1    3    3  501    0  0.10169236024E+03 -0.18075334429E+03 -0.14396683541E+01  0.20740101314E+03  0.00000000000E+00 0.  1.
   -9000007    1    1    2    0  502 -0.13938503609E+03 -0.25255887490E+02  0.99309990078E+02  0.43580789606E+03  0.40000000000E+03 0. -1.
<mgrwt>
<rscale>  2 0.42455834E+03</rscale>
<asrwt>0</asrwt>
<pdfrwt beam="1">  1       21 0.67877257E-01 0.42463051E+03</pdfrwt>
<pdfrwt beam="2">  1       21 0.65822903E-01 0.42463051E+03</pdfrwt>
<totfact> 0.37102750E+03</totfact>
</mgrwt>
</event>
<event>
 6    1  0.9190795E-004  0.5139466E+03  0.7818608E-02  0.1010245E+00
         21   -1    0    0  503  502  0.00000000000E+00  0.00000000000E+00  0.86939727385E+03  0.86939727385E+03  0.00000000000E+00 0. -1.
         21   -1    0    0  501  503 -0.00000000000E+00 -0.00000000000E+00 -0.31235472895E+03  0.31235472895E+03  0.00000000000E+00 0.  1.
    9000007    2    1    2  501    0 -0.27889560900E+03  0.16015450358E+03  0.37867538860E+03  0.63838558114E+03  0.40088511389E+03 0.  0.
    9000005    1    3    3    0    0 -0.23987440458E+03  0.23382931478E+03  0.10312941727E+03  0.35050328832E+03  0.99999687468E+00 0.  0.
          4    1    3    3  501    0 -0.39021204421E+02 -0.73674811197E+02  0.27554597134E+03  0.28788229282E+03  0.00000000000E+00 0.  1.
   -9000007    1    1    2    0  502  0.27889560900E+03 -0.16015450358E+03  0.17836715630E+03  0.54336642166E+03  0.40000000000E+03 0.  1.
<mgrwt>
<rscale>  2 0.51377398E+03</rscale>
<asrwt>0</asrwt>
<pdfrwt beam="1">  1       21 0.13375343E+00 0.51394659E+03</pdfrwt>
<pdfrwt beam="2">  1       21 0.48054574E-01 0.51394659E+03</pdfrwt>
<totfact> 0.13858571E+03</totfact>
</mgrwt>
</event>
<event>
 6    1  0.9190795E-004  0.4060735E+03  0.7818608E-02  0.1041709E+00
         21   -1    0    0  503  502  0.00000000000E+00  0.00000000000E+00  0.14950946474E+04  0.14950946474E+04  0.00000000000E+00 0. -1.
         21   -1    0    0  501  503 -0.00000000000E+00 -0.00000000000E+00 -0.20855098820E+03  0.20855098820E+03  0.00000000000E+00 0. -1.
    9000007    2    1    2  501    0  0.35273612161E+02 -0.60427590273E+02  0.58395180808E+02  0.41010614785E+03  0.39985163996E+03 0.  0.
    9000005    1    3    3    0    0 -0.11050241758E+03 -0.13926971815E+03 -0.79269231321E+02  0.19465726216E+03  0.99999687468E+00 0.  0.
          4    1    3    3  501    0  0.14577602974E+03  0.78842127875E+02  0.13766441213E+03  0.21544888568E+03  0.00000000000E+00 0.  1.
   -9000007    1    1    2    0  502 -0.35273612161E+02  0.60427590273E+02  0.12281484784E+04  0.12935394878E+04  0.40000000000E+03 0. -1.
<mgrwt>
<rscale>  2 0.40603700E+03</rscale>
<asrwt>0</asrwt>
<pdfrwt beam="1">  1       21 0.23001455E+00 0.40607354E+03</pdfrwt>
<pdfrwt beam="2">  1       21 0.32084768E-01 0.40607354E+03</pdfrwt>
<totfact> 0.68602597E+02</totfact>
</mgrwt>
</event>
<event>
 6    1  0.9190795E-004  0.4929432E+03  0.7818608E-02  0.1015945E+00
         21   -1    0    0  503  502  0.00000000000E+00  0.00000000000E+00  0.97330525456E+03  0.97330525456E+03  0.00000000000E+00 0. -1.
         21   -1    0    0  501  503 -0.00000000000E+00 -0.00000000000E+00 -0.51595828583E+03  0.51595828583E+03  0.00000000000E+00 0.  1.
    9000007    2    1    2  501    0 -0.17907169223E+03  0.21542077091E+03 -0.30810082940E+03  0.58130808380E+03  0.40561088215E+03 0.  0.
    9000005    1    3    3    0    0  0.73897143503E+02 -0.46234787205E+01 -0.22360196502E+03  0.23554405772E+03  0.99999687468E+00 0.  0.
          4    1    3    3  501    0 -0.25296883574E+03  0.22004424963E+03 -0.84498864377E+02  0.34576402608E+03  0.00000000000E+00 0.  1.
   -9000007    1    1    2    0  502  0.17907169223E+03 -0.21542077091E+03  0.76544779813E+03  0.90795545659E+03  0.40000000000E+03 0. -1.
<mgrwt>
<rscale>  2 0.49178751E+03</rscale>
<asrwt>0</asrwt>
<pdfrwt beam="1">  1       21 0.14973927E+00 0.49294317E+03</pdfrwt>
<pdfrwt beam="2">  1       21 0.79378198E-01 0.49294317E+03</pdfrwt>
<totfact> 0.34057708E+02</totfact>
</mgrwt>
</event>
<event>
 6    1  0.9190795E-004  0.4085311E+03  0.7818608E-02  0.1040895E+00
         21   -1    0    0  503  502  0.00000000000E+00  0.00000000000E+00  0.17934237965E+03  0.17934237965E+03  0.00000000000E+00 0. -1.
         21   -1    0    0  501  503 -0.00000000000E+00 -0.00000000000E+00 -0.96000303128E+03  0.96000303128E+03  0.00000000000E+00 0. -1.
    9000007    2    1    2  501    0 -0.80668826400E+02 -0.19752927960E+02 -0.49122934585E+03  0.63867773824E+03  0.39963151200E+03 0.  0.
    9000005    1    3    3    0    0  0.71402871381E+02  0.24289222359E+02 -0.47338252871E+03  0.47935410173E+03  0.99999687468E+00 0.  0.
          4    1    3    3  501    0 -0.15207169778E+03 -0.44042150319E+02 -0.17846817148E+02  0.15932363652E+03  0.00000000000E+00 0.  1.
   -9000007    1    1    2    0  502  0.80668826400E+02  0.19752927960E+02 -0.28943130577E+03  0.50066767269E+03  0.40000000000E+03 0. -1.
<mgrwt>
<rscale>  2 0.40844085E+03</rscale>
<asrwt>0</asrwt>
<pdfrwt beam="1">  1       21 0.27591136E-01 0.40853107E+03</pdfrwt>
<pdfrwt beam="2">  1       21 0.14769277E+00 0.40853107E+03</pdfrwt>
<totfact> 0.34309206E+03</totfact>
</mgrwt>
</event>
<event>
 6    1  0.9190795E-004  0.5377862E+03  0.7818608E-02  0.1004370E+00
         21   -1    0    0  503  502  0.00000000000E+00  0.00000000000E+00  0.33861169719E+03  0.33861169719E+03  0.00000000000E+00 0. -1.
         21   -1    0    0  501  503 -0.00000000000E+00 -0.00000000000E+00 -0.87716650837E+03  0.87716650837E+03  0.00000000000E+00 0.  1.
    9000007    2    1    2  501    0 -0.38187043358E+02 -0.35720218169E+03 -0.36836586019E+03  0.65184919591E+03  0.40020284654E+03 0.  0.
    9000005    1    3    3    0    0  0.44826935939E+01  0.66799379224E+02  0.25420464235E+02  0.71620189907E+02  0.99999687468E+00 0.  0.
          4    1    3    3  501    0 -0.42669736952E+02 -0.42400156091E+03 -0.39378632442E+03  0.58022900601E+03  0.00000000000E+00 0.  1.
   -9000007    1    1    2    0  502  0.38187043358E+02  0.35720218169E+03 -0.17018895099E+03  0.56392900965E+03  0.40000000000E+03 0. -1.
<mgrwt>
<rscale>  2 0.53774843E+03</rscale>
<asrwt>0</asrwt>
<pdfrwt beam="1">  1       21 0.52094107E-01 0.53778617E+03</pdfrwt>
<pdfrwt beam="2">  1       21 0.13494869E+00 0.53778617E+03</pdfrwt>
<totfact> 0.11302152E+03</totfact>
</mgrwt>
</event>
<event>
 6    1  0.9190795E-004  0.8509014E+03  0.7818608E-02  0.9489133E-01
         21   -1    0    0  503  502  0.00000000000E+00  0.00000000000E+00  0.39582770445E+03  0.39582770445E+03  0.00000000000E+00 0.  1.
         21   -1    0    0  501  503 -0.00000000000E+00 -0.00000000000E+00 -0.18294114246E+04  0.18294114246E+04  0.00000000000E+00 0. -1.
    9000007    2    1    2  501    0 -0.20724633162E+03 -0.72184236649E+03 -0.73059804407E+03  0.11215198238E+04  0.40003221010E+03 0.  0.
    9000005    1    3    3    0    0  0.47990330858E+02 -0.37752143466E+03 -0.51887287131E+03  0.64347149281E+03  0.99999687468E+00 0.  0.
          4    1    3    3  501    0 -0.25523666248E+03 -0.34432093183E+03 -0.21172517276E+03  0.47804833098E+03  0.00000000000E+00 0.  1.
   -9000007    1    1    2    0  502  0.20724633162E+03  0.72184236649E+03 -0.70298567608E+03  0.11037193053E+04  0.40000000000E+03 0. -1.
<mgrwt>
<rscale>  2 0.85089763E+03</rscale>
<asrwt>0</asrwt>
<pdfrwt beam="1">  1       21 0.60896572E-01 0.85090141E+03</pdfrwt>
<pdfrwt beam="2">  1       21 0.28144790E+00 0.85090141E+03</pdfrwt>
<totfact> 0.71058990E+01</totfact>
</mgrwt>
</event>
<event>
 6    1  0.9190795E-004  0.4041594E+03  0.7818608E-02  0.1042539E+00
         21   -1    0    0  503  502  0.00000000000E+00  0.00000000000E+00  0.41388639565E+03  0.41388639565E+03  0.00000000000E+00 0.  1.
         21   -1    0    0  501  503 -0.00000000000E+00 -0.00000000000E+00 -0.40230446935E+03  0.40230446935E+03  0.00000000000E+00 0.  1.
    9000007    2    1    2  501    0 -0.56566364393E+02 -0.12045028254E+02 -0.57927367918E+02  0.40609773135E+03  0.39776243056E+03 0.  0.
    9000005    1    3    3    0    0 -0.70499358987E+02 -0.14417121403E+03  0.10806735396E+03  0.19348139849E+03  0.99999687468E+00 0.  0.
          4    1    3    3  501    0  0.13932994594E+02  0.13212618578E+03 -0.16599472188E+03  0.21261633286E+03  0.00000000000E+00 0.  1.
   -9000007    1    1    2    0  502  0.56566364393E+02  0.12045028254E+02  0.69509294209E+02  0.41009313365E+03  0.40000000000E+03 0.  1.
<mgrwt>
<rscale>  2 0.40360467E+03</rscale>
<asrwt>0</asrwt>
<pdfrwt beam="1">  1       21 0.63674830E-01 0.40415942E+03</pdfrwt>
<pdfrwt beam="2">  1       21 0.61892995E-01 0.40415942E+03</pdfrwt>
<totfact> 0.49369238E+03</totfact>
</mgrwt>
</event>
<event>
 6    1  0.9190795E-004  0.4232172E+03  0.7818608E-02  0.1036034E+00
         21   -1    0    0  503  502  0.00000000000E+00  0.00000000000E+00  0.30430347300E+03  0.30430347300E+03  0.00000000000E+00 0. -1.
         21   -1    0    0  501  503 -0.00000000000E+00 -0.00000000000E+00 -0.58905403591E+03  0.58905403591E+03  0.00000000000E+00 0. -1.
    9000007    2    1    2  501    0  0.48355150740E+01  0.13816436417E+03 -0.15685788421E+03  0.45123839486E+03  0.39987362933E+03 0.  0.
    9000005    1    3    3    0    0 -0.14809635542E+03  0.20479443886E+03 -0.12277034796E+03  0.28097482273E+03  0.99999687468E+00 0.  0.
          4    1    3    3  501    0  0.15293187050E+03 -0.66630074696E+02 -0.34087536250E+02  0.17026357213E+03  0.00000000000E+00 0.  1.
   -9000007    1    1    2    0  502 -0.48355150740E+01 -0.13816436417E+03 -0.12789267870E+03  0.44211911404E+03  0.40000000000E+03 0. -1.
<mgrwt>
<rscale>  2 0.42318731E+03</rscale>
<asrwt>0</asrwt>
<pdfrwt beam="1">  1       21 0.46815919E-01 0.42321717E+03</pdfrwt>
<pdfrwt beam="2">  1       21 0.90623698E-01 0.42321717E+03</pdfrwt>
<totfact> 0.39887370E+03</totfact>
</mgrwt>
</event>
<event>
 6    1  0.9190795E-004  0.4640790E+03  0.7818608E-02  0.1023660E+00
         21   -1    0    0  503  502  0.00000000000E+00  0.00000000000E+00  0.32365635082E+03  0.32365635082E+03  0.00000000000E+00 0.  1.
         21   -1    0    0  501  503 -0.00000000000E+00 -0.00000000000E+00 -0.67233344525E+03  0.67233344525E+03  0.00000000000E+00 0.  1.
    9000007    2    1    2  501    0 -0.20150010907E+02  0.23290999075E+03 -0.22885314678E+03  0.51743899922E+03  0.40089433570E+03 0.  0.
    9000005    1    3    3    0    0  0.17020131945E+02  0.12565923758E+03 -0.33736232680E+03  0.36040847440E+03  0.99999687468E+00 0.  0.
          4    1    3    3  501    0 -0.37170142852E+02  0.10725075317E+03  0.10850918003E+03  0.15703052482E+03  0.00000000000E+00 0.  1.
   -9000007    1    1    2    0  502  0.20150010907E+02 -0.23290999075E+03 -0.11982394765E+03  0.47855079685E+03  0.40000000000E+03 0. -1.
<mgrwt>
<rscale>  2 0.46388583E+03</rscale>
<asrwt>0</asrwt>
<pdfrwt beam="1">  1       21 0.49793285E-01 0.46407904E+03</pdfrwt>
<pdfrwt beam="2">  1       21 0.10343591E+00 0.46407904E+03</pdfrwt>
<totfact> 0.25086144E+03</totfact>
</mgrwt>
</event>
<event>
 6    1  0.9190795E-004  0.4468240E+03  0.7818608E-02  0.1028693E+00
         21   -1    0    0  503  502  0.00000000000E+00  0.00000000000E+00  0.25224133192E+03  0.25224133192E+03  0.00000000000E+00 0.  1.
         21   -1    0    0  501  503 -0.00000000000E+00 -0.00000000000E+00 -0.79155682344E+03  0.79155682344E+03  0.00000000000E+00 0.  1.
    9000007    2    1    2  501    0  0.15643224099E+02  0.19791461002E+03 -0.25641716460E+03  0.51517128630E+03  0.40029587634E+03 0.  0.
    9000005    1    3    3    0    0  0.53614466560E+02  0.20372671928E+03 -0.35308218255E+03  0.41115339571E+03  0.99999687468E+00 0.  0.
          4    1    3    3  501    0 -0.37971242461E+02 -0.58121092648E+01  0.96665017952E+02  0.10401789059E+03  0.00000000000E+00 0.  1.
   -9000007    1    1    2    0  502 -0.15643224099E+02 -0.19791461002E+03 -0.28289832692E+03  0.52862686906E+03  0.40000000000E+03 0. -1.
<mgrwt>
<rscale>  2 0.44675773E+03</rscale>
<asrwt>0</asrwt>
<pdfrwt beam="1">  1       21 0.38806359E-01 0.44682401E+03</pdfrwt>
<pdfrwt beam="2">  1       21 0.12177797E+00 0.44682401E+03</pdfrwt>
<totfact> 0.28270657E+03</totfact>
</mgrwt>
</event>
<event>
 6    1  0.9190795E-004  0.6233964E+03  0.7818608E-02  0.9858038E-01
         21   -1    0    0  503  502  0.00000000000E+00  0.00000000000E+00  0.85539877178E+03  0.85539877178E+03  0.00000000000E+00 0.  1.
         21   -1    0    0  501  503 -0.00000000000E+00 -0.00000000000E+00 -0.46361241516E+03  0.46361241516E+03  0.00000000000E+00 0. -1.
    9000007    2    1    2  501    0 -0.20297260109E+03  0.43287450015E+03  0.10238762198E+03  0.63174861900E+03  0.40005609956E+03 0.  0.
    9000005    1    3    3    0    0 -0.27631351603E+03  0.21979551372E+03 -0.54379144803E+02  0.35723566224E+03  0.99999687468E+00 0.  0.
          4    1    3    3  501    0  0.73340914934E+02  0.21307898643E+03  0.15676676679E+03  0.27451295676E+03  0.00000000000E+00 0.  1.
   -9000007    1    1    2    0  502  0.20297260109E+03 -0.43287450015E+03  0.28939873464E+03  0.68726256794E+03  0.40000000000E+03 0.  1.
<mgrwt>
<rscale>  2 0.62338742E+03</rscale>
<asrwt>0</asrwt>
<pdfrwt beam="1">  1       21 0.13159981E+00 0.62339642E+03</pdfrwt>
<pdfrwt beam="2">  1       21 0.71324987E-01 0.62339642E+03</pdfrwt>
<totfact> 0.58614962E+02</totfact>
</mgrwt>
</event>
<event>
 6    1  0.9190795E-004  0.4698093E+03  0.7818608E-02  0.1021977E+00
         21   -1    0    0  503  502  0.00000000000E+00  0.00000000000E+00  0.74904251392E+03  0.74904251392E+03  0.00000000000E+00 0.  1.
         21   -1    0    0  501  503 -0.00000000000E+00 -0.00000000000E+00 -0.33015517510E+03  0.33015517510E+03  0.00000000000E+00 0.  1.
    9000007    2    1    2  501    0  0.20891057892E+03  0.13052161187E+03  0.32482139959E+02  0.47093088995E+03  0.40005161234E+03 0.  0.
    9000005    1    3    3    0    0 -0.74712301210E+02 -0.85222941814E+02  0.33564469919E+01  0.11338934471E+03  0.99999687468E+00 0.  0.
          4    1    3    3  501    0  0.28362288013E+03  0.21574455369E+03  0.29125692967E+02  0.35754154524E+03  0.00000000000E+00 0.  1.
   -9000007    1    1    2    0  502 -0.20891057892E+03 -0.13052161187E+03  0.38640519886E+03  0.60826679908E+03  0.40000000000E+03 0.  1.
<mgrwt>
<rscale>  2 0.46979835E+03</rscale>
<asrwt>0</asrwt>
<pdfrwt beam="1">  1       21 0.11523731E+00 0.46980934E+03</pdfrwt>
<pdfrwt beam="2">  1       21 0.50793104E-01 0.46980934E+03</pdfrwt>
<totfact> 0.18354106E+03</totfact>
</mgrwt>
</event>
<event>
 6    1  0.9190795E-004  0.4739980E+03  0.7818608E-02  0.1020850E+00
         21   -1    0    0  503  502  0.00000000000E+00  0.00000000000E+00  0.16519944142E+03  0.16519944142E+03  0.00000000000E+00 0. -1.
         21   -1    0    0  501  503 -0.00000000000E+00 -0.00000000000E+00 -0.13733768168E+04  0.13733768168E+04  0.00000000000E+00 0. -1.
    9000007    2    1    2  501    0  0.33693746592E+01 -0.25428880663E+03 -0.52194595280E+03  0.70455724451E+03  0.39912301774E+03 0.  0.
    9000005    1    3    3    0    0  0.11315445072E+03 -0.26625894329E+03 -0.16970073293E+03  0.33540586362E+03  0.99999687468E+00 0.  0.
          4    1    3    3  501    0 -0.10978507606E+03  0.11970136655E+02 -0.35224521987E+03  0.36915138089E+03  0.00000000000E+00 0.  1.
   -9000007    1    1    2    0  502 -0.33693746592E+01  0.25428880663E+03 -0.68623142256E+03  0.83401901368E+03  0.40000000000E+03 0. -1.
<mgrwt>
<rscale>  2 0.47381298E+03</rscale>
<asrwt>0</asrwt>
<pdfrwt beam="1">  1       21 0.25415298E-01 0.47399805E+03</pdfrwt>
<pdfrwt beam="2">  1       21 0.21128874E+00 0.47399805E+03</pdfrwt>
<totfact> 0.13846515E+03</totfact>
</mgrwt>
</event>
<event>
 6    1  0.9190795E-004  0.4279766E+03  0.7818608E-02  0.1034548E+00
         21   -1    0    0  503  502  0.00000000000E+00  0.00000000000E+00  0.86742498695E+03  0.86742498695E+03  0.00000000000E+00 0.  1.
         21   -1    0    0  501  503 -0.00000000000E+00 -0.00000000000E+00 -0.21097477358E+03  0.21097477358E+03  0.00000000000E+00 0.  1.
    9000007    2    1    2  501    0 -0.80261148763E+02  0.12931405321E+03  0.31563970541E+03  0.53130216532E+03  0.39936147896E+03 0.  0.
    9000005    1    3    3    0    0  0.59444884164E+02  0.97894723993E+02 -0.59997247104E+02  0.12929710319E+03  0.99999687468E+00 0.  0.
          4    1    3    3  501    0 -0.13970603293E+03  0.31419329219E+02  0.37563695251E+03  0.40200506213E+03  0.00000000000E+00 0.  1.
   -9000007    1    1    2    0  502  0.80261148763E+02 -0.12931405321E+03  0.34081050796E+03  0.54709759522E+03  0.40000000000E+03 0.  1.
<mgrwt>
<rscale>  2 0.42782735E+03</rscale>
<asrwt>0</asrwt>
<pdfrwt beam="1">  1       21 0.13345000E+00 0.42797661E+03</pdfrwt>
<pdfrwt beam="2">  1       21 0.32457658E-01 0.42797661E+03</pdfrwt>
<totfact> 0.32287430E+03</totfact>
</mgrwt>
</event>
<event>
 6    1  0.9190795E-004  0.4946069E+03  0.7818608E-02  0.1015213E+00
         21   -1    0    0  503  502  0.00000000000E+00  0.00000000000E+00  0.20220808634E+04  0.20220808634E+04  0.00000000000E+00 0. -1.
         21   -1    0    0  501  503 -0.00000000000E+00 -0.00000000000E+00 -0.14767639819E+03  0.14767639819E+03  0.00000000000E+00 0. -1.
    9000007    2    1    2  501    0  0.12655600485E+03 -0.26195340139E+03  0.47523159805E+03  0.68573545613E+03  0.39968992625E+03 0.  0.
    9000005    1    3    3    0    0  0.25358684324E+03 -0.26520725429E+03  0.34158800850E+03  0.50132279255E+03  0.99999687468E+00 0.  0.
          4    1    3    3  501    0 -0.12703083839E+03  0.32538528963E+01  0.13364358955E+03  0.18441266358E+03  0.00000000000E+00 0.  1.
   -9000007    1    1    2    0  502 -0.12655600485E+03  0.26195340139E+03  0.13991728672E+04  0.14840218055E+04  0.40000000000E+03 0. -1.
<mgrwt>
<rscale>  2 0.49454423E+03</rscale>
<asrwt>0</asrwt>
<pdfrwt beam="1">  1       21 0.31108934E+00 0.49460692E+03</pdfrwt>
<pdfrwt beam="2">  1       21 0.22719447E-01 0.49460692E+03</pdfrwt>
<totfact> 0.41330063E+02</totfact>
</mgrwt>
</event>
<event>
 6    1  0.9190795E-004  0.4077991E+03  0.7818608E-02  0.1041126E+00
         21   -1    0    0  503  502  0.00000000000E+00  0.00000000000E+00  0.12967081403E+04  0.12967081403E+04  0.00000000000E+00 0. -1.
         21   -1    0    0  501  503 -0.00000000000E+00 -0.00000000000E+00 -0.30404234832E+03  0.30404234832E+03  0.00000000000E+00 0. -1.
    9000007    2    1    2  501    0 -0.48941580821E+02  0.62488914016E+02 -0.11239170282E+03  0.42284887579E+03  0.39983638427E+03 0.  0.
    9000005    1    3    3    0    0  0.13524345286E+03  0.40724771201E+02 -0.17700170877E+03  0.22645066446E+03  0.99999687468E+00 0.  0.
          4    1    3    3  501    0 -0.18418503368E+03  0.21764142815E+02  0.64610005955E+02  0.19639821133E+03  0.00000000000E+00 0.  1.
   -9000007    1    1    2    0  502  0.48941580821E+02 -0.62488914016E+02  0.11050574948E+04  0.11779016129E+04  0.40000000000E+03 0. -1.
<mgrwt>
<rscale>  2 0.40775902E+03</rscale>
<asrwt>0</asrwt>
<pdfrwt beam="1">  1       21 0.19949356E+00 0.40779915E+03</pdfrwt>
<pdfrwt beam="2">  1       21 0.46775746E-01 0.40779915E+03</pdfrwt>
<totfact> 0.49790579E+02</totfact>
</mgrwt>
</event>
<event>
 6    1  0.9190795E-004  0.5733374E+03  0.7818608E-02  0.9962367E-01
         21   -1    0    0  503  502  0.00000000000E+00  0.00000000000E+00  0.54099030279E+03  0.54099030279E+03  0.00000000000E+00 0.  1.
         21   -1    0    0  501  503 -0.00000000000E+00 -0.00000000000E+00 -0.62448568091E+03  0.62448568091E+03  0.00000000000E+00 0.  1.
    9000007    2    1    2  501    0 -0.30652449316E+03 -0.27342010024E+03  0.54277932286E+02  0.57581735264E+03  0.39987962382E+03 0.  0.
    9000005    1    3    3    0    0 -0.14588179223E+02 -0.40653230428E+02  0.17746478722E+03  0.18264788751E+03  0.99999687468E+00 0.  0.
          4    1    3    3  501    0 -0.29193631394E+03 -0.23276686982E+03 -0.12318685493E+03  0.39316946513E+03  0.00000000000E+00 0.  1.
   -9000007    1    1    2    0  502  0.30652449316E+03  0.27342010024E+03 -0.13777331040E+03  0.58965863106E+03  0.40000000000E+03 0.  1.
<mgrwt>
<rscale>  2 0.57331644E+03</rscale>
<asrwt>0</asrwt>
<pdfrwt beam="1">  1       21 0.83229277E-01 0.57333744E+03</pdfrwt>
<pdfrwt beam="2">  1       21 0.96074720E-01 0.57333744E+03</pdfrwt>
<totfact> 0.92145798E+02</totfact>
</mgrwt>
</event>
<event>
 6    1  0.9190795E-004  0.4070862E+03  0.7818608E-02  0.1041436E+00
         21   -1    0    0  503  502  0.00000000000E+00  0.00000000000E+00  0.61029586140E+03  0.61029586140E+03  0.00000000000E+00 0.  1.
         21   -1    0    0  501  503 -0.00000000000E+00 -0.00000000000E+00 -0.27450663145E+03  0.27450663145E+03  0.00000000000E+00 0.  1.
    9000007    2    1    2  501    0  0.62429396097E+02 -0.32026445819E+02  0.21889849843E+03  0.46220745521E+03  0.40099383574E+03 0.  0.
    9000005    1    3    3    0    0 -0.62723970022E+02 -0.13199993269E+03 -0.45504416533E+02  0.15306838525E+03  0.99999687468E+00 0.  0.
          4    1    3    3  501    0  0.12515336612E+03  0.99973486873E+02  0.26440291497E+03  0.30913906995E+03  0.00000000000E+00 0.  1.
   -9000007    1    1    2    0  502 -0.62429396097E+02  0.32026445819E+02  0.11689073152E+03  0.42259503765E+03  0.40000000000E+03 0.  1.
<mgrwt>
<rscale>  2 0.40684125E+03</rscale>
<asrwt>0</asrwt>
<pdfrwt beam="1">  1       21 0.93891671E-01 0.40708621E+03</pdfrwt>
<pdfrwt beam="2">  1       21 0.42231789E-01 0.40708621E+03</pdfrwt>
<totfact> 0.45738180E+03</totfact>
</mgrwt>
</event>
<event>
 6    1  0.9190795E-004  0.5632268E+03  0.7818608E-02  0.9984847E-01
         21   -1    0    0  503  502  0.00000000000E+00  0.00000000000E+00  0.10577692828E+04  0.10577692828E+04  0.00000000000E+00 0.  1.
         21   -1    0    0  501  503 -0.00000000000E+00 -0.00000000000E+00 -0.54859711003E+03  0.54859711003E+03  0.00000000000E+00 0.  1.
    9000007    2    1    2  501    0  0.33410219791E+03 -0.21322670257E+03 -0.28625210337E+03  0.63179485394E+03  0.40016817145E+03 0.  0.
    9000005    1    3    3    0    0  0.16972205269E+02 -0.18752665666E+03  0.21030190930E+02  0.18946654489E+03  0.99999687468E+00 0.  0.
          4    1    3    3  501    0  0.31712999264E+03 -0.25700045916E+02 -0.30728229430E+03  0.44232830905E+03  0.00000000000E+00 0.  1.
   -9000007    1    1    2    0  502 -0.33410219791E+03  0.21322670257E+03  0.79542427616E+03  0.97457153890E+03  0.40000000000E+03 0.  1.
<mgrwt>
<rscale>  2 0.56319697E+03</rscale>
<asrwt>0</asrwt>
<pdfrwt beam="1">  1       21 0.16273374E+00 0.56322684E+03</pdfrwt>
<pdfrwt beam="2">  1       21 0.84399555E-01 0.56322684E+03</pdfrwt>
<totfact> 0.22763102E+02</totfact>
</mgrwt>
</event>
<event>
 6    1  0.9190795E-004  0.6521839E+03  0.7818608E-02  0.9803668E-01
         21   -1    0    0  503  502  0.00000000000E+00  0.00000000000E+00  0.81846163399E+03  0.81846163399E+03  0.00000000000E+00 0.  1.
         21   -1    0    0  501  503 -0.00000000000E+00 -0.00000000000E+00 -0.59316234716E+03  0.59316234716E+03  0.00000000000E+00 0. -1.
    9000007    2    1    2  501    0  0.16548132622E+03  0.48781124960E+03  0.36370145102E+03  0.74491636636E+03  0.39658260532E+03 0.  0.
    9000005    1    3    3    0    0 -0.12565320009E+03  0.87309588068E+02  0.61958395323E+02  0.16508038528E+03  0.99999687468E+00 0.  0.
          4    1    3    3  501    0  0.29113452630E+03  0.40050166154E+03  0.30174305570E+03  0.57983598108E+03  0.00000000000E+00 0.  1.
   -9000007    1    1    2    0  502 -0.16548132622E+03 -0.48781124960E+03 -0.13840216419E+03  0.66670761479E+03  0.40000000000E+03 0. -1.
<mgrwt>
<rscale>  2 0.65166071E+03</rscale>
<asrwt>0</asrwt>
<pdfrwt beam="1">  1       21 0.12591717E+00 0.65218393E+03</pdfrwt>
<pdfrwt beam="2">  1       21 0.91255746E-01 0.65218393E+03</pdfrwt>
<totfact> 0.36676520E+02</totfact>
</mgrwt>
</event>
<event>
 6    1  0.9190795E-004  0.4430721E+03  0.7818608E-02  0.1029843E+00
         21   -1    0    0  503  502  0.00000000000E+00  0.00000000000E+00  0.20055618517E+04  0.20055618517E+04  0.00000000000E+00 0. -1.
         21   -1    0    0  501  503 -0.00000000000E+00 -0.00000000000E+00 -0.10811201646E+03  0.10811201646E+03  0.00000000000E+00 0. -1.
    9000007    2    1    2  501    0  0.19562794294E+02 -0.18849943793E+03  0.12757930174E+04  0.13505408914E+04  0.40049735968E+03 0.  0.
    9000005    1    3    3    0    0  0.23995891130E+02 -0.30066186652E+03  0.11105302618E+04  0.11507614102E+04  0.99999687468E+00 0.  0.
          4    1    3    3  501    0 -0.44330968366E+01  0.11216242859E+03  0.16526275557E+03  0.19977948121E+03  0.00000000000E+00 0.  1.
   -9000007    1    1    2    0  502 -0.19562794294E+02  0.18849943793E+03  0.62165681778E+03  0.76313297669E+03  0.40000000000E+03 0. -1.
<mgrwt>
<rscale>  2 0.44295967E+03</rscale>
<asrwt>0</asrwt>
<pdfrwt beam="1">  1       21 0.30854795E+00 0.44307209E+03</pdfrwt>
<pdfrwt beam="2">  1       21 0.16632619E-01 0.44307209E+03</pdfrwt>
<totfact> 0.79669168E+02</totfact>
</mgrwt>
</event>
<event>
 6    1  0.9190795E-004  0.4192519E+03  0.7818608E-02  0.1037418E+00
         21   -1    0    0  503  502  0.00000000000E+00  0.00000000000E+00  0.16091483554E+04  0.16091483554E+04  0.00000000000E+00 0.  1.
         21   -1    0    0  501  503 -0.00000000000E+00 -0.00000000000E+00 -0.10894719185E+04  0.10894719185E+04  0.00000000000E+00 0.  1.
    9000007    2    1    2  501    0  0.65411648387E+02  0.10720769209E+03 -0.10203081861E+04  0.11025861853E+04  0.39861676898E+03 0.  0.
    9000005    1    3    3    0    0 -0.15453908677E+02  0.15220746393E+03 -0.11207803322E+03  0.18965342310E+03  0.99999687468E+00 0.  0.
          4    1    3    3  501    0  0.80865557064E+02 -0.44999771840E+02 -0.90823015287E+03  0.91293276224E+03  0.00000000000E+00 0.  1.
   -9000007    1    1    2    0  502 -0.65411648387E+02 -0.10720769209E+03  0.15399846229E+04  0.15960340886E+04  0.40000000000E+03 0.  1.
<mgrwt>
<rscale>  2 0.41892165E+03</rscale>
<asrwt>0</asrwt>
<pdfrwt beam="1">  1       21 0.24756129E+00 0.41925192E+03</pdfrwt>
<pdfrwt beam="2">  1       21 0.16761106E+00 0.41925192E+03</pdfrwt>
<totfact> 0.11598618E+01</totfact>
</mgrwt>
</event>
<event>
 6    1  0.9190795E-004  0.5946710E+03  0.7818608E-02  0.9921142E-01
         21   -1    0    0  503  502  0.00000000000E+00  0.00000000000E+00  0.74396442262E+03  0.74396442262E+03  0.00000000000E+00 0.  1.
         21   -1    0    0  501  503 -0.00000000000E+00 -0.00000000000E+00 -0.47175822745E+03  0.47175822745E+03  0.00000000000E+00 0. -1.
    9000007    2    1    2  501    0 -0.25214161460E+03 -0.36063584980E+03  0.83665940778E+02  0.59187888958E+03  0.38689406859E+03 0.  0.
    9000005    1    3    3    0    0  0.97289560337E+02 -0.57982113886E+02 -0.27221735585E+02  0.11648693902E+03  0.99999687468E+00 0.  0.
          4    1    3    3  501    0 -0.34943117494E+03 -0.30265373592E+03  0.11088767636E+03  0.47539195056E+03  0.00000000000E+00 0.  1.
   -9000007    1    1    2    0  502  0.25214161460E+03  0.36063584980E+03  0.18854025439E+03  0.62384376049E+03  0.40000000000E+03 0. -1.
<mgrwt>
<rscale>  2 0.59247505E+03</rscale>
<asrwt>0</asrwt>
<pdfrwt beam="1">  1       21 0.11445606E+00 0.59467101E+03</pdfrwt>
<pdfrwt beam="2">  1       21 0.72578189E-01 0.59467101E+03</pdfrwt>
<totfact> 0.81452041E+02</totfact>
</mgrwt>
</event>
<event>
 6    1  0.9190795E-004  0.4460767E+03  0.7818608E-02  0.1028908E+00
         21   -1    0    0  503  502  0.00000000000E+00  0.00000000000E+00  0.94037337677E+03  0.94037337677E+03  0.00000000000E+00 0. -1.
         21   -1    0    0  501  503 -0.00000000000E+00 -0.00000000000E+00 -0.32879719354E+03  0.32879719354E+03  0.00000000000E+00 0. -1.
    9000007    2    1    2  501    0  0.18344525464E+03 -0.73022353078E+02 -0.73204657583E+02  0.45191343486E+03  0.39985297950E+03 0.  0.
    9000005    1    3    3    0    0  0.18866171776E+03 -0.17770422996E+03  0.75529851271E+02  0.26995887746E+03  0.99999687468E+00 0.  0.
          4    1    3    3  501    0 -0.52164631214E+01  0.10468187688E+03 -0.14873450885E+03  0.18195455740E+03  0.00000000000E+00 0.  1.
   -9000007    1    1    2    0  502 -0.18344525464E+03  0.73022353078E+02  0.68478084081E+03  0.81725713545E+03  0.40000000000E+03 0. -1.
<mgrwt>
<rscale>  2 0.44604374E+03</rscale>
<asrwt>0</asrwt>
<pdfrwt beam="1">  1       21 0.14467283E+00 0.44607670E+03</pdfrwt>
<pdfrwt beam="2">  1       21 0.50584184E-01 0.44607670E+03</pdfrwt>
<totfact> 0.10357308E+03</totfact>
</mgrwt>
</event>
<event>
 6    1  0.9190795E-004  0.6215600E+03  0.7818608E-02  0.9861797E-01
         21   -1    0    0  503  502  0.00000000000E+00  0.00000000000E+00  0.12628627167E+04  0.12628627167E+04  0.00000000000E+00 0. -1.
         21   -1    0    0  501  503 -0.00000000000E+00 -0.00000000000E+00 -0.40093983362E+03  0.40093983362E+03  0.00000000000E+00 0. -1.
    9000007    2    1    2  501    0 -0.25974180880E+03  0.39858622112E+03  0.25614356769E+02  0.62180987564E+03  0.39956807088E+03 0.  0.
    9000005    1    3    3    0    0 -0.53800321209E+02  0.15562897865E+03 -0.17902251746E+03  0.24323839193E+03  0.99999687468E+00 0.  0.
          4    1    3    3  501    0 -0.20594148759E+03  0.24295724248E+03  0.20463687423E+03  0.37857148371E+03  0.00000000000E+00 0.  1.
   -9000007    1    1    2    0  502  0.25974180880E+03 -0.39858622112E+03  0.83630852636E+03  0.10419926747E+04  0.40000000000E+03 0. -1.
<mgrwt>
<rscale>  2 0.62149048E+03</rscale>
<asrwt>0</asrwt>
<pdfrwt beam="1">  1       21 0.19428657E+00 0.62155996E+03</pdfrwt>
<pdfrwt beam="2">  1       21 0.61683052E-01 0.62155996E+03</pdfrwt>
<totfact> 0.27040245E+02</totfact>
</mgrwt>
</event>
<event>
 6    1  0.9190795E-004  0.4850200E+03  0.7818608E-02  0.1017924E+00
         21   -1    0    0  503  502  0.00000000000E+00  0.00000000000E+00  0.10861256116E+04  0.10861256116E+04  0.00000000000E+00 0. -1.
         21   -1    0    0  501  503 -0.00000000000E+00 -0.00000000000E+00 -0.21557159185E+03  0.21557159185E+03  0.00000000000E+00 0. -1.
    9000007    2    1    2  501    0 -0.17042344945E+02 -0.27377719627E+03  0.42709450887E+03  0.64450565412E+03  0.39715667433E+03 0.  0.
    9000005    1    3    3    0    0  0.12830956111E+03 -0.57901445778E+02  0.34339334846E+03  0.37112789258E+03  0.99999687468E+00 0.  0.
          4    1    3    3  501    0 -0.14535190606E+03 -0.21587575049E+03  0.83701160415E+02  0.27337776153E+03  0.00000000000E+00 0.  1.
   -9000007    1    1    2    0  502  0.17042344945E+02  0.27377719627E+03  0.44345951086E+03  0.65719154932E+03  0.40000000000E+03 0. -1.
<mgrwt>
<rscale>  2 0.48443337E+03</rscale>
<asrwt>0</asrwt>
<pdfrwt beam="1">  1       21 0.16709625E+00 0.48501999E+03</pdfrwt>
<pdfrwt beam="2">  1       21 0.33164861E-01 0.48501999E+03</pdfrwt>
<totfact> 0.16412535E+03</totfact>
</mgrwt>
</event>
<event>
 6    1  0.9190795E-004  0.4537312E+03  0.7818608E-02  0.1026650E+00
         21   -1    0    0  503  502  0.00000000000E+00  0.00000000000E+00  0.14418424458E+04  0.14418424458E+04  0.00000000000E+00 0.  1.
         21   -1    0    0  501  503 -0.00000000000E+00 -0.00000000000E+00 -0.18064946382E+03  0.18064946382E+03  0.00000000000E+00 0.  1.
    9000007    2    1    2  501    0  0.21302362149E+03  0.80181538645E+01  0.25871542165E+03  0.52230800996E+03  0.40053543384E+03 0.  0.
    9000005    1    3    3    0    0  0.50213023706E+02 -0.17811026786E+03  0.33965456522E+02  0.18814693061E+03  0.99999687468E+00 0.  0.
          4    1    3    3  501    0  0.16281059779E+03  0.18612842173E+03  0.22474996513E+03  0.33416107935E+03  0.00000000000E+00 0.  1.
   -9000007    1    1    2    0  502 -0.21302362149E+03 -0.80181538645E+01  0.10024775603E+04  0.11001838996E+04  0.40000000000E+03 0.  1.
<mgrwt>
<rscale>  2 0.45361299E+03</rscale>
<asrwt>0</asrwt>
<pdfrwt beam="1">  1       21 0.22182191E+00 0.45373118E+03</pdfrwt>
<pdfrwt beam="2">  1       21 0.27792226E-01 0.45373118E+03</pdfrwt>
<totfact> 0.10029833E+03</totfact>
</mgrwt>
</event>
<event>
 6    1  0.9190795E-004  0.4931561E+03  0.7818608E-02  0.1015592E+00
         21   -1    0    0  503  502  0.00000000000E+00  0.00000000000E+00  0.22632029407E+03  0.22632029407E+03  0.00000000000E+00 0. -1.
         21   -1    0    0  501  503 -0.00000000000E+00 -0.00000000000E+00 -0.20881257084E+04  0.20881257084E+04  0.00000000000E+00 0. -1.
    9000007    2    1    2  501    0 -0.28697879036E+03 -0.29088053647E+02 -0.17371931123E+04  0.18057897661E+04  0.39979223217E+03 0.  0.
    9000005    1    3    3    0    0 -0.16384944829E+03 -0.30865438733E+02 -0.16412139186E+04  0.16496616149E+04  0.99999687468E+00 0.  0.
          4    1    3    3  501    0 -0.12312934207E+03  0.17773850862E+01 -0.95979193702E+02  0.15612815121E+03  0.00000000000E+00 0.  1.
   -9000007    1    1    2    0  502  0.28697879036E+03  0.29088053647E+02 -0.12461230202E+03  0.50865623636E+03  0.40000000000E+03 0. -1.
<mgrwt>
<rscale>  2 0.49311397E+03</rscale>
<asrwt>0</asrwt>
<pdfrwt beam="1">  1       21 0.34818506E-01 0.49315610E+03</pdfrwt>
<pdfrwt beam="2">  1       21 0.32125012E+00 0.49315610E+03</pdfrwt>
<totfact> 0.15438829E+02</totfact>
</mgrwt>
</event>
<event>
 6    1  0.9190795E-004  0.4641694E+03  0.7818608E-02  0.1023627E+00
         21   -1    0    0  503  502  0.00000000000E+00  0.00000000000E+00  0.63509121916E+03  0.63509121916E+03  0.00000000000E+00 0. -1.
         21   -1    0    0  501  503 -0.00000000000E+00 -0.00000000000E+00 -0.36139219735E+03  0.36139219735E+03  0.00000000000E+00 0. -1.
    9000007    2    1    2  501    0  0.13945335558E+03 -0.18975249617E+03  0.12058528139E+02  0.46365230244E+03  0.39921773667E+03 0.  0.
    9000005    1    3    3    0    0  0.10588559473E+03 -0.27336008605E+03  0.12541512265E+03  0.31885333431E+03  0.99999687468E+00 0.  0.
          4    1    3    3  501    0  0.33567760846E+02  0.83607589880E+02 -0.11335659451E+03  0.14479896813E+03  0.00000000000E+00 0.  1.
   -9000007    1    1    2    0  502 -0.13945335558E+03  0.18975249617E+03  0.26164049368E+03  0.53283111407E+03  0.40000000000E+03 0. -1.
<mgrwt>
<rscale>  2 0.46400084E+03</rscale>
<asrwt>0</asrwt>
<pdfrwt beam="1">  1       21 0.97706341E-01 0.46416942E+03</pdfrwt>
<pdfrwt beam="2">  1       21 0.55598800E-01 0.46416942E+03</pdfrwt>
<totfact> 0.22749483E+03</totfact>
</mgrwt>
</event>
<event>
 6    1  0.9190795E-004  0.4520341E+03  0.7818608E-02  0.1027123E+00
         21   -1    0    0  503  502  0.00000000000E+00  0.00000000000E+00  0.24991997539E+03  0.24991997539E+03  0.00000000000E+00 0.  1.
         21   -1    0    0  501  503 -0.00000000000E+00 -0.00000000000E+00 -0.82032601593E+03  0.82032601593E+03  0.00000000000E+00 0.  1.
    9000007    2    1    2  501    0  0.16172798551E+03  0.13458448652E+03 -0.31680573361E+03  0.55199697687E+03  0.40008232192E+03 0.  0.
    9000005    1    3    3    0    0  0.12120988712E+03 -0.12486229267E+03 -0.19851487996E+03  0.26399164083E+03  0.99999687468E+00 0.  0.
          4    1    3    3  501    0  0.40518098385E+02  0.25944677919E+03 -0.11829085365E+03  0.28800533604E+03  0.00000000000E+00 0.  1.
   -9000007    1    1    2    0  502 -0.16172798551E+03 -0.13458448652E+03 -0.25360030693E+03  0.51824901445E+03  0.40000000000E+03 0.  1.
<mgrwt>
<rscale>  2 0.45201584E+03</rscale>
<asrwt>0</asrwt>
<pdfrwt beam="1">  1       21 0.38449227E-01 0.45203406E+03</pdfrwt>
<pdfrwt beam="2">  1       21 0.12620400E+00 0.45203406E+03</pdfrwt>
<totfact> 0.26237804E+03</totfact>
</mgrwt>
</event>
<event>
 6    1  0.9190795E-004  0.4742001E+03  0.7818608E-02  0.1020819E+00
         21   -1    0    0  503  502  0.00000000000E+00  0.00000000000E+00  0.16832676948E+04  0.16832676948E+04  0.00000000000E+00 0.  1.
         21   -1    0    0  501  503 -0.00000000000E+00 -0.00000000000E+00 -0.21642971030E+03  0.21642971030E+03  0.00000000000E+00 0.  1.
    9000007    2    1    2  501    0  0.20739992411E+03 -0.14782091451E+03  0.14413636716E+03  0.49456206649E+03  0.39868608451E+03 0.  0.
    9000005    1    3    3    0    0  0.17516289251E+03 -0.21190149243E+03  0.24671114541E+03  0.36939365272E+03  0.99999687468E+00 0.  0.
          4    1    3    3  501    0  0.32237031600E+02  0.64080577916E+02 -0.10257477825E+03  0.12516841377E+03  0.00000000000E+00 0.  1.
   -9000007    1    1    2    0  502 -0.20739992411E+03  0.14782091451E+03  0.13227016173E+04  0.14051353386E+04  0.40000000000E+03 0.  1.
<mgrwt>
<rscale>  2 0.47392293E+03</rscale>
<asrwt>0</asrwt>
<pdfrwt beam="1">  1       21 0.25896425E+00 0.47420012E+03</pdfrwt>
<pdfrwt beam="2">  1       21 0.33296880E-01 0.47420012E+03</pdfrwt>
<totfact> 0.40681401E+02</totfact>
</mgrwt>
</event>
<event>
 6    1  0.9190795E-004  0.5175004E+03  0.7818608E-02  0.1009337E+00
         21   -1    0    0  503  502  0.00000000000E+00  0.00000000000E+00  0.34912883658E+03  0.34912883658E+03  0.00000000000E+00 0.  1.
         21   -1    0    0  501  503 -0.00000000000E+00 -0.00000000000E+00 -0.97412690843E+03  0.97412690843E+03  0.00000000000E+00 0.  1.
    9000007    2    1    2  501    0 -0.32089459727E+03 -0.66166162423E+02 -0.61811868403E+03  0.80614973113E+03  0.40056881787E+03 0.  0.
    9000005    1    3    3    0    0  0.20781385756E+02 -0.12732692681E+03 -0.33244861867E+03  0.35660495837E+03  0.99999687468E+00 0.  0.
          4    1    3    3  501    0 -0.34167598302E+03  0.61160764385E+02 -0.28567006536E+03  0.44954477276E+03  0.00000000000E+00 0.  1.
   -9000007    1    1    2    0  502  0.32089459727E+03  0.66166162423E+02 -0.68793878138E+01  0.51710601387E+03  0.40000000000E+03 0.  1.
<mgrwt>
<rscale>  2 0.51739034E+03</rscale>
<asrwt>0</asrwt>
<pdfrwt beam="1">  1       21 0.53712130E-01 0.51750042E+03</pdfrwt>
<pdfrwt beam="2">  1       21 0.14986567E+00 0.51750042E+03</pdfrwt>
<totfact> 0.80432148E+02</totfact>
</mgrwt>
</event>
<event>
 6    1  0.9190795E-004  0.4196815E+03  0.7818608E-02  0.1037233E+00
         21   -1    0    0  503  502  0.00000000000E+00  0.00000000000E+00  0.35766361594E+03  0.35766361594E+03  0.00000000000E+00 0. -1.
         21   -1    0    0  501  503 -0.00000000000E+00 -0.00000000000E+00 -0.53256959997E+03  0.53256959997E+03  0.00000000000E+00 0. -1.
    9000007    2    1    2  501    0 -0.27882408560E+02  0.12391596477E+03 -0.21092162158E+03  0.46900914113E+03  0.39918548193E+03 0.  0.
    9000005    1    3    3    0    0 -0.12806856380E+03  0.19853977464E+03 -0.15116191923E+02  0.23674690790E+03  0.99999687468E+00 0.  0.
          4    1    3    3  501    0  0.10018615524E+03 -0.74623809872E+02 -0.19580542966E+03  0.23226223323E+03  0.00000000000E+00 0.  1.
   -9000007    1    1    2    0  502  0.27882408560E+02 -0.12391596477E+03  0.36015637553E+02  0.42122407479E+03  0.40000000000E+03 0. -1.
<mgrwt>
<rscale>  2 0.41948734E+03</rscale>
<asrwt>0</asrwt>
<pdfrwt beam="1">  1       21 0.55025172E-01 0.41968154E+03</pdfrwt>
<pdfrwt beam="2">  1       21 0.81933784E-01 0.41968154E+03</pdfrwt>
<totfact> 0.35856014E+03</totfact>
</mgrwt>
</event>
<event>
 6    1  0.9190795E-004  0.4050784E+03  0.7818608E-02  0.1042052E+00
         21   -1    0    0  503  502  0.00000000000E+00  0.00000000000E+00  0.73217479019E+03  0.73217479019E+03  0.00000000000E+00 0. -1.
         21   -1    0    0  501  503 -0.00000000000E+00 -0.00000000000E+00 -0.24869213374E+03  0.24869213374E+03  0.00000000000E+00 0. -1.
    9000007    2    1    2  501    0 -0.83567946586E+01  0.62156729271E+02  0.87273275910E+02  0.41437317441E+03  0.40019396294E+03 0.  0.
    9000005    1    3    3    0    0 -0.10797433723E+03  0.15041436348E+03 -0.79073759382E+02  0.20133702505E+03  0.99999687468E+00 0.  0.
          4    1    3    3  501    0  0.99617542567E+02 -0.88257634209E+02  0.16634703529E+03  0.21303614936E+03  0.00000000000E+00 0.  1.
   -9000007    1    1    2    0  502  0.83567946586E+01 -0.62156729271E+02  0.39620938055E+03  0.56649374952E+03  0.40000000000E+03 0.  1.
<mgrwt>
<rscale>  2 0.40503048E+03</rscale>
<asrwt>0</asrwt>
<pdfrwt beam="1">  1       21 0.11264227E+00 0.40507839E+03</pdfrwt>
<pdfrwt beam="2">  1       21 0.38260329E-01 0.40507839E+03</pdfrwt>
<totfact> 0.35976126E+03</totfact>
</mgrwt>
</event>
<event>
 6    1  0.9190795E-004  0.4956618E+03  0.7818608E-02  0.1015134E+00
         21   -1    0    0  503  502  0.00000000000E+00  0.00000000000E+00  0.16096706011E+03  0.16096706011E+03  0.00000000000E+00 0. -1.
         21   -1    0    0  501  503 -0.00000000000E+00 -0.00000000000E+00 -0.18438055418E+04  0.18438055418E+04  0.00000000000E+00 0.  1.
    9000007    2    1    2  501    0  0.27262557992E+03  0.10656431899E+03 -0.12616385400E+04  0.13543188743E+04  0.39593831176E+03 0.  0.
    9000005    1    3    3    0    0  0.15432853203E+03 -0.21718488440E+02 -0.11165642324E+04  0.11273888742E+04  0.99999687468E+00 0.  0.
          4    1    3    3  501    0  0.11829704789E+03  0.12828280743E+03 -0.14507430757E+03  0.22693000009E+03  0.00000000000E+00 0.  1.
   -9000007    1    1    2    0  502 -0.27262557992E+03 -0.10656431899E+03 -0.42119994170E+03  0.65045372764E+03  0.40000000000E+03 0.  1.
<mgrwt>
<rscale>  2 0.49484182E+03</rscale>
<asrwt>0</asrwt>
<pdfrwt beam="1">  1       21 0.24764163E-01 0.49566184E+03</pdfrwt>
<pdfrwt beam="2">  1       21 0.28366239E+00 0.49566184E+03</pdfrwt>
<totfact> 0.51191121E+02</totfact>
</mgrwt>
</event>
<event>
 6    1  0.9190795E-004  0.5345299E+03  0.7818608E-02  0.1005140E+00
         21   -1    0    0  503  502  0.00000000000E+00  0.00000000000E+00  0.45355405360E+03  0.45355405360E+03  0.00000000000E+00 0. -1.
         21   -1    0    0  501  503 -0.00000000000E+00 -0.00000000000E+00 -0.76851715591E+03  0.76851715591E+03  0.00000000000E+00 0. -1.
    9000007    2    1    2  501    0 -0.86287378422E+02  0.34391381433E+03 -0.41693964964E+03  0.67790079542E+03  0.39998574178E+03 0.  0.
    9000005    1    3    3    0    0 -0.75169440255E+02 -0.79755451792E+02 -0.68567600915E+02  0.12928222124E+03  0.99999687468E+00 0.  0.
          4    1    3    3  501    0 -0.11117938166E+02  0.42366926612E+03 -0.34837204873E+03  0.54861857418E+03  0.00000000000E+00 0.  1.
   -9000007    1    1    2    0  502  0.86287378422E+02 -0.34391381433E+03  0.10197654733E+03  0.54417041408E+03  0.40000000000E+03 0. -1.
<mgrwt>
<rscale>  2 0.53452724E+03</rscale>
<asrwt>0</asrwt>
<pdfrwt beam="1">  1       21 0.69777547E-01 0.53452991E+03</pdfrwt>
<pdfrwt beam="2">  1       21 0.11823341E+00 0.53452991E+03</pdfrwt>
<totfact> 0.83733051E+02</totfact>
</mgrwt>
</event>
<event>
 6    1  0.9190795E-004  0.4312446E+03  0.7818608E-02  0.1033537E+00
         21   -1    0    0  503  502  0.00000000000E+00  0.00000000000E+00  0.11054560764E+04  0.11054560764E+04  0.00000000000E+00 0. -1.
         21   -1    0    0  501  503 -0.00000000000E+00 -0.00000000000E+00 -0.26367555725E+03  0.26367555725E+03  0.00000000000E+00 0. -1.
    9000007    2    1    2  501    0 -0.33198620406E+02 -0.15770141699E+03  0.80115243324E+01  0.43043965965E+03  0.39905166427E+03 0.  0.
    9000005    1    3    3    0    0 -0.77387840951E+02 -0.24386240905E+03 -0.10939325102E+03  0.27825462411E+03  0.99999687468E+00 0.  0.
          4    1    3    3  501    0  0.44189220545E+02  0.86160992062E+02  0.11740477536E+03  0.15218503554E+03  0.00000000000E+00 0.  1.
   -9000007    1    1    2    0  502  0.33198620406E+02  0.15770141699E+03  0.83376899483E+03  0.93869197400E+03  0.40000000000E+03 0. -1.
<mgrwt>
<rscale>  2 0.43102454E+03</rscale>
<asrwt>0</asrwt>
<pdfrwt beam="1">  1       21 0.17007016E+00 0.43124458E+03</pdfrwt>
<pdfrwt beam="2">  1       21 0.40565471E-01 0.43124458E+03</pdfrwt>
<totfact> 0.10593604E+03</totfact>
</mgrwt>
</event>
<event>
 6    1  0.9190795E-004  0.7387505E+03  0.7818608E-02  0.9653551E-01
         21   -1    0    0  503  502  0.00000000000E+00  0.00000000000E+00  0.11218107561E+04  0.11218107561E+04  0.00000000000E+00 0. -1.
         21   -1    0    0  501  503 -0.00000000000E+00 -0.00000000000E+00 -0.71681927505E+03  0.71681927505E+03  0.00000000000E+00 0. -1.
    9000007    2    1    2  501    0 -0.10327999452E+03 -0.61128174547E+03 -0.31924360790E+03  0.80477869093E+03  0.40177124160E+03 0.  0.
    9000005    1    3    3    0    0 -0.23068519887E+03 -0.19854576293E+03 -0.16429422251E+03  0.34587522678E+03  0.99999687468E+00 0.  0.
          4    1    3    3  501    0  0.12740520435E+03 -0.41273598254E+03 -0.15494938539E+03  0.45890346415E+03  0.00000000000E+00 0.  1.
   -9000007    1    1    2    0  502  0.10327999452E+03  0.61128174547E+03  0.72423508892E+03  0.10338513402E+04  0.40000000000E+03 0. -1.
<mgrwt>
<rscale>  2 0.73850991E+03</rscale>
<asrwt>0</asrwt>
<pdfrwt beam="1">  1       21 0.17258627E+00 0.73875047E+03</pdfrwt>
<pdfrwt beam="2">  1       21 0.11027989E+00 0.73875047E+03</pdfrwt>
<totfact> 0.94198941E+01</totfact>
</mgrwt>
</event>
<event>
 6    1  0.9190795E-004  0.4606657E+03  0.7818608E-02  0.1024796E+00
         21   -1    0    0  503  502  0.00000000000E+00  0.00000000000E+00  0.41431880450E+03  0.41431880450E+03  0.00000000000E+00 0. -1.
         21   -1    0    0  501  503 -0.00000000000E+00 -0.00000000000E+00 -0.50905203762E+03  0.50905203762E+03  0.00000000000E+00 0.  1.
    9000007    2    1    2  501    0 -0.21127349977E+03  0.87042587617E+02 -0.50354473230E+02  0.46057242154E+03  0.39670956473E+03 0.  0.
    9000005    1    3    3    0    0 -0.49384561105E+02  0.99151298395E+02  0.16015779189E+03  0.19473400614E+03  0.99999687468E+00 0.  0.
          4    1    3    3  501    0 -0.16188893867E+03 -0.12108710778E+02 -0.21051226512E+03  0.26583841541E+03  0.00000000000E+00 0.  1.
   -9000007    1    1    2    0  502  0.21127349977E+03 -0.87042587617E+02 -0.44378759890E+02  0.46279842058E+03  0.40000000000E+03 0. -1.
<mgrwt>
<rscale>  2 0.45995050E+03</rscale>
<asrwt>0</asrwt>
<pdfrwt beam="1">  1       21 0.63741355E-01 0.46066572E+03</pdfrwt>
<pdfrwt beam="2">  1       21 0.78315698E-01 0.46066572E+03</pdfrwt>
<totfact> 0.28438272E+03</totfact>
</mgrwt>
</event>
<event>
 6    1  0.9190795E-004  0.4540121E+03  0.7818608E-02  0.1027010E+00
         21   -1    0    0  503  502  0.00000000000E+00  0.00000000000E+00  0.33338527932E+03  0.33338527932E+03  0.00000000000E+00 0.  1.
         21   -1    0    0  501  503 -0.00000000000E+00 -0.00000000000E+00 -0.61937462786E+03  0.61937462786E+03  0.00000000000E+00 0.  1.
    9000007    2    1    2  501    0  0.10501478184E+03  0.18734692991E+03 -0.82039450191E+02  0.45504258019E+03  0.39269110232E+03 0.  0.
    9000005    1    3    3    0    0  0.55035797638E+02  0.61459170424E+01 -0.21679729543E+03  0.22376053856E+03  0.99999687468E+00 0.  0.
          4    1    3    3  501    0  0.49978984199E+02  0.18120101287E+03  0.13475784524E+03  0.23128204163E+03  0.00000000000E+00 0.  1.
   -9000007    1    1    2    0  502 -0.10501478184E+03 -0.18734692991E+03 -0.20394989835E+03  0.49771732699E+03  0.40000000000E+03 0.  1.
<mgrwt>
<rscale>  2 0.45239698E+03</rscale>
<asrwt>0</asrwt>
<pdfrwt beam="1">  1       21 0.51290043E-01 0.45401209E+03</pdfrwt>
<pdfrwt beam="2">  1       21 0.95288404E-01 0.45401209E+03</pdfrwt>
<totfact> 0.28843710E+03</totfact>
</mgrwt>
</event>
<event>
 6    1  0.9190795E-004  0.4180048E+03  0.7818608E-02  0.1037744E+00
         21   -1    0    0  503  502  0.00000000000E+00  0.00000000000E+00  0.14437205839E+04  0.14437205839E+04  0.00000000000E+00 0. -1.
         21   -1    0    0  501  503 -0.00000000000E+00 -0.00000000000E+00 -0.22349136603E+03  0.22349136603E+03  0.00000000000E+00 0. -1.
    9000007    2    1    2  501    0  0.26568169973E+02 -0.11728415510E+03  0.45545351004E+02  0.42047876767E+03  0.40033307928E+03 0.  0.
    9000005    1    3    3    0    0  0.21955438408E+02  0.11653696177E+03 -0.91167331895E+02  0.14958404706E+03  0.99999687468E+00 0.  0.
          4    1    3    3  501    0  0.46127315648E+01 -0.23382111687E+03  0.13671268290E+03  0.27089472061E+03  0.00000000000E+00 0.  1.
   -9000007    1    1    2    0  502 -0.26568169973E+02  0.11728415510E+03  0.11746838668E+04  0.12467331822E+04  0.40000000000E+03 0. -1.
<mgrwt>
<rscale>  2 0.41792503E+03</rscale>
<asrwt>0</asrwt>
<pdfrwt beam="1">  1       21 0.22211085E+00 0.41800480E+03</pdfrwt>
<pdfrwt beam="2">  1       21 0.34383288E-01 0.41800480E+03</pdfrwt>
<totfact> 0.66531392E+02</totfact>
</mgrwt>
</event>
<event>
 6    1  0.9190795E-004  0.4118792E+03  0.7818608E-02  0.1039811E+00
         21   -1    0    0  503  502  0.00000000000E+00  0.00000000000E+00  0.53904016115E+03  0.53904016115E+03  0.00000000000E+00 0. -1.
         21   -1    0    0  501  503 -0.00000000000E+00 -0.00000000000E+00 -0.35721650505E+03  0.35721650505E+03  0.00000000000E+00 0. -1.
    9000007    2    1    2  501    0 -0.60098374211E+02  0.73188841176E+02  0.24670155582E+03  0.48011058256E+03  0.40084422509E+03 0.  0.
    9000005    1    3    3    0    0 -0.55696891525E+02  0.34572859440E+02 -0.10634522545E+03  0.12493091413E+03  0.99999687468E+00 0.  0.
          4    1    3    3  501    0 -0.44014826864E+01  0.38615981736E+02  0.35304678127E+03  0.35517966843E+03  0.00000000000E+00 0.  1.
   -9000007    1    1    2    0  502  0.60098374211E+02 -0.73188841176E+02 -0.64877899720E+02  0.41614608364E+03  0.40000000000E+03 0. -1.
<mgrwt>
<rscale>  2 0.41167370E+03</rscale>
<asrwt>0</asrwt>
<pdfrwt beam="1">  1       21 0.82929255E-01 0.41187925E+03</pdfrwt>
<pdfrwt beam="2">  1       21 0.54956385E-01 0.41187925E+03</pdfrwt>
<totfact> 0.35061457E+03</totfact>
</mgrwt>
</event>
<event>
 6    1  0.9190795E-004  0.4378734E+03  0.7818608E-02  0.1031432E+00
         21   -1    0    0  503  502  0.00000000000E+00  0.00000000000E+00  0.40971082943E+03  0.40971082943E+03  0.00000000000E+00 0.  1.
         21   -1    0    0  501  503 -0.00000000000E+00 -0.00000000000E+00 -0.12074702542E+04  0.12074702542E+04  0.00000000000E+00 0. -1.
    9000007    2    1    2  501    0 -0.45615165397E+02  0.17119636750E+03 -0.10319180156E+04  0.11209763021E+04  0.40042994314E+03 0.  0.
    9000005    1    3    3    0    0 -0.21181078412E+03  0.16921515838E+03 -0.61190080870E+03  0.66926913702E+03  0.99999687468E+00 0.  0.
          4    1    3    3  501    0  0.16619561873E+03  0.19812091243E+01 -0.42001720690E+03  0.45170716506E+03  0.00000000000E+00 0.  1.
   -9000007    1    1    2    0  502  0.45615165397E+02 -0.17119636750E+03  0.23415859083E+03  0.49620478154E+03  0.40000000000E+03 0.  1.
<mgrwt>
<rscale>  2 0.43777504E+03</rscale>
<asrwt>0</asrwt>
<pdfrwt beam="1">  1       21 0.63032436E-01 0.43787336E+03</pdfrwt>
<pdfrwt beam="2">  1       21 0.18576465E+00 0.43787336E+03</pdfrwt>
<totfact> 0.31945326E+02</totfact>
</mgrwt>
</event>
<event>
 6    1  0.9190795E-004  0.8013844E+03  0.7818608E-02  0.9558238E-01
         21   -1    0    0  503  502  0.00000000000E+00  0.00000000000E+00  0.26383098654E+03  0.26383098654E+03  0.00000000000E+00 0. -1.
         21   -1    0    0  501  503 -0.00000000000E+00 -0.00000000000E+00 -0.25389444098E+04  0.25389444098E+04  0.00000000000E+00 0. -1.
    9000007    2    1    2  501    0 -0.35784452227E+03  0.59428611792E+03 -0.14251531600E+04  0.16350163710E+04  0.40123348808E+03 0.  0.
    9000005    1    3    3    0    0 -0.15132758683E+03  0.53879236038E+03 -0.12022520873E+04  0.13261253061E+04  0.99999687468E+00 0.  0.
          4    1    3    3  501    0 -0.20651693544E+03  0.55493757541E+02 -0.22290107264E+03  0.30889106483E+03  0.00000000000E+00 0.  1.
   -9000007    1    1    2    0  502  0.35784452227E+03 -0.59428611792E+03 -0.84996026326E+03  0.11677590253E+04  0.40000000000E+03 0. -1.
<mgrwt>
<rscale>  2 0.80123017E+03</rscale>
<asrwt>0</asrwt>
<pdfrwt beam="1">  1       21 0.40589382E-01 0.80138443E+03</pdfrwt>
<pdfrwt beam="2">  1       21 0.39060683E+00 0.80138443E+03</pdfrwt>
<totfact> 0.35914347E+01</totfact>
</mgrwt>
</event>
<event>
 6    1  0.9190795E-004  0.4209237E+03  0.7818608E-02  0.1036797E+00
         21   -1    0    0  503  502  0.00000000000E+00  0.00000000000E+00  0.27385895742E+03  0.27385895742E+03  0.00000000000E+00 0.  1.
         21   -1    0    0  501  503 -0.00000000000E+00 -0.00000000000E+00 -0.81566690807E+03  0.81566690807E+03  0.00000000000E+00 0.  1.
    9000007    2    1    2  501    0  0.20239251273E+02 -0.12824823011E+03 -0.22823159482E+02  0.42154199646E+03  0.40039920373E+03 0.  0.
    9000005    1    3    3    0    0 -0.28131654694E+02  0.10001936250E+03 -0.12861586033E+03  0.16534298410E+03  0.99999687468E+00 0.  0.
          4    1    3    3  501    0  0.48370905967E+02 -0.22826759260E+03  0.10579270085E+03  0.25619901235E+03  0.00000000000E+00 0.  1.
   -9000007    1    1    2    0  502 -0.20239251273E+02  0.12824823011E+03 -0.51898479117E+03  0.66798386903E+03  0.40000000000E+03 0.  1.
<mgrwt>
<rscale>  2 0.42082873E+03</rscale>
<asrwt>0</asrwt>
<pdfrwt beam="1">  1       21 0.42132147E-01 0.42092370E+03</pdfrwt>
<pdfrwt beam="2">  1       21 0.12548722E+00 0.42092370E+03</pdfrwt>
<totfact> 0.22318524E+03</totfact>
</mgrwt>
</event>
<event>
 6    1  0.9190795E-004  0.4773872E+03  0.7818608E-02  0.1019881E+00
         21   -1    0    0  503  502  0.00000000000E+00  0.00000000000E+00  0.28942788284E+03  0.28942788284E+03  0.00000000000E+00 0.  1.
         21   -1    0    0  501  503 -0.00000000000E+00 -0.00000000000E+00 -0.87759736687E+03  0.87759736687E+03  0.00000000000E+00 0.  1.
    9000007    2    1    2  501    0 -0.16492849548E+03  0.20173539100E+03 -0.10630293290E+03  0.48872299429E+03  0.39956385598E+03 0.  0.
    9000005    1    3    3    0    0 -0.15744848163E+03  0.29247550930E+03 -0.17427017833E+03  0.37510404284E+03  0.99999687468E+00 0.  0.
          4    1    3    3  501    0 -0.74800138469E+01 -0.90740118301E+02  0.67967245431E+02  0.11361895145E+03  0.00000000000E+00 0.  1.
   -9000007    1    1    2    0  502  0.16492849548E+03 -0.20173539100E+03 -0.48186655113E+03  0.67830225541E+03  0.40000000000E+03 0.  1.
<mgrwt>
<rscale>  2 0.47729587E+03</rscale>
<asrwt>0</asrwt>
<pdfrwt beam="1">  1       21 0.44527366E-01 0.47738724E+03</pdfrwt>
<pdfrwt beam="2">  1       21 0.13501498E+00 0.47738724E+03</pdfrwt>
<totfact> 0.16090269E+03</totfact>
</mgrwt>
</event>
<event>
 6    1  0.9190795E-004  0.4786382E+03  0.7818608E-02  0.1019518E+00
         21   -1    0    0  503  502  0.00000000000E+00  0.00000000000E+00  0.36346102381E+03  0.36346102381E+03  0.00000000000E+00 0. -1.
         21   -1    0    0  501  503 -0.00000000000E+00 -0.00000000000E+00 -0.89768056250E+03  0.89768056250E+03  0.00000000000E+00 0. -1.
    9000007    2    1    2  501    0  0.25097160013E+03 -0.78152017006E+02 -0.61131308465E+03  0.77633451472E+03  0.39987136612E+03 0.  0.
    9000005    1    3    3    0    0  0.12745935224E+03 -0.23027229518E+03 -0.45514984631E+03  0.52576953030E+03  0.99999687468E+00 0.  0.
          4    1    3    3  501    0  0.12351224789E+03  0.15212027817E+03 -0.15616323834E+03  0.25056498442E+03  0.00000000000E+00 0.  1.
   -9000007    1    1    2    0  502 -0.25097160013E+03  0.78152017006E+02  0.77093545954E+02  0.48480707159E+03  0.40000000000E+03 0. -1.
<mgrwt>
<rscale>  2 0.47861128E+03</rscale>
<asrwt>0</asrwt>
<pdfrwt beam="1">  1       21 0.55917081E-01 0.47863815E+03</pdfrwt>
<pdfrwt beam="2">  1       21 0.13810470E+00 0.47863815E+03</pdfrwt>
<totfact> 0.93269811E+02</totfact>
</mgrwt>
</event>
<event>
 6    1  0.9190795E-004  0.4594586E+03  0.7818608E-02  0.1025148E+00
         21   -1    0    0  503  502  0.00000000000E+00  0.00000000000E+00  0.19452522096E+04  0.19452522096E+04  0.00000000000E+00 0. -1.
         21   -1    0    0  501  503 -0.00000000000E+00 -0.00000000000E+00 -0.11108105082E+03  0.11108105082E+03  0.00000000000E+00 0. -1.
    9000007    2    1    2  501    0 -0.19287090692E+03 -0.11791106950E+03  0.73878684136E+03  0.86849109502E+03  0.39669708609E+03 0.  0.
    9000005    1    3    3    0    0 -0.73883709737E+02  0.14647211768E+03  0.22360195853E+03  0.27732962278E+03  0.99999687468E+00 0.  0.
          4    1    3    3  501    0 -0.11898719719E+03 -0.26438318718E+03  0.51518488284E+03  0.59116147224E+03  0.00000000000E+00 0.  1.
   -9000007    1    1    2    0  502  0.19287090692E+03  0.11791106950E+03  0.10953843174E+04  0.11878421654E+04  0.40000000000E+03 0.  1.
<mgrwt>
<rscale>  2 0.45873876E+03</rscale>
<asrwt>0</asrwt>
<pdfrwt beam="1">  1       21 0.29926955E+00 0.45945860E+03</pdfrwt>
<pdfrwt beam="2">  1       21 0.17089394E-01 0.45945860E+03</pdfrwt>
<totfact> 0.85341099E+02</totfact>
</mgrwt>
</event>
<event>
 6    1  0.9190795E-004  0.5199909E+03  0.7818608E-02  0.1008739E+00
         21   -1    0    0  503  502  0.00000000000E+00  0.00000000000E+00  0.52925095606E+03  0.52925095606E+03  0.00000000000E+00 0. -1.
         21   -1    0    0  501  503 -0.00000000000E+00 -0.00000000000E+00 -0.57455808169E+03  0.57455808169E+03  0.00000000000E+00 0.  1.
    9000007    2    1    2  501    0  0.28762829319E+03 -0.16377557913E+03  0.16218657690E+03  0.54469714202E+03  0.40104615126E+03 0.  0.
    9000005    1    3    3    0    0  0.21034805458E+02 -0.20749543949E+03  0.17784030906E+03  0.27408939412E+03  0.99999687468E+00 0.  0.
          4    1    3    3  501    0  0.26659348773E+03  0.43719860367E+02 -0.15653732165E+02  0.27060774790E+03  0.00000000000E+00 0.  1.
   -9000007    1    1    2    0  502 -0.28762829319E+03  0.16377557913E+03 -0.20749370253E+03  0.55911189573E+03  0.40000000000E+03 0. -1.
<mgrwt>
<rscale>  2 0.51978913E+03</rscale>
<asrwt>0</asrwt>
<pdfrwt beam="1">  1       21 0.81423224E-01 0.51999086E+03</pdfrwt>
<pdfrwt beam="2">  1       21 0.88393551E-01 0.51999086E+03</pdfrwt>
<totfact> 0.12050048E+03</totfact>
</mgrwt>
</event>
<event>
 6    1  0.9190795E-004  0.4418980E+03  0.7818608E-02  0.1030196E+00
         21   -1    0    0  503  502  0.00000000000E+00  0.00000000000E+00  0.25245278078E+03  0.25245278078E+03  0.00000000000E+00 0.  1.
         21   -1    0    0  501  503 -0.00000000000E+00 -0.00000000000E+00 -0.12126898702E+04  0.12126898702E+04  0.00000000000E+00 0.  1.
    9000007    2    1    2  501    0 -0.18626000182E+03 -0.15254216397E+02 -0.92145864314E+03  0.10219392583E+04  0.40043518473E+03 0.  0.
    9000005    1    3    3    0    0 -0.14891036980E+03  0.17089030090E+03 -0.32684563525E+03  0.39775226266E+03  0.99999687468E+00 0.  0.
          4    1    3    3  501    0 -0.37349632018E+02 -0.18614451730E+03 -0.59461300789E+03  0.62418699561E+03  0.00000000000E+00 0.  1.
   -9000007    1    1    2    0  502  0.18626000182E+03  0.15254216397E+02 -0.38778446249E+02  0.44320339269E+03  0.40000000000E+03 0.  1.
<mgrwt>
<rscale>  2 0.44179936E+03</rscale>
<asrwt>0</asrwt>
<pdfrwt beam="1">  1       21 0.38838889E-01 0.44189797E+03</pdfrwt>
<pdfrwt beam="2">  1       21 0.18656768E+00 0.44189797E+03</pdfrwt>
<totfact> 0.88097242E+02</totfact>
</mgrwt>
</event>
<event>
 6    1  0.9190795E-004  0.4623110E+03  0.7818608E-02  0.1024134E+00
         21   -1    0    0  503  502  0.00000000000E+00  0.00000000000E+00  0.48374337391E+03  0.48374337391E+03  0.00000000000E+00 0.  1.
         21   -1    0    0  501  503 -0.00000000000E+00 -0.00000000000E+00 -0.93994477461E+03  0.93994477461E+03  0.00000000000E+00 0.  1.
    9000007    2    1    2  501    0 -0.21834642749E+02 -0.23076985609E+03 -0.74641358525E+03  0.87783597973E+03  0.39966397007E+03 0.  0.
    9000005    1    3    3    0    0 -0.14648906430E+03 -0.28430792151E+03 -0.58728398155E+03  0.66872529126E+03  0.99999687468E+00 0.  0.
          4    1    3    3  501    0  0.12465442155E+03  0.53538065422E+02 -0.15912960370E+03  0.20911068847E+03  0.00000000000E+00 0.  1.
   -9000007    1    1    2    0  502  0.21834642749E+02  0.23076985609E+03  0.29021218455E+03  0.54585216878E+03  0.40000000000E+03 0.  1.
<mgrwt>
<rscale>  2 0.46223832E+03</rscale>
<asrwt>0</asrwt>
<pdfrwt beam="1">  1       21 0.74422058E-01 0.46231102E+03</pdfrwt>
<pdfrwt beam="2">  1       21 0.14460689E+00 0.46231102E+03</pdfrwt>
<totfact> 0.44001188E+02</totfact>
</mgrwt>
</event>
<event>
 6    1  0.9190795E-004  0.4150990E+03  0.7818608E-02  0.1038682E+00
         21   -1    0    0  503  502  0.00000000000E+00  0.00000000000E+00  0.48184150576E+03  0.48184150576E+03  0.00000000000E+00 0.  1.
         21   -1    0    0  501  503 -0.00000000000E+00 -0.00000000000E+00 -0.88229114175E+03  0.88229114175E+03  0.00000000000E+00 0.  1.
    9000007    2    1    2  501    0  0.50420915646E+02  0.98817659586E+02 -0.72624426486E+03  0.83644965671E+03  0.39988760593E+03 0.  0.
    9000005    1    3    3    0    0 -0.19255411795E+02 -0.15088057578E+03 -0.32364615022E+03  0.35760809495E+03  0.99999687468E+00 0.  0.
          4    1    3    3  501    0  0.69676327440E+02  0.24969823536E+03 -0.40259811464E+03  0.47884156175E+03  0.00000000000E+00 0.  1.
   -9000007    1    1    2    0  502 -0.50420915646E+02 -0.98817659586E+02  0.32579462887E+03  0.52768299080E+03  0.40000000000E+03 0.  1.
<mgrwt>
<rscale>  2 0.41507194E+03</rscale>
<asrwt>0</asrwt>
<pdfrwt beam="1">  1       21 0.74129463E-01 0.41509902E+03</pdfrwt>
<pdfrwt beam="2">  1       21 0.13573710E+00 0.41509902E+03</pdfrwt>
<totfact> 0.53719871E+02</totfact>
</mgrwt>
</event>
<event>
 6    1  0.9190795E-004  0.6193737E+03  0.7818608E-02  0.9866068E-01
         21   -1    0    0  503  502  0.00000000000E+00  0.00000000000E+00  0.84698368137E+03  0.84698368137E+03  0.00000000000E+00 0.  1.
         21   -1    0    0  501  503 -0.00000000000E+00 -0.00000000000E+00 -0.80744593898E+03  0.80744593898E+03  0.00000000000E+00 0. -1.
    9000007    2    1    2  501    0 -0.37208433969E+03  0.29185113430E+03 -0.52842581820E+03  0.81406871777E+03  0.39981269551E+03 0.  0.
    9000005    1    3    3    0    0 -0.17634322865E+03  0.15828169509E+03 -0.52619226404E+03  0.57708693281E+03  0.99999687468E+00 0.  0.
          4    1    3    3  501    0 -0.19574111103E+03  0.13356943921E+03 -0.22335541570E+01  0.23698178496E+03  0.00000000000E+00 0.  1.
   -9000007    1    1    2    0  502  0.37208433969E+03 -0.29185113430E+03  0.56796356058E+03  0.84036090258E+03  0.40000000000E+03 0.  1.
<mgrwt>
<rscale>  2 0.61934351E+03</rscale>
<asrwt>0</asrwt>
<pdfrwt beam="1">  1       21 0.13030518E+00 0.61937375E+03</pdfrwt>
<pdfrwt beam="2">  1       21 0.12422245E+00 0.61937375E+03</pdfrwt>
<totfact> 0.15740284E+02</totfact>
</mgrwt>
</event>
<event>
 6    1  0.9190795E-004  0.4293442E+03  0.7818608E-02  0.1034134E+00
         21   -1    0    0  503  502  0.00000000000E+00  0.00000000000E+00  0.53018783077E+03  0.53018783077E+03  0.00000000000E+00 0. -1.
         21   -1    0    0  501  503 -0.00000000000E+00 -0.00000000000E+00 -0.51151701097E+03  0.51151701097E+03  0.00000000000E+00 0. -1.
    9000007    2    1    2  501    0 -0.13858765528E+03  0.66370094694E+02 -0.28604666611E+03  0.51590614083E+03  0.40090513003E+03 0.  0.
    9000005    1    3    3    0    0 -0.81961175072E+02 -0.70032803276E+01 -0.37710626912E+03  0.38597515251E+03  0.99999687468E+00 0.  0.
          4    1    3    3  501    0 -0.56626480208E+02  0.73373375021E+02  0.91059603015E+02  0.12993098831E+03  0.00000000000E+00 0.  1.
   -9000007    1    1    2    0  502  0.13858765528E+03 -0.66370094694E+02  0.30471748590E+03  0.52579870091E+03  0.40000000000E+03 0. -1.
<mgrwt>
<rscale>  2 0.42913279E+03</rscale>
<asrwt>0</asrwt>
<pdfrwt beam="1">  1       21 0.81567359E-01 0.42934421E+03</pdfrwt>
<pdfrwt beam="2">  1       21 0.78694925E-01 0.42934421E+03</pdfrwt>
<totfact> 0.16280208E+03</totfact>
</mgrwt>
</event>
<event>
 6    1  0.9190795E-004  0.4761018E+03  0.7818608E-02  0.1020220E+00
         21   -1    0    0  503  502  0.00000000000E+00  0.00000000000E+00  0.21186048163E+03  0.21186048163E+03  0.00000000000E+00 0. -1.
         21   -1    0    0  501  503 -0.00000000000E+00 -0.00000000000E+00 -0.10918710957E+04  0.10918710957E+04  0.00000000000E+00 0.  1.
    9000007    2    1    2  501    0 -0.24784454169E+03 -0.71640817480E+02 -0.53305762154E+03  0.71471909647E+03  0.40014201904E+03 0.  0.
    9000005    1    3    3    0    0 -0.23545342176E+03 -0.26330262105E+02 -0.66881567470E+02  0.24618233199E+03  0.99999687468E+00 0.  0.
          4    1    3    3  501    0 -0.12391119929E+02 -0.45310555374E+02 -0.46617605407E+03  0.46853676449E+03  0.00000000000E+00 0.  1.
   -9000007    1    1    2    0  502  0.24784454169E+03  0.71640817480E+02 -0.34695299253E+03  0.58901248085E+03  0.40000000000E+03 0.  1.
<mgrwt>
<rscale>  2 0.47607200E+03</rscale>
<asrwt>0</asrwt>
<pdfrwt beam="1">  1       21 0.32593920E-01 0.47610184E+03</pdfrwt>
<pdfrwt beam="2">  1       21 0.16798017E+00 0.47610184E+03</pdfrwt>
<totfact> 0.16801753E+03</totfact>
</mgrwt>
</event>
<event>
 6    1  0.9190795E-004  0.4280882E+03  0.7818608E-02  0.1034483E+00
         21   -1    0    0  503  502  0.00000000000E+00  0.00000000000E+00  0.26014594205E+03  0.26014594205E+03  0.00000000000E+00 0.  1.
         21   -1    0    0  501  503 -0.00000000000E+00 -0.00000000000E+00 -0.15238527637E+04  0.15238527637E+04  0.00000000000E+00 0.  1.
    9000007    2    1    2  501    0  0.12598604511E+03 -0.84858187989E+02 -0.12861671723E+04  0.13555388325E+04  0.40023260195E+03 0.  0.
    9000005    1    3    3    0    0  0.10635354698E+03  0.21570733544E+02 -0.58838297414E+02  0.12344763560E+03  0.99999687468E+00 0.  0.
          4    1    3    3  501    0  0.19632498134E+02 -0.10642892153E+03 -0.12273288749E+04  0.12320911969E+04  0.00000000000E+00 0.  1.
   -9000007    1    1    2    0  502 -0.12598604511E+03  0.84858187989E+02  0.22460350653E+02  0.42845987325E+03  0.40000000000E+03 0.  1.
<mgrwt>
<rscale>  2 0.42803385E+03</rscale>
<asrwt>0</asrwt>
<pdfrwt beam="1">  1       21 0.40022452E-01 0.42808823E+03</pdfrwt>
<pdfrwt beam="2">  1       21 0.23443889E+00 0.42808823E+03</pdfrwt>
<totfact> 0.40624895E+02</totfact>
</mgrwt>
</event>
<event>
 6    1  0.9190795E-004  0.5562373E+03  0.7818608E-02  0.1000088E+00
         21   -1    0    0  503  502  0.00000000000E+00  0.00000000000E+00  0.85802475549E+03  0.85802475549E+03  0.00000000000E+00 0. -1.
         21   -1    0    0  501  503 -0.00000000000E+00 -0.00000000000E+00 -0.36306356100E+03  0.36306356100E+03  0.00000000000E+00 0. -1.
    9000007    2    1    2  501    0 -0.33506417045E+03 -0.19269655341E+03  0.19391800731E+03  0.58861147062E+03  0.39932356525E+03 0.  0.
    9000005    1    3    3    0    0 -0.34452402233E+03 -0.74711673736E+02 -0.10174509285E+02  0.35267996369E+03  0.99999687468E+00 0.  0.
          4    1    3    3  501    0  0.94598518797E+01 -0.11798487967E+03  0.20409251659E+03  0.23593150692E+03  0.00000000000E+00 0.  1.
   -9000007    1    1    2    0  502  0.33506417045E+03  0.19269655341E+03  0.30104318718E+03  0.63247684587E+03  0.40000000000E+03 0. -1.
<mgrwt>
<rscale>  2 0.55611572E+03</rscale>
<asrwt>0</asrwt>
<pdfrwt beam="1">  1       21 0.13200381E+00 0.55623732E+03</pdfrwt>
<pdfrwt beam="2">  1       21 0.55855933E-01 0.55623732E+03</pdfrwt>
<totfact> 0.10236791E+03</totfact>
</mgrwt>
</event>
<event>
 6    1  0.9190795E-004  0.6282156E+03  0.7818608E-02  0.9848682E-01
         21   -1    0    0  503  502  0.00000000000E+00  0.00000000000E+00  0.93450133694E+03  0.93450133694E+03  0.00000000000E+00 0. -1.
         21   -1    0    0  501  503 -0.00000000000E+00 -0.00000000000E+00 -0.62321255578E+03  0.62321255578E+03  0.00000000000E+00 0. -1.
    9000007    2    1    2  501    0 -0.48402272290E+03  0.24916575435E+01 -0.28675634944E+03  0.69056789414E+03  0.40046299184E+03 0.  0.
    9000005    1    3    3    0    0 -0.22141139159E+03  0.10358958865E+03  0.52268472068E+02  0.24997359935E+03  0.99999687468E+00 0.  0.
          4    1    3    3  501    0 -0.26261133130E+03 -0.10109793111E+03 -0.33902482150E+03  0.44059429479E+03  0.00000000000E+00 0.  1.
   -9000007    1    1    2    0  502  0.48402272290E+03 -0.24916575435E+01  0.59804513059E+03  0.86714599858E+03  0.40000000000E+03 0. -1.
<mgrwt>
<rscale>  2 0.62814181E+03</rscale>
<asrwt>0</asrwt>
<pdfrwt beam="1">  1       21 0.14376944E+00 0.62821558E+03</pdfrwt>
<pdfrwt beam="2">  1       21 0.95878855E-01 0.62821558E+03</pdfrwt>
<totfact> 0.23086312E+02</totfact>
</mgrwt>
</event>
<event>
 6    1  0.9190795E-004  0.5129881E+03  0.7818608E-02  0.1010474E+00
         21   -1    0    0  503  502  0.00000000000E+00  0.00000000000E+00  0.45476504002E+03  0.45476504002E+03  0.00000000000E+00 0. -1.
         21   -1    0    0  501  503 -0.00000000000E+00 -0.00000000000E+00 -0.91984942314E+03  0.91984942314E+03  0.00000000000E+00 0. -1.
    9000007    2    1    2  501    0  0.14370559927E+03 -0.28723772667E+03  0.18644382848E+03  0.54537033663E+03  0.39938789668E+03 0.  0.
    9000005    1    3    3    0    0  0.25971898122E+03 -0.28062508579E+03  0.19430052446E+03  0.42890334783E+03  0.99999687468E+00 0.  0.
          4    1    3    3  501    0 -0.11601338194E+03 -0.66126408842E+01 -0.78566959826E+01  0.11646698880E+03  0.00000000000E+00 0.  1.
   -9000007    1    1    2    0  502 -0.14370559927E+03  0.28723772667E+03 -0.65152821160E+03  0.82924412653E+03  0.40000000000E+03 0. -1.
<mgrwt>
<rscale>  2 0.51286879E+03</rscale>
<asrwt>0</asrwt>
<pdfrwt beam="1">  1       21 0.69963853E-01 0.51298812E+03</pdfrwt>
<pdfrwt beam="2">  1       21 0.14151529E+00 0.51298812E+03</pdfrwt>
<totfact> 0.52501390E+02</totfact>
</mgrwt>
</event>
<event>
 6    1  0.9190795E-004  0.4667749E+03  0.7818608E-02  0.1022849E+00
         21   -1    0    0  503  502  0.00000000000E+00  0.00000000000E+00  0.17782256959E+03  0.17782256959E+03  0.00000000000E+00 0.  1.
         21   -1    0    0  501  503 -0.00000000000E+00 -0.00000000000E+00 -0.20170898964E+04  0.20170898964E+04  0.00000000000E+00 0. -1.
    9000007    2    1    2  501    0  0.21563865096E+03  0.10580064248E+03 -0.16075856666E+04  0.16739804211E+04  0.40023114695E+03 0.  0.
    9000005    1    3    3    0    0  0.21623749939E+03 -0.78352499347E+01 -0.35148710025E+03  0.41275201867E+03  0.99999687468E+00 0.  0.
          4    1    3    3  501    0 -0.59884843385E+00  0.11363589241E+03 -0.12560985664E+04  0.12612284024E+04  0.00000000000E+00 0.  1.
   -9000007    1    1    2    0  502 -0.21563865096E+03 -0.10580064248E+03 -0.23168166020E+03  0.52093204491E+03  0.40000000000E+03 0.  1.
<mgrwt>
<rscale>  2 0.46672531E+03</rscale>
<asrwt>0</asrwt>
<pdfrwt beam="1">  1       21 0.27357317E-01 0.46677487E+03</pdfrwt>
<pdfrwt beam="2">  1       21 0.31032154E+00 0.46677487E+03</pdfrwt>
<totfact> 0.29549211E+02</totfact>
</mgrwt>
</event>
<event>
 6    1  0.9190795E-004  0.4217793E+03  0.7818608E-02  0.1036583E+00
         21   -1    0    0  503  502  0.00000000000E+00  0.00000000000E+00  0.10960272771E+04  0.10960272771E+04  0.00000000000E+00 0. -1.
         21   -1    0    0  501  503 -0.00000000000E+00 -0.00000000000E+00 -0.17829496515E+03  0.17829496515E+03  0.00000000000E+00 0. -1.
    9000007    2    1    2  501    0  0.70081393962E+02  0.10958331249E+03  0.65285828253E+03  0.77725267408E+03  0.40122048570E+03 0.  0.
    9000005    1    3    3    0    0  0.56371190642E+02  0.18400552154E+03  0.95612115744E+02  0.21489164656E+03  0.99999687468E+00 0.  0.
          4    1    3    3  501    0  0.13710203320E+02 -0.74422209049E+02  0.55724616678E+03  0.56236102752E+03  0.00000000000E+00 0.  1.
   -9000007    1    1    2    0  502 -0.70081393962E+02 -0.10958331249E+03  0.26487402947E+03  0.49706956821E+03  0.40000000000E+03 0. -1.
<mgrwt>
<rscale>  2 0.42148880E+03</rscale>
<asrwt>0</asrwt>
<pdfrwt beam="1">  1       21 0.16861958E+00 0.42177931E+03</pdfrwt>
<pdfrwt beam="2">  1       21 0.27429995E-01 0.42177931E+03</pdfrwt>
<totfact> 0.23937944E+03</totfact>
</mgrwt>
</event>
<event>
 6    1  0.9190795E-004  0.4106864E+03  0.7818608E-02  0.1040143E+00
         21   -1    0    0  503  502  0.00000000000E+00  0.00000000000E+00  0.31575931307E+03  0.31575931307E+03  0.00000000000E+00 0. -1.
         21   -1    0    0  501  503 -0.00000000000E+00 -0.00000000000E+00 -0.53648646777E+03  0.53648646777E+03  0.00000000000E+00 0. -1.
    9000007    2    1    2  501    0 -0.49076154577E+02 -0.79087593916E+02 -0.13862707453E+03  0.43343348443E+03  0.39997975345E+03 0.  0.
    9000005    1    3    3    0    0 -0.87706850865E+02 -0.85485990789E+02 -0.26992912392E+03  0.29641706807E+03  0.99999687468E+00 0.  0.
          4    1    3    3  501    0  0.38630696288E+02  0.63983968735E+01  0.13130204939E+03  0.13701641636E+03  0.00000000000E+00 0.  1.
   -9000007    1    1    2    0  502  0.49076154577E+02  0.79087593916E+02 -0.82100080161E+02  0.41881229641E+03  0.40000000000E+03 0.  1.
<mgrwt>
<rscale>  2 0.41068147E+03</rscale>
<asrwt>0</asrwt>
<pdfrwt beam="1">  1       21 0.48578356E-01 0.41068640E+03</pdfrwt>
<pdfrwt beam="2">  1       21 0.82536379E-01 0.41068640E+03</pdfrwt>
<totfact> 0.46145129E+03</totfact>
</mgrwt>
</event>
<event>
 6    1  0.9190795E-004  0.4230877E+03  0.7818608E-02  0.1036086E+00
         21   -1    0    0  503  502  0.00000000000E+00  0.00000000000E+00  0.15505829697E+03  0.15505829697E+03  0.00000000000E+00 0.  1.
         21   -1    0    0  501  503 -0.00000000000E+00 -0.00000000000E+00 -0.15154544097E+04  0.15154544097E+04  0.00000000000E+00 0. -1.
    9000007    2    1    2  501    0 -0.10487105926E+03 -0.89471993413E+02 -0.10881093683E+04  0.11673792772E+04  0.39973641667E+03 0.  0.
    9000005    1    3    3    0    0  0.12801572789E+03 -0.62275512155E+02 -0.69685118346E+03  0.71124456966E+03  0.99999687468E+00 0.  0.
          4    1    3    3  501    0 -0.23288678715E+03 -0.27196481258E+02 -0.39125818482E+03  0.45613470752E+03  0.00000000000E+00 0.  1.
   -9000007    1    1    2    0  502  0.10487105926E+03  0.89471993413E+02 -0.27228674451E+03  0.50313342953E+03  0.40000000000E+03 0.  1.
<mgrwt>
<rscale>  2 0.42302536E+03</rscale>
<asrwt>0</asrwt>
<pdfrwt beam="1">  1       21 0.23855123E-01 0.42308767E+03</pdfrwt>
<pdfrwt beam="2">  1       21 0.23314683E+00 0.42308767E+03</pdfrwt>
<totfact> 0.11635360E+03</totfact>
</mgrwt>
</event>
<event>
 6    1  0.9190795E-004  0.5592793E+03  0.7818608E-02  0.9998012E-01
         21   -1    0    0  503  502  0.00000000000E+00  0.00000000000E+00  0.77585172216E+03  0.77585172216E+03  0.00000000000E+00 0.  1.
         21   -1    0    0  501  503 -0.00000000000E+00 -0.00000000000E+00 -0.75281130738E+03  0.75281130738E+03  0.00000000000E+00 0. -1.
    9000007    2    1    2  501    0  0.24435593328E+03 -0.30509585104E+03 -0.51345644385E+03  0.75366484904E+03  0.38933261420E+03 0.  0.
    9000005    1    3    3    0    0  0.32077042423E+03 -0.10841456120E+03 -0.34782320847E+03  0.48541669366E+03  0.99999687468E+00 0.  0.
          4    1    3    3  501    0 -0.76414490942E+02 -0.19668128984E+03 -0.16563323538E+03  0.26824815538E+03  0.00000000000E+00 0.  1.
   -9000007    1    1    2    0  502 -0.24435593328E+03  0.30509585104E+03  0.53649685863E+03  0.77499818050E+03  0.40000000000E+03 0.  1.
<mgrwt>
<rscale>  2 0.55737481E+03</rscale>
<asrwt>0</asrwt>
<pdfrwt beam="1">  1       21 0.11936180E+00 0.55927927E+03</pdfrwt>
<pdfrwt beam="2">  1       21 0.11581712E+00 0.55927927E+03</pdfrwt>
<totfact> 0.24183413E+02</totfact>
</mgrwt>
</event>
<event>
 6    1  0.9190795E-004  0.4385966E+03  0.7818608E-02  0.1031191E+00
         21   -1    0    0  503  502  0.00000000000E+00  0.00000000000E+00  0.13639866519E+04  0.13639866519E+04  0.00000000000E+00 0.  1.
         21   -1    0    0  501  503 -0.00000000000E+00 -0.00000000000E+00 -0.27822546012E+03  0.27822546012E+03  0.00000000000E+00 0.  1.
    9000007    2    1    2  501    0  0.14001467531E+03  0.11297284248E+03 -0.33874937197E+02  0.43973465537E+03  0.39981506140E+03 0.  0.
    9000005    1    3    3    0    0  0.90628905929E+01  0.12774756739E+03 -0.19393283907E+03  0.23240594446E+03  0.99999687468E+00 0.  0.
          4    1    3    3  501    0  0.13095178472E+03 -0.14774724906E+02  0.16005790187E+03  0.20732871091E+03  0.00000000000E+00 0.  1.
   -9000007    1    1    2    0  502 -0.14001467531E+03 -0.11297284248E+03  0.11196361290E+04  0.12024774567E+04  0.40000000000E+03 0.  1.
<mgrwt>
<rscale>  2 0.43855442E+03</rscale>
<asrwt>0</asrwt>
<pdfrwt beam="1">  1       21 0.20984410E+00 0.43859659E+03</pdfrwt>
<pdfrwt beam="2">  1       21 0.42803918E-01 0.43859659E+03</pdfrwt>
<totfact> 0.50419950E+02</totfact>
</mgrwt>
</event>
<event>
 6    1  0.9190795E-004  0.4129647E+03  0.7818608E-02  0.1039545E+00
         21   -1    0    0  503  502  0.00000000000E+00  0.00000000000E+00  0.13863199763E+04  0.13863199763E+04  0.00000000000E+00 0. -1.
         21   -1    0    0  501  503 -0.00000000000E+00 -0.00000000000E+00 -0.13671143524E+03  0.13671143524E+03  0.00000000000E+00 0. -1.
    9000007    2    1    2  501    0  0.58280923128E+02  0.74285120583E+02  0.38001062863E+03  0.56120217803E+03  0.40202594644E+03 0.  0.
    9000005    1    3    3    0    0 -0.35529732096E+02 -0.15792391166E+03  0.13397502199E+03  0.21012527275E+03  0.99999687468E+00 0.  0.
          4    1    3    3  501    0  0.93810655224E+02  0.23220903224E+03  0.24603560664E+03  0.35107690528E+03  0.00000000000E+00 0.  1.
   -9000007    1    1    2    0  502 -0.58280923128E+02 -0.74285120583E+02  0.86959791243E+03  0.96182923352E+03  0.40000000000E+03 0. -1.
<mgrwt>
<rscale>  2 0.41247076E+03</rscale>
<asrwt>0</asrwt>
<pdfrwt beam="1">  1       21 0.21327999E+00 0.41296466E+03</pdfrwt>
<pdfrwt beam="2">  1       21 0.21032529E-01 0.41296466E+03</pdfrwt>
<totfact> 0.19907961E+03</totfact>
</mgrwt>
</event>
<event>
 6    1  0.9190795E-004  0.4229374E+03  0.7818608E-02  0.1036151E+00
         21   -1    0    0  503  502  0.00000000000E+00  0.00000000000E+00  0.14219407365E+04  0.14219407365E+04  0.00000000000E+00 0.  1.
         21   -1    0    0  501  503 -0.00000000000E+00 -0.00000000000E+00 -0.19790886232E+03  0.19790886232E+03  0.00000000000E+00 0.  1.
    9000007    2    1    2  501    0 -0.10419798940E+03 -0.89547948220E+02  0.12245442063E+03  0.43987123368E+03  0.39951916232E+03 0.  0.
    9000005    1    3    3    0    0  0.98174219764E+02 -0.12670366792E+03 -0.53663091897E+02  0.16903468377E+03  0.99999687468E+00 0.  0.
          4    1    3    3  501    0 -0.20237220916E+03  0.37155719705E+02  0.17611751252E+03  0.27083654991E+03  0.00000000000E+00 0.  1.
   -9000007    1    1    2    0  502  0.10419798940E+03  0.89547948220E+02  0.11015774535E+04  0.11799783651E+04  0.40000000000E+03 0.  1.
<mgrwt>
<rscale>  2 0.42282369E+03</rscale>
<asrwt>0</asrwt>
<pdfrwt beam="1">  1       21 0.21876011E+00 0.42293741E+03</pdfrwt>
<pdfrwt beam="2">  1       21 0.30447518E-01 0.42293741E+03</pdfrwt>
<totfact> 0.88910481E+02</totfact>
</mgrwt>
</event>
<event>
 6    1  0.9190795E-004  0.4124002E+03  0.7818608E-02  0.1039718E+00
         21   -1    0    0  503  502  0.00000000000E+00  0.00000000000E+00  0.15762615681E+03  0.15762615681E+03  0.00000000000E+00 0. -1.
         21   -1    0    0  501  503 -0.00000000000E+00 -0.00000000000E+00 -0.13787208315E+04  0.13787208315E+04  0.00000000000E+00 0. -1.
    9000007    2    1    2  501    0  0.69102116220E+02 -0.72792887424E+02 -0.97047614810E+03  0.10537668884E+04  0.39815423422E+03 0.  0.
    9000005    1    3    3    0    0  0.13320445690E+03 -0.12344604884E+03 -0.95308815363E+03  0.97023728175E+03  0.99999687468E+00 0.  0.
          4    1    3    3  501    0 -0.64102340681E+02  0.50653161421E+02 -0.17387994468E+02  0.83529606693E+02  0.00000000000E+00 0.  1.
   -9000007    1    1    2    0  502 -0.69102116220E+02  0.72792887424E+02 -0.25061852659E+03  0.48258009988E+03  0.40000000000E+03 0. -1.
<mgrwt>
<rscale>  2 0.41195194E+03</rscale>
<asrwt>0</asrwt>
<pdfrwt beam="1">  1       21 0.24250179E-01 0.41240018E+03</pdfrwt>
<pdfrwt beam="2">  1       21 0.21211089E+00 0.41240018E+03</pdfrwt>
<totfact> 0.15411412E+03</totfact>
</mgrwt>
</event>
<event>
 6    1  0.9190795E-004  0.4340896E+03  0.7818608E-02  0.1032576E+00
         21   -1    0    0  503  502  0.00000000000E+00  0.00000000000E+00  0.21830221245E+04  0.21830221245E+04  0.00000000000E+00 0. -1.
         21   -1    0    0  501  503 -0.00000000000E+00 -0.00000000000E+00 -0.96141596894E+02  0.96141596894E+02  0.00000000000E+00 0. -1.
    9000007    2    1    2  501    0  0.95059260386E+02 -0.13926657222E+03  0.14077272976E+04  0.14731360848E+04  0.40000292351E+03 0.  0.
    9000005    1    3    3    0    0  0.14767235706E+03 -0.19787097794E+03  0.13574002098E+04  0.13796725621E+04  0.99999687468E+00 0.  0.
          4    1    3    3  501    0 -0.52613096679E+02  0.58604405717E+02  0.50327087738E+02  0.93463522680E+02  0.00000000000E+00 0.  1.
   -9000007    1    1    2    0  502 -0.95059260386E+02  0.13926657222E+03  0.67915323002E+03  0.80602763661E+03  0.40000000000E+03 0. -1.
<mgrwt>
<rscale>  2 0.43408893E+03</rscale>
<asrwt>0</asrwt>
<pdfrwt beam="1">  1       21 0.33584952E+00 0.43408960E+03</pdfrwt>
<pdfrwt beam="2">  1       21 0.14791017E-01 0.43408960E+03</pdfrwt>
<totfact> 0.68166906E+02</totfact>
</mgrwt>
</event>
<event>
 6    1  0.9190795E-004  0.5413462E+03  0.7818608E-02  0.1003620E+00
         21   -1    0    0  503  502  0.00000000000E+00  0.00000000000E+00  0.16931390372E+04  0.16931390372E+04  0.00000000000E+00 0.  1.
         21   -1    0    0  501  503 -0.00000000000E+00 -0.00000000000E+00 -0.18407340006E+03  0.18407340006E+03  0.00000000000E+00 0. -1.
    9000007    2    1    2  501    0  0.22084634221E+03  0.29031462464E+03  0.51833115020E+03  0.74822593967E+03  0.39764203421E+03 0.  0.
    9000005    1    3    3    0    0  0.23653418974E+03  0.38034983041E+03  0.43986241811E+03  0.62776935515E+03  0.99999687468E+00 0.  0.
          4    1    3    3  501    0 -0.15687847529E+02 -0.90035205765E+02  0.78468732093E+02  0.12045658452E+03  0.00000000000E+00 0.  1.
   -9000007    1    1    2    0  502 -0.22084634221E+03 -0.29031462464E+03  0.99073448693E+03  0.11289864976E+04  0.40000000000E+03 0.  1.
<mgrwt>
<rscale>  2 0.54091067E+03</rscale>
<asrwt>0</asrwt>
<pdfrwt beam="1">  1       21 0.26048292E+00 0.54134618E+03</pdfrwt>
<pdfrwt beam="2">  1       21 0.28318986E-01 0.54134618E+03</pdfrwt>
<totfact> 0.53304957E+02</totfact>
</mgrwt>
</event>
<event>
 6    1  0.9190795E-004  0.4274907E+03  0.7818608E-02  0.1034857E+00
         21   -1    0    0  503  502  0.00000000000E+00  0.00000000000E+00  0.28455343795E+03  0.28455343795E+03  0.00000000000E+00 0. -1.
         21   -1    0    0  501  503 -0.00000000000E+00 -0.00000000000E+00 -0.64724026364E+03  0.64724026364E+03  0.00000000000E+00 0. -1.
    9000007    2    1    2  501    0 -0.10094584541E+03  0.11206350037E+03 -0.23513618295E+03  0.48567997363E+03  0.39730054170E+03 0.  0.
    9000005    1    3    3    0    0 -0.23977086973E+03  0.12911551437E+03 -0.20925363516E+03  0.34343699545E+03  0.99999687468E+00 0.  0.
          4    1    3    3  501    0  0.13882502432E+03 -0.17052014003E+02 -0.25882547787E+02  0.14224297817E+03  0.00000000000E+00 0.  1.
   -9000007    1    1    2    0  502  0.10094584541E+03 -0.11206350037E+03 -0.12755064274E+03  0.44611372797E+03  0.40000000000E+03 0. -1.
<mgrwt>
<rscale>  2 0.42685809E+03</rscale>
<asrwt>0</asrwt>
<pdfrwt beam="1">  1       21 0.43777452E-01 0.42749069E+03</pdfrwt>
<pdfrwt beam="2">  1       21 0.99575424E-01 0.42749069E+03</pdfrwt>
<totfact> 0.36581880E+03</totfact>
</mgrwt>
</event>
<event>
 6    1  0.9190795E-004  0.8747609E+03  0.7818608E-02  0.9457721E-01
         21   -1    0    0  503  502  0.00000000000E+00  0.00000000000E+00  0.12382251122E+04  0.12382251122E+04  0.00000000000E+00 0.  1.
         21   -1    0    0  501  503 -0.00000000000E+00 -0.00000000000E+00 -0.64001233970E+03  0.64001233970E+03  0.00000000000E+00 0. -1.
    9000007    2    1    2  501    0  0.22727827596E+02  0.77752290776E+03  0.47357401777E+03  0.99472557002E+03  0.40018518602E+03 0.  0.
    9000005    1    3    3    0    0  0.59721809142E+02  0.31837937689E+03  0.42085701683E+03  0.53108732872E+03  0.99999687468E+00 0.  0.
          4    1    3    3  501    0 -0.36993981546E+02  0.45914353086E+03  0.52717000932E+02  0.46363824129E+03  0.00000000000E+00 0.  1.
   -9000007    1    1    2    0  502 -0.22727827596E+02 -0.77752290776E+03  0.12463875473E+03  0.88351188187E+03  0.40000000000E+03 0. -1.
<mgrwt>
<rscale>  2 0.87473971E+03</rscale>
<asrwt>0</asrwt>
<pdfrwt beam="1">  1       21 0.19049617E+00 0.87476089E+03</pdfrwt>
<pdfrwt beam="2">  1       21 0.98463437E-01 0.87476089E+03</pdfrwt>
<totfact> 0.89241121E+01</totfact>
</mgrwt>
</event>
<event>
 6    1  0.9190795E-004  0.5112509E+03  0.7818608E-02  0.1010898E+00
         21   -1    0    0  503  502  0.00000000000E+00  0.00000000000E+00  0.11449610958E+04  0.11449610958E+04  0.00000000000E+00 0.  1.
         21   -1    0    0  501  503 -0.00000000000E+00 -0.00000000000E+00 -0.28393251589E+03  0.28393251589E+03  0.00000000000E+00 0. -1.
    9000007    2    1    2  501    0 -0.18040408014E+03 -0.26190434827E+03  0.11400811925E+03  0.52380848397E+03  0.40029733556E+03 0.  0.
    9000005    1    3    3    0    0  0.11003058942E+03 -0.31901199355E+01 -0.21044505822E+02  0.11207487985E+03  0.99999687468E+00 0.  0.
          4    1    3    3  501    0 -0.29043466956E+03 -0.25871422833E+03  0.13505262508E+03  0.41173360412E+03  0.00000000000E+00 0.  1.
   -9000007    1    1    2    0  502  0.18040408014E+03  0.26190434827E+03  0.74702046070E+03  0.90508512775E+03  0.40000000000E+03 0.  1.
<mgrwt>
<rscale>  2 0.51119269E+03</rscale>
<asrwt>0</asrwt>
<pdfrwt beam="1">  1       21 0.17614786E+00 0.51125089E+03</pdfrwt>
<pdfrwt beam="2">  1       21 0.43681926E-01 0.51125089E+03</pdfrwt>
<totfact> 0.79363008E+02</totfact>
</mgrwt>
</event>
<event>
 6    1  0.9190795E-004  0.4729976E+03  0.7818608E-02  0.1021178E+00
         21   -1    0    0  503  502  0.00000000000E+00  0.00000000000E+00  0.46375477841E+03  0.46375477841E+03  0.00000000000E+00 0.  1.
         21   -1    0    0  501  503 -0.00000000000E+00 -0.00000000000E+00 -0.49761879095E+03  0.49761879095E+03  0.00000000000E+00 0. -1.
    9000007    2    1    2  501    0  0.24964295455E+03  0.37484793950E+02 -0.10483085262E+03  0.48308181016E+03  0.39831120133E+03 0.  0.
    9000005    1    3    3    0    0  0.83118154762E+02  0.19058078045E+03  0.43710917746E+02  0.21246483439E+03  0.99999687468E+00 0.  0.
          4    1    3    3  501    0  0.16652479979E+03 -0.15309598650E+03 -0.14854177037E+03  0.27061697576E+03  0.00000000000E+00 0.  1.
   -9000007    1    1    2    0  502 -0.24964295455E+03 -0.37484793950E+02  0.70966840072E+02  0.47829175921E+03  0.40000000000E+03 0.  1.
<mgrwt>
<rscale>  2 0.47264035E+03</rscale>
<asrwt>0</asrwt>
<pdfrwt beam="1">  1       21 0.71346890E-01 0.47299758E+03</pdfrwt>
<pdfrwt beam="2">  1       21 0.76556736E-01 0.47299758E+03</pdfrwt>
<totfact> 0.23179040E+03</totfact>
</mgrwt>
</event>
<event>
 6    1  0.9190795E-004  0.4903185E+03  0.7818608E-02  0.1016353E+00
         21   -1    0    0  503  502  0.00000000000E+00  0.00000000000E+00  0.27496609564E+04  0.27496609564E+04  0.00000000000E+00 0.  1.
         21   -1    0    0  501  503 -0.00000000000E+00 -0.00000000000E+00 -0.13189282804E+03  0.13189282804E+03  0.00000000000E+00 0.  1.
    9000007    2    1    2  501    0 -0.25010294700E+03  0.13278604818E+03  0.47219523755E+03  0.68072061302E+03  0.40028563794E+03 0.  0.
    9000005    1    3    3    0    0  0.46917590907E+02 -0.30766467183E+02 -0.38256256532E+02  0.67914482969E+02  0.99999687468E+00 0.  0.
          4    1    3    3  501    0 -0.29702053790E+03  0.16355251536E+03  0.51045149408E+03  0.61280613005E+03  0.00000000000E+00 0.  1.
   -9000007    1    1    2    0  502  0.25010294700E+03 -0.13278604818E+03  0.21455728908E+04  0.22008331714E+04  0.40000000000E+03 0.  1.
<mgrwt>
<rscale>  2 0.49026018E+03</rscale>
<asrwt>0</asrwt>
<pdfrwt beam="1">  1       21 0.42302472E+00 0.49031848E+03</pdfrwt>
<pdfrwt beam="2">  1       21 0.20291206E-01 0.49031848E+03</pdfrwt>
<totfact> 0.10239636E+02</totfact>
</mgrwt>
</event>
<event>
 6    1  0.9190795E-004  0.4827892E+03  0.7818608E-02  0.1018400E+00
         21   -1    0    0  503  502  0.00000000000E+00  0.00000000000E+00  0.46800042299E+03  0.46800042299E+03  0.00000000000E+00 0.  1.
         21   -1    0    0  501  503 -0.00000000000E+00 -0.00000000000E+00 -0.12513563303E+04  0.12513563303E+04  0.00000000000E+00 0.  1.
    9000007    2    1    2  501    0 -0.26230708916E+03  0.62288398262E+02 -0.10589448751E+04  0.11638082561E+04  0.40050038055E+03 0.  0.
    9000005    1    3    3    0    0  0.53783220306E+02  0.25836671019E+02 -0.61348878901E+03  0.61638434648E+03  0.99999687468E+00 0.  0.
          4    1    3    3  501    0 -0.31609030947E+03  0.36451727244E+02 -0.44545608610E+03  0.54742390960E+03  0.00000000000E+00 0.  1.
   -9000007    1    1    2    0  502  0.26230708916E+03 -0.62288398262E+02  0.27558896780E+03  0.55554849721E+03  0.40000000000E+03 0.  1.
<mgrwt>
<rscale>  2 0.48268541E+03</rscale>
<asrwt>0</asrwt>
<pdfrwt beam="1">  1       21 0.72000063E-01 0.48278920E+03</pdfrwt>
<pdfrwt beam="2">  1       21 0.19251636E+00 0.48278920E+03</pdfrwt>
<totfact> 0.20840050E+02</totfact>
</mgrwt>
</event>
<event>
 6    1  0.9190795E-004  0.4300224E+03  0.7818608E-02  0.1033968E+00
         21   -1    0    0  503  502  0.00000000000E+00  0.00000000000E+00  0.14298149080E+03  0.14298149080E+03  0.00000000000E+00 0.  1.
         21   -1    0    0  501  503 -0.00000000000E+00 -0.00000000000E+00 -0.14651446058E+04  0.14651446058E+04  0.00000000000E+00 0.  1.
    9000007    2    1    2  501    0 -0.14759802471E+03 -0.43469987366E+02 -0.94089432815E+03  0.10345053992E+04  0.40155257121E+03 0.  0.
    9000005    1    3    3    0    0  0.46805181118E+02 -0.16814697822E+03 -0.24153956943E+03  0.29800418597E+03  0.99999687468E+00 0.  0.
          4    1    3    3  501    0 -0.19440320583E+03  0.12467699085E+03 -0.69935475872E+03  0.73650121319E+03  0.00000000000E+00 0.  1.
   -9000007    1    1    2    0  502  0.14759802471E+03  0.43469987366E+02 -0.38126878685E+03  0.57362069744E+03  0.40000000000E+03 0.  1.
<mgrwt>
<rscale>  2 0.42965961E+03</rscale>
<asrwt>0</asrwt>
<pdfrwt beam="1">  1       21 0.21997151E-01 0.43002242E+03</pdfrwt>
<pdfrwt beam="2">  1       21 0.22540687E+00 0.43002242E+03</pdfrwt>
<totfact> 0.15163079E+03</totfact>
</mgrwt>
</event>
<event>
 6    1  0.9190795E-004  0.4168851E+03  0.7818608E-02  0.1038239E+00
         21   -1    0    0  503  502  0.00000000000E+00  0.00000000000E+00  0.73228384012E+03  0.73228384012E+03  0.00000000000E+00 0.  1.
         21   -1    0    0  501  503 -0.00000000000E+00 -0.00000000000E+00 -0.37623829434E+03  0.37623829434E+03  0.00000000000E+00 0.  1.
    9000007    2    1    2  501    0  0.11062118278E+03 -0.18976333205E+01 -0.15979001633E+03  0.44645946807E+03  0.40193601508E+03 0.  0.
    9000005    1    3    3    0    0 -0.36791075746E+01  0.16137209207E+03 -0.18505441966E+03  0.24556185812E+03  0.99999687468E+00 0.  0.
          4    1    3    3  501    0  0.11430029036E+03 -0.16326972539E+03  0.25264403333E+02  0.20089760995E+03  0.00000000000E+00 0.  1.
   -9000007    1    1    2    0  502 -0.11062118278E+03  0.18976333205E+01  0.51583556211E+03  0.66206266640E+03  0.40000000000E+03 0.  1.
<mgrwt>
<rscale>  2 0.41641777E+03</rscale>
<asrwt>0</asrwt>
<pdfrwt beam="1">  1       21 0.11265905E+00 0.41688512E+03</pdfrwt>
<pdfrwt beam="2">  1       21 0.57882815E-01 0.41688512E+03</pdfrwt>
<totfact> 0.14968518E+03</totfact>
</mgrwt>
</event>
<event>
 6    1  0.9190795E-004  0.4715814E+03  0.7818608E-02  0.1021481E+00
         21   -1    0    0  503  502  0.00000000000E+00  0.00000000000E+00  0.58132168855E+03  0.58132168855E+03  0.00000000000E+00 0.  1.
         21   -1    0    0  501  503 -0.00000000000E+00 -0.00000000000E+00 -0.41423769716E+03  0.41423769716E+03  0.00000000000E+00 0.  1.
    9000007    2    1    2  501    0  0.23648153829E+03  0.80408137657E+02 -0.54276379251E+02  0.47460890799E+03  0.39989836664E+03 0.  0.
    9000005    1    3    3    0    0  0.11040085057E+03  0.11638024011E+03 -0.21432662238E+03  0.26771180241E+03  0.99999687468E+00 0.  0.
          4    1    3    3  501    0  0.12608068772E+03 -0.35972102454E+02  0.16005024313E+03  0.20689710558E+03  0.00000000000E+00 0.  1.
   -9000007    1    1    2    0  502 -0.23648153829E+03 -0.80408137657E+02  0.22136037064E+03  0.52095047772E+03  0.40000000000E+03 0.  1.
<mgrwt>
<rscale>  2 0.47155982E+03</rscale>
<asrwt>0</asrwt>
<pdfrwt beam="1">  1       21 0.89434106E-01 0.47158137E+03</pdfrwt>
<pdfrwt beam="2">  1       21 0.63728876E-01 0.47158137E+03</pdfrwt>
<totfact> 0.20788904E+03</totfact>
</mgrwt>
</event>
<event>
 6    1  0.9190795E-004  0.5311363E+03  0.7818608E-02  0.1005996E+00
         21   -1    0    0  503  502  0.00000000000E+00  0.00000000000E+00  0.10952905525E+04  0.10952905525E+04  0.00000000000E+00 0. -1.
         21   -1    0    0  501  503 -0.00000000000E+00 -0.00000000000E+00 -0.29943959747E+03  0.29943959747E+03  0.00000000000E+00 0.  1.
    9000007    2    1    2  501    0  0.27710569050E+03 -0.21124843610E+03  0.13636114256E+03  0.54836127162E+03  0.40086438799E+03 0.  0.
    9000005    1    3    3    0    0  0.92574292721E+02 -0.13283348901E+02  0.24076162603E+03  0.25828977446E+03  0.99999687468E+00 0.  0.
          4    1    3    3  501    0  0.18453139777E+03 -0.19796508720E+03 -0.10440048347E+03  0.29007149716E+03  0.00000000000E+00 0.  1.
   -9000007    1    1    2    0  502 -0.27710569050E+03  0.21124843610E+03  0.65948981246E+03  0.84636887832E+03  0.40000000000E+03 0. -1.
<mgrwt>
<rscale>  2 0.53097316E+03</rscale>
<asrwt>0</asrwt>
<pdfrwt beam="1">  1       21 0.16850624E+00 0.53113626E+03</pdfrwt>
<pdfrwt beam="2">  1       21 0.46067631E-01 0.53113626E+03</pdfrwt>
<totfact> 0.80036640E+02</totfact>
</mgrwt>
</event>
<event>
 6    1  0.9190795E-004  0.4066500E+03  0.7818608E-02  0.1041674E+00
         21   -1    0    0  503  502  0.00000000000E+00  0.00000000000E+00  0.55444767841E+03  0.55444767841E+03  0.00000000000E+00 0. -1.
         21   -1    0    0  501  503 -0.00000000000E+00 -0.00000000000E+00 -0.67304589465E+03  0.67304589465E+03  0.00000000000E+00 0. -1.
    9000007    2    1    2  501    0 -0.23891031822E+02 -0.56070812324E+02 -0.51827163160E+03  0.65876379861E+03  0.40205663884E+03 0.  0.
    9000005    1    3    3    0    0  0.98663731160E+01  0.17316296042E+02 -0.56506047010E+03  0.56541271147E+03  0.99999687468E+00 0.  0.
          4    1    3    3  501    0 -0.33757404938E+02 -0.73387108366E+02  0.46788838496E+02  0.93351087140E+02  0.00000000000E+00 0.  1.
   -9000007    1    1    2    0  502  0.23891031822E+02  0.56070812324E+02  0.39967341537E+03  0.56872977445E+03  0.40000000000E+03 0. -1.
<mgrwt>
<rscale>  2 0.40614077E+03</rscale>
<asrwt>0</asrwt>
<pdfrwt beam="1">  1       21 0.85299643E-01 0.40665004E+03</pdfrwt>
<pdfrwt beam="2">  1       21 0.10354552E+00 0.40665004E+03</pdfrwt>
<totfact> 0.77360555E+02</totfact>
</mgrwt>
</event>
<event>
 6    1  0.9190795E-004  0.4039422E+03  0.7818608E-02  0.1042437E+00
         21   -1    0    0  503  502  0.00000000000E+00  0.00000000000E+00  0.30415318356E+03  0.30415318356E+03  0.00000000000E+00 0.  1.
         21   -1    0    0  501  503 -0.00000000000E+00 -0.00000000000E+00 -0.54686776040E+03  0.54686776040E+03  0.00000000000E+00 0.  1.
    9000007    2    1    2  501    0 -0.37295367957E+02  0.42170406883E+02 -0.62040046272E+02  0.40851379861E+03  0.39983155031E+03 0.  0.
    9000005    1    3    3    0    0  0.11041472019E+03  0.71141931101E+02  0.11609035141E+03  0.17530132481E+03  0.99999687468E+00 0.  0.
          4    1    3    3  501    0 -0.14771008815E+03 -0.28971524218E+02 -0.17813039768E+03  0.23321247380E+03  0.00000000000E+00 0.  1.
   -9000007    1    1    2    0  502  0.37295367957E+02 -0.42170406883E+02 -0.18067453057E+03  0.44250714535E+03  0.40000000000E+03 0.  1.
<mgrwt>
<rscale>  2 0.40390048E+03</rscale>
<asrwt>0</asrwt>
<pdfrwt beam="1">  1       21 0.46792797E-01 0.40394218E+03</pdfrwt>
<pdfrwt beam="2">  1       21 0.84133502E-01 0.40394218E+03</pdfrwt>
<totfact> 0.47879653E+03</totfact>
</mgrwt>
</event>
<event>
 6    1  0.9190795E-004  0.5900289E+03  0.7818608E-02  0.9928005E-01
         21   -1    0    0  503  502  0.00000000000E+00  0.00000000000E+00  0.33462005106E+03  0.33462005106E+03  0.00000000000E+00 0. -1.
         21   -1    0    0  501  503 -0.00000000000E+00 -0.00000000000E+00 -0.10429701523E+04  0.10429701523E+04  0.00000000000E+00 0.  1.
    9000007    2    1    2  501    0  0.41608238554E+03 -0.10609942530E+03 -0.29405833084E+03  0.65924536232E+03  0.40466344807E+03 0.  0.
    9000005    1    3    3    0    0  0.26624825590E+03 -0.21625698610E+03 -0.41365059369E+02  0.34549571044E+03  0.99999687468E+00 0.  0.
          4    1    3    3  501    0  0.14983412964E+03  0.11015756080E+03 -0.25269327147E+03  0.31374965188E+03  0.00000000000E+00 0.  1.
   -9000007    1    1    2    0  502 -0.41608238554E+03  0.10609942530E+03 -0.41429177039E+03  0.71834484102E+03  0.40000000000E+03 0. -1.
<mgrwt>
<rscale>  2 0.58923018E+03</rscale>
<asrwt>0</asrwt>
<pdfrwt beam="1">  1       21 0.51480009E-01 0.59002894E+03</pdfrwt>
<pdfrwt beam="2">  1       21 0.16045694E+00 0.59002894E+03</pdfrwt>
<totfact> 0.71075886E+02</totfact>
</mgrwt>
</event>
<event>
 6    1  0.9190795E-004  0.5060302E+03  0.7818608E-02  0.1012235E+00
         21   -1    0    0  503  502  0.00000000000E+00  0.00000000000E+00  0.81047807606E+03  0.81047807606E+03  0.00000000000E+00 0. -1.
         21   -1    0    0  501  503 -0.00000000000E+00 -0.00000000000E+00 -0.62004130452E+03  0.62004130452E+03  0.00000000000E+00 0.  1.
    9000007    2    1    2  501    0 -0.30940323853E+03 -0.73976431167E+01 -0.40582043052E+03  0.64865766637E+03  0.40035166688E+03 0.  0.
    9000005    1    3    3    0    0 -0.44751141817E+02  0.12276782319E+03 -0.31345536412E+03  0.33960251530E+03  0.99999687468E+00 0.  0.
          4    1    3    3  501    0 -0.26465209671E+03 -0.13016546631E+03 -0.92365066395E+02  0.30905515107E+03  0.00000000000E+00 0.  1.
   -9000007    1    1    2    0  502  0.30940323853E+03  0.73976431167E+01  0.59625720206E+03  0.78186171421E+03  0.40000000000E+03 0. -1.
<mgrwt>
<rscale>  2 0.50596062E+03</rscale>
<asrwt>0</asrwt>
<pdfrwt beam="1">  1       21 0.12468893E+00 0.50603018E+03</pdfrwt>
<pdfrwt beam="2">  1       21 0.95390970E-01 0.50603018E+03</pdfrwt>
<totfact> 0.35649862E+02</totfact>
</mgrwt>
</event>
<event>
 6    1  0.9190795E-004  0.4329942E+03  0.7818608E-02  0.1032998E+00
         21   -1    0    0  503  502  0.00000000000E+00  0.00000000000E+00  0.55969651734E+03  0.55969651734E+03  0.00000000000E+00 0. -1.
         21   -1    0    0  501  503 -0.00000000000E+00 -0.00000000000E+00 -0.82687236853E+03  0.82687236853E+03  0.00000000000E+00 0. -1.
    9000007    2    1    2  501    0  0.10435456192E+03 -0.12534485680E+03 -0.66880427446E+03  0.79673280856E+03  0.40110198575E+03 0.  0.
    9000005    1    3    3    0    0  0.18511330515E+03 -0.13619012382E+03 -0.67689883035E+03  0.71484803427E+03  0.99999687468E+00 0.  0.
          4    1    3    3  501    0 -0.80758743233E+02  0.10845267019E+02  0.80945558926E+01  0.81884774290E+02  0.00000000000E+00 0.  1.
   -9000007    1    1    2    0  502 -0.10435456192E+03  0.12534485680E+03  0.40162842327E+03  0.58983607731E+03  0.40000000000E+03 0. -1.
<mgrwt>
<rscale>  2 0.43273886E+03</rscale>
<asrwt>0</asrwt>
<pdfrwt beam="1">  1       21 0.86107157E-01 0.43299424E+03</pdfrwt>
<pdfrwt beam="2">  1       21 0.12721113E+00 0.43299424E+03</pdfrwt>
<totfact> 0.44612827E+02</totfact>
</mgrwt>
</event>
<event>
 6    1  0.9190795E-004  0.4270973E+03  0.7818608E-02  0.1034794E+00
         21   -1    0    0  503  502  0.00000000000E+00  0.00000000000E+00  0.33465413307E+03  0.33465413307E+03  0.00000000000E+00 0.  1.
         21   -1    0    0  501  503 -0.00000000000E+00 -0.00000000000E+00 -0.60131377166E+03  0.60131377166E+03  0.00000000000E+00 0. -1.
    9000007    2    1    2  501    0  0.14774392532E+03 -0.21041392398E+02 -0.27673866511E+03  0.50891686043E+03  0.40017630415E+03 0.  0.
    9000005    1    3    3    0    0 -0.87481472271E+02  0.50340102954E+02 -0.24000964218E+03  0.26037043282E+03  0.99999687468E+00 0.  0.
          4    1    3    3  501    0  0.23522539759E+03 -0.71381495352E+02 -0.36729022927E+02  0.24854642760E+03  0.00000000000E+00 0.  1.
   -9000007    1    1    2    0  502 -0.14774392532E+03  0.21041392398E+02  0.10079026514E+02  0.42705104430E+03  0.40000000000E+03 0. -1.
<mgrwt>
<rscale>  2 0.42705597E+03</rscale>
<asrwt>0</asrwt>
<pdfrwt beam="1">  1       21 0.51485252E-01 0.42709727E+03</pdfrwt>
<pdfrwt beam="2">  1       21 0.92509810E-01 0.42709727E+03</pdfrwt>
<totfact> 0.31009224E+03</totfact>
</mgrwt>
</event>
<event>
 6    1  0.9190795E-004  0.4316529E+03  0.7818608E-02  0.1033362E+00
         21   -1    0    0  503  502  0.00000000000E+00  0.00000000000E+00  0.36764796861E+03  0.36764796861E+03  0.00000000000E+00 0.  1.
         21   -1    0    0  501  503 -0.00000000000E+00 -0.00000000000E+00 -0.14593271657E+04  0.14593271657E+04  0.00000000000E+00 0.  1.
    9000007    2    1    2  501    0  0.12210905883E+03  0.10683438948E+03 -0.12839217005E+04  0.13544485328E+04  0.39968948721E+03 0.  0.
    9000005    1    3    3    0    0 -0.19077289473E+02 -0.14306647563E+03 -0.43187211656E+03  0.45535314260E+03  0.99999687468E+00 0.  0.
          4    1    3    3  501    0  0.14118634830E+03  0.24990086511E+03 -0.85204958391E+03  0.89909539025E+03  0.00000000000E+00 0.  1.
   -9000007    1    1    2    0  502 -0.12210905883E+03 -0.10683438948E+03  0.19224250334E+03  0.47252660149E+03  0.40000000000E+03 0.  1.
<mgrwt>
<rscale>  2 0.43158093E+03</rscale>
<asrwt>0</asrwt>
<pdfrwt beam="1">  1       21 0.56561226E-01 0.43165288E+03</pdfrwt>
<pdfrwt beam="2">  1       21 0.22451187E+00 0.43165288E+03</pdfrwt>
<totfact> 0.22556815E+02</totfact>
</mgrwt>
</event>
<event>
 6    1  0.9190795E-004  0.4086952E+03  0.7818608E-02  0.1041103E+00
         21   -1    0    0  503  502  0.00000000000E+00  0.00000000000E+00  0.47663937627E+03  0.47663937627E+03  0.00000000000E+00 0.  1.
         21   -1    0    0  501  503 -0.00000000000E+00 -0.00000000000E+00 -0.59578232756E+03  0.59578232756E+03  0.00000000000E+00 0.  1.
    9000007    2    1    2  501    0 -0.38987461348E+02 -0.74241110785E+02 -0.40558899391E+03  0.57333944607E+03  0.39646427805E+03 0.  0.
    9000005    1    3    3    0    0  0.88499504558E+02 -0.20410192481E+03 -0.24081783444E+03  0.32784750632E+03  0.99999687468E+00 0.  0.
          4    1    3    3  501    0 -0.12748696591E+03  0.12986081402E+03 -0.16477115946E+03  0.24549193976E+03  0.00000000000E+00 0.  1.
   -9000007    1    1    2    0  502  0.38987461348E+02  0.74241110785E+02  0.28644604262E+03  0.49908225775E+03  0.40000000000E+03 0.  1.
<mgrwt>
<rscale>  2 0.40782748E+03</rscale>
<asrwt>0</asrwt>
<pdfrwt beam="1">  1       21 0.73329135E-01 0.40869520E+03</pdfrwt>
<pdfrwt beam="2">  1       21 0.91658820E-01 0.40869520E+03</pdfrwt>
<totfact> 0.14677713E+03</totfact>
</mgrwt>
</event>
<event>
 6    1  0.9190795E-004  0.4012390E+03  0.7818608E-02  0.1043528E+00
         21   -1    0    0  503  502  0.00000000000E+00  0.00000000000E+00  0.10474760003E+04  0.10474760003E+04  0.00000000000E+00 0.  1.
         21   -1    0    0  501  503 -0.00000000000E+00 -0.00000000000E+00 -0.22710038909E+03  0.22710038909E+03  0.00000000000E+00 0.  1.
    9000007    2    1    2  501    0 -0.76186270430E+01 -0.30572760851E+02  0.45241663924E+02  0.40175030510E+03  0.39794944693E+03 0.  0.
    9000005    1    3    3    0    0 -0.17860960461E+03 -0.10984894939E+03  0.38234401171E+02  0.21314561213E+03  0.99999687468E+00 0.  0.
          4    1    3    3  501    0  0.17099097757E+03  0.79276188541E+02  0.70072627536E+01  0.18860469297E+03  0.00000000000E+00 0.  1.
   -9000007    1    1    2    0  502  0.76186270430E+01  0.30572760851E+02  0.77513394733E+03  0.87282608433E+03  0.40000000000E+03 0.  1.
<mgrwt>
<rscale>  2 0.40072698E+03</rscale>
<asrwt>0</asrwt>
<pdfrwt beam="1">  1       21 0.16115015E+00 0.40123900E+03</pdfrwt>
<pdfrwt beam="2">  1       21 0.34938522E-01 0.40123900E+03</pdfrwt>
<totfact> 0.16947154E+03</totfact>
</mgrwt>
</event>
<event>
 6    1  0.9190795E-004  0.4010081E+03  0.7818608E-02  0.1043469E+00
         21   -1    0    0  503  502  0.00000000000E+00  0.00000000000E+00  0.16407768601E+04  0.16407768601E+04  0.00000000000E+00 0.  1.
         21   -1    0    0  501  503 -0.00000000000E+00 -0.00000000000E+00 -0.29661350998E+03  0.29661350998E+03  0.00000000000E+00 0.  1.
    9000007    2    1    2  501    0  0.18536243501E+02  0.21539062343E+02 -0.12091348320E+03  0.41842438921E+03  0.39956398178E+03 0.  0.
    9000005    1    3    3    0    0  0.31499542328E+02 -0.87876551309E+02  0.12086650961E+03  0.15272269830E+03  0.99999687468E+00 0.  0.
          4    1    3    3  501    0 -0.12963298827E+02  0.10941561365E+03 -0.24177999281E+03  0.26570169091E+03  0.00000000000E+00 0.  1.
   -9000007    1    1    2    0  502 -0.18536243501E+02 -0.21539062343E+02  0.14650768333E+04  0.15189659809E+04  0.40000000000E+03 0.  1.
<mgrwt>
<rscale>  2 0.40089936E+03</rscale>
<asrwt>0</asrwt>
<pdfrwt beam="1">  1       21 0.25242720E+00 0.40100813E+03</pdfrwt>
<pdfrwt beam="2">  1       21 0.45632849E-01 0.40100813E+03</pdfrwt>
<totfact> 0.24360077E+02</totfact>
</mgrwt>
</event>
<event>
 6    1  0.9190795E-004  0.5141672E+03  0.7818608E-02  0.1010166E+00
         21   -1    0    0  503  502  0.00000000000E+00  0.00000000000E+00  0.73307884504E+03  0.73307884504E+03  0.00000000000E+00 0.  1.
         21   -1    0    0  501  503 -0.00000000000E+00 -0.00000000000E+00 -0.44141682766E+03  0.44141682766E+03  0.00000000000E+00 0. -1.
    9000007    2    1    2  501    0  0.30520388350E+03 -0.10591722698E+03 -0.10579310194E+03  0.52461996048E+03  0.39958234825E+03 0.  0.
    9000005    1    3    3    0    0  0.23091964507E+03 -0.24692325053E+03 -0.13232386946E+03  0.36305038294E+03  0.99999687468E+00 0.  0.
          4    1    3    3  501    0  0.74284238432E+02  0.14100602356E+03  0.26530767520E+02  0.16156957753E+03  0.00000000000E+00 0.  1.
   -9000007    1    1    2    0  502 -0.30520388350E+03  0.10591722698E+03  0.39745511932E+03  0.64987571223E+03  0.40000000000E+03 0.  1.
<mgrwt>
<rscale>  2 0.51408593E+03</rscale>
<asrwt>0</asrwt>
<pdfrwt beam="1">  1       21 0.11278136E+00 0.51416716E+03</pdfrwt>
<pdfrwt beam="2">  1       21 0.67910281E-01 0.51416716E+03</pdfrwt>
<totfact> 0.10094932E+03</totfact>
</mgrwt>
</event>
<event>
 6    1  0.9190795E-004  0.4882045E+03  0.7818608E-02  0.1016969E+00
         21   -1    0    0  503  502  0.00000000000E+00  0.00000000000E+00  0.94221477383E+03  0.94221477383E+03  0.00000000000E+00 0. -1.
         21   -1    0    0  501  503 -0.00000000000E+00 -0.00000000000E+00 -0.42033313285E+03  0.42033313285E+03  0.00000000000E+00 0.  1.
    9000007    2    1    2  501    0 -0.24547808546E+03  0.13447739809E+03 -0.16974933059E+03  0.51596828143E+03  0.39882925064E+03 0.  0.
    9000005    1    3    3    0    0 -0.15526160395E+03  0.93347031592E+02  0.11491060806E+03  0.21453503632E+03  0.99999687468E+00 0.  0.
          4    1    3    3  501    0 -0.90216481511E+02  0.41130366494E+02 -0.28465993866E+03  0.30143324511E+03  0.00000000000E+00 0.  1.
   -9000007    1    1    2    0  502  0.24547808546E+03 -0.13447739809E+03  0.69163097157E+03  0.84657962524E+03  0.40000000000E+03 0. -1.
<mgrwt>
<rscale>  2 0.48796466E+03</rscale>
<asrwt>0</asrwt>
<pdfrwt beam="1">  1       21 0.14495612E+00 0.48820453E+03</pdfrwt>
<pdfrwt beam="2">  1       21 0.64666636E-01 0.48820453E+03</pdfrwt>
<totfact> 0.59304982E+02</totfact>
</mgrwt>
</event>
<event>
 6    1  0.9190795E-004  0.5200979E+03  0.7818608E-02  0.1008728E+00
         21   -1    0    0  503  502  0.00000000000E+00  0.00000000000E+00  0.30771662023E+03  0.30771662023E+03  0.00000000000E+00 0.  1.
         21   -1    0    0  501  503 -0.00000000000E+00 -0.00000000000E+00 -0.88077625156E+03  0.88077625156E+03  0.00000000000E+00 0. -1.
    9000007    2    1    2  501    0  0.10382599985E+03 -0.31578785110E+03 -0.24873183913E+03  0.57555704975E+03  0.39861834451E+03 0.  0.
    9000005    1    3    3    0    0 -0.77501586203E+02  0.62454731757E+02 -0.50387544867E+02  0.11156609724E+03  0.99999687468E+00 0.  0.
          4    1    3    3  501    0  0.18132758605E+03 -0.37824258285E+03 -0.19834429426E+03  0.46399095251E+03  0.00000000000E+00 0.  1.
   -9000007    1    1    2    0  502 -0.10382599985E+03  0.31578785110E+03 -0.32432779220E+03  0.61293582204E+03  0.40000000000E+03 0. -1.
<mgrwt>
<rscale>  2 0.51983221E+03</rscale>
<asrwt>0</asrwt>
<pdfrwt beam="1">  1       21 0.47341019E-01 0.52009788E+03</pdfrwt>
<pdfrwt beam="2">  1       21 0.13550404E+00 0.52009788E+03</pdfrwt>
<totfact> 0.13794979E+03</totfact>
</mgrwt>
</event>
<event>
 6    1  0.9190795E-004  0.4280172E+03  0.7818608E-02  0.1034576E+00
         21   -1    0    0  503  502  0.00000000000E+00  0.00000000000E+00  0.17572911079E+03  0.17572911079E+03  0.00000000000E+00 0. -1.
         21   -1    0    0  501  503 -0.00000000000E+00 -0.00000000000E+00 -0.17335450469E+04  0.17335450469E+04  0.00000000000E+00 0. -1.
    9000007    2    1    2  501    0 -0.14030466867E+03 -0.59273335466E+02 -0.13822060235E+04  0.14466322122E+04  0.39881391346E+03 0.  0.
    9000005    1    3    3    0    0  0.88205910599E+02 -0.14566830899E+03 -0.40488420419E+03  0.43923997735E+03  0.99999687468E+00 0.  0.
          4    1    3    3  501    0 -0.22851057927E+03  0.86394973524E+02 -0.97732181931E+03  0.10073922348E+04  0.00000000000E+00 0.  1.
   -9000007    1    1    2    0  502  0.14030466867E+03  0.59273335466E+02 -0.17560991263E+03  0.46264194553E+03  0.40000000000E+03 0. -1.
<mgrwt>
<rscale>  2 0.42773988E+03</rscale>
<asrwt>0</asrwt>
<pdfrwt beam="1">  1       21 0.27035247E-01 0.42801721E+03</pdfrwt>
<pdfrwt beam="2">  1       21 0.26669925E+00 0.42801721E+03</pdfrwt>
<totfact> 0.56629401E+02</totfact>
</mgrwt>
</event>
<event>
 6    1  0.9190795E-004  0.4327505E+03  0.7818608E-02  0.1033104E+00
         21   -1    0    0  503  502  0.00000000000E+00  0.00000000000E+00  0.24732665644E+03  0.24732665644E+03  0.00000000000E+00 0.  1.
         21   -1    0    0  501  503 -0.00000000000E+00 -0.00000000000E+00 -0.90766516212E+03  0.90766516212E+03  0.00000000000E+00 0. -1.
    9000007    2    1    2  501    0  0.16330471997E+03 -0.24588641700E+02 -0.56676315722E+03  0.71223976751E+03  0.39848711042E+03 0.  0.
    9000005    1    3    3    0    0  0.14705839794E+03 -0.19623395513E+03 -0.24188408859E+03  0.34444571395E+03  0.99999687468E+00 0.  0.
          4    1    3    3  501    0  0.16246322030E+02  0.17164531343E+03 -0.32487906863E+03  0.36779405356E+03  0.00000000000E+00 0.  1.
   -9000007    1    1    2    0  502 -0.16330471997E+03  0.24588641700E+02 -0.93575348457E+02  0.44275205104E+03  0.40000000000E+03 0.  1.
<mgrwt>
<rscale>  2 0.43240062E+03</rscale>
<asrwt>0</asrwt>
<pdfrwt beam="1">  1       21 0.38050255E-01 0.43275054E+03</pdfrwt>
<pdfrwt beam="2">  1       21 0.13964079E+00 0.43275054E+03</pdfrwt>
<totfact> 0.20737097E+03</totfact>
</mgrwt>
</event>
<event>
 6    1  0.9190795E-004  0.4475441E+03  0.7818608E-02  0.1028480E+00
         21   -1    0    0  503  502  0.00000000000E+00  0.00000000000E+00  0.13338850733E+04  0.13338850733E+04  0.00000000000E+00 0. -1.
         21   -1    0    0  501  503 -0.00000000000E+00 -0.00000000000E+00 -0.21700817886E+03  0.21700817886E+03  0.00000000000E+00 0.  1.
    9000007    2    1    2  501    0 -0.17304254282E+03 -0.10174479068E+03  0.12758904379E+03  0.46508195387E+03  0.39965802340E+03 0.  0.
    9000005    1    3    3    0    0 -0.25247502826E+03 -0.17035687607E+03  0.17349099679E+03  0.35052137036E+03  0.99999687468E+00 0.  0.
          4    1    3    3  501    0  0.79432485447E+02  0.68612085388E+02 -0.45901953000E+02  0.11456058351E+03  0.00000000000E+00 0.  1.
   -9000007    1    1    2    0  502  0.17304254282E+03  0.10174479068E+03  0.98928785065E+03  0.10858112983E+04  0.40000000000E+03 0. -1.
<mgrwt>
<rscale>  2 0.44746768E+03</rscale>
<asrwt>0</asrwt>
<pdfrwt beam="1">  1       21 0.20521308E+00 0.44754410E+03</pdfrwt>
<pdfrwt beam="2">  1       21 0.33385875E-01 0.44754410E+03</pdfrwt>
<totfact> 0.89453744E+02</totfact>
</mgrwt>
</event>
<event>
 6    1  0.9190795E-004  0.5063968E+03  0.7818608E-02  0.1012130E+00
         21   -1    0    0  503  502  0.00000000000E+00  0.00000000000E+00  0.12551203984E+04  0.12551203984E+04  0.00000000000E+00 0. -1.
         21   -1    0    0  501  503 -0.00000000000E+00 -0.00000000000E+00 -0.20714938637E+03  0.20714938637E+03  0.00000000000E+00 0. -1.
    9000007    2    1    2  501    0  0.20958928863E+03  0.22915063614E+03  0.43764739584E+03  0.66921707504E+03  0.39984817929E+03 0.  0.
    9000005    1    3    3    0    0  0.15047203006E+03  0.22055690510E+03  0.43440278534E+02  0.27050921983E+03  0.99999687468E+00 0.  0.
          4    1    3    3  501    0  0.59117258571E+02  0.85937310394E+01  0.39420711730E+03  0.39870785521E+03  0.00000000000E+00 0.  1.
   -9000007    1    1    2    0  502 -0.20958928863E+03 -0.22915063614E+03  0.61032361622E+03  0.79305270977E+03  0.40000000000E+03 0. -1.
<mgrwt>
<rscale>  2 0.50636678E+03</rscale>
<asrwt>0</asrwt>
<pdfrwt beam="1">  1       21 0.19309544E+00 0.50639677E+03</pdfrwt>
<pdfrwt beam="2">  1       21 0.31869137E-01 0.50639677E+03</pdfrwt>
<totfact> 0.11543146E+03</totfact>
</mgrwt>
</event>
<event>
 6    1  0.9190795E-004  0.4141628E+03  0.7818608E-02  0.1039033E+00
         21   -1    0    0  503  502  0.00000000000E+00  0.00000000000E+00  0.12066431020E+03  0.12066431020E+03  0.00000000000E+00 0. -1.
         21   -1    0    0  501  503 -0.00000000000E+00 -0.00000000000E+00 -0.14824397000E+04  0.14824397000E+04  0.00000000000E+00 0. -1.
    9000007    2    1    2  501    0  0.10028935458E+02 -0.10455330738E+03 -0.51618400604E+03  0.66179812903E+03  0.40062309202E+03 0.  0.
    9000005    1    3    3    0    0  0.76636615058E+02 -0.24347569439E+03 -0.36934292243E+03  0.44896411758E+03  0.99999687468E+00 0.  0.
          4    1    3    3  501    0 -0.66607679600E+02  0.13892238701E+03 -0.14684108361E+03  0.21283401145E+03  0.00000000000E+00 0.  1.
   -9000007    1    1    2    0  502 -0.10028935458E+02  0.10455330738E+03 -0.84559138379E+03  0.94130588119E+03  0.40000000000E+03 0. -1.
<mgrwt>
<rscale>  2 0.41401206E+03</rscale>
<asrwt>0</asrwt>
<pdfrwt beam="1">  1       21 0.18563739E-01 0.41416281E+03</pdfrwt>
<pdfrwt beam="2">  1       21 0.22806766E+00 0.41416281E+03</pdfrwt>
<totfact> 0.20303729E+03</totfact>
</mgrwt>
</event>
<event>
 6    1  0.9190795E-004  0.4378721E+03  0.7818608E-02  0.1031467E+00
         21   -1    0    0  503  502  0.00000000000E+00  0.00000000000E+00  0.65046055680E+03  0.65046055680E+03  0.00000000000E+00 0. -1.
         21   -1    0    0  501  503 -0.00000000000E+00 -0.00000000000E+00 -0.51068575525E+03  0.51068575525E+03  0.00000000000E+00 0. -1.
    9000007    2    1    2  501    0 -0.39495629160E+02  0.17370116236E+03 -0.30816128663E+03  0.53474489313E+03  0.39906982299E+03 0.  0.
    9000005    1    3    3    0    0 -0.98606624606E+02  0.41179271134E+02 -0.36392564800E+03  0.37929128128E+03  0.99999687468E+00 0.  0.
          4    1    3    3  501    0  0.59110995446E+02  0.13252189123E+03  0.55764361372E+02  0.15545361185E+03  0.00000000000E+00 0.  1.
   -9000007    1    1    2    0  502  0.39495629160E+02 -0.17370116236E+03  0.44793608818E+03  0.62640141892E+03  0.40000000000E+03 0. -1.
<mgrwt>
<rscale>  2 0.43765958E+03</rscale>
<asrwt>0</asrwt>
<pdfrwt beam="1">  1       21 0.10007086E+00 0.43787213E+03</pdfrwt>
<pdfrwt beam="2">  1       21 0.78567039E-01 0.43787213E+03</pdfrwt>
<totfact> 0.10032428E+03</totfact>
</mgrwt>
</event>
<event>
 6    1  0.9190795E-004  0.4298077E+03  0.7818608E-02  0.1033947E+00
         21   -1    0    0  503  502  0.00000000000E+00  0.00000000000E+00  0.27463126909E+03  0.27463126909E+03  0.00000000000E+00 0.  1.
         21   -1    0    0  501  503 -0.00000000000E+00 -0.00000000000E+00 -0.84898298072E+03  0.84898298072E+03  0.00000000000E+00 0. -1.
    9000007    2    1    2  501    0  0.10376128247E+03  0.11818725606E+03 -0.54349566186E+03  0.69270042195E+03  0.39963947361E+03 0.  0.
    9000005    1    3    3    0    0 -0.50841521043E+01  0.11915444116E+03 -0.56861613891E+03  0.58098962372E+03  0.99999687468E+00 0.  0.
          4    1    3    3  501    0  0.10884543457E+03 -0.96718509771E+00  0.25120477040E+02  0.11171079823E+03  0.00000000000E+00 0.  1.
   -9000007    1    1    2    0  502 -0.10376128247E+03 -0.11818725606E+03 -0.30856049770E+02  0.43091382786E+03  0.40000000000E+03 0.  1.
<mgrwt>
<rscale>  2 0.42972377E+03</rscale>
<asrwt>0</asrwt>
<pdfrwt beam="1">  1       21 0.42250965E-01 0.42980767E+03</pdfrwt>
<pdfrwt beam="2">  1       21 0.13061276E+00 0.42980767E+03</pdfrwt>
<totfact> 0.19938476E+03</totfact>
</mgrwt>
</event>
<event>
 6    1  0.9190795E-004  0.4037437E+03  0.7818608E-02  0.1042826E+00
         21   -1    0    0  503  502  0.00000000000E+00  0.00000000000E+00  0.12640092056E+04  0.12640092056E+04  0.00000000000E+00 0. -1.
         21   -1    0    0  501  503 -0.00000000000E+00 -0.00000000000E+00 -0.14391214068E+03  0.14391214068E+03  0.00000000000E+00 0. -1.
    9000007    2    1    2  501    0 -0.31741019765E+02  0.44737840487E+02  0.79376409992E+03  0.88878536145E+03  0.39606692074E+03 0.  0.
    9000005    1    3    3    0    0 -0.86826876727E+00  0.22092504810E+03  0.44538335949E+03  0.49716794715E+03  0.99999687468E+00 0.  0.
          4    1    3    3  501    0 -0.30872750998E+02 -0.17618720762E+03  0.34838074043E+03  0.39161741430E+03  0.00000000000E+00 0.  1.
   -9000007    1    1    2    0  502  0.31741019765E+02 -0.44737840487E+02  0.32633296504E+03  0.51913598486E+03  0.40000000000E+03 0. -1.
<mgrwt>
<rscale>  2 0.40276608E+03</rscale>
<asrwt>0</asrwt>
<pdfrwt beam="1">  1       21 0.19446295E+00 0.40374369E+03</pdfrwt>
<pdfrwt beam="2">  1       21 0.22140330E-01 0.40374369E+03</pdfrwt>
<totfact> 0.24110123E+03</totfact>
</mgrwt>
</event>
<event>
 6    1  0.9190795E-004  0.4374052E+03  0.7818608E-02  0.1031547E+00
         21   -1    0    0  503  502  0.00000000000E+00  0.00000000000E+00  0.13125518381E+04  0.13125518381E+04  0.00000000000E+00 0.  1.
         21   -1    0    0  501  503 -0.00000000000E+00 -0.00000000000E+00 -0.62685637926E+03  0.62685637926E+03  0.00000000000E+00 0.  1.
    9000007    2    1    2  501    0  0.17512632065E+03  0.25440226771E+02 -0.50666538010E+03  0.66935278411E+03  0.40000863601E+03 0.  0.
    9000005    1    3    3    0    0 -0.82056930183E+02  0.12914577261E+03 -0.12498341264E+03  0.19756979477E+03  0.99999687468E+00 0.  0.
          4    1    3    3  501    0  0.25718325084E+03 -0.10370554584E+03 -0.38168196746E+03  0.47178298934E+03  0.00000000000E+00 0.  1.
   -9000007    1    1    2    0  502 -0.17512632065E+03 -0.25440226771E+02  0.11923608389E+04  0.12700554332E+04  0.40000000000E+03 0.  1.
<mgrwt>
<rscale>  2 0.43740326E+03</rscale>
<asrwt>0</asrwt>
<pdfrwt beam="1">  1       21 0.20193105E+00 0.43740524E+03</pdfrwt>
<pdfrwt beam="2">  1       21 0.96439443E-01 0.43740524E+03</pdfrwt>
<totfact> 0.93384798E+01</totfact>
</mgrwt>
</event>
<event>
 6    1  0.9190795E-004  0.4232463E+03  0.7818608E-02  0.1036055E+00
         21   -1    0    0  503  502  0.00000000000E+00  0.00000000000E+00  0.16150558280E+03  0.16150558280E+03  0.00000000000E+00 0.  1.
         21   -1    0    0  501  503 -0.00000000000E+00 -0.00000000000E+00 -0.11226927314E+04  0.11226927314E+04  0.00000000000E+00 0.  1.
    9000007    2    1    2  501    0 -0.13644580271E+03 -0.22802465353E+02 -0.55410937827E+03  0.69695924821E+03  0.39947162738E+03 0.  0.
    9000005    1    3    3    0    0 -0.17984228515E+03 -0.88004568404E+02 -0.78688815772E+02  0.21513014970E+03  0.99999687468E+00 0.  0.
          4    1    3    3  501    0  0.43396482439E+02  0.65202103052E+02 -0.47542056249E+03  0.48182909851E+03  0.00000000000E+00 0.  1.
   -9000007    1    1    2    0  502  0.13644580271E+03  0.22802465353E+02 -0.40707777029E+03  0.58723906594E+03  0.40000000000E+03 0.  1.
<mgrwt>
<rscale>  2 0.42312139E+03</rscale>
<asrwt>0</asrwt>
<pdfrwt beam="1">  1       21 0.24847014E-01 0.42324628E+03</pdfrwt>
<pdfrwt beam="2">  1       21 0.17272195E+00 0.42324628E+03</pdfrwt>
<totfact> 0.27100922E+03</totfact>
</mgrwt>
</event>
<event>
 6    1  0.9190795E-004  0.4057483E+03  0.7818608E-02  0.1041830E+00
         21   -1    0    0  503  502  0.00000000000E+00  0.00000000000E+00  0.72925559487E+03  0.72925559487E+03  0.00000000000E+00 0. -1.
         21   -1    0    0  501  503 -0.00000000000E+00 -0.00000000000E+00 -0.24661646383E+03  0.24661646383E+03  0.00000000000E+00 0. -1.
    9000007    2    1    2  501    0 -0.28266141304E+02  0.61908622194E+02  0.98830054424E+02  0.41735521962E+03  0.39973284508E+03 0.  0.
    9000005    1    3    3    0    0 -0.20546396015E+02 -0.16364927954E+03 -0.13057024380E+02  0.16545309596E+03  0.99999687468E+00 0.  0.
          4    1    3    3  501    0 -0.77197452895E+01  0.22555790173E+03  0.11188707880E+03  0.25190212366E+03  0.00000000000E+00 0.  1.
   -9000007    1    1    2    0  502  0.28266141304E+02 -0.61908622194E+02  0.38380907661E+03  0.55851683908E+03  0.40000000000E+03 0.  1.
<mgrwt>
<rscale>  2 0.40568240E+03</rscale>
<asrwt>0</asrwt>
<pdfrwt beam="1">  1       21 0.11219317E+00 0.40574826E+03</pdfrwt>
<pdfrwt beam="2">  1       21 0.37940995E-01 0.40574826E+03</pdfrwt>
<totfact> 0.36951889E+03</totfact>
</mgrwt>
</event>
<event>
 6    1  0.9190795E-004  0.6366973E+03  0.7818608E-02  0.9832737E-01
         21   -1    0    0  503  502  0.00000000000E+00  0.00000000000E+00  0.11254667689E+04  0.11254667689E+04  0.00000000000E+00 0.  1.
         21   -1    0    0  501  503 -0.00000000000E+00 -0.00000000000E+00 -0.36318795489E+03  0.36318795489E+03  0.00000000000E+00 0. -1.
    9000007    2    1    2  501    0  0.42946199020E+03  0.24325724810E+03  0.45752883722E+03  0.78403834722E+03  0.40220865637E+03 0.  0.
    9000005    1    3    3    0    0  0.86144375515E+02  0.14415339118E+02 -0.71681423189E+02  0.11299505236E+03  0.99999687468E+00 0.  0.
          4    1    3    3  501    0  0.34331761468E+03  0.22884190898E+03  0.52921026041E+03  0.67104329486E+03  0.00000000000E+00 0.  1.
   -9000007    1    1    2    0  502 -0.42946199020E+03 -0.24325724810E+03  0.30474997680E+03  0.70461637657E+03  0.40000000000E+03 0. -1.
<mgrwt>
<rscale>  2 0.63634882E+03</rscale>
<asrwt>0</asrwt>
<pdfrwt beam="1">  1       21 0.17314873E+00 0.63669733E+03</pdfrwt>
<pdfrwt beam="2">  1       21 0.55875071E-01 0.63669733E+03</pdfrwt>
<totfact> 0.47157081E+02</totfact>
</mgrwt>
</event>
<event>
 6    1  0.9190795E-004  0.5858744E+03  0.7818608E-02  0.9935166E-01
         21   -1    0    0  503  502  0.00000000000E+00  0.00000000000E+00  0.17480691814E+04  0.17480691814E+04  0.00000000000E+00 0. -1.
         21   -1    0    0  501  503 -0.00000000000E+00 -0.00000000000E+00 -0.23244168979E+03  0.23244168979E+03  0.00000000000E+00 0. -1.
    9000007    2    1    2  501    0  0.28990845463E+03  0.31496334504E+03  0.11480023753E+04  0.12888483473E+04  0.39996473334E+03 0.  0.
    9000005    1    3    3    0    0  0.21802413899E+03  0.33075930209E+02  0.82585401119E+03  0.85478909102E+03  0.99999687468E+00 0.  0.
          4    1    3    3  501    0  0.71884315636E+02  0.28188741483E+03  0.32214836409E+03  0.43405925628E+03  0.00000000000E+00 0.  1.
   -9000007    1    1    2    0  502 -0.28990845463E+03 -0.31496334504E+03  0.36762511631E+03  0.69166252387E+03  0.40000000000E+03 0. -1.
<mgrwt>
<rscale>  2 0.58586839E+03</rscale>
<asrwt>0</asrwt>
<pdfrwt beam="1">  1       21 0.26893371E+00 0.58587441E+03</pdfrwt>
<pdfrwt beam="2">  1       21 0.35760261E-01 0.58587441E+03</pdfrwt>
<totfact> 0.29029050E+02</totfact>
</mgrwt>
</event>
<event>
 6    1  0.9190795E-004  0.4292398E+03  0.7818608E-02  0.1034224E+00
         21   -1    0    0  503  502  0.00000000000E+00  0.00000000000E+00  0.14929581575E+04  0.14929581575E+04  0.00000000000E+00 0. -1.
         21   -1    0    0  501  503 -0.00000000000E+00 -0.00000000000E+00 -0.13188997689E+03  0.13188997689E+03  0.00000000000E+00 0. -1.
    9000007    2    1    2  501    0  0.32736532525E+01 -0.15567954519E+03  0.46801014053E+03  0.63399017255E+03  0.39832550716E+03 0.  0.
    9000005    1    3    3    0    0  0.75667962001E+02 -0.12618533058E+03 -0.12028597602E+02  0.14762813174E+03  0.99999687468E+00 0.  0.
          4    1    3    3  501    0 -0.72394308749E+02 -0.29494214617E+02  0.48003873813E+03  0.48636204081E+03  0.00000000000E+00 0.  1.
   -9000007    1    1    2    0  502 -0.32736532525E+01  0.15567954519E+03  0.89305804006E+03  0.99085796183E+03  0.40000000000E+03 0. -1.
<mgrwt>
<rscale>  2 0.42884931E+03</rscale>
<asrwt>0</asrwt>
<pdfrwt beam="1">  1       21 0.22968586E+00 0.42923984E+03</pdfrwt>
<pdfrwt beam="2">  1       21 0.20290767E-01 0.42923984E+03</pdfrwt>
<totfact> 0.16635410E+03</totfact>
</mgrwt>
</event>
<event>
 6    1  0.9190795E-004  0.7660742E+03  0.7818608E-02  0.9610503E-01
         21   -1    0    0  503  502  0.00000000000E+00  0.00000000000E+00  0.25410176962E+04  0.25410176962E+04  0.00000000000E+00 0. -1.
         21   -1    0    0  501  503 -0.00000000000E+00 -0.00000000000E+00 -0.44265448626E+03  0.44265448626E+03  0.00000000000E+00 0. -1.
    9000007    2    1    2  501    0  0.64527435418E+03  0.10242401009E+03  0.17393159563E+02  0.76617223418E+03  0.39980958021E+03 0.  0.
    9000005    1    3    3    0    0  0.62573702825E+03  0.16558801820E+03  0.10570667453E+03  0.65585144761E+03  0.99999687468E+00 0.  0.
          4    1    3    3  501    0  0.19537325935E+02 -0.63164008107E+02 -0.88313514971E+02  0.11032078658E+03  0.00000000000E+00 0.  1.
   -9000007    1    1    2    0  502 -0.64527435418E+03 -0.10242401009E+03  0.20809700504E+04  0.22174999483E+04  0.40000000000E+03 0. -1.
<mgrwt>
<rscale>  2 0.76604934E+03</rscale>
<asrwt>0</asrwt>
<pdfrwt beam="1">  1       21 0.39092579E+00 0.76607419E+03</pdfrwt>
<pdfrwt beam="2">  1       21 0.68100692E-01 0.76607419E+03</pdfrwt>
<totfact> 0.11783612E+01</totfact>
</mgrwt>
</event>
<event>
 6    1  0.9190795E-004  0.4930194E+03  0.7818608E-02  0.1015766E+00
         21   -1    0    0  503  502  0.00000000000E+00  0.00000000000E+00  0.11687947636E+04  0.11687947636E+04  0.00000000000E+00 0. -1.
         21   -1    0    0  501  503 -0.00000000000E+00 -0.00000000000E+00 -0.26540650515E+03  0.26540650515E+03  0.00000000000E+00 0. -1.
    9000007    2    1    2  501    0 -0.10947870094E+03 -0.26246297388E+03  0.78882170525E+03  0.93021923167E+03  0.40273531964E+03 0.  0.
    9000005    1    3    3    0    0  0.45154651200E+02 -0.31191491990E+03  0.40280078946E+03  0.51144827281E+03  0.99999687468E+00 0.  0.
          4    1    3    3  501    0 -0.15463335214E+03  0.49451946015E+02  0.38602091579E+03  0.41877095886E+03  0.00000000000E+00 0.  1.
   -9000007    1    1    2    0  502  0.10947870094E+03  0.26246297388E+03  0.11456655325E+03  0.50398203712E+03  0.40000000000E+03 0. -1.
<mgrwt>
<rscale>  2 0.49246049E+03</rscale>
<asrwt>0</asrwt>
<pdfrwt beam="1">  1       21 0.17981458E+00 0.49301941E+03</pdfrwt>
<pdfrwt beam="2">  1       21 0.40831771E-01 0.49301941E+03</pdfrwt>
<totfact> 0.86618890E+02</totfact>
</mgrwt>
</event>
<event>
 6    1  0.9190795E-004  0.4299406E+03  0.7818608E-02  0.1033918E+00
         21   -1    0    0  503  502  0.00000000000E+00  0.00000000000E+00  0.38964110713E+03  0.38964110713E+03  0.00000000000E+00 0.  1.
         21   -1    0    0  501  503 -0.00000000000E+00 -0.00000000000E+00 -0.14138337131E+04  0.14138337131E+04  0.00000000000E+00 0.  1.
    9000007    2    1    2  501    0 -0.17421328129E+02 -0.15666976227E+03 -0.12472541577E+04  0.13191140323E+04  0.39946211236E+03 0.  0.
    9000005    1    3    3    0    0  0.52177198632E+02 -0.17622848184E+03 -0.20888691629E+03  0.27823314263E+03  0.99999687468E+00 0.  0.
          4    1    3    3  501    0 -0.69598526760E+02  0.19558719562E+02 -0.10383672414E+04  0.10408808896E+04  0.00000000000E+00 0.  1.
   -9000007    1    1    2    0  502  0.17421328129E+02  0.15666976227E+03  0.22306155168E+03  0.48436078797E+03  0.40000000000E+03 0.  1.
<mgrwt>
<rscale>  2 0.42981545E+03</rscale>
<asrwt>0</asrwt>
<pdfrwt beam="1">  1       21 0.59944786E-01 0.42994060E+03</pdfrwt>
<pdfrwt beam="2">  1       21 0.21751288E+00 0.42994060E+03</pdfrwt>
<totfact> 0.22045732E+02</totfact>
</mgrwt>
</event>
<event>
 6    1  0.9190795E-004  0.4997192E+03  0.7818608E-02  0.1013895E+00
         21   -1    0    0  503  502  0.00000000000E+00  0.00000000000E+00  0.51140821271E+03  0.51140821271E+03  0.00000000000E+00 0.  1.
         21   -1    0    0  501  503 -0.00000000000E+00 -0.00000000000E+00 -0.20264680723E+04  0.20264680723E+04  0.00000000000E+00 0.  1.
    9000007    2    1    2  501    0 -0.89089752771E+02 -0.28483335387E+03 -0.18634141590E+04  0.19292567475E+04  0.40081447851E+03 0.  0.
    9000005    1    3    3    0    0  0.11374100980E+03 -0.85085890417E+02 -0.11857411173E+04  0.11942192527E+04  0.99999687468E+00 0.  0.
          4    1    3    3  501    0 -0.20283076257E+03 -0.19974746345E+03 -0.67767304166E+03  0.73503749482E+03  0.00000000000E+00 0.  1.
   -9000007    1    1    2    0  502  0.89089752771E+02  0.28483335387E+03  0.34835429943E+03  0.60861953752E+03  0.40000000000E+03 0.  1.
<mgrwt>
<rscale>  2 0.49955585E+03</rscale>
<asrwt>0</asrwt>
<pdfrwt beam="1">  1       21 0.78678186E-01 0.49971919E+03</pdfrwt>
<pdfrwt beam="2">  1       21 0.31176432E+00 0.49971919E+03</pdfrwt>
<totfact> 0.30319797E+01</totfact>
</mgrwt>
</event>
<event>
 6    1  0.9190795E-004  0.5171075E+03  0.7818608E-02  0.1009444E+00
         21   -1    0    0  503  502  0.00000000000E+00  0.00000000000E+00  0.30737399365E+03  0.30737399365E+03  0.00000000000E+00 0. -1.
         21   -1    0    0  501  503 -0.00000000000E+00 -0.00000000000E+00 -0.86897380056E+03  0.86897380056E+03  0.00000000000E+00 0.  1.
    9000007    2    1    2  501    0  0.17713760757E+03 -0.27463015162E+03 -0.28151661006E+03  0.58877137420E+03  0.40075014304E+03 0.  0.
    9000005    1    3    3    0    0  0.95147246601E+02 -0.37513932707E+03 -0.20096783381E+03  0.43608666968E+03  0.99999687468E+00 0.  0.
          4    1    3    3  501    0  0.81990360967E+02  0.10050917545E+03 -0.80548776254E+02  0.15268470453E+03  0.00000000000E+00 0.  1.
   -9000007    1    1    2    0  502 -0.17713760757E+03  0.27463015162E+03 -0.28008319685E+03  0.58757642001E+03  0.40000000000E+03 0.  1.
<mgrwt>
<rscale>  2 0.51696212E+03</rscale>
<asrwt>0</asrwt>
<pdfrwt beam="1">  1       21 0.47288308E-01 0.51710746E+03</pdfrwt>
<pdfrwt beam="2">  1       21 0.13368827E+00 0.51710746E+03</pdfrwt>
<totfact> 0.14341223E+03</totfact>
</mgrwt>
</event>
<event>
 6    1  0.9190795E-004  0.4349550E+03  0.7818608E-02  0.1032349E+00
         21   -1    0    0  503  502  0.00000000000E+00  0.00000000000E+00  0.15978831934E+03  0.15978831934E+03  0.00000000000E+00 0. -1.
         21   -1    0    0  501  503 -0.00000000000E+00 -0.00000000000E+00 -0.15231531549E+04  0.15231531549E+04  0.00000000000E+00 0. -1.
    9000007    2    1    2  501    0 -0.13579235273E+03 -0.10366412077E+03 -0.10793072517E+04  0.11634469854E+04  0.39939821137E+03 0.  0.
    9000005    1    3    3    0    0 -0.13352648776E+03  0.11619493953E+03 -0.25564787964E+03  0.31094601664E+03  0.99999687468E+00 0.  0.
          4    1    3    3  501    0 -0.22658649664E+01 -0.21985906030E+03 -0.82365937204E+03  0.85250096874E+03  0.00000000000E+00 0.  1.
   -9000007    1    1    2    0  502  0.13579235273E+03  0.10366412077E+03 -0.28405758384E+03  0.51949448884E+03  0.40000000000E+03 0.  1.
<mgrwt>
<rscale>  2 0.43481655E+03</rscale>
<asrwt>0</asrwt>
<pdfrwt beam="1">  1       21 0.24582820E-01 0.43495496E+03</pdfrwt>
<pdfrwt beam="2">  1       21 0.23433124E+00 0.43495496E+03</pdfrwt>
<totfact> 0.10727950E+03</totfact>
</mgrwt>
</event>
<event>
 6    1  0.9190795E-004  0.4444245E+03  0.7818608E-02  0.1029422E+00
         21   -1    0    0  503  502  0.00000000000E+00  0.00000000000E+00  0.28458945994E+03  0.28458945994E+03  0.00000000000E+00 0. -1.
         21   -1    0    0  501  503 -0.00000000000E+00 -0.00000000000E+00 -0.70169550601E+03  0.70169550601E+03  0.00000000000E+00 0.  1.
    9000007    2    1    2  501    0  0.18221994550E+03 -0.65642876853E+02 -0.15529108439E+03  0.47047475863E+03  0.39964744688E+03 0.  0.
    9000005    1    3    3    0    0  0.13151181534E+03  0.47859399695E+02  0.10966720273E+03  0.17780262951E+03  0.99999687468E+00 0.  0.
          4    1    3    3  501    0  0.50708130160E+02 -0.11350227655E+03 -0.26495828712E+03  0.29267212912E+03  0.00000000000E+00 0.  1.
   -9000007    1    1    2    0  502 -0.18221994550E+03  0.65642876853E+02 -0.26181496168E+03  0.51581020732E+03  0.40000000000E+03 0.  1.
<mgrwt>
<rscale>  2 0.44434511E+03</rscale>
<asrwt>0</asrwt>
<pdfrwt beam="1">  1       21 0.43782994E-01 0.44442445E+03</pdfrwt>
<pdfrwt beam="2">  1       21 0.10795315E+00 0.44442445E+03</pdfrwt>
<totfact> 0.29815478E+03</totfact>
</mgrwt>
</event>
<event>
 6    1  0.9190795E-004  0.4789983E+03  0.7818608E-02  0.1019425E+00
         21   -1    0    0  503  502  0.00000000000E+00  0.00000000000E+00  0.10674912367E+04  0.10674912367E+04  0.00000000000E+00 0. -1.
         21   -1    0    0  501  503 -0.00000000000E+00 -0.00000000000E+00 -0.31596699237E+03  0.31596699237E+03  0.00000000000E+00 0.  1.
    9000007    2    1    2  501    0  0.11131508767E+03  0.23844220314E+03 -0.15514077211E+02  0.47924944805E+03  0.40024194419E+03 0.  0.
    9000005    1    3    3    0    0 -0.33132377606E+02  0.27694512456E+03  0.93561090326E+02  0.29419557115E+03  0.99999687468E+00 0.  0.
          4    1    3    3  501    0  0.14444746528E+03 -0.38502921427E+02 -0.10907516754E+03  0.18505387691E+03  0.00000000000E+00 0.  1.
   -9000007    1    1    2    0  502 -0.11131508767E+03 -0.23844220314E+03  0.76703832158E+03  0.90420878106E+03  0.40000000000E+03 0. -1.
<mgrwt>
<rscale>  2 0.47894773E+03</rscale>
<asrwt>0</asrwt>
<pdfrwt beam="1">  1       21 0.16422942E+00 0.47899827E+03</pdfrwt>
<pdfrwt beam="2">  1       21 0.48610307E-01 0.47899827E+03</pdfrwt>
<totfact> 0.78443243E+02</totfact>
</mgrwt>
</event>
<event>
 6    1  0.9190795E-004  0.4586937E+03  0.7818608E-02  0.1025181E+00
         21   -1    0    0  503  502  0.00000000000E+00  0.00000000000E+00  0.15863379038E+03  0.15863379038E+03  0.00000000000E+00 0. -1.
         21   -1    0    0  501  503 -0.00000000000E+00 -0.00000000000E+00 -0.13837595845E+04  0.13837595845E+04  0.00000000000E+00 0. -1.
    9000007    2    1    2  501    0 -0.17809298499E+03  0.13573988306E+03 -0.77096569910E+03  0.89709978353E+03  0.40032172719E+03 0.  0.
    9000005    1    3    3    0    0 -0.25714115434E+03  0.10311933575E+03 -0.26305106395E+03  0.38203669051E+03  0.99999687468E+00 0.  0.
          4    1    3    3  501    0  0.79048169347E+02  0.32620547318E+02 -0.50791463516E+03  0.51506309302E+03  0.00000000000E+00 0.  1.
   -9000007    1    1    2    0  502  0.17809298499E+03 -0.13573988306E+03 -0.45416009506E+03  0.64529359140E+03  0.40000000000E+03 0. -1.
<mgrwt>
<rscale>  2 0.45862350E+03</rscale>
<asrwt>0</asrwt>
<pdfrwt beam="1">  1       21 0.24405199E-01 0.45869370E+03</pdfrwt>
<pdfrwt beam="2">  1       21 0.21288609E+00 0.45869370E+03</pdfrwt>
<totfact> 0.14727859E+03</totfact>
</mgrwt>
</event>
<event>
 6    1  0.9190795E-004  0.4531237E+03  0.7818608E-02  0.1026883E+00
         21   -1    0    0  503  502  0.00000000000E+00  0.00000000000E+00  0.29269256545E+03  0.29269256545E+03  0.00000000000E+00 0.  1.
         21   -1    0    0  501  503 -0.00000000000E+00 -0.00000000000E+00 -0.72279188315E+03  0.72279188315E+03  0.00000000000E+00 0.  1.
    9000007    2    1    2  501    0 -0.14682893480E+03 -0.15059754112E+03 -0.12445250078E+03  0.46990371930E+03  0.40135112430E+03 0.  0.
    9000005    1    3    3    0    0 -0.50351140350E+02 -0.28274485450E+03 -0.10190960725E+03  0.30473998446E+03  0.99999687468E+00 0.  0.
          4    1    3    3  501    0 -0.96477794454E+02  0.13214731339E+03 -0.22542893527E+02  0.16516373484E+03  0.00000000000E+00 0.  1.
   -9000007    1    1    2    0  502  0.14682893480E+03  0.15059754112E+03 -0.30564681693E+03  0.54558072930E+03  0.40000000000E+03 0.  1.
<mgrwt>
<rscale>  2 0.45282432E+03</rscale>
<asrwt>0</asrwt>
<pdfrwt beam="1">  1       21 0.45029626E-01 0.45312369E+03</pdfrwt>
<pdfrwt beam="2">  1       21 0.11119875E+00 0.45312369E+03</pdfrwt>
<totfact> 0.26041825E+03</totfact>
</mgrwt>
</event>
<event>
 6    1  0.9190795E-004  0.4558022E+03  0.7818608E-02  0.1026021E+00
         21   -1    0    0  503  502  0.00000000000E+00  0.00000000000E+00  0.36371556098E+03  0.36371556098E+03  0.00000000000E+00 0.  1.
         21   -1    0    0  501  503 -0.00000000000E+00 -0.00000000000E+00 -0.58424691949E+03  0.58424691949E+03  0.00000000000E+00 0. -1.
    9000007    2    1    2  501    0  0.14005584338E+02  0.21808141453E+03 -0.38734288594E+02  0.45724276985E+03  0.39976861521E+03 0.  0.
    9000005    1    3    3    0    0 -0.25751370945E+02  0.18671128611E+03 -0.20792303924E+03  0.28063718162E+03  0.99999687468E+00 0.  0.
          4    1    3    3  501    0  0.39756955283E+02  0.31370128419E+02  0.16918875064E+03  0.17660558823E+03  0.00000000000E+00 0.  1.
   -9000007    1    1    2    0  502 -0.14005584338E+02 -0.21808141453E+03 -0.18179706992E+03  0.49071971062E+03  0.40000000000E+03 0. -1.
<mgrwt>
<rscale>  2 0.45575145E+03</rscale>
<asrwt>0</asrwt>
<pdfrwt beam="1">  1       21 0.55956241E-01 0.45580222E+03</pdfrwt>
<pdfrwt beam="2">  1       21 0.89884141E-01 0.45580222E+03</pdfrwt>
<totfact> 0.27472653E+03</totfact>
</mgrwt>
</event>
<event>
 6    1  0.9190795E-004  0.4077333E+03  0.7818608E-02  0.1041137E+00
         21   -1    0    0  503  502  0.00000000000E+00  0.00000000000E+00  0.32381505431E+03  0.32381505431E+03  0.00000000000E+00 0.  1.
         21   -1    0    0  501  503 -0.00000000000E+00 -0.00000000000E+00 -0.11723432542E+04  0.11723432542E+04  0.00000000000E+00 0.  1.
    9000007    2    1    2  501    0 -0.69276663299E+02 -0.37681163792E+02 -0.98513665422E+03  0.10661804068E+04  0.40003413115E+03 0.  0.
    9000005    1    3    3    0    0  0.11575125974E+03 -0.13087487867E+03 -0.26968526054E+03  0.32133740483E+03  0.99999687468E+00 0.  0.
          4    1    3    3  501    0 -0.18502792304E+03  0.93193714883E+02 -0.71545139368E+03  0.74484300193E+03  0.00000000000E+00 0.  1.
   -9000007    1    1    2    0  502  0.69276663299E+02  0.37681163792E+02  0.13660845434E+03  0.42997790173E+03  0.40000000000E+03 0.  1.
<mgrwt>
<rscale>  2 0.40772491E+03</rscale>
<asrwt>0</asrwt>
<pdfrwt beam="1">  1       21 0.49817701E-01 0.40773329E+03</pdfrwt>
<pdfrwt beam="2">  1       21 0.18036050E+00 0.40773329E+03</pdfrwt>
<totfact> 0.58873479E+02</totfact>
</mgrwt>
</event>
<event>
 6    1  0.9190795E-004  0.5051020E+03  0.7818608E-02  0.1012566E+00
         21   -1    0    0  503  502  0.00000000000E+00  0.00000000000E+00  0.59474195823E+03  0.59474195823E+03  0.00000000000E+00 0.  1.
         21   -1    0    0  501  503 -0.00000000000E+00 -0.00000000000E+00 -0.49422144211E+03  0.49422144211E+03  0.00000000000E+00 0.  1.
    9000007    2    1    2  501    0  0.17964960733E+02  0.30509984312E+03 -0.14968474467E+03  0.52681455296E+03  0.40214350217E+03 0.  0.
    9000005    1    3    3    0    0 -0.53831821431E+02 -0.85608583220E+02  0.31425219003E+01  0.10118087743E+03  0.99999687468E+00 0.  0.
          4    1    3    3  501    0  0.71796782164E+02  0.39070842634E+03 -0.15282726658E+03  0.42563367553E+03  0.00000000000E+00 0.  1.
   -9000007    1    1    2    0  502 -0.17964960733E+02 -0.30509984312E+03  0.25020526079E+03  0.56214884738E+03  0.40000000000E+03 0.  1.
<mgrwt>
<rscale>  2 0.50467525E+03</rscale>
<asrwt>0</asrwt>
<pdfrwt beam="1">  1       21 0.91498762E-01 0.50510202E+03</pdfrwt>
<pdfrwt beam="2">  1       21 0.76034068E-01 0.50510202E+03</pdfrwt>
<totfact> 0.13070116E+03</totfact>
</mgrwt>
</event>
<event>
 6    1  0.9190795E-004  0.5354793E+03  0.7818608E-02  0.1004924E+00
         21   -1    0    0  503  502  0.00000000000E+00  0.00000000000E+00  0.10290312924E+04  0.10290312924E+04  0.00000000000E+00 0. -1.
         21   -1    0    0  501  503 -0.00000000000E+00 -0.00000000000E+00 -0.30335949865E+03  0.30335949865E+03  0.00000000000E+00 0. -1.
    9000007    2    1    2  501    0  0.32614231866E+03 -0.14272096932E+03  0.17222167627E+03  0.56229656328E+03  0.39972369482E+03 0.  0.
    9000005    1    3    3    0    0  0.35992937004E+03 -0.89312594029E+02  0.26088281655E+03  0.45341673417E+03  0.99999687468E+00 0.  0.
          4    1    3    3  501    0 -0.33787051371E+02 -0.53408375294E+02 -0.88661140277E+02  0.10887982911E+03  0.00000000000E+00 0.  1.
   -9000007    1    1    2    0  502 -0.32614231866E+03  0.14272096932E+03  0.55345011753E+03  0.77009422781E+03  0.40000000000E+03 0. -1.
<mgrwt>
<rscale>  2 0.53542771E+03</rscale>
<asrwt>0</asrwt>
<pdfrwt beam="1">  1       21 0.15831251E+00 0.53547931E+03</pdfrwt>
<pdfrwt beam="2">  1       21 0.46670692E-01 0.53547931E+03</pdfrwt>
<totfact> 0.92724570E+02</totfact>
</mgrwt>
</event>
<event>
 6    1  0.9190795E-004  0.4163921E+03  0.7818608E-02  0.1039057E+00
         21   -1    0    0  503  502  0.00000000000E+00  0.00000000000E+00  0.30256025027E+03  0.30256025027E+03  0.00000000000E+00 0. -1.
         21   -1    0    0  501  503 -0.00000000000E+00 -0.00000000000E+00 -0.10960195131E+04  0.10960195131E+04  0.00000000000E+00 0. -1.
    9000007    2    1    2  501    0  0.27254854728E+02 -0.11242580718E+03 -0.88346888079E+03  0.97257023233E+03  0.38986305836E+03 0.  0.
    9000005    1    3    3    0    0 -0.32281069280E+02 -0.24838595959E+03 -0.64200950288E+03  0.68914066354E+03  0.99999687468E+00 0.  0.
          4    1    3    3  501    0  0.59535924008E+02  0.13596015241E+03 -0.24145937790E+03  0.28342956880E+03  0.00000000000E+00 0.  1.
   -9000007    1    1    2    0  502 -0.27254854728E+02  0.11242580718E+03  0.90009617941E+02  0.42600953105E+03  0.40000000000E+03 0. -1.
<mgrwt>
<rscale>  2 0.41393848E+03</rscale>
<asrwt>0</asrwt>
<pdfrwt beam="1">  1       21 0.46547731E-01 0.41639211E+03</pdfrwt>
<pdfrwt beam="2">  1       21 0.16861839E+00 0.41639211E+03</pdfrwt>
<totfact> 0.82081726E+02</totfact>
</mgrwt>
</event>
<event>
 6    1  0.9190795E-004  0.4485711E+03  0.7818608E-02  0.1028171E+00
         21   -1    0    0  503  502  0.00000000000E+00  0.00000000000E+00  0.18010567884E+03  0.18010567884E+03  0.00000000000E+00 0.  1.
         21   -1    0    0  501  503 -0.00000000000E+00 -0.00000000000E+00 -0.12010663274E+04  0.12010663274E+04  0.00000000000E+00 0.  1.
    9000007    2    1    2  501    0  0.20104826982E+03 -0.28206089584E+02 -0.32706849558E+03  0.55491398948E+03  0.39967454839E+03 0.  0.
    9000005    1    3    3    0    0  0.20142906805E+03  0.13712103519E+03 -0.77781636306E+02  0.25578668982E+03  0.99999687468E+00 0.  0.
          4    1    3    3  501    0 -0.38079823012E+00 -0.16532712478E+03 -0.24928685927E+03  0.29912729965E+03  0.00000000000E+00 0.  1.
   -9000007    1    1    2    0  502 -0.20104826982E+03  0.28206089584E+02 -0.69389215296E+03  0.82625801674E+03  0.40000000000E+03 0. -1.
<mgrwt>
<rscale>  2 0.44849849E+03</rscale>
<asrwt>0</asrwt>
<pdfrwt beam="1">  1       21 0.27708566E-01 0.44857105E+03</pdfrwt>
<pdfrwt beam="2">  1       21 0.18477943E+00 0.44857105E+03</pdfrwt>
<totfact> 0.17805248E+03</totfact>
</mgrwt>
</event>
<event>
 6    1  0.9190795E-004  0.5355087E+03  0.7818608E-02  0.1005410E+00
         21   -1    0    0  503  502  0.00000000000E+00  0.00000000000E+00  0.13219476627E+03  0.13219476627E+03  0.00000000000E+00 0. -1.
         21   -1    0    0  501  503 -0.00000000000E+00 -0.00000000000E+00 -0.21780836408E+04  0.21780836408E+04  0.00000000000E+00 0. -1.
    9000007    2    1    2  501    0  0.32937306761E+03 -0.96854950858E+02 -0.86932535275E+03  0.10210269886E+04  0.41097693780E+03 0.  0.
    9000005    1    3    3    0    0  0.23100731764E+03  0.59077143809E+02 -0.15762408809E+03  0.28583359296E+03  0.99999687468E+00 0.  0.
          4    1    3    3  501    0  0.98365749966E+02 -0.15593209467E+03 -0.71170126466E+03  0.73519339566E+03  0.00000000000E+00 0.  1.
   -9000007    1    1    2    0  502 -0.32937306761E+03  0.96854950858E+02 -0.11765635218E+04  0.12892514185E+04  0.40000000000E+03 0. -1.
<mgrwt>
<rscale>  2 0.53340195E+03</rscale>
<asrwt>0</asrwt>
<pdfrwt beam="1">  1       21 0.20337657E-01 0.53550868E+03</pdfrwt>
<pdfrwt beam="2">  1       21 0.33508978E+00 0.53550868E+03</pdfrwt>
<totfact> 0.35790519E+02</totfact>
</mgrwt>
</event>
<event>
 6    1  0.9190795E-004  0.4649930E+03  0.7818608E-02  0.1023364E+00
         21   -1    0    0  503  502  0.00000000000E+00  0.00000000000E+00  0.33167053155E+03  0.33167053155E+03  0.00000000000E+00 0. -1.
         21   -1    0    0  501  503 -0.00000000000E+00 -0.00000000000E+00 -0.74737140001E+03  0.74737140001E+03  0.00000000000E+00 0. -1.
    9000007    2    1    2  501    0 -0.22027528156E+03  0.87734287318E+02 -0.40102409011E+03  0.61381734852E+03  0.39966600013E+03 0.  0.
    9000005    1    3    3    0    0 -0.32727049876E+03  0.10151192270E+03 -0.36363807713E+03  0.49964417433E+03  0.99999687468E+00 0.  0.
          4    1    3    3  501    0  0.10699521719E+03 -0.13777635380E+02 -0.37386012978E+02  0.11417317419E+03  0.00000000000E+00 0.  1.
   -9000007    1    1    2    0  502  0.22027528156E+03 -0.87734287318E+02 -0.14676778352E+02  0.46522458304E+03  0.40000000000E+03 0. -1.
<mgrwt>
<rscale>  2 0.46492118E+03</rscale>
<asrwt>0</asrwt>
<pdfrwt beam="1">  1       21 0.51026236E-01 0.46499302E+03</pdfrwt>
<pdfrwt beam="2">  1       21 0.11498021E+00 0.46499302E+03</pdfrwt>
<totfact> 0.18310336E+03</totfact>
</mgrwt>
</event>
<event>
 6    1  0.9190795E-004  0.4292679E+03  0.7818608E-02  0.1034092E+00
         21   -1    0    0  503  502  0.00000000000E+00  0.00000000000E+00  0.64774070890E+03  0.64774070890E+03  0.00000000000E+00 0.  1.
         21   -1    0    0  501  503 -0.00000000000E+00 -0.00000000000E+00 -0.36797484364E+03  0.36797484364E+03  0.00000000000E+00 0.  1.
    9000007    2    1    2  501    0  0.10064839501E+03 -0.11891297183E+03 -0.10202894613E+03  0.44122649930E+03  0.40000065444E+03 0.  0.
    9000005    1    3    3    0    0  0.96659913440E+02 -0.78928044386E+02  0.14479514457E+03  0.19115284183E+03  0.99999687468E+00 0.  0.
          4    1    3    3  501    0  0.39884815666E+01 -0.39984927446E+02 -0.24682409070E+03  0.25007365747E+03  0.00000000000E+00 0.  1.
   -9000007    1    1    2    0  502 -0.10064839501E+03  0.11891297183E+03  0.38179481139E+03  0.57448905324E+03  0.40000000000E+03 0.  1.
<mgrwt>
<rscale>  2 0.42926773E+03</rscale>
<asrwt>0</asrwt>
<pdfrwt beam="1">  1       21 0.99652416E-01 0.42926789E+03</pdfrwt>
<pdfrwt beam="2">  1       21 0.56611515E-01 0.42926789E+03</pdfrwt>
<totfact> 0.21134371E+03</totfact>
</mgrwt>
</event>
<event>
 6    1  0.9190795E-004  0.6367129E+03  0.7818608E-02  0.9833052E-01
         21   -1    0    0  503  502  0.00000000000E+00  0.00000000000E+00  0.31480647892E+03  0.31480647892E+03  0.00000000000E+00 0. -1.
         21   -1    0    0  501  503 -0.00000000000E+00 -0.00000000000E+00 -0.14340315495E+04  0.14340315495E+04  0.00000000000E+00 0.  1.
    9000007    2    1    2  501    0  0.48283061859E+03  0.97980402822E+02 -0.84371934616E+03  0.10570078688E+04  0.40333327914E+03 0.  0.
    9000005    1    3    3    0    0  0.47344594989E+03  0.65716456371E+02 -0.43310157607E+03  0.64501759301E+03  0.99999687468E+00 0.  0.
          4    1    3    3  501    0  0.93846687091E+01  0.32263946451E+02 -0.41061777009E+03  0.41199027581E+03  0.00000000000E+00 0.  1.
   -9000007    1    1    2    0  502 -0.48283061859E+03 -0.97980402822E+02 -0.27550572447E+03  0.69183015965E+03  0.40000000000E+03 0. -1.
<mgrwt>
<rscale>  2 0.63618567E+03</rscale>
<asrwt>0</asrwt>
<pdfrwt beam="1">  1       21 0.48431765E-01 0.63671289E+03</pdfrwt>
<pdfrwt beam="2">  1       21 0.22062024E+00 0.63671289E+03</pdfrwt>
<totfact> 0.30387029E+02</totfact>
</mgrwt>
</event>
<event>
 6    1  0.9190795E-004  0.4414915E+03  0.7818608E-02  0.1030312E+00
         21   -1    0    0  503  502  0.00000000000E+00  0.00000000000E+00  0.96045010782E+03  0.96045010782E+03  0.00000000000E+00 0. -1.
         21   -1    0    0  501  503 -0.00000000000E+00 -0.00000000000E+00 -0.21091750010E+03  0.21091750010E+03  0.00000000000E+00 0. -1.
    9000007    2    1    2  501    0 -0.15966565533E+03 -0.95777655219E+02  0.48969717117E+03  0.65933154003E+03  0.40031022908E+03 0.  0.
    9000005    1    3    3    0    0 -0.23944947705E+03 -0.10538251596E+03  0.13259349765E+03  0.29329773668E+03  0.99999687468E+00 0.  0.
          4    1    3    3  501    0  0.79783821716E+02  0.96048607447E+01  0.35710367352E+03  0.36603380335E+03  0.00000000000E+00 0.  1.
   -9000007    1    1    2    0  502  0.15966565533E+03  0.95777655219E+02  0.25983543655E+03  0.51203606789E+03  0.40000000000E+03 0. -1.
<mgrwt>
<rscale>  2 0.44142118E+03</rscale>
<asrwt>0</asrwt>
<pdfrwt beam="1">  1       21 0.14776155E+00 0.44149152E+03</pdfrwt>
<pdfrwt beam="2">  1       21 0.32448847E-01 0.44149152E+03</pdfrwt>
<totfact> 0.24514208E+03</totfact>
</mgrwt>
</event>
<event>
 6    1  0.9190795E-004  0.4612731E+03  0.7818608E-02  0.1024415E+00
         21   -1    0    0  503  502  0.00000000000E+00  0.00000000000E+00  0.10332538770E+04  0.10332538770E+04  0.00000000000E+00 0. -1.
         21   -1    0    0  501  503 -0.00000000000E+00 -0.00000000000E+00 -0.38014691252E+03  0.38014691252E+03  0.00000000000E+00 0. -1.
    9000007    2    1    2  501    0 -0.21009384718E+03 -0.92916151668E+02 -0.15189184917E+03  0.48560990477E+03  0.39996626096E+03 0.  0.
    9000005    1    3    3    0    0 -0.25090581862E+03 -0.17410485441E+03  0.37083183652E+01  0.30541935395E+03  0.99999687468E+00 0.  0.
          4    1    3    3  501    0  0.40811971443E+02  0.81188702746E+02 -0.15560016754E+03  0.18019055082E+03  0.00000000000E+00 0.  1.
   -9000007    1    1    2    0  502  0.21009384718E+03  0.92916151668E+02  0.80499881369E+03  0.92779088479E+03  0.40000000000E+03 0. -1.
<mgrwt>
<rscale>  2 0.46126575E+03</rscale>
<asrwt>0</asrwt>
<pdfrwt beam="1">  1       21 0.15896213E+00 0.46127306E+03</pdfrwt>
<pdfrwt beam="2">  1       21 0.58484141E-01 0.46127306E+03</pdfrwt>
<totfact> 0.58187856E+02</totfact>
</mgrwt>
</event>
<event>
 6    1  0.9190795E-004  0.1071433E+04  0.7818608E-02  0.9233534E-01
         21   -1    0    0  503  502  0.00000000000E+00  0.00000000000E+00  0.17438913683E+04  0.17438913683E+04  0.00000000000E+00 0.  1.
         21   -1    0    0  501  503 -0.00000000000E+00 -0.00000000000E+00 -0.65848474884E+03  0.65848474884E+03  0.00000000000E+00 0. -1.
    9000007    2    1    2  501    0 -0.89356485013E+03  0.43532729193E+03  0.51664665122E+03  0.11893402999E+04  0.39954798740E+03 0.  0.
    9000005    1    3    3    0    0 -0.39458385320E+03  0.34177871187E+03  0.97624031845E+02  0.53107490685E+03  0.99999687468E+00 0.  0.
          4    1    3    3  501    0 -0.49898099693E+03  0.93548580060E+02  0.41902261937E+03  0.65826539304E+03  0.00000000000E+00 0.  1.
   -9000007    1    1    2    0  502  0.89356485013E+03 -0.43532729193E+03  0.56875996827E+03  0.12130358173E+04  0.40000000000E+03 0.  1.
<mgrwt>
<rscale>  2 0.10713905E+04</rscale>
<asrwt>0</asrwt>
<pdfrwt beam="1">  1       21 0.26829098E+00 0.10714327E+04</pdfrwt>
<pdfrwt beam="2">  1       21 0.10130535E+00 0.10714327E+04</pdfrwt>
<totfact> 0.24394052E+01</totfact>
</mgrwt>
</event>
<event>
 6    1  0.9190795E-004  0.5517169E+03  0.7818608E-02  0.1001273E+00
         21   -1    0    0  503  502  0.00000000000E+00  0.00000000000E+00  0.10418348073E+04  0.10418348073E+04  0.00000000000E+00 0.  1.
         21   -1    0    0  501  503 -0.00000000000E+00 -0.00000000000E+00 -0.29177428461E+03  0.29177428461E+03  0.00000000000E+00 0. -1.
    9000007    2    1    2  501    0 -0.41840672853E+01 -0.37552942048E+03  0.33301121306E+03  0.64442843436E+03  0.40416789447E+03 0.  0.
    9000005    1    3    3    0    0 -0.15843988677E+03 -0.25809340910E+03  0.58637622169E+02  0.30847167823E+03  0.99999687468E+00 0.  0.
          4    1    3    3  501    0  0.15425581948E+03 -0.11743601138E+03  0.27437359089E+03  0.33595675613E+03  0.00000000000E+00 0.  1.
   -9000007    1    1    2    0  502  0.41840672853E+01  0.37552942048E+03  0.41704930962E+03  0.68918065754E+03  0.40000000000E+03 0. -1.
<mgrwt>
<rscale>  2 0.55095384E+03</rscale>
<asrwt>0</asrwt>
<pdfrwt beam="1">  1       21 0.16028228E+00 0.55171690E+03</pdfrwt>
<pdfrwt beam="2">  1       21 0.44888352E-01 0.55171690E+03</pdfrwt>
<totfact> 0.96671624E+02</totfact>
</mgrwt>
</event>
<event>
 6    1  0.9190795E-004  0.4276189E+03  0.7818608E-02  0.1034620E+00
         21   -1    0    0  503  502  0.00000000000E+00  0.00000000000E+00  0.72240131606E+03  0.72240131606E+03  0.00000000000E+00 0. -1.
         21   -1    0    0  501  503 -0.00000000000E+00 -0.00000000000E+00 -0.25461750613E+03  0.25461750613E+03  0.00000000000E+00 0. -1.
    9000007    2    1    2  501    0  0.87609432679E+02 -0.12299599373E+03  0.19604014887E+03  0.47041439614E+03  0.40006816539E+03 0.  0.
    9000005    1    3    3    0    0  0.73102682347E+02  0.14328931643E+03  0.69471937153E+02  0.17522323024E+03  0.99999687468E+00 0.  0.
          4    1    3    3  501    0  0.14506750332E+02 -0.26628531016E+03  0.12656821172E+03  0.29519116591E+03  0.00000000000E+00 0.  1.
   -9000007    1    1    2    0  502 -0.87609432679E+02  0.12299599373E+03  0.27174366105E+03  0.50660442605E+03  0.40000000000E+03 0. -1.
<mgrwt>
<rscale>  2 0.42760300E+03</rscale>
<asrwt>0</asrwt>
<pdfrwt beam="1">  1       21 0.11113866E+00 0.42761895E+03</pdfrwt>
<pdfrwt beam="2">  1       21 0.39171924E-01 0.42761895E+03</pdfrwt>
<totfact> 0.35143086E+03</totfact>
</mgrwt>
</event>
<event>
 6    1  0.9190795E-004  0.4425565E+03  0.7818608E-02  0.1030000E+00
         21   -1    0    0  503  502  0.00000000000E+00  0.00000000000E+00  0.61660320909E+03  0.61660320909E+03  0.00000000000E+00 0.  1.
         21   -1    0    0  501  503 -0.00000000000E+00 -0.00000000000E+00 -0.72049370243E+03  0.72049370243E+03  0.00000000000E+00 0.  1.
    9000007    2    1    2  501    0  0.12414109789E+03  0.14155796249E+03 -0.55207285750E+03  0.70755970017E+03  0.40050795296E+03 0.  0.
    9000005    1    3    3    0    0 -0.63209270056E+02  0.18891715262E+01  0.37386954569E+02  0.73469484521E+02  0.99999687468E+00 0.  0.
          4    1    3    3  501    0  0.18735036794E+03  0.13966879096E+03 -0.58945981207E+03  0.63409021565E+03  0.00000000000E+00 0.  1.
   -9000007    1    1    2    0  502 -0.12414109789E+03 -0.14155796249E+03  0.44818236416E+03  0.62953721135E+03  0.40000000000E+03 0.  1.
<mgrwt>
<rscale>  2 0.44244158E+03</rscale>
<asrwt>0</asrwt>
<pdfrwt beam="1">  1       21 0.94862033E-01 0.44255654E+03</pdfrwt>
<pdfrwt beam="2">  1       21 0.11084518E+00 0.44255654E+03</pdfrwt>
<totfact> 0.50022180E+02</totfact>
</mgrwt>
</event>
<event>
 6    1  0.9190795E-004  0.4195935E+03  0.7818608E-02  0.1037271E+00
         21   -1    0    0  503  502  0.00000000000E+00  0.00000000000E+00  0.59279757209E+03  0.59279757209E+03  0.00000000000E+00 0.  1.
         21   -1    0    0  501  503 -0.00000000000E+00 -0.00000000000E+00 -0.10890022403E+04  0.10890022403E+04  0.00000000000E+00 0.  1.
    9000007    2    1    2  501    0 -0.30859750566E+02 -0.11983306614E+03 -0.96558284844E+03  0.10528100159E+04  0.40093192004E+03 0.  0.
    9000005    1    3    3    0    0 -0.11775662635E+03 -0.99730746965E+01 -0.52970044316E+02  0.12951027317E+03  0.99999687468E+00 0.  0.
          4    1    3    3  501    0  0.86896875780E+02 -0.10985999144E+03 -0.91261280412E+03  0.92329974276E+03  0.00000000000E+00 0.  1.
   -9000007    1    1    2    0  502  0.30859750566E+02  0.11983306614E+03  0.46937818024E+03  0.62898979645E+03  0.40000000000E+03 0.  1.
<mgrwt>
<rscale>  2 0.41937071E+03</rscale>
<asrwt>0</asrwt>
<pdfrwt beam="1">  1       21 0.91199627E-01 0.41959348E+03</pdfrwt>
<pdfrwt beam="2">  1       21 0.16753880E+00 0.41959348E+03</pdfrwt>
<totfact> 0.18690738E+02</totfact>
</mgrwt>
</event>
<event>
 6    1  0.9190795E-004  0.5443124E+03  0.7818608E-02  0.1002882E+00
         21   -1    0    0  503  502  0.00000000000E+00  0.00000000000E+00  0.27433504670E+03  0.27433504670E+03  0.00000000000E+00 0. -1.
         21   -1    0    0  501  503 -0.00000000000E+00 -0.00000000000E+00 -0.14941364143E+04  0.14941364143E+04  0.00000000000E+00 0. -1.
    9000007    2    1    2  501    0  0.83210856372E+02  0.35804018770E+03 -0.10770569170E+04  0.12067840027E+04  0.40144638997E+03 0.  0.
    9000005    1    3    3    0    0  0.17700222500E+03  0.90808355165E+02 -0.18803560242E+03  0.27374136113E+03  0.99999687468E+00 0.  0.
          4    1    3    3  501    0 -0.93791368630E+02  0.26723183253E+03 -0.88902131462E+03  0.93304264158E+03  0.00000000000E+00 0.  1.
   -9000007    1    1    2    0  502 -0.83210856372E+02 -0.35804018770E+03 -0.14274445054E+03  0.56168745828E+03  0.40000000000E+03 0. -1.
<mgrwt>
<rscale>  2 0.54404577E+03</rscale>
<asrwt>0</asrwt>
<pdfrwt beam="1">  1       21 0.42205391E-01 0.54431243E+03</pdfrwt>
<pdfrwt beam="2">  1       21 0.22986714E+00 0.54431243E+03</pdfrwt>
<totfact> 0.36745515E+02</totfact>
</mgrwt>
</event>
<event>
 6    1  0.9190795E-004  0.5040210E+03  0.7818608E-02  0.1012867E+00
         21   -1    0    0  503  502  0.00000000000E+00  0.00000000000E+00  0.50102564232E+03  0.50102564232E+03  0.00000000000E+00 0. -1.
         21   -1    0    0  501  503 -0.00000000000E+00 -0.00000000000E+00 -0.54343766945E+03  0.54343766945E+03  0.00000000000E+00 0. -1.
    9000007    2    1    2  501    0 -0.18241871582E+03 -0.24649661839E+03  0.11775101548E+03  0.51560664784E+03  0.39742639934E+03 0.  0.
    9000005    1    3    3    0    0  0.47925667141E+02 -0.53474305513E+02  0.19289364721E+03  0.20582839952E+03  0.99999687468E+00 0.  0.
          4    1    3    3  501    0 -0.23034438296E+03 -0.19302231288E+03 -0.75142631726E+02  0.30977824833E+03  0.00000000000E+00 0.  1.
   -9000007    1    1    2    0  502  0.18241871582E+03  0.24649661839E+03 -0.16016304262E+03  0.52885666393E+03  0.40000000000E+03 0. -1.
<mgrwt>
<rscale>  2 0.50351022E+03</rscale>
<asrwt>0</asrwt>
<pdfrwt beam="1">  1       21 0.77080868E-01 0.50402100E+03</pdfrwt>
<pdfrwt beam="2">  1       21 0.83605795E-01 0.50402100E+03</pdfrwt>
<totfact> 0.15678472E+03</totfact>
</mgrwt>
</event>
<event>
 6    1  0.9190795E-004  0.5673056E+03  0.7818608E-02  0.9975960E-01
         21   -1    0    0  503  502  0.00000000000E+00  0.00000000000E+00  0.85704894955E+03  0.85704894955E+03  0.00000000000E+00 0.  1.
         21   -1    0    0  501  503 -0.00000000000E+00 -0.00000000000E+00 -0.38941322702E+03  0.38941322702E+03  0.00000000000E+00 0.  1.
    9000007    2    1    2  501    0  0.30856587461E+03 -0.25811383075E+03  0.11446599531E+03  0.57820735630E+03  0.39923130412E+03 0.  0.
    9000005    1    3    3    0    0 -0.27045830857E+02  0.90070400291E+01  0.14538370012E+03  0.14815540487E+03  0.99999687468E+00 0.  0.
          4    1    3    3  501    0  0.33561170547E+03 -0.26712087078E+03 -0.30917704811E+02  0.43005195143E+03  0.00000000000E+00 0.  1.
   -9000007    1    1    2    0  502 -0.30856587461E+03  0.25811383075E+03  0.35316972721E+03  0.66825482028E+03  0.40000000000E+03 0.  1.
<mgrwt>
<rscale>  2 0.56717012E+03</rscale>
<asrwt>0</asrwt>
<pdfrwt beam="1">  1       21 0.13185368E+00 0.56730560E+03</pdfrwt>
<pdfrwt beam="2">  1       21 0.59909727E-01 0.56730560E+03</pdfrwt>
<totfact> 0.87752065E+02</totfact>
</mgrwt>
</event>
<event>
 6    1  0.9190795E-004  0.4461933E+03  0.7818608E-02  0.1028984E+00
         21   -1    0    0  503  502  0.00000000000E+00  0.00000000000E+00  0.34044633786E+03  0.34044633786E+03  0.00000000000E+00 0. -1.
         21   -1    0    0  501  503 -0.00000000000E+00 -0.00000000000E+00 -0.69793938063E+03  0.69793938063E+03  0.00000000000E+00 0. -1.
    9000007    2    1    2  501    0  0.15094021178E+03 -0.12198574525E+03  0.31962422581E+02  0.44733662656E+03  0.40177729084E+03 0.  0.
    9000005    1    3    3    0    0  0.21889814211E+03 -0.96746964027E+01 -0.11732108545E+03  0.24854624008E+03  0.99999687468E+00 0.  0.
          4    1    3    3  501    0 -0.67957930335E+02 -0.11231104885E+03  0.14928350803E+03  0.19879038649E+03  0.00000000000E+00 0.  1.
   -9000007    1    1    2    0  502 -0.15094021178E+03  0.12198574525E+03 -0.38945546535E+03  0.59104909193E+03  0.40000000000E+03 0. -1.
<mgrwt>
<rscale>  2 0.44579284E+03</rscale>
<asrwt>0</asrwt>
<pdfrwt beam="1">  1       21 0.52376360E-01 0.44619330E+03</pdfrwt>
<pdfrwt beam="2">  1       21 0.10737529E+00 0.44619330E+03</pdfrwt>
<totfact> 0.20674087E+03</totfact>
</mgrwt>
</event>
<event>
 6    1  0.9190795E-004  0.4576208E+03  0.7818608E-02  0.1025586E+00
         21   -1    0    0  503  502  0.00000000000E+00  0.00000000000E+00  0.30459674979E+03  0.30459674979E+03  0.00000000000E+00 0.  1.
         21   -1    0    0  501  503 -0.00000000000E+00 -0.00000000000E+00 -0.70449089202E+03  0.70449089202E+03  0.00000000000E+00 0.  1.
    9000007    2    1    2  501    0 -0.20681244873E+03 -0.81519611077E+02 -0.11617096280E+03  0.47064945736E+03  0.39824412510E+03 0.  0.
    9000005    1    3    3    0    0 -0.14544380666E+03 -0.90907722042E+02  0.13098524915E+03  0.21581531529E+03  0.99999687468E+00 0.  0.
          4    1    3    3  501    0 -0.61368642067E+02  0.93881109650E+01 -0.24715621196E+03  0.25483414207E+03  0.00000000000E+00 0.  1.
   -9000007    1    1    2    0  502  0.20681244873E+03  0.81519611077E+02 -0.28372317943E+03  0.53843818446E+03  0.40000000000E+03 0.  1.
<mgrwt>
<rscale>  2 0.45723686E+03</rscale>
<asrwt>0</asrwt>
<pdfrwt beam="1">  1       21 0.46861039E-01 0.45762084E+03</pdfrwt>
<pdfrwt beam="2">  1       21 0.10838321E+00 0.45762084E+03</pdfrwt>
<totfact> 0.25480825E+03</totfact>
</mgrwt>
</event>
<event>
 6    1  0.9190795E-004  0.6255768E+03  0.7818608E-02  0.9853907E-01
         21   -1    0    0  503  502  0.00000000000E+00  0.00000000000E+00  0.12678792846E+04  0.12678792846E+04  0.00000000000E+00 0. -1.
         21   -1    0    0  501  503 -0.00000000000E+00 -0.00000000000E+00 -0.47817033402E+03  0.47817033402E+03  0.00000000000E+00 0.  1.
    9000007    2    1    2  501    0 -0.31739131793E+03  0.36139885076E+03 -0.12530648251E+03  0.63762748747E+03  0.39940045091E+03 0.  0.
    9000005    1    3    3    0    0 -0.34664422436E+03  0.39474320757E+03 -0.22688438917E+02  0.52583284745E+03  0.99999687468E+00 0.  0.
          4    1    3    3  501    0  0.29252906429E+02 -0.33344356812E+02 -0.10261804359E+03  0.11179464001E+03  0.00000000000E+00 0.  1.
   -9000007    1    1    2    0  502  0.31739131793E+03 -0.36139885076E+03  0.91501543308E+03  0.11084221311E+04  0.40000000000E+03 0. -1.
<mgrwt>
<rscale>  2 0.62548102E+03</rscale>
<asrwt>0</asrwt>
<pdfrwt beam="1">  1       21 0.19505835E+00 0.62557684E+03</pdfrwt>
<pdfrwt beam="2">  1       21 0.73564667E-01 0.62557684E+03</pdfrwt>
<totfact> 0.17935268E+02</totfact>
</mgrwt>
</event>
<event>
 6    1  0.9190795E-004  0.4435802E+03  0.7818608E-02  0.1030148E+00
         21   -1    0    0  503  502  0.00000000000E+00  0.00000000000E+00  0.16807559762E+04  0.16807559762E+04  0.00000000000E+00 0. -1.
         21   -1    0    0  501  503 -0.00000000000E+00 -0.00000000000E+00 -0.11499639714E+04  0.11499639714E+04  0.00000000000E+00 0. -1.
    9000007    2    1    2  501    0  0.15764351383E+03 -0.10914167366E+03 -0.10772817552E+04  0.11625878786E+04  0.39282465934E+03 0.  0.
    9000005    1    3    3    0    0  0.14227156592E+03 -0.10719075478E+01 -0.10362519378E+04  0.10459739127E+04  0.99999687468E+00 0.  0.
          4    1    3    3  501    0  0.15371947903E+02 -0.10806976611E+03 -0.41029817424E+02  0.11661396592E+03  0.00000000000E+00 0.  1.
   -9000007    1    1    2    0  502 -0.15764351383E+03  0.10914167366E+03  0.16080737600E+04  0.16681320691E+04  0.40000000000E+03 0. -1.
<mgrwt>
<rscale>  2 0.44195645E+03</rscale>
<asrwt>0</asrwt>
<pdfrwt beam="1">  1       21 0.25857784E+00 0.44358019E+03</pdfrwt>
<pdfrwt beam="2">  1       21 0.17691754E+00 0.44358019E+03</pdfrwt>
<totfact> 0.83483189E+00</totfact>
</mgrwt>
</event>
<event>
 6    1  0.9190795E-004  0.4431717E+03  0.7818608E-02  0.1029799E+00
         21   -1    0    0  503  502  0.00000000000E+00  0.00000000000E+00  0.15901364560E+03  0.15901364560E+03  0.00000000000E+00 0. -1.
         21   -1    0    0  501  503 -0.00000000000E+00 -0.00000000000E+00 -0.13675834697E+04  0.13675834697E+04  0.00000000000E+00 0.  1.
    9000007    2    1    2  501    0  0.15976506554E+03 -0.10428924483E+03 -0.84235162681E+03  0.95169113101E+03  0.39969816475E+03 0.  0.
    9000005    1    3    3    0    0 -0.49475767519E+02  0.11538043430E+03 -0.36603344158E+03  0.38696508439E+03  0.99999687468E+00 0.  0.
          4    1    3    3  501    0  0.20924083306E+03 -0.21966967913E+03 -0.47631818523E+03  0.56472604662E+03  0.00000000000E+00 0.  1.
   -9000007    1    1    2    0  502 -0.15976506554E+03  0.10428924483E+03 -0.36621819733E+03  0.57490598432E+03  0.40000000000E+03 0. -1.
<mgrwt>
<rscale>  2 0.44310354E+03</rscale>
<asrwt>0</asrwt>
<pdfrwt beam="1">  1       21 0.24463638E-01 0.44317166E+03</pdfrwt>
<pdfrwt beam="2">  1       21 0.21039745E+00 0.44317166E+03</pdfrwt>
<totfact> 0.15322675E+03</totfact>
</mgrwt>
</event>
<event>
 6    1  0.9190795E-004  0.4386783E+03  0.7818608E-02  0.1031220E+00
         21   -1    0    0  503  502  0.00000000000E+00  0.00000000000E+00  0.79664528458E+03  0.79664528458E+03  0.00000000000E+00 0.  1.
         21   -1    0    0  501  503 -0.00000000000E+00 -0.00000000000E+00 -0.25268464827E+03  0.25268464827E+03  0.00000000000E+00 0.  1.
    9000007    2    1    2  501    0 -0.17658177064E+03  0.22167206455E+02  0.15980319796E+03  0.46687869523E+03  0.40095654031E+03 0.  0.
    9000005    1    3    3    0    0  0.12259466101E+02 -0.16880571933E+03  0.76007843816E+02  0.18553667482E+03  0.99999687468E+00 0.  0.
          4    1    3    3  501    0 -0.18884123674E+03  0.19097292578E+03  0.83795354142E+02  0.28134202041E+03  0.00000000000E+00 0.  1.
   -9000007    1    1    2    0  502  0.17658177064E+03 -0.22167206455E+02  0.38415743835E+03  0.58245123762E+03  0.40000000000E+03 0.  1.
<mgrwt>
<rscale>  2 0.43845961E+03</rscale>
<asrwt>0</asrwt>
<pdfrwt beam="1">  1       21 0.12256081E+00 0.43867830E+03</pdfrwt>
<pdfrwt beam="2">  1       21 0.38874561E-01 0.43867830E+03</pdfrwt>
<totfact> 0.27795758E+03</totfact>
</mgrwt>
</event>
<event>
 6    1  0.9190795E-004  0.4033770E+03  0.7818608E-02  0.1042750E+00
         21   -1    0    0  503  502  0.00000000000E+00  0.00000000000E+00  0.31561961983E+03  0.31561961983E+03  0.00000000000E+00 0.  1.
         21   -1    0    0  501  503 -0.00000000000E+00 -0.00000000000E+00 -0.20966419037E+04  0.20966419037E+04  0.00000000000E+00 0.  1.
    9000007    2    1    2  501    0  0.20590333438E+02 -0.47843808283E+02 -0.19381469960E+04  0.19793629593E+04  0.39843563405E+03 0.  0.
    9000005    1    3    3    0    0 -0.21354811344E+02  0.16699855776E+03 -0.58965877511E+03  0.61322346442E+03  0.99999687468E+00 0.  0.
          4    1    3    3  501    0  0.41945144782E+02 -0.21484236604E+03 -0.13484882209E+04  0.13661394948E+04  0.00000000000E+00 0.  1.
   -9000007    1    1    2    0  502 -0.20590333438E+02  0.47843808283E+02  0.15712471212E+03  0.43289856431E+03  0.40000000000E+03 0.  1.
<mgrwt>
<rscale>  2 0.40298862E+03</rscale>
<asrwt>0</asrwt>
<pdfrwt beam="1">  1       21 0.48556863E-01 0.40337698E+03</pdfrwt>
<pdfrwt beam="2">  1       21 0.32256030E+00 0.40337698E+03</pdfrwt>
<totfact> 0.80875258E+01</totfact>
</mgrwt>
</event>
<event>
 6    1  0.9190795E-004  0.4151796E+03  0.7818608E-02  0.1038664E+00
         21   -1    0    0  503  502  0.00000000000E+00  0.00000000000E+00  0.88365419269E+03  0.88365419269E+03  0.00000000000E+00 0. -1.
         21   -1    0    0  501  503 -0.00000000000E+00 -0.00000000000E+00 -0.31537802902E+03  0.31537802902E+03  0.00000000000E+00 0. -1.
    9000007    2    1    2  501    0 -0.10705190364E+03  0.30232549444E+02 -0.86337502673E+02  0.42385922859E+03  0.39978539765E+03 0.  0.
    9000005    1    3    3    0    0  0.86829796090E+02 -0.12180063489E+03 -0.95213305854E+02  0.17731717840E+03  0.99999687468E+00 0.  0.
          4    1    3    3  501    0 -0.19388169973E+03  0.15203318434E+03  0.88758031809E+01  0.24654205019E+03  0.00000000000E+00 0.  1.
   -9000007    1    1    2    0  502  0.10705190364E+03 -0.30232549444E+02  0.65461366633E+03  0.77517299312E+03  0.40000000000E+03 0. -1.
<mgrwt>
<rscale>  2 0.41512792E+03</rscale>
<asrwt>0</asrwt>
<pdfrwt beam="1">  1       21 0.13594680E+00 0.41517962E+03</pdfrwt>
<pdfrwt beam="2">  1       21 0.48519697E-01 0.41517962E+03</pdfrwt>
<totfact> 0.13529945E+03</totfact>
</mgrwt>
</event>
<event>
 6    1  0.9190795E-004  0.4119292E+03  0.7818608E-02  0.1039741E+00
         21   -1    0    0  503  502  0.00000000000E+00  0.00000000000E+00  0.48994026988E+03  0.48994026988E+03  0.00000000000E+00 0.  1.
         21   -1    0    0  501  503 -0.00000000000E+00 -0.00000000000E+00 -0.13553534513E+04  0.13553534513E+04  0.00000000000E+00 0.  1.
    9000007    2    1    2  501    0 -0.23052365368E+02  0.94891772771E+02 -0.12288733116E+04  0.12960768912E+04  0.40018724597E+03 0.  0.
    9000005    1    3    3    0    0 -0.12361208864E+02  0.19669238623E+03 -0.28405280959E+03  0.34572777284E+03  0.99999687468E+00 0.  0.
          4    1    3    3  501    0 -0.10691156505E+02 -0.10180061346E+03 -0.94482050202E+03  0.95034911836E+03  0.00000000000E+00 0.  1.
   -9000007    1    1    2    0  502  0.23052365368E+02 -0.94891772771E+02  0.36346013019E+03  0.54921682997E+03  0.40000000000E+03 0.  1.
<mgrwt>
<rscale>  2 0.41188375E+03</rscale>
<asrwt>0</asrwt>
<pdfrwt beam="1">  1       21 0.75375427E-01 0.41192923E+03</pdfrwt>
<pdfrwt beam="2">  1       21 0.20851591E+00 0.41192923E+03</pdfrwt>
<totfact> 0.15274142E+02</totfact>
</mgrwt>
</event>
<event>
 6    1  0.9190795E-004  0.4022757E+03  0.7818608E-02  0.1043002E+00
         21   -1    0    0  503  502  0.00000000000E+00  0.00000000000E+00  0.13384617532E+03  0.13384617532E+03  0.00000000000E+00 0.  1.
         21   -1    0    0  501  503 -0.00000000000E+00 -0.00000000000E+00 -0.14813042901E+04  0.14813042901E+04  0.00000000000E+00 0.  1.
    9000007    2    1    2  501    0 -0.24758667973E-01 -0.41900569841E+02 -0.10201765750E+04  0.10966248010E+04  0.40008755502E+03 0.  0.
    9000005    1    3    3    0    0  0.17089899543E+03  0.14322264582E+02 -0.23398788684E+03  0.29010847124E+03  0.99999687468E+00 0.  0.
          4    1    3    3  501    0 -0.17092375410E+03 -0.56222834423E+02 -0.78618868811E+03  0.80651632975E+03  0.00000000000E+00 0.  1.
   -9000007    1    1    2    0  502  0.24758667973E-01  0.41900569841E+02 -0.32728153982E+03  0.51852566443E+03  0.40000000000E+03 0.  1.
<mgrwt>
<rscale>  2 0.40225389E+03</rscale>
<asrwt>0</asrwt>
<pdfrwt beam="1">  1       21 0.20591720E-01 0.40227566E+03</pdfrwt>
<pdfrwt beam="2">  1       21 0.22789296E+00 0.40227566E+03</pdfrwt>
<totfact> 0.16823951E+03</totfact>
</mgrwt>
</event>
<event>
 6    1  0.9190795E-004  0.4299638E+03  0.7818608E-02  0.1033943E+00
         21   -1    0    0  503  502  0.00000000000E+00  0.00000000000E+00  0.87707406349E+03  0.87707406349E+03  0.00000000000E+00 0. -1.
         21   -1    0    0  501  503 -0.00000000000E+00 -0.00000000000E+00 -0.38350000254E+03  0.38350000254E+03  0.00000000000E+00 0. -1.
    9000007    2    1    2  501    0 -0.15434965930E+03 -0.16190977654E+02 -0.17660381502E+03  0.46482011503E+03  0.40097738935E+03 0.  0.
    9000005    1    3    3    0    0 -0.16259186374E+03  0.14146626331E+03 -0.21277368510E+03  0.30285715919E+03  0.99999687468E+00 0.  0.
          4    1    3    3  501    0  0.82422044353E+01 -0.15765724096E+03  0.36169870079E+02  0.16196295584E+03  0.00000000000E+00 0.  1.
   -9000007    1    1    2    0  502  0.15434965930E+03  0.16190977654E+02  0.67017787597E+03  0.79575395100E+03  0.40000000000E+03 0. -1.
<mgrwt>
<rscale>  2 0.42973574E+03</rscale>
<asrwt>0</asrwt>
<pdfrwt beam="1">  1       21 0.13493447E+00 0.42996376E+03</pdfrwt>
<pdfrwt beam="2">  1       21 0.59000001E-01 0.42996376E+03</pdfrwt>
<totfact> 0.90068525E+02</totfact>
</mgrwt>
</event>
<event>
 6    1  0.9190795E-004  0.4022489E+03  0.7818608E-02  0.1043055E+00
         21   -1    0    0  503  502  0.00000000000E+00  0.00000000000E+00  0.15509888316E+04  0.15509888316E+04  0.00000000000E+00 0. -1.
         21   -1    0    0  501  503 -0.00000000000E+00 -0.00000000000E+00 -0.12303878211E+03  0.12303878211E+03  0.00000000000E+00 0. -1.
    9000007    2    1    2  501    0  0.26848060248E+02  0.24602048099E+02  0.38663320191E+03  0.55793314809E+03  0.40059716151E+03 0.  0.
    9000005    1    3    3    0    0  0.14578303238E+03  0.15360695050E+03  0.28530090792E+03  0.35531028106E+03  0.99999687468E+00 0.  0.
          4    1    3    3  501    0 -0.11893497213E+03 -0.12900490240E+03  0.10133229399E+03  0.20262286703E+03  0.00000000000E+00 0.  1.
   -9000007    1    1    2    0  502 -0.26848060248E+02 -0.24602048099E+02  0.10413168475E+04  0.11160944656E+04  0.40000000000E+03 0. -1.
<mgrwt>
<rscale>  2 0.40210013E+03</rscale>
<asrwt>0</asrwt>
<pdfrwt beam="1">  1       21 0.23861365E+00 0.40224888E+03</pdfrwt>
<pdfrwt beam="2">  1       21 0.18929045E-01 0.40224888E+03</pdfrwt>
<totfact> 0.16922186E+03</totfact>
</mgrwt>
</event>
<event>
 6    1  0.9190795E-004  0.4280353E+03  0.7818608E-02  0.1034787E+00
         21   -1    0    0  503  502  0.00000000000E+00  0.00000000000E+00  0.98673744333E+02  0.98673744333E+02  0.00000000000E+00 0.  1.
         21   -1    0    0  501  503 -0.00000000000E+00 -0.00000000000E+00 -0.18407140777E+04  0.18407140777E+04  0.00000000000E+00 0.  1.
    9000007    2    1    2  501    0  0.79074513980E+02  0.11710701394E+03 -0.85995160699E+03  0.96058888830E+03  0.40403887745E+03 0.  0.
    9000005    1    3    3    0    0  0.22735510275E+03  0.69308832419E+01 -0.34250613761E+03  0.41115670271E+03  0.99999687468E+00 0.  0.
          4    1    3    3  501    0 -0.14828058877E+03  0.11017613069E+03 -0.51744546938E+03  0.54943218559E+03  0.00000000000E+00 0.  1.
   -9000007    1    1    2    0  502 -0.79074513980E+02 -0.11710701394E+03 -0.88208872637E+03  0.97879893373E+03  0.40000000000E+03 0.  1.
<mgrwt>
<rscale>  2 0.42707955E+03</rscale>
<asrwt>0</asrwt>
<pdfrwt beam="1">  1       21 0.15180577E-01 0.42803533E+03</pdfrwt>
<pdfrwt beam="2">  1       21 0.28318676E+00 0.42803533E+03</pdfrwt>
<totfact> 0.13523707E+03</totfact>
</mgrwt>
</event>
<event>
 6    1  0.9190795E-004  0.5726557E+03  0.7818608E-02  0.9964026E-01
         21   -1    0    0  503  502  0.00000000000E+00  0.00000000000E+00  0.48110583577E+03  0.48110583577E+03  0.00000000000E+00 0. -1.
         21   -1    0    0  501  503 -0.00000000000E+00 -0.00000000000E+00 -0.94715818943E+03  0.94715818943E+03  0.00000000000E+00 0.  1.
    9000007    2    1    2  501    0 -0.15934245379E+03  0.37697984277E+03 -0.61151608568E+03  0.83778666173E+03  0.40053807320E+03 0.  0.
    9000005    1    3    3    0    0  0.26794825811E+02 -0.30851366430E+02  0.33108998093E+02  0.52602046056E+02  0.99999687468E+00 0.  0.
          4    1    3    3  501    0 -0.18613727960E+03  0.40783120920E+03 -0.64462508378E+03  0.78518461567E+03  0.00000000000E+00 0.  1.
   -9000007    1    1    2    0  502  0.15934245379E+03 -0.37697984277E+03  0.14546373203E+03  0.59047736347E+03  0.40000000000E+03 0. -1.
<mgrwt>
<rscale>  2 0.57256164E+03</rscale>
<asrwt>0</asrwt>
<pdfrwt beam="1">  1       21 0.74016284E-01 0.57265571E+03</pdfrwt>
<pdfrwt beam="2">  1       21 0.14571664E+00 0.57265571E+03</pdfrwt>
<totfact> 0.41734388E+02</totfact>
</mgrwt>
</event>
<event>
 6    1  0.9190795E-004  0.4182327E+03  0.7818608E-02  0.1038272E+00
         21   -1    0    0  503  502  0.00000000000E+00  0.00000000000E+00  0.44554179733E+03  0.44554179733E+03  0.00000000000E+00 0. -1.
         21   -1    0    0  501  503 -0.00000000000E+00 -0.00000000000E+00 -0.39950414510E+03  0.39950414510E+03  0.00000000000E+00 0. -1.
    9000007    2    1    2  501    0  0.57503282406E+02  0.10775866601E+03 -0.56334031697E+02  0.41446665907E+03  0.39203383880E+03 0.  0.
    9000005    1    3    3    0    0  0.60036322359E+02 -0.12899526156E+03 -0.99728583678E+02  0.17375536799E+03  0.99999687468E+00 0.  0.
          4    1    3    3  501    0 -0.25330399526E+01  0.23675392758E+03  0.43394551981E+02  0.24071129108E+03  0.00000000000E+00 0.  1.
   -9000007    1    1    2    0  502 -0.57503282406E+02 -0.10775866601E+03  0.10237168393E+03  0.43057928336E+03  0.40000000000E+03 0.  1.
<mgrwt>
<rscale>  2 0.41631646E+03</rscale>
<asrwt>0</asrwt>
<pdfrwt beam="1">  1       21 0.68544892E-01 0.41823266E+03</pdfrwt>
<pdfrwt beam="2">  1       21 0.61462176E-01 0.41823266E+03</pdfrwt>
<totfact> 0.42335425E+03</totfact>
</mgrwt>
</event>
<event>
 6    1  0.9190795E-004  0.4374205E+03  0.7818608E-02  0.1031552E+00
         21   -1    0    0  503  502  0.00000000000E+00  0.00000000000E+00  0.16802500765E+04  0.16802500765E+04  0.00000000000E+00 0. -1.
         21   -1    0    0  501  503 -0.00000000000E+00 -0.00000000000E+00 -0.13561336683E+03  0.13561336683E+03  0.00000000000E+00 0.  1.
    9000007    2    1    2  501    0  0.11452255589E+03 -0.13454678184E+03  0.11362313702E+04  0.12175214228E+04  0.40014801745E+03 0.  0.
    9000005    1    3    3    0    0  0.18901935552E+03  0.33596991868E+02  0.88840124865E+03  0.90890860553E+03  0.99999687468E+00 0.  0.
          4    1    3    3  501    0 -0.74496799623E+02 -0.16814377371E+03  0.24783012158E+03  0.30861281722E+03  0.00000000000E+00 0.  1.
   -9000007    1    1    2    0  502 -0.11452255589E+03  0.13454678184E+03  0.40840533946E+03  0.59834202060E+03  0.40000000000E+03 0.  1.
<mgrwt>
<rscale>  2 0.43738664E+03</rscale>
<asrwt>0</asrwt>
<pdfrwt beam="1">  1       21 0.25850000E+00 0.43742049E+03</pdfrwt>
<pdfrwt beam="2">  1       21 0.20863596E-01 0.43742049E+03</pdfrwt>
<totfact> 0.10430071E+03</totfact>
</mgrwt>
</event>
<event>
 6    1  0.9190795E-004  0.6691012E+03  0.7818608E-02  0.9771730E-01
         21   -1    0    0  503  502  0.00000000000E+00  0.00000000000E+00  0.52073151970E+03  0.52073151970E+03  0.00000000000E+00 0.  1.
         21   -1    0    0  501  503 -0.00000000000E+00 -0.00000000000E+00 -0.13307710262E+04  0.13307710262E+04  0.00000000000E+00 0.  1.
    9000007    2    1    2  501    0  0.35152156083E+03 -0.40459269382E+03 -0.95608991304E+03  0.11669637399E+04  0.40054187402E+03 0.  0.
    9000005    1    3    3    0    0  0.15810154964E+03 -0.43278455535E+03 -0.55935343990E+03  0.72469016971E+03  0.99999687468E+00 0.  0.
          4    1    3    3  501    0  0.19342001119E+03  0.28191861535E+02 -0.39673647314E+03  0.44227357021E+03  0.00000000000E+00 0.  1.
   -9000007    1    1    2    0  502 -0.35152156083E+03  0.40459269382E+03  0.14605040656E+03  0.68453880597E+03  0.40000000000E+03 0.  1.
<mgrwt>
<rscale>  2 0.66902015E+03</rscale>
<asrwt>0</asrwt>
<pdfrwt beam="1">  1       21 0.80112542E-01 0.66910122E+03</pdfrwt>
<pdfrwt beam="2">  1       21 0.20473400E+00 0.66910122E+03</pdfrwt>
<totfact> 0.12463546E+02</totfact>
</mgrwt>
</event>
<event>
 6    1  0.9190795E-004  0.4400102E+03  0.7818608E-02  0.1030797E+00
         21   -1    0    0  503  502  0.00000000000E+00  0.00000000000E+00  0.34912139148E+03  0.34912139148E+03  0.00000000000E+00 0.  1.
         21   -1    0    0  501  503 -0.00000000000E+00 -0.00000000000E+00 -0.13764726341E+04  0.13764726341E+04  0.00000000000E+00 0.  1.
    9000007    2    1    2  501    0 -0.18111453598E+03 -0.14015469785E+02 -0.11809038095E+04  0.12602153633E+04  0.40076183194E+03 0.  0.
    9000005    1    3    3    0    0 -0.38682968923E+02  0.14409101371E+03 -0.16579700654E+03  0.22304313414E+03  0.99999687468E+00 0.  0.
          4    1    3    3  501    0 -0.14243156706E+03 -0.15810648349E+03 -0.10151068030E+04  0.10371722291E+04  0.00000000000E+00 0.  1.
   -9000007    1    1    2    0  502  0.18111453598E+03  0.14015469785E+02  0.15355256690E+03  0.46537866232E+03  0.40000000000E+03 0.  1.
<mgrwt>
<rscale>  2 0.43983663E+03</rscale>
<asrwt>0</asrwt>
<pdfrwt beam="1">  1       21 0.53710983E-01 0.44001018E+03</pdfrwt>
<pdfrwt beam="2">  1       21 0.21176502E+00 0.44001018E+03</pdfrwt>
<totfact> 0.30300230E+02</totfact>
</mgrwt>
</event>
<event>
 6    1  0.9190795E-004  0.4319447E+03  0.7818608E-02  0.1033369E+00
         21   -1    0    0  503  502  0.00000000000E+00  0.00000000000E+00  0.55599832349E+03  0.55599832349E+03  0.00000000000E+00 0.  1.
         21   -1    0    0  501  503 -0.00000000000E+00 -0.00000000000E+00 -0.10007393650E+04  0.10007393650E+04  0.00000000000E+00 0.  1.
    9000007    2    1    2  501    0 -0.10946324623E+03 -0.11515922155E+03 -0.85766206991E+03  0.96029186172E+03  0.40166202827E+03 0.  0.
    9000005    1    3    3    0    0  0.66488705042E+02  0.79633911129E+02 -0.58454679189E+02  0.11908088517E+03  0.99999687468E+00 0.  0.
          4    1    3    3  501    0 -0.17595195127E+03 -0.19479313268E+03 -0.79920739072E+03  0.84121097655E+03  0.00000000000E+00 0.  1.
   -9000007    1    1    2    0  502  0.10946324623E+03  0.11515922155E+03  0.41292102839E+03  0.59644582677E+03  0.40000000000E+03 0.  1.
<mgrwt>
<rscale>  2 0.43155792E+03</rscale>
<asrwt>0</asrwt>
<pdfrwt beam="1">  1       21 0.85538204E-01 0.43194471E+03</pdfrwt>
<pdfrwt beam="2">  1       21 0.15395990E+00 0.43194471E+03</pdfrwt>
<totfact> 0.27321052E+02</totfact>
</mgrwt>
</event>
<event>
 6    1  0.9190795E-004  0.4278193E+03  0.7818608E-02  0.1034617E+00
         21   -1    0    0  503  502  0.00000000000E+00  0.00000000000E+00  0.62575220400E+03  0.62575220400E+03  0.00000000000E+00 0. -1.
         21   -1    0    0  501  503 -0.00000000000E+00 -0.00000000000E+00 -0.25054774609E+04  0.25054774609E+04  0.00000000000E+00 0. -1.
    9000007    2    1    2  501    0 -0.14723974970E+03  0.36739543321E+02 -0.24113378084E+04  0.24488505600E+04  0.39911113843E+03 0.  0.
    9000005    1    3    3    0    0  0.94374076250E+02  0.13405725150E+03 -0.10652620466E+04  0.10778042683E+04  0.99999687468E+00 0.  0.
          4    1    3    3  501    0 -0.24161382595E+03 -0.97317708180E+02 -0.13460757618E+04  0.13710462916E+04  0.00000000000E+00 0.  1.
   -9000007    1    1    2    0  502  0.14723974970E+03 -0.36739543321E+02  0.53161255151E+03  0.68237910494E+03  0.40000000000E+03 0. -1.
<mgrwt>
<rscale>  2 0.42761139E+03</rscale>
<asrwt>0</asrwt>
<pdfrwt beam="1">  1       21 0.96269569E-01 0.42781928E+03</pdfrwt>
<pdfrwt beam="2">  1       21 0.38545807E+00 0.42781928E+03</pdfrwt>
<totfact> 0.70087866E+00</totfact>
</mgrwt>
</event>
<event>
 6    1  0.9190795E-004  0.4646700E+03  0.7818608E-02  0.1023544E+00
         21   -1    0    0  503  502  0.00000000000E+00  0.00000000000E+00  0.14930174433E+03  0.14930174433E+03  0.00000000000E+00 0. -1.
         21   -1    0    0  501  503 -0.00000000000E+00 -0.00000000000E+00 -0.15567195139E+04  0.15567195139E+04  0.00000000000E+00 0. -1.
    9000007    2    1    2  501    0 -0.11067985259E+03  0.20559119973E+03 -0.93684220449E+03  0.10457492434E+04  0.40174667727E+03 0.  0.
    9000005    1    3    3    0    0 -0.25572690022E+03  0.13900890070E+03 -0.47476906861E+03  0.55688992671E+03  0.99999687468E+00 0.  0.
          4    1    3    3  501    0  0.14504704763E+03  0.66582299033E+02 -0.46207313588E+03  0.48885931665E+03  0.00000000000E+00 0.  1.
   -9000007    1    1    2    0  502  0.11067985259E+03 -0.20559119973E+03 -0.47057556510E+03  0.66027201489E+03  0.40000000000E+03 0. -1.
<mgrwt>
<rscale>  2 0.46429216E+03</rscale>
<asrwt>0</asrwt>
<pdfrwt beam="1">  1       21 0.22969499E-01 0.46466995E+03</pdfrwt>
<pdfrwt beam="2">  1       21 0.23949531E+00 0.46466995E+03</pdfrwt>
<totfact> 0.11198252E+03</totfact>
</mgrwt>
</event>
<event>
 6    1  0.9190795E-004  0.5255092E+03  0.7818608E-02  0.1007346E+00
         21   -1    0    0  503  502  0.00000000000E+00  0.00000000000E+00  0.83957015713E+03  0.83957015713E+03  0.00000000000E+00 0.  1.
         21   -1    0    0  501  503 -0.00000000000E+00 -0.00000000000E+00 -0.38708102576E+03  0.38708102576E+03  0.00000000000E+00 0.  1.
    9000007    2    1    2  501    0 -0.33426174996E+03  0.66550354825E+02 -0.11930769624E+02  0.52533405659E+03  0.39959186745E+03 0.  0.
    9000005    1    3    3    0    0  0.78366600949E+02  0.28100816891E+01 -0.68335303218E+02  0.10401891349E+03  0.99999687468E+00 0.  0.
          4    1    3    3  501    0 -0.41262835091E+03  0.63740273136E+02  0.56404533594E+02  0.42131514310E+03  0.00000000000E+00 0.  1.
   -9000007    1    1    2    0  502  0.33426174996E+03 -0.66550354825E+02  0.46441990099E+03  0.70131712631E+03  0.40000000000E+03 0.  1.
<mgrwt>
<rscale>  2 0.52543149E+03</rscale>
<asrwt>0</asrwt>
<pdfrwt beam="1">  1       21 0.12916464E+00 0.52550915E+03</pdfrwt>
<pdfrwt beam="2">  1       21 0.59550927E-01 0.52550915E+03</pdfrwt>
<totfact> 0.95198303E+02</totfact>
</mgrwt>
</event>
<event>
 6    1  0.9190795E-004  0.9945350E+03  0.7818608E-02  0.9314595E-01
         21   -1    0    0  503  502  0.00000000000E+00  0.00000000000E+00  0.63701652458E+03  0.63701652458E+03  0.00000000000E+00 0.  1.
         21   -1    0    0  501  503 -0.00000000000E+00 -0.00000000000E+00 -0.17687280279E+04  0.17687280279E+04  0.00000000000E+00 0. -1.
    9000007    2    1    2  501    0 -0.68601910551E+03 -0.59851147256E+03 -0.98646379018E+03  0.14007892828E+04  0.40032687838E+03 0.  0.
    9000005    1    3    3    0    0 -0.21495646105E+03 -0.15611953128E+02 -0.37930921596E+03  0.43626424851E+03  0.99999687468E+00 0.  0.
          4    1    3    3  501    0 -0.47106264446E+03 -0.58289951943E+03 -0.60715457422E+03  0.96452503428E+03  0.00000000000E+00 0.  1.
   -9000007    1    1    2    0  502  0.68601910551E+03  0.59851147256E+03 -0.14524771316E+03  0.10049552697E+04  0.40000000000E+03 0. -1.
<mgrwt>
<rscale>  2 0.99450208E+03</rscale>
<asrwt>0</asrwt>
<pdfrwt beam="1">  1       21 0.98002544E-01 0.99453497E+03</pdfrwt>
<pdfrwt beam="2">  1       21 0.27211200E+00 0.99453497E+03</pdfrwt>
<totfact> 0.25599098E+01</totfact>
</mgrwt>
</event>
<event>
 6    1  0.9190795E-004  0.4529131E+03  0.7818608E-02  0.1026872E+00
         21   -1    0    0  503  502  0.00000000000E+00  0.00000000000E+00  0.21875432588E+03  0.21875432588E+03  0.00000000000E+00 0.  1.
         21   -1    0    0  501  503 -0.00000000000E+00 -0.00000000000E+00 -0.15411020276E+04  0.15411020276E+04  0.00000000000E+00 0. -1.
    9000007    2    1    2  501    0  0.19056292476E+03  0.93894011928E+02 -0.12118656912E+04  0.12936626294E+04  0.39976772174E+03 0.  0.
    9000005    1    3    3    0    0  0.19926072472E+03  0.23354348919E+03 -0.92253339765E+03  0.97227376162E+03  0.99999687468E+00 0.  0.
          4    1    3    3  501    0 -0.86977999563E+01 -0.13964947726E+03 -0.28933229355E+03  0.32138886775E+03  0.00000000000E+00 0.  1.
   -9000007    1    1    2    0  502 -0.19056292476E+03 -0.93894011928E+02 -0.11048201054E+03  0.46619372413E+03  0.40000000000E+03 0.  1.
<mgrwt>
<rscale>  2 0.45286185E+03</rscale>
<asrwt>0</asrwt>
<pdfrwt beam="1">  1       21 0.33654511E-01 0.45291314E+03</pdfrwt>
<pdfrwt beam="2">  1       21 0.23709262E+00 0.45291314E+03</pdfrwt>
<totfact> 0.54913926E+02</totfact>
</mgrwt>
</event>
<event>
 6    1  0.9190795E-004  0.4155267E+03  0.7818608E-02  0.1038575E+00
         21   -1    0    0  503  502  0.00000000000E+00  0.00000000000E+00  0.10970434558E+04  0.10970434558E+04  0.00000000000E+00 0. -1.
         21   -1    0    0  501  503 -0.00000000000E+00 -0.00000000000E+00 -0.23433107426E+03  0.23433107426E+03  0.00000000000E+00 0. -1.
    9000007    2    1    2  501    0  0.75082775437E+02  0.83815379317E+02  0.49237725354E+02  0.41791765794E+03  0.39946010344E+03 0.  0.
    9000005    1    3    3    0    0 -0.11932534284E+03  0.11262042221E+03 -0.80157757059E+02  0.18261479391E+03  0.99999687468E+00 0.  0.
          4    1    3    3  501    0  0.19440811828E+03 -0.28805042895E+02  0.12939548241E+03  0.23530286403E+03  0.00000000000E+00 0.  1.
   -9000007    1    1    2    0  502 -0.75082775437E+02 -0.83815379317E+02  0.81347465620E+03  0.91345687214E+03  0.40000000000E+03 0. -1.
<mgrwt>
<rscale>  2 0.41539672E+03</rscale>
<asrwt>0</asrwt>
<pdfrwt beam="1">  1       21 0.16877591E+00 0.41552670E+03</pdfrwt>
<pdfrwt beam="2">  1       21 0.36050935E-01 0.41552670E+03</pdfrwt>
<totfact> 0.13877941E+03</totfact>
</mgrwt>
</event>
<event>
 6    1  0.9190795E-004  0.4552572E+03  0.7818608E-02  0.1026186E+00
         21   -1    0    0  503  502  0.00000000000E+00  0.00000000000E+00  0.59738551263E+03  0.59738551263E+03  0.00000000000E+00 0.  1.
         21   -1    0    0  501  503 -0.00000000000E+00 -0.00000000000E+00 -0.45656403674E+03  0.45656403674E+03  0.00000000000E+00 0.  1.
    9000007    2    1    2  501    0  0.21725884921E+03  0.75964983768E+01 -0.18807275326E+03  0.49231752722E+03  0.39968246489E+03 0.  0.
    9000005    1    3    3    0    0  0.10862070420E+03  0.18439674585E+03 -0.18791870311E+03  0.28480705088E+03  0.99999687468E+00 0.  0.
          4    1    3    3  501    0  0.10863814500E+03 -0.17680024747E+03 -0.15405015525E+00  0.20751047633E+03  0.00000000000E+00 0.  1.
   -9000007    1    1    2    0  502 -0.21725884921E+03 -0.75964983768E+01  0.32889422915E+03  0.56163202216E+03  0.40000000000E+03 0.  1.
<mgrwt>
<rscale>  2 0.45518744E+03</rscale>
<asrwt>0</asrwt>
<pdfrwt beam="1">  1       21 0.91905464E-01 0.45525720E+03</pdfrwt>
<pdfrwt beam="2">  1       21 0.70240621E-01 0.45525720E+03</pdfrwt>
<totfact> 0.15772951E+03</totfact>
</mgrwt>
</event>
<event>
 6    1  0.9190795E-004  0.4183641E+03  0.7818608E-02  0.1037690E+00
         21   -1    0    0  503  502  0.00000000000E+00  0.00000000000E+00  0.19494556569E+03  0.19494556569E+03  0.00000000000E+00 0. -1.
         21   -1    0    0  501  503 -0.00000000000E+00 -0.00000000000E+00 -0.18805798653E+04  0.18805798653E+04  0.00000000000E+00 0. -1.
    9000007    2    1    2  501    0 -0.22682711204E+02  0.12047420244E+03 -0.15933827001E+04  0.16471110330E+04  0.39884556783E+03 0.  0.
    9000005    1    3    3    0    0 -0.90949417279E+02  0.25236027465E+03 -0.98632828081E+03  0.10221555568E+04  0.99999687468E+00 0.  0.
          4    1    3    3  501    0  0.68266706075E+02 -0.13188607220E+03 -0.60705441932E+03  0.62495547619E+03  0.00000000000E+00 0.  1.
   -9000007    1    1    2    0  502  0.22682711204E+02 -0.12047420244E+03 -0.92251599494E+02  0.42841439804E+03  0.40000000000E+03 0. -1.
<mgrwt>
<rscale>  2 0.41808794E+03</rscale>
<asrwt>0</asrwt>
<pdfrwt beam="1">  1       21 0.29991625E-01 0.41836412E+03</pdfrwt>
<pdfrwt beam="2">  1       21 0.28931999E+00 0.41836412E+03</pdfrwt>
<totfact> 0.33921497E+02</totfact>
</mgrwt>
</event>
<event>
 6    1  0.9190795E-004  0.4519765E+03  0.7818608E-02  0.1027142E+00
         21   -1    0    0  503  502  0.00000000000E+00  0.00000000000E+00  0.10504100734E+04  0.10504100734E+04  0.00000000000E+00 0. -1.
         21   -1    0    0  501  503 -0.00000000000E+00 -0.00000000000E+00 -0.32275068674E+03  0.32275068674E+03  0.00000000000E+00 0. -1.
    9000007    2    1    2  501    0  0.20635295992E+03  0.40052243896E+02  0.79676938720E+03  0.91603723360E+03  0.40012126994E+03 0.  0.
    9000005    1    3    3    0    0  0.22213236061E+03  0.19027512114E+03  0.43704552803E+03  0.52588706099E+03  0.99999687468E+00 0.  0.
          4    1    3    3  501    0 -0.15779400686E+02 -0.15022287724E+03  0.35972385917E+03  0.39015017261E+03  0.00000000000E+00 0.  1.
   -9000007    1    1    2    0  502 -0.20635295992E+03 -0.40052243896E+02 -0.69110000561E+02  0.45712352651E+03  0.40000000000E+03 0. -1.
<mgrwt>
<rscale>  2 0.45194966E+03</rscale>
<asrwt>0</asrwt>
<pdfrwt beam="1">  1       21 0.16160155E+00 0.45197650E+03</pdfrwt>
<pdfrwt beam="2">  1       21 0.49653952E-01 0.45197650E+03</pdfrwt>
<totfact> 0.79384306E+02</totfact>
</mgrwt>
</event>
<event>
 6    1  0.9190795E-004  0.5127817E+03  0.7818608E-02  0.1010520E+00
         21   -1    0    0  503  502  0.00000000000E+00  0.00000000000E+00  0.23602660946E+04  0.23602660946E+04  0.00000000000E+00 0. -1.
         21   -1    0    0  501  503 -0.00000000000E+00 -0.00000000000E+00 -0.13846839205E+03  0.13846839205E+03  0.00000000000E+00 0. -1.
    9000007    2    1    2  501    0 -0.27533026453E+03 -0.16473722198E+03  0.55737691827E+03  0.75711407622E+03  0.39950918453E+03 0.  0.
    9000005    1    3    3    0    0 -0.34192591142E+03 -0.23533437482E+03  0.46105748262E+03  0.62037939936E+03  0.99999687468E+00 0.  0.
          4    1    3    3  501    0  0.66595646884E+02  0.70597152847E+02  0.96319435648E+02  0.13673467687E+03  0.00000000000E+00 0.  1.
   -9000007    1    1    2    0  502  0.27533026453E+03  0.16473722198E+03  0.16644207842E+04  0.17416204104E+04  0.40000000000E+03 0. -1.
<mgrwt>
<rscale>  2 0.51268601E+03</rscale>
<asrwt>0</asrwt>
<pdfrwt beam="1">  1       21 0.36311783E+00 0.51278173E+03</pdfrwt>
<pdfrwt beam="2">  1       21 0.21302831E-01 0.51278173E+03</pdfrwt>
<totfact> 0.22251759E+02</totfact>
</mgrwt>
</event>
<event>
 6    1  0.9190795E-004  0.4099953E+03  0.7818608E-02  0.1040420E+00
         21   -1    0    0  503  502  0.00000000000E+00  0.00000000000E+00  0.42280563887E+03  0.42280563887E+03  0.00000000000E+00 0. -1.
         21   -1    0    0  501  503 -0.00000000000E+00 -0.00000000000E+00 -0.84401971791E+03  0.84401971791E+03  0.00000000000E+00 0. -1.
    9000007    2    1    2  501    0 -0.39359689221E+02 -0.77988727950E+02 -0.67163473135E+03  0.78688585026E+03  0.40058045654E+03 0.  0.
    9000005    1    3    3    0    0  0.12804139372E+03 -0.57277580204E+02 -0.57631204575E+03  0.59313733129E+03  0.99999687468E+00 0.  0.
          4    1    3    3  501    0 -0.16740108294E+03 -0.20711147746E+02 -0.95322685592E+02  0.19374851896E+03  0.00000000000E+00 0.  1.
   -9000007    1    1    2    0  502  0.39359689221E+02  0.77988727950E+02  0.25042065230E+03  0.47993950652E+03  0.40000000000E+03 0. -1.
<mgrwt>
<rscale>  2 0.40985343E+03</rscale>
<asrwt>0</asrwt>
<pdfrwt beam="1">  1       21 0.65047022E-01 0.40999528E+03</pdfrwt>
<pdfrwt beam="2">  1       21 0.12984919E+00 0.40999528E+03</pdfrwt>
<totfact> 0.81035452E+02</totfact>
</mgrwt>
</event>
<event>
 6    1  0.9190795E-004  0.4688235E+03  0.7818608E-02  0.1022762E+00
         21   -1    0    0  503  502  0.00000000000E+00  0.00000000000E+00  0.36625172639E+03  0.36625172639E+03  0.00000000000E+00 0. -1.
         21   -1    0    0  501  503 -0.00000000000E+00 -0.00000000000E+00 -0.62367763050E+03  0.62367763050E+03  0.00000000000E+00 0. -1.
    9000007    2    1    2  501    0  0.16414800616E+03 -0.18124827689E+03 -0.24102984200E+03  0.52081920282E+03  0.39161428917E+03 0.  0.
    9000005    1    3    3    0    0  0.23542998888E+03 -0.28503582331E+02 -0.25915789483E+03  0.35128841188E+03  0.99999687468E+00 0.  0.
          4    1    3    3  501    0 -0.71281982728E+02 -0.15274469456E+03  0.18128052830E+02  0.16953079094E+03  0.00000000000E+00 0.  1.
   -9000007    1    1    2    0  502 -0.16414800616E+03  0.18124827689E+03 -0.16396062106E+02  0.46911015407E+03  0.40000000000E+03 0. -1.
<mgrwt>
<rscale>  2 0.46702977E+03</rscale>
<asrwt>0</asrwt>
<pdfrwt beam="1">  1       21 0.56346420E-01 0.46882353E+03</pdfrwt>
<pdfrwt beam="2">  1       21 0.95950404E-01 0.46882353E+03</pdfrwt>
<totfact> 0.23049283E+03</totfact>
</mgrwt>
</event>
<event>
 6    1  0.9190795E-004  0.4377585E+03  0.7818608E-02  0.1031983E+00
         21   -1    0    0  503  502  0.00000000000E+00  0.00000000000E+00  0.19033881601E+03  0.19033881601E+03  0.00000000000E+00 0.  1.
         21   -1    0    0  501  503 -0.00000000000E+00 -0.00000000000E+00 -0.13772201740E+04  0.13772201740E+04  0.00000000000E+00 0. -1.
    9000007    2    1    2  501    0  0.13708635341E+03 -0.11331299301E+03 -0.10051840844E+04  0.10935902126E+04  0.39231620787E+03 0.  0.
    9000005    1    3    3    0    0 -0.67918393880E+02 -0.19565641554E+03 -0.42533728664E+03  0.47308260227E+03  0.99999687468E+00 0.  0.
          4    1    3    3  501    0  0.20500474729E+03  0.82343422530E+02 -0.57984679777E+03  0.62050761037E+03  0.00000000000E+00 0.  1.
   -9000007    1    1    2    0  502 -0.13708635341E+03  0.11331299301E+03 -0.18169727355E+03  0.47396877734E+03  0.40000000000E+03 0.  1.
<mgrwt>
<rscale>  2 0.43599545E+03</rscale>
<asrwt>0</asrwt>
<pdfrwt beam="1">  1       21 0.29282895E-01 0.43775850E+03</pdfrwt>
<pdfrwt beam="2">  1       21 0.21188003E+00 0.43775850E+03</pdfrwt>
<totfact> 0.10561405E+03</totfact>
</mgrwt>
</event>
<event>
 6    1  0.9190795E-004  0.7328957E+03  0.7818608E-02  0.9662591E-01
         21   -1    0    0  503  502  0.00000000000E+00  0.00000000000E+00  0.29299921559E+03  0.29299921559E+03  0.00000000000E+00 0. -1.
         21   -1    0    0  501  503 -0.00000000000E+00 -0.00000000000E+00 -0.18752016709E+04  0.18752016709E+04  0.00000000000E+00 0.  1.
    9000007    2    1    2  501    0  0.17151362818E+03  0.58967721038E+03 -0.62867580195E+03  0.96555828963E+03  0.39991675338E+03 0.  0.
    9000005    1    3    3    0    0  0.12300011017E+03  0.16836787884E+03 -0.46746013509E+03  0.51185617864E+03  0.99999687468E+00 0.  0.
          4    1    3    3  501    0  0.48513518012E+02  0.42130933154E+03 -0.16121566686E+03  0.45370211099E+03  0.00000000000E+00 0.  1.
   -9000007    1    1    2    0  502 -0.17151362818E+03 -0.58967721038E+03 -0.95352665335E+03  0.12026425968E+04  0.40000000000E+03 0. -1.
<mgrwt>
<rscale>  2 0.73288436E+03</rscale>
<asrwt>0</asrwt>
<pdfrwt beam="1">  1       21 0.45076803E-01 0.73289572E+03</pdfrwt>
<pdfrwt beam="2">  1       21 0.28849256E+00 0.73289572E+03</pdfrwt>
<totfact> 0.12849950E+02</totfact>
</mgrwt>
</event>
<event>
 6    1  0.9190795E-004  0.5024362E+03  0.7818608E-02  0.1013156E+00
         21   -1    0    0  503  502  0.00000000000E+00  0.00000000000E+00  0.57571606825E+03  0.57571606825E+03  0.00000000000E+00 0.  1.
         21   -1    0    0  501  503 -0.00000000000E+00 -0.00000000000E+00 -0.43992854631E+03  0.43992854631E+03  0.00000000000E+00 0. -1.
    9000007    2    1    2  501    0  0.15398571268E+03  0.26184786869E+03  0.37383377138E+02  0.50382503525E+03  0.40020775007E+03 0.  0.
    9000005    1    3    3    0    0  0.72957735011E+02  0.14387160925E+03 -0.18116884662E+03  0.24257992914E+03  0.99999687468E+00 0.  0.
          4    1    3    3  501    0  0.81027977671E+02  0.11797625944E+03  0.21855222376E+03  0.26124510611E+03  0.00000000000E+00 0.  1.
   -9000007    1    1    2    0  502 -0.15398571268E+03 -0.26184786869E+03  0.98404144802E+02  0.51181957931E+03  0.40000000000E+03 0.  1.
<mgrwt>
<rscale>  2 0.50239484E+03</rscale>
<asrwt>0</asrwt>
<pdfrwt beam="1">  1       21 0.88571702E-01 0.50243621E+03</pdfrwt>
<pdfrwt beam="2">  1       21 0.67681315E-01 0.50243621E+03</pdfrwt>
<totfact> 0.18401472E+03</totfact>
</mgrwt>
</event>
<event>
 6    1  0.9190795E-004  0.6333802E+03  0.7818608E-02  0.9838744E-01
         21   -1    0    0  503  502  0.00000000000E+00  0.00000000000E+00  0.25516137500E+03  0.25516137500E+03  0.00000000000E+00 0.  1.
         21   -1    0    0  501  503 -0.00000000000E+00 -0.00000000000E+00 -0.16694899778E+04  0.16694899778E+04  0.00000000000E+00 0.  1.
    9000007    2    1    2  501    0 -0.45851163593E+03 -0.17388370852E+03 -0.94137391175E+03  0.11346167940E+04  0.40087649358E+03 0.  0.
    9000005    1    3    3    0    0  0.24735667306E+02 -0.14541187937E+03 -0.18515689068E+03  0.23672883656E+03  0.99999687468E+00 0.  0.
          4    1    3    3  501    0 -0.48324730323E+03 -0.28471829149E+02 -0.75621702107E+03  0.89788795743E+03  0.00000000000E+00 0.  1.
   -9000007    1    1    2    0  502  0.45851163593E+03  0.17388370852E+03 -0.47295469109E+03  0.79003455886E+03  0.40000000000E+03 0.  1.
<mgrwt>
<rscale>  2 0.63324152E+03</rscale>
<asrwt>0</asrwt>
<pdfrwt beam="1">  1       21 0.39255596E-01 0.63338016E+03</pdfrwt>
<pdfrwt beam="2">  1       21 0.25684462E+00 0.63338016E+03</pdfrwt>
<totfact> 0.27915879E+02</totfact>
</mgrwt>
</event>
<event>
 6    1  0.9190795E-004  0.4069987E+03  0.7818608E-02  0.1041430E+00
         21   -1    0    0  503  502  0.00000000000E+00  0.00000000000E+00  0.20635492712E+03  0.20635492712E+03  0.00000000000E+00 0.  1.
         21   -1    0    0  501  503 -0.00000000000E+00 -0.00000000000E+00 -0.81995461570E+03  0.81995461570E+03  0.00000000000E+00 0.  1.
    9000007    2    1    2  501    0  0.75056172316E+02 -0.38092264365E+01 -0.22990855862E+03  0.46696454872E+03  0.39943711048E+03 0.  0.
    9000005    1    3    3    0    0  0.11264617532E+03  0.99929414758E+02 -0.30040021354E+03  0.33603026209E+03  0.99999687468E+00 0.  0.
          4    1    3    3  501    0 -0.37590003005E+02 -0.10373864119E+03  0.70491654920E+02  0.13093428663E+03  0.00000000000E+00 0.  1.
   -9000007    1    1    2    0  502 -0.75056172316E+02  0.38092264365E+01 -0.38369112996E+03  0.55934499410E+03  0.40000000000E+03 0.  1.
<mgrwt>
<rscale>  2 0.40686033E+03</rscale>
<asrwt>0</asrwt>
<pdfrwt beam="1">  1       21 0.31746912E-01 0.40699870E+03</pdfrwt>
<pdfrwt beam="2">  1       21 0.12614686E+00 0.40699870E+03</pdfrwt>
<totfact> 0.39357865E+03</totfact>
</mgrwt>
</event>
<event>
 6    1  0.9190795E-004  0.5425361E+03  0.7818608E-02  0.1003348E+00
         21   -1    0    0  503  502  0.00000000000E+00  0.00000000000E+00  0.87920903202E+03  0.87920903202E+03  0.00000000000E+00 0.  1.
         21   -1    0    0  501  503 -0.00000000000E+00 -0.00000000000E+00 -0.10010032311E+04  0.10010032311E+04  0.00000000000E+00 0.  1.
    9000007    2    1    2  501    0  0.36582169603E+03  0.22802227871E+02 -0.82848048090E+03  0.98928524270E+03  0.39744173071E+03 0.  0.
    9000005    1    3    3    0    0  0.11792454288E+02 -0.34340217774E+00 -0.51710220019E+03  0.51723772614E+03  0.99999687468E+00 0.  0.
          4    1    3    3  501    0  0.35402924174E+03  0.23145630048E+02 -0.31137828071E+03  0.47204751657E+03  0.00000000000E+00 0.  1.
   -9000007    1    1    2    0  502 -0.36582169603E+03 -0.22802227871E+02  0.70668628179E+03  0.89092702044E+03  0.40000000000E+03 0.  1.
<mgrwt>
<rscale>  2 0.54206467E+03</rscale>
<asrwt>0</asrwt>
<pdfrwt beam="1">  1       21 0.13526293E+00 0.54253613E+03</pdfrwt>
<pdfrwt beam="2">  1       21 0.15400050E+00 0.54253613E+03</pdfrwt>
<totfact> 0.83013126E+01</totfact>
</mgrwt>
</event>
<event>
 6    1  0.9190795E-004  0.5164243E+03  0.7818608E-02  0.1009596E+00
         21   -1    0    0  503  502  0.00000000000E+00  0.00000000000E+00  0.56632838133E+03  0.56632838133E+03  0.00000000000E+00 0. -1.
         21   -1    0    0  501  503 -0.00000000000E+00 -0.00000000000E+00 -0.58219674128E+03  0.58219674128E+03  0.00000000000E+00 0. -1.
    9000007    2    1    2  501    0  0.11372358936E+03 -0.30620426403E+03 -0.25927610500E+03  0.57761231277E+03  0.39964706824E+03 0.  0.
    9000005    1    3    3    0    0 -0.59185080715E+02 -0.33206386811E+03 -0.20427544786E+03  0.39433329162E+03  0.99999687468E+00 0.  0.
          4    1    3    3  501    0  0.17290867007E+03  0.25859604089E+02 -0.55000657147E+02  0.18327902116E+03  0.00000000000E+00 0.  1.
   -9000007    1    1    2    0  502 -0.11372358936E+03  0.30620426403E+03  0.24340774506E+03  0.57091280984E+03  0.40000000000E+03 0. -1.
<mgrwt>
<rscale>  2 0.51635600E+03</rscale>
<asrwt>0</asrwt>
<pdfrwt beam="1">  1       21 0.87127443E-01 0.51642435E+03</pdfrwt>
<pdfrwt beam="2">  1       21 0.89568729E-01 0.51642435E+03</pdfrwt>
<totfact> 0.99773008E+02</totfact>
</mgrwt>
</event>
<event>
 6    1  0.9190795E-004  0.4013217E+03  0.7818608E-02  0.1043400E+00
         21   -1    0    0  503  502  0.00000000000E+00  0.00000000000E+00  0.56669620505E+03  0.56669620505E+03  0.00000000000E+00 0. -1.
         21   -1    0    0  501  503 -0.00000000000E+00 -0.00000000000E+00 -0.29603935734E+03  0.29603935734E+03  0.00000000000E+00 0. -1.
    9000007    2    1    2  501    0 -0.83892638855E+01 -0.31444500649E+02  0.46676070124E+02  0.40314169265E+03  0.39910579106E+03 0.  0.
    9000005    1    3    3    0    0 -0.32928817846E+02 -0.18358506748E+03 -0.80681184028E+02  0.20321967793E+03  0.99999687468E+00 0.  0.
          4    1    3    3  501    0  0.24539553961E+02  0.15214056683E+03  0.12735725415E+03  0.19992201472E+03  0.00000000000E+00 0.  1.
   -9000007    1    1    2    0  502  0.83892638855E+01  0.31444500649E+02  0.22398077759E+03  0.45959386973E+03  0.40000000000E+03 0. -1.
<mgrwt>
<rscale>  2 0.40109874E+03</rscale>
<asrwt>0</asrwt>
<pdfrwt beam="1">  1       21 0.87184032E-01 0.40132174E+03</pdfrwt>
<pdfrwt beam="2">  1       21 0.45544516E-01 0.40132174E+03</pdfrwt>
<totfact> 0.46672385E+03</totfact>
</mgrwt>
</event>
<event>
 6    1  0.9190795E-004  0.4220720E+03  0.7818608E-02  0.1036488E+00
         21   -1    0    0  503  502  0.00000000000E+00  0.00000000000E+00  0.17589740681E+04  0.17589740681E+04  0.00000000000E+00 0. -1.
         21   -1    0    0  501  503 -0.00000000000E+00 -0.00000000000E+00 -0.15132465308E+03  0.15132465308E+03  0.00000000000E+00 0.  1.
    9000007    2    1    2  501    0  0.11315725540E+03 -0.73076896287E+02  0.25226579923E+03  0.49071795801E+03  0.39877472793E+03 0.  0.
    9000005    1    3    3    0    0 -0.11402173139E+03 -0.13986427532E+03  0.14140714820E+03  0.22925957405E+03  0.99999687468E+00 0.  0.
          4    1    3    3  501    0  0.22717898678E+03  0.66787379035E+02  0.11085865104E+03  0.26145838396E+03  0.00000000000E+00 0.  1.
   -9000007    1    1    2    0  502 -0.11315725540E+03  0.73076896287E+02  0.13553836158E+04  0.14195807632E+04  0.40000000000E+03 0. -1.
<mgrwt>
<rscale>  2 0.42178147E+03</rscale>
<asrwt>0</asrwt>
<pdfrwt beam="1">  1       21 0.27061138E+00 0.42207203E+03</pdfrwt>
<pdfrwt beam="2">  1       21 0.23280717E-01 0.42207203E+03</pdfrwt>
<totfact> 0.71961131E+02</totfact>
</mgrwt>
</event>
<event>
 6    1  0.9190795E-004  0.4436349E+03  0.7818608E-02  0.1029784E+00
         21   -1    0    0  503  502  0.00000000000E+00  0.00000000000E+00  0.22207432421E+03  0.22207432421E+03  0.00000000000E+00 0.  1.
         21   -1    0    0  501  503 -0.00000000000E+00 -0.00000000000E+00 -0.16161086449E+04  0.16161086449E+04  0.00000000000E+00 0.  1.
    9000007    2    1    2  501    0 -0.15742508150E+03 -0.10159040912E+03 -0.13171266974E+04  0.13898326039E+04  0.40213015597E+03 0.  0.
    9000005    1    3    3    0    0 -0.77749060594E+02 -0.22707390937E+03 -0.44951796503E+03  0.50958304291E+03  0.99999687468E+00 0.  0.
          4    1    3    3  501    0 -0.79676020907E+02  0.12548350025E+03 -0.86760873235E+03  0.88024956097E+03  0.00000000000E+00 0.  1.
   -9000007    1    1    2    0  502  0.15742508150E+03  0.10159040912E+03 -0.76907623348E+02  0.44835036527E+03  0.40000000000E+03 0.  1.
<mgrwt>
<rscale>  2 0.44315163E+03</rscale>
<asrwt>0</asrwt>
<pdfrwt beam="1">  1       21 0.34165282E-01 0.44363491E+03</pdfrwt>
<pdfrwt beam="2">  1       21 0.24863209E+00 0.44363491E+03</pdfrwt>
<totfact> 0.45418945E+02</totfact>
</mgrwt>
</event>
<event>
 6    1  0.9190795E-004  0.6946635E+03  0.7818608E-02  0.9726407E-01
         21   -1    0    0  503  502  0.00000000000E+00  0.00000000000E+00  0.79948606937E+03  0.79948606937E+03  0.00000000000E+00 0. -1.
         21   -1    0    0  501  503 -0.00000000000E+00 -0.00000000000E+00 -0.14591312364E+04  0.14591312364E+04  0.00000000000E+00 0.  1.
    9000007    2    1    2  501    0  0.30021246831E+03 -0.48210974726E+03 -0.11945703857E+04  0.13818605983E+04  0.39997871468E+03 0.  0.
    9000005    1    3    3    0    0  0.25369922059E+02 -0.35172093172E+03 -0.41236267154E+03  0.54258199346E+03  0.99999687468E+00 0.  0.
          4    1    3    3  501    0  0.27484254625E+03 -0.13038881555E+03 -0.78220771415E+03  0.83927860483E+03  0.00000000000E+00 0.  1.
   -9000007    1    1    2    0  502 -0.30021246831E+03  0.48210974726E+03  0.53492521867E+03  0.87675670748E+03  0.40000000000E+03 0. -1.
<mgrwt>
<rscale>  2 0.69466040E+03</rscale>
<asrwt>0</asrwt>
<pdfrwt beam="1">  1       21 0.12299786E+00 0.69466347E+03</pdfrwt>
<pdfrwt beam="2">  1       21 0.22448173E+00 0.69466347E+03</pdfrwt>
<totfact> 0.31976973E+01</totfact>
</mgrwt>
</event>
<event>
 6    1  0.9190795E-004  0.4182017E+03  0.7818608E-02  0.1037723E+00
         21   -1    0    0  503  502  0.00000000000E+00  0.00000000000E+00  0.28738472762E+03  0.28738472762E+03  0.00000000000E+00 0. -1.
         21   -1    0    0  501  503 -0.00000000000E+00 -0.00000000000E+00 -0.11650040903E+04  0.11650040903E+04  0.00000000000E+00 0. -1.
    9000007    2    1    2  501    0 -0.76248827187E+02 -0.95282621111E+02 -0.94101357802E+03  0.10294095181E+04  0.39910492397E+03 0.  0.
    9000005    1    3    3    0    0  0.10156547885E+03  0.29672784616E+02 -0.68704717466E+03  0.69514807117E+03  0.99999687468E+00 0.  0.
          4    1    3    3  501    0 -0.17781430603E+03 -0.12495540573E+03 -0.25396640336E+03  0.33426144690E+03  0.00000000000E+00 0.  1.
   -9000007    1    1    2    0  502  0.76248827187E+02  0.95282621111E+02  0.63394215374E+02  0.42297929982E+03  0.40000000000E+03 0. -1.
<mgrwt>
<rscale>  2 0.41798753E+03</rscale>
<asrwt>0</asrwt>
<pdfrwt beam="1">  1       21 0.44213034E-01 0.41820170E+03</pdfrwt>
<pdfrwt beam="2">  1       21 0.17923140E+00 0.41820170E+03</pdfrwt>
<totfact> 0.76665399E+02</totfact>
</mgrwt>
</event>
<event>
 6    1  0.9190795E-004  0.4385503E+03  0.7818608E-02  0.1031194E+00
         21   -1    0    0  503  502  0.00000000000E+00  0.00000000000E+00  0.78949045538E+03  0.78949045538E+03  0.00000000000E+00 0. -1.
         21   -1    0    0  501  503 -0.00000000000E+00 -0.00000000000E+00 -0.25640969054E+03  0.25640969054E+03  0.00000000000E+00 0. -1.
    9000007    2    1    2  501    0 -0.10532948730E+03 -0.14571230691E+03  0.14962081003E+03  0.46334721767E+03  0.39997234910E+03 0.  0.
    9000005    1    3    3    0    0 -0.13840526917E+03 -0.12020711335E+02 -0.10481188269E+03  0.17403174073E+03  0.99999687468E+00 0.  0.
          4    1    3    3  501    0  0.33075781867E+02 -0.13369159558E+03  0.25443269272E+03  0.28931547694E+03  0.00000000000E+00 0.  1.
   -9000007    1    1    2    0  502  0.10532948730E+03  0.14571230691E+03  0.38345995481E+03  0.58255292826E+03  0.40000000000E+03 0. -1.
<mgrwt>
<rscale>  2 0.43854401E+03</rscale>
<asrwt>0</asrwt>
<pdfrwt beam="1">  1       21 0.12146007E+00 0.43855031E+03</pdfrwt>
<pdfrwt beam="2">  1       21 0.39447645E-01 0.43855031E+03</pdfrwt>
<totfact> 0.27604007E+03</totfact>
</mgrwt>
</event>
<event>
 6    1  0.9190795E-004  0.4235263E+03  0.7818608E-02  0.1035925E+00
         21   -1    0    0  503  502  0.00000000000E+00  0.00000000000E+00  0.22382751718E+03  0.22382751718E+03  0.00000000000E+00 0. -1.
         21   -1    0    0  501  503 -0.00000000000E+00 -0.00000000000E+00 -0.18473432400E+04  0.18473432400E+04  0.00000000000E+00 0. -1.
    9000007    2    1    2  501    0 -0.29451561585E+02  0.13604079983E+03 -0.15909927979E+04  0.16463976009E+04  0.39999060416E+03 0.  0.
    9000005    1    3    3    0    0  0.58523566836E+02  0.14053406726E+03 -0.15338739271E+04  0.15414100870E+04  0.99999687468E+00 0.  0.
          4    1    3    3  501    0 -0.87975128421E+02 -0.44932674292E+01 -0.57118870810E+02  0.10498751390E+03  0.00000000000E+00 0.  1.
   -9000007    1    1    2    0  502  0.29451561585E+02 -0.13604079983E+03 -0.32522924934E+02  0.42477315634E+03  0.40000000000E+03 0. -1.
<mgrwt>
<rscale>  2 0.42352404E+03</rscale>
<asrwt>0</asrwt>
<pdfrwt beam="1">  1       21 0.34435003E-01 0.42352626E+03</pdfrwt>
<pdfrwt beam="2">  1       21 0.28420665E+00 0.42352626E+03</pdfrwt>
<totfact> 0.27527588E+02</totfact>
</mgrwt>
</event>
<event>
 6    1  0.9190795E-004  0.4227916E+03  0.7818608E-02  0.1036277E+00
         21   -1    0    0  503  502  0.00000000000E+00  0.00000000000E+00  0.18888113762E+03  0.18888113762E+03  0.00000000000E+00 0. -1.
         21   -1    0    0  501  503 -0.00000000000E+00 -0.00000000000E+00 -0.94418231214E+03  0.94418231214E+03  0.00000000000E+00 0. -1.
    9000007    2    1    2  501    0  0.76818225373E+02  0.10791346381E+03 -0.35983757571E+03  0.55518992260E+03  0.40150518532E+03 0.  0.
    9000005    1    3    3    0    0 -0.13442770033E+03  0.14907850345E+03 -0.12417942761E+03  0.23604393033E+03  0.99999687468E+00 0.  0.
          4    1    3    3  501    0  0.21124592571E+03 -0.41165039642E+02 -0.23565814810E+03  0.31914599227E+03  0.00000000000E+00 0.  1.
   -9000007    1    1    2    0  502 -0.76818225373E+02 -0.10791346381E+03 -0.39546359881E+03  0.57787352717E+03  0.40000000000E+03 0. -1.
<mgrwt>
<rscale>  2 0.42243390E+03</rscale>
<asrwt>0</asrwt>
<pdfrwt beam="1">  1       21 0.29058637E-01 0.42279164E+03</pdfrwt>
<pdfrwt beam="2">  1       21 0.14525882E+00 0.42279164E+03</pdfrwt>
<totfact> 0.32210045E+03</totfact>
</mgrwt>
</event>
<event>
 6    1  0.9190795E-004  0.4796737E+03  0.7818608E-02  0.1019301E+00
         21   -1    0    0  503  502  0.00000000000E+00  0.00000000000E+00  0.50717224751E+03  0.50717224751E+03  0.00000000000E+00 0. -1.
         21   -1    0    0  501  503 -0.00000000000E+00 -0.00000000000E+00 -0.67424664660E+03  0.67424664660E+03  0.00000000000E+00 0.  1.
    9000007    2    1    2  501    0 -0.50813987297E+02  0.25778310736E+03 -0.42226449028E+03  0.63905723029E+03  0.40131365799E+03 0.  0.
    9000005    1    3    3    0    0 -0.17215726120E+03 -0.85183412246E+01 -0.83925839494E+02  0.19171653880E+03  0.99999687468E+00 0.  0.
          4    1    3    3  501    0  0.12134327391E+03  0.26630144859E+03 -0.33833865078E+03  0.44734069148E+03  0.00000000000E+00 0.  1.
   -9000007    1    1    2    0  502  0.50813987297E+02 -0.25778310736E+03  0.25519009118E+03  0.54236166382E+03  0.40000000000E+03 0. -1.
<mgrwt>
<rscale>  2 0.47939882E+03</rscale>
<asrwt>0</asrwt>
<pdfrwt beam="1">  1       21 0.78026499E-01 0.47967368E+03</pdfrwt>
<pdfrwt beam="2">  1       21 0.10373025E+00 0.47967368E+03</pdfrwt>
<totfact> 0.91771559E+02</totfact>
</mgrwt>
</event>
<event>
 6    1  0.9190795E-004  0.4367725E+03  0.7818608E-02  0.1031770E+00
         21   -1    0    0  503  502  0.00000000000E+00  0.00000000000E+00  0.16508359214E+03  0.16508359214E+03  0.00000000000E+00 0.  1.
         21   -1    0    0  501  503 -0.00000000000E+00 -0.00000000000E+00 -0.12398817390E+04  0.12398817390E+04  0.00000000000E+00 0.  1.
    9000007    2    1    2  501    0  0.17337600679E+03  0.26664237188E+02 -0.72140074833E+03  0.84312910717E+03  0.39959658456E+03 0.  0.
    9000005    1    3    3    0    0 -0.29872490053E+02  0.88243082556E+02 -0.21632008183E+01  0.93192739591E+02  0.99999687468E+00 0.  0.
          4    1    3    3  501    0  0.20324849684E+03 -0.61578845368E+02 -0.71923754751E+03  0.74993636758E+03  0.00000000000E+00 0.  1.
   -9000007    1    1    2    0  502 -0.17337600679E+03 -0.26664237188E+02 -0.35339739851E+03  0.56183622395E+03  0.40000000000E+03 0.  1.
<mgrwt>
<rscale>  2 0.43668012E+03</rscale>
<asrwt>0</asrwt>
<pdfrwt beam="1">  1       21 0.25397477E-01 0.43677251E+03</pdfrwt>
<pdfrwt beam="2">  1       21 0.19075103E+00 0.43677251E+03</pdfrwt>
<totfact> 0.19307861E+03</totfact>
</mgrwt>
</event>
<event>
 6    1  0.9190795E-004  0.5607074E+03  0.7818608E-02  0.9990617E-01
         21   -1    0    0  503  502  0.00000000000E+00  0.00000000000E+00  0.39217447652E+03  0.39217447652E+03  0.00000000000E+00 0.  1.
         21   -1    0    0  501  503 -0.00000000000E+00 -0.00000000000E+00 -0.80125896729E+03  0.80125896729E+03  0.00000000000E+00 0. -1.
    9000007    2    1    2  501    0 -0.31483578702E+03  0.23441268386E+03 -0.20589054209E+03  0.59731377468E+03  0.40040223645E+03 0.  0.
    9000005    1    3    3    0    0 -0.88151790195E+02 -0.27013864169E+02 -0.23265619213E+03  0.25026064553E+03  0.99999687468E+00 0.  0.
          4    1    3    3  501    0 -0.22668399682E+03  0.26142654803E+03  0.26765650034E+02  0.34705312915E+03  0.00000000000E+00 0.  1.
   -9000007    1    1    2    0  502  0.31483578702E+03 -0.23441268386E+03 -0.20319394867E+03  0.59611966913E+03  0.40000000000E+03 0. -1.
<mgrwt>
<rscale>  2 0.56063563E+03</rscale>
<asrwt>0</asrwt>
<pdfrwt beam="1">  1       21 0.60334536E-01 0.56070744E+03</pdfrwt>
<pdfrwt beam="2">  1       21 0.12327061E+00 0.56070744E+03</pdfrwt>
<totfact> 0.10315060E+03</totfact>
</mgrwt>
</event>
<event>
 6    1  0.9190795E-004  0.4001948E+03  0.7818608E-02  0.1043717E+00
         21   -1    0    0  503  502  0.00000000000E+00  0.00000000000E+00  0.18537702430E+03  0.18537702430E+03  0.00000000000E+00 0. -1.
         21   -1    0    0  501  503 -0.00000000000E+00 -0.00000000000E+00 -0.12375142615E+04  0.12375142615E+04  0.00000000000E+00 0. -1.
    9000007    2    1    2  501    0  0.53602243132E+01  0.90084601291E+01 -0.91704682099E+03  0.10005652211E+04  0.40005750272E+03 0.  0.
    9000005    1    3    3    0    0  0.56458580199E+02  0.14910988903E+03 -0.14917841223E+03  0.21834955680E+03  0.99999687468E+00 0.  0.
          4    1    3    3  501    0 -0.51098355886E+02 -0.14010142890E+03 -0.76786840876E+03  0.78221566433E+03  0.00000000000E+00 0.  1.
   -9000007    1    1    2    0  502 -0.53602243132E+01 -0.90084601291E+01 -0.13509041623E+03  0.42232606469E+03  0.40000000000E+03 0.  1.
<mgrwt>
<rscale>  2 0.40018044E+03</rscale>
<asrwt>0</asrwt>
<pdfrwt beam="1">  1       21 0.28519542E-01 0.40019481E+03</pdfrwt>
<pdfrwt beam="2">  1       21 0.19038681E+00 0.40019481E+03</pdfrwt>
<totfact> 0.15736064E+03</totfact>
</mgrwt>
</event>
<event>
 6    1  0.9190795E-004  0.4551973E+03  0.7818608E-02  0.1026401E+00
         21   -1    0    0  503  502  0.00000000000E+00  0.00000000000E+00  0.14612364703E+04  0.14612364703E+04  0.00000000000E+00 0. -1.
         21   -1    0    0  501  503 -0.00000000000E+00 -0.00000000000E+00 -0.17573203027E+03  0.17573203027E+03  0.00000000000E+00 0.  1.
    9000007    2    1    2  501    0 -0.13686168451E+03 -0.16874086252E+03  0.27658641501E+03  0.53011702879E+03  0.39663512184E+03 0.  0.
    9000005    1    3    3    0    0  0.89671682251E+02 -0.15373502965E+02  0.23679219054E+03  0.25367084319E+03  0.99999687468E+00 0.  0.
          4    1    3    3  501    0 -0.22653336676E+03 -0.15336735956E+03  0.39794224467E+02  0.27644618560E+03  0.00000000000E+00 0.  1.
   -9000007    1    1    2    0  502  0.13686168451E+03  0.16874086252E+03  0.10089180251E+04  0.11068514718E+04  0.40000000000E+03 0. -1.
<mgrwt>
<rscale>  2 0.45445702E+03</rscale>
<asrwt>0</asrwt>
<pdfrwt beam="1">  1       21 0.22480560E+00 0.45519732E+03</pdfrwt>
<pdfrwt beam="2">  1       21 0.27035698E-01 0.45519732E+03</pdfrwt>
<totfact> 0.10129674E+03</totfact>
</mgrwt>
</event>
