<event>
 4    1  0.4656822E-002  0.4185391E+03  0.7818608E-02  0.1037543E+00
         21   -1    0    0  501  502  0.00000000000E+00  0.00000000000E+00  0.26808826064E+03  0.26808826064E+03  0.00000000000E+00 0.  1.
         21   -1    0    0  502  503 -0.00000000000E+00 -0.00000000000E+00 -0.16002136031E+04  0.16002136031E+04  0.00000000000E+00 0.  1.
    9000007    1    1    2  501    0 -0.10143043619E+03 -0.69906029429E+02  0.52484168994E+02  0.42181699152E+03  0.40000000000E+03 0.  1.
   -9000007    1    1    2    0  503  0.10143043619E+03  0.69906029429E+02 -0.13846095115E+04  0.14464848722E+04  0.40000000000E+03 0.  1.
<mgrwt>
<rscale>  2 0.41853911E+03</rscale>
<asrwt>0</asrwt>
<pdfrwt beam="1">  1       21 0.41244347E-01 0.41853911E+03</pdfrwt>
<pdfrwt beam="2">  1       21 0.24618671E+00 0.41853911E+03</pdfrwt>
<totfact> 0.32471841E+02</totfact>
</mgrwt>
</event>
<event>
 4    1  0.4656822E-002  0.5793214E+03  0.7818608E-02  0.9949261E-01
         21   -1    0    0  501  502  0.00000000000E+00  0.00000000000E+00  0.22940894739E+04  0.22940894739E+04  0.00000000000E+00 0.  1.
         21   -1    0    0  502  503 -0.00000000000E+00 -0.00000000000E+00 -0.16161968815E+03  0.16161968815E+03  0.00000000000E+00 0. -1.
    9000007    1    1    2  501    0  0.62694166793E+02  0.41434612171E+03  0.14443282419E+04  0.15561803679E+04  0.40000000000E+03 0.  1.
   -9000007    1    1    2    0  503 -0.62694166793E+02 -0.41434612171E+03  0.68814154386E+03  0.89952879416E+03  0.40000000000E+03 0. -1.
<mgrwt>
<rscale>  2 0.57932139E+03</rscale>
<asrwt>0</asrwt>
<pdfrwt beam="1">  1       21 0.35293682E+00 0.57932139E+03</pdfrwt>
<pdfrwt beam="2">  1       21 0.24864569E-01 0.57932139E+03</pdfrwt>
<totfact> 0.18426471E+02</totfact>
</mgrwt>
</event>
<event>
 4    1  0.4656822E-002  0.6036839E+03  0.7818608E-02  0.9897792E-01
         21   -1    0    0  501  502  0.00000000000E+00  0.00000000000E+00  0.59000158593E+03  0.59000158593E+03  0.00000000000E+00 0. -1.
         21   -1    0    0  502  503 -0.00000000000E+00 -0.00000000000E+00 -0.10626350244E+04  0.10626350244E+04  0.00000000000E+00 0.  1.
    9000007    1    1    2  501    0  0.42253195915E+03  0.16093803631E+03  0.29838503339E+03  0.67340027932E+03  0.40000000000E+03 0. -1.
   -9000007    1    1    2    0  503 -0.42253195915E+03 -0.16093803631E+03 -0.77101847191E+03  0.97923633105E+03  0.40000000000E+03 0.  1.
<mgrwt>
<rscale>  2 0.60368395E+03</rscale>
<asrwt>0</asrwt>
<pdfrwt beam="1">  1       21 0.90769476E-01 0.60368395E+03</pdfrwt>
<pdfrwt beam="2">  1       21 0.16348231E+00 0.60368395E+03</pdfrwt>
<totfact> 0.18613784E+02</totfact>
</mgrwt>
</event>
<event>
 4    1  0.4656822E-002  0.4766862E+03  0.7818608E-02  0.1020050E+00
         21   -1    0    0  501  502  0.00000000000E+00  0.00000000000E+00  0.20031777017E+03  0.20031777017E+03  0.00000000000E+00 0.  1.
         21   -1    0    0  502  503 -0.00000000000E+00 -0.00000000000E+00 -0.18946767477E+04  0.18946767477E+04  0.00000000000E+00 0.  1.
    9000007    1    1    2  501    0 -0.18632611697E+03  0.18031170167E+03 -0.18360984660E+03  0.51082512408E+03  0.40000000000E+03 0.  1.
   -9000007    1    1    2    0  503  0.18632611697E+03 -0.18031170167E+03 -0.15107491309E+04  0.15841693938E+04  0.40000000000E+03 0.  1.
<mgrwt>
<rscale>  2 0.47668620E+03</rscale>
<asrwt>0</asrwt>
<pdfrwt beam="1">  1       21 0.30818118E-01 0.47668620E+03</pdfrwt>
<pdfrwt beam="2">  1       21 0.29148874E+00 0.47668620E+03</pdfrwt>
<totfact> 0.30135688E+02</totfact>
</mgrwt>
</event>
<event>
 4    1  0.4656822E-002  0.4246025E+03  0.7818608E-02  0.1035579E+00
         21   -1    0    0  501  502  0.00000000000E+00  0.00000000000E+00  0.14803689491E+03  0.14803689491E+03  0.00000000000E+00 0.  1.
         21   -1    0    0  502  503 -0.00000000000E+00 -0.00000000000E+00 -0.12181564661E+04  0.12181564661E+04  0.00000000000E+00 0. -1.
    9000007    1    1    2  501    0  0.14095065875E+03  0.20498656027E+02 -0.52429091299E+03  0.67466157779E+03  0.40000000000E+03 0.  1.
   -9000007    1    1    2    0  503 -0.14095065875E+03 -0.20498656027E+02 -0.54582865821E+03  0.69153178323E+03  0.40000000000E+03 0. -1.
<mgrwt>
<rscale>  2 0.42460250E+03</rscale>
<asrwt>0</asrwt>
<pdfrwt beam="1">  1       21 0.22774906E-01 0.42460250E+03</pdfrwt>
<pdfrwt beam="2">  1       21 0.18740870E+00 0.42460250E+03</pdfrwt>
<totfact> 0.25266212E+03</totfact>
</mgrwt>
</event>
<event>
 4    1  0.4656822E-002  0.4064601E+03  0.7818608E-02  0.1041565E+00
         21   -1    0    0  503  502  0.00000000000E+00  0.00000000000E+00  0.94893479092E+03  0.94893479092E+03  0.00000000000E+00 0. -1.
         21   -1    0    0  501  503 -0.00000000000E+00 -0.00000000000E+00 -0.25112607741E+03  0.25112607741E+03  0.00000000000E+00 0. -1.
    9000007    1    1    2  501    0 -0.42382453767E+01  0.72054476431E+02  0.16592772203E+02  0.40679863617E+03  0.40000000000E+03 0. -1.
   -9000007    1    1    2    0  502  0.42382453767E+01 -0.72054476431E+02  0.68121594131E+03  0.79326223217E+03  0.40000000000E+03 0. -1.
<mgrwt>
<rscale>  2 0.40646010E+03</rscale>
<asrwt>0</asrwt>
<pdfrwt beam="1">  1       21 0.14598997E+00 0.40646010E+03</pdfrwt>
<pdfrwt beam="2">  1       21 0.38634782E-01 0.40646010E+03</pdfrwt>
<totfact> 0.18049248E+03</totfact>
</mgrwt>
</event>
<event>
 4    1  0.4656822E-002  0.4019406E+03  0.7818608E-02  0.1043110E+00
         21   -1    0    0  501  502  0.00000000000E+00  0.00000000000E+00  0.11306236127E+04  0.11306236127E+04  0.00000000000E+00 0.  1.
         21   -1    0    0  502  503 -0.00000000000E+00 -0.00000000000E+00 -0.46345002634E+03  0.46345002634E+03  0.00000000000E+00 0.  1.
    9000007    1    1    2  501    0 -0.17445729134E+02  0.35382481815E+02  0.99646040900E+03  0.10744717866E+04  0.40000000000E+03 0.  1.
   -9000007    1    1    2    0  503  0.17445729134E+02 -0.35382481815E+02 -0.32928682265E+03  0.51960185244E+03  0.40000000000E+03 0.  1.
<mgrwt>
<rscale>  2 0.40194063E+03</rscale>
<asrwt>0</asrwt>
<pdfrwt beam="1">  1       21 0.17394209E+00 0.40194063E+03</pdfrwt>
<pdfrwt beam="2">  1       21 0.71300004E-01 0.40194063E+03</pdfrwt>
<totfact> 0.29966472E+02</totfact>
</mgrwt>
</event>
<event>
 4    1  0.4656822E-002  0.4535991E+03  0.7818608E-02  0.1026654E+00
         21   -1    0    0  503  502  0.00000000000E+00  0.00000000000E+00  0.25119145535E+03  0.25119145535E+03  0.00000000000E+00 0.  1.
         21   -1    0    0  501  503 -0.00000000000E+00 -0.00000000000E+00 -0.85394386653E+03  0.85394386653E+03  0.00000000000E+00 0.  1.
    9000007    1    1    2  501    0 -0.20114491566E+03 -0.72751913273E+02 -0.41298650577E+03  0.61344109084E+03  0.40000000000E+03 0.  1.
   -9000007    1    1    2    0  502  0.20114491566E+03  0.72751913273E+02 -0.18976590541E+03  0.49169423104E+03  0.40000000000E+03 0.  1.
<mgrwt>
<rscale>  2 0.45359907E+03</rscale>
<asrwt>0</asrwt>
<pdfrwt beam="1">  1       21 0.38644840E-01 0.45359907E+03</pdfrwt>
<pdfrwt beam="2">  1       21 0.13137598E+00 0.45359907E+03</pdfrwt>
<totfact> 0.23387870E+03</totfact>
</mgrwt>
</event>
<event>
 4    1  0.4656822E-002  0.4367079E+03  0.7818608E-02  0.1031762E+00
         21   -1    0    0  503  502  0.00000000000E+00  0.00000000000E+00  0.35722865977E+03  0.35722865977E+03  0.00000000000E+00 0.  1.
         21   -1    0    0  501  503 -0.00000000000E+00 -0.00000000000E+00 -0.15130804045E+04  0.15130804045E+04  0.00000000000E+00 0.  1.
    9000007    1    1    2  501    0  0.15883550903E+03  0.74061204826E+02 -0.13302245821E+04  0.14000754336E+04  0.40000000000E+03 0.  1.
   -9000007    1    1    2    0  502 -0.15883550903E+03 -0.74061204826E+02  0.17437283737E+03  0.47023363065E+03  0.40000000000E+03 0.  1.
<mgrwt>
<rscale>  2 0.43670789E+03</rscale>
<asrwt>0</asrwt>
<pdfrwt beam="1">  1       21 0.54958257E-01 0.43670789E+03</pdfrwt>
<pdfrwt beam="2">  1       21 0.23278159E+00 0.43670789E+03</pdfrwt>
<totfact> 0.21230375E+02</totfact>
</mgrwt>
</event>
<event>
 4    1  0.4656822E-002  0.4017551E+03  0.7818608E-02  0.1043174E+00
         21   -1    0    0  501  502  0.00000000000E+00  0.00000000000E+00  0.26740147603E+03  0.26740147603E+03  0.00000000000E+00 0.  1.
         21   -1    0    0  502  503 -0.00000000000E+00 -0.00000000000E+00 -0.63998236590E+03  0.63998236590E+03  0.00000000000E+00 0.  1.
    9000007    1    1    2  501    0 -0.19481908402E+02 -0.32056345126E+02 -0.29444420612E+03  0.49810093810E+03  0.40000000000E+03 0. -1.
   -9000007    1    1    2    0  503  0.19481908402E+02  0.32056345126E+02 -0.78136683757E+02  0.40928290383E+03  0.40000000000E+03 0. -1.
<mgrwt>
<rscale>  2 0.40175509E+03</rscale>
<asrwt>0</asrwt>
<pdfrwt beam="1">  1       21 0.41138689E-01 0.40175509E+03</pdfrwt>
<pdfrwt beam="2">  1       21 0.98458824E-01 0.40175509E+03</pdfrwt>
<totfact> 0.43179377E+03</totfact>
</mgrwt>
</event>
<event>
 4    1  0.4656822E-002  0.4923021E+03  0.7818608E-02  0.1015808E+00
         21   -1    0    0  503  502  0.00000000000E+00  0.00000000000E+00  0.20087536667E+03  0.20087536667E+03  0.00000000000E+00 0. -1.
         21   -1    0    0  501  503 -0.00000000000E+00 -0.00000000000E+00 -0.16037448719E+04  0.16037448719E+04  0.00000000000E+00 0.  1.
    9000007    1    1    2  501    0 -0.25644397213E+03 -0.12883274187E+03 -0.11504933681E+04  0.12513977690E+04  0.40000000000E+03 0.  1.
   -9000007    1    1    2    0  502  0.25644397213E+03  0.12883274187E+03 -0.25237613709E+03  0.55322246953E+03  0.40000000000E+03 0. -1.
<mgrwt>
<rscale>  2 0.49230213E+03</rscale>
<asrwt>0</asrwt>
<pdfrwt beam="1">  1       21 0.30903903E-01 0.49230213E+03</pdfrwt>
<pdfrwt beam="2">  1       21 0.24672998E+00 0.49230213E+03</pdfrwt>
<totfact> 0.55670791E+02</totfact>
</mgrwt>
</event>
<event>
 4    1  0.4656822E-002  0.4646390E+03  0.7818608E-02  0.1023444E+00
         21   -1    0    0  503  502  0.00000000000E+00  0.00000000000E+00  0.73714018354E+03  0.73714018354E+03  0.00000000000E+00 0.  1.
         21   -1    0    0  501  503 -0.00000000000E+00 -0.00000000000E+00 -0.30917245182E+03  0.30917245182E+03  0.00000000000E+00 0.  1.
    9000007    1    1    2  501    0  0.10707592223E+03 -0.21077032778E+03  0.93867877205E+02  0.47402590917E+03  0.40000000000E+03 0.  1.
   -9000007    1    1    2    0  502 -0.10707592223E+03  0.21077032778E+03  0.33409985451E+03  0.57228672620E+03  0.40000000000E+03 0.  1.
<mgrwt>
<rscale>  2 0.46463898E+03</rscale>
<asrwt>0</asrwt>
<pdfrwt beam="1">  1       21 0.11340618E+00 0.46463898E+03</pdfrwt>
<pdfrwt beam="2">  1       21 0.47564993E-01 0.46463898E+03</pdfrwt>
<totfact> 0.22004737E+03</totfact>
</mgrwt>
</event>
<event>
 4    1  0.4656822E-002  0.4559899E+03  0.7818608E-02  0.1025951E+00
         21   -1    0    0  503  502  0.00000000000E+00  0.00000000000E+00  0.23868537090E+03  0.23868537090E+03  0.00000000000E+00 0.  1.
         21   -1    0    0  501  503 -0.00000000000E+00 -0.00000000000E+00 -0.91253040051E+03  0.91253040051E+03  0.00000000000E+00 0. -1.
    9000007    1    1    2  501    0  0.16393910183E+03 -0.14508868566E+03 -0.21432308692E+03  0.50384634702E+03  0.40000000000E+03 0.  1.
   -9000007    1    1    2    0  502 -0.16393910183E+03  0.14508868566E+03 -0.45952194269E+03  0.64736942439E+03  0.40000000000E+03 0. -1.
<mgrwt>
<rscale>  2 0.45598986E+03</rscale>
<asrwt>0</asrwt>
<pdfrwt beam="1">  1       21 0.36720826E-01 0.45598986E+03</pdfrwt>
<pdfrwt beam="2">  1       21 0.14038929E+00 0.45598986E+03</pdfrwt>
<totfact> 0.21782462E+03</totfact>
</mgrwt>
</event>
<event>
 4    1  0.4656822E-002  0.6146539E+03  0.7818608E-02  0.9875462E-01
         21   -1    0    0  503  502  0.00000000000E+00  0.00000000000E+00  0.79499705310E+03  0.79499705310E+03  0.00000000000E+00 0.  1.
         21   -1    0    0  501  503 -0.00000000000E+00 -0.00000000000E+00 -0.51821140528E+03  0.51821140528E+03  0.00000000000E+00 0.  1.
    9000007    1    1    2  501    0  0.46034633394E+03  0.76685862090E+02 -0.50726042478E+02  0.61674354476E+03  0.40000000000E+03 0.  1.
   -9000007    1    1    2    0  502 -0.46034633394E+03 -0.76685862090E+02  0.32751169029E+03  0.69646491361E+03  0.40000000000E+03 0.  1.
<mgrwt>
<rscale>  2 0.61465394E+03</rscale>
<asrwt>0</asrwt>
<pdfrwt beam="1">  1       21 0.12230724E+00 0.61465394E+03</pdfrwt>
<pdfrwt beam="2">  1       21 0.79724832E-01 0.61465394E+03</pdfrwt>
<totfact> 0.55055260E+02</totfact>
</mgrwt>
</event>
<event>
 4    1  0.4656822E-002  0.4879620E+03  0.7818608E-02  0.1016970E+00
         21   -1    0    0  501  502  0.00000000000E+00  0.00000000000E+00  0.43270576477E+03  0.43270576477E+03  0.00000000000E+00 0. -1.
         21   -1    0    0  502  503 -0.00000000000E+00 -0.00000000000E+00 -0.55048115886E+03  0.55048115886E+03  0.00000000000E+00 0.  1.
    9000007    1    1    2  501    0  0.27015612580E+03  0.71572044193E+02 -0.49359647907E+02  0.49045210231E+03  0.40000000000E+03 0. -1.
   -9000007    1    1    2    0  503 -0.27015612580E+03 -0.71572044193E+02 -0.68415746184E+02  0.49273482132E+03  0.40000000000E+03 0.  1.
<mgrwt>
<rscale>  2 0.48796198E+03</rscale>
<asrwt>0</asrwt>
<pdfrwt beam="1">  1       21 0.66570118E-01 0.48796198E+03</pdfrwt>
<pdfrwt beam="2">  1       21 0.84689409E-01 0.48796198E+03</pdfrwt>
<totfact> 0.21326629E+03</totfact>
</mgrwt>
</event>
<event>
 4    1  0.4656822E-002  0.4398253E+03  0.7818608E-02  0.1030800E+00
         21   -1    0    0  501  502  0.00000000000E+00  0.00000000000E+00  0.47638698474E+03  0.47638698474E+03  0.00000000000E+00 0.  1.
         21   -1    0    0  502  503 -0.00000000000E+00 -0.00000000000E+00 -0.59073536282E+03  0.59073536282E+03  0.00000000000E+00 0.  1.
    9000007    1    1    2  501    0 -0.15126371968E+03  0.10278921428E+03  0.24114471227E+03  0.50159456508E+03  0.40000000000E+03 0.  1.
   -9000007    1    1    2    0  503  0.15126371968E+03 -0.10278921428E+03 -0.35549309036E+03  0.56552778248E+03  0.40000000000E+03 0.  1.
<mgrwt>
<rscale>  2 0.43982535E+03</rscale>
<asrwt>0</asrwt>
<pdfrwt beam="1">  1       21 0.73290306E-01 0.43982535E+03</pdfrwt>
<pdfrwt beam="2">  1       21 0.90882363E-01 0.43982535E+03</pdfrwt>
<totfact> 0.14802692E+03</totfact>
</mgrwt>
</event>
<event>
 4    1  0.4656822E-002  0.4419884E+03  0.7818608E-02  0.1030138E+00
         21   -1    0    0  503  502  0.00000000000E+00  0.00000000000E+00  0.10850529825E+03  0.10850529825E+03  0.00000000000E+00 0.  1.
         21   -1    0    0  501  503 -0.00000000000E+00 -0.00000000000E+00 -0.23332899868E+04  0.23332899868E+04  0.00000000000E+00 0.  1.
    9000007    1    1    2  501    0  0.14656334647E+03 -0.11778341166E+03 -0.16958517473E+04  0.17525030372E+04  0.40000000000E+03 0.  1.
   -9000007    1    1    2    0  502 -0.14656334647E+03  0.11778341166E+03 -0.52893294125E+03  0.68929224784E+03  0.40000000000E+03 0.  1.
<mgrwt>
<rscale>  2 0.44198840E+03</rscale>
<asrwt>0</asrwt>
<pdfrwt beam="1">  1       21 0.16693122E-01 0.44198840E+03</pdfrwt>
<pdfrwt beam="2">  1       21 0.35896772E+00 0.44198840E+03</pdfrwt>
<totfact> 0.39101948E+02</totfact>
</mgrwt>
</event>
<event>
 4    1  0.4656822E-002  0.5887016E+03  0.7818608E-02  0.9929128E-01
         21   -1    0    0  503  502  0.00000000000E+00  0.00000000000E+00  0.16623507305E+04  0.16623507305E+04  0.00000000000E+00 0.  1.
         21   -1    0    0  501  503 -0.00000000000E+00 -0.00000000000E+00 -0.21136723881E+03  0.21136723881E+03  0.00000000000E+00 0. -1.
    9000007    1    1    2  501    0 -0.37049920620E+03 -0.22203576336E+03  0.61602649251E+03  0.85209047728E+03  0.40000000000E+03 0.  1.
   -9000007    1    1    2    0  502  0.37049920620E+03  0.22203576336E+03  0.83495699918E+03  0.10216274920E+04  0.40000000000E+03 0. -1.
<mgrwt>
<rscale>  2 0.58870157E+03</rscale>
<asrwt>0</asrwt>
<pdfrwt beam="1">  1       21 0.25574626E+00 0.58870157E+03</pdfrwt>
<pdfrwt beam="2">  1       21 0.32518038E-01 0.58870157E+03</pdfrwt>
<totfact> 0.42385087E+02</totfact>
</mgrwt>
</event>
<event>
 4    1  0.4656822E-002  0.4284523E+03  0.7818608E-02  0.1034350E+00
         21   -1    0    0  503  502  0.00000000000E+00  0.00000000000E+00  0.12950553014E+04  0.12950553014E+04  0.00000000000E+00 0. -1.
         21   -1    0    0  501  503 -0.00000000000E+00 -0.00000000000E+00 -0.91069761048E+03  0.91069761048E+03  0.00000000000E+00 0. -1.
    9000007    1    1    2  501    0  0.29625405366E+02 -0.15064429509E+03 -0.82123943998E+03  0.92628590946E+03  0.40000000000E+03 0. -1.
   -9000007    1    1    2    0  502 -0.29625405366E+02  0.15064429509E+03  0.12055971309E+04  0.12794670025E+04  0.40000000000E+03 0. -1.
<mgrwt>
<rscale>  2 0.42845229E+03</rscale>
<asrwt>0</asrwt>
<pdfrwt beam="1">  1       21 0.19923928E+00 0.42845229E+03</pdfrwt>
<pdfrwt beam="2">  1       21 0.14010732E+00 0.42845229E+03</pdfrwt>
<totfact> 0.38182605E+01</totfact>
</mgrwt>
</event>
<event>
 4    1  0.4656822E-002  0.6392857E+03  0.7818608E-02  0.9827094E-01
         21   -1    0    0  503  502  0.00000000000E+00  0.00000000000E+00  0.32500037137E+03  0.32500037137E+03  0.00000000000E+00 0. -1.
         21   -1    0    0  501  503 -0.00000000000E+00 -0.00000000000E+00 -0.15855137114E+04  0.15855137114E+04  0.00000000000E+00 0.  1.
    9000007    1    1    2  501    0  0.49324663062E+03  0.73443424112E+02 -0.10647517824E+04  0.12419269436E+04  0.40000000000E+03 0. -1.
   -9000007    1    1    2    0  502 -0.49324663062E+03 -0.73443424112E+02 -0.19576155761E+03  0.66858713912E+03  0.40000000000E+03 0.  1.
<mgrwt>
<rscale>  2 0.63928568E+03</rscale>
<asrwt>0</asrwt>
<pdfrwt beam="1">  1       21 0.50000057E-01 0.63928568E+03</pdfrwt>
<pdfrwt beam="2">  1       21 0.24392519E+00 0.63928568E+03</pdfrwt>
<totfact> 0.20146211E+02</totfact>
</mgrwt>
</event>
<event>
 4    1  0.4656822E-002  0.5171488E+03  0.7818608E-02  0.1009397E+00
         21   -1    0    0  501  502  0.00000000000E+00  0.00000000000E+00  0.10219762683E+04  0.10219762683E+04  0.00000000000E+00 0. -1.
         21   -1    0    0  502  503 -0.00000000000E+00 -0.00000000000E+00 -0.30590557519E+03  0.30590557519E+03  0.00000000000E+00 0. -1.
    9000007    1    1    2  501    0  0.32471216527E+03  0.44775957334E+02  0.61044979819E+03  0.80005739340E+03  0.40000000000E+03 0. -1.
   -9000007    1    1    2    0  503 -0.32471216527E+03 -0.44775957334E+02  0.10562089488E+03  0.52782445004E+03  0.40000000000E+03 0. -1.
<mgrwt>
<rscale>  2 0.51714880E+03</rscale>
<asrwt>0</asrwt>
<pdfrwt beam="1">  1       21 0.15722712E+00 0.51714880E+03</pdfrwt>
<pdfrwt beam="2">  1       21 0.47062397E-01 0.51714880E+03</pdfrwt>
<totfact> 0.93490587E+02</totfact>
</mgrwt>
</event>
<event>
 4    1  0.4656822E-002  0.4866344E+03  0.7818608E-02  0.1017328E+00
         21   -1    0    0  501  502  0.00000000000E+00  0.00000000000E+00  0.63460663188E+03  0.63460663188E+03  0.00000000000E+00 0. -1.
         21   -1    0    0  502  503 -0.00000000000E+00 -0.00000000000E+00 -0.70651612238E+03  0.70651612238E+03  0.00000000000E+00 0. -1.
    9000007    1    1    2  501    0  0.27682943367E+03 -0.13361294120E+02  0.42464997063E+03  0.64586427141E+03  0.40000000000E+03 0. -1.
   -9000007    1    1    2    0  503 -0.27682943367E+03  0.13361294120E+02 -0.49655946114E+03  0.69525848285E+03  0.40000000000E+03 0. -1.
<mgrwt>
<rscale>  2 0.48663442E+03</rscale>
<asrwt>0</asrwt>
<pdfrwt beam="1">  1       21 0.97631790E-01 0.48663442E+03</pdfrwt>
<pdfrwt beam="2">  1       21 0.10869479E+00 0.48663442E+03</pdfrwt>
<totfact> 0.48058299E+02</totfact>
</mgrwt>
</event>
<event>
 4    1  0.4656822E-002  0.4232453E+03  0.7818608E-02  0.1036015E+00
         21   -1    0    0  503  502  0.00000000000E+00  0.00000000000E+00  0.14748132330E+04  0.14748132330E+04  0.00000000000E+00 0.  1.
         21   -1    0    0  501  503 -0.00000000000E+00 -0.00000000000E+00 -0.13316630601E+03  0.13316630601E+03  0.00000000000E+00 0.  1.
    9000007    1    1    2  501    0  0.12988300309E+03 -0.47613267925E+02  0.43248711088E+03  0.60512950585E+03  0.40000000000E+03 0.  1.
   -9000007    1    1    2    0  502 -0.12988300309E+03  0.47613267925E+02  0.90915981612E+03  0.10028500332E+04  0.40000000000E+03 0.  1.
<mgrwt>
<rscale>  2 0.42324534E+03</rscale>
<asrwt>0</asrwt>
<pdfrwt beam="1">  1       21 0.22689433E+00 0.42324534E+03</pdfrwt>
<pdfrwt beam="2">  1       21 0.20487125E-01 0.42324534E+03</pdfrwt>
<totfact> 0.17055892E+03</totfact>
</mgrwt>
</event>
<event>
 4    1  0.4656822E-002  0.4364058E+03  0.7818608E-02  0.1031855E+00
         21   -1    0    0  503  502  0.00000000000E+00  0.00000000000E+00  0.15656431577E+04  0.15656431577E+04  0.00000000000E+00 0. -1.
         21   -1    0    0  501  503 -0.00000000000E+00 -0.00000000000E+00 -0.12363154525E+03  0.12363154525E+03  0.00000000000E+00 0. -1.
    9000007    1    1    2  501    0 -0.63879509166E+02  0.16238662309E+03  0.61389330958E+03  0.75320316157E+03  0.40000000000E+03 0. -1.
   -9000007    1    1    2    0  502  0.63879509166E+02 -0.16238662309E+03  0.82811830292E+03  0.93607154143E+03  0.40000000000E+03 0. -1.
<mgrwt>
<rscale>  2 0.43640578E+03</rscale>
<asrwt>0</asrwt>
<pdfrwt beam="1">  1       21 0.24086816E+00 0.43640578E+03</pdfrwt>
<pdfrwt beam="2">  1       21 0.19020239E-01 0.43640578E+03</pdfrwt>
<totfact> 0.15963080E+03</totfact>
</mgrwt>
</event>
<event>
 4    1  0.4656822E-002  0.4054405E+03  0.7818608E-02  0.1041912E+00
         21   -1    0    0  503  502  0.00000000000E+00  0.00000000000E+00  0.41875124964E+03  0.41875124964E+03  0.00000000000E+00 0.  1.
         21   -1    0    0  501  503 -0.00000000000E+00 -0.00000000000E+00 -0.45255154440E+03  0.45255154440E+03  0.00000000000E+00 0.  1.
    9000007    1    1    2  501    0  0.66638236218E+01  0.65860135752E+02 -0.17552683879E+03  0.44180497413E+03  0.40000000000E+03 0.  1.
   -9000007    1    1    2    0  502 -0.66638236218E+01 -0.65860135752E+02  0.14172654404E+03  0.42949781991E+03  0.40000000000E+03 0.  1.
<mgrwt>
<rscale>  2 0.40544046E+03</rscale>
<asrwt>0</asrwt>
<pdfrwt beam="1">  1       21 0.64423270E-01 0.40544046E+03</pdfrwt>
<pdfrwt beam="2">  1       21 0.69623314E-01 0.40544046E+03</pdfrwt>
<totfact> 0.37026088E+03</totfact>
</mgrwt>
</event>
<event>
 4    1  0.4656822E-002  0.5705554E+03  0.7818608E-02  0.9968450E-01
         21   -1    0    0  501  502  0.00000000000E+00  0.00000000000E+00  0.66770503271E+03  0.66770503271E+03  0.00000000000E+00 0.  1.
         21   -1    0    0  502  503 -0.00000000000E+00 -0.00000000000E+00 -0.70822452725E+03  0.70822452725E+03  0.00000000000E+00 0. -1.
    9000007    1    1    2  501    0  0.10961003914E+03 -0.39181516983E+03 -0.40429033483E+03  0.69927402556E+03  0.40000000000E+03 0. -1.
   -9000007    1    1    2    0  503 -0.10961003914E+03  0.39181516983E+03  0.36377084029E+03  0.67665553440E+03  0.40000000000E+03 0.  1.
<mgrwt>
<rscale>  2 0.57055542E+03</rscale>
<asrwt>0</asrwt>
<pdfrwt beam="1">  1       21 0.10272385E+00 0.57055542E+03</pdfrwt>
<pdfrwt beam="2">  1       21 0.10895762E+00 0.57055542E+03</pdfrwt>
<totfact> 0.40850102E+02</totfact>
</mgrwt>
</event>
<event>
 4    1  0.4656822E-002  0.4176214E+03  0.7818608E-02  0.1037843E+00
         21   -1    0    0  503  502  0.00000000000E+00  0.00000000000E+00  0.87118135909E+03  0.87118135909E+03  0.00000000000E+00 0.  1.
         21   -1    0    0  501  503 -0.00000000000E+00 -0.00000000000E+00 -0.22925849460E+03  0.22925849460E+03  0.00000000000E+00 0.  1.
    9000007    1    1    2  501    0 -0.10929748754E+03  0.49615102948E+02  0.12506113163E+03  0.43594481975E+03  0.40000000000E+03 0.  1.
   -9000007    1    1    2    0  502  0.10929748754E+03 -0.49615102948E+02  0.51686173287E+03  0.66449503394E+03  0.40000000000E+03 0.  1.
<mgrwt>
<rscale>  2 0.41762136E+03</rscale>
<asrwt>0</asrwt>
<pdfrwt beam="1">  1       21 0.13402790E+00 0.41762136E+03</pdfrwt>
<pdfrwt beam="2">  1       21 0.35270538E-01 0.41762136E+03</pdfrwt>
<totfact> 0.27117885E+03</totfact>
</mgrwt>
</event>
<event>
 4    1  0.4656822E-002  0.7911374E+03  0.7818608E-02  0.9572935E-01
         21   -1    0    0  503  502  0.00000000000E+00  0.00000000000E+00  0.54765482175E+03  0.54765482175E+03  0.00000000000E+00 0. -1.
         21   -1    0    0  501  503 -0.00000000000E+00 -0.00000000000E+00 -0.11735511071E+04  0.11735511071E+04  0.00000000000E+00 0. -1.
    9000007    1    1    2  501    0  0.44024344718E+03 -0.52161683571E+03 -0.17379743808E+03  0.81000244787E+03  0.40000000000E+03 0. -1.
   -9000007    1    1    2    0  502 -0.44024344718E+03  0.52161683571E+03 -0.45209884730E+03  0.91120348101E+03  0.40000000000E+03 0. -1.
<mgrwt>
<rscale>  2 0.79113742E+03</rscale>
<asrwt>0</asrwt>
<pdfrwt beam="1">  1       21 0.84254590E-01 0.79113742E+03</pdfrwt>
<pdfrwt beam="2">  1       21 0.18054632E+00 0.79113742E+03</pdfrwt>
<totfact> 0.15654065E+02</totfact>
</mgrwt>
</event>
<event>
 4    1  0.4656822E-002  0.4700277E+03  0.7818608E-02  0.1021912E+00
         21   -1    0    0  501  502  0.00000000000E+00  0.00000000000E+00  0.68798214347E+03  0.68798214347E+03  0.00000000000E+00 0. -1.
         21   -1    0    0  502  503 -0.00000000000E+00 -0.00000000000E+00 -0.32347596097E+03  0.32347596097E+03  0.00000000000E+00 0. -1.
    9000007    1    1    2  501    0  0.18272609298E+03  0.16594341405E+03  0.22539685201E+03  0.52127706896E+03  0.40000000000E+03 0. -1.
   -9000007    1    1    2    0  503 -0.18272609298E+03 -0.16594341405E+03  0.13910933049E+03  0.49018103549E+03  0.40000000000E+03 0. -1.
<mgrwt>
<rscale>  2 0.47002770E+03</rscale>
<asrwt>0</asrwt>
<pdfrwt beam="1">  1       21 0.10584341E+00 0.47002770E+03</pdfrwt>
<pdfrwt beam="2">  1       21 0.49765533E-01 0.47002770E+03</pdfrwt>
<totfact> 0.23682456E+03</totfact>
</mgrwt>
</event>
<event>
 4    1  0.4656822E-002  0.4203950E+03  0.7818608E-02  0.1036938E+00
         21   -1    0    0  501  502  0.00000000000E+00  0.00000000000E+00  0.25908738448E+03  0.25908738448E+03  0.00000000000E+00 0.  1.
         21   -1    0    0  502  503 -0.00000000000E+00 -0.00000000000E+00 -0.17560857302E+04  0.17560857302E+04  0.00000000000E+00 0.  1.
    9000007    1    1    2  501    0 -0.12683844890E+03  0.25376539797E+02  0.39457185407E+02  0.42224262027E+03  0.40000000000E+03 0.  1.
   -9000007    1    1    2    0  503  0.12683844890E+03 -0.25376539797E+02 -0.15364555311E+04  0.15929304944E+04  0.40000000000E+03 0.  1.
<mgrwt>
<rscale>  2 0.42039501E+03</rscale>
<asrwt>0</asrwt>
<pdfrwt beam="1">  1       21 0.39859597E-01 0.42039501E+03</pdfrwt>
<pdfrwt beam="2">  1       21 0.27016704E+00 0.42039501E+03</pdfrwt>
<totfact> 0.24873049E+02</totfact>
</mgrwt>
</event>
<event>
 4    1  0.4656822E-002  0.4242837E+03  0.7818608E-02  0.1035681E+00
         21   -1    0    0  501  502  0.00000000000E+00  0.00000000000E+00  0.10351484515E+04  0.10351484515E+04  0.00000000000E+00 0.  1.
         21   -1    0    0  502  503 -0.00000000000E+00 -0.00000000000E+00 -0.25006835152E+03  0.25006835152E+03  0.00000000000E+00 0.  1.
    9000007    1    1    2  501    0 -0.93690803278E+02 -0.10601280493E+03  0.74718378163E+03  0.85924401945E+03  0.40000000000E+03 0.  1.
   -9000007    1    1    2    0  503  0.93690803278E+02  0.10601280493E+03  0.37896318375E+02  0.42597278361E+03  0.40000000000E+03 0.  1.
<mgrwt>
<rscale>  2 0.42428373E+03</rscale>
<asrwt>0</asrwt>
<pdfrwt beam="1">  1       21 0.15925361E+00 0.42428373E+03</pdfrwt>
<pdfrwt beam="2">  1       21 0.38472055E-01 0.42428373E+03</pdfrwt>
<totfact> 0.14250617E+03</totfact>
</mgrwt>
</event>
<event>
 4    1  0.4656822E-002  0.4050796E+03  0.7818608E-02  0.1042035E+00
         21   -1    0    0  503  502  0.00000000000E+00  0.00000000000E+00  0.17492702946E+04  0.17492702946E+04  0.00000000000E+00 0. -1.
         21   -1    0    0  501  503 -0.00000000000E+00 -0.00000000000E+00 -0.10239112456E+03  0.10239112456E+03  0.00000000000E+00 0.  1.
    9000007    1    1    2  501    0  0.66505612875E+01 -0.63602167395E+02  0.10915483920E+04  0.11642883482E+04  0.40000000000E+03 0. -1.
   -9000007    1    1    2    0  502 -0.66505612875E+01  0.63602167395E+02  0.55533077813E+03  0.68737307105E+03  0.40000000000E+03 0. -1.
<mgrwt>
<rscale>  2 0.40507958E+03</rscale>
<asrwt>0</asrwt>
<pdfrwt beam="1">  1       21 0.26911848E+00 0.40507958E+03</pdfrwt>
<pdfrwt beam="2">  1       21 0.15752482E-01 0.40507958E+03</pdfrwt>
<totfact> 0.15534273E+03</totfact>
</mgrwt>
</event>
<event>
 4    1  0.4656822E-002  0.4289420E+03  0.7818608E-02  0.1034195E+00
         21   -1    0    0  501  502  0.00000000000E+00  0.00000000000E+00  0.43086938165E+03  0.43086938165E+03  0.00000000000E+00 0.  1.
         21   -1    0    0  502  503 -0.00000000000E+00 -0.00000000000E+00 -0.55876807237E+03  0.55876807237E+03  0.00000000000E+00 0.  1.
    9000007    1    1    2  501    0 -0.13280606248E+03  0.79710733298E+02  0.17631929205E+03  0.46376690695E+03  0.40000000000E+03 0.  1.
   -9000007    1    1    2    0  503  0.13280606248E+03 -0.79710733298E+02 -0.30421798277E+03  0.52587054707E+03  0.40000000000E+03 0.  1.
<mgrwt>
<rscale>  2 0.42894201E+03</rscale>
<asrwt>0</asrwt>
<pdfrwt beam="1">  1       21 0.66287597E-01 0.42894201E+03</pdfrwt>
<pdfrwt beam="2">  1       21 0.85964319E-01 0.42894201E+03</pdfrwt>
<totfact> 0.21243535E+03</totfact>
</mgrwt>
</event>
<event>
 4    1  0.4656822E-002  0.4244526E+03  0.7818608E-02  0.1035627E+00
         21   -1    0    0  501  502  0.00000000000E+00  0.00000000000E+00  0.50646505407E+03  0.50646505407E+03  0.00000000000E+00 0.  1.
         21   -1    0    0  502  503 -0.00000000000E+00 -0.00000000000E+00 -0.36780673086E+03  0.36780673086E+03  0.00000000000E+00 0.  1.
    9000007    1    1    2  501    0  0.13160164251E+03 -0.53300936716E+02  0.14857067961E+03  0.44970349010E+03  0.40000000000E+03 0.  1.
   -9000007    1    1    2    0  503 -0.13160164251E+03  0.53300936716E+02 -0.99123564019E+01  0.42456829483E+03  0.40000000000E+03 0.  1.
<mgrwt>
<rscale>  2 0.42445257E+03</rscale>
<asrwt>0</asrwt>
<pdfrwt beam="1">  1       21 0.77917701E-01 0.42445257E+03</pdfrwt>
<pdfrwt beam="2">  1       21 0.56585651E-01 0.42445257E+03</pdfrwt>
<totfact> 0.37835469E+03</totfact>
</mgrwt>
</event>
<event>
 4    1  0.4656822E-002  0.4218009E+03  0.7818608E-02  0.1036482E+00
         21   -1    0    0  503  502  0.00000000000E+00  0.00000000000E+00  0.27816706601E+03  0.27816706601E+03  0.00000000000E+00 0. -1.
         21   -1    0    0  501  503 -0.00000000000E+00 -0.00000000000E+00 -0.11549411973E+04  0.11549411973E+04  0.00000000000E+00 0. -1.
    9000007    1    1    2  501    0  0.13152279653E+03 -0.24854798831E+02 -0.91703475464E+03  0.10093902854E+04  0.40000000000E+03 0. -1.
   -9000007    1    1    2    0  502 -0.13152279653E+03  0.24854798831E+02  0.40260623330E+02  0.42371797793E+03  0.40000000000E+03 0. -1.
<mgrwt>
<rscale>  2 0.42180091E+03</rscale>
<asrwt>0</asrwt>
<pdfrwt beam="1">  1       21 0.42794933E-01 0.42180091E+03</pdfrwt>
<pdfrwt beam="2">  1       21 0.17768326E+00 0.42180091E+03</pdfrwt>
<totfact> 0.83995695E+02</totfact>
</mgrwt>
</event>
<event>
 4    1  0.4656822E-002  0.4208758E+03  0.7818608E-02  0.1036782E+00
         21   -1    0    0  503  502  0.00000000000E+00  0.00000000000E+00  0.12373494951E+04  0.12373494951E+04  0.00000000000E+00 0.  1.
         21   -1    0    0  501  503 -0.00000000000E+00 -0.00000000000E+00 -0.15736253299E+03  0.15736253299E+03  0.00000000000E+00 0.  1.
    9000007    1    1    2  501    0  0.12974041325E+03 -0.17432838354E+02  0.33047739821E+03  0.53511848166E+03  0.40000000000E+03 0.  1.
   -9000007    1    1    2    0  502 -0.12974041325E+03  0.17432838354E+02  0.74950956395E+03  0.85959354647E+03  0.40000000000E+03 0.  1.
<mgrwt>
<rscale>  2 0.42087585E+03</rscale>
<asrwt>0</asrwt>
<pdfrwt beam="1">  1       21 0.19036145E+00 0.42087585E+03</pdfrwt>
<pdfrwt beam="2">  1       21 0.24209621E-01 0.42087585E+03</pdfrwt>
<totfact> 0.21469318E+03</totfact>
</mgrwt>
</event>
<event>
 4    1  0.4656822E-002  0.4756221E+03  0.7818608E-02  0.1020345E+00
         21   -1    0    0  501  502  0.00000000000E+00  0.00000000000E+00  0.20738589435E+04  0.20738589435E+04  0.00000000000E+00 0. -1.
         21   -1    0    0  502  503 -0.00000000000E+00 -0.00000000000E+00 -0.10966667823E+03  0.10966667823E+03  0.00000000000E+00 0. -1.
    9000007    1    1    2  501    0 -0.20247353488E+01  0.25731746777E+03  0.10619541572E+04  0.11635991624E+04  0.40000000000E+03 0. -1.
   -9000007    1    1    2    0  503  0.20247353488E+01 -0.25731746777E+03  0.90223810801E+03  0.10199264593E+04  0.40000000000E+03 0. -1.
<mgrwt>
<rscale>  2 0.47562210E+03</rscale>
<asrwt>0</asrwt>
<pdfrwt beam="1">  1       21 0.31905519E+00 0.47562210E+03</pdfrwt>
<pdfrwt beam="2">  1       21 0.16871798E-01 0.47562210E+03</pdfrwt>
<totfact> 0.65837569E+02</totfact>
</mgrwt>
</event>
<event>
 4    1  0.4656822E-002  0.4056327E+03  0.7818608E-02  0.1041847E+00
         21   -1    0    0  501  502  0.00000000000E+00  0.00000000000E+00  0.12554918315E+04  0.12554918315E+04  0.00000000000E+00 0. -1.
         21   -1    0    0  502  503 -0.00000000000E+00 -0.00000000000E+00 -0.14185526883E+03  0.14185526883E+03  0.00000000000E+00 0. -1.
    9000007    1    1    2  501    0  0.39614689046E+02 -0.54484525346E+02  0.74960556131E+03  0.85231824141E+03  0.40000000000E+03 0. -1.
   -9000007    1    1    2    0  503 -0.39614689046E+02  0.54484525346E+02  0.36403100134E+03  0.54502885890E+03  0.40000000000E+03 0. -1.
<mgrwt>
<rscale>  2 0.40563270E+03</rscale>
<asrwt>0</asrwt>
<pdfrwt beam="1">  1       21 0.19315258E+00 0.40563270E+03</pdfrwt>
<pdfrwt beam="2">  1       21 0.21823888E-01 0.40563270E+03</pdfrwt>
<totfact> 0.25272166E+03</totfact>
</mgrwt>
</event>
<event>
 4    1  0.4656822E-002  0.5040296E+03  0.7818608E-02  0.1012732E+00
         21   -1    0    0  501  502  0.00000000000E+00  0.00000000000E+00  0.20086797174E+04  0.20086797174E+04  0.00000000000E+00 0. -1.
         21   -1    0    0  502  503 -0.00000000000E+00 -0.00000000000E+00 -0.17159007091E+03  0.17159007091E+03  0.00000000000E+00 0.  1.
    9000007    1    1    2  501    0  0.22359804427E+03 -0.20988035680E+03  0.14775290865E+04  0.15611335789E+04  0.40000000000E+03 0. -1.
   -9000007    1    1    2    0  503 -0.22359804427E+03  0.20988035680E+03  0.35956056000E+03  0.61913620947E+03  0.40000000000E+03 0.  1.
<mgrwt>
<rscale>  2 0.50402961E+03</rscale>
<asrwt>0</asrwt>
<pdfrwt beam="1">  1       21 0.30902763E+00 0.50402961E+03</pdfrwt>
<pdfrwt beam="2">  1       21 0.26398474E-01 0.50402961E+03</pdfrwt>
<totfact> 0.31607676E+02</totfact>
</mgrwt>
</event>
<event>
 4    1  0.4656822E-002  0.4120483E+03  0.7818608E-02  0.1039686E+00
         21   -1    0    0  503  502  0.00000000000E+00  0.00000000000E+00  0.35578370744E+03  0.35578370744E+03  0.00000000000E+00 0.  1.
         21   -1    0    0  501  503 -0.00000000000E+00 -0.00000000000E+00 -0.91426518780E+03  0.91426518780E+03  0.00000000000E+00 0.  1.
    9000007    1    1    2  501    0 -0.80708620956E+02  0.57183220218E+02 -0.71829897954E+03  0.82809252272E+03  0.40000000000E+03 0.  1.
   -9000007    1    1    2    0  502  0.80708620956E+02 -0.57183220218E+02  0.15981749918E+03  0.44195637252E+03  0.40000000000E+03 0.  1.
<mgrwt>
<rscale>  2 0.41204830E+03</rscale>
<asrwt>0</asrwt>
<pdfrwt beam="1">  1       21 0.54735956E-01 0.41204830E+03</pdfrwt>
<pdfrwt beam="2">  1       21 0.14065618E+00 0.41204830E+03</pdfrwt>
<totfact> 0.95751183E+02</totfact>
</mgrwt>
</event>
<event>
 4    1  0.4656822E-002  0.4676290E+03  0.7818608E-02  0.1022592E+00
         21   -1    0    0  503  502  0.00000000000E+00  0.00000000000E+00  0.10917488618E+04  0.10917488618E+04  0.00000000000E+00 0. -1.
         21   -1    0    0  501  503 -0.00000000000E+00 -0.00000000000E+00 -0.49401659995E+03  0.49401659995E+03  0.00000000000E+00 0. -1.
    9000007    1    1    2  501    0  0.93984634166E+01  0.24205068482E+03 -0.31250190150E+03  0.56243604398E+03  0.40000000000E+03 0. -1.
   -9000007    1    1    2    0  502 -0.93984634166E+01 -0.24205068482E+03  0.91023416335E+03  0.10233294178E+04  0.40000000000E+03 0. -1.
<mgrwt>
<rscale>  2 0.46762898E+03</rscale>
<asrwt>0</asrwt>
<pdfrwt beam="1">  1       21 0.16796136E+00 0.46762898E+03</pdfrwt>
<pdfrwt beam="2">  1       21 0.76002554E-01 0.46762898E+03</pdfrwt>
<totfact> 0.27672249E+02</totfact>
</mgrwt>
</event>
<event>
 4    1  0.4656822E-002  0.6819361E+03  0.7818608E-02  0.9748632E-01
         21   -1    0    0  503  502  0.00000000000E+00  0.00000000000E+00  0.51345616226E+03  0.51345616226E+03  0.00000000000E+00 0. -1.
         21   -1    0    0  501  503 -0.00000000000E+00 -0.00000000000E+00 -0.10060808143E+04  0.10060808143E+04  0.00000000000E+00 0.  1.
    9000007    1    1    2  501    0  0.48077027689E+03  0.27183957469E+03 -0.63229461668E+01  0.68196539000E+03  0.40000000000E+03 0. -1.
   -9000007    1    1    2    0  502 -0.48077027689E+03 -0.27183957469E+03 -0.48630170592E+03  0.83757158661E+03  0.40000000000E+03 0.  1.
<mgrwt>
<rscale>  2 0.68193608E+03</rscale>
<asrwt>0</asrwt>
<pdfrwt beam="1">  1       21 0.78993255E-01 0.68193608E+03</pdfrwt>
<pdfrwt beam="2">  1       21 0.15478166E+00 0.68193608E+03</pdfrwt>
<totfact> 0.29334847E+02</totfact>
</mgrwt>
</event>
<event>
 4    1  0.4656822E-002  0.4956530E+03  0.7818608E-02  0.1014920E+00
         21   -1    0    0  501  502  0.00000000000E+00  0.00000000000E+00  0.12578157089E+04  0.12578157089E+04  0.00000000000E+00 0. -1.
         21   -1    0    0  502  503 -0.00000000000E+00 -0.00000000000E+00 -0.22297254669E+03  0.22297254669E+03  0.00000000000E+00 0.  1.
    9000007    1    1    2  501    0 -0.19691470147E+03 -0.21655589896E+03  0.25666563445E+03  0.55816583999E+03  0.40000000000E+03 0.  1.
   -9000007    1    1    2    0  503  0.19691470147E+03  0.21655589896E+03  0.77817752775E+03  0.92262241558E+03  0.40000000000E+03 0. -1.
<mgrwt>
<rscale>  2 0.49565296E+03</rscale>
<asrwt>0</asrwt>
<pdfrwt beam="1">  1       21 0.19351010E+00 0.49565296E+03</pdfrwt>
<pdfrwt beam="2">  1       21 0.34303470E-01 0.49565296E+03</pdfrwt>
<totfact> 0.99299250E+02</totfact>
</mgrwt>
</event>
<event>
 4    1  0.4656822E-002  0.4838504E+03  0.7818608E-02  0.1018082E+00
         21   -1    0    0  501  502  0.00000000000E+00  0.00000000000E+00  0.17959624102E+03  0.17959624102E+03  0.00000000000E+00 0.  1.
         21   -1    0    0  502  503 -0.00000000000E+00 -0.00000000000E+00 -0.16016358286E+04  0.16016358286E+04  0.00000000000E+00 0. -1.
    9000007    1    1    2  501    0 -0.25030838706E+03 -0.10703710241E+03 -0.32679519241E+03  0.58387184185E+03  0.40000000000E+03 0.  1.
   -9000007    1    1    2    0  503  0.25030838706E+03  0.10703710241E+03 -0.10952443952E+04  0.11973602278E+04  0.40000000000E+03 0. -1.
<mgrwt>
<rscale>  2 0.48385042E+03</rscale>
<asrwt>0</asrwt>
<pdfrwt beam="1">  1       21 0.27630191E-01 0.48385042E+03</pdfrwt>
<pdfrwt beam="2">  1       21 0.24640551E+00 0.48385042E+03</pdfrwt>
<totfact> 0.70130435E+02</totfact>
</mgrwt>
</event>
<event>
 4    1  0.4656822E-002  0.4541110E+03  0.7818608E-02  0.1026503E+00
         21   -1    0    0  501  502  0.00000000000E+00  0.00000000000E+00  0.40679159561E+03  0.40679159561E+03  0.00000000000E+00 0. -1.
         21   -1    0    0  502  503 -0.00000000000E+00 -0.00000000000E+00 -0.53160478223E+03  0.53160478223E+03  0.00000000000E+00 0. -1.
    9000007    1    1    2  501    0 -0.12196247734E+03  0.17703647350E+03 -0.16348247686E+03  0.48264197815E+03  0.40000000000E+03 0.  1.
   -9000007    1    1    2    0  503  0.12196247734E+03 -0.17703647350E+03  0.38669290234E+02  0.45575439969E+03  0.40000000000E+03 0.  1.
<mgrwt>
<rscale>  2 0.45411095E+03</rscale>
<asrwt>0</asrwt>
<pdfrwt beam="1">  1       21 0.62583323E-01 0.45411095E+03</pdfrwt>
<pdfrwt beam="2">  1       21 0.81785351E-01 0.45411095E+03</pdfrwt>
<totfact> 0.26853885E+03</totfact>
</mgrwt>
</event>
<event>
 4    1  0.4656822E-002  0.4259310E+03  0.7818608E-02  0.1035153E+00
         21   -1    0    0  503  502  0.00000000000E+00  0.00000000000E+00  0.39422957901E+03  0.39422957901E+03  0.00000000000E+00 0. -1.
         21   -1    0    0  501  503 -0.00000000000E+00 -0.00000000000E+00 -0.47604392940E+03  0.47604392940E+03  0.00000000000E+00 0. -1.
    9000007    1    1    2  501    0 -0.91722224460E+02 -0.11403619763E+03 -0.12033724730E+03  0.44260396961E+03  0.40000000000E+03 0. -1.
   -9000007    1    1    2    0  502  0.91722224460E+02  0.11403619763E+03  0.38522896899E+02  0.42766953880E+03  0.40000000000E+03 0. -1.
<mgrwt>
<rscale>  2 0.42593100E+03</rscale>
<asrwt>0</asrwt>
<pdfrwt beam="1">  1       21 0.60650705E-01 0.42593100E+03</pdfrwt>
<pdfrwt beam="2">  1       21 0.73237527E-01 0.42593100E+03</pdfrwt>
<totfact> 0.37441845E+03</totfact>
</mgrwt>
</event>
<event>
 4    1  0.4656822E-002  0.4162240E+03  0.7818608E-02  0.1038302E+00
         21   -1    0    0  501  502  0.00000000000E+00  0.00000000000E+00  0.91375201524E+03  0.91375201524E+03  0.00000000000E+00 0.  1.
         21   -1    0    0  502  503 -0.00000000000E+00 -0.00000000000E+00 -0.21176385387E+03  0.21176385387E+03  0.00000000000E+00 0.  1.
    9000007    1    1    2  501    0 -0.10629561356E+03 -0.44087199778E+02  0.16891026414E+03  0.44919162501E+03  0.40000000000E+03 0.  1.
   -9000007    1    1    2    0  503  0.10629561356E+03  0.44087199778E+02  0.53307789723E+03  0.67632424411E+03  0.40000000000E+03 0.  1.
<mgrwt>
<rscale>  2 0.41622402E+03</rscale>
<asrwt>0</asrwt>
<pdfrwt beam="1">  1       21 0.14057723E+00 0.41622402E+03</pdfrwt>
<pdfrwt beam="2">  1       21 0.32579055E-01 0.41622402E+03</pdfrwt>
<totfact> 0.28074632E+03</totfact>
</mgrwt>
</event>
<event>
 4    1  0.4656822E-002  0.4108794E+03  0.7818608E-02  0.1040076E+00
         21   -1    0    0  503  502  0.00000000000E+00  0.00000000000E+00  0.31068135139E+03  0.31068135139E+03  0.00000000000E+00 0. -1.
         21   -1    0    0  501  503 -0.00000000000E+00 -0.00000000000E+00 -0.76096834553E+03  0.76096834553E+03  0.00000000000E+00 0. -1.
    9000007    1    1    2  501    0  0.93544721715E+02 -0.84411088502E+01 -0.51165697154E+03  0.65621240754E+03  0.40000000000E+03 0. -1.
   -9000007    1    1    2    0  502 -0.93544721715E+02  0.84411088502E+01  0.61369977400E+02  0.41543728938E+03  0.40000000000E+03 0. -1.
<mgrwt>
<rscale>  2 0.41087938E+03</rscale>
<asrwt>0</asrwt>
<pdfrwt beam="1">  1       21 0.47797131E-01 0.41087938E+03</pdfrwt>
<pdfrwt beam="2">  1       21 0.11707205E+00 0.41087938E+03</pdfrwt>
<totfact> 0.20540203E+03</totfact>
</mgrwt>
</event>
<event>
 4    1  0.4656822E-002  0.4330351E+03  0.7818608E-02  0.1032905E+00
         21   -1    0    0  503  502  0.00000000000E+00  0.00000000000E+00  0.18649492981E+04  0.18649492981E+04  0.00000000000E+00 0. -1.
         21   -1    0    0  501  503 -0.00000000000E+00 -0.00000000000E+00 -0.21914474478E+03  0.21914474478E+03  0.00000000000E+00 0. -1.
    9000007    1    1    2  501    0 -0.16579049690E+03 -0.57349409860E+01  0.56325322030E+02  0.43668286011E+03  0.40000000000E+03 0. -1.
   -9000007    1    1    2    0  502  0.16579049690E+03  0.57349409860E+01  0.15894792313E+04  0.16474111828E+04  0.40000000000E+03 0. -1.
<mgrwt>
<rscale>  2 0.43303508E+03</rscale>
<asrwt>0</asrwt>
<pdfrwt beam="1">  1       21 0.28691527E+00 0.43303508E+03</pdfrwt>
<pdfrwt beam="2">  1       21 0.33714577E-01 0.43303508E+03</pdfrwt>
<totfact> 0.27508803E+02</totfact>
</mgrwt>
</event>
<event>
 4    1  0.4656822E-002  0.6322727E+03  0.7818608E-02  0.9840624E-01
         21   -1    0    0  503  502  0.00000000000E+00  0.00000000000E+00  0.48604522635E+03  0.48604522635E+03  0.00000000000E+00 0. -1.
         21   -1    0    0  501  503 -0.00000000000E+00 -0.00000000000E+00 -0.10569909979E+04  0.10569909979E+04  0.00000000000E+00 0. -1.
    9000007    1    1    2  501    0  0.42931034891E+03 -0.23550252911E+03 -0.64886877663E+03  0.90597985970E+03  0.40000000000E+03 0. -1.
   -9000007    1    1    2    0  502 -0.42931034891E+03  0.23550252911E+03  0.77923005077E+02  0.63705636456E+03  0.40000000000E+03 0. -1.
<mgrwt>
<rscale>  2 0.63227274E+03</rscale>
<asrwt>0</asrwt>
<pdfrwt beam="1">  1       21 0.74776189E-01 0.63227274E+03</pdfrwt>
<pdfrwt beam="2">  1       21 0.16261400E+00 0.63227274E+03</pdfrwt>
<totfact> 0.29456976E+02</totfact>
</mgrwt>
</event>
<event>
 4    1  0.4656822E-002  0.5300884E+03  0.7818608E-02  0.1006211E+00
         21   -1    0    0  503  502  0.00000000000E+00  0.00000000000E+00  0.12207032231E+04  0.12207032231E+04  0.00000000000E+00 0.  1.
         21   -1    0    0  501  503 -0.00000000000E+00 -0.00000000000E+00 -0.24185752772E+03  0.24185752772E+03  0.00000000000E+00 0. -1.
    9000007    1    1    2  501    0 -0.32258319629E+03 -0.13012994762E+03  0.32880536300E+03  0.62378416823E+03  0.40000000000E+03 0. -1.
   -9000007    1    1    2    0  502  0.32258319629E+03  0.13012994762E+03  0.65004033242E+03  0.83877658263E+03  0.40000000000E+03 0.  1.
<mgrwt>
<rscale>  2 0.53008841E+03</rscale>
<asrwt>0</asrwt>
<pdfrwt beam="1">  1       21 0.18780049E+00 0.53008841E+03</pdfrwt>
<pdfrwt beam="2">  1       21 0.37208851E-01 0.53008841E+03</pdfrwt>
<totfact> 0.90878055E+02</totfact>
</mgrwt>
</event>
<event>
 4    1  0.4656822E-002  0.8900116E+03  0.7818608E-02  0.9438154E-01
         21   -1    0    0  501  502  0.00000000000E+00  0.00000000000E+00  0.72910425212E+03  0.72910425212E+03  0.00000000000E+00 0.  1.
         21   -1    0    0  502  503 -0.00000000000E+00 -0.00000000000E+00 -0.11066333127E+04  0.11066333127E+04  0.00000000000E+00 0.  1.
    9000007    1    1    2  501    0  0.79257237451E+03  0.62846673285E+02 -0.31278429371E+03  0.94337409736E+03  0.40000000000E+03 0.  1.
   -9000007    1    1    2    0  503 -0.79257237451E+03 -0.62846673285E+02 -0.64744766841E+02  0.89236346743E+03  0.40000000000E+03 0.  1.
<mgrwt>
<rscale>  2 0.89001161E+03</rscale>
<asrwt>0</asrwt>
<pdfrwt beam="1">  1       21 0.11216988E+00 0.89001161E+03</pdfrwt>
<pdfrwt beam="2">  1       21 0.17025128E+00 0.89001161E+03</pdfrwt>
<totfact> 0.89802494E+01</totfact>
</mgrwt>
</event>
<event>
 4    1  0.4656822E-002  0.4248672E+03  0.7818608E-02  0.1035494E+00
         21   -1    0    0  501  502  0.00000000000E+00  0.00000000000E+00  0.33412865170E+03  0.33412865170E+03  0.00000000000E+00 0.  1.
         21   -1    0    0  502  503 -0.00000000000E+00 -0.00000000000E+00 -0.11418698773E+04  0.11418698773E+04  0.00000000000E+00 0.  1.
    9000007    1    1    2  501    0 -0.14087899342E+03 -0.25793139884E+02  0.13181453172E+03  0.44484519512E+03  0.40000000000E+03 0.  1.
   -9000007    1    1    2    0  503  0.14087899342E+03  0.25793139884E+02 -0.93955575737E+03  0.10311533339E+04  0.40000000000E+03 0.  1.
<mgrwt>
<rscale>  2 0.42486725E+03</rscale>
<asrwt>0</asrwt>
<pdfrwt beam="1">  1       21 0.51404407E-01 0.42486725E+03</pdfrwt>
<pdfrwt beam="2">  1       21 0.17567229E+00 0.42486725E+03</pdfrwt>
<totfact> 0.58932798E+02</totfact>
</mgrwt>
</event>
<event>
 4    1  0.4656822E-002  0.4103696E+03  0.7818608E-02  0.1040247E+00
         21   -1    0    0  501  502  0.00000000000E+00  0.00000000000E+00  0.35432938793E+03  0.35432938793E+03  0.00000000000E+00 0. -1.
         21   -1    0    0  502  503 -0.00000000000E+00 -0.00000000000E+00 -0.56876190928E+03  0.56876190928E+03  0.00000000000E+00 0. -1.
    9000007    1    1    2  501    0  0.89209791657E+02  0.21090492300E+02  0.79907710446E+02  0.41807707182E+03  0.40000000000E+03 0. -1.
   -9000007    1    1    2    0  503 -0.89209791657E+02 -0.21090492300E+02 -0.29434023180E+03  0.50501422539E+03  0.40000000000E+03 0. -1.
<mgrwt>
<rscale>  2 0.41036958E+03</rscale>
<asrwt>0</asrwt>
<pdfrwt beam="1">  1       21 0.54512213E-01 0.41036958E+03</pdfrwt>
<pdfrwt beam="2">  1       21 0.87501832E-01 0.41036958E+03</pdfrwt>
<totfact> 0.31493435E+03</totfact>
</mgrwt>
</event>
<event>
 4    1  0.4656822E-002  0.4047131E+03  0.7818608E-02  0.1042160E+00
         21   -1    0    0  501  502  0.00000000000E+00  0.00000000000E+00  0.21641973935E+03  0.21641973935E+03  0.00000000000E+00 0.  1.
         21   -1    0    0  502  503 -0.00000000000E+00 -0.00000000000E+00 -0.10095199745E+04  0.10095199745E+04  0.00000000000E+00 0.  1.
    9000007    1    1    2  501    0 -0.25002063629E+02  0.56281481808E+02 -0.89876348549E+02  0.41457263104E+03  0.40000000000E+03 0.  1.
   -9000007    1    1    2    0  503  0.25002063629E+02 -0.56281481808E+02 -0.70322388662E+03  0.81136708282E+03  0.40000000000E+03 0.  1.
<mgrwt>
<rscale>  2 0.40471312E+03</rscale>
<asrwt>0</asrwt>
<pdfrwt beam="1">  1       21 0.33295343E-01 0.40471312E+03</pdfrwt>
<pdfrwt beam="2">  1       21 0.15531077E+00 0.40471312E+03</pdfrwt>
<totfact> 0.20645607E+03</totfact>
</mgrwt>
</event>
<event>
 4    1  0.4656822E-002  0.4338960E+03  0.7818608E-02  0.1032636E+00
         21   -1    0    0  501  502  0.00000000000E+00  0.00000000000E+00  0.23471251174E+04  0.23471251174E+04  0.00000000000E+00 0. -1.
         21   -1    0    0  502  503 -0.00000000000E+00 -0.00000000000E+00 -0.13840590560E+03  0.13840590560E+03  0.00000000000E+00 0. -1.
    9000007    1    1    2  501    0 -0.16363513310E+03  0.38591305882E+02  0.19102084406E+04  0.19588675382E+04  0.40000000000E+03 0. -1.
   -9000007    1    1    2    0  503  0.16363513310E+03 -0.38591305882E+02  0.29851077115E+03  0.52666348475E+03  0.40000000000E+03 0. -1.
<mgrwt>
<rscale>  2 0.43389601E+03</rscale>
<asrwt>0</asrwt>
<pdfrwt beam="1">  1       21 0.36109614E+00 0.43389601E+03</pdfrwt>
<pdfrwt beam="2">  1       21 0.21293218E-01 0.43389601E+03</pdfrwt>
<totfact> 0.24063833E+02</totfact>
</mgrwt>
</event>
<event>
 4    1  0.4656822E-002  0.4801596E+03  0.7818608E-02  0.1019091E+00
         21   -1    0    0  501  502  0.00000000000E+00  0.00000000000E+00  0.29036692612E+03  0.29036692612E+03  0.00000000000E+00 0.  1.
         21   -1    0    0  502  503 -0.00000000000E+00 -0.00000000000E+00 -0.10693166513E+04  0.10693166513E+04  0.00000000000E+00 0.  1.
    9000007    1    1    2  501    0 -0.20388979800E+02  0.26483498499E+03 -0.44517308332E+02  0.48221890311E+03  0.40000000000E+03 0.  1.
   -9000007    1    1    2    0  503  0.20388979800E+02 -0.26483498499E+03 -0.73443241688E+03  0.87746467436E+03  0.40000000000E+03 0.  1.
<mgrwt>
<rscale>  2 0.48015964E+03</rscale>
<asrwt>0</asrwt>
<pdfrwt beam="1">  1       21 0.44671835E-01 0.48015964E+03</pdfrwt>
<pdfrwt beam="2">  1       21 0.16451025E+00 0.48015964E+03</pdfrwt>
<totfact> 0.93242628E+02</totfact>
</mgrwt>
</event>
<event>
 4    1  0.4656822E-002  0.4502423E+03  0.7818608E-02  0.1027650E+00
         21   -1    0    0  503  502  0.00000000000E+00  0.00000000000E+00  0.13069323075E+03  0.13069323075E+03  0.00000000000E+00 0.  1.
         21   -1    0    0  501  503 -0.00000000000E+00 -0.00000000000E+00 -0.15623745971E+04  0.15623745971E+04  0.00000000000E+00 0.  1.
    9000007    1    1    2  501    0  0.11178470495E+02  0.20638122373E+03 -0.64392602852E+03  0.78572189604E+03  0.40000000000E+03 0.  1.
   -9000007    1    1    2    0  502 -0.11178470495E+02 -0.20638122373E+03 -0.78775533788E+03  0.90734593186E+03  0.40000000000E+03 0.  1.
<mgrwt>
<rscale>  2 0.45024234E+03</rscale>
<asrwt>0</asrwt>
<pdfrwt beam="1">  1       21 0.20106652E-01 0.45024234E+03</pdfrwt>
<pdfrwt beam="2">  1       21 0.24036531E+00 0.45024234E+03</pdfrwt>
<totfact> 0.14373146E+03</totfact>
</mgrwt>
</event>
<event>
 4    1  0.4656822E-002  0.4218109E+03  0.7818608E-02  0.1036479E+00
         21   -1    0    0  503  502  0.00000000000E+00  0.00000000000E+00  0.91950059560E+03  0.91950059560E+03  0.00000000000E+00 0. -1.
         21   -1    0    0  501  503 -0.00000000000E+00 -0.00000000000E+00 -0.97060146432E+03  0.97060146432E+03  0.00000000000E+00 0. -1.
    9000007    1    1    2  501    0 -0.10332186870E+03  0.85141406811E+02 -0.87116667888E+03  0.96791314181E+03  0.40000000000E+03 0. -1.
   -9000007    1    1    2    0  502  0.10332186870E+03 -0.85141406811E+02  0.82006581015E+03  0.92218891811E+03  0.40000000000E+03 0. -1.
<mgrwt>
<rscale>  2 0.42181094E+03</rscale>
<asrwt>0</asrwt>
<pdfrwt beam="1">  1       21 0.14146163E+00 0.42181094E+03</pdfrwt>
<pdfrwt beam="2">  1       21 0.14932330E+00 0.42181094E+03</pdfrwt>
<totfact> 0.85481091E+01</totfact>
</mgrwt>
</event>
<event>
 4    1  0.4656822E-002  0.4900048E+03  0.7818608E-02  0.1016421E+00
         21   -1    0    0  503  502  0.00000000000E+00  0.00000000000E+00  0.22209936388E+04  0.22209936388E+04  0.00000000000E+00 0.  1.
         21   -1    0    0  501  503 -0.00000000000E+00 -0.00000000000E+00 -0.12483727146E+03  0.12483727146E+03  0.00000000000E+00 0.  1.
    9000007    1    1    2  501    0  0.46974774095E+02  0.27910231230E+03  0.61869265051E+03  0.78923084451E+03  0.40000000000E+03 0.  1.
   -9000007    1    1    2    0  502 -0.46974774095E+02 -0.27910231230E+03  0.14774637168E+04  0.15566000658E+04  0.40000000000E+03 0.  1.
<mgrwt>
<rscale>  2 0.49000483E+03</rscale>
<asrwt>0</asrwt>
<pdfrwt beam="1">  1       21 0.34169130E+00 0.49000483E+03</pdfrwt>
<pdfrwt beam="2">  1       21 0.19205736E-01 0.49000483E+03</pdfrwt>
<totfact> 0.37246381E+02</totfact>
</mgrwt>
</event>
<event>
 4    1  0.4656822E-002  0.4673308E+03  0.7818608E-02  0.1022676E+00
         21   -1    0    0  501  502  0.00000000000E+00  0.00000000000E+00  0.77347445817E+03  0.77347445817E+03  0.00000000000E+00 0.  1.
         21   -1    0    0  502  503 -0.00000000000E+00 -0.00000000000E+00 -0.28666424430E+03  0.28666424430E+03  0.00000000000E+00 0.  1.
    9000007    1    1    2  501    0  0.11748920335E+03 -0.21117373371E+03  0.17845098240E+03  0.50024275290E+03  0.40000000000E+03 0.  1.
   -9000007    1    1    2    0  503 -0.11748920335E+03  0.21117373371E+03  0.30835923147E+03  0.55989594957E+03  0.40000000000E+03 0.  1.
<mgrwt>
<rscale>  2 0.46733078E+03</rscale>
<asrwt>0</asrwt>
<pdfrwt beam="1">  1       21 0.11899607E+00 0.46733078E+03</pdfrwt>
<pdfrwt beam="2">  1       21 0.44102192E-01 0.46733078E+03</pdfrwt>
<totfact> 0.22835703E+03</totfact>
</mgrwt>
</event>
<event>
 4    1  0.4656822E-002  0.9322452E+03  0.7818608E-02  0.9386147E-01
         21   -1    0    0  501  502  0.00000000000E+00  0.00000000000E+00  0.32305447233E+03  0.32305447233E+03  0.00000000000E+00 0. -1.
         21   -1    0    0  502  503 -0.00000000000E+00 -0.00000000000E+00 -0.27866570181E+04  0.27866570181E+04  0.00000000000E+00 0.  1.
    9000007    1    1    2  501    0  0.82259043715E+03 -0.18007246154E+03 -0.94252326514E+03  0.13256814188E+04  0.40000000000E+03 0. -1.
   -9000007    1    1    2    0  503 -0.82259043715E+03  0.18007246154E+03 -0.15210792807E+04  0.17840300717E+04  0.40000000000E+03 0.  1.
<mgrwt>
<rscale>  2 0.93224520E+03</rscale>
<asrwt>0</asrwt>
<pdfrwt beam="1">  1       21 0.49700689E-01 0.93224520E+03</pdfrwt>
<pdfrwt beam="2">  1       21 0.42871645E+00 0.93224520E+03</pdfrwt>
<totfact> 0.12482848E+01</totfact>
</mgrwt>
</event>
<event>
 4    1  0.4656822E-002  0.7599756E+03  0.7818608E-02  0.9619829E-01
         21   -1    0    0  503  502  0.00000000000E+00  0.00000000000E+00  0.80818514034E+03  0.80818514034E+03  0.00000000000E+00 0.  1.
         21   -1    0    0  501  503 -0.00000000000E+00 -0.00000000000E+00 -0.75461638042E+03  0.75461638042E+03  0.00000000000E+00 0. -1.
    9000007    1    1    2  501    0 -0.29436884240E+03 -0.57524762070E+03 -0.15306252196E+03  0.77523607768E+03  0.40000000000E+03 0.  1.
   -9000007    1    1    2    0  502  0.29436884240E+03  0.57524762070E+03  0.20663128188E+03  0.78756544309E+03  0.40000000000E+03 0.  1.
<mgrwt>
<rscale>  2 0.75997555E+03</rscale>
<asrwt>0</asrwt>
<pdfrwt beam="1">  1       21 0.12433618E+00 0.75997555E+03</pdfrwt>
<pdfrwt beam="2">  1       21 0.11609483E+00 0.75997555E+03</pdfrwt>
<totfact> 0.20234182E+02</totfact>
</mgrwt>
</event>
<event>
 4    1  0.4656822E-002  0.4014700E+03  0.7818608E-02  0.1043272E+00
         21   -1    0    0  501  502  0.00000000000E+00  0.00000000000E+00  0.82373087977E+03  0.82373087977E+03  0.00000000000E+00 0. -1.
         21   -1    0    0  502  503 -0.00000000000E+00 -0.00000000000E+00 -0.35654237112E+03  0.35654237112E+03  0.00000000000E+00 0. -1.
    9000007    1    1    2  501    0  0.27229187708E+02 -0.20897670513E+02  0.62999989315E+03  0.74704618777E+03  0.40000000000E+03 0. -1.
   -9000007    1    1    2    0  503 -0.27229187708E+02  0.20897670513E+02 -0.16281138449E+03  0.43322706312E+03  0.40000000000E+03 0. -1.
<mgrwt>
<rscale>  2 0.40146998E+03</rscale>
<asrwt>0</asrwt>
<pdfrwt beam="1">  1       21 0.12672783E+00 0.40146998E+03</pdfrwt>
<pdfrwt beam="2">  1       21 0.54852673E-01 0.40146998E+03</pdfrwt>
<totfact> 0.12572897E+03</totfact>
</mgrwt>
</event>
<event>
 4    1  0.4656822E-002  0.4114665E+03  0.7818608E-02  0.1039880E+00
         21   -1    0    0  503  502  0.00000000000E+00  0.00000000000E+00  0.19726801474E+03  0.19726801474E+03  0.00000000000E+00 0.  1.
         21   -1    0    0  501  503 -0.00000000000E+00 -0.00000000000E+00 -0.85852166986E+03  0.85852166986E+03  0.00000000000E+00 0.  1.
    9000007    1    1    2  501    0  0.30313424770E+02 -0.91573805796E+02 -0.34007052917E+03  0.53380954510E+03  0.40000000000E+03 0. -1.
   -9000007    1    1    2    0  502 -0.30313424770E+02  0.91573805796E+02 -0.32118312595E+03  0.52198013949E+03  0.40000000000E+03 0. -1.
<mgrwt>
<rscale>  2 0.41146648E+03</rscale>
<asrwt>0</asrwt>
<pdfrwt beam="1">  1       21 0.30348926E-01 0.41146648E+03</pdfrwt>
<pdfrwt beam="2">  1       21 0.13208026E+00 0.41146648E+03</pdfrwt>
<totfact> 0.38163151E+03</totfact>
</mgrwt>
</event>
<event>
 4    1  0.4656822E-002  0.4354094E+03  0.7818608E-02  0.1032165E+00
         21   -1    0    0  503  502  0.00000000000E+00  0.00000000000E+00  0.30311013277E+03  0.30311013277E+03  0.00000000000E+00 0.  1.
         21   -1    0    0  501  503 -0.00000000000E+00 -0.00000000000E+00 -0.18734071686E+04  0.18734071686E+04  0.00000000000E+00 0.  1.
    9000007    1    1    2  501    0 -0.17153048737E+03 -0.12594915966E+02 -0.16733576694E+04  0.17290769878E+04  0.40000000000E+03 0.  1.
   -9000007    1    1    2    0  502  0.17153048737E+03  0.12594915966E+02  0.10306063358E+03  0.44744031356E+03  0.40000000000E+03 0.  1.
<mgrwt>
<rscale>  2 0.43540939E+03</rscale>
<asrwt>0</asrwt>
<pdfrwt beam="1">  1       21 0.46632329E-01 0.43540939E+03</pdfrwt>
<pdfrwt beam="2">  1       21 0.28821648E+00 0.43540939E+03</pdfrwt>
<totfact> 0.13844400E+02</totfact>
</mgrwt>
</event>
<event>
 4    1  0.4656822E-002  0.5926848E+03  0.7818608E-02  0.9920700E-01
         21   -1    0    0  503  502  0.00000000000E+00  0.00000000000E+00  0.10954332290E+04  0.10954332290E+04  0.00000000000E+00 0. -1.
         21   -1    0    0  501  503 -0.00000000000E+00 -0.00000000000E+00 -0.32961354221E+03  0.32961354221E+03  0.00000000000E+00 0.  1.
    9000007    1    1    2  501    0 -0.42687979652E+03  0.95126051966E+02  0.26555788148E+03  0.64945847816E+03  0.40000000000E+03 0.  1.
   -9000007    1    1    2    0  502  0.42687979652E+03 -0.95126051966E+02  0.50026180527E+03  0.77558829301E+03  0.40000000000E+03 0. -1.
<mgrwt>
<rscale>  2 0.59268485E+03</rscale>
<asrwt>0</asrwt>
<pdfrwt beam="1">  1       21 0.16852819E+00 0.59268485E+03</pdfrwt>
<pdfrwt beam="2">  1       21 0.50709776E-01 0.59268485E+03</pdfrwt>
<totfact> 0.63801610E+02</totfact>
</mgrwt>
</event>
<event>
 4    1  0.4656822E-002  0.6786888E+03  0.7818608E-02  0.9754388E-01
         21   -1    0    0  501  502  0.00000000000E+00  0.00000000000E+00  0.11404529209E+04  0.11404529209E+04  0.00000000000E+00 0. -1.
         21   -1    0    0  502  503 -0.00000000000E+00 -0.00000000000E+00 -0.51732575905E+03  0.51732575905E+03  0.00000000000E+00 0.  1.
    9000007    1    1    2  501    0  0.77278534672E+02 -0.54281357906E+03 -0.76575859669E+02  0.68299517994E+03  0.40000000000E+03 0.  1.
   -9000007    1    1    2    0  503 -0.77278534672E+02  0.54281357906E+03  0.69970302149E+03  0.97478349997E+03  0.40000000000E+03 0. -1.
<mgrwt>
<rscale>  2 0.67868885E+03</rscale>
<asrwt>0</asrwt>
<pdfrwt beam="1">  1       21 0.17545429E+00 0.67868885E+03</pdfrwt>
<pdfrwt beam="2">  1       21 0.79588579E-01 0.67868885E+03</pdfrwt>
<totfact> 0.20167096E+02</totfact>
</mgrwt>
</event>
<event>
 4    1  0.4656822E-002  0.4031216E+03  0.7818608E-02  0.1042704E+00
         21   -1    0    0  501  502  0.00000000000E+00  0.00000000000E+00  0.94885298327E+03  0.94885298327E+03  0.00000000000E+00 0. -1.
         21   -1    0    0  502  503 -0.00000000000E+00 -0.00000000000E+00 -0.55623837006E+03  0.55623837006E+03  0.00000000000E+00 0. -1.
    9000007    1    1    2  501    0  0.43890605017E+02 -0.24096672201E+02  0.82236839232E+03  0.91585850845E+03  0.40000000000E+03 0. -1.
   -9000007    1    1    2    0  503 -0.43890605017E+02  0.24096672201E+02 -0.42975377911E+03  0.58923284487E+03  0.40000000000E+03 0. -1.
<mgrwt>
<rscale>  2 0.40312161E+03</rscale>
<asrwt>0</asrwt>
<pdfrwt beam="1">  1       21 0.14597738E+00 0.40312161E+03</pdfrwt>
<pdfrwt beam="2">  1       21 0.85575134E-01 0.40312161E+03</pdfrwt>
<totfact> 0.32012498E+02</totfact>
</mgrwt>
</event>
<event>
 4    1  0.4656822E-002  0.4190359E+03  0.7818608E-02  0.1037381E+00
         21   -1    0    0  501  502  0.00000000000E+00  0.00000000000E+00  0.11346272405E+04  0.11346272405E+04  0.00000000000E+00 0. -1.
         21   -1    0    0  502  503 -0.00000000000E+00 -0.00000000000E+00 -0.22245644750E+03  0.22245644750E+03  0.00000000000E+00 0. -1.
    9000007    1    1    2  501    0 -0.11942267799E+03  0.36459852003E+02  0.83040955774E+03  0.93014575761E+03  0.40000000000E+03 0. -1.
   -9000007    1    1    2    0  503  0.11942267799E+03 -0.36459852003E+02  0.81761235294E+02  0.42693793041E+03  0.40000000000E+03 0. -1.
<mgrwt>
<rscale>  2 0.41903591E+03</rscale>
<asrwt>0</asrwt>
<pdfrwt beam="1">  1       21 0.17455803E+00 0.41903591E+03</pdfrwt>
<pdfrwt beam="2">  1       21 0.34224069E-01 0.41903591E+03</pdfrwt>
<totfact> 0.13982216E+03</totfact>
</mgrwt>
</event>
<event>
 4    1  0.4656822E-002  0.5059221E+03  0.7818608E-02  0.1012245E+00
         21   -1    0    0  503  502  0.00000000000E+00  0.00000000000E+00  0.35376979521E+03  0.35376979521E+03  0.00000000000E+00 0. -1.
         21   -1    0    0  501  503 -0.00000000000E+00 -0.00000000000E+00 -0.72690386330E+03  0.72690386330E+03  0.00000000000E+00 0. -1.
    9000007    1    1    2  501    0  0.30925633543E+03  0.17825131345E+02 -0.14966499514E+03  0.52759532511E+03  0.40000000000E+03 0. -1.
   -9000007    1    1    2    0  502 -0.30925633543E+03 -0.17825131345E+02 -0.22346907294E+03  0.55307833340E+03  0.40000000000E+03 0. -1.
<mgrwt>
<rscale>  2 0.50592214E+03</rscale>
<asrwt>0</asrwt>
<pdfrwt beam="1">  1       21 0.54426122E-01 0.50592214E+03</pdfrwt>
<pdfrwt beam="2">  1       21 0.11183136E+00 0.50592214E+03</pdfrwt>
<totfact> 0.16838218E+03</totfact>
</mgrwt>
</event>
<event>
 4    1  0.4656822E-002  0.4440715E+03  0.7818608E-02  0.1029505E+00
         21   -1    0    0  503  502  0.00000000000E+00  0.00000000000E+00  0.38319553873E+03  0.38319553873E+03  0.00000000000E+00 0. -1.
         21   -1    0    0  501  503 -0.00000000000E+00 -0.00000000000E+00 -0.53019946632E+03  0.53019946632E+03  0.00000000000E+00 0.  1.
    9000007    1    1    2  501    0  0.11927917335E+03 -0.15156512414E+03  0.47880519748E+01  0.44409732434E+03  0.40000000000E+03 0.  1.
   -9000007    1    1    2    0  502 -0.11927917335E+03  0.15156512414E+03 -0.15179197957E+03  0.46929768070E+03  0.40000000000E+03 0. -1.
<mgrwt>
<rscale>  2 0.44407151E+03</rscale>
<asrwt>0</asrwt>
<pdfrwt beam="1">  1       21 0.58953160E-01 0.44407151E+03</pdfrwt>
<pdfrwt beam="2">  1       21 0.81569149E-01 0.44407151E+03</pdfrwt>
<totfact> 0.30919274E+03</totfact>
</mgrwt>
</event>
<event>
 4    1  0.4656822E-002  0.4193016E+03  0.7818608E-02  0.1037294E+00
         21   -1    0    0  501  502  0.00000000000E+00  0.00000000000E+00  0.75046934536E+03  0.75046934536E+03  0.00000000000E+00 0.  1.
         21   -1    0    0  502  503 -0.00000000000E+00 -0.00000000000E+00 -0.41955549762E+03  0.41955549762E+03  0.00000000000E+00 0.  1.
    9000007    1    1    2  501    0  0.12271250418E+03 -0.27485293549E+02  0.55422356353E+03  0.69496586853E+03  0.40000000000E+03 0.  1.
   -9000007    1    1    2    0  503 -0.12271250418E+03  0.27485293549E+02 -0.22330971580E+03  0.47505897446E+03  0.40000000000E+03 0.  1.
<mgrwt>
<rscale>  2 0.41930156E+03</rscale>
<asrwt>0</asrwt>
<pdfrwt beam="1">  1       21 0.11545682E+00 0.41930156E+03</pdfrwt>
<pdfrwt beam="2">  1       21 0.64547000E-01 0.41930156E+03</pdfrwt>
<totfact> 0.11073478E+03</totfact>
</mgrwt>
</event>
<event>
 4    1  0.4656822E-002  0.5081595E+03  0.7818608E-02  0.1011671E+00
         21   -1    0    0  503  502  0.00000000000E+00  0.00000000000E+00  0.41575058189E+03  0.41575058189E+03  0.00000000000E+00 0.  1.
         21   -1    0    0  501  503 -0.00000000000E+00 -0.00000000000E+00 -0.62128463100E+03  0.62128463100E+03  0.00000000000E+00 0. -1.
    9000007    1    1    2  501    0  0.22886258843E+03 -0.21412137814E+03 -0.11150767156E+03  0.52024994933E+03  0.40000000000E+03 0.  1.
   -9000007    1    1    2    0  502 -0.22886258843E+03  0.21412137814E+03 -0.94026377561E+02  0.51678526356E+03  0.40000000000E+03 0.  1.
<mgrwt>
<rscale>  2 0.50815947E+03</rscale>
<asrwt>0</asrwt>
<pdfrwt beam="1">  1       21 0.63961628E-01 0.50815947E+03</pdfrwt>
<pdfrwt beam="2">  1       21 0.95582251E-01 0.50815947E+03</pdfrwt>
<totfact> 0.17372835E+03</totfact>
</mgrwt>
</event>
<event>
 4    1  0.4656822E-002  0.4720559E+03  0.7818608E-02  0.1021342E+00
         21   -1    0    0  503  502  0.00000000000E+00  0.00000000000E+00  0.39625970075E+03  0.39625970075E+03  0.00000000000E+00 0.  1.
         21   -1    0    0  501  503 -0.00000000000E+00 -0.00000000000E+00 -0.11268540727E+04  0.11268540727E+04  0.00000000000E+00 0.  1.
    9000007    1    1    2  501    0 -0.23668135609E+03 -0.82575280133E+02 -0.90431355559E+03  0.10201077139E+04  0.40000000000E+03 0.  1.
   -9000007    1    1    2    0  502  0.23668135609E+03  0.82575280133E+02  0.17371918359E+03  0.50300605956E+03  0.40000000000E+03 0.  1.
<mgrwt>
<rscale>  2 0.47205587E+03</rscale>
<asrwt>0</asrwt>
<pdfrwt beam="1">  1       21 0.60963032E-01 0.47205587E+03</pdfrwt>
<pdfrwt beam="2">  1       21 0.17336216E+00 0.47205587E+03</pdfrwt>
<totfact> 0.41372770E+02</totfact>
</mgrwt>
</event>
<event>
 4    1  0.4656822E-002  0.6498686E+03  0.7818608E-02  0.9807026E-01
         21   -1    0    0  501  502  0.00000000000E+00  0.00000000000E+00  0.17605256578E+04  0.17605256578E+04  0.00000000000E+00 0.  1.
         21   -1    0    0  502  503 -0.00000000000E+00 -0.00000000000E+00 -0.37870904663E+03  0.37870904663E+03  0.00000000000E+00 0. -1.
    9000007    1    1    2  501    0 -0.46160718404E+02 -0.51009640187E+03  0.43313876323E+02  0.65131040450E+03  0.40000000000E+03 0. -1.
   -9000007    1    1    2    0  503  0.46160718404E+02  0.51009640187E+03  0.13385027348E+04  0.14879242999E+04  0.40000000000E+03 0.  1.
<mgrwt>
<rscale>  2 0.64986856E+03</rscale>
<asrwt>0</asrwt>
<pdfrwt beam="1">  1       21 0.27085010E+00 0.64986856E+03</pdfrwt>
<pdfrwt beam="2">  1       21 0.58262931E-01 0.64986856E+03</pdfrwt>
<totfact> 0.97987723E+01</totfact>
</mgrwt>
</event>
<event>
 4    1  0.4656822E-002  0.4914841E+03  0.7818608E-02  0.1016026E+00
         21   -1    0    0  501  502  0.00000000000E+00  0.00000000000E+00  0.37070360906E+03  0.37070360906E+03  0.00000000000E+00 0.  1.
         21   -1    0    0  502  503 -0.00000000000E+00 -0.00000000000E+00 -0.76209704689E+03  0.76209704689E+03  0.00000000000E+00 0.  1.
    9000007    1    1    2  501    0  0.50716993461E+01 -0.28553616515E+03 -0.41135248593E+03  0.64091145365E+03  0.40000000000E+03 0.  1.
   -9000007    1    1    2    0  503 -0.50716993461E+01  0.28553616515E+03  0.19959048093E+02  0.49188920230E+03  0.40000000000E+03 0.  1.
<mgrwt>
<rscale>  2 0.49148410E+03</rscale>
<asrwt>0</asrwt>
<pdfrwt beam="1">  1       21 0.57031325E-01 0.49148410E+03</pdfrwt>
<pdfrwt beam="2">  1       21 0.11724570E+00 0.49148410E+03</pdfrwt>
<totfact> 0.13583468E+03</totfact>
</mgrwt>
</event>
<event>
 4    1  0.4656822E-002  0.4781246E+03  0.7818608E-02  0.1019652E+00
         21   -1    0    0  501  502  0.00000000000E+00  0.00000000000E+00  0.25621815325E+03  0.25621815325E+03  0.00000000000E+00 0.  1.
         21   -1    0    0  502  503 -0.00000000000E+00 -0.00000000000E+00 -0.95836329060E+03  0.95836329060E+03  0.00000000000E+00 0.  1.
    9000007    1    1    2  501    0  0.15066702656E+03  0.21424880649E+03 -0.19153145341E+03  0.51506058054E+03  0.40000000000E+03 0.  1.
   -9000007    1    1    2    0  503 -0.15066702656E+03 -0.21424880649E+03 -0.51061368395E+03  0.69952086332E+03  0.40000000000E+03 0.  1.
<mgrwt>
<rscale>  2 0.47812457E+03</rscale>
<asrwt>0</asrwt>
<pdfrwt beam="1">  1       21 0.39418177E-01 0.47812457E+03</pdfrwt>
<pdfrwt beam="2">  1       21 0.14744051E+00 0.47812457E+03</pdfrwt>
<totfact> 0.16377379E+03</totfact>
</mgrwt>
</event>
<event>
 4    1  0.4656822E-002  0.4172206E+03  0.7818608E-02  0.1037975E+00
         21   -1    0    0  503  502  0.00000000000E+00  0.00000000000E+00  0.37008697598E+03  0.37008697598E+03  0.00000000000E+00 0. -1.
         21   -1    0    0  501  503 -0.00000000000E+00 -0.00000000000E+00 -0.66303218521E+03  0.66303218521E+03  0.00000000000E+00 0. -1.
    9000007    1    1    2  501    0  0.19277970098E+02  0.11705301178E+03 -0.42493455588E+03  0.59551861808E+03  0.40000000000E+03 0. -1.
   -9000007    1    1    2    0  502 -0.19277970098E+02 -0.11705301178E+03  0.13198934665E+03  0.43760054311E+03  0.40000000000E+03 0. -1.
<mgrwt>
<rscale>  2 0.41722062E+03</rscale>
<asrwt>0</asrwt>
<pdfrwt beam="1">  1       21 0.56936459E-01 0.41722062E+03</pdfrwt>
<pdfrwt beam="2">  1       21 0.10200495E+00 0.41722062E+03</pdfrwt>
<totfact> 0.19815880E+03</totfact>
</mgrwt>
</event>
<event>
 4    1  0.4656822E-002  0.6519407E+03  0.7818608E-02  0.9803144E-01
         21   -1    0    0  503  502  0.00000000000E+00  0.00000000000E+00  0.20047798500E+04  0.20047798500E+04  0.00000000000E+00 0. -1.
         21   -1    0    0  501  503 -0.00000000000E+00 -0.00000000000E+00 -0.25683563590E+03  0.25683563590E+03  0.00000000000E+00 0.  1.
    9000007    1    1    2  501    0  0.50204213424E+03 -0.11393131475E+03  0.40153868236E+03  0.76567614725E+03  0.40000000000E+03 0.  1.
   -9000007    1    1    2    0  502 -0.50204213424E+03  0.11393131475E+03  0.13464055317E+04  0.14959393387E+04  0.40000000000E+03 0. -1.
<mgrwt>
<rscale>  2 0.65194068E+03</rscale>
<asrwt>0</asrwt>
<pdfrwt beam="1">  1       21 0.30842766E+00 0.65194068E+03</pdfrwt>
<pdfrwt beam="2">  1       21 0.39513176E-01 0.65194068E+03</pdfrwt>
<totfact> 0.13194794E+02</totfact>
</mgrwt>
</event>
<event>
 4    1  0.4656822E-002  0.4369624E+03  0.7818608E-02  0.1031683E+00
         21   -1    0    0  501  502  0.00000000000E+00  0.00000000000E+00  0.66651907486E+03  0.66651907486E+03  0.00000000000E+00 0. -1.
         21   -1    0    0  502  503 -0.00000000000E+00 -0.00000000000E+00 -0.62206488536E+03  0.62206488536E+03  0.00000000000E+00 0. -1.
    9000007    1    1    2  501    0 -0.11983169456E+03  0.12874963740E+03  0.49545910869E+03  0.66061776583E+03  0.40000000000E+03 0. -1.
   -9000007    1    1    2    0  503  0.11983169456E+03 -0.12874963740E+03 -0.45100491919E+03  0.62796619438E+03  0.40000000000E+03 0. -1.
<mgrwt>
<rscale>  2 0.43696236E+03</rscale>
<asrwt>0</asrwt>
<pdfrwt beam="1">  1       21 0.10254140E+00 0.43696236E+03</pdfrwt>
<pdfrwt beam="2">  1       21 0.95702290E-01 0.43696236E+03</pdfrwt>
<totfact> 0.59496752E+02</totfact>
</mgrwt>
</event>
<event>
 4    1  0.4656822E-002  0.4062524E+03  0.7818608E-02  0.1041636E+00
         21   -1    0    0  503  502  0.00000000000E+00  0.00000000000E+00  0.68132020982E+03  0.68132020982E+03  0.00000000000E+00 0.  1.
         21   -1    0    0  501  503 -0.00000000000E+00 -0.00000000000E+00 -0.29581359720E+03  0.29581359720E+03  0.00000000000E+00 0.  1.
    9000007    1    1    2  501    0 -0.70998256304E+02 -0.48830678069E+00 -0.15169620159E+02  0.40653549441E+03  0.40000000000E+03 0.  1.
   -9000007    1    1    2    0  502  0.70998256304E+02  0.48830678069E+00  0.40067623278E+03  0.57059831261E+03  0.40000000000E+03 0.  1.
<mgrwt>
<rscale>  2 0.40625237E+03</rscale>
<asrwt>0</asrwt>
<pdfrwt beam="1">  1       21 0.10481849E+00 0.40625237E+03</pdfrwt>
<pdfrwt beam="2">  1       21 0.45509785E-01 0.40625237E+03</pdfrwt>
<totfact> 0.30003025E+03</totfact>
</mgrwt>
</event>
<event>
 4    1  0.4656822E-002  0.6985503E+03  0.7818608E-02  0.9719715E-01
         21   -1    0    0  501  502  0.00000000000E+00  0.00000000000E+00  0.93771037129E+03  0.93771037129E+03  0.00000000000E+00 0.  1.
         21   -1    0    0  502  503 -0.00000000000E+00 -0.00000000000E+00 -0.98125020422E+03  0.98125020422E+03  0.00000000000E+00 0.  1.
    9000007    1    1    2  501    0 -0.50645219773E+03  0.26735495731E+03  0.63578508618E+03  0.94456083848E+03  0.40000000000E+03 0.  1.
   -9000007    1    1    2    0  503  0.50645219773E+03 -0.26735495731E+03 -0.67932491911E+03  0.97439973702E+03  0.40000000000E+03 0.  1.
<mgrwt>
<rscale>  2 0.69855029E+03</rscale>
<asrwt>0</asrwt>
<pdfrwt beam="1">  1       21 0.14426313E+00 0.69855029E+03</pdfrwt>
<pdfrwt beam="2">  1       21 0.15096157E+00 0.69855029E+03</pdfrwt>
<totfact> 0.69240132E+01</totfact>
</mgrwt>
</event>
<event>
 4    1  0.4656822E-002  0.4438817E+03  0.7818608E-02  0.1029562E+00
         21   -1    0    0  501  502  0.00000000000E+00  0.00000000000E+00  0.49247618426E+03  0.49247618426E+03  0.00000000000E+00 0.  1.
         21   -1    0    0  502  503 -0.00000000000E+00 -0.00000000000E+00 -0.47557352297E+03  0.47557352297E+03  0.00000000000E+00 0.  1.
    9000007    1    1    2  501    0  0.63972311110E+02  0.18148958927E+03  0.20129594207E+03  0.48739202281E+03  0.40000000000E+03 0.  1.
   -9000007    1    1    2    0  503 -0.63972311110E+02 -0.18148958927E+03 -0.18439328077E+03  0.48065768443E+03  0.40000000000E+03 0.  1.
<mgrwt>
<rscale>  2 0.44388166E+03</rscale>
<asrwt>0</asrwt>
<pdfrwt beam="1">  1       21 0.75765567E-01 0.44388166E+03</pdfrwt>
<pdfrwt beam="2">  1       21 0.73165157E-01 0.44388166E+03</pdfrwt>
<totfact> 0.22658214E+03</totfact>
</mgrwt>
</event>
<event>
 4    1  0.4656822E-002  0.4794703E+03  0.7818608E-02  0.1019281E+00
         21   -1    0    0  503  502  0.00000000000E+00  0.00000000000E+00  0.70122821526E+03  0.70122821526E+03  0.00000000000E+00 0. -1.
         21   -1    0    0  501  503 -0.00000000000E+00 -0.00000000000E+00 -0.39025506469E+03  0.39025506469E+03  0.00000000000E+00 0. -1.
    9000007    1    1    2  501    0  0.22264942056E+03 -0.14254488374E+03 -0.62762203898E+02  0.48356065038E+03  0.40000000000E+03 0. -1.
   -9000007    1    1    2    0  502 -0.22264942056E+03  0.14254488374E+03  0.37373535447E+03  0.60792262957E+03  0.40000000000E+03 0. -1.
<mgrwt>
<rscale>  2 0.47947034E+03</rscale>
<asrwt>0</asrwt>
<pdfrwt beam="1">  1       21 0.10788126E+00 0.47947034E+03</pdfrwt>
<pdfrwt beam="2">  1       21 0.60039241E-01 0.47947034E+03</pdfrwt>
<totfact> 0.15010410E+03</totfact>
</mgrwt>
</event>
<event>
 4    1  0.4656822E-002  0.4212451E+03  0.7818608E-02  0.1036662E+00
         21   -1    0    0  503  502  0.00000000000E+00  0.00000000000E+00  0.34896415288E+03  0.34896415288E+03  0.00000000000E+00 0. -1.
         21   -1    0    0  501  503 -0.00000000000E+00 -0.00000000000E+00 -0.12329837855E+04  0.12329837855E+04  0.00000000000E+00 0. -1.
    9000007    1    1    2  501    0 -0.10101448485E+02 -0.13170205268E+03 -0.10483251229E+04  0.11297933586E+04  0.40000000000E+03 0. -1.
   -9000007    1    1    2    0  502  0.10101448485E+02  0.13170205268E+03  0.16430549019E+03  0.45215457982E+03  0.40000000000E+03 0. -1.
<mgrwt>
<rscale>  2 0.42124514E+03</rscale>
<asrwt>0</asrwt>
<pdfrwt beam="1">  1       21 0.53686793E-01 0.42124514E+03</pdfrwt>
<pdfrwt beam="2">  1       21 0.18968981E+00 0.42124514E+03</pdfrwt>
<totfact> 0.42952560E+02</totfact>
</mgrwt>
</event>
<event>
 4    1  0.4656822E-002  0.4779386E+03  0.7818608E-02  0.1019703E+00
         21   -1    0    0  501  502  0.00000000000E+00  0.00000000000E+00  0.93575939987E+03  0.93575939987E+03  0.00000000000E+00 0. -1.
         21   -1    0    0  502  503 -0.00000000000E+00 -0.00000000000E+00 -0.25176885643E+03  0.25176885643E+03  0.00000000000E+00 0. -1.
    9000007    1    1    2  501    0 -0.15237871745E+03 -0.21261720253E+03  0.23841378916E+03  0.53410343868E+03  0.40000000000E+03 0. -1.
   -9000007    1    1    2    0  503  0.15237871745E+03  0.21261720253E+03  0.44557675428E+03  0.65342481763E+03  0.40000000000E+03 0. -1.
<mgrwt>
<rscale>  2 0.47793864E+03</rscale>
<asrwt>0</asrwt>
<pdfrwt beam="1">  1       21 0.14396298E+00 0.47793864E+03</pdfrwt>
<pdfrwt beam="2">  1       21 0.38733671E-01 0.47793864E+03</pdfrwt>
<totfact> 0.18108193E+03</totfact>
</mgrwt>
</event>
<event>
 4    1  0.4656822E-002  0.4142333E+03  0.7818608E-02  0.1038960E+00
         21   -1    0    0  501  502  0.00000000000E+00  0.00000000000E+00  0.24674001596E+03  0.24674001596E+03  0.00000000000E+00 0. -1.
         21   -1    0    0  502  503 -0.00000000000E+00 -0.00000000000E+00 -0.73443834264E+03  0.73443834264E+03  0.00000000000E+00 0. -1.
    9000007    1    1    2  501    0  0.21863942323E+00 -0.10765288499E+03 -0.13077939108E+03  0.43438743143E+03  0.40000000000E+03 0.  1.
   -9000007    1    1    2    0  503 -0.21863942323E+00  0.10765288499E+03 -0.35691893559E+03  0.54679092717E+03  0.40000000000E+03 0.  1.
<mgrwt>
<rscale>  2 0.41423326E+03</rscale>
<asrwt>0</asrwt>
<pdfrwt beam="1">  1       21 0.37960003E-01 0.41423326E+03</pdfrwt>
<pdfrwt beam="2">  1       21 0.11299051E+00 0.41423326E+03</pdfrwt>
<totfact> 0.36150690E+03</totfact>
</mgrwt>
</event>
<event>
 4    1  0.4656822E-002  0.4320378E+03  0.7818608E-02  0.1033218E+00
         21   -1    0    0  501  502  0.00000000000E+00  0.00000000000E+00  0.16323789804E+03  0.16323789804E+03  0.00000000000E+00 0.  1.
         21   -1    0    0  502  503 -0.00000000000E+00 -0.00000000000E+00 -0.14549074122E+04  0.14549074122E+04  0.00000000000E+00 0.  1.
    9000007    1    1    2  501    0  0.15512975212E+03  0.50905971496E+02 -0.27150062552E+03  0.51026389994E+03  0.40000000000E+03 0.  1.
   -9000007    1    1    2    0  503 -0.15512975212E+03 -0.50905971496E+02 -0.10201688886E+04  0.11078814103E+04  0.40000000000E+03 0.  1.
<mgrwt>
<rscale>  2 0.43203780E+03</rscale>
<asrwt>0</asrwt>
<pdfrwt beam="1">  1       21 0.25113523E-01 0.43203780E+03</pdfrwt>
<pdfrwt beam="2">  1       21 0.22383190E+00 0.43203780E+03</pdfrwt>
<totfact> 0.11999580E+03</totfact>
</mgrwt>
</event>
<event>
 4    1  0.4656822E-002  0.5253853E+03  0.7818608E-02  0.1007357E+00
         21   -1    0    0  503  502  0.00000000000E+00  0.00000000000E+00  0.65603443839E+03  0.65603443839E+03  0.00000000000E+00 0. -1.
         21   -1    0    0  501  503 -0.00000000000E+00 -0.00000000000E+00 -0.42076895167E+03  0.42076895167E+03  0.00000000000E+00 0.  1.
    9000007    1    1    2  501    0  0.23686833802E+03 -0.24479200031E+03  0.11452620079E+03  0.53772296179E+03  0.40000000000E+03 0.  1.
   -9000007    1    1    2    0  502 -0.23686833802E+03  0.24479200031E+03  0.12073928593E+03  0.53908042827E+03  0.40000000000E+03 0. -1.
<mgrwt>
<rscale>  2 0.52538532E+03</rscale>
<asrwt>0</asrwt>
<pdfrwt beam="1">  1       21 0.10092838E+00 0.52538532E+03</pdfrwt>
<pdfrwt beam="2">  1       21 0.64733685E-01 0.52538532E+03</pdfrwt>
<totfact> 0.14738540E+03</totfact>
</mgrwt>
</event>
<event>
 4    1  0.4656822E-002  0.4672031E+03  0.7818608E-02  0.1022713E+00
         21   -1    0    0  503  502  0.00000000000E+00  0.00000000000E+00  0.40327309572E+03  0.40327309572E+03  0.00000000000E+00 0. -1.
         21   -1    0    0  501  503 -0.00000000000E+00 -0.00000000000E+00 -0.55637790673E+03  0.55637790673E+03  0.00000000000E+00 0. -1.
    9000007    1    1    2  501    0 -0.22336507180E+03 -0.91579339568E+02 -0.15562619107E+03  0.49244110519E+03  0.40000000000E+03 0. -1.
   -9000007    1    1    2    0  502  0.22336507180E+03  0.91579339568E+02  0.25213800569E+01  0.46720989726E+03  0.40000000000E+03 0. -1.
<mgrwt>
<rscale>  2 0.46720309E+03</rscale>
<asrwt>0</asrwt>
<pdfrwt beam="1">  1       21 0.62042015E-01 0.46720309E+03</pdfrwt>
<pdfrwt beam="2">  1       21 0.85596601E-01 0.46720309E+03</pdfrwt>
<totfact> 0.24499718E+03</totfact>
</mgrwt>
</event>
<event>
 4    1  0.4656822E-002  0.4084586E+03  0.7818608E-02  0.1040889E+00
         21   -1    0    0  501  502  0.00000000000E+00  0.00000000000E+00  0.18263081731E+03  0.18263081731E+03  0.00000000000E+00 0. -1.
         21   -1    0    0  502  503 -0.00000000000E+00 -0.00000000000E+00 -0.91604465464E+03  0.91604465464E+03  0.00000000000E+00 0. -1.
    9000007    1    1    2  501    0  0.64855829987E+02 -0.51304375914E+02 -0.39549867566E+03  0.56855749060E+03  0.40000000000E+03 0.  1.
   -9000007    1    1    2    0  503 -0.64855829987E+02  0.51304375914E+02 -0.33791516167E+03  0.53011798136E+03  0.40000000000E+03 0.  1.
<mgrwt>
<rscale>  2 0.40845859E+03</rscale>
<asrwt>0</asrwt>
<pdfrwt beam="1">  1       21 0.28097049E-01 0.40845859E+03</pdfrwt>
<pdfrwt beam="2">  1       21 0.14092994E+00 0.40845859E+03</pdfrwt>
<totfact> 0.37530981E+03</totfact>
</mgrwt>
</event>
<event>
 4    1  0.4656822E-002  0.4755866E+03  0.7818608E-02  0.1020355E+00
         21   -1    0    0  503  502  0.00000000000E+00  0.00000000000E+00  0.47388686432E+03  0.47388686432E+03  0.00000000000E+00 0.  1.
         21   -1    0    0  501  503 -0.00000000000E+00 -0.00000000000E+00 -0.48077984242E+03  0.48077984242E+03  0.00000000000E+00 0.  1.
    9000007    1    1    2  501    0  0.87579782425E+02  0.24189328671E+03 -0.44100611527E+02  0.47762688825E+03  0.40000000000E+03 0.  1.
   -9000007    1    1    2    0  502 -0.87579782425E+02 -0.24189328671E+03  0.37207633429E+02  0.47703981850E+03  0.40000000000E+03 0.  1.
<mgrwt>
<rscale>  2 0.47558656E+03</rscale>
<asrwt>0</asrwt>
<pdfrwt beam="1">  1       21 0.72905671E-01 0.47558656E+03</pdfrwt>
<pdfrwt beam="2">  1       21 0.73966130E-01 0.47558656E+03</pdfrwt>
<totfact> 0.23855708E+03</totfact>
</mgrwt>
</event>
<event>
 4    1  0.4656822E-002  0.5221357E+03  0.7818608E-02  0.1008157E+00
         21   -1    0    0  503  502  0.00000000000E+00  0.00000000000E+00  0.47757083363E+03  0.47757083363E+03  0.00000000000E+00 0.  1.
         21   -1    0    0  501  503 -0.00000000000E+00 -0.00000000000E+00 -0.59483099222E+03  0.59483099222E+03  0.00000000000E+00 0. -1.
    9000007    1    1    2  501    0 -0.22065807753E+03 -0.25285514630E+03 -0.16627185477E+03  0.54797084035E+03  0.40000000000E+03 0. -1.
   -9000007    1    1    2    0  502  0.22065807753E+03  0.25285514630E+03  0.49011696184E+02  0.52443098550E+03  0.40000000000E+03 0. -1.
<mgrwt>
<rscale>  2 0.52213572E+03</rscale>
<asrwt>0</asrwt>
<pdfrwt beam="1">  1       21 0.73472436E-01 0.52213572E+03</pdfrwt>
<pdfrwt beam="2">  1       21 0.91512460E-01 0.52213572E+03</pdfrwt>
<totfact> 0.14048963E+03</totfact>
</mgrwt>
</event>
<event>
 4    1  0.4656822E-002  0.4632342E+03  0.7818608E-02  0.1023847E+00
         21   -1    0    0  503  502  0.00000000000E+00  0.00000000000E+00  0.28519099293E+03  0.28519099293E+03  0.00000000000E+00 0. -1.
         21   -1    0    0  501  503 -0.00000000000E+00 -0.00000000000E+00 -0.76180801189E+03  0.76180801189E+03  0.00000000000E+00 0. -1.
    9000007    1    1    2  501    0 -0.15416355160E+03  0.17555502039E+03 -0.18022234751E+03  0.49705740148E+03  0.40000000000E+03 0. -1.
   -9000007    1    1    2    0  502  0.15416355160E+03 -0.17555502039E+03 -0.29639467144E+03  0.54994160334E+03  0.40000000000E+03 0. -1.
<mgrwt>
<rscale>  2 0.46323425E+03</rscale>
<asrwt>0</asrwt>
<pdfrwt beam="1">  1       21 0.43875538E-01 0.46323425E+03</pdfrwt>
<pdfrwt beam="2">  1       21 0.11720123E+00 0.46323425E+03</pdfrwt>
<totfact> 0.24021601E+03</totfact>
</mgrwt>
</event>
<event>
 4    1  0.4656822E-002  0.4537101E+03  0.7818608E-02  0.1026621E+00
         21   -1    0    0  501  502  0.00000000000E+00  0.00000000000E+00  0.26086699577E+03  0.26086699577E+03  0.00000000000E+00 0. -1.
         21   -1    0    0  502  503 -0.00000000000E+00 -0.00000000000E+00 -0.10058855132E+04  0.10058855132E+04  0.00000000000E+00 0.  1.
    9000007    1    1    2  501    0  0.16019907265E+03 -0.14208838734E+03 -0.78478857014E+02  0.46044737342E+03  0.40000000000E+03 0. -1.
   -9000007    1    1    2    0  503 -0.16019907265E+03  0.14208838734E+03 -0.66653966039E+03  0.80630513552E+03  0.40000000000E+03 0.  1.
<mgrwt>
<rscale>  2 0.45371010E+03</rscale>
<asrwt>0</asrwt>
<pdfrwt beam="1">  1       21 0.40133384E-01 0.45371010E+03</pdfrwt>
<pdfrwt beam="2">  1       21 0.15475162E+00 0.45371010E+03</pdfrwt>
<totfact> 0.13967341E+03</totfact>
</mgrwt>
</event>
<event>
 4    1  0.4656822E-002  0.5180179E+03  0.7818608E-02  0.1009180E+00
         21   -1    0    0  503  502  0.00000000000E+00  0.00000000000E+00  0.83628465209E+03  0.83628465209E+03  0.00000000000E+00 0. -1.
         21   -1    0    0  501  503 -0.00000000000E+00 -0.00000000000E+00 -0.32758828994E+03  0.32758828994E+03  0.00000000000E+00 0. -1.
    9000007    1    1    2  501    0 -0.11893768406E+03 -0.30691420015E+03  0.17103912819E+03  0.54552441038E+03  0.40000000000E+03 0. -1.
   -9000007    1    1    2    0  502  0.11893768406E+03  0.30691420015E+03  0.33765723397E+03  0.61834853165E+03  0.40000000000E+03 0. -1.
<mgrwt>
<rscale>  2 0.51801786E+03</rscale>
<asrwt>0</asrwt>
<pdfrwt beam="1">  1       21 0.12865918E+00 0.51801786E+03</pdfrwt>
<pdfrwt beam="2">  1       21 0.50398199E-01 0.51801786E+03</pdfrwt>
<totfact> 0.13839340E+03</totfact>
</mgrwt>
</event>
<event>
 4    1  0.4656822E-002  0.5740203E+03  0.7818608E-02  0.9960822E-01
         21   -1    0    0  503  502  0.00000000000E+00  0.00000000000E+00  0.17689859493E+04  0.17689859493E+04  0.00000000000E+00 0.  1.
         21   -1    0    0  501  503 -0.00000000000E+00 -0.00000000000E+00 -0.33039987919E+03  0.33039987919E+03  0.00000000000E+00 0.  1.
    9000007    1    1    2  501    0 -0.37771778316E+03  0.16379428464E+03  0.25982792427E+02  0.57460803762E+03  0.40000000000E+03 0.  1.
   -9000007    1    1    2    0  502  0.37771778316E+03 -0.16379428464E+03  0.14126032777E+04  0.15247777909E+04  0.40000000000E+03 0.  1.
<mgrwt>
<rscale>  2 0.57402029E+03</rscale>
<asrwt>0</asrwt>
<pdfrwt beam="1">  1       21 0.27215168E+00 0.57402029E+03</pdfrwt>
<pdfrwt beam="2">  1       21 0.50830751E-01 0.57402029E+03</pdfrwt>
<totfact> 0.13371696E+02</totfact>
</mgrwt>
</event>
<event>
 4    1  0.4656822E-002  0.4640149E+03  0.7818608E-02  0.1023623E+00
         21   -1    0    0  501  502  0.00000000000E+00  0.00000000000E+00  0.89746963124E+02  0.89746963124E+02  0.00000000000E+00 0.  1.
         21   -1    0    0  502  503 -0.00000000000E+00 -0.00000000000E+00 -0.23995548913E+04  0.23995548913E+04  0.00000000000E+00 0.  1.
    9000007    1    1    2  501    0  0.99559757275E+02  0.21306737532E+03 -0.11724736906E+04  0.12609537687E+04  0.40000000000E+03 0. -1.
   -9000007    1    1    2    0  503 -0.99559757275E+02 -0.21306737532E+03 -0.11373342376E+04  0.12283480857E+04  0.40000000000E+03 0. -1.
<mgrwt>
<rscale>  2 0.46401493E+03</rscale>
<asrwt>0</asrwt>
<pdfrwt beam="1">  1       21 0.13807227E-01 0.46401493E+03</pdfrwt>
<pdfrwt beam="2">  1       21 0.36916224E+00 0.46401493E+03</pdfrwt>
<totfact> 0.47437062E+02</totfact>
</mgrwt>
</event>
<event>
 4    1  0.4656822E-002  0.4056961E+03  0.7818608E-02  0.1041825E+00
         21   -1    0    0  501  502  0.00000000000E+00  0.00000000000E+00  0.83611631670E+03  0.83611631670E+03  0.00000000000E+00 0.  1.
         21   -1    0    0  502  503 -0.00000000000E+00 -0.00000000000E+00 -0.34789356921E+03  0.34789356921E+03  0.00000000000E+00 0.  1.
    9000007    1    1    2  501    0  0.67251734249E+02 -0.81548795316E+01  0.63419129351E+03  0.75285316934E+03  0.40000000000E+03 0.  1.
   -9000007    1    1    2    0  503 -0.67251734249E+02  0.81548795316E+01 -0.14596854602E+03  0.43115671657E+03  0.40000000000E+03 0.  1.
<mgrwt>
<rscale>  2 0.40569607E+03</rscale>
<asrwt>0</asrwt>
<pdfrwt beam="1">  1       21 0.12863328E+00 0.40569607E+03</pdfrwt>
<pdfrwt beam="2">  1       21 0.53522088E-01 0.40569607E+03</pdfrwt>
<totfact> 0.12729147E+03</totfact>
</mgrwt>
</event>
<event>
 4    1  0.4656822E-002  0.4434052E+03  0.7818608E-02  0.1029707E+00
         21   -1    0    0  501  502  0.00000000000E+00  0.00000000000E+00  0.33644122455E+03  0.33644122455E+03  0.00000000000E+00 0.  1.
         21   -1    0    0  502  503 -0.00000000000E+00 -0.00000000000E+00 -0.79225870941E+03  0.79225870941E+03  0.00000000000E+00 0.  1.
    9000007    1    1    2  501    0  0.18528538039E+03 -0.47722757981E+02  0.61175427976E+02  0.44760536950E+03  0.40000000000E+03 0.  1.
   -9000007    1    1    2    0  503 -0.18528538039E+03  0.47722757981E+02 -0.51699291284E+03  0.68109456446E+03  0.40000000000E+03 0.  1.
<mgrwt>
<rscale>  2 0.44340516E+03</rscale>
<asrwt>0</asrwt>
<pdfrwt beam="1">  1       21 0.51760190E-01 0.44340516E+03</pdfrwt>
<pdfrwt beam="2">  1       21 0.12188595E+00 0.44340516E+03</pdfrwt>
<totfact> 0.15453711E+03</totfact>
</mgrwt>
</event>
<event>
 4    1  0.4656822E-002  0.4119671E+03  0.7818608E-02  0.1039713E+00
         21   -1    0    0  501  502  0.00000000000E+00  0.00000000000E+00  0.45087159459E+03  0.45087159459E+03  0.00000000000E+00 0.  1.
         21   -1    0    0  502  503 -0.00000000000E+00 -0.00000000000E+00 -0.46994392610E+03  0.46994392610E+03  0.00000000000E+00 0.  1.
    9000007    1    1    2  501    0 -0.37800822774E+02 -0.91038308736E+02  0.19585514198E+03  0.45615360626E+03  0.40000000000E+03 0.  1.
   -9000007    1    1    2    0  503  0.37800822774E+02  0.91038308736E+02 -0.21492747349E+03  0.46466191443E+03  0.40000000000E+03 0.  1.
<mgrwt>
<rscale>  2 0.41196708E+03</rscale>
<asrwt>0</asrwt>
<pdfrwt beam="1">  1       21 0.69364861E-01 0.41196708E+03</pdfrwt>
<pdfrwt beam="2">  1       21 0.72299065E-01 0.41196708E+03</pdfrwt>
<totfact> 0.28773265E+03</totfact>
</mgrwt>
</event>
<event>
 4    1  0.4656822E-002  0.4439972E+03  0.7818608E-02  0.1029527E+00
         21   -1    0    0  503  502  0.00000000000E+00  0.00000000000E+00  0.58408744072E+03  0.58408744072E+03  0.00000000000E+00 0.  1.
         21   -1    0    0  501  503 -0.00000000000E+00 -0.00000000000E+00 -0.38249016333E+03  0.38249016333E+03  0.00000000000E+00 0.  1.
    9000007    1    1    2  501    0 -0.90005016570E+02  0.17038966245E+03 -0.64939358944E+02  0.44872113881E+03  0.40000000000E+03 0.  1.
   -9000007    1    1    2    0  502  0.90005016570E+02 -0.17038966245E+03  0.26653663634E+03  0.51785646523E+03  0.40000000000E+03 0.  1.
<mgrwt>
<rscale>  2 0.44399723E+03</rscale>
<asrwt>0</asrwt>
<pdfrwt beam="1">  1       21 0.89859607E-01 0.44399723E+03</pdfrwt>
<pdfrwt beam="2">  1       21 0.58844640E-01 0.44399723E+03</pdfrwt>
<totfact> 0.24746042E+03</totfact>
</mgrwt>
</event>
<event>
 4    1  0.4656822E-002  0.5959179E+03  0.7818608E-02  0.9913911E-01
         21   -1    0    0  503  502  0.00000000000E+00  0.00000000000E+00  0.45959297616E+03  0.45959297616E+03  0.00000000000E+00 0.  1.
         21   -1    0    0  501  503 -0.00000000000E+00 -0.00000000000E+00 -0.80781693393E+03  0.80781693393E+03  0.00000000000E+00 0. -1.
    9000007    1    1    2  501    0  0.44164810397E+03  0.80705225284E+01 -0.41947676562E+02  0.59739249129E+03  0.40000000000E+03 0.  1.
   -9000007    1    1    2    0  502 -0.44164810397E+03 -0.80705225284E+01 -0.30627628121E+03  0.67001741881E+03  0.40000000000E+03 0. -1.
<mgrwt>
<rscale>  2 0.59591793E+03</rscale>
<asrwt>0</asrwt>
<pdfrwt beam="1">  1       21 0.70706613E-01 0.59591793E+03</pdfrwt>
<pdfrwt beam="2">  1       21 0.12427953E+00 0.59591793E+03</pdfrwt>
<totfact> 0.70014217E+02</totfact>
</mgrwt>
</event>
<event>
 4    1  0.4656822E-002  0.4358120E+03  0.7818608E-02  0.1032040E+00
         21   -1    0    0  503  502  0.00000000000E+00  0.00000000000E+00  0.10115388552E+04  0.10115388552E+04  0.00000000000E+00 0.  1.
         21   -1    0    0  501  503 -0.00000000000E+00 -0.00000000000E+00 -0.18787458333E+03  0.18787458333E+03  0.00000000000E+00 0.  1.
    9000007    1    1    2  501    0 -0.12475194540E+02 -0.17255856642E+03  0.42628330426E+03  0.60963066263E+03  0.40000000000E+03 0.  1.
   -9000007    1    1    2    0  502  0.12475194540E+02  0.17255856642E+03  0.39738096762E+03  0.58978277590E+03  0.40000000000E+03 0.  1.
<mgrwt>
<rscale>  2 0.43581199E+03</rscale>
<asrwt>0</asrwt>
<pdfrwt beam="1">  1       21 0.15562136E+00 0.43581199E+03</pdfrwt>
<pdfrwt beam="2">  1       21 0.28903783E-01 0.43581199E+03</pdfrwt>
<totfact> 0.26861771E+03</totfact>
</mgrwt>
</event>
<event>
 4    1  0.4656822E-002  0.4468463E+03  0.7818608E-02  0.1028667E+00
         21   -1    0    0  501  502  0.00000000000E+00  0.00000000000E+00  0.14082474673E+03  0.14082474673E+03  0.00000000000E+00 0.  1.
         21   -1    0    0  502  503 -0.00000000000E+00 -0.00000000000E+00 -0.17723755596E+04  0.17723755596E+04  0.00000000000E+00 0.  1.
    9000007    1    1    2  501    0 -0.19635066753E+03  0.33436316084E+02 -0.38795410322E+03  0.59176005110E+03  0.40000000000E+03 0.  1.
   -9000007    1    1    2    0  503  0.19635066753E+03 -0.33436316084E+02 -0.12435967097E+04  0.13214402552E+04  0.40000000000E+03 0.  1.
<mgrwt>
<rscale>  2 0.44684625E+03</rscale>
<asrwt>0</asrwt>
<pdfrwt beam="1">  1       21 0.21665346E-01 0.44684625E+03</pdfrwt>
<pdfrwt beam="2">  1       21 0.27267315E+00 0.44684625E+03</pdfrwt>
<totfact> 0.79224477E+02</totfact>
</mgrwt>
</event>
<event>
 4    1  0.4656822E-002  0.4039248E+03  0.7818608E-02  0.1042429E+00
         21   -1    0    0  501  502  0.00000000000E+00  0.00000000000E+00  0.32141783062E+03  0.32141783062E+03  0.00000000000E+00 0.  1.
         21   -1    0    0  502  503 -0.00000000000E+00 -0.00000000000E+00 -0.53932564023E+03  0.53932564023E+03  0.00000000000E+00 0.  1.
    9000007    1    1    2  501    0 -0.56160699331E+02 -0.10902929363E+01 -0.21331734592E+03  0.45679262577E+03  0.40000000000E+03 0.  1.
   -9000007    1    1    2    0  503  0.56160699331E+02  0.10902929363E+01 -0.45904636885E+01  0.40395084509E+03  0.40000000000E+03 0.  1.
<mgrwt>
<rscale>  2 0.40392476E+03</rscale>
<asrwt>0</asrwt>
<pdfrwt beam="1">  1       21 0.49448897E-01 0.40392476E+03</pdfrwt>
<pdfrwt beam="2">  1       21 0.82973176E-01 0.40392476E+03</pdfrwt>
<totfact> 0.44013275E+03</totfact>
</mgrwt>
</event>
<event>
 4    1  0.4656822E-002  0.5504278E+03  0.7818608E-02  0.1001395E+00
         21   -1    0    0  503  502  0.00000000000E+00  0.00000000000E+00  0.20175635231E+03  0.20175635231E+03  0.00000000000E+00 0.  1.
         21   -1    0    0  501  503 -0.00000000000E+00 -0.00000000000E+00 -0.23899009467E+04  0.23899009467E+04  0.00000000000E+00 0.  1.
    9000007    1    1    2  501    0 -0.51350459861E+02  0.37461158575E+03 -0.18840621044E+04  0.19628195850E+04  0.40000000000E+03 0.  1.
   -9000007    1    1    2    0  502  0.51350459861E+02 -0.37461158575E+03 -0.30408249002E+03  0.62883771408E+03  0.40000000000E+03 0.  1.
<mgrwt>
<rscale>  2 0.55042775E+03</rscale>
<asrwt>0</asrwt>
<pdfrwt beam="1">  1       21 0.31039440E-01 0.55042775E+03</pdfrwt>
<pdfrwt beam="2">  1       21 0.36767705E+00 0.55042775E+03</pdfrwt>
<totfact> 0.97610235E+01</totfact>
</mgrwt>
</event>
<event>
 4    1  0.4656822E-002  0.4368920E+03  0.7818608E-02  0.1031705E+00
         21   -1    0    0  501  502  0.00000000000E+00  0.00000000000E+00  0.24162736225E+03  0.24162736225E+03  0.00000000000E+00 0. -1.
         21   -1    0    0  502  503 -0.00000000000E+00 -0.00000000000E+00 -0.13507151628E+04  0.13507151628E+04  0.00000000000E+00 0. -1.
    9000007    1    1    2  501    0 -0.12204561840E+03 -0.12640985188E+03 -0.41548534122E+02  0.43886314986E+03  0.40000000000E+03 0. -1.
   -9000007    1    1    2    0  503  0.12204561840E+03  0.12640985188E+03 -0.10675392664E+04  0.11534793752E+04  0.40000000000E+03 0. -1.
<mgrwt>
<rscale>  2 0.43689196E+03</rscale>
<asrwt>0</asrwt>
<pdfrwt beam="1">  1       21 0.37173440E-01 0.43689196E+03</pdfrwt>
<pdfrwt beam="2">  1       21 0.20780233E+00 0.43689196E+03</pdfrwt>
<totfact> 0.69559429E+02</totfact>
</mgrwt>
</event>
<event>
 4    1  0.4656822E-002  0.5681067E+03  0.7818608E-02  0.9973877E-01
         21   -1    0    0  503  502  0.00000000000E+00  0.00000000000E+00  0.11708635965E+04  0.11708635965E+04  0.00000000000E+00 0. -1.
         21   -1    0    0  501  503 -0.00000000000E+00 -0.00000000000E+00 -0.89386891682E+03  0.89386891682E+03  0.00000000000E+00 0.  1.
    9000007    1    1    2  501    0 -0.80023664080E+02  0.39540027977E+03 -0.72005948100E+03  0.91718636287E+03  0.40000000000E+03 0.  1.
   -9000007    1    1    2    0  502  0.80023664080E+02 -0.39540027977E+03  0.99705416064E+03  0.11475461504E+04  0.40000000000E+03 0. -1.
<mgrwt>
<rscale>  2 0.56810665E+03</rscale>
<asrwt>0</asrwt>
<pdfrwt beam="1">  1       21 0.18013286E+00 0.56810665E+03</pdfrwt>
<pdfrwt beam="2">  1       21 0.13751830E+00 0.56810665E+03</pdfrwt>
<totfact> 0.50214538E+01</totfact>
</mgrwt>
</event>
<event>
 4    1  0.4656822E-002  0.4762886E+03  0.7818608E-02  0.1020160E+00
         21   -1    0    0  503  502  0.00000000000E+00  0.00000000000E+00  0.20389606912E+03  0.20389606912E+03  0.00000000000E+00 0. -1.
         21   -1    0    0  501  503 -0.00000000000E+00 -0.00000000000E+00 -0.16948890110E+04  0.16948890110E+04  0.00000000000E+00 0. -1.
    9000007    1    1    2  501    0 -0.11623531048E+03 -0.23095487143E+03 -0.13019792568E+04  0.13863624292E+04  0.40000000000E+03 0. -1.
   -9000007    1    1    2    0  502  0.11623531048E+03  0.23095487143E+03 -0.18901368513E+03  0.51242265095E+03  0.40000000000E+03 0. -1.
<mgrwt>
<rscale>  2 0.47628857E+03</rscale>
<asrwt>0</asrwt>
<pdfrwt beam="1">  1       21 0.31368625E-01 0.47628857E+03</pdfrwt>
<pdfrwt beam="2">  1       21 0.26075216E+00 0.47628857E+03</pdfrwt>
<totfact> 0.44667978E+02</totfact>
</mgrwt>
</event>
<event>
 4    1  0.4656822E-002  0.4722590E+03  0.7818608E-02  0.1021285E+00
         21   -1    0    0  503  502  0.00000000000E+00  0.00000000000E+00  0.69618272563E+03  0.69618272563E+03  0.00000000000E+00 0. -1.
         21   -1    0    0  501  503 -0.00000000000E+00 -0.00000000000E+00 -0.46075375185E+03  0.46075375185E+03  0.00000000000E+00 0. -1.
    9000007    1    1    2  501    0 -0.11605343475E+03  0.22262101650E+03 -0.20160120406E+03  0.51348959307E+03  0.40000000000E+03 0. -1.
   -9000007    1    1    2    0  502  0.11605343475E+03 -0.22262101650E+03  0.43703017785E+03  0.64344688441E+03  0.40000000000E+03 0. -1.
<mgrwt>
<rscale>  2 0.47225895E+03</rscale>
<asrwt>0</asrwt>
<pdfrwt beam="1">  1       21 0.10710503E+00 0.47225895E+03</pdfrwt>
<pdfrwt beam="2">  1       21 0.70885193E-01 0.47225895E+03</pdfrwt>
<totfact> 0.10586541E+03</totfact>
</mgrwt>
</event>
<event>
 4    1  0.4656822E-002  0.5142705E+03  0.7818608E-02  0.1010120E+00
         21   -1    0    0  501  502  0.00000000000E+00  0.00000000000E+00  0.66063645802E+03  0.66063645802E+03  0.00000000000E+00 0.  1.
         21   -1    0    0  502  503 -0.00000000000E+00 -0.00000000000E+00 -0.50376307596E+03  0.50376307596E+03  0.00000000000E+00 0.  1.
    9000007    1    1    2  501    0 -0.13106749461E+03  0.29545804901E+03  0.34224206851E+03  0.61774086827E+03  0.40000000000E+03 0.  1.
   -9000007    1    1    2    0  503  0.13106749461E+03 -0.29545804901E+03 -0.18536868645E+03  0.54665866570E+03  0.40000000000E+03 0.  1.
<mgrwt>
<rscale>  2 0.51427050E+03</rscale>
<asrwt>0</asrwt>
<pdfrwt beam="1">  1       21 0.10163638E+00 0.51427050E+03</pdfrwt>
<pdfrwt beam="2">  1       21 0.77502011E-01 0.51427050E+03</pdfrwt>
<totfact> 0.96737944E+02</totfact>
</mgrwt>
</event>
<event>
 4    1  0.4656822E-002  0.4335666E+03  0.7818608E-02  0.1032739E+00
         21   -1    0    0  503  502  0.00000000000E+00  0.00000000000E+00  0.11916578345E+04  0.11916578345E+04  0.00000000000E+00 0.  1.
         21   -1    0    0  501  503 -0.00000000000E+00 -0.00000000000E+00 -0.17956687796E+03  0.17956687796E+03  0.00000000000E+00 0.  1.
    9000007    1    1    2  501    0 -0.14578974360E+03  0.82008042422E+02  0.26704669630E+03  0.50920909886E+03  0.40000000000E+03 0.  1.
   -9000007    1    1    2    0  502  0.14578974360E+03 -0.82008042422E+02  0.74504426027E+03  0.86201561362E+03  0.40000000000E+03 0.  1.
<mgrwt>
<rscale>  2 0.43356657E+03</rscale>
<asrwt>0</asrwt>
<pdfrwt beam="1">  1       21 0.18333197E+00 0.43356657E+03</pdfrwt>
<pdfrwt beam="2">  1       21 0.27625674E-01 0.43356657E+03</pdfrwt>
<totfact> 0.18448841E+03</totfact>
</mgrwt>
</event>
<event>
 4    1  0.4656822E-002  0.6350300E+03  0.7818608E-02  0.9835282E-01
         21   -1    0    0  503  502  0.00000000000E+00  0.00000000000E+00  0.20680651200E+04  0.20680651200E+04  0.00000000000E+00 0.  1.
         21   -1    0    0  501  503 -0.00000000000E+00 -0.00000000000E+00 -0.34963271067E+03  0.34963271067E+03  0.00000000000E+00 0. -1.
    9000007    1    1    2  501    0  0.42302707126E+03 -0.25359646680E+03  0.55276980794E+02  0.63743126343E+03  0.40000000000E+03 0. -1.
   -9000007    1    1    2    0  502 -0.42302707126E+03  0.25359646680E+03  0.16631554285E+04  0.17802665672E+04  0.40000000000E+03 0.  1.
<mgrwt>
<rscale>  2 0.63502998E+03</rscale>
<asrwt>0</asrwt>
<pdfrwt beam="1">  1       21 0.31816386E+00 0.63502998E+03</pdfrwt>
<pdfrwt beam="2">  1       21 0.53789649E-01 0.63502998E+03</pdfrwt>
<totfact> 0.60291208E+01</totfact>
</mgrwt>
</event>
<event>
 4    1  0.4656822E-002  0.4269958E+03  0.7818608E-02  0.1034813E+00
         21   -1    0    0  501  502  0.00000000000E+00  0.00000000000E+00  0.43216982983E+03  0.43216982983E+03  0.00000000000E+00 0. -1.
         21   -1    0    0  502  503 -0.00000000000E+00 -0.00000000000E+00 -0.50045384110E+03  0.50045384110E+03  0.00000000000E+00 0. -1.
    9000007    1    1    2  501    0  0.80473228272E+02  0.12589475541E+03  0.15062441431E+03  0.45278377190E+03  0.40000000000E+03 0. -1.
   -9000007    1    1    2    0  503 -0.80473228272E+02 -0.12589475541E+03 -0.21890842558E+03  0.47983989903E+03  0.40000000000E+03 0. -1.
<mgrwt>
<rscale>  2 0.42699582E+03</rscale>
<asrwt>0</asrwt>
<pdfrwt beam="1">  1       21 0.66487667E-01 0.42699582E+03</pdfrwt>
<pdfrwt beam="2">  1       21 0.76992898E-01 0.42699582E+03</pdfrwt>
<totfact> 0.27257231E+03</totfact>
</mgrwt>
</event>
<event>
 4    1  0.4656822E-002  0.4707813E+03  0.7818608E-02  0.1021700E+00
         21   -1    0    0  503  502  0.00000000000E+00  0.00000000000E+00  0.10567694335E+04  0.10567694335E+04  0.00000000000E+00 0.  1.
         21   -1    0    0  501  503 -0.00000000000E+00 -0.00000000000E+00 -0.42249726231E+03  0.42249726231E+03  0.00000000000E+00 0.  1.
    9000007    1    1    2  501    0 -0.47890962066E+02 -0.24360105084E+03 -0.20774162674E+03  0.51457905097E+03  0.40000000000E+03 0.  1.
   -9000007    1    1    2    0  502  0.47890962066E+02  0.24360105084E+03  0.84201379793E+03  0.96468764485E+03  0.40000000000E+03 0.  1.
<mgrwt>
<rscale>  2 0.47078128E+03</rscale>
<asrwt>0</asrwt>
<pdfrwt beam="1">  1       21 0.16257991E+00 0.47078128E+03</pdfrwt>
<pdfrwt beam="2">  1       21 0.64999579E-01 0.47078128E+03</pdfrwt>
<totfact> 0.43106645E+02</totfact>
</mgrwt>
</event>
<event>
 4    1  0.4656822E-002  0.4019958E+03  0.7818608E-02  0.1043091E+00
         21   -1    0    0  503  502  0.00000000000E+00  0.00000000000E+00  0.13319902388E+04  0.13319902388E+04  0.00000000000E+00 0.  1.
         21   -1    0    0  501  503 -0.00000000000E+00 -0.00000000000E+00 -0.29042623427E+03  0.29042623427E+03  0.00000000000E+00 0.  1.
    9000007    1    1    2  501    0 -0.35396207440E+01  0.39850971131E+02 -0.98218205011E+02  0.41382054639E+03  0.40000000000E+03 0.  1.
   -9000007    1    1    2    0  502  0.35396207440E+01 -0.39850971131E+02  0.11397822095E+04  0.12085959267E+04  0.40000000000E+03 0.  1.
<mgrwt>
<rscale>  2 0.40199581E+03</rscale>
<asrwt>0</asrwt>
<pdfrwt beam="1">  1       21 0.20492157E+00 0.40199581E+03</pdfrwt>
<pdfrwt beam="2">  1       21 0.44680960E-01 0.40199581E+03</pdfrwt>
<totfact> 0.50629436E+02</totfact>
</mgrwt>
</event>
<event>
 4    1  0.4656822E-002  0.5872404E+03  0.7818608E-02  0.9932238E-01
         21   -1    0    0  501  502  0.00000000000E+00  0.00000000000E+00  0.36563830372E+03  0.36563830372E+03  0.00000000000E+00 0. -1.
         21   -1    0    0  502  503 -0.00000000000E+00 -0.00000000000E+00 -0.10367716597E+04  0.10367716597E+04  0.00000000000E+00 0.  1.
    9000007    1    1    2  501    0 -0.13315845408E+02  0.42973707296E+03 -0.12485199938E+03  0.60036595954E+03  0.40000000000E+03 0. -1.
   -9000007    1    1    2    0  503  0.13315845408E+02 -0.42973707296E+03 -0.54628135664E+03  0.80204400392E+03  0.40000000000E+03 0.  1.
<mgrwt>
<rscale>  2 0.58724038E+03</rscale>
<asrwt>0</asrwt>
<pdfrwt beam="1">  1       21 0.56252046E-01 0.58724038E+03</pdfrwt>
<pdfrwt beam="2">  1       21 0.15950333E+00 0.58724038E+03</pdfrwt>
<totfact> 0.59719031E+02</totfact>
</mgrwt>
</event>
<event>
 4    1  0.4656822E-002  0.4587404E+03  0.7818608E-02  0.1025147E+00
         21   -1    0    0  501  502  0.00000000000E+00  0.00000000000E+00  0.39241916356E+03  0.39241916356E+03  0.00000000000E+00 0.  1.
         21   -1    0    0  502  503 -0.00000000000E+00 -0.00000000000E+00 -0.53865121699E+03  0.53865121699E+03  0.00000000000E+00 0. -1.
    9000007    1    1    2  501    0 -0.19737558176E+03  0.10717126446E+03 -0.10406579662E+03  0.47039609929E+03  0.40000000000E+03 0.  1.
   -9000007    1    1    2    0  503  0.19737558176E+03 -0.10717126446E+03 -0.42166256822E+02  0.46067428126E+03  0.40000000000E+03 0. -1.
<mgrwt>
<rscale>  2 0.45874045E+03</rscale>
<asrwt>0</asrwt>
<pdfrwt beam="1">  1       21 0.60372179E-01 0.45874045E+03</pdfrwt>
<pdfrwt beam="2">  1       21 0.82869418E-01 0.45874045E+03</pdfrwt>
<totfact> 0.28144593E+03</totfact>
</mgrwt>
</event>
<event>
 4    1  0.4656822E-002  0.4337710E+03  0.7818608E-02  0.1032675E+00
         21   -1    0    0  501  502  0.00000000000E+00  0.00000000000E+00  0.13870220304E+04  0.13870220304E+04  0.00000000000E+00 0.  1.
         21   -1    0    0  502  503 -0.00000000000E+00 -0.00000000000E+00 -0.17970331129E+03  0.17970331129E+03  0.00000000000E+00 0. -1.
    9000007    1    1    2  501    0  0.60853427543E+02  0.15637807748E+03  0.99149411942E+03  0.10822281791E+04  0.40000000000E+03 0.  1.
   -9000007    1    1    2    0  503 -0.60853427543E+02 -0.15637807748E+03  0.21582459972E+03  0.48449716264E+03  0.40000000000E+03 0. -1.
<mgrwt>
<rscale>  2 0.43377096E+03</rscale>
<asrwt>0</asrwt>
<pdfrwt beam="1">  1       21 0.21338800E+00 0.43377096E+03</pdfrwt>
<pdfrwt beam="2">  1       21 0.27646664E-01 0.43377096E+03</pdfrwt>
<totfact> 0.11589381E+03</totfact>
</mgrwt>
</event>
<event>
 4    1  0.4656822E-002  0.4131801E+03  0.7818608E-02  0.1039309E+00
         21   -1    0    0  501  502  0.00000000000E+00  0.00000000000E+00  0.66302971046E+03  0.66302971046E+03  0.00000000000E+00 0.  1.
         21   -1    0    0  502  503 -0.00000000000E+00 -0.00000000000E+00 -0.32458744913E+03  0.32458744913E+03  0.00000000000E+00 0.  1.
    9000007    1    1    2  501    0 -0.92832877448E+02  0.45823774827E+02 -0.55308613498E+02  0.41686545096E+03  0.40000000000E+03 0.  1.
   -9000007    1    1    2    0  503  0.92832877448E+02 -0.45823774827E+02  0.39375087483E+03  0.57075170863E+03  0.40000000000E+03 0.  1.
<mgrwt>
<rscale>  2 0.41318006E+03</rscale>
<asrwt>0</asrwt>
<pdfrwt beam="1">  1       21 0.10200457E+00 0.41318006E+03</pdfrwt>
<pdfrwt beam="2">  1       21 0.49936531E-01 0.41318006E+03</pdfrwt>
<totfact> 0.26296833E+03</totfact>
</mgrwt>
</event>
<event>
 4    1  0.4656822E-002  0.4823561E+03  0.7818608E-02  0.1018490E+00
         21   -1    0    0  501  502  0.00000000000E+00  0.00000000000E+00  0.25122507577E+03  0.25122507577E+03  0.00000000000E+00 0. -1.
         21   -1    0    0  502  503 -0.00000000000E+00 -0.00000000000E+00 -0.95502461925E+03  0.95502461925E+03  0.00000000000E+00 0.  1.
    9000007    1    1    2  501    0 -0.11316577116E+03 -0.24466483521E+03 -0.24699393975E+03  0.54191639542E+03  0.40000000000E+03 0. -1.
   -9000007    1    1    2    0  503  0.11316577116E+03  0.24466483521E+03 -0.45680560374E+03  0.66433329960E+03  0.40000000000E+03 0.  1.
<mgrwt>
<rscale>  2 0.48235606E+03</rscale>
<asrwt>0</asrwt>
<pdfrwt beam="1">  1       21 0.38650011E-01 0.48235606E+03</pdfrwt>
<pdfrwt beam="2">  1       21 0.14692687E+00 0.48235606E+03</pdfrwt>
<totfact> 0.17187395E+03</totfact>
</mgrwt>
</event>
<event>
 4    1  0.4656822E-002  0.4729435E+03  0.7818608E-02  0.1021093E+00
         21   -1    0    0  501  502  0.00000000000E+00  0.00000000000E+00  0.29583707174E+03  0.29583707174E+03  0.00000000000E+00 0.  1.
         21   -1    0    0  502  503 -0.00000000000E+00 -0.00000000000E+00 -0.78948917812E+03  0.78948917812E+03  0.00000000000E+00 0.  1.
    9000007    1    1    2  501    0  0.24172808884E+03 -0.72409427763E+02 -0.35846349290E+03  0.59344053612E+03  0.40000000000E+03 0.  1.
   -9000007    1    1    2    0  503 -0.24172808884E+03  0.72409427763E+02 -0.13518861348E+03  0.49188571374E+03  0.40000000000E+03 0.  1.
<mgrwt>
<rscale>  2 0.47294354E+03</rscale>
<asrwt>0</asrwt>
<pdfrwt beam="1">  1       21 0.45513396E-01 0.47294354E+03</pdfrwt>
<pdfrwt beam="2">  1       21 0.12145987E+00 0.47294354E+03</pdfrwt>
<totfact> 0.20246420E+03</totfact>
</mgrwt>
</event>
<event>
 4    1  0.4656822E-002  0.6768641E+03  0.7818608E-02  0.9757637E-01
         21   -1    0    0  503  502  0.00000000000E+00  0.00000000000E+00  0.34380310945E+03  0.34380310945E+03  0.00000000000E+00 0. -1.
         21   -1    0    0  501  503 -0.00000000000E+00 -0.00000000000E+00 -0.13380194192E+04  0.13380194192E+04  0.00000000000E+00 0. -1.
    9000007    1    1    2  501    0 -0.23724468802E+03  0.49179255020E+03 -0.55072702458E+03  0.87260827983E+03  0.40000000000E+03 0. -1.
   -9000007    1    1    2    0  502  0.23724468802E+03 -0.49179255020E+03 -0.44348928516E+03  0.80921424881E+03  0.40000000000E+03 0. -1.
<mgrwt>
<rscale>  2 0.67686406E+03</rscale>
<asrwt>0</asrwt>
<pdfrwt beam="1">  1       21 0.52892787E-01 0.67686406E+03</pdfrwt>
<pdfrwt beam="2">  1       21 0.20584914E+00 0.67686406E+03</pdfrwt>
<totfact> 0.31022788E+02</totfact>
</mgrwt>
</event>
<event>
 4    1  0.4656822E-002  0.4583572E+03  0.7818608E-02  0.1025259E+00
         21   -1    0    0  503  502  0.00000000000E+00  0.00000000000E+00  0.15302271034E+04  0.15302271034E+04  0.00000000000E+00 0.  1.
         21   -1    0    0  501  503 -0.00000000000E+00 -0.00000000000E+00 -0.44695288732E+03  0.44695288732E+03  0.00000000000E+00 0.  1.
    9000007    1    1    2  501    0 -0.21382236670E+03  0.66115885776E+02 -0.28122481742E+03  0.53775339402E+03  0.40000000000E+03 0.  1.
   -9000007    1    1    2    0  502  0.21382236670E+03 -0.66115885776E+02  0.13644990335E+04  0.14394265967E+04  0.40000000000E+03 0.  1.
<mgrwt>
<rscale>  2 0.45835719E+03</rscale>
<asrwt>0</asrwt>
<pdfrwt beam="1">  1       21 0.23541955E+00 0.45835719E+03</pdfrwt>
<pdfrwt beam="2">  1       21 0.68761983E-01 0.45835719E+03</pdfrwt>
<totfact> 0.12327462E+02</totfact>
</mgrwt>
</event>
<event>
 4    1  0.4656822E-002  0.4296781E+03  0.7818608E-02  0.1033962E+00
         21   -1    0    0  501  502  0.00000000000E+00  0.00000000000E+00  0.56276994521E+03  0.56276994521E+03  0.00000000000E+00 0. -1.
         21   -1    0    0  502  503 -0.00000000000E+00 -0.00000000000E+00 -0.35688145602E+03  0.35688145602E+03  0.00000000000E+00 0. -1.
    9000007    1    1    2  501    0  0.39666473364E+02  0.15182166652E+03  0.23361446784E+03  0.48907971448E+03  0.40000000000E+03 0. -1.
   -9000007    1    1    2    0  503 -0.39666473364E+02 -0.15182166652E+03 -0.27725978652E+02  0.43057168674E+03  0.40000000000E+03 0. -1.
<mgrwt>
<rscale>  2 0.42967807E+03</rscale>
<asrwt>0</asrwt>
<pdfrwt beam="1">  1       21 0.86579991E-01 0.42967807E+03</pdfrwt>
<pdfrwt beam="2">  1       21 0.54904840E-01 0.42967807E+03</pdfrwt>
<totfact> 0.31560871E+03</totfact>
</mgrwt>
</event>
<event>
 4    1  0.4656822E-002  0.4482088E+03  0.7818608E-02  0.1028258E+00
         21   -1    0    0  503  502  0.00000000000E+00  0.00000000000E+00  0.13034621163E+03  0.13034621163E+03  0.00000000000E+00 0.  1.
         21   -1    0    0  501  503 -0.00000000000E+00 -0.00000000000E+00 -0.16294132518E+04  0.16294132518E+04  0.00000000000E+00 0. -1.
    9000007    1    1    2  501    0 -0.10897171036E+03 -0.17034165968E+03 -0.95424662656E+03  0.10542664459E+04  0.40000000000E+03 0. -1.
   -9000007    1    1    2    0  502  0.10897171036E+03  0.17034165968E+03 -0.54482041364E+03  0.70549301754E+03  0.40000000000E+03 0.  1.
<mgrwt>
<rscale>  2 0.44820878E+03</rscale>
<asrwt>0</asrwt>
<pdfrwt beam="1">  1       21 0.20053262E-01 0.44820878E+03</pdfrwt>
<pdfrwt beam="2">  1       21 0.25067898E+00 0.44820878E+03</pdfrwt>
<totfact> 0.12489742E+03</totfact>
</mgrwt>
</event>
<event>
 4    1  0.4656822E-002  0.4624222E+03  0.7818608E-02  0.1024081E+00
         21   -1    0    0  503  502  0.00000000000E+00  0.00000000000E+00  0.40867727367E+03  0.40867727367E+03  0.00000000000E+00 0. -1.
         21   -1    0    0  501  503 -0.00000000000E+00 -0.00000000000E+00 -0.13349828547E+04  0.13349828547E+04  0.00000000000E+00 0.  1.
    9000007    1    1    2  501    0  0.22723602196E+03 -0.46883798861E+02 -0.11429893896E+04  0.12329878527E+04  0.40000000000E+03 0.  1.
   -9000007    1    1    2    0  502 -0.22723602196E+03  0.46883798861E+02  0.21668380852E+03  0.51067227568E+03  0.40000000000E+03 0. -1.
<mgrwt>
<rscale>  2 0.46242221E+03</rscale>
<asrwt>0</asrwt>
<pdfrwt beam="1">  1       21 0.62873426E-01 0.46242221E+03</pdfrwt>
<pdfrwt beam="2">  1       21 0.20538198E+00 0.46242221E+03</pdfrwt>
<totfact> 0.23384765E+02</totfact>
</mgrwt>
</event>
<event>
 4    1  0.4656822E-002  0.4732252E+03  0.7818608E-02  0.1021014E+00
         21   -1    0    0  501  502  0.00000000000E+00  0.00000000000E+00  0.22947681286E+03  0.22947681286E+03  0.00000000000E+00 0.  1.
         21   -1    0    0  502  503 -0.00000000000E+00 -0.00000000000E+00 -0.15858822436E+04  0.15858822436E+04  0.00000000000E+00 0.  1.
    9000007    1    1    2  501    0 -0.46157771873E+01 -0.25282562104E+03 -0.11526237315E+03  0.48706007301E+03  0.40000000000E+03 0.  1.
   -9000007    1    1    2    0  503  0.46157771873E+01  0.25282562104E+03 -0.12411430576E+04  0.13282989834E+04  0.40000000000E+03 0.  1.
<mgrwt>
<rscale>  2 0.47322521E+03</rscale>
<asrwt>0</asrwt>
<pdfrwt beam="1">  1       21 0.35304124E-01 0.47322521E+03</pdfrwt>
<pdfrwt beam="2">  1       21 0.24398189E+00 0.47322521E+03</pdfrwt>
<totfact> 0.44707841E+02</totfact>
</mgrwt>
</event>
<event>
 4    1  0.4656822E-002  0.5266877E+03  0.7818608E-02  0.1007039E+00
         21   -1    0    0  503  502  0.00000000000E+00  0.00000000000E+00  0.12693197962E+04  0.12693197962E+04  0.00000000000E+00 0. -1.
         21   -1    0    0  501  503 -0.00000000000E+00 -0.00000000000E+00 -0.48147739524E+03  0.48147739524E+03  0.00000000000E+00 0. -1.
    9000007    1    1    2  501    0 -0.31800745876E+03  0.12755860887E+03 -0.25298640132E+03  0.58429621065E+03  0.40000000000E+03 0. -1.
   -9000007    1    1    2    0  502  0.31800745876E+03 -0.12755860887E+03  0.10408288023E+04  0.11665009808E+04  0.40000000000E+03 0. -1.
<mgrwt>
<rscale>  2 0.52668771E+03</rscale>
<asrwt>0</asrwt>
<pdfrwt beam="1">  1       21 0.19527997E+00 0.52668771E+03</pdfrwt>
<pdfrwt beam="2">  1       21 0.74073446E-01 0.52668771E+03</pdfrwt>
<totfact> 0.18325756E+02</totfact>
</mgrwt>
</event>
<event>
 4    1  0.4656822E-002  0.5889503E+03  0.7818608E-02  0.9928600E-01
         21   -1    0    0  503  502  0.00000000000E+00  0.00000000000E+00  0.24469489248E+04  0.24469489248E+04  0.00000000000E+00 0.  1.
         21   -1    0    0  501  503 -0.00000000000E+00 -0.00000000000E+00 -0.14312045625E+03  0.14312045625E+03  0.00000000000E+00 0. -1.
    9000007    1    1    2  501    0 -0.14098798265E+03  0.40863781293E+03  0.10253300873E+04  0.11824399609E+04  0.40000000000E+03 0.  1.
   -9000007    1    1    2    0  502  0.14098798265E+03 -0.40863781293E+03  0.12784983813E+04  0.14076294202E+04  0.40000000000E+03 0. -1.
<mgrwt>
<rscale>  2 0.58895031E+03</rscale>
<asrwt>0</asrwt>
<pdfrwt beam="1">  1       21 0.37645365E+00 0.58895031E+03</pdfrwt>
<pdfrwt beam="2">  1       21 0.22018534E-01 0.58895031E+03</pdfrwt>
<totfact> 0.16538929E+02</totfact>
</mgrwt>
</event>
<event>
 4    1  0.4656822E-002  0.4458048E+03  0.7818608E-02  0.1028981E+00
         21   -1    0    0  501  502  0.00000000000E+00  0.00000000000E+00  0.36813318524E+03  0.36813318524E+03  0.00000000000E+00 0. -1.
         21   -1    0    0  502  503 -0.00000000000E+00 -0.00000000000E+00 -0.78026627868E+03  0.78026627868E+03  0.00000000000E+00 0. -1.
    9000007    1    1    2  501    0 -0.74305321225E+02  0.18226528707E+03  0.11265447200E+03  0.45981838338E+03  0.40000000000E+03 0. -1.
   -9000007    1    1    2    0  503  0.74305321225E+02 -0.18226528707E+03 -0.52478756544E+03  0.68858108054E+03  0.40000000000E+03 0. -1.
<mgrwt>
<rscale>  2 0.44580480E+03</rscale>
<asrwt>0</asrwt>
<pdfrwt beam="1">  1       21 0.56635875E-01 0.44580480E+03</pdfrwt>
<pdfrwt beam="2">  1       21 0.12004096E+00 0.44580480E+03</pdfrwt>
<totfact> 0.13223443E+03</totfact>
</mgrwt>
</event>
<event>
 4    1  0.4656822E-002  0.4048008E+03  0.7818608E-02  0.1042130E+00
         21   -1    0    0  501  502  0.00000000000E+00  0.00000000000E+00  0.57701859082E+03  0.57701859082E+03  0.00000000000E+00 0. -1.
         21   -1    0    0  502  503 -0.00000000000E+00 -0.00000000000E+00 -0.32435767664E+03  0.32435767664E+03  0.00000000000E+00 0. -1.
    9000007    1    1    2  501    0  0.54049623766E+02  0.30697132565E+02  0.28533760512E+03  0.49525874517E+03  0.40000000000E+03 0. -1.
   -9000007    1    1    2    0  503 -0.54049623766E+02 -0.30697132565E+02 -0.32676690935E+02  0.40611752229E+03  0.40000000000E+03 0. -1.
<mgrwt>
<rscale>  2 0.40480079E+03</rscale>
<asrwt>0</asrwt>
<pdfrwt beam="1">  1       21 0.88772091E-01 0.40480079E+03</pdfrwt>
<pdfrwt beam="2">  1       21 0.49901181E-01 0.40480079E+03</pdfrwt>
<totfact> 0.36850573E+03</totfact>
</mgrwt>
</event>
<event>
 4    1  0.4656822E-002  0.4892069E+03  0.7818608E-02  0.1016635E+00
         21   -1    0    0  503  502  0.00000000000E+00  0.00000000000E+00  0.23602414865E+03  0.23602414865E+03  0.00000000000E+00 0. -1.
         21   -1    0    0  501  503 -0.00000000000E+00 -0.00000000000E+00 -0.10186868302E+04  0.10186868302E+04  0.00000000000E+00 0.  1.
    9000007    1    1    2  501    0  0.27979439996E+03  0.32225473579E+02 -0.34868010056E+03  0.60075053052E+03  0.40000000000E+03 0.  1.
   -9000007    1    1    2    0  502 -0.27979439996E+03 -0.32225473579E+02 -0.43398258103E+03  0.65396044837E+03  0.40000000000E+03 0.  1.
<mgrwt>
<rscale>  2 0.48920690E+03</rscale>
<asrwt>0</asrwt>
<pdfrwt beam="1">  1       21 0.36311407E-01 0.48920690E+03</pdfrwt>
<pdfrwt beam="2">  1       21 0.15672105E+00 0.48920690E+03</pdfrwt>
<totfact> 0.16325702E+03</totfact>
</mgrwt>
</event>
<event>
 4    1  0.4656822E-002  0.5102311E+03  0.7818608E-02  0.1011142E+00
         21   -1    0    0  501  502  0.00000000000E+00  0.00000000000E+00  0.51131989220E+03  0.51131989220E+03  0.00000000000E+00 0.  1.
         21   -1    0    0  502  503 -0.00000000000E+00 -0.00000000000E+00 -0.69517290876E+03  0.69517290876E+03  0.00000000000E+00 0.  1.
    9000007    1    1    2  501    0 -0.25094460388E+03  0.19329403856E+03  0.22013327203E+03  0.55569275415E+03  0.40000000000E+03 0.  1.
   -9000007    1    1    2    0  503  0.25094460388E+03 -0.19329403856E+03 -0.40398628859E+03  0.65080004681E+03  0.40000000000E+03 0.  1.
<mgrwt>
<rscale>  2 0.51023110E+03</rscale>
<asrwt>0</asrwt>
<pdfrwt beam="1">  1       21 0.78664600E-01 0.51023110E+03</pdfrwt>
<pdfrwt beam="2">  1       21 0.10694968E+00 0.51023110E+03</pdfrwt>
<totfact> 0.82554176E+02</totfact>
</mgrwt>
</event>
<event>
 4    1  0.4656822E-002  0.4537607E+03  0.7818608E-02  0.1026606E+00
         21   -1    0    0  501  502  0.00000000000E+00  0.00000000000E+00  0.18314450593E+03  0.18314450593E+03  0.00000000000E+00 0. -1.
         21   -1    0    0  502  503 -0.00000000000E+00 -0.00000000000E+00 -0.11394299352E+04  0.11394299352E+04  0.00000000000E+00 0. -1.
    9000007    1    1    2  501    0 -0.40344266202E+02 -0.21040709768E+03 -0.40179589879E+03  0.60608477201E+03  0.40000000000E+03 0.  1.
   -9000007    1    1    2    0  503  0.40344266202E+02  0.21040709768E+03 -0.55448953049E+03  0.71648966915E+03  0.40000000000E+03 0.  1.
<mgrwt>
<rscale>  2 0.45376074E+03</rscale>
<asrwt>0</asrwt>
<pdfrwt beam="1">  1       21 0.28176077E-01 0.45376074E+03</pdfrwt>
<pdfrwt beam="2">  1       21 0.17529692E+00 0.45376074E+03</pdfrwt>
<totfact> 0.20052148E+03</totfact>
</mgrwt>
</event>
<event>
 4    1  0.4656822E-002  0.5340576E+03  0.7818608E-02  0.1005253E+00
         21   -1    0    0  503  502  0.00000000000E+00  0.00000000000E+00  0.67039340719E+03  0.67039340719E+03  0.00000000000E+00 0.  1.
         21   -1    0    0  501  503 -0.00000000000E+00 -0.00000000000E+00 -0.47415627428E+03  0.47415627428E+03  0.00000000000E+00 0.  1.
    9000007    1    1    2  501    0  0.72282345917E+02 -0.34639969292E+03  0.28153810776E+03  0.60372277653E+03  0.40000000000E+03 0.  1.
   -9000007    1    1    2    0  502 -0.72282345917E+02  0.34639969292E+03 -0.85300974851E+02  0.54082690493E+03  0.40000000000E+03 0.  1.
<mgrwt>
<rscale>  2 0.53405757E+03</rscale>
<asrwt>0</asrwt>
<pdfrwt beam="1">  1       21 0.10313745E+00 0.53405757E+03</pdfrwt>
<pdfrwt beam="2">  1       21 0.72947119E-01 0.53405757E+03</pdfrwt>
<totfact> 0.10646428E+03</totfact>
</mgrwt>
</event>
<event>
 4    1  0.4656822E-002  0.4365996E+03  0.7818608E-02  0.1031795E+00
         21   -1    0    0  503  502  0.00000000000E+00  0.00000000000E+00  0.18956898714E+03  0.18956898714E+03  0.00000000000E+00 0.  1.
         21   -1    0    0  501  503 -0.00000000000E+00 -0.00000000000E+00 -0.14980747182E+04  0.14980747182E+04  0.00000000000E+00 0. -1.
    9000007    1    1    2  501    0 -0.16364679458E+03 -0.61959479541E+02 -0.11380934970E+04  0.12189651588E+04  0.40000000000E+03 0. -1.
   -9000007    1    1    2    0  502  0.16364679458E+03  0.61959479541E+02 -0.17041223409E+03  0.46867854656E+03  0.40000000000E+03 0.  1.
<mgrwt>
<rscale>  2 0.43659965E+03</rscale>
<asrwt>0</asrwt>
<pdfrwt beam="1">  1       21 0.29164458E-01 0.43659965E+03</pdfrwt>
<pdfrwt beam="2">  1       21 0.23047305E+00 0.43659965E+03</pdfrwt>
<totfact> 0.81074343E+02</totfact>
</mgrwt>
</event>
<event>
 4    1  0.4656822E-002  0.4534906E+03  0.7818608E-02  0.1026686E+00
         21   -1    0    0  503  502  0.00000000000E+00  0.00000000000E+00  0.17249267661E+04  0.17249267661E+04  0.00000000000E+00 0.  1.
         21   -1    0    0  501  503 -0.00000000000E+00 -0.00000000000E+00 -0.32206617085E+03  0.32206617085E+03  0.00000000000E+00 0.  1.
    9000007    1    1    2  501    0  0.21204300032E+03 -0.26295867964E+02 -0.11082447964E+03  0.46683591544E+03  0.40000000000E+03 0.  1.
   -9000007    1    1    2    0  502 -0.21204300032E+03  0.26295867964E+02  0.15136850749E+04  0.15801570215E+04  0.40000000000E+03 0.  1.
<mgrwt>
<rscale>  2 0.45349058E+03</rscale>
<asrwt>0</asrwt>
<pdfrwt beam="1">  1       21 0.26537334E+00 0.45349058E+03</pdfrwt>
<pdfrwt beam="2">  1       21 0.49548643E-01 0.45349058E+03</pdfrwt>
<totfact> 0.16542008E+02</totfact>
</mgrwt>
</event>
<event>
 4    1  0.4656822E-002  0.4081636E+03  0.7818608E-02  0.1040989E+00
         21   -1    0    0  503  502  0.00000000000E+00  0.00000000000E+00  0.57601616457E+03  0.57601616457E+03  0.00000000000E+00 0.  1.
         21   -1    0    0  501  503 -0.00000000000E+00 -0.00000000000E+00 -0.32666583545E+03  0.32666583545E+03  0.00000000000E+00 0.  1.
    9000007    1    1    2  501    0  0.40810431308E+02  0.70228306811E+02 -0.28128382323E+02  0.40913165641E+03  0.40000000000E+03 0.  1.
   -9000007    1    1    2    0  502 -0.40810431308E+02 -0.70228306811E+02  0.27747871144E+03  0.49355034362E+03  0.40000000000E+03 0.  1.
<mgrwt>
<rscale>  2 0.40816358E+03</rscale>
<asrwt>0</asrwt>
<pdfrwt beam="1">  1       21 0.88617871E-01 0.40816358E+03</pdfrwt>
<pdfrwt beam="2">  1       21 0.50256283E-01 0.40816358E+03</pdfrwt>
<totfact> 0.36401097E+03</totfact>
</mgrwt>
</event>
<event>
 4    1  0.4656822E-002  0.4170754E+03  0.7818608E-02  0.1038022E+00
         21   -1    0    0  501  502  0.00000000000E+00  0.00000000000E+00  0.57791688066E+03  0.57791688066E+03  0.00000000000E+00 0. -1.
         21   -1    0    0  502  503 -0.00000000000E+00 -0.00000000000E+00 -0.48949316688E+03  0.48949316688E+03  0.00000000000E+00 0. -1.
    9000007    1    1    2  501    0 -0.11666806050E+03 -0.18451495362E+02  0.37540241461E+03  0.56114068371E+03  0.40000000000E+03 0. -1.
   -9000007    1    1    2    0  503  0.11666806050E+03  0.18451495362E+02 -0.28697870083E+03  0.50626936383E+03  0.40000000000E+03 0. -1.
<mgrwt>
<rscale>  2 0.41707541E+03</rscale>
<asrwt>0</asrwt>
<pdfrwt beam="1">  1       21 0.88910290E-01 0.41707541E+03</pdfrwt>
<pdfrwt beam="2">  1       21 0.75306641E-01 0.41707541E+03</pdfrwt>
<totfact> 0.14794988E+03</totfact>
</mgrwt>
</event>
<event>
 4    1  0.4656822E-002  0.4557752E+03  0.7818608E-02  0.1026014E+00
         21   -1    0    0  501  502  0.00000000000E+00  0.00000000000E+00  0.86701651138E+03  0.86701651138E+03  0.00000000000E+00 0.  1.
         21   -1    0    0  502  503 -0.00000000000E+00 -0.00000000000E+00 -0.83086399727E+03  0.83086399727E+03  0.00000000000E+00 0.  1.
    9000007    1    1    2  501    0 -0.54337619809E+02 -0.21160922320E+03  0.73422867885E+03  0.86418909569E+03  0.40000000000E+03 0.  1.
   -9000007    1    1    2    0  503  0.54337619809E+02  0.21160922320E+03 -0.69807616474E+03  0.83369141296E+03  0.40000000000E+03 0.  1.
<mgrwt>
<rscale>  2 0.45577521E+03</rscale>
<asrwt>0</asrwt>
<pdfrwt beam="1">  1       21 0.13338716E+00 0.45577521E+03</pdfrwt>
<pdfrwt beam="2">  1       21 0.12782523E+00 0.45577521E+03</pdfrwt>
<totfact> 0.14770977E+02</totfact>
</mgrwt>
</event>
<event>
 4    1  0.4656822E-002  0.4994288E+03  0.7818608E-02  0.1013928E+00
         21   -1    0    0  503  502  0.00000000000E+00  0.00000000000E+00  0.31941431614E+03  0.31941431614E+03  0.00000000000E+00 0.  1.
         21   -1    0    0  501  503 -0.00000000000E+00 -0.00000000000E+00 -0.11462465473E+04  0.11462465473E+04  0.00000000000E+00 0. -1.
    9000007    1    1    2  501    0  0.29506265369E+03  0.48653921220E+02 -0.82714868152E+03  0.96623191574E+03  0.40000000000E+03 0. -1.
   -9000007    1    1    2    0  502 -0.29506265369E+03 -0.48653921220E+02  0.31645037216E+00  0.49942894770E+03  0.40000000000E+03 0.  1.
<mgrwt>
<rscale>  2 0.49942885E+03</rscale>
<asrwt>0</asrwt>
<pdfrwt beam="1">  1       21 0.49140664E-01 0.49942885E+03</pdfrwt>
<pdfrwt beam="2">  1       21 0.17634562E+00 0.49942885E+03</pdfrwt>
<totfact> 0.62002023E+02</totfact>
</mgrwt>
</event>
<event>
 4    1  0.4656822E-002  0.5227534E+03  0.7818608E-02  0.1008005E+00
         21   -1    0    0  501  502  0.00000000000E+00  0.00000000000E+00  0.12412252618E+03  0.12412252618E+03  0.00000000000E+00 0.  1.
         21   -1    0    0  502  503 -0.00000000000E+00 -0.00000000000E+00 -0.27008898353E+04  0.27008898353E+04  0.00000000000E+00 0.  1.
    9000007    1    1    2  501    0 -0.25250034631E+03  0.22251901418E+03 -0.68108428273E+03  0.85857261588E+03  0.40000000000E+03 0.  1.
   -9000007    1    1    2    0  503  0.25250034631E+03 -0.22251901418E+03 -0.18956830264E+04  0.19664397456E+04  0.40000000000E+03 0.  1.
<mgrwt>
<rscale>  2 0.52275342E+03</rscale>
<asrwt>0</asrwt>
<pdfrwt beam="1">  1       21 0.19095775E-01 0.52275342E+03</pdfrwt>
<pdfrwt beam="2">  1       21 0.41552148E+00 0.52275342E+03</pdfrwt>
<totfact> 0.12627077E+02</totfact>
</mgrwt>
</event>
<event>
 4    1  0.4656822E-002  0.4199649E+03  0.7818608E-02  0.1037078E+00
         21   -1    0    0  501  502  0.00000000000E+00  0.00000000000E+00  0.11428177115E+04  0.11428177115E+04  0.00000000000E+00 0. -1.
         21   -1    0    0  502  503 -0.00000000000E+00 -0.00000000000E+00 -0.21748305027E+03  0.21748305027E+03  0.00000000000E+00 0. -1.
    9000007    1    1    2  501    0 -0.12783664216E+03 -0.53195114990E+01  0.82918175219E+03  0.92946914013E+03  0.40000000000E+03 0. -1.
   -9000007    1    1    2    0  503  0.12783664216E+03  0.53195114990E+01  0.96152909018E+02  0.43083162163E+03  0.40000000000E+03 0. -1.
<mgrwt>
<rscale>  2 0.41996488E+03</rscale>
<asrwt>0</asrwt>
<pdfrwt beam="1">  1       21 0.17581811E+00 0.41996488E+03</pdfrwt>
<pdfrwt beam="2">  1       21 0.33458932E-01 0.41996488E+03</pdfrwt>
<totfact> 0.14326766E+03</totfact>
</mgrwt>
</event>
<event>
 4    1  0.4656822E-002  0.4386606E+03  0.7818608E-02  0.1031159E+00
         21   -1    0    0  503  502  0.00000000000E+00  0.00000000000E+00  0.98599468040E+03  0.98599468040E+03  0.00000000000E+00 0.  1.
         21   -1    0    0  501  503 -0.00000000000E+00 -0.00000000000E+00 -0.26362047746E+03  0.26362047746E+03  0.00000000000E+00 0.  1.
    9000007    1    1    2  501    0 -0.10762712890E+03 -0.14435900741E+03  0.42775956826E+02  0.44074131231E+03  0.40000000000E+03 0.  1.
   -9000007    1    1    2    0  502  0.10762712890E+03  0.14435900741E+03  0.67959824612E+03  0.80887384555E+03  0.40000000000E+03 0.  1.
<mgrwt>
<rscale>  2 0.43866060E+03</rscale>
<asrwt>0</asrwt>
<pdfrwt beam="1">  1       21 0.15169149E+00 0.43866060E+03</pdfrwt>
<pdfrwt beam="2">  1       21 0.40556997E-01 0.43866060E+03</pdfrwt>
<totfact> 0.14525489E+03</totfact>
</mgrwt>
</event>
<event>
 4    1  0.4656822E-002  0.4253767E+03  0.7818608E-02  0.1035330E+00
         21   -1    0    0  501  502  0.00000000000E+00  0.00000000000E+00  0.16654471159E+04  0.16654471159E+04  0.00000000000E+00 0. -1.
         21   -1    0    0  502  503 -0.00000000000E+00 -0.00000000000E+00 -0.10954339931E+03  0.10954339931E+03  0.00000000000E+00 0. -1.
    9000007    1    1    2  501    0  0.12727478730E+03  0.68894387704E+02  0.85824898242E+03  0.95788132039E+03  0.40000000000E+03 0. -1.
   -9000007    1    1    2    0  503 -0.12727478730E+03 -0.68894387704E+02  0.69765473413E+03  0.81710919478E+03  0.40000000000E+03 0. -1.
<mgrwt>
<rscale>  2 0.42537667E+03</rscale>
<asrwt>0</asrwt>
<pdfrwt beam="1">  1       21 0.25622262E+00 0.42537667E+03</pdfrwt>
<pdfrwt beam="2">  1       21 0.16852832E-01 0.42537667E+03</pdfrwt>
<totfact> 0.16220597E+03</totfact>
</mgrwt>
</event>
<event>
 4    1  0.4656822E-002  0.5424249E+03  0.7818608E-02  0.1003263E+00
         21   -1    0    0  501  502  0.00000000000E+00  0.00000000000E+00  0.45267825155E+03  0.45267825155E+03  0.00000000000E+00 0.  1.
         21   -1    0    0  502  503 -0.00000000000E+00 -0.00000000000E+00 -0.69967566636E+03  0.69967566636E+03  0.00000000000E+00 0.  1.
    9000007    1    1    2  501    0  0.34297791845E+03  0.12880583925E+03  0.30081215847E+02  0.54325838817E+03  0.40000000000E+03 0.  1.
   -9000007    1    1    2    0  503 -0.34297791845E+03 -0.12880583925E+03 -0.27707863066E+03  0.60909552973E+03  0.40000000000E+03 0.  1.
<mgrwt>
<rscale>  2 0.54242492E+03</rscale>
<asrwt>0</asrwt>
<pdfrwt beam="1">  1       21 0.69642808E-01 0.54242492E+03</pdfrwt>
<pdfrwt beam="2">  1       21 0.10764241E+00 0.54242492E+03</pdfrwt>
<totfact> 0.10609822E+03</totfact>
</mgrwt>
</event>
<event>
 4    1  0.4656822E-002  0.4190131E+03  0.7818608E-02  0.1037388E+00
         21   -1    0    0  503  502  0.00000000000E+00  0.00000000000E+00  0.87744518107E+03  0.87744518107E+03  0.00000000000E+00 0. -1.
         21   -1    0    0  501  503 -0.00000000000E+00 -0.00000000000E+00 -0.30325263876E+03  0.30325263876E+03  0.00000000000E+00 0. -1.
    9000007    1    1    2  501    0  0.84771494979E+02 -0.91574087012E+02 -0.57220410629E+02  0.42290211062E+03  0.40000000000E+03 0. -1.
   -9000007    1    1    2    0  502 -0.84771494979E+02  0.91574087012E+02  0.63141295294E+03  0.75779570922E+03  0.40000000000E+03 0. -1.
<mgrwt>
<rscale>  2 0.41901315E+03</rscale>
<asrwt>0</asrwt>
<pdfrwt beam="1">  1       21 0.13499157E+00 0.41901315E+03</pdfrwt>
<pdfrwt beam="2">  1       21 0.46654253E-01 0.41901315E+03</pdfrwt>
<totfact> 0.14944162E+03</totfact>
</mgrwt>
</event>
<event>
 4    1  0.4656822E-002  0.4502232E+03  0.7818608E-02  0.1027656E+00
         21   -1    0    0  503  502  0.00000000000E+00  0.00000000000E+00  0.11024925408E+04  0.11024925408E+04  0.00000000000E+00 0. -1.
         21   -1    0    0  501  503 -0.00000000000E+00 -0.00000000000E+00 -0.29908025194E+03  0.29908025194E+03  0.00000000000E+00 0. -1.
    9000007    1    1    2  501    0  0.52780394442E+02  0.19978771776E+03 -0.33266530764E+02  0.45145051143E+03  0.40000000000E+03 0. -1.
   -9000007    1    1    2    0  502 -0.52780394442E+02 -0.19978771776E+03  0.83667881958E+03  0.95012228126E+03  0.40000000000E+03 0. -1.
<mgrwt>
<rscale>  2 0.45022317E+03</rscale>
<asrwt>0</asrwt>
<pdfrwt beam="1">  1       21 0.16961424E+00 0.45022317E+03</pdfrwt>
<pdfrwt beam="2">  1       21 0.46012347E-01 0.45022317E+03</pdfrwt>
<totfact> 0.81415957E+02</totfact>
</mgrwt>
</event>
<event>
 4    1  0.4656822E-002  0.4170290E+03  0.7818608E-02  0.1038038E+00
         21   -1    0    0  503  502  0.00000000000E+00  0.00000000000E+00  0.12950460204E+04  0.12950460204E+04  0.00000000000E+00 0. -1.
         21   -1    0    0  501  503 -0.00000000000E+00 -0.00000000000E+00 -0.17368009019E+03  0.17368009019E+03  0.00000000000E+00 0. -1.
    9000007    1    1    2  501    0  0.98372076788E+02  0.65085477557E+02  0.21096084964E+03  0.46735175720E+03  0.40000000000E+03 0. -1.
   -9000007    1    1    2    0  502 -0.98372076788E+02 -0.65085477557E+02  0.91040508060E+03  0.10013743534E+04  0.40000000000E+03 0. -1.
<mgrwt>
<rscale>  2 0.41702900E+03</rscale>
<asrwt>0</asrwt>
<pdfrwt beam="1">  1       21 0.19923784E+00 0.41702900E+03</pdfrwt>
<pdfrwt beam="2">  1       21 0.26720015E-01 0.41702900E+03</pdfrwt>
<totfact> 0.15464664E+03</totfact>
</mgrwt>
</event>
<event>
 4    1  0.4656822E-002  0.4761029E+03  0.7818608E-02  0.1020212E+00
         21   -1    0    0  501  502  0.00000000000E+00  0.00000000000E+00  0.22096674512E+03  0.22096674512E+03  0.00000000000E+00 0. -1.
         21   -1    0    0  502  503 -0.00000000000E+00 -0.00000000000E+00 -0.13930247674E+04  0.13930247674E+04  0.00000000000E+00 0.  1.
    9000007    1    1    2  501    0 -0.12690153992E+03  0.22487770838E+03 -0.17170418082E+03  0.50611886970E+03  0.40000000000E+03 0. -1.
   -9000007    1    1    2    0  503  0.12690153992E+03 -0.22487770838E+03 -0.10003538414E+04  0.11078726428E+04  0.40000000000E+03 0. -1.
<mgrwt>
<rscale>  2 0.47610291E+03</rscale>
<asrwt>0</asrwt>
<pdfrwt beam="1">  1       21 0.33994883E-01 0.47610291E+03</pdfrwt>
<pdfrwt beam="2">  1       21 0.21431151E+00 0.47610291E+03</pdfrwt>
<totfact> 0.74230045E+02</totfact>
</mgrwt>
</event>
<event>
 4    1  0.4656822E-002  0.4257599E+03  0.7818608E-02  0.1035208E+00
         21   -1    0    0  501  502  0.00000000000E+00  0.00000000000E+00  0.46902391579E+03  0.46902391579E+03  0.00000000000E+00 0.  1.
         21   -1    0    0  502  503 -0.00000000000E+00 -0.00000000000E+00 -0.70497173945E+03  0.70497173945E+03  0.00000000000E+00 0.  1.
    9000007    1    1    2  501    0  0.21444815502E+02  0.14426241579E+03  0.27656980399E+03  0.50770304431E+03  0.40000000000E+03 0.  1.
   -9000007    1    1    2    0  503 -0.21444815502E+02 -0.14426241579E+03 -0.51251762765E+03  0.66629261093E+03  0.40000000000E+03 0.  1.
<mgrwt>
<rscale>  2 0.42575994E+03</rscale>
<asrwt>0</asrwt>
<pdfrwt beam="1">  1       21 0.72157526E-01 0.42575994E+03</pdfrwt>
<pdfrwt beam="2">  1       21 0.10845719E+00 0.42575994E+03</pdfrwt>
<totfact> 0.10050415E+03</totfact>
</mgrwt>
</event>
<event>
 4    1  0.4656822E-002  0.4041743E+03  0.7818608E-02  0.1042344E+00
         21   -1    0    0  501  502  0.00000000000E+00  0.00000000000E+00  0.10908469609E+03  0.10908469609E+03  0.00000000000E+00 0.  1.
         21   -1    0    0  502  503 -0.00000000000E+00 -0.00000000000E+00 -0.15998862117E+04  0.15998862117E+04  0.00000000000E+00 0.  1.
    9000007    1    1    2  501    0  0.57667719802E+02 -0.55942198172E+01 -0.52926247739E+03  0.66593966031E+03  0.40000000000E+03 0.  1.
   -9000007    1    1    2    0  503 -0.57667719802E+02  0.55942198172E+01 -0.96153903820E+03  0.10430312475E+04  0.40000000000E+03 0.  1.
<mgrwt>
<rscale>  2 0.40417430E+03</rscale>
<asrwt>0</asrwt>
<pdfrwt beam="1">  1       21 0.16782262E-01 0.40417430E+03</pdfrwt>
<pdfrwt beam="2">  1       21 0.24613633E+00 0.40417430E+03</pdfrwt>
<totfact> 0.19049152E+03</totfact>
</mgrwt>
</event>
<event>
 4    1  0.4656822E-002  0.4484495E+03  0.7818608E-02  0.1028185E+00
         21   -1    0    0  501  502  0.00000000000E+00  0.00000000000E+00  0.69940749331E+03  0.69940749331E+03  0.00000000000E+00 0. -1.
         21   -1    0    0  502  503 -0.00000000000E+00 -0.00000000000E+00 -0.29313055352E+03  0.29313055352E+03  0.00000000000E+00 0.  1.
    9000007    1    1    2  501    0  0.13805002364E+03 -0.14848953433E+03  0.27167968155E+03  0.52432509019E+03  0.40000000000E+03 0. -1.
   -9000007    1    1    2    0  503 -0.13805002364E+03  0.14848953433E+03  0.13459725824E+03  0.46821295664E+03  0.40000000000E+03 0.  1.
<mgrwt>
<rscale>  2 0.44844950E+03</rscale>
<asrwt>0</asrwt>
<pdfrwt beam="1">  1       21 0.10760115E+00 0.44844950E+03</pdfrwt>
<pdfrwt beam="2">  1       21 0.45097009E-01 0.44844950E+03</pdfrwt>
<totfact> 0.28213824E+03</totfact>
</mgrwt>
</event>
<event>
 4    1  0.4656822E-002  0.4819098E+03  0.7818608E-02  0.1018612E+00
         21   -1    0    0  503  502  0.00000000000E+00  0.00000000000E+00  0.51222108154E+03  0.51222108154E+03  0.00000000000E+00 0.  1.
         21   -1    0    0  501  503 -0.00000000000E+00 -0.00000000000E+00 -0.11088760681E+04  0.11088760681E+04  0.00000000000E+00 0.  1.
    9000007    1    1    2  501    0 -0.24265346746E+03 -0.11556987922E+03 -0.92151466793E+03  0.10399165281E+04  0.40000000000E+03 0.  1.
   -9000007    1    1    2    0  502  0.24265346746E+03  0.11556987922E+03  0.32485968136E+03  0.58118062152E+03  0.40000000000E+03 0.  1.
<mgrwt>
<rscale>  2 0.48190985E+03</rscale>
<asrwt>0</asrwt>
<pdfrwt beam="1">  1       21 0.78803243E-01 0.48190985E+03</pdfrwt>
<pdfrwt beam="2">  1       21 0.17059632E+00 0.48190985E+03</pdfrwt>
<totfact> 0.24192347E+02</totfact>
</mgrwt>
</event>
<event>
 4    1  0.4656822E-002  0.4389356E+03  0.7818608E-02  0.1031074E+00
         21   -1    0    0  503  502  0.00000000000E+00  0.00000000000E+00  0.25584848697E+03  0.25584848697E+03  0.00000000000E+00 0. -1.
         21   -1    0    0  501  503 -0.00000000000E+00 -0.00000000000E+00 -0.82647394075E+03  0.82647394075E+03  0.00000000000E+00 0. -1.
    9000007    1    1    2  501    0 -0.18065676428E+03  0.52546075773E+01 -0.44662100357E+03  0.62620667372E+03  0.40000000000E+03 0. -1.
   -9000007    1    1    2    0  502  0.18065676428E+03 -0.52546075773E+01 -0.12400445020E+03  0.45611575400E+03  0.40000000000E+03 0. -1.
<mgrwt>
<rscale>  2 0.43893562E+03</rscale>
<asrwt>0</asrwt>
<pdfrwt beam="1">  1       21 0.39361306E-01 0.43893562E+03</pdfrwt>
<pdfrwt beam="2">  1       21 0.12714984E+00 0.43893562E+03</pdfrwt>
<totfact> 0.24651097E+03</totfact>
</mgrwt>
</event>
<event>
 4    1  0.4656822E-002  0.4486697E+03  0.7818608E-02  0.1028119E+00
         21   -1    0    0  501  502  0.00000000000E+00  0.00000000000E+00  0.24456574751E+03  0.24456574751E+03  0.00000000000E+00 0. -1.
         21   -1    0    0  502  503 -0.00000000000E+00 -0.00000000000E+00 -0.87533085910E+03  0.87533085910E+03  0.00000000000E+00 0. -1.
    9000007    1    1    2  501    0  0.20276150517E+03 -0.13867592211E+02 -0.17861490628E+03  0.48291595836E+03  0.40000000000E+03 0. -1.
   -9000007    1    1    2    0  503 -0.20276150517E+03  0.13867592211E+02 -0.45215020531E+03  0.63698064826E+03  0.40000000000E+03 0. -1.
<mgrwt>
<rscale>  2 0.44866974E+03</rscale>
<asrwt>0</asrwt>
<pdfrwt beam="1">  1       21 0.37625500E-01 0.44866974E+03</pdfrwt>
<pdfrwt beam="2">  1       21 0.13466629E+00 0.44866974E+03</pdfrwt>
<totfact> 0.23202485E+03</totfact>
</mgrwt>
</event>
<event>
 4    1  0.4656822E-002  0.5683287E+03  0.7818608E-02  0.9973384E-01
         21   -1    0    0  503  502  0.00000000000E+00  0.00000000000E+00  0.89372385162E+03  0.89372385162E+03  0.00000000000E+00 0.  1.
         21   -1    0    0  501  503 -0.00000000000E+00 -0.00000000000E+00 -0.38942620446E+03  0.38942620446E+03  0.00000000000E+00 0. -1.
    9000007    1    1    2  501    0  0.22351268685E+02 -0.40311025975E+03  0.42424369497E+03  0.70921095131E+03  0.40000000000E+03 0.  1.
   -9000007    1    1    2    0  502 -0.22351268685E+02  0.40311025975E+03  0.80053952194E+02  0.57393910478E+03  0.40000000000E+03 0. -1.
<mgrwt>
<rscale>  2 0.56832866E+03</rscale>
<asrwt>0</asrwt>
<pdfrwt beam="1">  1       21 0.13749598E+00 0.56832866E+03</pdfrwt>
<pdfrwt beam="2">  1       21 0.59911724E-01 0.56832866E+03</pdfrwt>
<totfact> 0.78538454E+02</totfact>
</mgrwt>
</event>
<event>
 4    1  0.4656822E-002  0.5211247E+03  0.7818608E-02  0.1008408E+00
         21   -1    0    0  503  502  0.00000000000E+00  0.00000000000E+00  0.13737649682E+04  0.13737649682E+04  0.00000000000E+00 0. -1.
         21   -1    0    0  501  503 -0.00000000000E+00 -0.00000000000E+00 -0.34869341996E+03  0.34869341996E+03  0.00000000000E+00 0. -1.
    9000007    1    1    2  501    0  0.70797510691E+02  0.32643332470E+03 -0.54224307578E+02  0.52393823923E+03  0.40000000000E+03 0. -1.
   -9000007    1    1    2    0  502 -0.70797510691E+02 -0.32643332470E+03  0.10792958559E+04  0.11985201490E+04  0.40000000000E+03 0. -1.
<mgrwt>
<rscale>  2 0.52112475E+03</rscale>
<asrwt>0</asrwt>
<pdfrwt beam="1">  1       21 0.21134845E+00 0.52112475E+03</pdfrwt>
<pdfrwt beam="2">  1       21 0.53645142E-01 0.52112475E+03</pdfrwt>
<totfact> 0.29378111E+02</totfact>
</mgrwt>
</event>
<event>
 4    1  0.4656822E-002  0.4300146E+03  0.7818608E-02  0.1033855E+00
         21   -1    0    0  501  502  0.00000000000E+00  0.00000000000E+00  0.13730598703E+04  0.13730598703E+04  0.00000000000E+00 0.  1.
         21   -1    0    0  502  503 -0.00000000000E+00 -0.00000000000E+00 -0.13473382991E+03  0.13473382991E+03  0.00000000000E+00 0.  1.
    9000007    1    1    2  501    0  0.14682630398E+03 -0.57918968934E+02  0.63532713883E+03  0.76717217353E+03  0.40000000000E+03 0.  1.
   -9000007    1    1    2    0  503 -0.14682630398E+03  0.57918968934E+02  0.60299890153E+03  0.74062152666E+03  0.40000000000E+03 0.  1.
<mgrwt>
<rscale>  2 0.43001462E+03</rscale>
<asrwt>0</asrwt>
<pdfrwt beam="1">  1       21 0.21123997E+00 0.43001462E+03</pdfrwt>
<pdfrwt beam="2">  1       21 0.20728282E-01 0.43001462E+03</pdfrwt>
<totfact> 0.20936541E+03</totfact>
</mgrwt>
</event>
<event>
 4    1  0.4656822E-002  0.4788546E+03  0.7818608E-02  0.1019450E+00
         21   -1    0    0  503  502  0.00000000000E+00  0.00000000000E+00  0.15216233373E+04  0.15216233373E+04  0.00000000000E+00 0.  1.
         21   -1    0    0  501  503 -0.00000000000E+00 -0.00000000000E+00 -0.15096214862E+03  0.15096214862E+03  0.00000000000E+00 0. -1.
    9000007    1    1    2  501    0 -0.20946261156E+03  0.15945898001E+03  0.72047968745E+03  0.86509694946E+03  0.40000000000E+03 0.  1.
   -9000007    1    1    2    0  502  0.20946261156E+03 -0.15945898001E+03  0.65018150123E+03  0.80748853644E+03  0.40000000000E+03 0.  1.
<mgrwt>
<rscale>  2 0.47885463E+03</rscale>
<asrwt>0</asrwt>
<pdfrwt beam="1">  1       21 0.23409589E+00 0.47885463E+03</pdfrwt>
<pdfrwt beam="2">  1       21 0.23224947E-01 0.47885463E+03</pdfrwt>
<totfact> 0.11769514E+03</totfact>
</mgrwt>
</event>
<event>
 4    1  0.4656822E-002  0.4125085E+03  0.7818608E-02  0.1039532E+00
         21   -1    0    0  503  502  0.00000000000E+00  0.00000000000E+00  0.18154487186E+04  0.18154487186E+04  0.00000000000E+00 0. -1.
         21   -1    0    0  501  503 -0.00000000000E+00 -0.00000000000E+00 -0.35320845773E+03  0.35320845773E+03  0.00000000000E+00 0. -1.
    9000007    1    1    2  501    0 -0.25757350330E+02  0.97467153679E+02 -0.19826436994E+03  0.45768116362E+03  0.40000000000E+03 0. -1.
   -9000007    1    1    2    0  502  0.25757350330E+02 -0.97467153679E+02  0.16605046309E+04  0.17109760128E+04  0.40000000000E+03 0. -1.
<mgrwt>
<rscale>  2 0.41250853E+03</rscale>
<asrwt>0</asrwt>
<pdfrwt beam="1">  1       21 0.27929980E+00 0.41250853E+03</pdfrwt>
<pdfrwt beam="2">  1       21 0.54339764E-01 0.41250853E+03</pdfrwt>
<totfact> 0.11482782E+02</totfact>
</mgrwt>
</event>
<event>
 4    1  0.4656822E-002  0.5703385E+03  0.7818608E-02  0.9968930E-01
         21   -1    0    0  503  502  0.00000000000E+00  0.00000000000E+00  0.95271810103E+03  0.95271810103E+03  0.00000000000E+00 0. -1.
         21   -1    0    0  501  503 -0.00000000000E+00 -0.00000000000E+00 -0.34182535936E+03  0.34182535936E+03  0.00000000000E+00 0. -1.
    9000007    1    1    2  501    0  0.11729619596E+03  0.38926551122E+03  0.28341854184E+03  0.63687683713E+03  0.40000000000E+03 0. -1.
   -9000007    1    1    2    0  502 -0.11729619596E+03 -0.38926551122E+03  0.32747419983E+03  0.65766662327E+03  0.40000000000E+03 0. -1.
<mgrwt>
<rscale>  2 0.57033853E+03</rscale>
<asrwt>0</asrwt>
<pdfrwt beam="1">  1       21 0.14657201E+00 0.57033853E+03</pdfrwt>
<pdfrwt beam="2">  1       21 0.52588517E-01 0.57033853E+03</pdfrwt>
<totfact> 0.87767537E+02</totfact>
</mgrwt>
</event>
<event>
 4    1  0.4656822E-002  0.4177651E+03  0.7818608E-02  0.1037796E+00
         21   -1    0    0  503  502  0.00000000000E+00  0.00000000000E+00  0.14510506856E+04  0.14510506856E+04  0.00000000000E+00 0.  1.
         21   -1    0    0  501  503 -0.00000000000E+00 -0.00000000000E+00 -0.22400881867E+03  0.22400881867E+03  0.00000000000E+00 0.  1.
    9000007    1    1    2  501    0 -0.11939260898E+03 -0.16525936018E+02  0.43587484700E+02  0.42003282070E+03  0.40000000000E+03 0.  1.
   -9000007    1    1    2    0  502  0.11939260898E+03  0.16525936018E+02  0.11834543822E+04  0.12550266835E+04  0.40000000000E+03 0.  1.
<mgrwt>
<rscale>  2 0.41776513E+03</rscale>
<asrwt>0</asrwt>
<pdfrwt beam="1">  1       21 0.22323856E+00 0.41776513E+03</pdfrwt>
<pdfrwt beam="2">  1       21 0.34462896E-01 0.41776513E+03</pdfrwt>
<totfact> 0.65148466E+02</totfact>
</mgrwt>
</event>
<event>
 4    1  0.4656822E-002  0.4897910E+03  0.7818608E-02  0.1016478E+00
         21   -1    0    0  501  502  0.00000000000E+00  0.00000000000E+00  0.58966694681E+03  0.58966694681E+03  0.00000000000E+00 0.  1.
         21   -1    0    0  502  503 -0.00000000000E+00 -0.00000000000E+00 -0.18908947792E+04  0.18908947792E+04  0.00000000000E+00 0.  1.
    9000007    1    1    2  501    0  0.26183651196E+03 -0.10647481996E+03  0.44817060270E+03  0.66389165939E+03  0.40000000000E+03 0.  1.
   -9000007    1    1    2    0  503 -0.26183651196E+03  0.10647481996E+03 -0.17493984351E+04  0.18166700666E+04  0.40000000000E+03 0.  1.
<mgrwt>
<rscale>  2 0.48979102E+03</rscale>
<asrwt>0</asrwt>
<pdfrwt beam="1">  1       21 0.90717992E-01 0.48979102E+03</pdfrwt>
<pdfrwt beam="2">  1       21 0.29090689E+00 0.48979102E+03</pdfrwt>
<totfact> 0.29215435E+01</totfact>
</mgrwt>
</event>
<event>
 4    1  0.4656822E-002  0.6634704E+03  0.7818608E-02  0.9781826E-01
         21   -1    0    0  501  502  0.00000000000E+00  0.00000000000E+00  0.15890454070E+04  0.15890454070E+04  0.00000000000E+00 0. -1.
         21   -1    0    0  502  503 -0.00000000000E+00 -0.00000000000E+00 -0.28840503945E+03  0.28840503945E+03  0.00000000000E+00 0. -1.
    9000007    1    1    2  501    0 -0.14372181372E+03 -0.50944777975E+03  0.83685360016E+03  0.10679498809E+04  0.40000000000E+03 0. -1.
   -9000007    1    1    2    0  503  0.14372181372E+03  0.50944777975E+03  0.46378676742E+03  0.80950056557E+03  0.40000000000E+03 0. -1.
<mgrwt>
<rscale>  2 0.66347042E+03</rscale>
<asrwt>0</asrwt>
<pdfrwt beam="1">  1       21 0.24446852E+00 0.66347042E+03</pdfrwt>
<pdfrwt beam="2">  1       21 0.44370007E-01 0.66347042E+03</pdfrwt>
<totfact> 0.25534315E+02</totfact>
</mgrwt>
</event>
<event>
 4    1  0.4656822E-002  0.4225432E+03  0.7818608E-02  0.1036242E+00
         21   -1    0    0  501  502  0.00000000000E+00  0.00000000000E+00  0.26456058613E+03  0.26456058613E+03  0.00000000000E+00 0. -1.
         21   -1    0    0  502  503 -0.00000000000E+00 -0.00000000000E+00 -0.86997107703E+03  0.86997107703E+03  0.00000000000E+00 0. -1.
    9000007    1    1    2  501    0  0.13433798459E+03 -0.22271914305E+02 -0.34066038706E+02  0.42391417441E+03  0.40000000000E+03 0. -1.
   -9000007    1    1    2    0  503 -0.13433798459E+03  0.22271914305E+02 -0.57134445220E+03  0.71061748876E+03  0.40000000000E+03 0. -1.
<mgrwt>
<rscale>  2 0.42254317E+03</rscale>
<asrwt>0</asrwt>
<pdfrwt beam="1">  1       21 0.40701629E-01 0.42254317E+03</pdfrwt>
<pdfrwt beam="2">  1       21 0.13384170E+00 0.42254317E+03</pdfrwt>
<totfact> 0.20275173E+03</totfact>
</mgrwt>
</event>
<event>
 4    1  0.4656822E-002  0.4108864E+03  0.7818608E-02  0.1040074E+00
         21   -1    0    0  503  502  0.00000000000E+00  0.00000000000E+00  0.24887244725E+04  0.24887244725E+04  0.00000000000E+00 0.  1.
         21   -1    0    0  501  503 -0.00000000000E+00 -0.00000000000E+00 -0.13281636075E+03  0.13281636075E+03  0.00000000000E+00 0.  1.
    9000007    1    1    2  501    0  0.36154520680E+02  0.86720600514E+02  0.26112462296E+03  0.48684050841E+03  0.40000000000E+03 0.  1.
   -9000007    1    1    2    0  502 -0.36154520680E+02 -0.86720600514E+02  0.20947834888E+04  0.21347003248E+04  0.40000000000E+03 0.  1.
<mgrwt>
<rscale>  2 0.41088637E+03</rscale>
<asrwt>0</asrwt>
<pdfrwt beam="1">  1       21 0.38288065E+00 0.41088637E+03</pdfrwt>
<pdfrwt beam="2">  1       21 0.20433288E-01 0.41088637E+03</pdfrwt>
<totfact> 0.19348770E+02</totfact>
</mgrwt>
</event>
<event>
 4    1  0.4656822E-002  0.5369273E+03  0.7818608E-02  0.1004566E+00
         21   -1    0    0  501  502  0.00000000000E+00  0.00000000000E+00  0.42745730792E+03  0.42745730792E+03  0.00000000000E+00 0. -1.
         21   -1    0    0  502  503 -0.00000000000E+00 -0.00000000000E+00 -0.69879371046E+03  0.69879371046E+03  0.00000000000E+00 0. -1.
    9000007    1    1    2  501    0  0.20749702483E+03 -0.29195185990E+03 -0.30524261203E+02  0.53779423048E+03  0.40000000000E+03 0. -1.
   -9000007    1    1    2    0  503 -0.20749702483E+03  0.29195185990E+03 -0.24081214134E+03  0.58845678790E+03  0.40000000000E+03 0. -1.
<mgrwt>
<rscale>  2 0.53692728E+03</rscale>
<asrwt>0</asrwt>
<pdfrwt beam="1">  1       21 0.65762664E-01 0.53692728E+03</pdfrwt>
<pdfrwt beam="2">  1       21 0.10750672E+00 0.53692728E+03</pdfrwt>
<totfact> 0.12128936E+03</totfact>
</mgrwt>
</event>
<event>
 4    1  0.4656822E-002  0.4147885E+03  0.7818608E-02  0.1038776E+00
         21   -1    0    0  501  502  0.00000000000E+00  0.00000000000E+00  0.30922602183E+03  0.30922602183E+03  0.00000000000E+00 0.  1.
         21   -1    0    0  502  503 -0.00000000000E+00 -0.00000000000E+00 -0.74599506892E+03  0.74599506892E+03  0.00000000000E+00 0.  1.
    9000007    1    1    2  501    0 -0.91641366872E+02 -0.60426159852E+02  0.47610458261E+02  0.41751193594E+03  0.40000000000E+03 0.  1.
   -9000007    1    1    2    0  503  0.91641366872E+02  0.60426159852E+02 -0.48437950536E+03  0.63770915481E+03  0.40000000000E+03 0.  1.
<mgrwt>
<rscale>  2 0.41478845E+03</rscale>
<asrwt>0</asrwt>
<pdfrwt beam="1">  1       21 0.47573235E-01 0.41478845E+03</pdfrwt>
<pdfrwt beam="2">  1       21 0.11476847E+00 0.41478845E+03</pdfrwt>
<totfact> 0.21765593E+03</totfact>
</mgrwt>
</event>
<event>
 4    1  0.4656822E-002  0.4442892E+03  0.7818608E-02  0.1029439E+00
         21   -1    0    0  503  502  0.00000000000E+00  0.00000000000E+00  0.13184829376E+03  0.13184829376E+03  0.00000000000E+00 0.  1.
         21   -1    0    0  501  503 -0.00000000000E+00 -0.00000000000E+00 -0.15332908897E+04  0.15332908897E+04  0.00000000000E+00 0. -1.
    9000007    1    1    2  501    0 -0.54666072191E+02  0.18548458609E+03 -0.82859435535E+03  0.94019227653E+03  0.40000000000E+03 0. -1.
   -9000007    1    1    2    0  502  0.54666072191E+02 -0.18548458609E+03 -0.57284824063E+03  0.72494690697E+03  0.40000000000E+03 0. -1.
<mgrwt>
<rscale>  2 0.44428922E+03</rscale>
<asrwt>0</asrwt>
<pdfrwt beam="1">  1       21 0.20284352E-01 0.44428922E+03</pdfrwt>
<pdfrwt beam="2">  1       21 0.23589091E+00 0.44428922E+03</pdfrwt>
<totfact> 0.15112321E+03</totfact>
</mgrwt>
</event>
<event>
 4    1  0.4656822E-002  0.4850741E+03  0.7818608E-02  0.1017750E+00
         21   -1    0    0  503  502  0.00000000000E+00  0.00000000000E+00  0.55599010044E+03  0.55599010044E+03  0.00000000000E+00 0.  1.
         21   -1    0    0  501  503 -0.00000000000E+00 -0.00000000000E+00 -0.52075219672E+03  0.52075219672E+03  0.00000000000E+00 0.  1.
    9000007    1    1    2  501    0  0.11500474956E+03  0.24914017062E+03  0.25063032340E+03  0.54599677293E+03  0.40000000000E+03 0.  1.
   -9000007    1    1    2    0  502 -0.11500474956E+03 -0.24914017062E+03 -0.21539241968E+03  0.53074552424E+03  0.40000000000E+03 0.  1.
<mgrwt>
<rscale>  2 0.48507414E+03</rscale>
<asrwt>0</asrwt>
<pdfrwt beam="1">  1       21 0.85536939E-01 0.48507414E+03</pdfrwt>
<pdfrwt beam="2">  1       21 0.80115722E-01 0.48507414E+03</pdfrwt>
<totfact> 0.13686096E+03</totfact>
</mgrwt>
</event>
<event>
 4    1  0.4656822E-002  0.5070473E+03  0.7818608E-02  0.1011956E+00
         21   -1    0    0  503  502  0.00000000000E+00  0.00000000000E+00  0.11501774869E+04  0.11501774869E+04  0.00000000000E+00 0.  1.
         21   -1    0    0  501  503 -0.00000000000E+00 -0.00000000000E+00 -0.30620932310E+03  0.30620932310E+03  0.00000000000E+00 0. -1.
    9000007    1    1    2  501    0  0.19515598511E+03 -0.24292205842E+03  0.43592914365E+02  0.50891780002E+03  0.40000000000E+03 0. -1.
   -9000007    1    1    2    0  502 -0.19515598511E+03  0.24292205842E+03  0.80037524945E+03  0.94746901001E+03  0.40000000000E+03 0.  1.
<mgrwt>
<rscale>  2 0.50704732E+03</rscale>
<asrwt>0</asrwt>
<pdfrwt beam="1">  1       21 0.17695038E+00 0.50704732E+03</pdfrwt>
<pdfrwt beam="2">  1       21 0.47109127E-01 0.50704732E+03</pdfrwt>
<totfact> 0.66928434E+02</totfact>
</mgrwt>
</event>
<event>
 4    1  0.4656822E-002  0.5931787E+03  0.7818608E-02  0.9919660E-01
         21   -1    0    0  501  502  0.00000000000E+00  0.00000000000E+00  0.43346533690E+03  0.43346533690E+03  0.00000000000E+00 0. -1.
         21   -1    0    0  502  503 -0.00000000000E+00 -0.00000000000E+00 -0.91502150916E+03  0.91502150916E+03  0.00000000000E+00 0.  1.
    9000007    1    1    2  501    0  0.66299850708E+02 -0.43297262730E+03 -0.14254588394E+02  0.59334994690E+03  0.40000000000E+03 0.  1.
   -9000007    1    1    2    0  503 -0.66299850708E+02  0.43297262730E+03 -0.46730158387E+03  0.75513689916E+03  0.40000000000E+03 0. -1.
<mgrwt>
<rscale>  2 0.59317870E+03</rscale>
<asrwt>0</asrwt>
<pdfrwt beam="1">  1       21 0.66686975E-01 0.59317870E+03</pdfrwt>
<pdfrwt beam="2">  1       21 0.14077254E+00 0.59317870E+03</pdfrwt>
<totfact> 0.57612864E+02</totfact>
</mgrwt>
</event>
<event>
 4    1  0.4656822E-002  0.4062988E+03  0.7818608E-02  0.1041620E+00
         21   -1    0    0  501  502  0.00000000000E+00  0.00000000000E+00  0.21997692599E+03  0.21997692599E+03  0.00000000000E+00 0.  1.
         21   -1    0    0  502  503 -0.00000000000E+00 -0.00000000000E+00 -0.13246388147E+04  0.13246388147E+04  0.00000000000E+00 0.  1.
    9000007    1    1    2  501    0 -0.70472488713E+02  0.10598742996E+02 -0.43850555213E+02  0.40865826336E+03  0.40000000000E+03 0.  1.
   -9000007    1    1    2    0  503  0.70472488713E+02 -0.10598742996E+02 -0.10608113335E+04  0.11359574773E+04  0.40000000000E+03 0.  1.
<mgrwt>
<rscale>  2 0.40629879E+03</rscale>
<asrwt>0</asrwt>
<pdfrwt beam="1">  1       21 0.33842605E-01 0.40629879E+03</pdfrwt>
<pdfrwt beam="2">  1       21 0.20379058E+00 0.40629879E+03</pdfrwt>
<totfact> 0.90762062E+02</totfact>
</mgrwt>
</event>
<event>
 4    1  0.4656822E-002  0.4709310E+03  0.7818608E-02  0.1021658E+00
         21   -1    0    0  503  502  0.00000000000E+00  0.00000000000E+00  0.38916465849E+03  0.38916465849E+03  0.00000000000E+00 0.  1.
         21   -1    0    0  501  503 -0.00000000000E+00 -0.00000000000E+00 -0.64825275190E+03  0.64825275190E+03  0.00000000000E+00 0.  1.
    9000007    1    1    2  501    0 -0.13594499757E+01  0.24854403747E+03 -0.30990487549E+03  0.56375262174E+03  0.40000000000E+03 0.  1.
   -9000007    1    1    2    0  502  0.13594499757E+01 -0.24854403747E+03  0.50816782070E+02  0.47366478865E+03  0.40000000000E+03 0.  1.
<mgrwt>
<rscale>  2 0.47093098E+03</rscale>
<asrwt>0</asrwt>
<pdfrwt beam="1">  1       21 0.59871486E-01 0.47093098E+03</pdfrwt>
<pdfrwt beam="2">  1       21 0.99731192E-01 0.47093098E+03</pdfrwt>
<totfact> 0.18377601E+03</totfact>
</mgrwt>
</event>
<event>
 4    1  0.4656822E-002  0.4096247E+03  0.7818608E-02  0.1040497E+00
         21   -1    0    0  501  502  0.00000000000E+00  0.00000000000E+00  0.14244243566E+03  0.14244243566E+03  0.00000000000E+00 0.  1.
         21   -1    0    0  502  503 -0.00000000000E+00 -0.00000000000E+00 -0.13278355167E+04  0.13278355167E+04  0.00000000000E+00 0.  1.
    9000007    1    1    2  501    0  0.20910951053E+02 -0.85762096760E+02 -0.34572133107E+03  0.53601832419E+03  0.40000000000E+03 0.  1.
   -9000007    1    1    2    0  503 -0.20910951053E+02  0.85762096760E+02 -0.83967174995E+03  0.93425962814E+03  0.40000000000E+03 0.  1.
<mgrwt>
<rscale>  2 0.40962471E+03</rscale>
<asrwt>0</asrwt>
<pdfrwt beam="1">  1       21 0.21914221E-01 0.40962471E+03</pdfrwt>
<pdfrwt beam="2">  1       21 0.20428238E+00 0.40962471E+03</pdfrwt>
<totfact> 0.21094864E+03</totfact>
</mgrwt>
</event>
<event>
 4    1  0.4656822E-002  0.5216626E+03  0.7818608E-02  0.1008274E+00
         21   -1    0    0  503  502  0.00000000000E+00  0.00000000000E+00  0.51590522205E+03  0.51590522205E+03  0.00000000000E+00 0. -1.
         21   -1    0    0  501  503 -0.00000000000E+00 -0.00000000000E+00 -0.54293780120E+03  0.54293780120E+03  0.00000000000E+00 0.  1.
    9000007    1    1    2  501    0 -0.12784081653E+03  0.30949736368E+03 -0.10283456466E+03  0.53170183391E+03  0.40000000000E+03 0.  1.
   -9000007    1    1    2    0  502  0.12784081653E+03 -0.30949736368E+03  0.75801985495E+02  0.52714118934E+03  0.40000000000E+03 0.  1.
<mgrwt>
<rscale>  2 0.52166262E+03</rscale>
<asrwt>0</asrwt>
<pdfrwt beam="1">  1       21 0.79370034E-01 0.52166262E+03</pdfrwt>
<pdfrwt beam="2">  1       21 0.83528892E-01 0.52166262E+03</pdfrwt>
<totfact> 0.14599891E+03</totfact>
</mgrwt>
</event>
<event>
 4    1  0.4656822E-002  0.4429157E+03  0.7818608E-02  0.1029856E+00
         21   -1    0    0  503  502  0.00000000000E+00  0.00000000000E+00  0.69739606135E+03  0.69739606135E+03  0.00000000000E+00 0.  1.
         21   -1    0    0  501  503 -0.00000000000E+00 -0.00000000000E+00 -0.35698813477E+03  0.35698813477E+03  0.00000000000E+00 0.  1.
    9000007    1    1    2  501    0 -0.16994317203E+03 -0.85402624594E+02  0.41295950742E+03  0.60556572292E+03  0.40000000000E+03 0.  1.
   -9000007    1    1    2    0  502  0.16994317203E+03  0.85402624594E+02 -0.72551580830E+02  0.44881847320E+03  0.40000000000E+03 0.  1.
<mgrwt>
<rscale>  2 0.44291567E+03</rscale>
<asrwt>0</asrwt>
<pdfrwt beam="1">  1       21 0.10729170E+00 0.44291567E+03</pdfrwt>
<pdfrwt beam="2">  1       21 0.54921252E-01 0.44291567E+03</pdfrwt>
<totfact> 0.18729092E+03</totfact>
</mgrwt>
</event>
<event>
 4    1  0.4656822E-002  0.5738814E+03  0.7818608E-02  0.9961126E-01
         21   -1    0    0  501  502  0.00000000000E+00  0.00000000000E+00  0.12444792600E+04  0.12444792600E+04  0.00000000000E+00 0.  1.
         21   -1    0    0  502  503 -0.00000000000E+00 -0.00000000000E+00 -0.26872761408E+03  0.26872761408E+03  0.00000000000E+00 0. -1.
    9000007    1    1    2  501    0 -0.40595364659E+03  0.67390349512E+02  0.39456938111E+03  0.69643723256E+03  0.40000000000E+03 0.  1.
   -9000007    1    1    2    0  503  0.40595364659E+03 -0.67390349512E+02  0.58118226483E+03  0.81676964154E+03  0.40000000000E+03 0. -1.
<mgrwt>
<rscale>  2 0.57388137E+03</rscale>
<asrwt>0</asrwt>
<pdfrwt beam="1">  1       21 0.19145834E+00 0.57388137E+03</pdfrwt>
<pdfrwt beam="2">  1       21 0.41342711E-01 0.57388137E+03</pdfrwt>
<totfact> 0.67881410E+02</totfact>
</mgrwt>
</event>
<event>
 4    1  0.4656822E-002  0.4207006E+03  0.7818608E-02  0.1036839E+00
         21   -1    0    0  503  502  0.00000000000E+00  0.00000000000E+00  0.11442576638E+04  0.11442576638E+04  0.00000000000E+00 0.  1.
         21   -1    0    0  501  503 -0.00000000000E+00 -0.00000000000E+00 -0.18172924155E+03  0.18172924155E+03  0.00000000000E+00 0. -1.
    9000007    1    1    2  501    0  0.12945327480E+03  0.15193483146E+02  0.73706856587E+03  0.84868077808E+03  0.40000000000E+03 0.  1.
   -9000007    1    1    2    0  502 -0.12945327480E+03 -0.15193483146E+02  0.22545985637E+03  0.47730612726E+03  0.40000000000E+03 0. -1.
<mgrwt>
<rscale>  2 0.42070060E+03</rscale>
<asrwt>0</asrwt>
<pdfrwt beam="1">  1       21 0.17603964E+00 0.42070060E+03</pdfrwt>
<pdfrwt beam="2">  1       21 0.27958346E-01 0.42070060E+03</pdfrwt>
<totfact> 0.20396093E+03</totfact>
</mgrwt>
</event>
<event>
 4    1  0.4656822E-002  0.4183013E+03  0.7818608E-02  0.1037621E+00
         21   -1    0    0  503  502  0.00000000000E+00  0.00000000000E+00  0.80710657513E+03  0.80710657513E+03  0.00000000000E+00 0. -1.
         21   -1    0    0  501  503 -0.00000000000E+00 -0.00000000000E+00 -0.32966698590E+03  0.32966698590E+03  0.00000000000E+00 0. -1.
    9000007    1    1    2  501    0  0.25208669346E+02  0.11975184036E+03 -0.93863910250E+02  0.42870317695E+03  0.40000000000E+03 0. -1.
   -9000007    1    1    2    0  502 -0.25208669346E+02 -0.11975184036E+03  0.57130349949E+03  0.70807038408E+03  0.40000000000E+03 0. -1.
<mgrwt>
<rscale>  2 0.41830130E+03</rscale>
<asrwt>0</asrwt>
<pdfrwt beam="1">  1       21 0.12417024E+00 0.41830130E+03</pdfrwt>
<pdfrwt beam="2">  1       21 0.50717998E-01 0.41830130E+03</pdfrwt>
<totfact> 0.15550562E+03</totfact>
</mgrwt>
</event>
<event>
 4    1  0.4656822E-002  0.5280060E+03  0.7818608E-02  0.1006717E+00
         21   -1    0    0  503  502  0.00000000000E+00  0.00000000000E+00  0.11608429758E+04  0.11608429758E+04  0.00000000000E+00 0. -1.
         21   -1    0    0  501  503 -0.00000000000E+00 -0.00000000000E+00 -0.24189486088E+03  0.24189486088E+03  0.00000000000E+00 0. -1.
    9000007    1    1    2  501    0  0.95101478121E+02  0.33127939977E+03  0.51883752257E+03  0.74025854043E+03  0.40000000000E+03 0. -1.
   -9000007    1    1    2    0  502 -0.95101478121E+02 -0.33127939977E+03  0.40011059236E+03  0.66247929626E+03  0.40000000000E+03 0. -1.
<mgrwt>
<rscale>  2 0.52800600E+03</rscale>
<asrwt>0</asrwt>
<pdfrwt beam="1">  1       21 0.17859122E+00 0.52800600E+03</pdfrwt>
<pdfrwt beam="2">  1       21 0.37214595E-01 0.52800600E+03</pdfrwt>
<totfact> 0.10552175E+03</totfact>
</mgrwt>
</event>
<event>
 4    1  0.4656822E-002  0.4165144E+03  0.7818608E-02  0.1038207E+00
         21   -1    0    0  501  502  0.00000000000E+00  0.00000000000E+00  0.13634064059E+04  0.13634064059E+04  0.00000000000E+00 0. -1.
         21   -1    0    0  502  503 -0.00000000000E+00 -0.00000000000E+00 -0.14248550664E+03  0.14248550664E+03  0.00000000000E+00 0. -1.
    9000007    1    1    2  501    0 -0.79755056180E+02 -0.84399963768E+02  0.85672591031E+03  0.95260879077E+03  0.40000000000E+03 0. -1.
   -9000007    1    1    2    0  503  0.79755056180E+02  0.84399963768E+02  0.36419498900E+03  0.55328312181E+03  0.40000000000E+03 0. -1.
<mgrwt>
<rscale>  2 0.41651437E+03</rscale>
<asrwt>0</asrwt>
<pdfrwt beam="1">  1       21 0.20975482E+00 0.41651437E+03</pdfrwt>
<pdfrwt beam="2">  1       21 0.21920848E-01 0.41651437E+03</pdfrwt>
<totfact> 0.19354347E+03</totfact>
</mgrwt>
</event>
<event>
 4    1  0.4656822E-002  0.4445931E+03  0.7818608E-02  0.1029347E+00
         21   -1    0    0  501  502  0.00000000000E+00  0.00000000000E+00  0.19129643499E+04  0.19129643499E+04  0.00000000000E+00 0.  1.
         21   -1    0    0  502  503 -0.00000000000E+00 -0.00000000000E+00 -0.12406565685E+03  0.12406565685E+03  0.00000000000E+00 0. -1.
    9000007    1    1    2  501    0  0.40714241027E+02 -0.18975081263E+03  0.13108584061E+04  0.13842011347E+04  0.40000000000E+03 0.  1.
   -9000007    1    1    2    0  503 -0.40714241027E+02  0.18975081263E+03  0.47804028695E+03  0.65282887211E+03  0.40000000000E+03 0. -1.
<mgrwt>
<rscale>  2 0.44459310E+03</rscale>
<asrwt>0</asrwt>
<pdfrwt beam="1">  1       21 0.29430219E+00 0.44459310E+03</pdfrwt>
<pdfrwt beam="2">  1       21 0.19087025E-01 0.44459310E+03</pdfrwt>
<totfact> 0.74824041E+02</totfact>
</mgrwt>
</event>
<event>
 4    1  0.4656822E-002  0.4325267E+03  0.7818608E-02  0.1033065E+00
         21   -1    0    0  503  502  0.00000000000E+00  0.00000000000E+00  0.16454834052E+04  0.16454834052E+04  0.00000000000E+00 0.  1.
         21   -1    0    0  501  503 -0.00000000000E+00 -0.00000000000E+00 -0.11996209108E+03  0.11996209108E+03  0.00000000000E+00 0.  1.
    9000007    1    1    2  501    0 -0.71662910114E+02  0.14813419367E+03  0.56096216612E+03  0.70834868803E+03  0.40000000000E+03 0.  1.
   -9000007    1    1    2    0  502  0.71662910114E+02 -0.14813419367E+03  0.96455914804E+03  0.10570968083E+04  0.40000000000E+03 0.  1.
<mgrwt>
<rscale>  2 0.43252666E+03</rscale>
<asrwt>0</asrwt>
<pdfrwt beam="1">  1       21 0.25315128E+00 0.43252666E+03</pdfrwt>
<pdfrwt beam="2">  1       21 0.18455708E-01 0.43252666E+03</pdfrwt>
<totfact> 0.14227370E+03</totfact>
</mgrwt>
</event>
<event>
 4    1  0.4656822E-002  0.4115706E+03  0.7818608E-02  0.1039845E+00
         21   -1    0    0  503  502  0.00000000000E+00  0.00000000000E+00  0.30439997481E+03  0.30439997481E+03  0.00000000000E+00 0.  1.
         21   -1    0    0  501  503 -0.00000000000E+00 -0.00000000000E+00 -0.11341359404E+04  0.11341359404E+04  0.00000000000E+00 0.  1.
    9000007    1    1    2  501    0 -0.96091587971E+02  0.12520983652E+02 -0.92819652034E+03  0.10153517364E+04  0.40000000000E+03 0.  1.
   -9000007    1    1    2    0  502  0.96091587971E+02 -0.12520983652E+02  0.98460554767E+02  0.42318417876E+03  0.40000000000E+03 0.  1.
<mgrwt>
<rscale>  2 0.41157061E+03</rscale>
<asrwt>0</asrwt>
<pdfrwt beam="1">  1       21 0.46830766E-01 0.41157061E+03</pdfrwt>
<pdfrwt beam="2">  1       21 0.17448245E+00 0.41157061E+03</pdfrwt>
<totfact> 0.73694231E+02</totfact>
</mgrwt>
</event>
<event>
 4    1  0.4656822E-002  0.4650625E+03  0.7818608E-02  0.1023323E+00
         21   -1    0    0  501  502  0.00000000000E+00  0.00000000000E+00  0.15815781905E+03  0.15815781905E+03  0.00000000000E+00 0. -1.
         21   -1    0    0  502  503 -0.00000000000E+00 -0.00000000000E+00 -0.18549470166E+04  0.18549470166E+04  0.00000000000E+00 0.  1.
    9000007    1    1    2  501    0  0.89556846436E+02  0.21968779092E+03 -0.13643685398E+04  0.14414522769E+04  0.40000000000E+03 0.  1.
   -9000007    1    1    2    0  503 -0.89556846436E+02 -0.21968779092E+03 -0.33242065775E+03  0.57165255875E+03  0.40000000000E+03 0. -1.
<mgrwt>
<rscale>  2 0.46506253E+03</rscale>
<asrwt>0</asrwt>
<pdfrwt beam="1">  1       21 0.24331971E-01 0.46506253E+03</pdfrwt>
<pdfrwt beam="2">  1       21 0.28537648E+00 0.46506253E+03</pdfrwt>
<totfact> 0.52565060E+02</totfact>
</mgrwt>
</event>
<event>
 4    1  0.4656822E-002  0.5059174E+03  0.7818608E-02  0.1012246E+00
         21   -1    0    0  503  502  0.00000000000E+00  0.00000000000E+00  0.10039697184E+04  0.10039697184E+04  0.00000000000E+00 0.  1.
         21   -1    0    0  501  503 -0.00000000000E+00 -0.00000000000E+00 -0.25722690604E+03  0.25722690604E+03  0.00000000000E+00 0.  1.
    9000007    1    1    2  501    0 -0.11450902572E+03 -0.28781952010E+03  0.31391681880E+03  0.59539580301E+03  0.40000000000E+03 0.  1.
   -9000007    1    1    2    0  502  0.11450902572E+03  0.28781952010E+03  0.43282599359E+03  0.66580082145E+03  0.40000000000E+03 0.  1.
<mgrwt>
<rscale>  2 0.50591738E+03</rscale>
<asrwt>0</asrwt>
<pdfrwt beam="1">  1       21 0.15445688E+00 0.50591738E+03</pdfrwt>
<pdfrwt beam="2">  1       21 0.39573371E-01 0.50591738E+03</pdfrwt>
<totfact> 0.14162551E+03</totfact>
</mgrwt>
</event>
<event>
 4    1  0.4656822E-002  0.5086707E+03  0.7818608E-02  0.1011540E+00
         21   -1    0    0  503  502  0.00000000000E+00  0.00000000000E+00  0.51516641987E+03  0.51516641987E+03  0.00000000000E+00 0. -1.
         21   -1    0    0  501  503 -0.00000000000E+00 -0.00000000000E+00 -0.89690034792E+03  0.89690034792E+03  0.00000000000E+00 0.  1.
    9000007    1    1    2  501    0  0.31233689220E+03  0.34518079903E+02 -0.65920092291E+03  0.83264139270E+03  0.40000000000E+03 0.  1.
   -9000007    1    1    2    0  502 -0.31233689220E+03 -0.34518079903E+02  0.27746699486E+03  0.57942537510E+03  0.40000000000E+03 0. -1.
<mgrwt>
<rscale>  2 0.50867065E+03</rscale>
<asrwt>0</asrwt>
<pdfrwt beam="1">  1       21 0.79256373E-01 0.50867065E+03</pdfrwt>
<pdfrwt beam="2">  1       21 0.13798467E+00 0.50867065E+03</pdfrwt>
<totfact> 0.42312853E+02</totfact>
</mgrwt>
</event>
<event>
 4    1  0.4656822E-002  0.4044798E+03  0.7818608E-02  0.1042239E+00
         21   -1    0    0  503  502  0.00000000000E+00  0.00000000000E+00  0.10177099391E+03  0.10177099391E+03  0.00000000000E+00 0. -1.
         21   -1    0    0  501  503 -0.00000000000E+00 -0.00000000000E+00 -0.16142084094E+04  0.16142084094E+04  0.00000000000E+00 0.  1.
    9000007    1    1    2  501    0  0.55320873192E+01  0.59777424738E+02 -0.70119484656E+03  0.80949253075E+03  0.40000000000E+03 0. -1.
   -9000007    1    1    2    0  502 -0.55320873192E+01 -0.59777424738E+02 -0.81124256896E+03  0.90648687260E+03  0.40000000000E+03 0. -1.
<mgrwt>
<rscale>  2 0.40447984E+03</rscale>
<asrwt>0</asrwt>
<pdfrwt beam="1">  1       21 0.15657076E-01 0.40447984E+03</pdfrwt>
<pdfrwt beam="2">  1       21 0.24833976E+00 0.40447984E+03</pdfrwt>
<totfact> 0.21011072E+03</totfact>
</mgrwt>
</event>
<event>
 4    1  0.4656822E-002  0.4664271E+03  0.7818608E-02  0.1022934E+00
         21   -1    0    0  501  502  0.00000000000E+00  0.00000000000E+00  0.59954648276E+03  0.59954648276E+03  0.00000000000E+00 0.  1.
         21   -1    0    0  502  503 -0.00000000000E+00 -0.00000000000E+00 -0.13862638310E+04  0.13862638310E+04  0.00000000000E+00 0.  1.
    9000007    1    1    2  501    0 -0.23867750641E+03  0.24233411520E+02  0.45975589323E+03  0.65492724150E+03  0.40000000000E+03 0.  1.
   -9000007    1    1    2    0  503  0.23867750641E+03 -0.24233411520E+02 -0.12464732414E+04  0.13308830722E+04  0.40000000000E+03 0.  1.
<mgrwt>
<rscale>  2 0.46642707E+03</rscale>
<asrwt>0</asrwt>
<pdfrwt beam="1">  1       21 0.92237922E-01 0.46642707E+03</pdfrwt>
<pdfrwt beam="2">  1       21 0.21327136E+00 0.46642707E+03</pdfrwt>
<totfact> 0.86075736E+01</totfact>
</mgrwt>
</event>
<event>
 4    1  0.4656822E-002  0.5141302E+03  0.7818608E-02  0.1010155E+00
         21   -1    0    0  501  502  0.00000000000E+00  0.00000000000E+00  0.11899917789E+04  0.11899917789E+04  0.00000000000E+00 0.  1.
         21   -1    0    0  502  503 -0.00000000000E+00 -0.00000000000E+00 -0.31216049375E+03  0.31216049375E+03  0.00000000000E+00 0. -1.
    9000007    1    1    2  501    0 -0.30794226449E+03 -0.97475231251E+02  0.35552770538E+02  0.51535799058E+03  0.40000000000E+03 0. -1.
   -9000007    1    1    2    0  503  0.30794226449E+03  0.97475231251E+02  0.84227851462E+03  0.98679428208E+03  0.40000000000E+03 0.  1.
<mgrwt>
<rscale>  2 0.51413020E+03</rscale>
<asrwt>0</asrwt>
<pdfrwt beam="1">  1       21 0.18307566E+00 0.51413020E+03</pdfrwt>
<pdfrwt beam="2">  1       21 0.48024692E-01 0.51413020E+03</pdfrwt>
<totfact> 0.57978362E+02</totfact>
</mgrwt>
</event>
<event>
 4    1  0.4656822E-002  0.4335614E+03  0.7818608E-02  0.1032741E+00
         21   -1    0    0  503  502  0.00000000000E+00  0.00000000000E+00  0.13240649594E+03  0.13240649594E+03  0.00000000000E+00 0. -1.
         21   -1    0    0  501  503 -0.00000000000E+00 -0.00000000000E+00 -0.21901242057E+04  0.21901242057E+04  0.00000000000E+00 0.  1.
    9000007    1    1    2  501    0  0.10709842561E+03 -0.12847345472E+03 -0.17176163128E+04  0.17714912643E+04  0.40000000000E+03 0.  1.
   -9000007    1    1    2    0  502 -0.10709842561E+03  0.12847345472E+03 -0.34010139695E+03  0.55103943738E+03  0.40000000000E+03 0. -1.
<mgrwt>
<rscale>  2 0.43356142E+03</rscale>
<asrwt>0</asrwt>
<pdfrwt beam="1">  1       21 0.20370230E-01 0.43356142E+03</pdfrwt>
<pdfrwt beam="2">  1       21 0.33694218E+00 0.43356142E+03</pdfrwt>
<totfact> 0.36824762E+02</totfact>
</mgrwt>
</event>
<event>
 4    1  0.4656822E-002  0.6908604E+03  0.7818608E-02  0.9732991E-01
         21   -1    0    0  503  502  0.00000000000E+00  0.00000000000E+00  0.50888850963E+03  0.50888850963E+03  0.00000000000E+00 0.  1.
         21   -1    0    0  501  503 -0.00000000000E+00 -0.00000000000E+00 -0.16198280193E+04  0.16198280193E+04  0.00000000000E+00 0. -1.
    9000007    1    1    2  501    0  0.50561495904E+03 -0.24827714241E+03 -0.12460620307E+04  0.14247661599E+04  0.40000000000E+03 0. -1.
   -9000007    1    1    2    0  502 -0.50561495904E+03  0.24827714241E+03  0.13512252104E+03  0.70395036895E+03  0.40000000000E+03 0.  1.
<mgrwt>
<rscale>  2 0.69086035E+03</rscale>
<asrwt>0</asrwt>
<pdfrwt beam="1">  1       21 0.78290539E-01 0.69086035E+03</pdfrwt>
<pdfrwt beam="2">  1       21 0.24920431E+00 0.69086035E+03</pdfrwt>
<totfact> 0.67366765E+01</totfact>
</mgrwt>
</event>
<event>
 4    1  0.4656822E-002  0.4598899E+03  0.7818608E-02  0.1024813E+00
         21   -1    0    0  503  502  0.00000000000E+00  0.00000000000E+00  0.48169239334E+03  0.48169239334E+03  0.00000000000E+00 0.  1.
         21   -1    0    0  501  503 -0.00000000000E+00 -0.00000000000E+00 -0.81950989669E+03  0.81950989669E+03  0.00000000000E+00 0. -1.
    9000007    1    1    2  501    0  0.64241758213E+02  0.21765051181E+03 -0.61218891490E+03  0.76568532460E+03  0.40000000000E+03 0. -1.
   -9000007    1    1    2    0  502 -0.64241758213E+02 -0.21765051181E+03  0.27437141155E+03  0.53551696543E+03  0.40000000000E+03 0.  1.
<mgrwt>
<rscale>  2 0.45988993E+03</rscale>
<asrwt>0</asrwt>
<pdfrwt beam="1">  1       21 0.74106523E-01 0.45988993E+03</pdfrwt>
<pdfrwt beam="2">  1       21 0.12607844E+00 0.45988993E+03</pdfrwt>
<totfact> 0.63782295E+02</totfact>
</mgrwt>
</event>
<event>
 4    1  0.4656822E-002  0.4926204E+03  0.7818608E-02  0.1015723E+00
         21   -1    0    0  501  502  0.00000000000E+00  0.00000000000E+00  0.62442719263E+03  0.62442719263E+03  0.00000000000E+00 0.  1.
         21   -1    0    0  502  503 -0.00000000000E+00 -0.00000000000E+00 -0.59092329632E+03  0.59092329632E+03  0.00000000000E+00 0.  1.
    9000007    1    1    2  501    0  0.28459730517E+03  0.40978477383E+02  0.37229347729E+03  0.61747655417E+03  0.40000000000E+03 0.  1.
   -9000007    1    1    2    0  503 -0.28459730517E+03 -0.40978477383E+02 -0.33878958097E+03  0.59787393478E+03  0.40000000000E+03 0.  1.
<mgrwt>
<rscale>  2 0.49262040E+03</rscale>
<asrwt>0</asrwt>
<pdfrwt beam="1">  1       21 0.96065721E-01 0.49262040E+03</pdfrwt>
<pdfrwt beam="2">  1       21 0.90911277E-01 0.49262040E+03</pdfrwt>
<totfact> 0.76971979E+02</totfact>
</mgrwt>
</event>
<event>
 4    1  0.4656822E-002  0.5415555E+03  0.7818608E-02  0.1003468E+00
         21   -1    0    0  501  502  0.00000000000E+00  0.00000000000E+00  0.24940018847E+03  0.24940018847E+03  0.00000000000E+00 0. -1.
         21   -1    0    0  502  503 -0.00000000000E+00 -0.00000000000E+00 -0.13680170681E+04  0.13680170681E+04  0.00000000000E+00 0. -1.
    9000007    1    1    2  501    0  0.22359010125E+03  0.28859980785E+03 -0.25628813840E+03  0.59913770733E+03  0.40000000000E+03 0. -1.
   -9000007    1    1    2    0  503 -0.22359010125E+03 -0.28859980785E+03 -0.86232874126E+03  0.10182795493E+04  0.40000000000E+03 0. -1.
<mgrwt>
<rscale>  2 0.54155552E+03</rscale>
<asrwt>0</asrwt>
<pdfrwt beam="1">  1       21 0.38369259E-01 0.54155552E+03</pdfrwt>
<pdfrwt beam="2">  1       21 0.21046417E+00 0.54155552E+03</pdfrwt>
<totfact> 0.59774515E+02</totfact>
</mgrwt>
</event>
<event>
 4    1  0.4656822E-002  0.5969419E+03  0.7818608E-02  0.9911771E-01
         21   -1    0    0  503  502  0.00000000000E+00  0.00000000000E+00  0.21212505353E+03  0.21212505353E+03  0.00000000000E+00 0. -1.
         21   -1    0    0  501  503 -0.00000000000E+00 -0.00000000000E+00 -0.21616224206E+04  0.21616224206E+04  0.00000000000E+00 0.  1.
    9000007    1    1    2  501    0  0.28757563102E+02  0.44216815454E+03 -0.15350641207E+04  0.16470463044E+04  0.40000000000E+03 0.  1.
   -9000007    1    1    2    0  502 -0.28757563102E+02 -0.44216815454E+03 -0.41443324636E+03  0.72670116968E+03  0.40000000000E+03 0. -1.
<mgrwt>
<rscale>  2 0.59694194E+03</rscale>
<asrwt>0</asrwt>
<pdfrwt beam="1">  1       21 0.32634624E-01 0.59694194E+03</pdfrwt>
<pdfrwt beam="2">  1       21 0.33255729E+00 0.59694194E+03</pdfrwt>
<totfact> 0.14221134E+02</totfact>
</mgrwt>
</event>
<event>
 4    1  0.4656822E-002  0.6263484E+03  0.7818608E-02  0.9852201E-01
         21   -1    0    0  503  502  0.00000000000E+00  0.00000000000E+00  0.27814981615E+03  0.27814981615E+03  0.00000000000E+00 0.  1.
         21   -1    0    0  501  503 -0.00000000000E+00 -0.00000000000E+00 -0.14113168664E+04  0.14113168664E+04  0.00000000000E+00 0.  1.
    9000007    1    1    2  501    0 -0.47960344913E+03 -0.47883890782E+02 -0.54547194748E+03  0.83057328448E+03  0.40000000000E+03 0.  1.
   -9000007    1    1    2    0  502  0.47960344913E+03  0.47883890782E+02 -0.58769510272E+03  0.85889339803E+03  0.40000000000E+03 0.  1.
<mgrwt>
<rscale>  2 0.62634841E+03</rscale>
<asrwt>0</asrwt>
<pdfrwt beam="1">  1       21 0.42792280E-01 0.62634841E+03</pdfrwt>
<pdfrwt beam="2">  1       21 0.21712567E+00 0.62634841E+03</pdfrwt>
<totfact> 0.41748844E+02</totfact>
</mgrwt>
</event>
<event>
 4    1  0.4656822E-002  0.4443124E+03  0.7818608E-02  0.1029432E+00
         21   -1    0    0  503  502  0.00000000000E+00  0.00000000000E+00  0.67231932514E+03  0.67231932514E+03  0.00000000000E+00 0.  1.
         21   -1    0    0  501  503 -0.00000000000E+00 -0.00000000000E+00 -0.30216493377E+03  0.30216493377E+03  0.00000000000E+00 0.  1.
    9000007    1    1    2  501    0 -0.12497569422E+03  0.14762993867E+03  0.10319155329E+03  0.45613815846E+03  0.40000000000E+03 0.  1.
   -9000007    1    1    2    0  502  0.12497569422E+03 -0.14762993867E+03  0.26696283808E+03  0.51834610045E+03  0.40000000000E+03 0.  1.
<mgrwt>
<rscale>  2 0.44431242E+03</rscale>
<asrwt>0</asrwt>
<pdfrwt beam="1">  1       21 0.10343374E+00 0.44431242E+03</pdfrwt>
<pdfrwt beam="2">  1       21 0.46486913E-01 0.44431242E+03</pdfrwt>
<totfact> 0.29220185E+03</totfact>
</mgrwt>
</event>
<event>
 4    1  0.4656822E-002  0.5122116E+03  0.7818608E-02  0.1010640E+00
         21   -1    0    0  501  502  0.00000000000E+00  0.00000000000E+00  0.20749834585E+03  0.20749834585E+03  0.00000000000E+00 0. -1.
         21   -1    0    0  502  503 -0.00000000000E+00 -0.00000000000E+00 -0.13589549815E+04  0.13589549815E+04  0.00000000000E+00 0. -1.
    9000007    1    1    2  501    0 -0.31662614091E+03  0.45919243247E+02 -0.36912868089E+03  0.63136096891E+03  0.40000000000E+03 0. -1.
   -9000007    1    1    2    0  503  0.31662614091E+03 -0.45919243247E+02 -0.78232795478E+03  0.93509235845E+03  0.40000000000E+03 0. -1.
<mgrwt>
<rscale>  2 0.51221157E+03</rscale>
<asrwt>0</asrwt>
<pdfrwt beam="1">  1       21 0.31922823E-01 0.51221157E+03</pdfrwt>
<pdfrwt beam="2">  1       21 0.20906999E+00 0.51221157E+03</pdfrwt>
<totfact> 0.89742706E+02</totfact>
</mgrwt>
</event>
<event>
 4    1  0.4656822E-002  0.4042628E+03  0.7818608E-02  0.1042314E+00
         21   -1    0    0  503  502  0.00000000000E+00  0.00000000000E+00  0.13174638572E+04  0.13174638572E+04  0.00000000000E+00 0. -1.
         21   -1    0    0  501  503 -0.00000000000E+00 -0.00000000000E+00 -0.13351106406E+03  0.13351106406E+03  0.00000000000E+00 0. -1.
    9000007    1    1    2  501    0  0.58530311997E+02 -0.16045437056E+01  0.78512602198E+03  0.88309186519E+03  0.40000000000E+03 0. -1.
   -9000007    1    1    2    0  502 -0.58530311997E+02  0.16045437056E+01  0.39882677119E+03  0.56788305610E+03  0.40000000000E+03 0. -1.
<mgrwt>
<rscale>  2 0.40426275E+03</rscale>
<asrwt>0</asrwt>
<pdfrwt beam="1">  1       21 0.20268674E+00 0.40426275E+03</pdfrwt>
<pdfrwt beam="2">  1       21 0.20540165E-01 0.40426275E+03</pdfrwt>
<totfact> 0.24520413E+03</totfact>
</mgrwt>
</event>
<event>
 4    1  0.4656822E-002  0.5751649E+03  0.7818608E-02  0.9958314E-01
         21   -1    0    0  501  502  0.00000000000E+00  0.00000000000E+00  0.38686036498E+03  0.38686036498E+03  0.00000000000E+00 0.  1.
         21   -1    0    0  502  503 -0.00000000000E+00 -0.00000000000E+00 -0.97368458647E+03  0.97368458647E+03  0.00000000000E+00 0.  1.
    9000007    1    1    2  501    0 -0.12032119938E+03  0.39539534065E+03 -0.56035026625E+02  0.57788804334E+03  0.40000000000E+03 0.  1.
   -9000007    1    1    2    0  503  0.12032119938E+03 -0.39539534065E+03 -0.53078919486E+03  0.78265690811E+03  0.40000000000E+03 0.  1.
<mgrwt>
<rscale>  2 0.57516490E+03</rscale>
<asrwt>0</asrwt>
<pdfrwt beam="1">  1       21 0.59516980E-01 0.57516490E+03</pdfrwt>
<pdfrwt beam="2">  1       21 0.14979763E+00 0.57516490E+03</pdfrwt>
<totfact> 0.63070564E+02</totfact>
</mgrwt>
</event>
<event>
 4    1  0.4656822E-002  0.4320741E+03  0.7818608E-02  0.1033207E+00
         21   -1    0    0  503  502  0.00000000000E+00  0.00000000000E+00  0.17364841902E+04  0.17364841902E+04  0.00000000000E+00 0.  1.
         21   -1    0    0  501  503 -0.00000000000E+00 -0.00000000000E+00 -0.11180243954E+03  0.11180243954E+03  0.00000000000E+00 0. -1.
    9000007    1    1    2  501    0  0.16000811048E+03 -0.32945842907E+02  0.63124593850E+03  0.76495716145E+03  0.40000000000E+03 0.  1.
   -9000007    1    1    2    0  502 -0.16000811048E+03  0.32945842907E+02  0.99343581216E+03  0.10833294683E+04  0.40000000000E+03 0. -1.
<mgrwt>
<rscale>  2 0.43207410E+03</rscale>
<asrwt>0</asrwt>
<pdfrwt beam="1">  1       21 0.26715139E+00 0.43207410E+03</pdfrwt>
<pdfrwt beam="2">  1       21 0.17200377E-01 0.43207410E+03</pdfrwt>
<totfact> 0.13355287E+03</totfact>
</mgrwt>
</event>
<event>
 4    1  0.4656822E-002  0.5415064E+03  0.7818608E-02  0.1003479E+00
         21   -1    0    0  503  502  0.00000000000E+00  0.00000000000E+00  0.78030849883E+03  0.78030849883E+03  0.00000000000E+00 0.  1.
         21   -1    0    0  501  503 -0.00000000000E+00 -0.00000000000E+00 -0.40346678207E+03  0.40346678207E+03  0.00000000000E+00 0.  1.
    9000007    1    1    2  501    0  0.36382646165E+03  0.29317646178E+02  0.33388463595E+02  0.54253479895E+03  0.40000000000E+03 0.  1.
   -9000007    1    1    2    0  502 -0.36382646165E+03 -0.29317646178E+02  0.34345325317E+03  0.64124048195E+03  0.40000000000E+03 0.  1.
<mgrwt>
<rscale>  2 0.54150643E+03</rscale>
<asrwt>0</asrwt>
<pdfrwt beam="1">  1       21 0.12004746E+00 0.54150643E+03</pdfrwt>
<pdfrwt beam="2">  1       21 0.62071813E-01 0.54150643E+03</pdfrwt>
<totfact> 0.10437784E+03</totfact>
</mgrwt>
</event>
<event>
 4    1  0.4656822E-002  0.5373268E+03  0.7818608E-02  0.1004471E+00
         21   -1    0    0  501  502  0.00000000000E+00  0.00000000000E+00  0.65066131710E+03  0.65066131710E+03  0.00000000000E+00 0. -1.
         21   -1    0    0  502  503 -0.00000000000E+00 -0.00000000000E+00 -0.44377478921E+03  0.44377478921E+03  0.00000000000E+00 0.  1.
    9000007    1    1    2  501    0 -0.28666868501E+03  0.21573406670E+03  0.98155005397E+02  0.54621838818E+03  0.40000000000E+03 0.  1.
   -9000007    1    1    2    0  503  0.28666868501E+03 -0.21573406670E+03  0.10873152250E+03  0.54821771814E+03  0.40000000000E+03 0. -1.
<mgrwt>
<rscale>  2 0.53732683E+03</rscale>
<asrwt>0</asrwt>
<pdfrwt beam="1">  1       21 0.10010174E+00 0.53732683E+03</pdfrwt>
<pdfrwt beam="2">  1       21 0.68273044E-01 0.53732683E+03</pdfrwt>
<totfact> 0.13296059E+03</totfact>
</mgrwt>
</event>
<event>
 4    1  0.4656822E-002  0.4985786E+03  0.7818608E-02  0.1014151E+00
         21   -1    0    0  501  502  0.00000000000E+00  0.00000000000E+00  0.12795943753E+04  0.12795943753E+04  0.00000000000E+00 0.  1.
         21   -1    0    0  502  503 -0.00000000000E+00 -0.00000000000E+00 -0.19456020367E+03  0.19456020367E+03  0.00000000000E+00 0.  1.
    9000007    1    1    2  501    0  0.26317003519E+03 -0.13900406899E+03  0.51381367864E+03  0.71595048361E+03  0.40000000000E+03 0. -1.
   -9000007    1    1    2    0  503 -0.26317003519E+03  0.13900406899E+03  0.57122049296E+03  0.75820409535E+03  0.40000000000E+03 0. -1.
<mgrwt>
<rscale>  2 0.49857858E+03</rscale>
<asrwt>0</asrwt>
<pdfrwt beam="1">  1       21 0.19686067E+00 0.49857858E+03</pdfrwt>
<pdfrwt beam="2">  1       21 0.29932340E-01 0.49857858E+03</pdfrwt>
<totfact> 0.12373585E+03</totfact>
</mgrwt>
</event>
<event>
 4    1  0.4656822E-002  0.4025942E+03  0.7818608E-02  0.1042885E+00
         21   -1    0    0  501  502  0.00000000000E+00  0.00000000000E+00  0.83212322023E+03  0.83212322023E+03  0.00000000000E+00 0.  1.
         21   -1    0    0  502  503 -0.00000000000E+00 -0.00000000000E+00 -0.28655739583E+03  0.28655739583E+03  0.00000000000E+00 0.  1.
    9000007    1    1    2  501    0  0.39951256770E+02  0.22045813425E+02 -0.43761661685E+02  0.40496568230E+03  0.40000000000E+03 0.  1.
   -9000007    1    1    2    0  503 -0.39951256770E+02 -0.22045813425E+02  0.58932748609E+03  0.71371493376E+03  0.40000000000E+03 0.  1.
<mgrwt>
<rscale>  2 0.40259424E+03</rscale>
<asrwt>0</asrwt>
<pdfrwt beam="1">  1       21 0.12801896E+00 0.40259424E+03</pdfrwt>
<pdfrwt beam="2">  1       21 0.44085754E-01 0.40259424E+03</pdfrwt>
<totfact> 0.19444581E+03</totfact>
</mgrwt>
</event>
<event>
 4    1  0.4656822E-002  0.5167655E+03  0.7818608E-02  0.1009493E+00
         21   -1    0    0  503  502  0.00000000000E+00  0.00000000000E+00  0.13372015981E+04  0.13372015981E+04  0.00000000000E+00 0.  1.
         21   -1    0    0  501  503 -0.00000000000E+00 -0.00000000000E+00 -0.22663577308E+03  0.22663577308E+03  0.00000000000E+00 0.  1.
    9000007    1    1    2  501    0 -0.30391288834E+03 -0.12117556756E+03  0.28574649653E+03  0.59050624226E+03  0.40000000000E+03 0.  1.
   -9000007    1    1    2    0  502  0.30391288834E+03  0.12117556756E+03  0.82481932846E+03  0.97333112889E+03  0.40000000000E+03 0.  1.
<mgrwt>
<rscale>  2 0.51676548E+03</rscale>
<asrwt>0</asrwt>
<pdfrwt beam="1">  1       21 0.20572332E+00 0.51676548E+03</pdfrwt>
<pdfrwt beam="2">  1       21 0.34867043E-01 0.51676548E+03</pdfrwt>
<totfact> 0.78876016E+02</totfact>
</mgrwt>
</event>
<event>
 4    1  0.4656822E-002  0.6343433E+03  0.7818608E-02  0.9836610E-01
         21   -1    0    0  503  502  0.00000000000E+00  0.00000000000E+00  0.32964024126E+03  0.32964024126E+03  0.00000000000E+00 0. -1.
         21   -1    0    0  501  503 -0.00000000000E+00 -0.00000000000E+00 -0.13580960061E+04  0.13580960061E+04  0.00000000000E+00 0. -1.
    9000007    1    1    2  501    0 -0.38046758486E+03 -0.31246730485E+03 -0.24581798677E+03  0.68030719705E+03  0.40000000000E+03 0. -1.
   -9000007    1    1    2    0  502  0.38046758486E+03  0.31246730485E+03 -0.78263777803E+03  0.10074290503E+04  0.40000000000E+03 0. -1.
<mgrwt>
<rscale>  2 0.63434328E+03</rscale>
<asrwt>0</asrwt>
<pdfrwt beam="1">  1       21 0.50713882E-01 0.63434328E+03</pdfrwt>
<pdfrwt beam="2">  1       21 0.20893785E+00 0.63434328E+03</pdfrwt>
<totfact> 0.32873855E+02</totfact>
</mgrwt>
</event>
<event>
 4    1  0.4656822E-002  0.5351441E+03  0.7818608E-02  0.1004992E+00
         21   -1    0    0  501  502  0.00000000000E+00  0.00000000000E+00  0.12411677359E+04  0.12411677359E+04  0.00000000000E+00 0. -1.
         21   -1    0    0  502  503 -0.00000000000E+00 -0.00000000000E+00 -0.88572484332E+03  0.88572484332E+03  0.00000000000E+00 0. -1.
    9000007    1    1    2  501    0  0.33849071713E+03 -0.10864295517E+03  0.10922217460E+04  0.12162761198E+04  0.40000000000E+03 0. -1.
   -9000007    1    1    2    0  503 -0.33849071713E+03  0.10864295517E+03 -0.73677885340E+03  0.91061645939E+03  0.40000000000E+03 0. -1.
<mgrwt>
<rscale>  2 0.53514415E+03</rscale>
<asrwt>0</asrwt>
<pdfrwt beam="1">  1       21 0.19094888E+00 0.53514415E+03</pdfrwt>
<pdfrwt beam="2">  1       21 0.13626536E+00 0.53514415E+03</pdfrwt>
<totfact> 0.43945708E+01</totfact>
</mgrwt>
</event>
<event>
 4    1  0.4656822E-002  0.5837770E+03  0.7818608E-02  0.9939647E-01
         21   -1    0    0  503  502  0.00000000000E+00  0.00000000000E+00  0.39929223009E+03  0.39929223009E+03  0.00000000000E+00 0. -1.
         21   -1    0    0  501  503 -0.00000000000E+00 -0.00000000000E+00 -0.91011778563E+03  0.91011778563E+03  0.00000000000E+00 0. -1.
    9000007    1    1    2  501    0  0.31042323206E+03 -0.29057362682E+03 -0.41870902727E+03  0.71840995617E+03  0.40000000000E+03 0. -1.
   -9000007    1    1    2    0  502 -0.31042323206E+03  0.29057362682E+03 -0.92116528276E+02  0.59100005955E+03  0.40000000000E+03 0. -1.
<mgrwt>
<rscale>  2 0.58377703E+03</rscale>
<asrwt>0</asrwt>
<pdfrwt beam="1">  1       21 0.61429574E-01 0.58377703E+03</pdfrwt>
<pdfrwt beam="2">  1       21 0.14001812E+00 0.58377703E+03</pdfrwt>
<totfact> 0.70419195E+02</totfact>
</mgrwt>
</event>
<event>
 4    1  0.4656822E-002  0.5343118E+03  0.7818608E-02  0.1005192E+00
         21   -1    0    0  503  502  0.00000000000E+00  0.00000000000E+00  0.15386760906E+03  0.15386760906E+03  0.00000000000E+00 0. -1.
         21   -1    0    0  501  503 -0.00000000000E+00 -0.00000000000E+00 -0.21022990546E+04  0.21022990546E+04  0.00000000000E+00 0.  1.
    9000007    1    1    2  501    0 -0.77764172745E+02 -0.34560354442E+03 -0.13607925743E+04  0.14619321143E+04  0.40000000000E+03 0. -1.
   -9000007    1    1    2    0  502  0.77764172745E+02  0.34560354442E+03 -0.58763887128E+03  0.79423454943E+03  0.40000000000E+03 0. -1.
<mgrwt>
<rscale>  2 0.53431178E+03</rscale>
<asrwt>0</asrwt>
<pdfrwt beam="1">  1       21 0.23671942E-01 0.53431178E+03</pdfrwt>
<pdfrwt beam="2">  1       21 0.32343060E+00 0.53431178E+03</pdfrwt>
<totfact> 0.31486931E+02</totfact>
</mgrwt>
</event>
<event>
 4    1  0.4656822E-002  0.4056687E+03  0.7818608E-02  0.1041834E+00
         21   -1    0    0  501  502  0.00000000000E+00  0.00000000000E+00  0.74993720323E+03  0.74993720323E+03  0.00000000000E+00 0. -1.
         21   -1    0    0  502  503 -0.00000000000E+00 -0.00000000000E+00 -0.10943823716E+04  0.10943823716E+04  0.00000000000E+00 0. -1.
    9000007    1    1    2  501    0 -0.64852962332E+02  0.19004569906E+02  0.65231617494E+03  0.76816890883E+03  0.40000000000E+03 0. -1.
   -9000007    1    1    2    0  503  0.64852962332E+02 -0.19004569906E+02 -0.99676134327E+03  0.10761506660E+04  0.40000000000E+03 0. -1.
<mgrwt>
<rscale>  2 0.40566868E+03</rscale>
<asrwt>0</asrwt>
<pdfrwt beam="1">  1       21 0.11537496E+00 0.40566868E+03</pdfrwt>
<pdfrwt beam="2">  1       21 0.16836652E+00 0.40566868E+03</pdfrwt>
<totfact> 0.10477933E+02</totfact>
</mgrwt>
</event>
<event>
 4    1  0.4656822E-002  0.4334178E+03  0.7818608E-02  0.1032786E+00
         21   -1    0    0  503  502  0.00000000000E+00  0.00000000000E+00  0.90949206766E+03  0.90949206766E+03  0.00000000000E+00 0. -1.
         21   -1    0    0  501  503 -0.00000000000E+00 -0.00000000000E+00 -0.31627746457E+03  0.31627746457E+03  0.00000000000E+00 0. -1.
    9000007    1    1    2  501    0 -0.15065622150E+03  0.71789109234E+02  0.65761163264E+03  0.78759382467E+03  0.40000000000E+03 0. -1.
   -9000007    1    1    2    0  502  0.15065622150E+03 -0.71789109234E+02 -0.64397029538E+02  0.43817570756E+03  0.40000000000E+03 0. -1.
<mgrwt>
<rscale>  2 0.43341778E+03</rscale>
<asrwt>0</asrwt>
<pdfrwt beam="1">  1       21 0.13992186E+00 0.43341778E+03</pdfrwt>
<pdfrwt beam="2">  1       21 0.48658072E-01 0.43341778E+03</pdfrwt>
<totfact> 0.12364182E+03</totfact>
</mgrwt>
</event>
<event>
 4    1  0.4656822E-002  0.6081383E+03  0.7818608E-02  0.9888664E-01
         21   -1    0    0  501  502  0.00000000000E+00  0.00000000000E+00  0.14858425835E+04  0.14858425835E+04  0.00000000000E+00 0.  1.
         21   -1    0    0  502  503 -0.00000000000E+00 -0.00000000000E+00 -0.29888984328E+03  0.29888984328E+03  0.00000000000E+00 0.  1.
    9000007    1    1    2  501    0  0.17437437796E+03 -0.42358683303E+03  0.95840745446E+03  0.11350669925E+04  0.40000000000E+03 0.  1.
   -9000007    1    1    2    0  503 -0.17437437796E+03  0.42358683303E+03  0.22854528576E+03  0.64966543424E+03  0.40000000000E+03 0.  1.
<mgrwt>
<rscale>  2 0.60813833E+03</rscale>
<asrwt>0</asrwt>
<pdfrwt beam="1">  1       21 0.22859116E+00 0.60813833E+03</pdfrwt>
<pdfrwt beam="2">  1       21 0.45983054E-01 0.60813833E+03</pdfrwt>
<totfact> 0.30468757E+02</totfact>
</mgrwt>
</event>
<event>
 4    1  0.4656822E-002  0.6638879E+03  0.7818608E-02  0.9781063E-01
         21   -1    0    0  503  502  0.00000000000E+00  0.00000000000E+00  0.91799812281E+03  0.91799812281E+03  0.00000000000E+00 0. -1.
         21   -1    0    0  501  503 -0.00000000000E+00 -0.00000000000E+00 -0.65337438074E+03  0.65337438074E+03  0.00000000000E+00 0.  1.
    9000007    1    1    2  501    0  0.49490062358E+03  0.18926324916E+03 -0.27227614956E+03  0.71755244151E+03  0.40000000000E+03 0.  1.
   -9000007    1    1    2    0  502 -0.49490062358E+03 -0.18926324916E+03  0.53689989163E+03  0.85382006203E+03  0.40000000000E+03 0. -1.
<mgrwt>
<rscale>  2 0.66388795E+03</rscale>
<asrwt>0</asrwt>
<pdfrwt beam="1">  1       21 0.14123048E+00 0.66388795E+03</pdfrwt>
<pdfrwt beam="2">  1       21 0.10051913E+00 0.66388795E+03</pdfrwt>
<totfact> 0.21330584E+02</totfact>
</mgrwt>
</event>
<event>
 4    1  0.4656822E-002  0.4671158E+03  0.7818608E-02  0.1022737E+00
         21   -1    0    0  501  502  0.00000000000E+00  0.00000000000E+00  0.19765387950E+03  0.19765387950E+03  0.00000000000E+00 0. -1.
         21   -1    0    0  502  503 -0.00000000000E+00 -0.00000000000E+00 -0.17085811332E+04  0.17085811332E+04  0.00000000000E+00 0.  1.
    9000007    1    1    2  501    0 -0.66652166979E+02  0.23185049270E+03 -0.18846885715E+03  0.50370395317E+03  0.40000000000E+03 0. -1.
   -9000007    1    1    2    0  503  0.66652166979E+02 -0.23185049270E+03 -0.13224583966E+04  0.14025310595E+04  0.40000000000E+03 0.  1.
<mgrwt>
<rscale>  2 0.46711579E+03</rscale>
<asrwt>0</asrwt>
<pdfrwt beam="1">  1       21 0.30408289E-01 0.46711579E+03</pdfrwt>
<pdfrwt beam="2">  1       21 0.26285864E+00 0.46711579E+03</pdfrwt>
<totfact> 0.46365202E+02</totfact>
</mgrwt>
</event>
<event>
 4    1  0.4656822E-002  0.7334922E+03  0.7818608E-02  0.9661610E-01
         21   -1    0    0  503  502  0.00000000000E+00  0.00000000000E+00  0.49751339478E+03  0.49751339478E+03  0.00000000000E+00 0. -1.
         21   -1    0    0  501  503 -0.00000000000E+00 -0.00000000000E+00 -0.12109184692E+04  0.12109184692E+04  0.00000000000E+00 0.  1.
    9000007    1    1    2  501    0  0.47649564342E+03 -0.38853919966E+03 -0.63607054086E+03  0.97087411173E+03  0.40000000000E+03 0.  1.
   -9000007    1    1    2    0  502 -0.47649564342E+03  0.38853919966E+03 -0.77334533588E+02  0.73755775229E+03  0.40000000000E+03 0. -1.
<mgrwt>
<rscale>  2 0.73349220E+03</rscale>
<asrwt>0</asrwt>
<pdfrwt beam="1">  1       21 0.76540523E-01 0.73349220E+03</pdfrwt>
<pdfrwt beam="2">  1       21 0.18629515E+00 0.73349220E+03</pdfrwt>
<totfact> 0.18146978E+02</totfact>
</mgrwt>
</event>
<event>
 4    1  0.4656822E-002  0.6060855E+03  0.7818608E-02  0.9892860E-01
         21   -1    0    0  503  502  0.00000000000E+00  0.00000000000E+00  0.12616963599E+04  0.12616963599E+04  0.00000000000E+00 0.  1.
         21   -1    0    0  501  503 -0.00000000000E+00 -0.00000000000E+00 -0.35151807169E+03  0.35151807169E+03  0.00000000000E+00 0.  1.
    9000007    1    1    2  501    0 -0.30088360447E+03  0.34177290992E+03  0.12081627126E+03  0.61800990024E+03  0.40000000000E+03 0.  1.
   -9000007    1    1    2    0  502  0.30088360447E+03 -0.34177290992E+03  0.78936201691E+03  0.99520453131E+03  0.40000000000E+03 0.  1.
<mgrwt>
<rscale>  2 0.60608553E+03</rscale>
<asrwt>0</asrwt>
<pdfrwt beam="1">  1       21 0.19410713E+00 0.60608553E+03</pdfrwt>
<pdfrwt beam="2">  1       21 0.54079704E-01 0.60608553E+03</pdfrwt>
<totfact> 0.36381861E+02</totfact>
</mgrwt>
</event>
<event>
 4    1  0.4656822E-002  0.4056850E+03  0.7818608E-02  0.1041829E+00
         21   -1    0    0  501  502  0.00000000000E+00  0.00000000000E+00  0.38787144033E+03  0.38787144033E+03  0.00000000000E+00 0. -1.
         21   -1    0    0  502  503 -0.00000000000E+00 -0.00000000000E+00 -0.43411990037E+03  0.43411990037E+03  0.00000000000E+00 0. -1.
    9000007    1    1    2  501    0  0.36353047151E+02 -0.57085887415E+02  0.38636951713E+02  0.40752074379E+03  0.40000000000E+03 0. -1.
   -9000007    1    1    2    0  503 -0.36353047151E+02  0.57085887415E+02 -0.84885411750E+02  0.41447059692E+03  0.40000000000E+03 0. -1.
<mgrwt>
<rscale>  2 0.40568503E+03</rscale>
<asrwt>0</asrwt>
<pdfrwt beam="1">  1       21 0.59672529E-01 0.40568503E+03</pdfrwt>
<pdfrwt beam="2">  1       21 0.66787677E-01 0.40568503E+03</pdfrwt>
<totfact> 0.48084044E+03</totfact>
</mgrwt>
</event>
<event>
 4    1  0.4656822E-002  0.4799204E+03  0.7818608E-02  0.1019157E+00
         21   -1    0    0  501  502  0.00000000000E+00  0.00000000000E+00  0.22411211921E+03  0.22411211921E+03  0.00000000000E+00 0.  1.
         21   -1    0    0  502  503 -0.00000000000E+00 -0.00000000000E+00 -0.10313494721E+04  0.10313494721E+04  0.00000000000E+00 0.  1.
    9000007    1    1    2  501    0 -0.19192340114E+03  0.18300000066E+03 -0.36635923223E+03  0.60377369865E+03  0.40000000000E+03 0.  1.
   -9000007    1    1    2    0  503  0.19192340114E+03 -0.18300000066E+03 -0.44087812063E+03  0.65168789263E+03  0.40000000000E+03 0.  1.
<mgrwt>
<rscale>  2 0.47992040E+03</rscale>
<asrwt>0</asrwt>
<pdfrwt beam="1">  1       21 0.34478787E-01 0.47992040E+03</pdfrwt>
<pdfrwt beam="2">  1       21 0.15866915E+00 0.47992040E+03</pdfrwt>
<totfact> 0.17585152E+03</totfact>
</mgrwt>
</event>
<event>
 4    1  0.4656822E-002  0.4062942E+03  0.7818608E-02  0.1041622E+00
         21   -1    0    0  503  502  0.00000000000E+00  0.00000000000E+00  0.27381868499E+03  0.27381868499E+03  0.00000000000E+00 0.  1.
         21   -1    0    0  501  503 -0.00000000000E+00 -0.00000000000E+00 -0.60371262009E+03  0.60371262009E+03  0.00000000000E+00 0.  1.
    9000007    1    1    2  501    0 -0.46191466315E+02  0.54233863979E+02 -0.14848023394E+03  0.43257524598E+03  0.40000000000E+03 0.  1.
   -9000007    1    1    2    0  502  0.46191466315E+02 -0.54233863979E+02 -0.18141370116E+03  0.44495605910E+03  0.40000000000E+03 0.  1.
<mgrwt>
<rscale>  2 0.40629418E+03</rscale>
<asrwt>0</asrwt>
<pdfrwt beam="1">  1       21 0.42125952E-01 0.40629418E+03</pdfrwt>
<pdfrwt beam="2">  1       21 0.92878863E-01 0.40629418E+03</pdfrwt>
<totfact> 0.47193652E+03</totfact>
</mgrwt>
</event>
<event>
 4    1  0.4656822E-002  0.4107688E+03  0.7818608E-02  0.1040113E+00
         21   -1    0    0  503  502  0.00000000000E+00  0.00000000000E+00  0.81372475559E+03  0.81372475559E+03  0.00000000000E+00 0. -1.
         21   -1    0    0  501  503 -0.00000000000E+00 -0.00000000000E+00 -0.23635771096E+03  0.23635771096E+03  0.00000000000E+00 0. -1.
    9000007    1    1    2  501    0  0.49646017414E+02  0.79159921790E+02  0.10476838207E+03  0.42391913633E+03  0.40000000000E+03 0. -1.
   -9000007    1    1    2    0  502 -0.49646017414E+02 -0.79159921790E+02  0.47259866256E+03  0.62616333022E+03  0.40000000000E+03 0. -1.
<mgrwt>
<rscale>  2 0.41076882E+03</rscale>
<asrwt>0</asrwt>
<pdfrwt beam="1">  1       21 0.12518842E+00 0.41076882E+03</pdfrwt>
<pdfrwt beam="2">  1       21 0.36362725E-01 0.41076882E+03</pdfrwt>
<totfact> 0.30495595E+03</totfact>
</mgrwt>
</event>
<event>
 4    1  0.4656822E-002  0.6733452E+03  0.7818608E-02  0.9763933E-01
         21   -1    0    0  501  502  0.00000000000E+00  0.00000000000E+00  0.98459946374E+03  0.98459946374E+03  0.00000000000E+00 0. -1.
         21   -1    0    0  502  503 -0.00000000000E+00 -0.00000000000E+00 -0.51550587015E+03  0.51550587015E+03  0.00000000000E+00 0. -1.
    9000007    1    1    2  501    0  0.94782055823E+02 -0.53330115976E+03  0.47958666550E+03  0.82667837448E+03  0.40000000000E+03 0. -1.
   -9000007    1    1    2    0  503 -0.94782055823E+02  0.53330115976E+03 -0.10493071910E+02  0.67342695941E+03  0.40000000000E+03 0. -1.
<mgrwt>
<rscale>  2 0.67334521E+03</rscale>
<asrwt>0</asrwt>
<pdfrwt beam="1">  1       21 0.15147684E+00 0.67334521E+03</pdfrwt>
<pdfrwt beam="2">  1       21 0.79308595E-01 0.67334521E+03</pdfrwt>
<totfact> 0.30937935E+02</totfact>
</mgrwt>
</event>
<event>
 4    1  0.4656822E-002  0.4093711E+03  0.7818608E-02  0.1040582E+00
         21   -1    0    0  503  502  0.00000000000E+00  0.00000000000E+00  0.14263430581E+04  0.14263430581E+04  0.00000000000E+00 0.  1.
         21   -1    0    0  501  503 -0.00000000000E+00 -0.00000000000E+00 -0.15500272763E+03  0.15500272763E+03  0.00000000000E+00 0.  1.
    9000007    1    1    2  501    0 -0.86791736986E+02  0.72026010612E+01  0.24671303259E+03  0.47796652971E+03  0.40000000000E+03 0.  1.
   -9000007    1    1    2    0  502  0.86791736986E+02 -0.72026010612E+01  0.10246272978E+04  0.11033792560E+04  0.40000000000E+03 0.  1.
<mgrwt>
<rscale>  2 0.40937108E+03</rscale>
<asrwt>0</asrwt>
<pdfrwt beam="1">  1       21 0.21943738E+00 0.40937108E+03</pdfrwt>
<pdfrwt beam="2">  1       21 0.23846574E-01 0.40937108E+03</pdfrwt>
<totfact> 0.14306185E+03</totfact>
</mgrwt>
</event>
<event>
 4    1  0.4656822E-002  0.4221650E+03  0.7818608E-02  0.1036364E+00
         21   -1    0    0  503  502  0.00000000000E+00  0.00000000000E+00  0.30681493523E+03  0.30681493523E+03  0.00000000000E+00 0. -1.
         21   -1    0    0  501  503 -0.00000000000E+00 -0.00000000000E+00 -0.58636369547E+03  0.58636369547E+03  0.00000000000E+00 0. -1.
    9000007    1    1    2  501    0  0.78883684492E+02  0.10954736648E+03 -0.96594264881E+02  0.43307472010E+03  0.40000000000E+03 0.  1.
   -9000007    1    1    2    0  502 -0.78883684492E+02 -0.10954736648E+03 -0.18295449536E+03  0.46010391060E+03  0.40000000000E+03 0.  1.
<mgrwt>
<rscale>  2 0.42216497E+03</rscale>
<asrwt>0</asrwt>
<pdfrwt beam="1">  1       21 0.47202299E-01 0.42216497E+03</pdfrwt>
<pdfrwt beam="2">  1       21 0.90209797E-01 0.42216497E+03</pdfrwt>
<totfact> 0.39645400E+03</totfact>
</mgrwt>
</event>
<event>
 4    1  0.4656822E-002  0.5253206E+03  0.7818608E-02  0.1007373E+00
         21   -1    0    0  501  502  0.00000000000E+00  0.00000000000E+00  0.37420549999E+03  0.37420549999E+03  0.00000000000E+00 0.  1.
         21   -1    0    0  502  503 -0.00000000000E+00 -0.00000000000E+00 -0.73757351369E+03  0.73757351369E+03  0.00000000000E+00 0. -1.
    9000007    1    1    2  501    0 -0.22193833902E+03 -0.25827327022E+03 -0.17479758649E+03  0.55363878538E+03  0.40000000000E+03 0.  1.
   -9000007    1    1    2    0  503  0.22193833902E+03  0.25827327022E+03 -0.18857042722E+03  0.55814022831E+03  0.40000000000E+03 0.  1.
<mgrwt>
<rscale>  2 0.52532058E+03</rscale>
<asrwt>0</asrwt>
<pdfrwt beam="1">  1       21 0.57570078E-01 0.52532058E+03</pdfrwt>
<pdfrwt beam="2">  1       21 0.11347285E+00 0.52532058E+03</pdfrwt>
<totfact> 0.14278099E+03</totfact>
</mgrwt>
</event>
<event>
 4    1  0.4656822E-002  0.4089484E+03  0.7818608E-02  0.1040724E+00
         21   -1    0    0  501  502  0.00000000000E+00  0.00000000000E+00  0.86259429583E+03  0.86259429583E+03  0.00000000000E+00 0. -1.
         21   -1    0    0  502  503 -0.00000000000E+00 -0.00000000000E+00 -0.40287408675E+03  0.40287408675E+03  0.00000000000E+00 0. -1.
    9000007    1    1    2  501    0 -0.44046966233E+02  0.72791670683E+02  0.68558721355E+03  0.79829104338E+03  0.40000000000E+03 0. -1.
   -9000007    1    1    2    0  503  0.44046966233E+02 -0.72791670683E+02 -0.22586700447E+03  0.46717733920E+03  0.40000000000E+03 0. -1.
<mgrwt>
<rscale>  2 0.40894836E+03</rscale>
<asrwt>0</asrwt>
<pdfrwt beam="1">  1       21 0.13270681E+00 0.40894836E+03</pdfrwt>
<pdfrwt beam="2">  1       21 0.61980629E-01 0.40894836E+03</pdfrwt>
<totfact> 0.85250269E+02</totfact>
</mgrwt>
</event>
<event>
 4    1  0.4656822E-002  0.4167689E+03  0.7818608E-02  0.1038123E+00
         21   -1    0    0  501  502  0.00000000000E+00  0.00000000000E+00  0.10139335159E+04  0.10139335159E+04  0.00000000000E+00 0.  1.
         21   -1    0    0  502  503 -0.00000000000E+00 -0.00000000000E+00 -0.43199526266E+03  0.43199526266E+03  0.00000000000E+00 0.  1.
    9000007    1    1    2  501    0 -0.78835718322E+01  0.11676549493E+03  0.85258084671E+03  0.94899443186E+03  0.40000000000E+03 0.  1.
   -9000007    1    1    2    0  503  0.78835718322E+01 -0.11676549493E+03 -0.27064259349E+03  0.49693434669E+03  0.40000000000E+03 0.  1.
<mgrwt>
<rscale>  2 0.41676892E+03</rscale>
<asrwt>0</asrwt>
<pdfrwt beam="1">  1       21 0.15598977E+00 0.41676892E+03</pdfrwt>
<pdfrwt beam="2">  1       21 0.66460810E-01 0.41676892E+03</pdfrwt>
<totfact> 0.47238094E+02</totfact>
</mgrwt>
</event>
<event>
 4    1  0.4656822E-002  0.4008460E+03  0.7818608E-02  0.1043487E+00
         21   -1    0    0  501  502  0.00000000000E+00  0.00000000000E+00  0.33643921135E+03  0.33643921135E+03  0.00000000000E+00 0.  1.
         21   -1    0    0  502  503 -0.00000000000E+00 -0.00000000000E+00 -0.51719425466E+03  0.51719425466E+03  0.00000000000E+00 0.  1.
    9000007    1    1    2  501    0 -0.11245934031E+02 -0.23474595925E+02  0.27743134023E+02  0.40180493921E+03  0.40000000000E+03 0. -1.
   -9000007    1    1    2    0  503  0.11245934031E+02  0.23474595925E+02 -0.20849817733E+03  0.45182852681E+03  0.40000000000E+03 0. -1.
<mgrwt>
<rscale>  2 0.40084601E+03</rscale>
<asrwt>0</asrwt>
<pdfrwt beam="1">  1       21 0.51759878E-01 0.40084601E+03</pdfrwt>
<pdfrwt beam="2">  1       21 0.79568347E-01 0.40084601E+03</pdfrwt>
<totfact> 0.44053805E+03</totfact>
</mgrwt>
</event>
<event>
 4    1  0.4656822E-002  0.4321329E+03  0.7818608E-02  0.1033188E+00
         21   -1    0    0  503  502  0.00000000000E+00  0.00000000000E+00  0.47463136085E+03  0.47463136085E+03  0.00000000000E+00 0. -1.
         21   -1    0    0  501  503 -0.00000000000E+00 -0.00000000000E+00 -0.40120896914E+03  0.40120896914E+03  0.00000000000E+00 0.  1.
    9000007    1    1    2  501    0 -0.13218775903E+03 -0.96256144355E+02  0.97650573963E+02  0.44302876155E+03  0.40000000000E+03 0. -1.
   -9000007    1    1    2    0  502  0.13218775903E+03  0.96256144355E+02 -0.24228182259E+02  0.43281156844E+03  0.40000000000E+03 0.  1.
<mgrwt>
<rscale>  2 0.43213291E+03</rscale>
<asrwt>0</asrwt>
<pdfrwt beam="1">  1       21 0.73020209E-01 0.43213291E+03</pdfrwt>
<pdfrwt beam="2">  1       21 0.61724457E-01 0.43213291E+03</pdfrwt>
<totfact> 0.36188774E+03</totfact>
</mgrwt>
</event>
<event>
 4    1  0.4656822E-002  0.4453135E+03  0.7818608E-02  0.1029129E+00
         21   -1    0    0  501  502  0.00000000000E+00  0.00000000000E+00  0.79632206942E+03  0.79632206942E+03  0.00000000000E+00 0.  1.
         21   -1    0    0  502  503 -0.00000000000E+00 -0.00000000000E+00 -0.46386752831E+03  0.46386752831E+03  0.00000000000E+00 0.  1.
    9000007    1    1    2  501    0 -0.19513774658E+03 -0.15012111240E+02  0.59504134934E+03  0.74322157601E+03  0.40000000000E+03 0.  1.
   -9000007    1    1    2    0  503  0.19513774658E+03  0.15012111240E+02 -0.26258680824E+03  0.51696802172E+03  0.40000000000E+03 0.  1.
<mgrwt>
<rscale>  2 0.44531349E+03</rscale>
<asrwt>0</asrwt>
<pdfrwt beam="1">  1       21 0.12251109E+00 0.44531349E+03</pdfrwt>
<pdfrwt beam="2">  1       21 0.71364235E-01 0.44531349E+03</pdfrwt>
<totfact> 0.75270318E+02</totfact>
</mgrwt>
</event>
<event>
 4    1  0.4656822E-002  0.4689412E+03  0.7818608E-02  0.1022219E+00
         21   -1    0    0  503  502  0.00000000000E+00  0.00000000000E+00  0.41185668469E+03  0.41185668469E+03  0.00000000000E+00 0.  1.
         21   -1    0    0  501  503 -0.00000000000E+00 -0.00000000000E+00 -0.86825323894E+03  0.86825323894E+03  0.00000000000E+00 0.  1.
    9000007    1    1    2  501    0  0.24404133884E+03 -0.18698909599E+02 -0.62536451501E+03  0.78165631893E+03  0.40000000000E+03 0.  1.
   -9000007    1    1    2    0  502 -0.24404133884E+03  0.18698909599E+02  0.16896796076E+03  0.49845360471E+03  0.40000000000E+03 0.  1.
<mgrwt>
<rscale>  2 0.46894117E+03</rscale>
<asrwt>0</asrwt>
<pdfrwt beam="1">  1       21 0.63362567E-01 0.46894117E+03</pdfrwt>
<pdfrwt beam="2">  1       21 0.13357742E+00 0.46894117E+03</pdfrwt>
<totfact> 0.77733578E+02</totfact>
</mgrwt>
</event>
<event>
 4    1  0.4656822E-002  0.4866201E+03  0.7818608E-02  0.1017331E+00
         21   -1    0    0  503  502  0.00000000000E+00  0.00000000000E+00  0.55583475876E+03  0.55583475876E+03  0.00000000000E+00 0.  1.
         21   -1    0    0  501  503 -0.00000000000E+00 -0.00000000000E+00 -0.46682512366E+03  0.46682512366E+03  0.00000000000E+00 0.  1.
    9000007    1    1    2  501    0  0.27499095148E+03  0.34338285791E+02 -0.10666264306E+03  0.49817272175E+03  0.40000000000E+03 0.  1.
   -9000007    1    1    2    0  502 -0.27499095148E+03 -0.34338285791E+02  0.19567227815E+03  0.52448716067E+03  0.40000000000E+03 0.  1.
<mgrwt>
<rscale>  2 0.48662012E+03</rscale>
<asrwt>0</asrwt>
<pdfrwt beam="1">  1       21 0.85513040E-01 0.48662012E+03</pdfrwt>
<pdfrwt beam="2">  1       21 0.71819249E-01 0.48662012E+03</pdfrwt>
<totfact> 0.17581983E+03</totfact>
</mgrwt>
</event>
<event>
 4    1  0.4656822E-002  0.4131626E+03  0.7818608E-02  0.1039315E+00
         21   -1    0    0  501  502  0.00000000000E+00  0.00000000000E+00  0.30567024204E+03  0.30567024204E+03  0.00000000000E+00 0. -1.
         21   -1    0    0  502  503 -0.00000000000E+00 -0.00000000000E+00 -0.56158205122E+03  0.56158205122E+03  0.00000000000E+00 0. -1.
    9000007    1    1    2  501    0 -0.95175827991E+02  0.40557057406E+02 -0.95602331748E+02  0.42407914235E+03  0.40000000000E+03 0.  1.
   -9000007    1    1    2    0  503  0.95175827991E+02 -0.40557057406E+02 -0.16030947743E+03  0.44317315091E+03  0.40000000000E+03 0.  1.
<mgrwt>
<rscale>  2 0.41316257E+03</rscale>
<asrwt>0</asrwt>
<pdfrwt beam="1">  1       21 0.47026192E-01 0.41316257E+03</pdfrwt>
<pdfrwt beam="2">  1       21 0.86397237E-01 0.41316257E+03</pdfrwt>
<totfact> 0.44379827E+03</totfact>
</mgrwt>
</event>
<event>
 4    1  0.4656822E-002  0.4297497E+03  0.7818608E-02  0.1033939E+00
         21   -1    0    0  501  502  0.00000000000E+00  0.00000000000E+00  0.26907258722E+03  0.26907258722E+03  0.00000000000E+00 0. -1.
         21   -1    0    0  502  503 -0.00000000000E+00 -0.00000000000E+00 -0.98349507916E+03  0.98349507916E+03  0.00000000000E+00 0. -1.
    9000007    1    1    2  501    0  0.15525960912E+01  0.15710627275E+03 -0.12979555250E+02  0.42994564813E+03  0.40000000000E+03 0. -1.
   -9000007    1    1    2    0  503 -0.15525960912E+01 -0.15710627275E+03 -0.70144293669E+03  0.82262201826E+03  0.40000000000E+03 0. -1.
<mgrwt>
<rscale>  2 0.42974968E+03</rscale>
<asrwt>0</asrwt>
<pdfrwt beam="1">  1       21 0.41395782E-01 0.42974968E+03</pdfrwt>
<pdfrwt beam="2">  1       21 0.15130694E+00 0.42974968E+03</pdfrwt>
<totfact> 0.14073875E+03</totfact>
</mgrwt>
</event>
<event>
 4    1  0.4656822E-002  0.5800888E+03  0.7818608E-02  0.9947599E-01
         21   -1    0    0  503  502  0.00000000000E+00  0.00000000000E+00  0.36860749655E+03  0.36860749655E+03  0.00000000000E+00 0. -1.
         21   -1    0    0  501  503 -0.00000000000E+00 -0.00000000000E+00 -0.92289844541E+03  0.92289844541E+03  0.00000000000E+00 0.  1.
    9000007    1    1    2  501    0 -0.22245913681E+03  0.35639150604E+03 -0.20994294834E+03  0.61691086446E+03  0.40000000000E+03 0.  1.
   -9000007    1    1    2    0  502  0.22245913681E+03 -0.35639150604E+03 -0.34434800053E+03  0.67459507750E+03  0.40000000000E+03 0.  1.
<mgrwt>
<rscale>  2 0.58008876E+03</rscale>
<asrwt>0</asrwt>
<pdfrwt beam="1">  1       21 0.56708847E-01 0.58008876E+03</pdfrwt>
<pdfrwt beam="2">  1       21 0.14198437E+00 0.58008876E+03</pdfrwt>
<totfact> 0.80960021E+02</totfact>
</mgrwt>
</event>
<event>
 4    1  0.4656822E-002  0.5901578E+03  0.7818608E-02  0.9926038E-01
         21   -1    0    0  503  502  0.00000000000E+00  0.00000000000E+00  0.16708110395E+04  0.16708110395E+04  0.00000000000E+00 0.  1.
         21   -1    0    0  501  503 -0.00000000000E+00 -0.00000000000E+00 -0.21557784614E+03  0.21557784614E+03  0.00000000000E+00 0.  1.
    9000007    1    1    2  501    0 -0.32764263625E+03 -0.28449348296E+03  0.55615187552E+03  0.81091993907E+03  0.40000000000E+03 0.  1.
   -9000007    1    1    2    0  502  0.32764263625E+03  0.28449348296E+03  0.89908131780E+03  0.10754689465E+04  0.40000000000E+03 0.  1.
<mgrwt>
<rscale>  2 0.59015781E+03</rscale>
<asrwt>0</asrwt>
<pdfrwt beam="1">  1       21 0.25704784E+00 0.59015781E+03</pdfrwt>
<pdfrwt beam="2">  1       21 0.33165824E-01 0.59015781E+03</pdfrwt>
<totfact> 0.39958175E+02</totfact>
</mgrwt>
</event>
<event>
 4    1  0.4656822E-002  0.7417768E+03  0.7818608E-02  0.9648340E-01
         21   -1    0    0  501  502  0.00000000000E+00  0.00000000000E+00  0.11776401082E+04  0.11776401082E+04  0.00000000000E+00 0. -1.
         21   -1    0    0  502  503 -0.00000000000E+00 -0.00000000000E+00 -0.47704114262E+03  0.47704114262E+03  0.00000000000E+00 0.  1.
    9000007    1    1    2  501    0 -0.60693976643E+03 -0.14784071239E+03  0.46892868984E+03  0.87756872806E+03  0.40000000000E+03 0.  1.
   -9000007    1    1    2    0  503  0.60693976643E+03  0.14784071239E+03  0.23167027571E+03  0.77711252272E+03  0.40000000000E+03 0. -1.
<mgrwt>
<rscale>  2 0.74177676E+03</rscale>
<asrwt>0</asrwt>
<pdfrwt beam="1">  1       21 0.18117540E+00 0.74177676E+03</pdfrwt>
<pdfrwt beam="2">  1       21 0.73390946E-01 0.74177676E+03</pdfrwt>
<totfact> 0.21684533E+02</totfact>
</mgrwt>
</event>
<event>
 4    1  0.4656822E-002  0.4245926E+03  0.7818608E-02  0.1035582E+00
         21   -1    0    0  501  502  0.00000000000E+00  0.00000000000E+00  0.19799133642E+03  0.19799133642E+03  0.00000000000E+00 0.  1.
         21   -1    0    0  502  503 -0.00000000000E+00 -0.00000000000E+00 -0.12095929221E+04  0.12095929221E+04  0.00000000000E+00 0.  1.
    9000007    1    1    2  501    0 -0.56225611756E+02  0.13083392475E+03 -0.15585600301E+03  0.45229407354E+03  0.40000000000E+03 0.  1.
   -9000007    1    1    2    0  503  0.56225611756E+02 -0.13083392475E+03 -0.85574558263E+03  0.95529018496E+03  0.40000000000E+03 0.  1.
<mgrwt>
<rscale>  2 0.42459255E+03</rscale>
<asrwt>0</asrwt>
<pdfrwt beam="1">  1       21 0.30460205E-01 0.42459255E+03</pdfrwt>
<pdfrwt beam="2">  1       21 0.18609122E+00 0.42459255E+03</pdfrwt>
<totfact> 0.14611419E+03</totfact>
</mgrwt>
</event>
<event>
 4    1  0.4656822E-002  0.4495029E+03  0.7818608E-02  0.1027870E+00
         21   -1    0    0  501  502  0.00000000000E+00  0.00000000000E+00  0.26147398675E+03  0.26147398675E+03  0.00000000000E+00 0.  1.
         21   -1    0    0  502  503 -0.00000000000E+00 -0.00000000000E+00 -0.14466550390E+04  0.14466550390E+04  0.00000000000E+00 0.  1.
    9000007    1    1    2  501    0 -0.19304693286E+03  0.69179167605E+02 -0.96705329658E+01  0.44960693358E+03  0.40000000000E+03 0.  1.
   -9000007    1    1    2    0  503  0.19304693286E+03 -0.69179167605E+02 -0.11755105193E+04  0.12585220922E+04  0.40000000000E+03 0.  1.
<mgrwt>
<rscale>  2 0.44950292E+03</rscale>
<asrwt>0</asrwt>
<pdfrwt beam="1">  1       21 0.40226767E-01 0.44950292E+03</pdfrwt>
<pdfrwt beam="2">  1       21 0.22256231E+00 0.44950292E+03</pdfrwt>
<totfact> 0.47218696E+02</totfact>
</mgrwt>
</event>
<event>
 4    1  0.4656822E-002  0.4494461E+03  0.7818608E-02  0.1027887E+00
         21   -1    0    0  501  502  0.00000000000E+00  0.00000000000E+00  0.54445550923E+03  0.54445550923E+03  0.00000000000E+00 0. -1.
         21   -1    0    0  502  503 -0.00000000000E+00 -0.00000000000E+00 -0.65393082718E+03  0.65393082718E+03  0.00000000000E+00 0. -1.
    9000007    1    1    2  501    0  0.33617948354E+02 -0.20216725312E+03  0.33938256242E+03  0.56318938942E+03  0.40000000000E+03 0. -1.
   -9000007    1    1    2    0  503 -0.33617948354E+02  0.20216725312E+03 -0.44885788037E+03  0.63519694698E+03  0.40000000000E+03 0. -1.
<mgrwt>
<rscale>  2 0.44944606E+03</rscale>
<asrwt>0</asrwt>
<pdfrwt beam="1">  1       21 0.83762387E-01 0.44944606E+03</pdfrwt>
<pdfrwt beam="2">  1       21 0.10060474E+00 0.44944606E+03</pdfrwt>
<totfact> 0.84964751E+02</totfact>
</mgrwt>
</event>
<event>
 4    1  0.4656822E-002  0.4422280E+03  0.7818608E-02  0.1030065E+00
         21   -1    0    0  501  502  0.00000000000E+00  0.00000000000E+00  0.12545921799E+04  0.12545921799E+04  0.00000000000E+00 0. -1.
         21   -1    0    0  502  503 -0.00000000000E+00 -0.00000000000E+00 -0.15624545318E+03  0.15624545318E+03  0.00000000000E+00 0. -1.
    9000007    1    1    2  501    0  0.13869631960E+03 -0.12778476953E+03  0.58329735945E+03  0.73198458039E+03  0.40000000000E+03 0. -1.
   -9000007    1    1    2    0  503 -0.13869631960E+03  0.12778476953E+03  0.51504936725E+03  0.67885305266E+03  0.40000000000E+03 0. -1.
<mgrwt>
<rscale>  2 0.44222801E+03</rscale>
<asrwt>0</asrwt>
<pdfrwt beam="1">  1       21 0.19301418E+00 0.44222801E+03</pdfrwt>
<pdfrwt beam="2">  1       21 0.24037763E-01 0.44222801E+03</pdfrwt>
<totfact> 0.20689009E+03</totfact>
</mgrwt>
</event>
<event>
 4    1  0.4656822E-002  0.4086942E+03  0.7818608E-02  0.1040810E+00
         21   -1    0    0  503  502  0.00000000000E+00  0.00000000000E+00  0.53279975095E+03  0.53279975095E+03  0.00000000000E+00 0.  1.
         21   -1    0    0  501  503 -0.00000000000E+00 -0.00000000000E+00 -0.32456671297E+03  0.32456671297E+03  0.00000000000E+00 0.  1.
    9000007    1    1    2  501    0 -0.54099597895E+02 -0.64063805252E+02  0.24946721946E+02  0.40945485291E+03  0.40000000000E+03 0.  1.
   -9000007    1    1    2    0  502  0.54099597895E+02  0.64063805252E+02  0.18328631602E+03  0.44791161101E+03  0.40000000000E+03 0.  1.
<mgrwt>
<rscale>  2 0.40869419E+03</rscale>
<asrwt>0</asrwt>
<pdfrwt beam="1">  1       21 0.81969193E-01 0.40869419E+03</pdfrwt>
<pdfrwt beam="2">  1       21 0.49933340E-01 0.40869419E+03</pdfrwt>
<totfact> 0.44266969E+03</totfact>
</mgrwt>
</event>
<event>
 4    1  0.4656822E-002  0.4908826E+03  0.7818608E-02  0.1016186E+00
         21   -1    0    0  501  502  0.00000000000E+00  0.00000000000E+00  0.11308881842E+04  0.11308881842E+04  0.00000000000E+00 0. -1.
         21   -1    0    0  502  503 -0.00000000000E+00 -0.00000000000E+00 -0.29806594632E+03  0.29806594632E+03  0.00000000000E+00 0.  1.
    9000007    1    1    2  501    0 -0.28445280378E+03  0.72367592952E+01  0.79792860617E+03  0.93683287133E+03  0.40000000000E+03 0. -1.
   -9000007    1    1    2    0  503  0.28445280378E+03 -0.72367592952E+01  0.34893631755E+02  0.49212125924E+03  0.40000000000E+03 0.  1.
<mgrwt>
<rscale>  2 0.49088264E+03</rscale>
<asrwt>0</asrwt>
<pdfrwt beam="1">  1       21 0.17398280E+00 0.49088264E+03</pdfrwt>
<pdfrwt beam="2">  1       21 0.45856300E-01 0.49088264E+03</pdfrwt>
<totfact> 0.74901477E+02</totfact>
</mgrwt>
</event>
<event>
 4    1  0.4656822E-002  0.4949991E+03  0.7818608E-02  0.1015093E+00
         21   -1    0    0  501  502  0.00000000000E+00  0.00000000000E+00  0.40752918529E+03  0.40752918529E+03  0.00000000000E+00 0.  1.
         21   -1    0    0  502  503 -0.00000000000E+00 -0.00000000000E+00 -0.70467746209E+03  0.70467746209E+03  0.00000000000E+00 0.  1.
    9000007    1    1    2  501    0 -0.46384598625E+02  0.28787605672E+03  0.64481234992E+02  0.49918131444E+03  0.40000000000E+03 0.  1.
   -9000007    1    1    2    0  503  0.46384598625E+02 -0.28787605672E+03 -0.36162951179E+03  0.61302533293E+03  0.40000000000E+03 0.  1.
<mgrwt>
<rscale>  2 0.49499915E+03</rscale>
<asrwt>0</asrwt>
<pdfrwt beam="1">  1       21 0.62696798E-01 0.49499915E+03</pdfrwt>
<pdfrwt beam="2">  1       21 0.10841192E+00 0.49499915E+03</pdfrwt>
<totfact> 0.13401859E+03</totfact>
</mgrwt>
</event>
<event>
 4    1  0.4656822E-002  0.4371529E+03  0.7818608E-02  0.1031624E+00
         21   -1    0    0  503  502  0.00000000000E+00  0.00000000000E+00  0.13754683985E+03  0.13754683985E+03  0.00000000000E+00 0. -1.
         21   -1    0    0  501  503 -0.00000000000E+00 -0.00000000000E+00 -0.14668029661E+04  0.14668029661E+04  0.00000000000E+00 0. -1.
    9000007    1    1    2  501    0 -0.17485248935E+03 -0.23005047955E+02 -0.84894404814E+03  0.95488670644E+03  0.40000000000E+03 0. -1.
   -9000007    1    1    2    0  502  0.17485248935E+03  0.23005047955E+02 -0.48031207815E+03  0.64946309955E+03  0.40000000000E+03 0. -1.
<mgrwt>
<rscale>  2 0.43715286E+03</rscale>
<asrwt>0</asrwt>
<pdfrwt beam="1">  1       21 0.21161052E-01 0.43715286E+03</pdfrwt>
<pdfrwt beam="2">  1       21 0.22566200E+00 0.43715286E+03</pdfrwt>
<totfact> 0.16216373E+03</totfact>
</mgrwt>
</event>
<event>
 4    1  0.4656822E-002  0.4016770E+03  0.7818608E-02  0.1043201E+00
         21   -1    0    0  503  502  0.00000000000E+00  0.00000000000E+00  0.68744816891E+03  0.68744816891E+03  0.00000000000E+00 0. -1.
         21   -1    0    0  501  503 -0.00000000000E+00 -0.00000000000E+00 -0.23530876198E+03  0.23530876198E+03  0.00000000000E+00 0. -1.
    9000007    1    1    2  501    0  0.36211899758E+02 -0.57515060818E+01  0.20261077069E+03  0.44988388047E+03  0.40000000000E+03 0. -1.
   -9000007    1    1    2    0  502 -0.36211899758E+02  0.57515060818E+01  0.24952863624E+03  0.47287305042E+03  0.40000000000E+03 0. -1.
<mgrwt>
<rscale>  2 0.40167696E+03</rscale>
<asrwt>0</asrwt>
<pdfrwt beam="1">  1       21 0.10576126E+00 0.40167696E+03</pdfrwt>
<pdfrwt beam="2">  1       21 0.36201348E-01 0.40167696E+03</pdfrwt>
<totfact> 0.47109685E+03</totfact>
</mgrwt>
</event>
<event>
 4    1  0.4656822E-002  0.4610826E+03  0.7818608E-02  0.1024468E+00
         21   -1    0    0  503  502  0.00000000000E+00  0.00000000000E+00  0.11129260425E+03  0.11129260425E+03  0.00000000000E+00 0.  1.
         21   -1    0    0  501  503 -0.00000000000E+00 -0.00000000000E+00 -0.19102978319E+04  0.19102978319E+04  0.00000000000E+00 0.  1.
    9000007    1    1    2  501    0 -0.19744918575E+03  0.11666599745E+03 -0.89465756169E+03  0.10064836256E+04  0.40000000000E+03 0.  1.
   -9000007    1    1    2    0  502  0.19744918575E+03 -0.11666599745E+03 -0.90434766597E+03  0.10151068106E+04  0.40000000000E+03 0.  1.
<mgrwt>
<rscale>  2 0.46108257E+03</rscale>
<asrwt>0</asrwt>
<pdfrwt beam="1">  1       21 0.17121941E-01 0.46108257E+03</pdfrwt>
<pdfrwt beam="2">  1       21 0.29389194E+00 0.46108257E+03</pdfrwt>
<totfact> 0.91535938E+02</totfact>
</mgrwt>
</event>
<event>
 4    1  0.4656822E-002  0.4361266E+03  0.7818608E-02  0.1031942E+00
         21   -1    0    0  501  502  0.00000000000E+00  0.00000000000E+00  0.17628630073E+03  0.17628630073E+03  0.00000000000E+00 0.  1.
         21   -1    0    0  502  503 -0.00000000000E+00 -0.00000000000E+00 -0.11101921907E+04  0.11101921907E+04  0.00000000000E+00 0.  1.
    9000007    1    1    2  501    0  0.59313617772E+00 -0.17379888641E+03 -0.35906983276E+03  0.56492260490E+03  0.40000000000E+03 0.  1.
   -9000007    1    1    2    0  503 -0.59313617772E+00  0.17379888641E+03 -0.57483605725E+03  0.72155588657E+03  0.40000000000E+03 0.  1.
<mgrwt>
<rscale>  2 0.43612659E+03</rscale>
<asrwt>0</asrwt>
<pdfrwt beam="1">  1       21 0.27120970E-01 0.43612659E+03</pdfrwt>
<pdfrwt beam="2">  1       21 0.17079879E+00 0.43612659E+03</pdfrwt>
<totfact> 0.23459041E+03</totfact>
</mgrwt>
</event>
<event>
 4    1  0.4656822E-002  0.5312047E+03  0.7818608E-02  0.1005940E+00
         21   -1    0    0  503  502  0.00000000000E+00  0.00000000000E+00  0.89678038736E+03  0.89678038736E+03  0.00000000000E+00 0.  1.
         21   -1    0    0  501  503 -0.00000000000E+00 -0.00000000000E+00 -0.35273889562E+03  0.35273889562E+03  0.00000000000E+00 0. -1.
    9000007    1    1    2  501    0 -0.37169105192E+02  0.34755843437E+03  0.66741795814E+02  0.53538105587E+03  0.40000000000E+03 0.  1.
   -9000007    1    1    2    0  502  0.37169105192E+02 -0.34755843437E+03  0.47729969593E+03  0.71413822711E+03  0.40000000000E+03 0. -1.
<mgrwt>
<rscale>  2 0.53120468E+03</rscale>
<asrwt>0</asrwt>
<pdfrwt beam="1">  1       21 0.13796621E+00 0.53120468E+03</pdfrwt>
<pdfrwt beam="2">  1       21 0.54267523E-01 0.53120468E+03</pdfrwt>
<totfact> 0.97831742E+02</totfact>
</mgrwt>
</event>
<event>
 4    1  0.4656822E-002  0.4314956E+03  0.7818608E-02  0.1033389E+00
         21   -1    0    0  503  502  0.00000000000E+00  0.00000000000E+00  0.92009718567E+03  0.92009718567E+03  0.00000000000E+00 0. -1.
         21   -1    0    0  501  503 -0.00000000000E+00 -0.00000000000E+00 -0.25847545991E+03  0.25847545991E+03  0.00000000000E+00 0. -1.
    9000007    1    1    2  501    0  0.15321384460E+03 -0.52095443918E+02  0.56231264190E+02  0.43514408249E+03  0.40000000000E+03 0. -1.
   -9000007    1    1    2    0  502 -0.15321384460E+03  0.52095443918E+02  0.60539046157E+03  0.74342856309E+03  0.40000000000E+03 0. -1.
<mgrwt>
<rscale>  2 0.43149556E+03</rscale>
<asrwt>0</asrwt>
<pdfrwt beam="1">  1       21 0.14155341E+00 0.43149556E+03</pdfrwt>
<pdfrwt beam="2">  1       21 0.39765456E-01 0.43149556E+03</pdfrwt>
<totfact> 0.18280745E+03</totfact>
</mgrwt>
</event>
<event>
 4    1  0.4656822E-002  0.4908550E+03  0.7818608E-02  0.1016194E+00
         21   -1    0    0  503  502  0.00000000000E+00  0.00000000000E+00  0.14574517809E+03  0.14574517809E+03  0.00000000000E+00 0.  1.
         21   -1    0    0  501  503 -0.00000000000E+00 -0.00000000000E+00 -0.16532868929E+04  0.16532868929E+04  0.00000000000E+00 0.  1.
    9000007    1    1    2  501    0 -0.27286835721E+03  0.80507712433E+02 -0.76195783415E+03  0.90637650739E+03  0.40000000000E+03 0.  1.
   -9000007    1    1    2    0  502  0.27286835721E+03 -0.80507712433E+02 -0.74558388067E+03  0.89265556361E+03  0.40000000000E+03 0.  1.
<mgrwt>
<rscale>  2 0.49085500E+03</rscale>
<asrwt>0</asrwt>
<pdfrwt beam="1">  1       21 0.22422334E-01 0.49085500E+03</pdfrwt>
<pdfrwt beam="2">  1       21 0.25435184E+00 0.49085500E+03</pdfrwt>
<totfact> 0.93800457E+02</totfact>
</mgrwt>
</event>
<event>
 4    1  0.4656822E-002  0.5061764E+03  0.7818608E-02  0.1012179E+00
         21   -1    0    0  501  502  0.00000000000E+00  0.00000000000E+00  0.21222403755E+03  0.21222403755E+03  0.00000000000E+00 0.  1.
         21   -1    0    0  502  503 -0.00000000000E+00 -0.00000000000E+00 -0.21633346024E+04  0.21633346024E+04  0.00000000000E+00 0. -1.
    9000007    1    1    2  501    0  0.25423569036E+03  0.17770406250E+03 -0.18594185048E+03  0.53924845094E+03  0.40000000000E+03 0.  1.
   -9000007    1    1    2    0  503 -0.25423569036E+03 -0.17770406250E+03 -0.17651687144E+04  0.18363101890E+04  0.40000000000E+03 0. -1.
<mgrwt>
<rscale>  2 0.50617637E+03</rscale>
<asrwt>0</asrwt>
<pdfrwt beam="1">  1       21 0.32649853E-01 0.50617637E+03</pdfrwt>
<pdfrwt beam="2">  1       21 0.33282069E+00 0.50617637E+03</pdfrwt>
<totfact> 0.14840427E+02</totfact>
</mgrwt>
</event>
<event>
 4    1  0.4656822E-002  0.4232152E+03  0.7818608E-02  0.1036025E+00
         21   -1    0    0  501  502  0.00000000000E+00  0.00000000000E+00  0.39565746801E+03  0.39565746801E+03  0.00000000000E+00 0. -1.
         21   -1    0    0  502  503 -0.00000000000E+00 -0.00000000000E+00 -0.62066965974E+03  0.62066965974E+03  0.00000000000E+00 0. -1.
    9000007    1    1    2  501    0  0.70643429666E+02  0.11883028123E+03  0.15185558623E+03  0.44963457269E+03  0.40000000000E+03 0. -1.
   -9000007    1    1    2    0  503 -0.70643429666E+02 -0.11883028123E+03 -0.37686777796E+03  0.56669255506E+03  0.40000000000E+03 0. -1.
<mgrwt>
<rscale>  2 0.42321523E+03</rscale>
<asrwt>0</asrwt>
<pdfrwt beam="1">  1       21 0.60870380E-01 0.42321523E+03</pdfrwt>
<pdfrwt beam="2">  1       21 0.95487639E-01 0.42321523E+03</pdfrwt>
<totfact> 0.20043442E+03</totfact>
</mgrwt>
</event>
<event>
 4    1  0.4656822E-002  0.5864072E+03  0.7818608E-02  0.9934015E-01
         21   -1    0    0  503  502  0.00000000000E+00  0.00000000000E+00  0.15717606167E+04  0.15717606167E+04  0.00000000000E+00 0. -1.
         21   -1    0    0  501  503 -0.00000000000E+00 -0.00000000000E+00 -0.37717870572E+03  0.37717870572E+03  0.00000000000E+00 0.  1.
    9000007    1    1    2  501    0 -0.23351118913E+03 -0.35964691640E+03 -0.34200415791E+02  0.58740365028E+03  0.40000000000E+03 0.  1.
   -9000007    1    1    2    0  502  0.23351118913E+03  0.35964691640E+03  0.12287823268E+04  0.13615356721E+04  0.40000000000E+03 0. -1.
<mgrwt>
<rscale>  2 0.58640718E+03</rscale>
<asrwt>0</asrwt>
<pdfrwt beam="1">  1       21 0.24180932E+00 0.58640718E+03</pdfrwt>
<pdfrwt beam="2">  1       21 0.58027494E-01 0.58640718E+03</pdfrwt>
<totfact> 0.15370011E+02</totfact>
</mgrwt>
</event>
<event>
 4    1  0.4656822E-002  0.5166916E+03  0.7818608E-02  0.1009512E+00
         21   -1    0    0  501  502  0.00000000000E+00  0.00000000000E+00  0.25128767549E+03  0.25128767549E+03  0.00000000000E+00 0.  1.
         21   -1    0    0  502  503 -0.00000000000E+00 -0.00000000000E+00 -0.12090025563E+04  0.12090025563E+04  0.00000000000E+00 0.  1.
    9000007    1    1    2  501    0  0.33553328938E+02  0.32533732169E+03 -0.22461178436E+03  0.56340096951E+03  0.40000000000E+03 0.  1.
   -9000007    1    1    2    0  503 -0.33553328938E+02 -0.32533732169E+03 -0.73310309649E+03  0.89688926232E+03  0.40000000000E+03 0.  1.
<mgrwt>
<rscale>  2 0.51669159E+03</rscale>
<asrwt>0</asrwt>
<pdfrwt beam="1">  1       21 0.38659642E-01 0.51669159E+03</pdfrwt>
<pdfrwt beam="2">  1       21 0.18600039E+00 0.51669159E+03</pdfrwt>
<totfact> 0.86919301E+02</totfact>
</mgrwt>
</event>
<event>
 4    1  0.4656822E-002  0.4847463E+03  0.7818608E-02  0.1017839E+00
         21   -1    0    0  503  502  0.00000000000E+00  0.00000000000E+00  0.43496863243E+03  0.43496863243E+03  0.00000000000E+00 0.  1.
         21   -1    0    0  501  503 -0.00000000000E+00 -0.00000000000E+00 -0.90687736055E+03  0.90687736055E+03  0.00000000000E+00 0. -1.
    9000007    1    1    2  501    0  0.21964123024E+03  0.16351367119E+03 -0.66256166169E+03  0.82095489902E+03  0.40000000000E+03 0. -1.
   -9000007    1    1    2    0  502 -0.21964123024E+03 -0.16351367119E+03  0.19065293356E+03  0.52089109396E+03  0.40000000000E+03 0.  1.
<mgrwt>
<rscale>  2 0.48474632E+03</rscale>
<asrwt>0</asrwt>
<pdfrwt beam="1">  1       21 0.66918251E-01 0.48474632E+03</pdfrwt>
<pdfrwt beam="2">  1       21 0.13951959E+00 0.48474632E+03</pdfrwt>
<totfact> 0.60963522E+02</totfact>
</mgrwt>
</event>
<event>
 4    1  0.4656822E-002  0.4585535E+03  0.7818608E-02  0.1025202E+00
         21   -1    0    0  503  502  0.00000000000E+00  0.00000000000E+00  0.29942628476E+04  0.29942628476E+04  0.00000000000E+00 0.  1.
         21   -1    0    0  501  503 -0.00000000000E+00 -0.00000000000E+00 -0.14822288606E+03  0.14822288606E+03  0.00000000000E+00 0.  1.
    9000007    1    1    2  501    0  0.22394000530E+03  0.11052121192E+02  0.28322201570E+03  0.53896751807E+03  0.40000000000E+03 0.  1.
   -9000007    1    1    2    0  502 -0.22394000530E+03 -0.11052121192E+02  0.25628179458E+04  0.26035182156E+04  0.40000000000E+03 0.  1.
<mgrwt>
<rscale>  2 0.45855346E+03</rscale>
<asrwt>0</asrwt>
<pdfrwt beam="1">  1       21 0.46065578E+00 0.45855346E+03</pdfrwt>
<pdfrwt beam="2">  1       21 0.22803523E-01 0.45855346E+03</pdfrwt>
<totfact> 0.46761251E+01</totfact>
</mgrwt>
</event>
<event>
 4    1  0.4656822E-002  0.4692902E+03  0.7818608E-02  0.1022121E+00
         21   -1    0    0  503  502  0.00000000000E+00  0.00000000000E+00  0.19137874006E+03  0.19137874006E+03  0.00000000000E+00 0.  1.
         21   -1    0    0  501  503 -0.00000000000E+00 -0.00000000000E+00 -0.11604843693E+04  0.11604843693E+04  0.00000000000E+00 0.  1.
    9000007    1    1    2  501    0  0.79260568151E+01 -0.24529660496E+03 -0.42271539557E+03  0.63160236892E+03  0.40000000000E+03 0.  1.
   -9000007    1    1    2    0  502 -0.79260568151E+01  0.24529660496E+03 -0.54639023370E+03  0.72026074047E+03  0.40000000000E+03 0.  1.
<mgrwt>
<rscale>  2 0.46929015E+03</rscale>
<asrwt>0</asrwt>
<pdfrwt beam="1">  1       21 0.29442882E-01 0.46929015E+03</pdfrwt>
<pdfrwt beam="2">  1       21 0.17853606E+00 0.46929015E+03</pdfrwt>
<totfact> 0.17319243E+03</totfact>
</mgrwt>
</event>
<event>
 4    1  0.4656822E-002  0.4298763E+03  0.7818608E-02  0.1033899E+00
         21   -1    0    0  501  502  0.00000000000E+00  0.00000000000E+00  0.21222040635E+03  0.21222040635E+03  0.00000000000E+00 0. -1.
         21   -1    0    0  502  503 -0.00000000000E+00 -0.00000000000E+00 -0.89860289636E+03  0.89860289636E+03  0.00000000000E+00 0. -1.
    9000007    1    1    2  501    0  0.13567872059E+03 -0.79905521361E+02 -0.44095265658E+03  0.61581884748E+03  0.40000000000E+03 0. -1.
   -9000007    1    1    2    0  503 -0.13567872059E+03  0.79905521361E+02 -0.24542983343E+03  0.49500445523E+03  0.40000000000E+03 0. -1.
<mgrwt>
<rscale>  2 0.42987627E+03</rscale>
<asrwt>0</asrwt>
<pdfrwt beam="1">  1       21 0.32649293E-01 0.42987627E+03</pdfrwt>
<pdfrwt beam="2">  1       21 0.13824660E+00 0.42987627E+03</pdfrwt>
<totfact> 0.29064054E+03</totfact>
</mgrwt>
</event>
<event>
 4    1  0.4656822E-002  0.6310278E+03  0.7818608E-02  0.9843045E-01
         21   -1    0    0  503  502  0.00000000000E+00  0.00000000000E+00  0.47935166626E+03  0.47935166626E+03  0.00000000000E+00 0. -1.
         21   -1    0    0  501  503 -0.00000000000E+00 -0.00000000000E+00 -0.10601923025E+04  0.10601923025E+04  0.00000000000E+00 0.  1.
    9000007    1    1    2  501    0 -0.83984616022E+02 -0.48077294105E+03 -0.64856341785E+03  0.90489255912E+03  0.40000000000E+03 0.  1.
   -9000007    1    1    2    0  502  0.83984616022E+02  0.48077294105E+03  0.67722781625E+02  0.63465140962E+03  0.40000000000E+03 0. -1.
<mgrwt>
<rscale>  2 0.63102776E+03</rscale>
<asrwt>0</asrwt>
<pdfrwt beam="1">  1       21 0.73746410E-01 0.63102776E+03</pdfrwt>
<pdfrwt beam="2">  1       21 0.16310651E+00 0.63102776E+03</pdfrwt>
<totfact> 0.30162312E+02</totfact>
</mgrwt>
</event>
<event>
 4    1  0.4656822E-002  0.4227030E+03  0.7818608E-02  0.1036190E+00
         21   -1    0    0  501  502  0.00000000000E+00  0.00000000000E+00  0.74778241279E+03  0.74778241279E+03  0.00000000000E+00 0. -1.
         21   -1    0    0  502  503 -0.00000000000E+00 -0.00000000000E+00 -0.29022000688E+03  0.29022000688E+03  0.00000000000E+00 0. -1.
    9000007    1    1    2  501    0  0.47273678355E+02  0.12823041776E+03  0.10627102104E+02  0.42283658309E+03  0.40000000000E+03 0. -1.
   -9000007    1    1    2    0  503 -0.47273678355E+02 -0.12823041776E+03  0.44693530381E+03  0.61516583658E+03  0.40000000000E+03 0. -1.
<mgrwt>
<rscale>  2 0.42270302E+03</rscale>
<asrwt>0</asrwt>
<pdfrwt beam="1">  1       21 0.11504345E+00 0.42270302E+03</pdfrwt>
<pdfrwt beam="2">  1       21 0.44649232E-01 0.42270302E+03</pdfrwt>
<totfact> 0.24638602E+03</totfact>
</mgrwt>
</event>
<event>
 4    1  0.4656822E-002  0.4048451E+03  0.7818608E-02  0.1042115E+00
         21   -1    0    0  503  502  0.00000000000E+00  0.00000000000E+00  0.26907139798E+03  0.26907139798E+03  0.00000000000E+00 0. -1.
         21   -1    0    0  501  503 -0.00000000000E+00 -0.00000000000E+00 -0.12393180041E+04  0.12393180041E+04  0.00000000000E+00 0. -1.
    9000007    1    1    2  501    0  0.62378208652E+02  0.29135640017E+01  0.52684469790E+02  0.40825872082E+03  0.40000000000E+03 0. -1.
   -9000007    1    1    2    0  502 -0.62378208652E+02 -0.29135640017E+01 -0.10229310759E+04  0.11001306813E+04  0.40000000000E+03 0. -1.
<mgrwt>
<rscale>  2 0.40484507E+03</rscale>
<asrwt>0</asrwt>
<pdfrwt beam="1">  1       21 0.41395600E-01 0.40484507E+03</pdfrwt>
<pdfrwt beam="2">  1       21 0.19066431E+00 0.40484507E+03</pdfrwt>
<totfact> 0.73760881E+02</totfact>
</mgrwt>
</event>
<event>
 4    1  0.4656822E-002  0.4058791E+03  0.7818608E-02  0.1041763E+00
         21   -1    0    0  501  502  0.00000000000E+00  0.00000000000E+00  0.31690867966E+03  0.31690867966E+03  0.00000000000E+00 0.  1.
         21   -1    0    0  502  503 -0.00000000000E+00 -0.00000000000E+00 -0.13459092653E+04  0.13459092653E+04  0.00000000000E+00 0.  1.
    9000007    1    1    2  501    0  0.28566219814E+02  0.62624483352E+02  0.13685557031E+03  0.42833083236E+03  0.40000000000E+03 0.  1.
   -9000007    1    1    2    0  503 -0.28566219814E+02 -0.62624483352E+02 -0.11658561560E+04  0.12344871126E+04  0.40000000000E+03 0.  1.
<mgrwt>
<rscale>  2 0.40587911E+03</rscale>
<asrwt>0</asrwt>
<pdfrwt beam="1">  1       21 0.48755183E-01 0.40587911E+03</pdfrwt>
<pdfrwt beam="2">  1       21 0.20706296E+00 0.40587911E+03</pdfrwt>
<totfact> 0.40719535E+02</totfact>
</mgrwt>
</event>
<event>
 4    1  0.4656822E-002  0.4308024E+03  0.7818608E-02  0.1033607E+00
         21   -1    0    0  501  502  0.00000000000E+00  0.00000000000E+00  0.84470443392E+03  0.84470443392E+03  0.00000000000E+00 0.  1.
         21   -1    0    0  502  503 -0.00000000000E+00 -0.00000000000E+00 -0.63743227766E+03  0.63743227766E+03  0.00000000000E+00 0.  1.
    9000007    1    1    2  501    0 -0.97575492338E+02 -0.12676638785E+03  0.70354406231E+03  0.82496360005E+03  0.40000000000E+03 0.  1.
   -9000007    1    1    2    0  503  0.97575492338E+02  0.12676638785E+03 -0.49627190604E+03  0.65717311153E+03  0.40000000000E+03 0.  1.
<mgrwt>
<rscale>  2 0.43080238E+03</rscale>
<asrwt>0</asrwt>
<pdfrwt beam="1">  1       21 0.12995453E+00 0.43080238E+03</pdfrwt>
<pdfrwt beam="2">  1       21 0.98066505E-01 0.43080238E+03</pdfrwt>
<totfact> 0.31025127E+02</totfact>
</mgrwt>
</event>
<event>
 4    1  0.4656822E-002  0.4040325E+03  0.7818608E-02  0.1042392E+00
         21   -1    0    0  501  502  0.00000000000E+00  0.00000000000E+00  0.53432529269E+03  0.53432529269E+03  0.00000000000E+00 0. -1.
         21   -1    0    0  502  503 -0.00000000000E+00 -0.00000000000E+00 -0.48653691589E+03  0.48653691589E+03  0.00000000000E+00 0. -1.
    9000007    1    1    2  501    0  0.12941607776E+01  0.56926216633E+02  0.33524469485E+03  0.52500597560E+03  0.40000000000E+03 0. -1.
   -9000007    1    1    2    0  503 -0.12941607776E+01 -0.56926216633E+02 -0.28745631805E+03  0.49585623297E+03  0.40000000000E+03 0. -1.
<mgrwt>
<rscale>  2 0.40403251E+03</rscale>
<asrwt>0</asrwt>
<pdfrwt beam="1">  1       21 0.82203892E-01 0.40403251E+03</pdfrwt>
<pdfrwt beam="2">  1       21 0.74851833E-01 0.40403251E+03</pdfrwt>
<totfact> 0.18118687E+03</totfact>
</mgrwt>
</event>
<event>
 4    1  0.4656822E-002  0.4431052E+03  0.7818608E-02  0.1029798E+00
         21   -1    0    0  503  502  0.00000000000E+00  0.00000000000E+00  0.97754813714E+03  0.97754813714E+03  0.00000000000E+00 0.  1.
         21   -1    0    0  501  503 -0.00000000000E+00 -0.00000000000E+00 -0.23858407453E+03  0.23858407453E+03  0.00000000000E+00 0.  1.
    9000007    1    1    2  501    0 -0.11285195222E+03 -0.15364453024E+03  0.12766485755E+03  0.46112961372E+03  0.40000000000E+03 0.  1.
   -9000007    1    1    2    0  502  0.11285195222E+03  0.15364453024E+03  0.61129920506E+03  0.75500259795E+03  0.40000000000E+03 0.  1.
<mgrwt>
<rscale>  2 0.44310518E+03</rscale>
<asrwt>0</asrwt>
<pdfrwt beam="1">  1       21 0.15039202E+00 0.44310518E+03</pdfrwt>
<pdfrwt beam="2">  1       21 0.36705243E-01 0.44310518E+03</pdfrwt>
<totfact> 0.18208533E+03</totfact>
</mgrwt>
</event>
<event>
 4    1  0.4656822E-002  0.4005944E+03  0.7818608E-02  0.1043574E+00
         21   -1    0    0  501  502  0.00000000000E+00  0.00000000000E+00  0.18947756452E+03  0.18947756452E+03  0.00000000000E+00 0. -1.
         21   -1    0    0  502  503 -0.00000000000E+00 -0.00000000000E+00 -0.10688327522E+04  0.10688327522E+04  0.00000000000E+00 0. -1.
    9000007    1    1    2  501    0 -0.21471885345E+02 -0.38540012818E+01 -0.15301194904E+03  0.42882228456E+03  0.40000000000E+03 0. -1.
   -9000007    1    1    2    0  503  0.21471885345E+02  0.38540012818E+01 -0.72634323865E+03  0.82948803217E+03  0.40000000000E+03 0. -1.
<mgrwt>
<rscale>  2 0.40059443E+03</rscale>
<asrwt>0</asrwt>
<pdfrwt beam="1">  1       21 0.29150394E-01 0.40059443E+03</pdfrwt>
<pdfrwt beam="2">  1       21 0.16443581E+00 0.40059443E+03</pdfrwt>
<totfact> 0.23004314E+03</totfact>
</mgrwt>
</event>
<event>
 4    1  0.4656822E-002  0.5090325E+03  0.7818608E-02  0.1011448E+00
         21   -1    0    0  501  502  0.00000000000E+00  0.00000000000E+00  0.67567881461E+03  0.67567881461E+03  0.00000000000E+00 0.  1.
         21   -1    0    0  502  503 -0.00000000000E+00 -0.00000000000E+00 -0.38786221465E+03  0.38786221465E+03  0.00000000000E+00 0. -1.
    9000007    1    1    2  501    0  0.17305670316E+03  0.26299335717E+03  0.20038623637E+03  0.54705463361E+03  0.40000000000E+03 0.  1.
   -9000007    1    1    2    0  503 -0.17305670316E+03 -0.26299335717E+03  0.87430363587E+02  0.51648639566E+03  0.40000000000E+03 0.  1.
<mgrwt>
<rscale>  2 0.50903254E+03</rscale>
<asrwt>0</asrwt>
<pdfrwt beam="1">  1       21 0.10395059E+00 0.50903254E+03</pdfrwt>
<pdfrwt beam="2">  1       21 0.59671110E-01 0.50903254E+03</pdfrwt>
<totfact> 0.16502607E+03</totfact>
</mgrwt>
</event>
<event>
 4    1  0.4656822E-002  0.4226754E+03  0.7818608E-02  0.1036199E+00
         21   -1    0    0  503  502  0.00000000000E+00  0.00000000000E+00  0.42603802714E+03  0.42603802714E+03  0.00000000000E+00 0.  1.
         21   -1    0    0  501  503 -0.00000000000E+00 -0.00000000000E+00 -0.62514045795E+03  0.62514045795E+03  0.00000000000E+00 0.  1.
    9000007    1    1    2  501    0 -0.65060935490E+02  0.12009000918E+03 -0.40111657532E+03  0.58270836842E+03  0.40000000000E+03 0. -1.
   -9000007    1    1    2    0  502  0.65060935490E+02 -0.12009000918E+03  0.20201414451E+03  0.46847011667E+03  0.40000000000E+03 0. -1.
<mgrwt>
<rscale>  2 0.42267545E+03</rscale>
<asrwt>0</asrwt>
<pdfrwt beam="1">  1       21 0.65544311E-01 0.42267545E+03</pdfrwt>
<pdfrwt beam="2">  1       21 0.96175456E-01 0.42267545E+03</pdfrwt>
<totfact> 0.16735872E+03</totfact>
</mgrwt>
</event>
<event>
 4    1  0.4656822E-002  0.5506073E+03  0.7818608E-02  0.1001353E+00
         21   -1    0    0  501  502  0.00000000000E+00  0.00000000000E+00  0.15254746925E+04  0.15254746925E+04  0.00000000000E+00 0.  1.
         21   -1    0    0  502  503 -0.00000000000E+00 -0.00000000000E+00 -0.21942631329E+03  0.21942631329E+03  0.00000000000E+00 0. -1.
    9000007    1    1    2  501    0 -0.95139826762E+02  0.36621957578E+03  0.92092177027E+03  0.10729703031E+04  0.40000000000E+03 0.  1.
   -9000007    1    1    2    0  503  0.95139826762E+02 -0.36621957578E+03  0.38512660890E+03  0.67193070268E+03  0.40000000000E+03 0. -1.
<mgrwt>
<rscale>  2 0.55060727E+03</rscale>
<asrwt>0</asrwt>
<pdfrwt beam="1">  1       21 0.23468841E+00 0.55060727E+03</pdfrwt>
<pdfrwt beam="2">  1       21 0.33757895E-01 0.55060727E+03</pdfrwt>
<totfact> 0.54027787E+02</totfact>
</mgrwt>
</event>
<event>
 4    1  0.4656822E-002  0.4631466E+03  0.7818608E-02  0.1023873E+00
         21   -1    0    0  503  502  0.00000000000E+00  0.00000000000E+00  0.38050903254E+03  0.38050903254E+03  0.00000000000E+00 0.  1.
         21   -1    0    0  501  503 -0.00000000000E+00 -0.00000000000E+00 -0.75517189694E+03  0.75517189694E+03  0.00000000000E+00 0. -1.
    9000007    1    1    2  501    0  0.33418868632E+02 -0.23105839599E+03 -0.47323566945E+03  0.66216070706E+03  0.40000000000E+03 0. -1.
   -9000007    1    1    2    0  502 -0.33418868632E+02  0.23105839599E+03  0.98572805055E+02  0.47352022241E+03  0.40000000000E+03 0.  1.
<mgrwt>
<rscale>  2 0.46314663E+03</rscale>
<asrwt>0</asrwt>
<pdfrwt beam="1">  1       21 0.58539851E-01 0.46314663E+03</pdfrwt>
<pdfrwt beam="2">  1       21 0.11618029E+00 0.46314663E+03</pdfrwt>
<totfact> 0.13271794E+03</totfact>
</mgrwt>
</event>
<event>
 4    1  0.4656822E-002  0.4025884E+03  0.7818608E-02  0.1042887E+00
         21   -1    0    0  501  502  0.00000000000E+00  0.00000000000E+00  0.18920459266E+03  0.18920459266E+03  0.00000000000E+00 0. -1.
         21   -1    0    0  502  503 -0.00000000000E+00 -0.00000000000E+00 -0.87003258188E+03  0.87003258188E+03  0.00000000000E+00 0. -1.
    9000007    1    1    2  501    0 -0.40509903016E+02 -0.20889105881E+02 -0.27466808517E+03  0.48736019944E+03  0.40000000000E+03 0. -1.
   -9000007    1    1    2    0  503  0.40509903016E+02  0.20889105881E+02 -0.40615990405E+03  0.57187697510E+03  0.40000000000E+03 0. -1.
<mgrwt>
<rscale>  2 0.40258838E+03</rscale>
<asrwt>0</asrwt>
<pdfrwt beam="1">  1       21 0.29108399E-01 0.40258838E+03</pdfrwt>
<pdfrwt beam="2">  1       21 0.13385117E+00 0.40258838E+03</pdfrwt>
<totfact> 0.40183690E+03</totfact>
</mgrwt>
</event>
<event>
 4    1  0.4656822E-002  0.4386513E+03  0.7818608E-02  0.1031161E+00
         21   -1    0    0  501  502  0.00000000000E+00  0.00000000000E+00  0.13212007276E+03  0.13212007276E+03  0.00000000000E+00 0. -1.
         21   -1    0    0  502  503 -0.00000000000E+00 -0.00000000000E+00 -0.16352681130E+04  0.16352681130E+04  0.00000000000E+00 0. -1.
    9000007    1    1    2  501    0 -0.17994520735E+03  0.58873288333E+01 -0.45928167572E+03  0.63510203585E+03  0.40000000000E+03 0. -1.
   -9000007    1    1    2    0  503  0.17994520735E+03 -0.58873288333E+01 -0.10438663645E+04  0.11322861499E+04  0.40000000000E+03 0. -1.
<mgrwt>
<rscale>  2 0.43865127E+03</rscale>
<asrwt>0</asrwt>
<pdfrwt beam="1">  1       21 0.20326164E-01 0.43865127E+03</pdfrwt>
<pdfrwt beam="2">  1       21 0.25157972E+00 0.43865127E+03</pdfrwt>
<totfact> 0.12075496E+03</totfact>
</mgrwt>
</event>
<event>
 4    1  0.4656822E-002  0.5007819E+03  0.7818608E-02  0.1013575E+00
         21   -1    0    0  503  502  0.00000000000E+00  0.00000000000E+00  0.15580758327E+03  0.15580758327E+03  0.00000000000E+00 0. -1.
         21   -1    0    0  501  503 -0.00000000000E+00 -0.00000000000E+00 -0.16225036857E+04  0.16225036857E+04  0.00000000000E+00 0.  1.
    9000007    1    1    2  501    0  0.84190954845E+02 -0.28929990020E+03 -0.65394860278E+03  0.82366942654E+03  0.40000000000E+03 0. -1.
   -9000007    1    1    2    0  502 -0.84190954845E+02  0.28929990020E+03 -0.81274749969E+03  0.95464184247E+03  0.40000000000E+03 0.  1.
<mgrwt>
<rscale>  2 0.50078194E+03</rscale>
<asrwt>0</asrwt>
<pdfrwt beam="1">  1       21 0.23970398E-01 0.50078194E+03</pdfrwt>
<pdfrwt beam="2">  1       21 0.24961595E+00 0.50078194E+03</pdfrwt>
<totfact> 0.87769550E+02</totfact>
</mgrwt>
</event>
<event>
 4    1  0.4656822E-002  0.4124433E+03  0.7818608E-02  0.1039554E+00
         21   -1    0    0  503  502  0.00000000000E+00  0.00000000000E+00  0.23787086339E+03  0.23787086339E+03  0.00000000000E+00 0.  1.
         21   -1    0    0  501  503 -0.00000000000E+00 -0.00000000000E+00 -0.75371816092E+03  0.75371816092E+03  0.00000000000E+00 0. -1.
    9000007    1    1    2  501    0 -0.96127260077E+02 -0.29479337646E+02 -0.37010048515E+03  0.55415146899E+03  0.40000000000E+03 0. -1.
   -9000007    1    1    2    0  502  0.96127260077E+02  0.29479337646E+02 -0.14574681238E+03  0.43743755531E+03  0.40000000000E+03 0.  1.
<mgrwt>
<rscale>  2 0.41244331E+03</rscale>
<asrwt>0</asrwt>
<pdfrwt beam="1">  1       21 0.36595517E-01 0.41244331E+03</pdfrwt>
<pdfrwt beam="2">  1       21 0.11595664E+00 0.41244331E+03</pdfrwt>
<totfact> 0.36536852E+03</totfact>
</mgrwt>
</event>
<event>
 4    1  0.4656822E-002  0.5441328E+03  0.7818608E-02  0.1002861E+00
         21   -1    0    0  503  502  0.00000000000E+00  0.00000000000E+00  0.22598103452E+03  0.22598103452E+03  0.00000000000E+00 0. -1.
         21   -1    0    0  501  503 -0.00000000000E+00 -0.00000000000E+00 -0.14807230606E+04  0.14807230606E+04  0.00000000000E+00 0.  1.
    9000007    1    1    2  501    0 -0.36877316697E+03 -0.93210441137E+01 -0.33778214387E+03  0.64045086249E+03  0.40000000000E+03 0. -1.
   -9000007    1    1    2    0  502  0.36877316697E+03  0.93210441137E+01 -0.91695988224E+03  0.10662532327E+04  0.40000000000E+03 0.  1.
<mgrwt>
<rscale>  2 0.54413282E+03</rscale>
<asrwt>0</asrwt>
<pdfrwt beam="1">  1       21 0.34766313E-01 0.54413282E+03</pdfrwt>
<pdfrwt beam="2">  1       21 0.22780354E+00 0.54413282E+03</pdfrwt>
<totfact> 0.56430238E+02</totfact>
</mgrwt>
</event>
<event>
 4    1  0.4656822E-002  0.4116116E+03  0.7818608E-02  0.1039832E+00
         21   -1    0    0  503  502  0.00000000000E+00  0.00000000000E+00  0.54712263810E+03  0.54712263810E+03  0.00000000000E+00 0.  1.
         21   -1    0    0  501  503 -0.00000000000E+00 -0.00000000000E+00 -0.33131966359E+03  0.33131966359E+03  0.00000000000E+00 0.  1.
    9000007    1    1    2  501    0 -0.24717132615E+01  0.97046242065E+02 -0.43901100839E+01  0.41163497851E+03  0.40000000000E+03 0.  1.
   -9000007    1    1    2    0  502  0.24717132615E+01 -0.97046242065E+02  0.22019308460E+03  0.46680732317E+03  0.40000000000E+03 0.  1.
<mgrwt>
<rscale>  2 0.41161157E+03</rscale>
<asrwt>0</asrwt>
<pdfrwt beam="1">  1       21 0.84172713E-01 0.41161157E+03</pdfrwt>
<pdfrwt beam="2">  1       21 0.50972256E-01 0.41161157E+03</pdfrwt>
<totfact> 0.39795458E+03</totfact>
</mgrwt>
</event>
<event>
 4    1  0.4656822E-002  0.4678513E+03  0.7818608E-02  0.1022528E+00
         21   -1    0    0  503  502  0.00000000000E+00  0.00000000000E+00  0.46833594851E+03  0.46833594851E+03  0.00000000000E+00 0. -1.
         21   -1    0    0  501  503 -0.00000000000E+00 -0.00000000000E+00 -0.67127094841E+03  0.67127094841E+03  0.00000000000E+00 0. -1.
    9000007    1    1    2  501    0  0.21678600751E+03  0.10903515892E+03 -0.41551027188E+03  0.62572647776E+03  0.40000000000E+03 0. -1.
   -9000007    1    1    2    0  502 -0.21678600751E+03 -0.10903515892E+03  0.21257527198E+03  0.51388041915E+03  0.40000000000E+03 0. -1.
<mgrwt>
<rscale>  2 0.46785130E+03</rscale>
<asrwt>0</asrwt>
<pdfrwt beam="1">  1       21 0.72051685E-01 0.46785130E+03</pdfrwt>
<pdfrwt beam="2">  1       21 0.10327245E+00 0.46785130E+03</pdfrwt>
<totfact> 0.11180772E+03</totfact>
</mgrwt>
</event>
<event>
 4    1  0.4656822E-002  0.6118327E+03  0.7818608E-02  0.9881157E-01
         21   -1    0    0  503  502  0.00000000000E+00  0.00000000000E+00  0.28252338913E+03  0.28252338913E+03  0.00000000000E+00 0. -1.
         21   -1    0    0  501  503 -0.00000000000E+00 -0.00000000000E+00 -0.13858665273E+04  0.13858665273E+04  0.00000000000E+00 0. -1.
    9000007    1    1    2  501    0  0.31577684050E+03 -0.33856200263E+03 -0.37682796297E+03  0.71856701587E+03  0.40000000000E+03 0. -1.
   -9000007    1    1    2    0  502 -0.31577684050E+03  0.33856200263E+03 -0.72651517521E+03  0.94982290056E+03  0.40000000000E+03 0. -1.
<mgrwt>
<rscale>  2 0.61183269E+03</rscale>
<asrwt>0</asrwt>
<pdfrwt beam="1">  1       21 0.43465137E-01 0.61183269E+03</pdfrwt>
<pdfrwt beam="2">  1       21 0.21321023E+00 0.61183269E+03</pdfrwt>
<totfact> 0.43082881E+02</totfact>
</mgrwt>
</event>
<event>
 4    1  0.4656822E-002  0.4350075E+03  0.7818608E-02  0.1032290E+00
         21   -1    0    0  501  502  0.00000000000E+00  0.00000000000E+00  0.19997355316E+03  0.19997355316E+03  0.00000000000E+00 0.  1.
         21   -1    0    0  502  503 -0.00000000000E+00 -0.00000000000E+00 -0.11159404515E+04  0.11159404515E+04  0.00000000000E+00 0.  1.
    9000007    1    1    2  501    0 -0.18887373783E+02 -0.16992588804E+03 -0.20143837116E+03  0.47938393558E+03  0.40000000000E+03 0.  1.
   -9000007    1    1    2    0  503  0.18887373783E+02  0.16992588804E+03 -0.71452852719E+03  0.83653006908E+03  0.40000000000E+03 0.  1.
<mgrwt>
<rscale>  2 0.43500752E+03</rscale>
<asrwt>0</asrwt>
<pdfrwt beam="1">  1       21 0.30765162E-01 0.43500752E+03</pdfrwt>
<pdfrwt beam="2">  1       21 0.17168314E+00 0.43500752E+03</pdfrwt>
<totfact> 0.18024654E+03</totfact>
</mgrwt>
</event>
<event>
 4    1  0.4656822E-002  0.4173714E+03  0.7818608E-02  0.1037925E+00
         21   -1    0    0  501  502  0.00000000000E+00  0.00000000000E+00  0.12863341849E+04  0.12863341849E+04  0.00000000000E+00 0.  1.
         21   -1    0    0  502  503 -0.00000000000E+00 -0.00000000000E+00 -0.14751375178E+03  0.14751375178E+03  0.00000000000E+00 0.  1.
    9000007    1    1    2  501    0 -0.98967108414E+02 -0.66365741365E+02  0.77466257865E+03  0.87994375442E+03  0.40000000000E+03 0.  1.
   -9000007    1    1    2    0  503  0.98967108414E+02  0.66365741365E+02  0.36415785450E+03  0.55390418230E+03  0.40000000000E+03 0.  1.
<mgrwt>
<rscale>  2 0.41737142E+03</rscale>
<asrwt>0</asrwt>
<pdfrwt beam="1">  1       21 0.19789756E+00 0.41737142E+03</pdfrwt>
<pdfrwt beam="2">  1       21 0.22694424E-01 0.41737142E+03</pdfrwt>
<totfact> 0.21666537E+03</totfact>
</mgrwt>
</event>
<event>
 4    1  0.4656822E-002  0.5189872E+03  0.7818608E-02  0.1008938E+00
         21   -1    0    0  503  502  0.00000000000E+00  0.00000000000E+00  0.18515349754E+03  0.18515349754E+03  0.00000000000E+00 0. -1.
         21   -1    0    0  501  503 -0.00000000000E+00 -0.00000000000E+00 -0.15689416591E+04  0.15689416591E+04  0.00000000000E+00 0.  1.
    9000007    1    1    2  501    0  0.16739029091E+03 -0.28518104780E+03 -0.92853030088E+03  0.10637275305E+04  0.40000000000E+03 0.  1.
   -9000007    1    1    2    0  502 -0.16739029091E+03  0.28518104780E+03 -0.45525786071E+03  0.69036762616E+03  0.40000000000E+03 0. -1.
<mgrwt>
<rscale>  2 0.51898722E+03</rscale>
<asrwt>0</asrwt>
<pdfrwt beam="1">  1       21 0.28485154E-01 0.51898722E+03</pdfrwt>
<pdfrwt beam="2">  1       21 0.24137563E+00 0.51898722E+03</pdfrwt>
<totfact> 0.69840233E+02</totfact>
</mgrwt>
</event>
<event>
 4    1  0.4656822E-002  0.4255990E+03  0.7818608E-02  0.1035259E+00
         21   -1    0    0  501  502  0.00000000000E+00  0.00000000000E+00  0.29996459018E+03  0.29996459018E+03  0.00000000000E+00 0. -1.
         21   -1    0    0  502  503 -0.00000000000E+00 -0.00000000000E+00 -0.65965972457E+03  0.65965972457E+03  0.00000000000E+00 0. -1.
    9000007    1    1    2  501    0 -0.32069998086E+01 -0.14534181272E+03 -0.40289674135E+02  0.42750179557E+03  0.40000000000E+03 0. -1.
   -9000007    1    1    2    0  503  0.32069998086E+01  0.14534181272E+03 -0.31940546026E+03  0.53212251918E+03  0.40000000000E+03 0. -1.
<mgrwt>
<rscale>  2 0.42559902E+03</rscale>
<asrwt>0</asrwt>
<pdfrwt beam="1">  1       21 0.46148398E-01 0.42559902E+03</pdfrwt>
<pdfrwt beam="2">  1       21 0.10148611E+00 0.42559902E+03</pdfrwt>
<totfact> 0.31301343E+03</totfact>
</mgrwt>
</event>
<event>
 4    1  0.4656822E-002  0.5087837E+03  0.7818608E-02  0.1011511E+00
         21   -1    0    0  501  502  0.00000000000E+00  0.00000000000E+00  0.28674901725E+04  0.28674901725E+04  0.00000000000E+00 0.  1.
         21   -1    0    0  502  503 -0.00000000000E+00 -0.00000000000E+00 -0.95044119290E+02  0.95044119290E+02  0.00000000000E+00 0.  1.
    9000007    1    1    2  501    0  0.31370565928E+03 -0.21204650594E+02  0.17180551278E+04  0.17918075511E+04  0.40000000000E+03 0.  1.
   -9000007    1    1    2    0  503 -0.31370565928E+03  0.21204650594E+02  0.10543909254E+04  0.11707267407E+04  0.40000000000E+03 0.  1.
<mgrwt>
<rscale>  2 0.50878372E+03</rscale>
<asrwt>0</asrwt>
<pdfrwt beam="1">  1       21 0.44115227E+00 0.50878372E+03</pdfrwt>
<pdfrwt beam="2">  1       21 0.14622174E-01 0.50878372E+03</pdfrwt>
<totfact> 0.14204899E+02</totfact>
</mgrwt>
</event>
<event>
 4    1  0.4656822E-002  0.4341934E+03  0.7818608E-02  0.1032543E+00
         21   -1    0    0  501  502  0.00000000000E+00  0.00000000000E+00  0.71838043919E+03  0.71838043919E+03  0.00000000000E+00 0. -1.
         21   -1    0    0  502  503 -0.00000000000E+00 -0.00000000000E+00 -0.28947283883E+03  0.28947283883E+03  0.00000000000E+00 0. -1.
    9000007    1    1    2  501    0 -0.76083343281E+02 -0.15078210066E+03  0.36848083055E+03  0.56947523167E+03  0.40000000000E+03 0. -1.
   -9000007    1    1    2    0  503  0.76083343281E+02  0.15078210066E+03  0.60426769806E+02  0.43837804634E+03  0.40000000000E+03 0. -1.
<mgrwt>
<rscale>  2 0.43419341E+03</rscale>
<asrwt>0</asrwt>
<pdfrwt beam="1">  1       21 0.11052007E+00 0.43419341E+03</pdfrwt>
<pdfrwt beam="2">  1       21 0.44534283E-01 0.43419341E+03</pdfrwt>
<totfact> 0.27251152E+03</totfact>
</mgrwt>
</event>
<event>
 4    1  0.4656822E-002  0.4382032E+03  0.7818608E-02  0.1031300E+00
         21   -1    0    0  501  502  0.00000000000E+00  0.00000000000E+00  0.23237554547E+03  0.23237554547E+03  0.00000000000E+00 0. -1.
         21   -1    0    0  502  503 -0.00000000000E+00 -0.00000000000E+00 -0.96604808227E+03  0.96604808227E+03  0.00000000000E+00 0. -1.
    9000007    1    1    2  501    0  0.74822898076E+02  0.16255318355E+03 -0.59470589559E+03  0.73871314176E+03  0.40000000000E+03 0. -1.
   -9000007    1    1    2    0  503 -0.74822898076E+02 -0.16255318355E+03 -0.13896664121E+03  0.45971048599E+03  0.40000000000E+03 0. -1.
<mgrwt>
<rscale>  2 0.43820315E+03</rscale>
<asrwt>0</asrwt>
<pdfrwt beam="1">  1       21 0.35750085E-01 0.43820315E+03</pdfrwt>
<pdfrwt beam="2">  1       21 0.14862278E+00 0.43820315E+03</pdfrwt>
<totfact> 0.19876189E+03</totfact>
</mgrwt>
</event>
<event>
 4    1  0.4656822E-002  0.4425738E+03  0.7818608E-02  0.1029960E+00
         21   -1    0    0  503  502  0.00000000000E+00  0.00000000000E+00  0.77182489134E+03  0.77182489134E+03  0.00000000000E+00 0. -1.
         21   -1    0    0  501  503 -0.00000000000E+00 -0.00000000000E+00 -0.31160166340E+03  0.31160166340E+03  0.00000000000E+00 0.  1.
    9000007    1    1    2  501    0 -0.11229501423E+03  0.15251688185E+03 -0.32478160009E+01  0.44258571800E+03  0.40000000000E+03 0.  1.
   -9000007    1    1    2    0  502  0.11229501423E+03 -0.15251688185E+03  0.46347104394E+03  0.64084083674E+03  0.40000000000E+03 0. -1.
<mgrwt>
<rscale>  2 0.44257380E+03</rscale>
<asrwt>0</asrwt>
<pdfrwt beam="1">  1       21 0.11874229E+00 0.44257380E+03</pdfrwt>
<pdfrwt beam="2">  1       21 0.47938718E-01 0.44257380E+03</pdfrwt>
<totfact> 0.19448390E+03</totfact>
</mgrwt>
</event>
<event>
 4    1  0.4656822E-002  0.4004546E+03  0.7818608E-02  0.1043622E+00
         21   -1    0    0  501  502  0.00000000000E+00  0.00000000000E+00  0.12470158280E+04  0.12470158280E+04  0.00000000000E+00 0.  1.
         21   -1    0    0  502  503 -0.00000000000E+00 -0.00000000000E+00 -0.13802321320E+03  0.13802321320E+03  0.00000000000E+00 0.  1.
    9000007    1    1    2  501    0 -0.18329217791E+01 -0.18988070812E+02  0.37352967859E+03  0.54762060518E+03  0.40000000000E+03 0. -1.
   -9000007    1    1    2    0  503  0.18329217791E+01  0.18988070812E+02  0.73546293618E+03  0.83741843599E+03  0.40000000000E+03 0. -1.
<mgrwt>
<rscale>  2 0.40045462E+03</rscale>
<asrwt>0</asrwt>
<pdfrwt beam="1">  1       21 0.19184858E+00 0.40045462E+03</pdfrwt>
<pdfrwt beam="2">  1       21 0.21234341E-01 0.40045462E+03</pdfrwt>
<totfact> 0.27244560E+03</totfact>
</mgrwt>
</event>
<event>
 4    1  0.4656822E-002  0.5121329E+03  0.7818608E-02  0.1010660E+00
         21   -1    0    0  501  502  0.00000000000E+00  0.00000000000E+00  0.95075006953E+03  0.95075006953E+03  0.00000000000E+00 0.  1.
         21   -1    0    0  502  503 -0.00000000000E+00 -0.00000000000E+00 -0.45364775653E+03  0.45364775653E+03  0.00000000000E+00 0.  1.
    9000007    1    1    2  501    0 -0.16762478556E+02 -0.31937298293E+03  0.68813707214E+03  0.85779526284E+03  0.40000000000E+03 0.  1.
   -9000007    1    1    2    0  503  0.16762478556E+02  0.31937298293E+03 -0.19103475913E+03  0.54660256321E+03  0.40000000000E+03 0.  1.
<mgrwt>
<rscale>  2 0.51213288E+03</rscale>
<asrwt>0</asrwt>
<pdfrwt beam="1">  1       21 0.14626924E+00 0.51213288E+03</pdfrwt>
<pdfrwt beam="2">  1       21 0.69791963E-01 0.51213288E+03</pdfrwt>
<totfact> 0.48313243E+02</totfact>
</mgrwt>
</event>
<event>
 4    1  0.4656822E-002  0.4121805E+03  0.7818608E-02  0.1039642E+00
         21   -1    0    0  503  502  0.00000000000E+00  0.00000000000E+00  0.35102679089E+03  0.35102679089E+03  0.00000000000E+00 0.  1.
         21   -1    0    0  501  503 -0.00000000000E+00 -0.00000000000E+00 -0.52963005175E+03  0.52963005175E+03  0.00000000000E+00 0.  1.
    9000007    1    1    2  501    0  0.19102372306E+02 -0.97610668767E+02 -0.21856430558E+03  0.46654378032E+03  0.40000000000E+03 0.  1.
   -9000007    1    1    2    0  502 -0.19102372306E+02  0.97610668767E+02  0.39961044730E+02  0.41411306232E+03  0.40000000000E+03 0.  1.
<mgrwt>
<rscale>  2 0.41218047E+03</rscale>
<asrwt>0</asrwt>
<pdfrwt beam="1">  1       21 0.54004122E-01 0.41218047E+03</pdfrwt>
<pdfrwt beam="2">  1       21 0.81481546E-01 0.41218047E+03</pdfrwt>
<totfact> 0.37917588E+03</totfact>
</mgrwt>
</event>
<event>
 4    1  0.4656822E-002  0.4249039E+03  0.7818608E-02  0.1035482E+00
         21   -1    0    0  503  502  0.00000000000E+00  0.00000000000E+00  0.14996565459E+03  0.14996565459E+03  0.00000000000E+00 0.  1.
         21   -1    0    0  501  503 -0.00000000000E+00 -0.00000000000E+00 -0.15620184146E+04  0.15620184146E+04  0.00000000000E+00 0. -1.
    9000007    1    1    2  501    0 -0.13350845719E+03 -0.52142632191E+02 -0.11158916738E+04  0.11940509159E+04  0.40000000000E+03 0. -1.
   -9000007    1    1    2    0  502  0.13350845719E+03  0.52142632191E+02 -0.29616108621E+03  0.51793315323E+03  0.40000000000E+03 0.  1.
<mgrwt>
<rscale>  2 0.42490394E+03</rscale>
<asrwt>0</asrwt>
<pdfrwt beam="1">  1       21 0.23071639E-01 0.42490394E+03</pdfrwt>
<pdfrwt beam="2">  1       21 0.24031052E+00 0.42490394E+03</pdfrwt>
<totfact> 0.11190182E+03</totfact>
</mgrwt>
</event>
<event>
 4    1  0.4656822E-002  0.4392828E+03  0.7818608E-02  0.1030967E+00
         21   -1    0    0  503  502  0.00000000000E+00  0.00000000000E+00  0.87813695844E+03  0.87813695844E+03  0.00000000000E+00 0.  1.
         21   -1    0    0  501  503 -0.00000000000E+00 -0.00000000000E+00 -0.41403497427E+03  0.41403497427E+03  0.00000000000E+00 0.  1.
    9000007    1    1    2  501    0 -0.17708509335E+03 -0.40127712862E+02 -0.21053021616E+03  0.48712661141E+03  0.40000000000E+03 0.  1.
   -9000007    1    1    2    0  502  0.17708509335E+03  0.40127712862E+02  0.67463220033E+03  0.80504532130E+03  0.40000000000E+03 0.  1.
<mgrwt>
<rscale>  2 0.43928278E+03</rscale>
<asrwt>0</asrwt>
<pdfrwt beam="1">  1       21 0.13509799E+00 0.43928278E+03</pdfrwt>
<pdfrwt beam="2">  1       21 0.63697689E-01 0.43928278E+03</pdfrwt>
<totfact> 0.75553168E+02</totfact>
</mgrwt>
</event>
<event>
 4    1  0.4656822E-002  0.4442813E+03  0.7818608E-02  0.1029441E+00
         21   -1    0    0  501  502  0.00000000000E+00  0.00000000000E+00  0.49591325799E+03  0.49591325799E+03  0.00000000000E+00 0.  1.
         21   -1    0    0  502  503 -0.00000000000E+00 -0.00000000000E+00 -0.66299229805E+03  0.66299229805E+03  0.00000000000E+00 0. -1.
    9000007    1    1    2  501    0 -0.25453709330E+02  0.19167153296E+03  0.28277991206E+03  0.52664062370E+03  0.40000000000E+03 0.  1.
   -9000007    1    1    2    0  503  0.25453709330E+02 -0.19167153296E+03 -0.44985895212E+03  0.63226493234E+03  0.40000000000E+03 0. -1.
<mgrwt>
<rscale>  2 0.44428129E+03</rscale>
<asrwt>0</asrwt>
<pdfrwt beam="1">  1       21 0.76294348E-01 0.44428129E+03</pdfrwt>
<pdfrwt beam="2">  1       21 0.10199881E+00 0.44428129E+03</pdfrwt>
<totfact> 0.10215334E+03</totfact>
</mgrwt>
</event>
<event>
 4    1  0.4656822E-002  0.4130648E+03  0.7818608E-02  0.1039347E+00
         21   -1    0    0  503  502  0.00000000000E+00  0.00000000000E+00  0.32284812170E+04  0.32284812170E+04  0.00000000000E+00 0.  1.
         21   -1    0    0  501  503 -0.00000000000E+00 -0.00000000000E+00 -0.53494975674E+02  0.53494975674E+02  0.00000000000E+00 0.  1.
    9000007    1    1    2  501    0  0.92988933922E+02  0.44447956848E+02  0.14071918373E+04  0.14665644990E+04  0.40000000000E+03 0.  1.
   -9000007    1    1    2    0  502 -0.92988933922E+02 -0.44447956848E+02  0.17677944040E+04  0.18154116937E+04  0.40000000000E+03 0.  1.
<mgrwt>
<rscale>  2 0.41306484E+03</rscale>
<asrwt>0</asrwt>
<pdfrwt beam="1">  1       21 0.49668927E+00 0.41306484E+03</pdfrwt>
<pdfrwt beam="2">  1       21 0.82299988E-02 0.41306484E+03</pdfrwt>
<totfact> 0.17739256E+02</totfact>
</mgrwt>
</event>
<event>
 4    1  0.4656822E-002  0.5612636E+03  0.7818608E-02  0.9989200E-01
         21   -1    0    0  501  502  0.00000000000E+00  0.00000000000E+00  0.12675049649E+04  0.12675049649E+04  0.00000000000E+00 0. -1.
         21   -1    0    0  502  503 -0.00000000000E+00 -0.00000000000E+00 -0.33818439226E+03  0.33818439226E+03  0.00000000000E+00 0.  1.
    9000007    1    1    2  501    0  0.15533614232E+02  0.39341521461E+03  0.87802485413E+03  0.10420865937E+04  0.40000000000E+03 0.  1.
   -9000007    1    1    2    0  503 -0.15533614232E+02 -0.39341521461E+03  0.51295718503E+02  0.56360276348E+03  0.40000000000E+03 0. -1.
<mgrwt>
<rscale>  2 0.56126360E+03</rscale>
<asrwt>0</asrwt>
<pdfrwt beam="1">  1       21 0.19500076E+00 0.56126360E+03</pdfrwt>
<pdfrwt beam="2">  1       21 0.52028369E-01 0.56126360E+03</pdfrwt>
<totfact> 0.39666181E+02</totfact>
</mgrwt>
</event>
<event>
 4    1  0.4656822E-002  0.4196575E+03  0.7818608E-02  0.1037178E+00
         21   -1    0    0  503  502  0.00000000000E+00  0.00000000000E+00  0.39402984567E+03  0.39402984567E+03  0.00000000000E+00 0. -1.
         21   -1    0    0  501  503 -0.00000000000E+00 -0.00000000000E+00 -0.45135162150E+03  0.45135162150E+03  0.00000000000E+00 0. -1.
    9000007    1    1    2  501    0  0.67276513439E+02  0.10763967662E+03 -0.70393221814E+02  0.42552042832E+03  0.40000000000E+03 0. -1.
   -9000007    1    1    2    0  502 -0.67276513439E+02 -0.10763967662E+03  0.13071445982E+02  0.41986103885E+03  0.40000000000E+03 0. -1.
<mgrwt>
<rscale>  2 0.41965751E+03</rscale>
<asrwt>0</asrwt>
<pdfrwt beam="1">  1       21 0.60619976E-01 0.41965751E+03</pdfrwt>
<pdfrwt beam="2">  1       21 0.69438711E-01 0.41965751E+03</pdfrwt>
<totfact> 0.42365862E+03</totfact>
</mgrwt>
</event>
<event>
 4    1  0.4656822E-002  0.4281972E+03  0.7818608E-02  0.1034431E+00
         21   -1    0    0  503  502  0.00000000000E+00  0.00000000000E+00  0.20183957616E+04  0.20183957616E+04  0.00000000000E+00 0.  1.
         21   -1    0    0  501  503 -0.00000000000E+00 -0.00000000000E+00 -0.31848714462E+03  0.31848714462E+03  0.00000000000E+00 0.  1.
    9000007    1    1    2  501    0  0.63025913443E+02  0.13921415506E+03 -0.13789628932E+03  0.44985356878E+03  0.40000000000E+03 0.  1.
   -9000007    1    1    2    0  502 -0.63025913443E+02 -0.13921415506E+03  0.18378049063E+04  0.18870293374E+04  0.40000000000E+03 0.  1.
<mgrwt>
<rscale>  2 0.42819721E+03</rscale>
<asrwt>0</asrwt>
<pdfrwt beam="1">  1       21 0.31052242E+00 0.42819721E+03</pdfrwt>
<pdfrwt beam="2">  1       21 0.48998024E-01 0.42819721E+03</pdfrwt>
<totfact> 0.92058704E+01</totfact>
</mgrwt>
</event>
<event>
 4    1  0.4656822E-002  0.5390006E+03  0.7818608E-02  0.1004072E+00
         21   -1    0    0  501  502  0.00000000000E+00  0.00000000000E+00  0.66548555854E+03  0.66548555854E+03  0.00000000000E+00 0.  1.
         21   -1    0    0  502  503 -0.00000000000E+00 -0.00000000000E+00 -0.57037878812E+03  0.57037878812E+03  0.00000000000E+00 0.  1.
    9000007    1    1    2  501    0 -0.36127683824E+03  0.80031699827E+00  0.34686560803E+03  0.64096594636E+03  0.40000000000E+03 0.  1.
   -9000007    1    1    2    0  503  0.36127683824E+03 -0.80031699827E+00 -0.25175883762E+03  0.59489840030E+03  0.40000000000E+03 0.  1.
<mgrwt>
<rscale>  2 0.53900055E+03</rscale>
<asrwt>0</asrwt>
<pdfrwt beam="1">  1       21 0.10238239E+00 0.53900055E+03</pdfrwt>
<pdfrwt beam="2">  1       21 0.87750583E-01 0.53900055E+03</pdfrwt>
<totfact> 0.70483837E+02</totfact>
</mgrwt>
</event>
<event>
 4    1  0.4656822E-002  0.5166424E+03  0.7818608E-02  0.1009524E+00
         21   -1    0    0  501  502  0.00000000000E+00  0.00000000000E+00  0.93660535180E+03  0.93660535180E+03  0.00000000000E+00 0. -1.
         21   -1    0    0  502  503 -0.00000000000E+00 -0.00000000000E+00 -0.39187730104E+03  0.39187730104E+03  0.00000000000E+00 0. -1.
    9000007    1    1    2  501    0  0.32545028373E+03 -0.31646079798E+02 -0.74550217639E+02  0.52199338741E+03  0.40000000000E+03 0. -1.
   -9000007    1    1    2    0  503 -0.32545028373E+03  0.31646079798E+02  0.61927826839E+03  0.80648926543E+03  0.40000000000E+03 0. -1.
<mgrwt>
<rscale>  2 0.51664239E+03</rscale>
<asrwt>0</asrwt>
<pdfrwt beam="1">  1       21 0.14409313E+00 0.51664239E+03</pdfrwt>
<pdfrwt beam="2">  1       21 0.60288816E-01 0.51664239E+03</pdfrwt>
<totfact> 0.69590478E+02</totfact>
</mgrwt>
</event>
<event>
 4    1  0.4656822E-002  0.4449454E+03  0.7818608E-02  0.1029240E+00
         21   -1    0    0  503  502  0.00000000000E+00  0.00000000000E+00  0.70457835414E+03  0.70457835414E+03  0.00000000000E+00 0. -1.
         21   -1    0    0  501  503 -0.00000000000E+00 -0.00000000000E+00 -0.32024821246E+03  0.32024821246E+03  0.00000000000E+00 0. -1.
    9000007    1    1    2  501    0  0.14560797733E+03  0.12951711124E+03  0.12746798952E+02  0.44512789853E+03  0.40000000000E+03 0. -1.
   -9000007    1    1    2    0  502 -0.14560797733E+03 -0.12951711124E+03  0.37158334273E+03  0.57969866807E+03  0.40000000000E+03 0. -1.
<mgrwt>
<rscale>  2 0.44494535E+03</rscale>
<asrwt>0</asrwt>
<pdfrwt beam="1">  1       21 0.10839667E+00 0.44494535E+03</pdfrwt>
<pdfrwt beam="2">  1       21 0.49268956E-01 0.44494535E+03</pdfrwt>
<totfact> 0.23019346E+03</totfact>
</mgrwt>
</event>
<event>
 4    1  0.4656822E-002  0.4261579E+03  0.7818608E-02  0.1035081E+00
         21   -1    0    0  501  502  0.00000000000E+00  0.00000000000E+00  0.29622073455E+03  0.29622073455E+03  0.00000000000E+00 0. -1.
         21   -1    0    0  502  503 -0.00000000000E+00 -0.00000000000E+00 -0.76333700133E+03  0.76333700133E+03  0.00000000000E+00 0. -1.
    9000007    1    1    2  501    0 -0.83955117281E+02 -0.12067343220E+03  0.14790667339E+01  0.42616044701E+03  0.40000000000E+03 0. -1.
   -9000007    1    1    2    0  503  0.83955117281E+02  0.12067343220E+03 -0.46859533351E+03  0.63339728887E+03  0.40000000000E+03 0. -1.
<mgrwt>
<rscale>  2 0.42615788E+03</rscale>
<asrwt>0</asrwt>
<pdfrwt beam="1">  1       21 0.45572420E-01 0.42615788E+03</pdfrwt>
<pdfrwt beam="2">  1       21 0.11743646E+00 0.42615788E+03</pdfrwt>
<totfact> 0.22389892E+03</totfact>
</mgrwt>
</event>
<event>
 4    1  0.4656822E-002  0.4236184E+03  0.7818608E-02  0.1035895E+00
         21   -1    0    0  501  502  0.00000000000E+00  0.00000000000E+00  0.10792564118E+03  0.10792564118E+03  0.00000000000E+00 0.  1.
         21   -1    0    0  502  503 -0.00000000000E+00 -0.00000000000E+00 -0.18876888528E+04  0.18876888528E+04  0.00000000000E+00 0. -1.
    9000007    1    1    2  501    0  0.13153554693E+03 -0.46378669725E+02 -0.12343272141E+04  0.13049966485E+04  0.40000000000E+03 0. -1.
   -9000007    1    1    2    0  503 -0.13153554693E+03  0.46378669725E+02 -0.54543599751E+03  0.69061784548E+03  0.40000000000E+03 0.  1.
<mgrwt>
<rscale>  2 0.42361844E+03</rscale>
<asrwt>0</asrwt>
<pdfrwt beam="1">  1       21 0.16603946E-01 0.42361844E+03</pdfrwt>
<pdfrwt beam="2">  1       21 0.29041365E+00 0.42361844E+03</pdfrwt>
<totfact> 0.10382025E+03</totfact>
</mgrwt>
</event>
<event>
 4    1  0.4656822E-002  0.4015779E+03  0.7818608E-02  0.1043235E+00
         21   -1    0    0  501  502  0.00000000000E+00  0.00000000000E+00  0.46588313381E+03  0.46588313381E+03  0.00000000000E+00 0. -1.
         21   -1    0    0  502  503 -0.00000000000E+00 -0.00000000000E+00 -0.61350529727E+03  0.61350529727E+03  0.00000000000E+00 0. -1.
    9000007    1    1    2  501    0  0.24841860999E+02 -0.25450479545E+02  0.28246285342E+03  0.49096854128E+03  0.40000000000E+03 0. -1.
   -9000007    1    1    2    0  503 -0.24841860999E+02  0.25450479545E+02 -0.43008501688E+03  0.58841988980E+03  0.40000000000E+03 0. -1.
<mgrwt>
<rscale>  2 0.40157794E+03</rscale>
<asrwt>0</asrwt>
<pdfrwt beam="1">  1       21 0.71674328E-01 0.40157794E+03</pdfrwt>
<pdfrwt beam="2">  1       21 0.94385430E-01 0.40157794E+03</pdfrwt>
<totfact> 0.14459786E+03</totfact>
</mgrwt>
</event>
<event>
 4    1  0.4656822E-002  0.7499037E+03  0.7818608E-02  0.9635501E-01
         21   -1    0    0  501  502  0.00000000000E+00  0.00000000000E+00  0.15405586704E+04  0.15405586704E+04  0.00000000000E+00 0. -1.
         21   -1    0    0  502  503 -0.00000000000E+00 -0.00000000000E+00 -0.39074113738E+03  0.39074113738E+03  0.00000000000E+00 0. -1.
    9000007    1    1    2  501    0  0.79397504360E+02 -0.62932634570E+03  0.32722033416E+03  0.81818626252E+03  0.40000000000E+03 0. -1.
   -9000007    1    1    2    0  503 -0.79397504360E+02  0.62932634570E+03  0.82259719891E+03  0.11131135453E+04  0.40000000000E+03 0. -1.
<mgrwt>
<rscale>  2 0.74990374E+03</rscale>
<asrwt>0</asrwt>
<pdfrwt beam="1">  1       21 0.23700902E+00 0.74990374E+03</pdfrwt>
<pdfrwt beam="2">  1       21 0.60114022E-01 0.74990374E+03</pdfrwt>
<totfact> 0.14338888E+02</totfact>
</mgrwt>
</event>
<event>
 4    1  0.4656822E-002  0.5843563E+03  0.7818608E-02  0.9938404E-01
         21   -1    0    0  501  502  0.00000000000E+00  0.00000000000E+00  0.39969645452E+03  0.39969645452E+03  0.00000000000E+00 0.  1.
         21   -1    0    0  502  503 -0.00000000000E+00 -0.00000000000E+00 -0.11028930596E+04  0.11028930596E+04  0.00000000000E+00 0. -1.
    9000007    1    1    2  501    0  0.10049600389E+03  0.41397207444E+03  0.50685154548E+01  0.58437831502E+03  0.40000000000E+03 0. -1.
   -9000007    1    1    2    0  503 -0.10049600389E+03 -0.41397207444E+03 -0.70826512056E+03  0.91821119913E+03  0.40000000000E+03 0. -1.
<mgrwt>
<rscale>  2 0.58435633E+03</rscale>
<asrwt>0</asrwt>
<pdfrwt beam="1">  1       21 0.61491764E-01 0.58435633E+03</pdfrwt>
<pdfrwt beam="2">  1       21 0.16967585E+00 0.58435633E+03</pdfrwt>
<totfact> 0.41240509E+02</totfact>
</mgrwt>
</event>
<event>
 4    1  0.4656822E-002  0.4544738E+03  0.7818608E-02  0.1026396E+00
         21   -1    0    0  503  502  0.00000000000E+00  0.00000000000E+00  0.57314305813E+03  0.57314305813E+03  0.00000000000E+00 0.  1.
         21   -1    0    0  501  503 -0.00000000000E+00 -0.00000000000E+00 -0.43866817788E+03  0.43866817788E+03  0.00000000000E+00 0. -1.
    9000007    1    1    2  501    0  0.21454797447E+03 -0.22707733344E+02 -0.14649142515E+03  0.47749996036E+03  0.40000000000E+03 0.  1.
   -9000007    1    1    2    0  502 -0.21454797447E+03  0.22707733344E+02  0.28096630541E+03  0.53431127564E+03  0.40000000000E+03 0. -1.
<mgrwt>
<rscale>  2 0.45447384E+03</rscale>
<asrwt>0</asrwt>
<pdfrwt beam="1">  1       21 0.88175855E-01 0.45447384E+03</pdfrwt>
<pdfrwt beam="2">  1       21 0.67487412E-01 0.45447384E+03</pdfrwt>
<totfact> 0.19040041E+03</totfact>
</mgrwt>
</event>
<event>
 4    1  0.4656822E-002  0.4168583E+03  0.7818608E-02  0.1038094E+00
         21   -1    0    0  501  502  0.00000000000E+00  0.00000000000E+00  0.11419851800E+03  0.11419851800E+03  0.00000000000E+00 0.  1.
         21   -1    0    0  502  503 -0.00000000000E+00 -0.00000000000E+00 -0.18066782084E+04  0.18066782084E+04  0.00000000000E+00 0.  1.
    9000007    1    1    2  501    0  0.16033995007E+02  0.11624865327E+03 -0.46476264093E+03  0.62431975043E+03  0.40000000000E+03 0.  1.
   -9000007    1    1    2    0  503 -0.16033995007E+02 -0.11624865327E+03 -0.12277170495E+04  0.12965569760E+04  0.40000000000E+03 0.  1.
<mgrwt>
<rscale>  2 0.41685830E+03</rscale>
<asrwt>0</asrwt>
<pdfrwt beam="1">  1       21 0.17569003E-01 0.41685830E+03</pdfrwt>
<pdfrwt beam="2">  1       21 0.27795050E+00 0.41685830E+03</pdfrwt>
<totfact> 0.11137141E+03</totfact>
</mgrwt>
</event>
<event>
 4    1  0.4656822E-002  0.4114735E+03  0.7818608E-02  0.1039878E+00
         21   -1    0    0  503  502  0.00000000000E+00  0.00000000000E+00  0.68208854119E+03  0.68208854119E+03  0.00000000000E+00 0.  1.
         21   -1    0    0  501  503 -0.00000000000E+00 -0.00000000000E+00 -0.26792623753E+03  0.26792623753E+03  0.00000000000E+00 0.  1.
    9000007    1    1    2  501    0  0.51739398357E+01 -0.96351639436E+02  0.78269253857E+02  0.41885138674E+03  0.40000000000E+03 0. -1.
   -9000007    1    1    2    0  502 -0.51739398357E+01  0.96351639436E+02  0.33589304980E+03  0.53116339198E+03  0.40000000000E+03 0. -1.
<mgrwt>
<rscale>  2 0.41147346E+03</rscale>
<asrwt>0</asrwt>
<pdfrwt beam="1">  1       21 0.10493670E+00 0.41147346E+03</pdfrwt>
<pdfrwt beam="2">  1       21 0.41219421E-01 0.41147346E+03</pdfrwt>
<totfact> 0.36684653E+03</totfact>
</mgrwt>
</event>
<event>
 4    1  0.4656822E-002  0.4663324E+03  0.7818608E-02  0.1022960E+00
         21   -1    0    0  503  502  0.00000000000E+00  0.00000000000E+00  0.85867303817E+03  0.85867303817E+03  0.00000000000E+00 0. -1.
         21   -1    0    0  501  503 -0.00000000000E+00 -0.00000000000E+00 -0.28201707954E+03  0.28201707954E+03  0.00000000000E+00 0. -1.
    9000007    1    1    2  501    0  0.91916042202E+02 -0.22139867661E+03  0.10619590059E+03  0.47827136870E+03  0.40000000000E+03 0. -1.
   -9000007    1    1    2    0  502 -0.91916042202E+02  0.22139867661E+03  0.47046005805E+03  0.66241874901E+03  0.40000000000E+03 0. -1.
<mgrwt>
<rscale>  2 0.46633243E+03</rscale>
<asrwt>0</asrwt>
<pdfrwt beam="1">  1       21 0.13210354E+00 0.46633243E+03</pdfrwt>
<pdfrwt beam="2">  1       21 0.43387243E-01 0.46633243E+03</pdfrwt>
<totfact> 0.18058553E+03</totfact>
</mgrwt>
</event>
<event>
 4    1  0.4656822E-002  0.4088015E+03  0.7818608E-02  0.1040774E+00
         21   -1    0    0  503  502  0.00000000000E+00  0.00000000000E+00  0.15203172392E+04  0.15203172392E+04  0.00000000000E+00 0.  1.
         21   -1    0    0  501  503 -0.00000000000E+00 -0.00000000000E+00 -0.11221949414E+03  0.11221949414E+03  0.00000000000E+00 0.  1.
    9000007    1    1    2  501    0  0.65758743634E+02  0.52862534259E+02  0.58729266511E+03  0.71556364803E+03  0.40000000000E+03 0.  1.
   -9000007    1    1    2    0  502 -0.65758743634E+02 -0.52862534259E+02  0.82080507992E+03  0.91697308527E+03  0.40000000000E+03 0.  1.
<mgrwt>
<rscale>  2 0.40880149E+03</rscale>
<asrwt>0</asrwt>
<pdfrwt beam="1">  1       21 0.23389494E+00 0.40880149E+03</pdfrwt>
<pdfrwt beam="2">  1       21 0.17264539E-01 0.40880149E+03</pdfrwt>
<totfact> 0.21451016E+03</totfact>
</mgrwt>
</event>
<event>
 4    1  0.4656822E-002  0.4155110E+03  0.7818608E-02  0.1038537E+00
         21   -1    0    0  501  502  0.00000000000E+00  0.00000000000E+00  0.29393448250E+03  0.29393448250E+03  0.00000000000E+00 0. -1.
         21   -1    0    0  502  503 -0.00000000000E+00 -0.00000000000E+00 -0.61491419617E+03  0.61491419617E+03  0.00000000000E+00 0. -1.
    9000007    1    1    2  501    0 -0.70859989160E+02 -0.87340083934E+02 -0.25665972717E+03  0.48838882448E+03  0.40000000000E+03 0. -1.
   -9000007    1    1    2    0  503  0.70859989160E+02  0.87340083934E+02 -0.64319986499E+02  0.42045985419E+03  0.40000000000E+03 0. -1.
<mgrwt>
<rscale>  2 0.41551104E+03</rscale>
<asrwt>0</asrwt>
<pdfrwt beam="1">  1       21 0.45220690E-01 0.41551104E+03</pdfrwt>
<pdfrwt beam="2">  1       21 0.94602184E-01 0.41551104E+03</pdfrwt>
<totfact> 0.38838694E+03</totfact>
</mgrwt>
</event>
<event>
 4    1  0.4656822E-002  0.4206195E+03  0.7818608E-02  0.1036865E+00
         21   -1    0    0  501  502  0.00000000000E+00  0.00000000000E+00  0.44759749066E+03  0.44759749066E+03  0.00000000000E+00 0.  1.
         21   -1    0    0  502  503 -0.00000000000E+00 -0.00000000000E+00 -0.41727824157E+03  0.41727824157E+03  0.00000000000E+00 0. -1.
    9000007    1    1    2  501    0 -0.46304092702E+02  0.12155928039E+03  0.11447774233E+03  0.43591958105E+03  0.40000000000E+03 0. -1.
   -9000007    1    1    2    0  503  0.46304092702E+02 -0.12155928039E+03 -0.84158493244E+02  0.42895615118E+03  0.40000000000E+03 0.  1.
<mgrwt>
<rscale>  2 0.42061946E+03</rscale>
<asrwt>0</asrwt>
<pdfrwt beam="1">  1       21 0.68861152E-01 0.42061946E+03</pdfrwt>
<pdfrwt beam="2">  1       21 0.64196653E-01 0.42061946E+03</pdfrwt>
<totfact> 0.38032439E+03</totfact>
</mgrwt>
</event>
<event>
 4    1  0.4656822E-002  0.4373365E+03  0.7818608E-02  0.1031567E+00
         21   -1    0    0  503  502  0.00000000000E+00  0.00000000000E+00  0.30919465925E+04  0.30919465925E+04  0.00000000000E+00 0. -1.
         21   -1    0    0  501  503 -0.00000000000E+00 -0.00000000000E+00 -0.79632768697E+02  0.79632768697E+02  0.00000000000E+00 0. -1.
    9000007    1    1    2  501    0  0.14663083667E+03  0.98805982354E+02  0.75696105347E+03  0.87421579766E+03  0.40000000000E+03 0. -1.
   -9000007    1    1    2    0  502 -0.14663083667E+03 -0.98805982354E+02  0.22553527703E+04  0.22973635635E+04  0.40000000000E+03 0. -1.
<mgrwt>
<rscale>  2 0.43733651E+03</rscale>
<asrwt>0</asrwt>
<pdfrwt beam="1">  1       21 0.47568400E+00 0.43733651E+03</pdfrwt>
<pdfrwt beam="2">  1       21 0.12251198E-01 0.43733651E+03</pdfrwt>
<totfact> 0.11977785E+02</totfact>
</mgrwt>
</event>
<event>
 4    1  0.4656822E-002  0.4079241E+03  0.7818608E-02  0.1041070E+00
         21   -1    0    0  503  502  0.00000000000E+00  0.00000000000E+00  0.17452439694E+04  0.17452439694E+04  0.00000000000E+00 0.  1.
         21   -1    0    0  501  503 -0.00000000000E+00 -0.00000000000E+00 -0.10418043425E+03  0.10418043425E+03  0.00000000000E+00 0.  1.
    9000007    1    1    2  501    0  0.93517071601E+01  0.79464611243E+02  0.10898105972E+04  0.11636533920E+04  0.40000000000E+03 0.  1.
   -9000007    1    1    2    0  502 -0.93517071601E+01 -0.79464611243E+02  0.55125293792E+03  0.68577101166E+03  0.40000000000E+03 0.  1.
<mgrwt>
<rscale>  2 0.40792411E+03</rscale>
<asrwt>0</asrwt>
<pdfrwt beam="1">  1       21 0.26849905E+00 0.40792411E+03</pdfrwt>
<pdfrwt beam="2">  1       21 0.16027760E-01 0.40792411E+03</pdfrwt>
<totfact> 0.15147187E+03</totfact>
</mgrwt>
</event>
<event>
 4    1  0.4656822E-002  0.4321325E+03  0.7818608E-02  0.1033188E+00
         21   -1    0    0  503  502  0.00000000000E+00  0.00000000000E+00  0.73087338846E+03  0.73087338846E+03  0.00000000000E+00 0. -1.
         21   -1    0    0  501  503 -0.00000000000E+00 -0.00000000000E+00 -0.44619159267E+03  0.44619159267E+03  0.00000000000E+00 0. -1.
    9000007    1    1    2  501    0 -0.14998129980E+03  0.65146732947E+02 -0.24240588849E+03  0.49547865936E+03  0.40000000000E+03 0. -1.
   -9000007    1    1    2    0  502  0.14998129980E+03 -0.65146732947E+02  0.52708768428E+03  0.68158632177E+03  0.40000000000E+03 0. -1.
<mgrwt>
<rscale>  2 0.43213249E+03</rscale>
<asrwt>0</asrwt>
<pdfrwt beam="1">  1       21 0.11244206E+00 0.43213249E+03</pdfrwt>
<pdfrwt beam="2">  1       21 0.68644860E-01 0.43213249E+03</pdfrwt>
<totfact> 0.10254776E+03</totfact>
</mgrwt>
</event>
<event>
 4    1  0.4656822E-002  0.4665710E+03  0.7818608E-02  0.1022893E+00
         21   -1    0    0  503  502  0.00000000000E+00  0.00000000000E+00  0.12035612857E+03  0.12035612857E+03  0.00000000000E+00 0. -1.
         21   -1    0    0  501  503 -0.00000000000E+00 -0.00000000000E+00 -0.18225753311E+04  0.18225753311E+04  0.00000000000E+00 0.  1.
    9000007    1    1    2  501    0  0.22174051939E+02 -0.23915853893E+03 -0.76635586019E+03  0.89721223786E+03  0.40000000000E+03 0. -1.
   -9000007    1    1    2    0  502 -0.22174051939E+02  0.23915853893E+03 -0.93586334232E+03  0.10457192218E+04  0.40000000000E+03 0.  1.
<mgrwt>
<rscale>  2 0.46657100E+03</rscale>
<asrwt>0</asrwt>
<pdfrwt beam="1">  1       21 0.18516327E-01 0.46657100E+03</pdfrwt>
<pdfrwt beam="2">  1       21 0.28039622E+00 0.46657100E+03</pdfrwt>
<totfact> 0.94987522E+02</totfact>
</mgrwt>
</event>
<event>
 4    1  0.4656822E-002  0.4004311E+03  0.7818608E-02  0.1043630E+00
         21   -1    0    0  501  502  0.00000000000E+00  0.00000000000E+00  0.20895993399E+03  0.20895993399E+03  0.00000000000E+00 0. -1.
         21   -1    0    0  502  503 -0.00000000000E+00 -0.00000000000E+00 -0.11402289011E+04  0.11402289011E+04  0.00000000000E+00 0. -1.
    9000007    1    1    2  501    0 -0.17933414445E+02 -0.48471550347E+01 -0.85140716543E+03  0.94087154469E+03  0.40000000000E+03 0. -1.
   -9000007    1    1    2    0  503  0.17933414445E+02  0.48471550347E+01 -0.79861801673E+02  0.40831729039E+03  0.40000000000E+03 0. -1.
<mgrwt>
<rscale>  2 0.40043115E+03</rscale>
<asrwt>0</asrwt>
<pdfrwt beam="1">  1       21 0.32147682E-01 0.40043115E+03</pdfrwt>
<pdfrwt beam="2">  1       21 0.17541983E+00 0.40043115E+03</pdfrwt>
<totfact> 0.15767513E+03</totfact>
</mgrwt>
</event>
<event>
 4    1  0.4656822E-002  0.4250977E+03  0.7818608E-02  0.1035420E+00
         21   -1    0    0  501  502  0.00000000000E+00  0.00000000000E+00  0.67135016382E+03  0.67135016382E+03  0.00000000000E+00 0.  1.
         21   -1    0    0  502  503 -0.00000000000E+00 -0.00000000000E+00 -0.35148485235E+03  0.35148485235E+03  0.00000000000E+00 0.  1.
    9000007    1    1    2  501    0 -0.13258222617E+03  0.55946795465E+02  0.40742306446E+03  0.58881376009E+03  0.40000000000E+03 0.  1.
   -9000007    1    1    2    0  503  0.13258222617E+03 -0.55946795465E+02 -0.87557752985E+02  0.43402125608E+03  0.40000000000E+03 0.  1.
<mgrwt>
<rscale>  2 0.42509774E+03</rscale>
<asrwt>0</asrwt>
<pdfrwt beam="1">  1       21 0.10328464E+00 0.42509774E+03</pdfrwt>
<pdfrwt beam="2">  1       21 0.54074593E-01 0.42509774E+03</pdfrwt>
<totfact> 0.21416296E+03</totfact>
</mgrwt>
</event>
<event>
 4    1  0.4656822E-002  0.4369642E+03  0.7818608E-02  0.1031682E+00
         21   -1    0    0  501  502  0.00000000000E+00  0.00000000000E+00  0.12548387344E+03  0.12548387344E+03  0.00000000000E+00 0. -1.
         21   -1    0    0  502  503 -0.00000000000E+00 -0.00000000000E+00 -0.15849198086E+04  0.15849198086E+04  0.00000000000E+00 0.  1.
    9000007    1    1    2  501    0  0.10545591946E+03 -0.14077207536E+03 -0.90063868217E+03  0.10010433377E+04  0.40000000000E+03 0.  1.
   -9000007    1    1    2    0  503 -0.10545591946E+03  0.14077207536E+03 -0.55879725295E+03  0.70936034429E+03  0.40000000000E+03 0. -1.
<mgrwt>
<rscale>  2 0.43696422E+03</rscale>
<asrwt>0</asrwt>
<pdfrwt beam="1">  1       21 0.19305211E-01 0.43696422E+03</pdfrwt>
<pdfrwt beam="2">  1       21 0.24383382E+00 0.43696422E+03</pdfrwt>
<totfact> 0.14874223E+03</totfact>
</mgrwt>
</event>
<event>
 4    1  0.4656822E-002  0.4319611E+03  0.7818608E-02  0.1033242E+00
         21   -1    0    0  503  502  0.00000000000E+00  0.00000000000E+00  0.12581246492E+04  0.12581246492E+04  0.00000000000E+00 0. -1.
         21   -1    0    0  501  503 -0.00000000000E+00 -0.00000000000E+00 -0.32475604264E+03  0.32475604264E+03  0.00000000000E+00 0. -1.
    9000007    1    1    2  501    0 -0.12176395956E+03 -0.10846158565E+03 -0.11669036976E+03  0.44744499081E+03  0.40000000000E+03 0. -1.
   -9000007    1    1    2    0  502  0.12176395956E+03  0.10846158565E+03  0.10500589763E+04  0.11354357010E+04  0.40000000000E+03 0. -1.
<mgrwt>
<rscale>  2 0.43196108E+03</rscale>
<asrwt>0</asrwt>
<pdfrwt beam="1">  1       21 0.19355764E+00 0.43196108E+03</pdfrwt>
<pdfrwt beam="2">  1       21 0.49962469E-01 0.43196108E+03</pdfrwt>
<totfact> 0.46880592E+02</totfact>
</mgrwt>
</event>
<event>
 4    1  0.4656822E-002  0.5478221E+03  0.7818608E-02  0.1001999E+00
         21   -1    0    0  503  502  0.00000000000E+00  0.00000000000E+00  0.52919581933E+03  0.52919581933E+03  0.00000000000E+00 0.  1.
         21   -1    0    0  501  503 -0.00000000000E+00 -0.00000000000E+00 -0.57214856352E+03  0.57214856352E+03  0.00000000000E+00 0.  1.
    9000007    1    1    2  501    0  0.69593319005E+02  0.36778509669E+03  0.30230368642E+02  0.54865561383E+03  0.40000000000E+03 0.  1.
   -9000007    1    1    2    0  502 -0.69593319005E+02 -0.36778509669E+03 -0.73183112828E+02  0.55268876902E+03  0.40000000000E+03 0.  1.
<mgrwt>
<rscale>  2 0.54782215E+03</rscale>
<asrwt>0</asrwt>
<pdfrwt beam="1">  1       21 0.81414742E-01 0.54782215E+03</pdfrwt>
<pdfrwt beam="2">  1       21 0.88022856E-01 0.54782215E+03</pdfrwt>
<totfact> 0.12061290E+03</totfact>
</mgrwt>
</event>
<event>
 4    1  0.4656822E-002  0.4228512E+03  0.7818608E-02  0.1036142E+00
         21   -1    0    0  503  502  0.00000000000E+00  0.00000000000E+00  0.10622145566E+04  0.10622145566E+04  0.00000000000E+00 0.  1.
         21   -1    0    0  501  503 -0.00000000000E+00 -0.00000000000E+00 -0.26843510120E+03  0.26843510120E+03  0.00000000000E+00 0.  1.
    9000007    1    1    2  501    0  0.83670541459E+02  0.10863863156E+03 -0.94049092079E+01  0.42295574720E+03  0.40000000000E+03 0.  1.
   -9000007    1    1    2    0  502 -0.83670541459E+02 -0.10863863156E+03  0.80318436462E+03  0.90769391061E+03  0.40000000000E+03 0.  1.
<mgrwt>
<rscale>  2 0.42285117E+03</rscale>
<asrwt>0</asrwt>
<pdfrwt beam="1">  1       21 0.16341762E+00 0.42285117E+03</pdfrwt>
<pdfrwt beam="2">  1       21 0.41297708E-01 0.42285117E+03</pdfrwt>
<totfact> 0.11469682E+03</totfact>
</mgrwt>
</event>
<event>
 4    1  0.4656822E-002  0.4101417E+03  0.7818608E-02  0.1040323E+00
         21   -1    0    0  503  502  0.00000000000E+00  0.00000000000E+00  0.23312717676E+03  0.23312717676E+03  0.00000000000E+00 0. -1.
         21   -1    0    0  501  503 -0.00000000000E+00 -0.00000000000E+00 -0.82423050649E+03  0.82423050649E+03  0.00000000000E+00 0. -1.
    9000007    1    1    2  501    0  0.61911233843E+02  0.66205766534E+02 -0.48213881935E+03  0.63298818751E+03  0.40000000000E+03 0. -1.
   -9000007    1    1    2    0  502 -0.61911233843E+02 -0.66205766534E+02 -0.10896451038E+03  0.42436949575E+03  0.40000000000E+03 0. -1.
<mgrwt>
<rscale>  2 0.41014169E+03</rscale>
<asrwt>0</asrwt>
<pdfrwt beam="1">  1       21 0.35865719E-01 0.41014169E+03</pdfrwt>
<pdfrwt beam="2">  1       21 0.12680469E+00 0.41014169E+03</pdfrwt>
<totfact> 0.30349455E+03</totfact>
</mgrwt>
</event>
<event>
 4    1  0.4656822E-002  0.4445771E+03  0.7818608E-02  0.1029352E+00
         21   -1    0    0  501  502  0.00000000000E+00  0.00000000000E+00  0.54498075273E+03  0.54498075273E+03  0.00000000000E+00 0.  1.
         21   -1    0    0  502  503 -0.00000000000E+00 -0.00000000000E+00 -0.53125019204E+03  0.53125019204E+03  0.00000000000E+00 0. -1.
    9000007    1    1    2  501    0  0.41907186426E+02 -0.18945329832E+03  0.30999449574E+03  0.54198279669E+03  0.40000000000E+03 0.  1.
   -9000007    1    1    2    0  503 -0.41907186426E+02  0.18945329832E+03 -0.29626393505E+03  0.53424814808E+03  0.40000000000E+03 0. -1.
<mgrwt>
<rscale>  2 0.44457706E+03</rscale>
<asrwt>0</asrwt>
<pdfrwt beam="1">  1       21 0.83843193E-01 0.44457706E+03</pdfrwt>
<pdfrwt beam="2">  1       21 0.81730799E-01 0.44457706E+03</pdfrwt>
<totfact> 0.13907784E+03</totfact>
</mgrwt>
</event>
<event>
 4    1  0.4656822E-002  0.4544171E+03  0.7818608E-02  0.1026413E+00
         21   -1    0    0  503  502  0.00000000000E+00  0.00000000000E+00  0.67706837927E+03  0.67706837927E+03  0.00000000000E+00 0.  1.
         21   -1    0    0  501  503 -0.00000000000E+00 -0.00000000000E+00 -0.32297199365E+03  0.32297199365E+03  0.00000000000E+00 0.  1.
    9000007    1    1    2  501    0  0.20341309985E+03  0.71539968770E+02  0.29505292747E+03  0.54180354957E+03  0.40000000000E+03 0.  1.
   -9000007    1    1    2    0  502 -0.20341309985E+03 -0.71539968770E+02  0.59043458152E+02  0.45823682335E+03  0.40000000000E+03 0.  1.
<mgrwt>
<rscale>  2 0.45441705E+03</rscale>
<asrwt>0</asrwt>
<pdfrwt beam="1">  1       21 0.10416437E+00 0.45441705E+03</pdfrwt>
<pdfrwt beam="2">  1       21 0.49687999E-01 0.45441705E+03</pdfrwt>
<totfact> 0.24855078E+03</totfact>
</mgrwt>
</event>
<event>
 4    1  0.4656822E-002  0.5754368E+03  0.7818608E-02  0.9957719E-01
         21   -1    0    0  503  502  0.00000000000E+00  0.00000000000E+00  0.12456580072E+04  0.12456580072E+04  0.00000000000E+00 0.  1.
         21   -1    0    0  501  503 -0.00000000000E+00 -0.00000000000E+00 -0.36798113921E+03  0.36798113921E+03  0.00000000000E+00 0.  1.
    9000007    1    1    2  501    0  0.37953239484E+03  0.16456824955E+03  0.13734606783E+02  0.57560071831E+03  0.40000000000E+03 0.  1.
   -9000007    1    1    2    0  502 -0.37953239484E+03 -0.16456824955E+03  0.86394226118E+03  0.10380384281E+04  0.40000000000E+03 0.  1.
<mgrwt>
<rscale>  2 0.57543683E+03</rscale>
<asrwt>0</asrwt>
<pdfrwt beam="1">  1       21 0.19163969E+00 0.57543683E+03</pdfrwt>
<pdfrwt beam="2">  1       21 0.56612484E-01 0.57543683E+03</pdfrwt>
<totfact> 0.34644776E+02</totfact>
</mgrwt>
</event>
<event>
 4    1  0.4656822E-002  0.5319649E+03  0.7818608E-02  0.1005757E+00
         21   -1    0    0  503  502  0.00000000000E+00  0.00000000000E+00  0.11086545934E+03  0.11086545934E+03  0.00000000000E+00 0.  1.
         21   -1    0    0  501  503 -0.00000000000E+00 -0.00000000000E+00 -0.27128138909E+04  0.27128138909E+04  0.00000000000E+00 0.  1.
    9000007    1    1    2  501    0  0.28652352956E+03 -0.20221496597E+03 -0.16441604968E+04  0.17280770714E+04  0.40000000000E+03 0.  1.
   -9000007    1    1    2    0  502 -0.28652352956E+03  0.20221496597E+03 -0.95778793479E+03  0.10956022789E+04  0.40000000000E+03 0.  1.
<mgrwt>
<rscale>  2 0.53196487E+03</rscale>
<asrwt>0</asrwt>
<pdfrwt beam="1">  1       21 0.17056226E-01 0.53196487E+03</pdfrwt>
<pdfrwt beam="2">  1       21 0.41735594E+00 0.53196487E+03</pdfrwt>
<totfact> 0.15126170E+02</totfact>
</mgrwt>
</event>
<event>
 4    1  0.4656822E-002  0.5588969E+03  0.7818608E-02  0.9994554E-01
         21   -1    0    0  501  502  0.00000000000E+00  0.00000000000E+00  0.82213845981E+03  0.82213845981E+03  0.00000000000E+00 0.  1.
         21   -1    0    0  502  503 -0.00000000000E+00 -0.00000000000E+00 -0.39057237480E+03  0.39057237480E+03  0.00000000000E+00 0.  1.
    9000007    1    1    2  501    0  0.13457914464E+03 -0.36640719029E+03  0.11575314958E+03  0.57075788816E+03  0.40000000000E+03 0.  1.
   -9000007    1    1    2    0  503 -0.13457914464E+03  0.36640719029E+03  0.31581293544E+03  0.64195294645E+03  0.40000000000E+03 0.  1.
<mgrwt>
<rscale>  2 0.55889693E+03</rscale>
<asrwt>0</asrwt>
<pdfrwt beam="1">  1       21 0.12648284E+00 0.55889693E+03</pdfrwt>
<pdfrwt beam="2">  1       21 0.60088058E-01 0.55889693E+03</pdfrwt>
<totfact> 0.97440521E+02</totfact>
</mgrwt>
</event>
<event>
 4    1  0.4656822E-002  0.4294544E+03  0.7818608E-02  0.1034032E+00
         21   -1    0    0  503  502  0.00000000000E+00  0.00000000000E+00  0.22814290000E+03  0.22814290000E+03  0.00000000000E+00 0.  1.
         21   -1    0    0  501  503 -0.00000000000E+00 -0.00000000000E+00 -0.87035973912E+03  0.87035973912E+03  0.00000000000E+00 0.  1.
    9000007    1    1    2  501    0 -0.86176844019E+02  0.13040180871E+03 -0.46765340950E+03  0.63492581581E+03  0.40000000000E+03 0.  1.
   -9000007    1    1    2    0  502  0.86176844019E+02 -0.13040180871E+03 -0.17456342962E+03  0.46357682332E+03  0.40000000000E+03 0.  1.
<mgrwt>
<rscale>  2 0.42945440E+03</rscale>
<asrwt>0</asrwt>
<pdfrwt beam="1">  1       21 0.35098908E-01 0.42945440E+03</pdfrwt>
<pdfrwt beam="2">  1       21 0.13390150E+00 0.42945440E+03</pdfrwt>
<totfact> 0.27325892E+03</totfact>
</mgrwt>
</event>
<event>
 4    1  0.4656822E-002  0.4110438E+03  0.7818608E-02  0.1040021E+00
         21   -1    0    0  503  502  0.00000000000E+00  0.00000000000E+00  0.41333347516E+03  0.41333347516E+03  0.00000000000E+00 0. -1.
         21   -1    0    0  501  503 -0.00000000000E+00 -0.00000000000E+00 -0.56359256403E+03  0.56359256403E+03  0.00000000000E+00 0. -1.
    9000007    1    1    2  501    0 -0.17663679931E+02 -0.92978324959E+02 -0.33114770431E+03  0.52784067347E+03  0.40000000000E+03 0. -1.
   -9000007    1    1    2    0  502  0.17663679931E+02  0.92978324959E+02  0.18088861545E+03  0.44908536572E+03  0.40000000000E+03 0. -1.
<mgrwt>
<rscale>  2 0.41104376E+03</rscale>
<asrwt>0</asrwt>
<pdfrwt beam="1">  1       21 0.63589765E-01 0.41104376E+03</pdfrwt>
<pdfrwt beam="2">  1       21 0.86706548E-01 0.41104376E+03</pdfrwt>
<totfact> 0.22992068E+03</totfact>
</mgrwt>
</event>
<event>
 4    1  0.4656822E-002  0.4741160E+03  0.7818608E-02  0.1020765E+00
         21   -1    0    0  503  502  0.00000000000E+00  0.00000000000E+00  0.92604779539E+03  0.92604779539E+03  0.00000000000E+00 0. -1.
         21   -1    0    0  501  503 -0.00000000000E+00 -0.00000000000E+00 -0.24298900468E+03  0.24298900468E+03  0.00000000000E+00 0.  1.
    9000007    1    1    2  501    0  0.21194268420E+02 -0.25364697741E+03  0.36035640407E+03  0.59551886965E+03  0.40000000000E+03 0.  1.
   -9000007    1    1    2    0  502 -0.21194268420E+02  0.25364697741E+03  0.32270238665E+03  0.57351793042E+03  0.40000000000E+03 0.  1.
<mgrwt>
<rscale>  2 0.47411600E+03</rscale>
<asrwt>0</asrwt>
<pdfrwt beam="1">  1       21 0.14246889E+00 0.47411600E+03</pdfrwt>
<pdfrwt beam="2">  1       21 0.37382924E-01 0.47411600E+03</pdfrwt>
<totfact> 0.20055222E+03</totfact>
</mgrwt>
</event>
<event>
 4    1  0.4656822E-002  0.4139719E+03  0.7818608E-02  0.1039046E+00
         21   -1    0    0  501  502  0.00000000000E+00  0.00000000000E+00  0.60663587734E+03  0.60663587734E+03  0.00000000000E+00 0. -1.
         21   -1    0    0  502  503 -0.00000000000E+00 -0.00000000000E+00 -0.57685163168E+03  0.57685163168E+03  0.00000000000E+00 0. -1.
    9000007    1    1    2  501    0 -0.13190507609E+02 -0.10582396133E+03  0.43759694007E+03  0.60238175789E+03  0.40000000000E+03 0. -1.
   -9000007    1    1    2    0  503  0.13190507609E+02  0.10582396133E+03 -0.40781269441E+03  0.58110575113E+03  0.40000000000E+03 0. -1.
<mgrwt>
<rscale>  2 0.41397186E+03</rscale>
<asrwt>0</asrwt>
<pdfrwt beam="1">  1       21 0.93328597E-01 0.41397186E+03</pdfrwt>
<pdfrwt beam="2">  1       21 0.88746405E-01 0.41397186E+03</pdfrwt>
<totfact> 0.90274768E+02</totfact>
</mgrwt>
</event>
<event>
 4    1  0.4656822E-002  0.5781564E+03  0.7818608E-02  0.9951790E-01
         21   -1    0    0  501  502  0.00000000000E+00  0.00000000000E+00  0.17531433871E+04  0.17531433871E+04  0.00000000000E+00 0.  1.
         21   -1    0    0  502  503 -0.00000000000E+00 -0.00000000000E+00 -0.23026436049E+03  0.23026436049E+03  0.00000000000E+00 0.  1.
    9000007    1    1    2  501    0 -0.14625759766E+03  0.39099041514E+03  0.11726909218E+04  0.13074665531E+04  0.40000000000E+03 0.  1.
   -9000007    1    1    2    0  503  0.14625759766E+03 -0.39099041514E+03  0.35018810491E+03  0.67594119450E+03  0.40000000000E+03 0.  1.
<mgrwt>
<rscale>  2 0.57815637E+03</rscale>
<asrwt>0</asrwt>
<pdfrwt beam="1">  1       21 0.26971436E+00 0.57815637E+03</pdfrwt>
<pdfrwt beam="2">  1       21 0.35425287E-01 0.57815637E+03</pdfrwt>
<totfact> 0.29366026E+02</totfact>
</mgrwt>
</event>
<event>
 4    1  0.4656822E-002  0.4149920E+03  0.7818608E-02  0.1038709E+00
         21   -1    0    0  503  502  0.00000000000E+00  0.00000000000E+00  0.38138057984E+03  0.38138057984E+03  0.00000000000E+00 0.  1.
         21   -1    0    0  501  503 -0.00000000000E+00 -0.00000000000E+00 -0.62784508339E+03  0.62784508339E+03  0.00000000000E+00 0.  1.
    9000007    1    1    2  501    0  0.40348854194E+02  0.10290948619E+03 -0.39061463495E+03  0.56991068196E+03  0.40000000000E+03 0.  1.
   -9000007    1    1    2    0  502 -0.40348854194E+02 -0.10290948619E+03  0.14415013140E+03  0.43931498127E+03  0.40000000000E+03 0.  1.
<mgrwt>
<rscale>  2 0.41499204E+03</rscale>
<asrwt>0</asrwt>
<pdfrwt beam="1">  1       21 0.58673936E-01 0.41499204E+03</pdfrwt>
<pdfrwt beam="2">  1       21 0.96591551E-01 0.41499204E+03</pdfrwt>
<totfact> 0.21200102E+03</totfact>
</mgrwt>
</event>
<event>
 4    1  0.4656822E-002  0.4488324E+03  0.7818608E-02  0.1028071E+00
         21   -1    0    0  501  502  0.00000000000E+00  0.00000000000E+00  0.47514522991E+03  0.47514522991E+03  0.00000000000E+00 0. -1.
         21   -1    0    0  502  503 -0.00000000000E+00 -0.00000000000E+00 -0.62210739549E+03  0.62210739549E+03  0.00000000000E+00 0.  1.
    9000007    1    1    2  501    0  0.28228696361E+02  0.20162758046E+03  0.23613232159E+03  0.50715777998E+03  0.40000000000E+03 0.  1.
   -9000007    1    1    2    0  503 -0.28228696361E+02 -0.20162758046E+03 -0.38309448717E+03  0.59009484542E+03  0.40000000000E+03 0. -1.
<mgrwt>
<rscale>  2 0.44883242E+03</rscale>
<asrwt>0</asrwt>
<pdfrwt beam="1">  1       21 0.73099266E-01 0.44883242E+03</pdfrwt>
<pdfrwt beam="2">  1       21 0.95708830E-01 0.44883242E+03</pdfrwt>
<totfact> 0.13113665E+03</totfact>
</mgrwt>
</event>
<event>
 4    1  0.4656822E-002  0.4242152E+03  0.7818608E-02  0.1035703E+00
         21   -1    0    0  503  502  0.00000000000E+00  0.00000000000E+00  0.49420496722E+03  0.49420496722E+03  0.00000000000E+00 0.  1.
         21   -1    0    0  501  503 -0.00000000000E+00 -0.00000000000E+00 -0.52914179385E+03  0.52914179385E+03  0.00000000000E+00 0.  1.
    9000007    1    1    2  501    0 -0.23043565191E+01 -0.14125603471E+03 -0.30319744602E+03  0.52142810499E+03  0.40000000000E+03 0.  1.
   -9000007    1    1    2    0  502  0.23043565191E+01  0.14125603471E+03  0.26826061940E+03  0.50191865608E+03  0.40000000000E+03 0.  1.
<mgrwt>
<rscale>  2 0.42421525E+03</rscale>
<asrwt>0</asrwt>
<pdfrwt beam="1">  1       21 0.76031534E-01 0.42421525E+03</pdfrwt>
<pdfrwt beam="2">  1       21 0.81406430E-01 0.42421525E+03</pdfrwt>
<totfact> 0.17734366E+03</totfact>
</mgrwt>
</event>
<event>
 4    1  0.4656822E-002  0.4428480E+03  0.7818608E-02  0.1029877E+00
         21   -1    0    0  503  502  0.00000000000E+00  0.00000000000E+00  0.17195019820E+03  0.17195019820E+03  0.00000000000E+00 0. -1.
         21   -1    0    0  501  503 -0.00000000000E+00 -0.00000000000E+00 -0.20312936184E+04  0.20312936184E+04  0.00000000000E+00 0.  1.
    9000007    1    1    2  501    0 -0.72632460777E+02  0.17560989627E+03 -0.16591754418E+04  0.17172587041E+04  0.40000000000E+03 0.  1.
   -9000007    1    1    2    0  502  0.72632460777E+02 -0.17560989627E+03 -0.20016797839E+03  0.48598511253E+03  0.40000000000E+03 0.  1.
<mgrwt>
<rscale>  2 0.44284795E+03</rscale>
<asrwt>0</asrwt>
<pdfrwt beam="1">  1       21 0.26453879E-01 0.44284795E+03</pdfrwt>
<pdfrwt beam="2">  1       21 0.31250668E+00 0.44284795E+03</pdfrwt>
<totfact> 0.31059463E+02</totfact>
</mgrwt>
</event>
<event>
 4    1  0.4656822E-002  0.4119223E+03  0.7818608E-02  0.1039728E+00
         21   -1    0    0  501  502  0.00000000000E+00  0.00000000000E+00  0.25779262155E+03  0.25779262155E+03  0.00000000000E+00 0.  1.
         21   -1    0    0  502  503 -0.00000000000E+00 -0.00000000000E+00 -0.15172276033E+04  0.15172276033E+04  0.00000000000E+00 0.  1.
    9000007    1    1    2  501    0 -0.35710991364E+02 -0.91677151611E+02  0.38089017882E+02  0.41367952368E+03  0.40000000000E+03 0.  1.
   -9000007    1    1    2    0  503  0.35710991364E+02  0.91677151611E+02 -0.12975239996E+04  0.13613407012E+04  0.40000000000E+03 0.  1.
<mgrwt>
<rscale>  2 0.41192229E+03</rscale>
<asrwt>0</asrwt>
<pdfrwt beam="1">  1       21 0.39660404E-01 0.41192229E+03</pdfrwt>
<pdfrwt beam="2">  1       21 0.23341963E+00 0.41192229E+03</pdfrwt>
<totfact> 0.42383239E+02</totfact>
</mgrwt>
</event>
<event>
 4    1  0.4656822E-002  0.4103932E+03  0.7818608E-02  0.1040239E+00
         21   -1    0    0  503  502  0.00000000000E+00  0.00000000000E+00  0.10426434642E+04  0.10426434642E+04  0.00000000000E+00 0. -1.
         21   -1    0    0  501  503 -0.00000000000E+00 -0.00000000000E+00 -0.78850861300E+03  0.78850861300E+03  0.00000000000E+00 0. -1.
    9000007    1    1    2  501    0 -0.86094766376E+02  0.31785315925E+02 -0.68935719653E+03  0.80226925624E+03  0.40000000000E+03 0. -1.
   -9000007    1    1    2    0  502  0.86094766376E+02 -0.31785315925E+02  0.94349204774E+03  0.10288828210E+04  0.40000000000E+03 0. -1.
<mgrwt>
<rscale>  2 0.41039324E+03</rscale>
<asrwt>0</asrwt>
<pdfrwt beam="1">  1       21 0.16040669E+00 0.41039324E+03</pdfrwt>
<pdfrwt beam="2">  1       21 0.12130902E+00 0.41039324E+03</pdfrwt>
<totfact> 0.10544901E+02</totfact>
</mgrwt>
</event>
<event>
 4    1  0.4656822E-002  0.4516055E+03  0.7818608E-02  0.1027244E+00
         21   -1    0    0  503  502  0.00000000000E+00  0.00000000000E+00  0.51167918732E+03  0.51167918732E+03  0.00000000000E+00 0.  1.
         21   -1    0    0  501  503 -0.00000000000E+00 -0.00000000000E+00 -0.44471516406E+03  0.44471516406E+03  0.00000000000E+00 0. -1.
    9000007    1    1    2  501    0  0.18117239275E+03  0.10547069562E+03 -0.12053187274E+03  0.46741355979E+03  0.40000000000E+03 0. -1.
   -9000007    1    1    2    0  502 -0.18117239275E+03 -0.10547069562E+03  0.18749589600E+03  0.48898079159E+03  0.40000000000E+03 0.  1.
<mgrwt>
<rscale>  2 0.45160547E+03</rscale>
<asrwt>0</asrwt>
<pdfrwt beam="1">  1       21 0.78719875E-01 0.45160547E+03</pdfrwt>
<pdfrwt beam="2">  1       21 0.68417718E-01 0.45160547E+03</pdfrwt>
<totfact> 0.24077816E+03</totfact>
</mgrwt>
</event>
<event>
 4    1  0.4656822E-002  0.4195865E+03  0.7818608E-02  0.1037201E+00
         21   -1    0    0  501  502  0.00000000000E+00  0.00000000000E+00  0.10836173570E+03  0.10836173570E+03  0.00000000000E+00 0. -1.
         21   -1    0    0  502  503 -0.00000000000E+00 -0.00000000000E+00 -0.18450650773E+04  0.18450650773E+04  0.00000000000E+00 0. -1.
    9000007    1    1    2  501    0  0.10640606029E+03 -0.68779239700E+02 -0.53078836837E+03  0.67660115687E+03  0.40000000000E+03 0. -1.
   -9000007    1    1    2    0  503 -0.10640606029E+03  0.68779239700E+02 -0.12059149732E+04  0.12768256561E+04  0.40000000000E+03 0. -1.
<mgrwt>
<rscale>  2 0.41958650E+03</rscale>
<asrwt>0</asrwt>
<pdfrwt beam="1">  1       21 0.16671038E-01 0.41958650E+03</pdfrwt>
<pdfrwt beam="2">  1       21 0.28385614E+00 0.41958650E+03</pdfrwt>
<totfact> 0.11306715E+03</totfact>
</mgrwt>
</event>
<event>
 4    1  0.4656822E-002  0.4061077E+03  0.7818608E-02  0.1041685E+00
         21   -1    0    0  503  502  0.00000000000E+00  0.00000000000E+00  0.39272213556E+03  0.39272213556E+03  0.00000000000E+00 0. -1.
         21   -1    0    0  501  503 -0.00000000000E+00 -0.00000000000E+00 -0.47119095295E+03  0.47119095295E+03  0.00000000000E+00 0. -1.
    9000007    1    1    2  501    0  0.15111426429E+02 -0.68520814268E+02 -0.18168110547E+03  0.44489491038E+03  0.40000000000E+03 0. -1.
   -9000007    1    1    2    0  502 -0.15111426429E+02  0.68520814268E+02  0.10321228808E+03  0.41901817814E+03  0.40000000000E+03 0. -1.
<mgrwt>
<rscale>  2 0.40610769E+03</rscale>
<asrwt>0</asrwt>
<pdfrwt beam="1">  1       21 0.60418790E-01 0.40610769E+03</pdfrwt>
<pdfrwt beam="2">  1       21 0.72490916E-01 0.40610769E+03</pdfrwt>
<totfact> 0.38928015E+03</totfact>
</mgrwt>
</event>
<event>
 4    1  0.4656822E-002  0.4751277E+03  0.7818608E-02  0.1020483E+00
         21   -1    0    0  501  502  0.00000000000E+00  0.00000000000E+00  0.10273789099E+04  0.10273789099E+04  0.00000000000E+00 0. -1.
         21   -1    0    0  502  503 -0.00000000000E+00 -0.00000000000E+00 -0.34280400550E+03  0.34280400550E+03  0.00000000000E+00 0. -1.
    9000007    1    1    2  501    0 -0.14334671701E+03 -0.21259840467E+03  0.75278266586E+03  0.89018430955E+03  0.40000000000E+03 0. -1.
   -9000007    1    1    2    0  503  0.14334671701E+03  0.21259840467E+03 -0.68207761420E+02  0.47999860590E+03  0.40000000000E+03 0. -1.
<mgrwt>
<rscale>  2 0.47512773E+03</rscale>
<asrwt>0</asrwt>
<pdfrwt beam="1">  1       21 0.15805829E+00 0.47512773E+03</pdfrwt>
<pdfrwt beam="2">  1       21 0.52739078E-01 0.47512773E+03</pdfrwt>
<totfact> 0.73498677E+02</totfact>
</mgrwt>
</event>
<event>
 4    1  0.4656822E-002  0.4958744E+03  0.7818608E-02  0.1014861E+00
         21   -1    0    0  501  502  0.00000000000E+00  0.00000000000E+00  0.75068755682E+03  0.75068755682E+03  0.00000000000E+00 0. -1.
         21   -1    0    0  502  503 -0.00000000000E+00 -0.00000000000E+00 -0.33479131179E+03  0.33479131179E+03  0.00000000000E+00 0.  1.
    9000007    1    1    2  501    0 -0.12632691868E+03  0.26444834214E+03  0.12815512365E+03  0.51216711312E+03  0.40000000000E+03 0.  1.
   -9000007    1    1    2    0  503  0.12632691868E+03 -0.26444834214E+03  0.28774112139E+03  0.57331175549E+03  0.40000000000E+03 0. -1.
<mgrwt>
<rscale>  2 0.49587440E+03</rscale>
<asrwt>0</asrwt>
<pdfrwt beam="1">  1       21 0.11549039E+00 0.49587440E+03</pdfrwt>
<pdfrwt beam="2">  1       21 0.51506356E-01 0.49587440E+03</pdfrwt>
<totfact> 0.17550825E+03</totfact>
</mgrwt>
</event>
<event>
 4    1  0.4656822E-002  0.4301985E+03  0.7818608E-02  0.1033797E+00
         21   -1    0    0  501  502  0.00000000000E+00  0.00000000000E+00  0.26327639107E+03  0.26327639107E+03  0.00000000000E+00 0.  1.
         21   -1    0    0  502  503 -0.00000000000E+00 -0.00000000000E+00 -0.76493972083E+03  0.76493972083E+03  0.00000000000E+00 0.  1.
    9000007    1    1    2  501    0 -0.15737579628E+03 -0.17423129799E+02 -0.10448154224E+03  0.44270430242E+03  0.40000000000E+03 0.  1.
   -9000007    1    1    2    0  503  0.15737579628E+03  0.17423129799E+02 -0.39718178752E+03  0.58551180948E+03  0.40000000000E+03 0.  1.
<mgrwt>
<rscale>  2 0.43019845E+03</rscale>
<asrwt>0</asrwt>
<pdfrwt beam="1">  1       21 0.40504061E-01 0.43019845E+03</pdfrwt>
<pdfrwt beam="2">  1       21 0.11768303E+00 0.43019845E+03</pdfrwt>
<totfact> 0.28414419E+03</totfact>
</mgrwt>
</event>
<event>
 4    1  0.4656822E-002  0.4069774E+03  0.7818608E-02  0.1041390E+00
         21   -1    0    0  501  502  0.00000000000E+00  0.00000000000E+00  0.30736720786E+03  0.30736720786E+03  0.00000000000E+00 0.  1.
         21   -1    0    0  502  503 -0.00000000000E+00 -0.00000000000E+00 -0.60476876590E+03  0.60476876590E+03  0.00000000000E+00 0.  1.
    9000007    1    1    2  501    0 -0.33919456064E+02 -0.66933369711E+02  0.18480672198E+01  0.40698159766E+03  0.40000000000E+03 0.  1.
   -9000007    1    1    2    0  503  0.33919456064E+02  0.66933369711E+02 -0.29924962525E+03  0.50515437610E+03  0.40000000000E+03 0.  1.
<mgrwt>
<rscale>  2 0.40697740E+03</rscale>
<asrwt>0</asrwt>
<pdfrwt beam="1">  1       21 0.47287264E-01 0.40697740E+03</pdfrwt>
<pdfrwt beam="2">  1       21 0.93041347E-01 0.40697740E+03</pdfrwt>
<totfact> 0.36911760E+03</totfact>
</mgrwt>
</event>
<event>
 4    1  0.4656822E-002  0.4137193E+03  0.7818608E-02  0.1039130E+00
         21   -1    0    0  501  502  0.00000000000E+00  0.00000000000E+00  0.34581823904E+03  0.34581823904E+03  0.00000000000E+00 0. -1.
         21   -1    0    0  502  503 -0.00000000000E+00 -0.00000000000E+00 -0.68461221397E+03  0.68461221397E+03  0.00000000000E+00 0. -1.
    9000007    1    1    2  501    0 -0.45466838137E+01 -0.10556029073E+03  0.10178058177E+03  0.42605508346E+03  0.40000000000E+03 0. -1.
   -9000007    1    1    2    0  503  0.45466838137E+01  0.10556029073E+03 -0.44057455670E+03  0.60437536955E+03  0.40000000000E+03 0. -1.
<mgrwt>
<rscale>  2 0.41371929E+03</rscale>
<asrwt>0</asrwt>
<pdfrwt beam="1">  1       21 0.53202806E-01 0.41371929E+03</pdfrwt>
<pdfrwt beam="2">  1       21 0.10532496E+00 0.41371929E+03</pdfrwt>
<totfact> 0.21234395E+03</totfact>
</mgrwt>
</event>
<event>
 4    1  0.4656822E-002  0.4660974E+03  0.7818608E-02  0.1023027E+00
         21   -1    0    0  501  502  0.00000000000E+00  0.00000000000E+00  0.46606999117E+03  0.46606999117E+03  0.00000000000E+00 0. -1.
         21   -1    0    0  502  503 -0.00000000000E+00 -0.00000000000E+00 -0.48051048730E+03  0.48051048730E+03  0.00000000000E+00 0.  1.
    9000007    1    1    2  501    0 -0.23926306332E+03 -0.12895080770E+00 -0.89111940000E+02  0.47453953255E+03  0.40000000000E+03 0.  1.
   -9000007    1    1    2    0  503  0.23926306332E+03  0.12895080770E+00  0.74671443873E+02  0.47204094593E+03  0.40000000000E+03 0. -1.
<mgrwt>
<rscale>  2 0.46609745E+03</rscale>
<asrwt>0</asrwt>
<pdfrwt beam="1">  1       21 0.71703076E-01 0.46609745E+03</pdfrwt>
<pdfrwt beam="2">  1       21 0.73924690E-01 0.46609745E+03</pdfrwt>
<totfact> 0.24886736E+03</totfact>
</mgrwt>
</event>
<event>
 4    1  0.4656822E-002  0.4115240E+03  0.7818608E-02  0.1039861E+00
         21   -1    0    0  503  502  0.00000000000E+00  0.00000000000E+00  0.21382177161E+03  0.21382177161E+03  0.00000000000E+00 0. -1.
         21   -1    0    0  501  503 -0.00000000000E+00 -0.00000000000E+00 -0.17745300344E+04  0.17745300344E+04  0.00000000000E+00 0. -1.
    9000007    1    1    2  501    0 -0.86950508972E+02  0.42327809120E+02 -0.15201111715E+04  0.15748301521E+04  0.40000000000E+03 0. -1.
   -9000007    1    1    2    0  502  0.86950508972E+02 -0.42327809120E+02 -0.40597091362E+02  0.41352165392E+03  0.40000000000E+03 0. -1.
<mgrwt>
<rscale>  2 0.41152404E+03</rscale>
<asrwt>0</asrwt>
<pdfrwt beam="1">  1       21 0.32895656E-01 0.41152404E+03</pdfrwt>
<pdfrwt beam="2">  1       21 0.27300463E+00 0.41152404E+03</pdfrwt>
<totfact> 0.35498943E+02</totfact>
</mgrwt>
</event>
<event>
 4    1  0.4656822E-002  0.6401331E+03  0.7818608E-02  0.9825472E-01
         21   -1    0    0  501  502  0.00000000000E+00  0.00000000000E+00  0.48973034192E+03  0.48973034192E+03  0.00000000000E+00 0. -1.
         21   -1    0    0  502  503 -0.00000000000E+00 -0.00000000000E+00 -0.12188967176E+04  0.12188967176E+04  0.00000000000E+00 0.  1.
    9000007    1    1    2  501    0  0.17659949453E+03  0.46752865416E+03  0.11378486738E+03  0.65016722462E+03  0.40000000000E+03 0.  1.
   -9000007    1    1    2    0  503 -0.17659949453E+03 -0.46752865416E+03 -0.84295124305E+03  0.10584598349E+04  0.40000000000E+03 0. -1.
<mgrwt>
<rscale>  2 0.64013313E+03</rscale>
<asrwt>0</asrwt>
<pdfrwt beam="1">  1       21 0.75343130E-01 0.64013313E+03</pdfrwt>
<pdfrwt beam="2">  1       21 0.18752257E+00 0.64013313E+03</pdfrwt>
<totfact> 0.19039343E+02</totfact>
</mgrwt>
</event>
<event>
 4    1  0.4656822E-002  0.4743630E+03  0.7818608E-02  0.1020696E+00
         21   -1    0    0  503  502  0.00000000000E+00  0.00000000000E+00  0.43265078045E+03  0.43265078045E+03  0.00000000000E+00 0.  1.
         21   -1    0    0  501  503 -0.00000000000E+00 -0.00000000000E+00 -0.58937298210E+03  0.58937298210E+03  0.00000000000E+00 0. -1.
    9000007    1    1    2  501    0  0.17060086128E+03 -0.18951401273E+03  0.96836589777E+02  0.48414619694E+03  0.40000000000E+03 0.  1.
   -9000007    1    1    2    0  502 -0.17060086128E+03  0.18951401273E+03 -0.25355879143E+03  0.53787756562E+03  0.40000000000E+03 0. -1.
<mgrwt>
<rscale>  2 0.47436296E+03</rscale>
<asrwt>0</asrwt>
<pdfrwt beam="1">  1       21 0.66561659E-01 0.47436296E+03</pdfrwt>
<pdfrwt beam="2">  1       21 0.90672765E-01 0.47436296E+03</pdfrwt>
<totfact> 0.18247016E+03</totfact>
</mgrwt>
</event>
<event>
 4    1  0.4656822E-002  0.4844983E+03  0.7818608E-02  0.1017906E+00
         21   -1    0    0  501  502  0.00000000000E+00  0.00000000000E+00  0.10794565354E+04  0.10794565354E+04  0.00000000000E+00 0. -1.
         21   -1    0    0  502  503 -0.00000000000E+00 -0.00000000000E+00 -0.22825756909E+03  0.22825756909E+03  0.00000000000E+00 0.  1.
    9000007    1    1    2  501    0  0.18323188909E+03  0.20289084265E+03  0.56781048478E+03  0.74642304749E+03  0.40000000000E+03 0.  1.
   -9000007    1    1    2    0  503 -0.18323188909E+03 -0.20289084265E+03  0.28338848157E+03  0.56129105703E+03  0.40000000000E+03 0.  1.
<mgrwt>
<rscale>  2 0.48449832E+03</rscale>
<asrwt>0</asrwt>
<pdfrwt beam="1">  1       21 0.16607023E+00 0.48449832E+03</pdfrwt>
<pdfrwt beam="2">  1       21 0.35116550E-01 0.48449832E+03</pdfrwt>
<totfact> 0.14882059E+03</totfact>
</mgrwt>
</event>
<event>
 4    1  0.4656822E-002  0.4612113E+03  0.7818608E-02  0.1024430E+00
         21   -1    0    0  501  502  0.00000000000E+00  0.00000000000E+00  0.11007038816E+04  0.11007038816E+04  0.00000000000E+00 0.  1.
         21   -1    0    0  502  503 -0.00000000000E+00 -0.00000000000E+00 -0.23683317621E+03  0.23683317621E+03  0.00000000000E+00 0.  1.
    9000007    1    1    2  501    0 -0.18633739318E+03  0.13414260264E+03  0.71880995546E+03  0.85405129472E+03  0.40000000000E+03 0.  1.
   -9000007    1    1    2    0  503  0.18633739318E+03 -0.13414260264E+03  0.14506074993E+03  0.48348576309E+03  0.40000000000E+03 0.  1.
<mgrwt>
<rscale>  2 0.46121130E+03</rscale>
<asrwt>0</asrwt>
<pdfrwt beam="1">  1       21 0.16933906E+00 0.46121130E+03</pdfrwt>
<pdfrwt beam="2">  1       21 0.36435874E-01 0.46121130E+03</pdfrwt>
<totfact> 0.13188544E+03</totfact>
</mgrwt>
</event>
<event>
 4    1  0.4656822E-002  0.4774429E+03  0.7818608E-02  0.1019840E+00
         21   -1    0    0  503  502  0.00000000000E+00  0.00000000000E+00  0.41489220118E+03  0.41489220118E+03  0.00000000000E+00 0.  1.
         21   -1    0    0  501  503 -0.00000000000E+00 -0.00000000000E+00 -0.94221903948E+03  0.94221903948E+03  0.00000000000E+00 0. -1.
    9000007    1    1    2  501    0  0.22958542510E+03  0.12345954482E+03 -0.70178285476E+03  0.84879379230E+03  0.40000000000E+03 0. -1.
   -9000007    1    1    2    0  502 -0.22958542510E+03 -0.12345954482E+03  0.17445601646E+03  0.50831744836E+03  0.40000000000E+03 0.  1.
<mgrwt>
<rscale>  2 0.47744290E+03</rscale>
<asrwt>0</asrwt>
<pdfrwt beam="1">  1       21 0.63829571E-01 0.47744290E+03</pdfrwt>
<pdfrwt beam="2">  1       21 0.14495677E+00 0.47744290E+03</pdfrwt>
<totfact> 0.61325013E+02</totfact>
</mgrwt>
</event>
<event>
 4    1  0.4656822E-002  0.4544687E+03  0.7818608E-02  0.1026398E+00
         21   -1    0    0  501  502  0.00000000000E+00  0.00000000000E+00  0.30318548851E+03  0.30318548851E+03  0.00000000000E+00 0.  1.
         21   -1    0    0  502  503 -0.00000000000E+00 -0.00000000000E+00 -0.16566726537E+04  0.16566726537E+04  0.00000000000E+00 0.  1.
    9000007    1    1    2  501    0  0.12926425800E+03 -0.17272099743E+03  0.75182498093E+02  0.46064541610E+03  0.40000000000E+03 0.  1.
   -9000007    1    1    2    0  503 -0.12926425800E+03  0.17272099743E+03 -0.14286696633E+04  0.14992127262E+04  0.40000000000E+03 0.  1.
<mgrwt>
<rscale>  2 0.45446869E+03</rscale>
<asrwt>0</asrwt>
<pdfrwt beam="1">  1       21 0.46643922E-01 0.45446869E+03</pdfrwt>
<pdfrwt beam="2">  1       21 0.25487271E+00 0.45446869E+03</pdfrwt>
<totfact> 0.21767215E+02</totfact>
</mgrwt>
</event>
<event>
 4    1  0.4656822E-002  0.4343127E+03  0.7818608E-02  0.1032506E+00
         21   -1    0    0  501  502  0.00000000000E+00  0.00000000000E+00  0.49126961696E+03  0.49126961696E+03  0.00000000000E+00 0. -1.
         21   -1    0    0  502  503 -0.00000000000E+00 -0.00000000000E+00 -0.63765629378E+03  0.63765629378E+03  0.00000000000E+00 0. -1.
    9000007    1    1    2  501    0 -0.43707161985E+02  0.16345389001E+03  0.28284754032E+03  0.51829549606E+03  0.40000000000E+03 0. -1.
   -9000007    1    1    2    0  503  0.43707161985E+02 -0.16345389001E+03 -0.42923421714E+03  0.61063041468E+03  0.40000000000E+03 0. -1.
<mgrwt>
<rscale>  2 0.43431266E+03</rscale>
<asrwt>0</asrwt>
<pdfrwt beam="1">  1       21 0.75579941E-01 0.43431266E+03</pdfrwt>
<pdfrwt beam="2">  1       21 0.98100968E-01 0.43431266E+03</pdfrwt>
<totfact> 0.11521609E+03</totfact>
</mgrwt>
</event>
<event>
 4    1  0.4656822E-002  0.4178005E+03  0.7818608E-02  0.1037785E+00
         21   -1    0    0  501  502  0.00000000000E+00  0.00000000000E+00  0.94389012561E+03  0.94389012561E+03  0.00000000000E+00 0.  1.
         21   -1    0    0  502  503 -0.00000000000E+00 -0.00000000000E+00 -0.50184243448E+03  0.50184243448E+03  0.00000000000E+00 0. -1.
    9000007    1    1    2  501    0  0.21114690174E+02 -0.11879135849E+03  0.79545937096E+03  0.89850588637E+03  0.40000000000E+03 0.  1.
   -9000007    1    1    2    0  503 -0.21114690174E+02  0.11879135849E+03 -0.35341167983E+03  0.54722667372E+03  0.40000000000E+03 0. -1.
<mgrwt>
<rscale>  2 0.41780045E+03</rscale>
<asrwt>0</asrwt>
<pdfrwt beam="1">  1       21 0.14521386E+00 0.41780045E+03</pdfrwt>
<pdfrwt beam="2">  1       21 0.77206529E-01 0.41780045E+03</pdfrwt>
<totfact> 0.40871936E+02</totfact>
</mgrwt>
</event>
<event>
 4    1  0.4656822E-002  0.5731618E+03  0.7818608E-02  0.9962706E-01
         21   -1    0    0  503  502  0.00000000000E+00  0.00000000000E+00  0.14547825746E+04  0.14547825746E+04  0.00000000000E+00 0. -1.
         21   -1    0    0  501  503 -0.00000000000E+00 -0.00000000000E+00 -0.22692683228E+03  0.22692683228E+03  0.00000000000E+00 0.  1.
    9000007    1    1    2  501    0  0.24044570709E+03 -0.33271654172E+03  0.67273551806E+03  0.88379155486E+03  0.40000000000E+03 0.  1.
   -9000007    1    1    2    0  502 -0.24044570709E+03  0.33271654172E+03  0.55512022427E+03  0.79791785203E+03  0.40000000000E+03 0. -1.
<mgrwt>
<rscale>  2 0.57316179E+03</rscale>
<asrwt>0</asrwt>
<pdfrwt beam="1">  1       21 0.22381270E+00 0.57316179E+03</pdfrwt>
<pdfrwt beam="2">  1       21 0.34911821E-01 0.57316179E+03</pdfrwt>
<totfact> 0.58650793E+02</totfact>
</mgrwt>
</event>
<event>
 4    1  0.4656822E-002  0.4044273E+03  0.7818608E-02  0.1042257E+00
         21   -1    0    0  501  502  0.00000000000E+00  0.00000000000E+00  0.27480254877E+03  0.27480254877E+03  0.00000000000E+00 0.  1.
         21   -1    0    0  502  503 -0.00000000000E+00 -0.00000000000E+00 -0.61072893388E+03  0.61072893388E+03  0.00000000000E+00 0. -1.
    9000007    1    1    2  501    0  0.34165111908E+02 -0.48930178643E+02 -0.97351844448E+02  0.41597932505E+03  0.40000000000E+03 0.  1.
   -9000007    1    1    2    0  503 -0.34165111908E+02  0.48930178643E+02 -0.23857454067E+03  0.46955215760E+03  0.40000000000E+03 0. -1.
<mgrwt>
<rscale>  2 0.40442727E+03</rscale>
<asrwt>0</asrwt>
<pdfrwt beam="1">  1       21 0.42277316E-01 0.40442727E+03</pdfrwt>
<pdfrwt beam="2">  1       21 0.93958296E-01 0.40442727E+03</pdfrwt>
<totfact> 0.45605152E+03</totfact>
</mgrwt>
</event>
<event>
 4    1  0.4656822E-002  0.4182333E+03  0.7818608E-02  0.1037643E+00
         21   -1    0    0  503  502  0.00000000000E+00  0.00000000000E+00  0.13603845110E+03  0.13603845110E+03  0.00000000000E+00 0.  1.
         21   -1    0    0  501  503 -0.00000000000E+00 -0.00000000000E+00 -0.12861777330E+04  0.12861777330E+04  0.00000000000E+00 0.  1.
    9000007    1    1    2  501    0  0.58646030572E+02  0.10714357824E+03 -0.58715335635E+03  0.72088013368E+03  0.40000000000E+03 0.  1.
   -9000007    1    1    2    0  502 -0.58646030572E+02 -0.10714357824E+03 -0.56298592555E+03  0.70133605043E+03  0.40000000000E+03 0.  1.
<mgrwt>
<rscale>  2 0.41823331E+03</rscale>
<asrwt>0</asrwt>
<pdfrwt beam="1">  1       21 0.20928992E-01 0.41823331E+03</pdfrwt>
<pdfrwt beam="2">  1       21 0.19787350E+00 0.41823331E+03</pdfrwt>
<totfact> 0.25303577E+03</totfact>
</mgrwt>
</event>
<event>
 4    1  0.4656822E-002  0.8228489E+03  0.7818608E-02  0.9527521E-01
         21   -1    0    0  501  502  0.00000000000E+00  0.00000000000E+00  0.10604412465E+04  0.10604412465E+04  0.00000000000E+00 0.  1.
         21   -1    0    0  502  503 -0.00000000000E+00 -0.00000000000E+00 -0.68694937854E+03  0.68694937854E+03  0.00000000000E+00 0.  1.
    9000007    1    1    2  501    0 -0.50051962428E+03  0.51629482850E+03 -0.45308733141E+02  0.82409533764E+03  0.40000000000E+03 0.  1.
   -9000007    1    1    2    0  503  0.50051962428E+03 -0.51629482850E+03  0.41880060105E+03  0.92329528736E+03  0.40000000000E+03 0.  1.
<mgrwt>
<rscale>  2 0.82284886E+03</rscale>
<asrwt>0</asrwt>
<pdfrwt beam="1">  1       21 0.16314481E+00 0.82284886E+03</pdfrwt>
<pdfrwt beam="2">  1       21 0.10568452E+00 0.82284886E+03</pdfrwt>
<totfact> 0.12022129E+02</totfact>
</mgrwt>
</event>
<event>
 4    1  0.4656822E-002  0.4542953E+03  0.7818608E-02  0.1026449E+00
         21   -1    0    0  503  502  0.00000000000E+00  0.00000000000E+00  0.32510981700E+03  0.32510981700E+03  0.00000000000E+00 0.  1.
         21   -1    0    0  501  503 -0.00000000000E+00 -0.00000000000E+00 -0.24276182446E+04  0.24276182446E+04  0.00000000000E+00 0.  1.
    9000007    1    1    2  501    0 -0.95044394444E+02 -0.19326351184E+03 -0.22340494573E+04  0.22797721815E+04  0.40000000000E+03 0.  1.
   -9000007    1    1    2    0  502  0.95044394444E+02  0.19326351184E+03  0.13154102978E+03  0.47295588001E+03  0.40000000000E+03 0.  1.
<mgrwt>
<rscale>  2 0.45429530E+03</rscale>
<asrwt>0</asrwt>
<pdfrwt beam="1">  1       21 0.50016895E-01 0.45429530E+03</pdfrwt>
<pdfrwt beam="2">  1       21 0.37347973E+00 0.45429530E+03</pdfrwt>
<totfact> 0.35677112E+01</totfact>
</mgrwt>
</event>
<event>
 4    1  0.4656822E-002  0.4008647E+03  0.7818608E-02  0.1043481E+00
         21   -1    0    0  501  502  0.00000000000E+00  0.00000000000E+00  0.85134901191E+03  0.85134901191E+03  0.00000000000E+00 0.  1.
         21   -1    0    0  502  503 -0.00000000000E+00 -0.00000000000E+00 -0.18899256816E+03  0.18899256816E+03  0.00000000000E+00 0.  1.
    9000007    1    1    2  501    0 -0.25738615281E+02 -0.54786680146E+01  0.31255927248E+03  0.50831662469E+03  0.40000000000E+03 0.  1.
   -9000007    1    1    2    0  503  0.25738615281E+02  0.54786680146E+01  0.34979717127E+03  0.53202495538E+03  0.40000000000E+03 0.  1.
<mgrwt>
<rscale>  2 0.40086468E+03</rscale>
<asrwt>0</asrwt>
<pdfrwt beam="1">  1       21 0.13097677E+00 0.40086468E+03</pdfrwt>
<pdfrwt beam="2">  1       21 0.29075780E-01 0.40086468E+03</pdfrwt>
<totfact> 0.42637524E+03</totfact>
</mgrwt>
</event>
<event>
 4    1  0.4656822E-002  0.5669905E+03  0.7818608E-02  0.9976360E-01
         21   -1    0    0  501  502  0.00000000000E+00  0.00000000000E+00  0.19335214936E+03  0.19335214936E+03  0.00000000000E+00 0.  1.
         21   -1    0    0  502  503 -0.00000000000E+00 -0.00000000000E+00 -0.17447455539E+04  0.17447455539E+04  0.00000000000E+00 0.  1.
    9000007    1    1    2  501    0 -0.30027206306E+03 -0.26704843398E+03 -0.56550156902E+03  0.80079348306E+03  0.40000000000E+03 0.  1.
   -9000007    1    1    2    0  503  0.30027206306E+03  0.26704843398E+03 -0.98589183557E+03  0.11373042202E+04  0.40000000000E+03 0.  1.
<mgrwt>
<rscale>  2 0.56699046E+03</rscale>
<asrwt>0</asrwt>
<pdfrwt beam="1">  1       21 0.29746486E-01 0.56699046E+03</pdfrwt>
<pdfrwt beam="2">  1       21 0.26842238E+00 0.56699046E+03</pdfrwt>
<totfact> 0.42737396E+02</totfact>
</mgrwt>
</event>
<event>
 4    1  0.4656822E-002  0.4004808E+03  0.7818608E-02  0.1043613E+00
         21   -1    0    0  501  502  0.00000000000E+00  0.00000000000E+00  0.11566008730E+04  0.11566008730E+04  0.00000000000E+00 0.  1.
         21   -1    0    0  502  503 -0.00000000000E+00 -0.00000000000E+00 -0.77992921196E+03  0.77992921196E+03  0.00000000000E+00 0.  1.
    9000007    1    1    2  501    0  0.90667957619E+01 -0.17397330735E+02  0.10663140686E+04  0.11390393175E+04  0.40000000000E+03 0.  1.
   -9000007    1    1    2    0  503 -0.90667957619E+01  0.17397330735E+02 -0.68964240755E+03  0.79749076747E+03  0.40000000000E+03 0.  1.
<mgrwt>
<rscale>  2 0.40048080E+03</rscale>
<asrwt>0</asrwt>
<pdfrwt beam="1">  1       21 0.17793859E+00 0.40048080E+03</pdfrwt>
<pdfrwt beam="2">  1       21 0.11998911E+00 0.40048080E+03</pdfrwt>
<totfact> 0.81336764E+01</totfact>
</mgrwt>
</event>
<event>
 4    1  0.4656822E-002  0.4040879E+03  0.7818608E-02  0.1042373E+00
         21   -1    0    0  501  502  0.00000000000E+00  0.00000000000E+00  0.13167075151E+03  0.13167075151E+03  0.00000000000E+00 0.  1.
         21   -1    0    0  502  503 -0.00000000000E+00 -0.00000000000E+00 -0.14752511848E+04  0.14752511848E+04  0.00000000000E+00 0.  1.
    9000007    1    1    2  501    0 -0.38870412658E+02 -0.42144525427E+02 -0.35102286630E+03  0.53526079874E+03  0.40000000000E+03 0.  1.
   -9000007    1    1    2    0  503  0.38870412658E+02  0.42144525427E+02 -0.99255756703E+03  0.10716611376E+04  0.40000000000E+03 0.  1.
<mgrwt>
<rscale>  2 0.40408795E+03</rscale>
<asrwt>0</asrwt>
<pdfrwt beam="1">  1       21 0.20257038E-01 0.40408795E+03</pdfrwt>
<pdfrwt beam="2">  1       21 0.22696173E+00 0.40408795E+03</pdfrwt>
<totfact> 0.17575464E+03</totfact>
</mgrwt>
</event>
<event>
 4    1  0.4656822E-002  0.4743478E+03  0.7818608E-02  0.1020700E+00
         21   -1    0    0  501  502  0.00000000000E+00  0.00000000000E+00  0.23054667872E+03  0.23054667872E+03  0.00000000000E+00 0. -1.
         21   -1    0    0  502  503 -0.00000000000E+00 -0.00000000000E+00 -0.97619137404E+03  0.97619137404E+03  0.00000000000E+00 0.  1.
    9000007    1    1    2  501    0 -0.23405354699E+03  0.10111781464E+03 -0.38197647234E+03  0.60902536952E+03  0.40000000000E+03 0.  1.
   -9000007    1    1    2    0  503  0.23405354699E+03 -0.10111781464E+03 -0.36366822298E+03  0.59771268324E+03  0.40000000000E+03 0. -1.
<mgrwt>
<rscale>  2 0.47434784E+03</rscale>
<asrwt>0</asrwt>
<pdfrwt beam="1">  1       21 0.35468719E-01 0.47434784E+03</pdfrwt>
<pdfrwt beam="2">  1       21 0.15018329E+00 0.47434784E+03</pdfrwt>
<totfact> 0.19356536E+03</totfact>
</mgrwt>
</event>
<event>
 4    1  0.4656822E-002  0.5652651E+03  0.7818608E-02  0.9980211E-01
         21   -1    0    0  503  502  0.00000000000E+00  0.00000000000E+00  0.79197496340E+03  0.79197496340E+03  0.00000000000E+00 0.  1.
         21   -1    0    0  501  503 -0.00000000000E+00 -0.00000000000E+00 -0.41125643175E+03  0.41125643175E+03  0.00000000000E+00 0.  1.
    9000007    1    1    2  501    0 -0.68745609359E+02 -0.39344467353E+03  0.27323088055E+03  0.62783738660E+03  0.40000000000E+03 0.  1.
   -9000007    1    1    2    0  502  0.68745609359E+02  0.39344467353E+03  0.10748765111E+03  0.57539400855E+03  0.40000000000E+03 0.  1.
<mgrwt>
<rscale>  2 0.56526513E+03</rscale>
<asrwt>0</asrwt>
<pdfrwt beam="1">  1       21 0.12184230E+00 0.56526513E+03</pdfrwt>
<pdfrwt beam="2">  1       21 0.63270220E-01 0.56526513E+03</pdfrwt>
<totfact> 0.95539604E+02</totfact>
</mgrwt>
</event>
<event>
 4    1  0.4656822E-002  0.5291191E+03  0.7818608E-02  0.1006446E+00
         21   -1    0    0  501  502  0.00000000000E+00  0.00000000000E+00  0.28938768925E+03  0.28938768925E+03  0.00000000000E+00 0. -1.
         21   -1    0    0  502  503 -0.00000000000E+00 -0.00000000000E+00 -0.11920036339E+04  0.11920036339E+04  0.00000000000E+00 0.  1.
    9000007    1    1    2  501    0  0.21438007587E+03  0.27204455962E+03 -0.12982009653E+03  0.54481218490E+03  0.40000000000E+03 0. -1.
   -9000007    1    1    2    0  503 -0.21438007587E+03 -0.27204455962E+03 -0.77279584808E+03  0.93657913822E+03  0.40000000000E+03 0.  1.
<mgrwt>
<rscale>  2 0.52911914E+03</rscale>
<asrwt>0</asrwt>
<pdfrwt beam="1">  1       21 0.44521183E-01 0.52911914E+03</pdfrwt>
<pdfrwt beam="2">  1       21 0.18338517E+00 0.52911914E+03</pdfrwt>
<totfact> 0.67283953E+02</totfact>
</mgrwt>
</event>
<event>
 4    1  0.4656822E-002  0.4501095E+03  0.7818608E-02  0.1027689E+00
         21   -1    0    0  501  502  0.00000000000E+00  0.00000000000E+00  0.85556783337E+03  0.85556783337E+03  0.00000000000E+00 0. -1.
         21   -1    0    0  502  503 -0.00000000000E+00 -0.00000000000E+00 -0.28633727139E+03  0.28633727139E+03  0.00000000000E+00 0. -1.
    9000007    1    1    2  501    0 -0.16381457082E+03  0.12555222991E+03  0.52209500676E+03  0.68933429636E+03  0.40000000000E+03 0. -1.
   -9000007    1    1    2    0  503  0.16381457082E+03 -0.12555222991E+03  0.47135555219E+02  0.45257080840E+03  0.40000000000E+03 0. -1.
<mgrwt>
<rscale>  2 0.45010952E+03</rscale>
<asrwt>0</asrwt>
<pdfrwt beam="1">  1       21 0.13162582E+00 0.45010952E+03</pdfrwt>
<pdfrwt beam="2">  1       21 0.44051888E-01 0.45010952E+03</pdfrwt>
<totfact> 0.17771612E+03</totfact>
</mgrwt>
</event>
<event>
 4    1  0.4656822E-002  0.4674440E+03  0.7818608E-02  0.1022644E+00
         21   -1    0    0  503  502  0.00000000000E+00  0.00000000000E+00  0.54156407796E+03  0.54156407796E+03  0.00000000000E+00 0.  1.
         21   -1    0    0  501  503 -0.00000000000E+00 -0.00000000000E+00 -0.43786640290E+03  0.43786640290E+03  0.00000000000E+00 0. -1.
    9000007    1    1    2  501    0  0.24166366549E+03  0.10128193488E+02 -0.85410028844E+02  0.47518289168E+03  0.40000000000E+03 0. -1.
   -9000007    1    1    2    0  502 -0.24166366549E+03 -0.10128193488E+02  0.18910770390E+03  0.50424758918E+03  0.40000000000E+03 0.  1.
<mgrwt>
<rscale>  2 0.46744402E+03</rscale>
<asrwt>0</asrwt>
<pdfrwt beam="1">  1       21 0.83317550E-01 0.46744402E+03</pdfrwt>
<pdfrwt beam="2">  1       21 0.67364062E-01 0.46744402E+03</pdfrwt>
<totfact> 0.21732702E+03</totfact>
</mgrwt>
</event>
<event>
 4    1  0.4656822E-002  0.5140366E+03  0.7818608E-02  0.1010179E+00
         21   -1    0    0  503  502  0.00000000000E+00  0.00000000000E+00  0.57378038130E+03  0.57378038130E+03  0.00000000000E+00 0.  1.
         21   -1    0    0  501  503 -0.00000000000E+00 -0.00000000000E+00 -0.57226160651E+03  0.57226160651E+03  0.00000000000E+00 0. -1.
    9000007    1    1    2  501    0  0.29102392802E+03  0.13978074371E+03 -0.25245793508E+03  0.57268542148E+03  0.40000000000E+03 0. -1.
   -9000007    1    1    2    0  502 -0.29102392802E+03 -0.13978074371E+03  0.25397670987E+03  0.57335656633E+03  0.40000000000E+03 0. -1.
<mgrwt>
<rscale>  2 0.51403656E+03</rscale>
<asrwt>0</asrwt>
<pdfrwt beam="1">  1       21 0.88273905E-01 0.51403656E+03</pdfrwt>
<pdfrwt beam="2">  1       21 0.88040247E-01 0.51403656E+03</pdfrwt>
<totfact> 0.10084978E+03</totfact>
</mgrwt>
</event>
<event>
 4    1  0.4656822E-002  0.4594091E+03  0.7818608E-02  0.1024953E+00
         21   -1    0    0  501  502  0.00000000000E+00  0.00000000000E+00  0.32720224031E+03  0.32720224031E+03  0.00000000000E+00 0. -1.
         21   -1    0    0  502  503 -0.00000000000E+00 -0.00000000000E+00 -0.91576915778E+03  0.91576915778E+03  0.00000000000E+00 0. -1.
    9000007    1    1    2  501    0  0.10715398797E+03  0.19893404203E+03 -0.63220048035E+03  0.78149483528E+03  0.40000000000E+03 0. -1.
   -9000007    1    1    2    0  503 -0.10715398797E+03 -0.19893404203E+03  0.43633562873E+02  0.46147656281E+03  0.40000000000E+03 0. -1.
<mgrwt>
<rscale>  2 0.45940911E+03</rscale>
<asrwt>0</asrwt>
<pdfrwt beam="1">  1       21 0.50338807E-01 0.45940911E+03</pdfrwt>
<pdfrwt beam="2">  1       21 0.14088756E+00 0.45940911E+03</pdfrwt>
<totfact> 0.11172287E+03</totfact>
</mgrwt>
</event>
<event>
 4    1  0.4656822E-002  0.4214654E+03  0.7818608E-02  0.1036590E+00
         21   -1    0    0  503  502  0.00000000000E+00  0.00000000000E+00  0.56493405841E+03  0.56493405841E+03  0.00000000000E+00 0.  1.
         21   -1    0    0  501  503 -0.00000000000E+00 -0.00000000000E+00 -0.44337659043E+03  0.44337659043E+03  0.00000000000E+00 0. -1.
    9000007    1    1    2  501    0 -0.11624714430E+03 -0.64185099324E+02 -0.21110310498E+03  0.47137845354E+03  0.40000000000E+03 0. -1.
   -9000007    1    1    2    0  502  0.11624714430E+03  0.64185099324E+02  0.33266057297E+03  0.53693219529E+03  0.40000000000E+03 0.  1.
<mgrwt>
<rscale>  2 0.42146545E+03</rscale>
<asrwt>0</asrwt>
<pdfrwt beam="1">  1       21 0.86912932E-01 0.42146545E+03</pdfrwt>
<pdfrwt beam="2">  1       21 0.68211783E-01 0.42146545E+03</pdfrwt>
<totfact> 0.19479918E+03</totfact>
</mgrwt>
</event>
<event>
 4    1  0.4656822E-002  0.6092489E+03  0.7818608E-02  0.9886401E-01
         21   -1    0    0  503  502  0.00000000000E+00  0.00000000000E+00  0.67220959772E+03  0.67220959772E+03  0.00000000000E+00 0.  1.
         21   -1    0    0  501  503 -0.00000000000E+00 -0.00000000000E+00 -0.70130888532E+03  0.70130888532E+03  0.00000000000E+00 0.  1.
    9000007    1    1    2  501    0  0.45208493718E+03  0.82482611417E+02 -0.33123151176E+03  0.69346844628E+03  0.40000000000E+03 0.  1.
   -9000007    1    1    2    0  502 -0.45208493718E+03 -0.82482611417E+02  0.30213222416E+03  0.68005003675E+03  0.40000000000E+03 0.  1.
<mgrwt>
<rscale>  2 0.60924886E+03</rscale>
<asrwt>0</asrwt>
<pdfrwt beam="1">  1       21 0.10341686E+00 0.60924886E+03</pdfrwt>
<pdfrwt beam="2">  1       21 0.10789368E+00 0.60924886E+03</pdfrwt>
<totfact> 0.40624088E+02</totfact>
</mgrwt>
</event>
<event>
 4    1  0.4656822E-002  0.4998807E+03  0.7818608E-02  0.1013810E+00
         21   -1    0    0  501  502  0.00000000000E+00  0.00000000000E+00  0.16014029598E+04  0.16014029598E+04  0.00000000000E+00 0.  1.
         21   -1    0    0  502  503 -0.00000000000E+00 -0.00000000000E+00 -0.16474286034E+03  0.16474286034E+03  0.00000000000E+00 0.  1.
    9000007    1    1    2  501    0 -0.29525703254E+03 -0.51999847582E+02  0.51534744065E+03  0.71795799598E+03  0.40000000000E+03 0.  1.
   -9000007    1    1    2    0  503  0.29525703254E+03  0.51999847582E+02  0.92131265876E+03  0.10481878241E+04  0.40000000000E+03 0.  1.
<mgrwt>
<rscale>  2 0.49988069E+03</rscale>
<asrwt>0</asrwt>
<pdfrwt beam="1">  1       21 0.24636968E+00 0.49988069E+03</pdfrwt>
<pdfrwt beam="2">  1       21 0.25345057E-01 0.49988069E+03</pdfrwt>
<totfact> 0.82497673E+02</totfact>
</mgrwt>
</event>
<event>
 4    1  0.4656822E-002  0.4834045E+03  0.7818608E-02  0.1018204E+00
         21   -1    0    0  503  502  0.00000000000E+00  0.00000000000E+00  0.10928637545E+04  0.10928637545E+04  0.00000000000E+00 0.  1.
         21   -1    0    0  501  503 -0.00000000000E+00 -0.00000000000E+00 -0.22308230761E+03  0.22308230761E+03  0.00000000000E+00 0.  1.
    9000007    1    1    2  501    0 -0.26210092769E+03 -0.70590181062E+02  0.30084442022E+03  0.56937442438E+03  0.40000000000E+03 0.  1.
   -9000007    1    1    2    0  502  0.26210092769E+03  0.70590181062E+02  0.56893702669E+03  0.74657163775E+03  0.40000000000E+03 0.  1.
<mgrwt>
<rscale>  2 0.48340446E+03</rscale>
<asrwt>0</asrwt>
<pdfrwt beam="1">  1       21 0.16813288E+00 0.48340446E+03</pdfrwt>
<pdfrwt beam="2">  1       21 0.34320355E-01 0.48340446E+03</pdfrwt>
<totfact> 0.15059500E+03</totfact>
</mgrwt>
</event>
<event>
 4    1  0.4656822E-002  0.4140492E+03  0.7818608E-02  0.1039021E+00
         21   -1    0    0  501  502  0.00000000000E+00  0.00000000000E+00  0.33090891616E+03  0.33090891616E+03  0.00000000000E+00 0. -1.
         21   -1    0    0  502  503 -0.00000000000E+00 -0.00000000000E+00 -0.96089695659E+03  0.96089695659E+03  0.00000000000E+00 0. -1.
    9000007    1    1    2  501    0 -0.59465654345E+02 -0.88885139868E+02  0.12347791377E+03  0.43206889187E+03  0.40000000000E+03 0. -1.
   -9000007    1    1    2    0  503  0.59465654345E+02  0.88885139868E+02 -0.75346595421E+03  0.85973698088E+03  0.40000000000E+03 0. -1.
<mgrwt>
<rscale>  2 0.41404919E+03</rscale>
<asrwt>0</asrwt>
<pdfrwt beam="1">  1       21 0.50909065E-01 0.41404919E+03</pdfrwt>
<pdfrwt beam="2">  1       21 0.14783030E+00 0.41404919E+03</pdfrwt>
<totfact> 0.97789987E+02</totfact>
</mgrwt>
</event>
<event>
 4    1  0.4656822E-002  0.4492351E+03  0.7818608E-02  0.1027950E+00
         21   -1    0    0  501  502  0.00000000000E+00  0.00000000000E+00  0.76569578812E+03  0.76569578812E+03  0.00000000000E+00 0.  1.
         21   -1    0    0  502  503 -0.00000000000E+00 -0.00000000000E+00 -0.64365844616E+03  0.64365844616E+03  0.00000000000E+00 0.  1.
    9000007    1    1    2  501    0 -0.19843553051E+03 -0.49350494885E+02  0.60252868045E+03  0.75156699095E+03  0.40000000000E+03 0.  1.
   -9000007    1    1    2    0  503  0.19843553051E+03  0.49350494885E+02 -0.48049133850E+03  0.65778724333E+03  0.40000000000E+03 0.  1.
<mgrwt>
<rscale>  2 0.44923505E+03</rscale>
<asrwt>0</asrwt>
<pdfrwt beam="1">  1       21 0.11779935E+00 0.44923505E+03</pdfrwt>
<pdfrwt beam="2">  1       21 0.99024376E-01 0.44923505E+03</pdfrwt>
<totfact> 0.38629592E+02</totfact>
</mgrwt>
</event>
<event>
 4    1  0.4656822E-002  0.4475640E+03  0.7818608E-02  0.1028451E+00
         21   -1    0    0  501  502  0.00000000000E+00  0.00000000000E+00  0.63519679941E+03  0.63519679941E+03  0.00000000000E+00 0.  1.
         21   -1    0    0  502  503 -0.00000000000E+00 -0.00000000000E+00 -0.38454127957E+03  0.38454127957E+03  0.00000000000E+00 0.  1.
    9000007    1    1    2  501    0  0.20049393614E+03  0.10755106187E+02  0.34159572071E+03  0.56302853138E+03  0.40000000000E+03 0.  1.
   -9000007    1    1    2    0  503 -0.20049393614E+03 -0.10755106187E+02 -0.90940200874E+02  0.45670954761E+03  0.40000000000E+03 0.  1.
<mgrwt>
<rscale>  2 0.44756395E+03</rscale>
<asrwt>0</asrwt>
<pdfrwt beam="1">  1       21 0.97722585E-01 0.44756395E+03</pdfrwt>
<pdfrwt beam="2">  1       21 0.59160197E-01 0.44756395E+03</pdfrwt>
<totfact> 0.19990016E+03</totfact>
</mgrwt>
</event>
<event>
 4    1  0.4656822E-002  0.4595228E+03  0.7818608E-02  0.1024920E+00
         21   -1    0    0  503  502  0.00000000000E+00  0.00000000000E+00  0.32628566403E+03  0.32628566403E+03  0.00000000000E+00 0.  1.
         21   -1    0    0  501  503 -0.00000000000E+00 -0.00000000000E+00 -0.65636308200E+03  0.65636308200E+03  0.00000000000E+00 0.  1.
    9000007    1    1    2  501    0  0.83679283873E+02  0.21014029685E+03 -0.10688086181E+03  0.47178881455E+03  0.40000000000E+03 0.  1.
   -9000007    1    1    2    0  502 -0.83679283873E+02 -0.21014029685E+03 -0.22319655616E+03  0.51085993148E+03  0.40000000000E+03 0.  1.
<mgrwt>
<rscale>  2 0.45952276E+03</rscale>
<asrwt>0</asrwt>
<pdfrwt beam="1">  1       21 0.50197795E-01 0.45952276E+03</pdfrwt>
<pdfrwt beam="2">  1       21 0.10097893E+00 0.45952276E+03</pdfrwt>
<totfact> 0.26196257E+03</totfact>
</mgrwt>
</event>
<event>
 4    1  0.4656822E-002  0.4308238E+03  0.7818608E-02  0.1033600E+00
         21   -1    0    0  503  502  0.00000000000E+00  0.00000000000E+00  0.27804946043E+04  0.27804946043E+04  0.00000000000E+00 0. -1.
         21   -1    0    0  501  503 -0.00000000000E+00 -0.00000000000E+00 -0.73541439179E+02  0.73541439179E+02  0.00000000000E+00 0.  1.
    9000007    1    1    2  501    0  0.99694461918E+01  0.15971776997E+03  0.91994958163E+03  0.10158328547E+04  0.40000000000E+03 0.  1.
   -9000007    1    1    2    0  502 -0.99694461918E+01 -0.15971776997E+03  0.17870035835E+04  0.18382031888E+04  0.40000000000E+03 0. -1.
<mgrwt>
<rscale>  2 0.43082381E+03</rscale>
<asrwt>0</asrwt>
<pdfrwt beam="1">  1       21 0.42776832E+00 0.43082381E+03</pdfrwt>
<pdfrwt beam="2">  1       21 0.11314070E-01 0.43082381E+03</pdfrwt>
<totfact> 0.29372672E+02</totfact>
</mgrwt>
</event>
<event>
 4    1  0.4656822E-002  0.5640037E+03  0.7818608E-02  0.9983036E-01
         21   -1    0    0  501  502  0.00000000000E+00  0.00000000000E+00  0.11516413199E+04  0.11516413199E+04  0.00000000000E+00 0. -1.
         21   -1    0    0  502  503 -0.00000000000E+00 -0.00000000000E+00 -0.94190410590E+03  0.94190410590E+03  0.00000000000E+00 0.  1.
    9000007    1    1    2  501    0 -0.13250834764E+03  0.37488886856E+03  0.98487313977E+03  0.11349340190E+04  0.40000000000E+03 0. -1.
   -9000007    1    1    2    0  503  0.13250834764E+03 -0.37488886856E+03 -0.77513592576E+03  0.95861140686E+03  0.40000000000E+03 0.  1.
<mgrwt>
<rscale>  2 0.56400366E+03</rscale>
<asrwt>0</asrwt>
<pdfrwt beam="1">  1       21 0.17717559E+00 0.56400366E+03</pdfrwt>
<pdfrwt beam="2">  1       21 0.14490832E+00 0.56400366E+03</pdfrwt>
<totfact> 0.45888285E+01</totfact>
</mgrwt>
</event>
<event>
 4    1  0.4656822E-002  0.4124525E+03  0.7818608E-02  0.1039551E+00
         21   -1    0    0  503  502  0.00000000000E+00  0.00000000000E+00  0.56996866220E+03  0.56996866220E+03  0.00000000000E+00 0. -1.
         21   -1    0    0  501  503 -0.00000000000E+00 -0.00000000000E+00 -0.38936605128E+03  0.38936605128E+03  0.00000000000E+00 0. -1.
    9000007    1    1    2  501    0  0.99430129620E+02  0.15189702946E+02 -0.14145939113E+03  0.43603650890E+03  0.40000000000E+03 0. -1.
   -9000007    1    1    2    0  502 -0.99430129620E+02 -0.15189702946E+02  0.32206200205E+03  0.52329820458E+03  0.40000000000E+03 0. -1.
<mgrwt>
<rscale>  2 0.41245252E+03</rscale>
<asrwt>0</asrwt>
<pdfrwt beam="1">  1       21 0.87687487E-01 0.41245252E+03</pdfrwt>
<pdfrwt beam="2">  1       21 0.59902469E-01 0.41245252E+03</pdfrwt>
<totfact> 0.25520460E+03</totfact>
</mgrwt>
</event>
<event>
 4    1  0.4656822E-002  0.4090383E+03  0.7818608E-02  0.1040694E+00
         21   -1    0    0  501  502  0.00000000000E+00  0.00000000000E+00  0.74431478813E+02  0.74431478813E+02  0.00000000000E+00 0.  1.
         21   -1    0    0  502  503 -0.00000000000E+00 -0.00000000000E+00 -0.26927740171E+04  0.26927740171E+04  0.00000000000E+00 0.  1.
    9000007    1    1    2  501    0 -0.28064151070E+00 -0.85511532076E+02 -0.18715702730E+04  0.19157472661E+04  0.40000000000E+03 0.  1.
   -9000007    1    1    2    0  503  0.28064151070E+00  0.85511532076E+02 -0.74677226530E+03  0.85145822980E+03  0.40000000000E+03 0.  1.
<mgrwt>
<rscale>  2 0.40903826E+03</rscale>
<asrwt>0</asrwt>
<pdfrwt beam="1">  1       21 0.11450997E-01 0.40903826E+03</pdfrwt>
<pdfrwt beam="2">  1       21 0.41427291E+00 0.40903826E+03</pdfrwt>
<totfact> 0.35757804E+02</totfact>
</mgrwt>
</event>
<event>
 4    1  0.4656822E-002  0.5343672E+03  0.7818608E-02  0.1005178E+00
         21   -1    0    0  503  502  0.00000000000E+00  0.00000000000E+00  0.87908581409E+03  0.87908581409E+03  0.00000000000E+00 0.  1.
         21   -1    0    0  501  503 -0.00000000000E+00 -0.00000000000E+00 -0.44374119226E+03  0.44374119226E+03  0.00000000000E+00 0. -1.
    9000007    1    1    2  501    0  0.25745704226E+03  0.24344234873E+03  0.56006952814E+03  0.77409701079E+03  0.40000000000E+03 0.  1.
   -9000007    1    1    2    0  502 -0.25745704226E+03 -0.24344234873E+03 -0.12472490632E+03  0.54872999555E+03  0.40000000000E+03 0. -1.
<mgrwt>
<rscale>  2 0.53436720E+03</rscale>
<asrwt>0</asrwt>
<pdfrwt beam="1">  1       21 0.13524397E+00 0.53436720E+03</pdfrwt>
<pdfrwt beam="2">  1       21 0.68267876E-01 0.53436720E+03</pdfrwt>
<totfact> 0.62095358E+02</totfact>
</mgrwt>
</event>
<event>
 4    1  0.4656822E-002  0.4699715E+03  0.7818608E-02  0.1021928E+00
         21   -1    0    0  501  502  0.00000000000E+00  0.00000000000E+00  0.20253698896E+04  0.20253698896E+04  0.00000000000E+00 0. -1.
         21   -1    0    0  502  503 -0.00000000000E+00 -0.00000000000E+00 -0.17595368412E+03  0.17595368412E+03  0.00000000000E+00 0. -1.
    9000007    1    1    2  501    0  0.14728872033E+03  0.19793758502E+03  0.16033943315E+04  0.16708520691E+04  0.40000000000E+03 0. -1.
   -9000007    1    1    2    0  503 -0.14728872033E+03 -0.19793758502E+03  0.24602187400E+03  0.53047150459E+03  0.40000000000E+03 0. -1.
<mgrwt>
<rscale>  2 0.46997155E+03</rscale>
<asrwt>0</asrwt>
<pdfrwt beam="1">  1       21 0.31159535E+00 0.46997155E+03</pdfrwt>
<pdfrwt beam="2">  1       21 0.27069799E-01 0.46997155E+03</pdfrwt>
<totfact> 0.29585140E+02</totfact>
</mgrwt>
</event>
<event>
 4    1  0.4656822E-002  0.5985442E+03  0.7818608E-02  0.9908431E-01
         21   -1    0    0  503  502  0.00000000000E+00  0.00000000000E+00  0.55930873638E+03  0.55930873638E+03  0.00000000000E+00 0. -1.
         21   -1    0    0  501  503 -0.00000000000E+00 -0.00000000000E+00 -0.83530914448E+03  0.83530914448E+03  0.00000000000E+00 0. -1.
    9000007    1    1    2  501    0 -0.25007548261E+03 -0.36839845462E+03 -0.47472148381E+03  0.76394741675E+03  0.40000000000E+03 0. -1.
   -9000007    1    1    2    0  502  0.25007548261E+03  0.36839845462E+03  0.19872107570E+03  0.63067046411E+03  0.40000000000E+03 0. -1.
<mgrwt>
<rscale>  2 0.59854421E+03</rscale>
<asrwt>0</asrwt>
<pdfrwt beam="1">  1       21 0.86047499E-01 0.59854421E+03</pdfrwt>
<pdfrwt beam="2">  1       21 0.12850910E+00 0.59854421E+03</pdfrwt>
<totfact> 0.40702583E+02</totfact>
</mgrwt>
</event>
<event>
 4    1  0.4656822E-002  0.5133798E+03  0.7818608E-02  0.1010344E+00
         21   -1    0    0  501  502  0.00000000000E+00  0.00000000000E+00  0.30741154102E+03  0.30741154102E+03  0.00000000000E+00 0. -1.
         21   -1    0    0  502  503 -0.00000000000E+00 -0.00000000000E+00 -0.12668272132E+04  0.12668272132E+04  0.00000000000E+00 0. -1.
    9000007    1    1    2  501    0 -0.26644633262E+03  0.18045811460E+03 -0.32203082274E+02  0.51438878078E+03  0.40000000000E+03 0. -1.
   -9000007    1    1    2    0  503  0.26644633262E+03 -0.18045811460E+03 -0.92721258989E+03  0.10598499734E+04  0.40000000000E+03 0. -1.
<mgrwt>
<rscale>  2 0.51337976E+03</rscale>
<asrwt>0</asrwt>
<pdfrwt beam="1">  1       21 0.47294083E-01 0.51337976E+03</pdfrwt>
<pdfrwt beam="2">  1       21 0.19489649E+00 0.51337976E+03</pdfrwt>
<totfact> 0.49654316E+02</totfact>
</mgrwt>
</event>
<event>
 4    1  0.4656822E-002  0.4564632E+03  0.7818608E-02  0.1025812E+00
         21   -1    0    0  501  502  0.00000000000E+00  0.00000000000E+00  0.15818362023E+03  0.15818362023E+03  0.00000000000E+00 0.  1.
         21   -1    0    0  502  503 -0.00000000000E+00 -0.00000000000E+00 -0.21655937570E+04  0.21655937570E+04  0.00000000000E+00 0. -1.
    9000007    1    1    2  501    0 -0.11081698280E+03  0.18994269569E+03 -0.27646783060E+03  0.53366009095E+03  0.40000000000E+03 0.  1.
   -9000007    1    1    2    0  503  0.11081698280E+03 -0.18994269569E+03 -0.17309423062E+04  0.17901172863E+04  0.40000000000E+03 0. -1.
<mgrwt>
<rscale>  2 0.45646318E+03</rscale>
<asrwt>0</asrwt>
<pdfrwt beam="1">  1       21 0.24335943E-01 0.45646318E+03</pdfrwt>
<pdfrwt beam="2">  1       21 0.33316825E+00 0.45646318E+03</pdfrwt>
<totfact> 0.27184386E+02</totfact>
</mgrwt>
</event>
<event>
 4    1  0.4656822E-002  0.5806036E+03  0.7818608E-02  0.9946485E-01
         21   -1    0    0  501  502  0.00000000000E+00  0.00000000000E+00  0.14458405313E+04  0.14458405313E+04  0.00000000000E+00 0.  1.
         21   -1    0    0  502  503 -0.00000000000E+00 -0.00000000000E+00 -0.32455347629E+03  0.32455347629E+03  0.00000000000E+00 0. -1.
    9000007    1    1    2  501    0 -0.35865168918E+03  0.22015801771E+03  0.10304007308E+04  0.11827198540E+04  0.40000000000E+03 0.  1.
   -9000007    1    1    2    0  503  0.35865168918E+03 -0.22015801771E+03  0.90886324191E+02  0.58767415362E+03  0.40000000000E+03 0. -1.
<mgrwt>
<rscale>  2 0.58060364E+03</rscale>
<asrwt>0</asrwt>
<pdfrwt beam="1">  1       21 0.22243700E+00 0.58060364E+03</pdfrwt>
<pdfrwt beam="2">  1       21 0.49931305E-01 0.58060364E+03</pdfrwt>
<totfact> 0.28310541E+02</totfact>
</mgrwt>
</event>
<event>
 4    1  0.4656822E-002  0.4673291E+03  0.7818608E-02  0.1022677E+00
         21   -1    0    0  503  502  0.00000000000E+00  0.00000000000E+00  0.12889282664E+04  0.12889282664E+04  0.00000000000E+00 0. -1.
         21   -1    0    0  501  503 -0.00000000000E+00 -0.00000000000E+00 -0.27384210990E+03  0.27384210990E+03  0.00000000000E+00 0. -1.
    9000007    1    1    2  501    0 -0.93459268328E+02 -0.22284943049E+03  0.25074657530E+02  0.46800132687E+03  0.40000000000E+03 0. -1.
   -9000007    1    1    2    0  502  0.93459268328E+02  0.22284943049E+03  0.99001149901E+03  0.10947690495E+04  0.40000000000E+03 0. -1.
<mgrwt>
<rscale>  2 0.46732912E+03</rscale>
<asrwt>0</asrwt>
<pdfrwt beam="1">  1       21 0.19829665E+00 0.46732912E+03</pdfrwt>
<pdfrwt beam="2">  1       21 0.42129556E-01 0.46732912E+03</pdfrwt>
<totfact> 0.61253553E+02</totfact>
</mgrwt>
</event>
<event>
 4    1  0.4656822E-002  0.4725479E+03  0.7818608E-02  0.1021204E+00
         21   -1    0    0  503  502  0.00000000000E+00  0.00000000000E+00  0.21597239481E+03  0.21597239481E+03  0.00000000000E+00 0. -1.
         21   -1    0    0  501  503 -0.00000000000E+00 -0.00000000000E+00 -0.10617068288E+04  0.10617068288E+04  0.00000000000E+00 0. -1.
    9000007    1    1    2  501    0 -0.15134696346E+03 -0.20098655446E+03 -0.52618827874E+03  0.70723094043E+03  0.40000000000E+03 0. -1.
   -9000007    1    1    2    0  502  0.15134696346E+03  0.20098655446E+03 -0.31954615521E+03  0.57044828314E+03  0.40000000000E+03 0. -1.
<mgrwt>
<rscale>  2 0.47254788E+03</rscale>
<asrwt>0</asrwt>
<pdfrwt beam="1">  1       21 0.33226522E-01 0.47254788E+03</pdfrwt>
<pdfrwt beam="2">  1       21 0.16333951E+00 0.47254788E+03</pdfrwt>
<totfact> 0.17520840E+03</totfact>
</mgrwt>
</event>
<event>
 4    1  0.4656822E-002  0.5036638E+03  0.7818608E-02  0.1012827E+00
         21   -1    0    0  503  502  0.00000000000E+00  0.00000000000E+00  0.22991486133E+04  0.22991486133E+04  0.00000000000E+00 0.  1.
         21   -1    0    0  501  503 -0.00000000000E+00 -0.00000000000E+00 -0.11232767852E+03  0.11232767852E+03  0.00000000000E+00 0.  1.
    9000007    1    1    2  501    0  0.21097687037E+03 -0.22173400796E+03  0.12539927105E+04  0.13513603991E+04  0.40000000000E+03 0.  1.
   -9000007    1    1    2    0  502 -0.21097687037E+03  0.22173400796E+03  0.93282822423E+03  0.10601158927E+04  0.40000000000E+03 0.  1.
<mgrwt>
<rscale>  2 0.50366379E+03</rscale>
<asrwt>0</asrwt>
<pdfrwt beam="1">  1       21 0.35371513E+00 0.50366379E+03</pdfrwt>
<pdfrwt beam="2">  1       21 0.17281183E-01 0.50366379E+03</pdfrwt>
<totfact> 0.38066577E+02</totfact>
</mgrwt>
</event>
<event>
 4    1  0.4656822E-002  0.4436971E+03  0.7818608E-02  0.1029618E+00
         21   -1    0    0  503  502  0.00000000000E+00  0.00000000000E+00  0.31160173912E+03  0.31160173912E+03  0.00000000000E+00 0. -1.
         21   -1    0    0  501  503 -0.00000000000E+00 -0.00000000000E+00 -0.85280405254E+03  0.85280405254E+03  0.00000000000E+00 0. -1.
    9000007    1    1    2  501    0 -0.72080844915E+02 -0.17796468956E+03  0.25785737505E+02  0.44444570331E+03  0.40000000000E+03 0. -1.
   -9000007    1    1    2    0  502  0.72080844915E+02  0.17796468956E+03 -0.56698805092E+03  0.71996008835E+03  0.40000000000E+03 0. -1.
<mgrwt>
<rscale>  2 0.44369706E+03</rscale>
<asrwt>0</asrwt>
<pdfrwt beam="1">  1       21 0.47938730E-01 0.44369706E+03</pdfrwt>
<pdfrwt beam="2">  1       21 0.13120062E+00 0.44369706E+03</pdfrwt>
<totfact> 0.15043501E+03</totfact>
</mgrwt>
</event>
<event>
 4    1  0.4656822E-002  0.4720675E+03  0.7818608E-02  0.1021338E+00
         21   -1    0    0  501  502  0.00000000000E+00  0.00000000000E+00  0.42124919811E+03  0.42124919811E+03  0.00000000000E+00 0.  1.
         21   -1    0    0  502  503 -0.00000000000E+00 -0.00000000000E+00 -0.53694196425E+03  0.53694196425E+03  0.00000000000E+00 0.  1.
    9000007    1    1    2  501    0 -0.47258283579E+02  0.24619984298E+03  0.36062732383E+00  0.47206762026E+03  0.40000000000E+03 0.  1.
   -9000007    1    1    2    0  503  0.47258283579E+02 -0.24619984298E+03 -0.11605339345E+03  0.48612354210E+03  0.40000000000E+03 0.  1.
<mgrwt>
<rscale>  2 0.47206748E+03</rscale>
<asrwt>0</asrwt>
<pdfrwt beam="1">  1       21 0.64807569E-01 0.47206748E+03</pdfrwt>
<pdfrwt beam="2">  1       21 0.82606456E-01 0.47206748E+03</pdfrwt>
<totfact> 0.24130265E+03</totfact>
</mgrwt>
</event>
<event>
 4    1  0.4656822E-002  0.5118846E+03  0.7818608E-02  0.1010723E+00
         21   -1    0    0  503  502  0.00000000000E+00  0.00000000000E+00  0.44729036983E+03  0.44729036983E+03  0.00000000000E+00 0. -1.
         21   -1    0    0  501  503 -0.00000000000E+00 -0.00000000000E+00 -0.83748953839E+03  0.83748953839E+03  0.00000000000E+00 0.  1.
    9000007    1    1    2  501    0  0.13777583570E+03 -0.28817291118E+03 -0.54725602079E+03  0.74934301887E+03  0.40000000000E+03 0.  1.
   -9000007    1    1    2    0  502 -0.13777583570E+03  0.28817291118E+03  0.15705685223E+03  0.53543688935E+03  0.40000000000E+03 0. -1.
<mgrwt>
<rscale>  2 0.51188456E+03</rscale>
<asrwt>0</asrwt>
<pdfrwt beam="1">  1       21 0.68813904E-01 0.51188456E+03</pdfrwt>
<pdfrwt beam="2">  1       21 0.12884454E+00 0.51188456E+03</pdfrwt>
<totfact> 0.69819988E+02</totfact>
</mgrwt>
</event>
<event>
 4    1  0.4656822E-002  0.4142449E+03  0.7818608E-02  0.1038956E+00
         21   -1    0    0  503  502  0.00000000000E+00  0.00000000000E+00  0.26459559723E+03  0.26459559723E+03  0.00000000000E+00 0. -1.
         21   -1    0    0  501  503 -0.00000000000E+00 -0.00000000000E+00 -0.69537718760E+03  0.69537718760E+03  0.00000000000E+00 0. -1.
    9000007    1    1    2  501    0 -0.18075601496E+02  0.10617017455E+03 -0.33997100815E+03  0.53589095879E+03  0.40000000000E+03 0. -1.
   -9000007    1    1    2    0  502  0.18075601496E+02 -0.10617017455E+03 -0.90810582225E+02  0.42408182604E+03  0.40000000000E+03 0. -1.
<mgrwt>
<rscale>  2 0.41424490E+03</rscale>
<asrwt>0</asrwt>
<pdfrwt beam="1">  1       21 0.40707015E-01 0.41424490E+03</pdfrwt>
<pdfrwt beam="2">  1       21 0.10698111E+00 0.41424490E+03</pdfrwt>
<totfact> 0.35861559E+03</totfact>
</mgrwt>
</event>
<event>
 4    1  0.4656822E-002  0.5983241E+03  0.7818608E-02  0.9908889E-01
         21   -1    0    0  503  502  0.00000000000E+00  0.00000000000E+00  0.27565762925E+03  0.27565762925E+03  0.00000000000E+00 0. -1.
         21   -1    0    0  501  503 -0.00000000000E+00 -0.00000000000E+00 -0.24408955703E+04  0.24408955703E+04  0.00000000000E+00 0. -1.
    9000007    1    1    2  501    0  0.43973531356E+03 -0.68004328608E+02 -0.20117718667E+04  0.20988610670E+04  0.40000000000E+03 0. -1.
   -9000007    1    1    2    0  502 -0.43973531356E+03  0.68004328608E+02 -0.15346607435E+03  0.61769213260E+03  0.40000000000E+03 0. -1.
<mgrwt>
<rscale>  2 0.59832411E+03</rscale>
<asrwt>0</asrwt>
<pdfrwt beam="1">  1       21 0.42408864E-01 0.59832411E+03</pdfrwt>
<pdfrwt beam="2">  1       21 0.37552241E+00 0.59832411E+03</pdfrwt>
<totfact> 0.44831513E+01</totfact>
</mgrwt>
</event>
<event>
 4    1  0.4656822E-002  0.4473156E+03  0.7818608E-02  0.1028526E+00
         21   -1    0    0  503  502  0.00000000000E+00  0.00000000000E+00  0.74752004878E+03  0.74752004878E+03  0.00000000000E+00 0. -1.
         21   -1    0    0  501  503 -0.00000000000E+00 -0.00000000000E+00 -0.35375801815E+03  0.35375801815E+03  0.00000000000E+00 0.  1.
    9000007    1    1    2  501    0 -0.10571679796E+03  0.17004478320E+03  0.46851024574E+03  0.64776007906E+03  0.40000000000E+03 0. -1.
   -9000007    1    1    2    0  502  0.10571679796E+03 -0.17004478320E+03 -0.74748215108E+02  0.45351798788E+03  0.40000000000E+03 0.  1.
<mgrwt>
<rscale>  2 0.44731563E+03</rscale>
<asrwt>0</asrwt>
<pdfrwt beam="1">  1       21 0.11500308E+00 0.44731563E+03</pdfrwt>
<pdfrwt beam="2">  1       21 0.54424311E-01 0.44731563E+03</pdfrwt>
<totfact> 0.16046311E+03</totfact>
</mgrwt>
</event>
<event>
 4    1  0.4656822E-002  0.6535206E+03  0.7818608E-02  0.9800195E-01
         21   -1    0    0  501  502  0.00000000000E+00  0.00000000000E+00  0.44392119371E+03  0.44392119371E+03  0.00000000000E+00 0. -1.
         21   -1    0    0  502  503 -0.00000000000E+00 -0.00000000000E+00 -0.97119195940E+03  0.97119195940E+03  0.00000000000E+00 0.  1.
    9000007    1    1    2  501    0 -0.47873022777E+03 -0.19469596142E+03 -0.19511230470E+03  0.68202489677E+03  0.40000000000E+03 0. -1.
   -9000007    1    1    2    0  503  0.47873022777E+03  0.19469596142E+03 -0.33215846100E+03  0.73308825634E+03  0.40000000000E+03 0.  1.
<mgrwt>
<rscale>  2 0.65352058E+03</rscale>
<asrwt>0</asrwt>
<pdfrwt beam="1">  1       21 0.68295569E-01 0.65352058E+03</pdfrwt>
<pdfrwt beam="2">  1       21 0.14941415E+00 0.65352058E+03</pdfrwt>
<totfact> 0.45550384E+02</totfact>
</mgrwt>
</event>
<event>
 4    1  0.4656822E-002  0.4188072E+03  0.7818608E-02  0.1037455E+00
         21   -1    0    0  503  502  0.00000000000E+00  0.00000000000E+00  0.34458523066E+03  0.34458523066E+03  0.00000000000E+00 0. -1.
         21   -1    0    0  501  503 -0.00000000000E+00 -0.00000000000E+00 -0.52107858715E+03  0.52107858715E+03  0.00000000000E+00 0. -1.
    9000007    1    1    2  501    0 -0.12272739533E+03 -0.18370589744E+02 -0.22392572843E+02  0.41940543565E+03  0.40000000000E+03 0. -1.
   -9000007    1    1    2    0  502  0.12272739533E+03  0.18370589744E+02 -0.15410078365E+03  0.44625838216E+03  0.40000000000E+03 0. -1.
<mgrwt>
<rscale>  2 0.41880723E+03</rscale>
<asrwt>0</asrwt>
<pdfrwt beam="1">  1       21 0.53013113E-01 0.41880723E+03</pdfrwt>
<pdfrwt beam="2">  1       21 0.80165936E-01 0.41880723E+03</pdfrwt>
<totfact> 0.40867224E+03</totfact>
</mgrwt>
</event>
<event>
 4    1  0.4656822E-002  0.4330713E+03  0.7818608E-02  0.1032894E+00
         21   -1    0    0  501  502  0.00000000000E+00  0.00000000000E+00  0.16654277921E+04  0.16654277921E+04  0.00000000000E+00 0. -1.
         21   -1    0    0  502  503 -0.00000000000E+00 -0.00000000000E+00 -0.13971462252E+03  0.13971462252E+03  0.00000000000E+00 0. -1.
    9000007    1    1    2  501    0  0.27877302483E+02  0.16362631530E+03  0.36534565645E+03  0.56659347308E+03  0.40000000000E+03 0. -1.
   -9000007    1    1    2    0  503 -0.27877302483E+02 -0.16362631530E+03  0.11603675131E+04  0.12385489415E+04  0.40000000000E+03 0. -1.
<mgrwt>
<rscale>  2 0.43307126E+03</rscale>
<asrwt>0</asrwt>
<pdfrwt beam="1">  1       21 0.25621965E+00 0.43307126E+03</pdfrwt>
<pdfrwt beam="2">  1       21 0.21494559E-01 0.43307126E+03</pdfrwt>
<totfact> 0.10195529E+03</totfact>
</mgrwt>
</event>
<event>
 4    1  0.4656822E-002  0.4100944E+03  0.7818608E-02  0.1040339E+00
         21   -1    0    0  501  502  0.00000000000E+00  0.00000000000E+00  0.64810107776E+03  0.64810107776E+03  0.00000000000E+00 0.  1.
         21   -1    0    0  502  503 -0.00000000000E+00 -0.00000000000E+00 -0.80012184129E+03  0.80012184129E+03  0.00000000000E+00 0.  1.
    9000007    1    1    2  501    0  0.14424589436E+02  0.89271172360E+02  0.51920910043E+03  0.66163094015E+03  0.40000000000E+03 0.  1.
   -9000007    1    1    2    0  503 -0.14424589436E+02 -0.89271172360E+02 -0.67122986397E+03  0.78659197890E+03  0.40000000000E+03 0.  1.
<mgrwt>
<rscale>  2 0.41009439E+03</rscale>
<asrwt>0</asrwt>
<pdfrwt beam="1">  1       21 0.99707858E-01 0.41009439E+03</pdfrwt>
<pdfrwt beam="2">  1       21 0.12309567E+00 0.41009439E+03</pdfrwt>
<totfact> 0.34633567E+02</totfact>
</mgrwt>
</event>
<event>
 4    1  0.4656822E-002  0.4154228E+03  0.7818608E-02  0.1038566E+00
         21   -1    0    0  503  502  0.00000000000E+00  0.00000000000E+00  0.12606603309E+04  0.12606603309E+04  0.00000000000E+00 0.  1.
         21   -1    0    0  501  503 -0.00000000000E+00 -0.00000000000E+00 -0.14749552893E+03  0.14749552893E+03  0.00000000000E+00 0.  1.
    9000007    1    1    2  501    0 -0.21360000726E+02  0.11009031878E+03  0.36781497746E+03  0.55485492299E+03  0.40000000000E+03 0.  1.
   -9000007    1    1    2    0  502  0.21360000726E+02 -0.11009031878E+03  0.74534982448E+03  0.85330093681E+03  0.40000000000E+03 0.  1.
<mgrwt>
<rscale>  2 0.41542283E+03</rscale>
<asrwt>0</asrwt>
<pdfrwt beam="1">  1       21 0.19394774E+00 0.41542283E+03</pdfrwt>
<pdfrwt beam="2">  1       21 0.22691621E-01 0.41542283E+03</pdfrwt>
<totfact> 0.23058032E+03</totfact>
</mgrwt>
</event>
<event>
 4    1  0.4656822E-002  0.4391936E+03  0.7818608E-02  0.1030995E+00
         21   -1    0    0  503  502  0.00000000000E+00  0.00000000000E+00  0.90292292717E+03  0.90292292717E+03  0.00000000000E+00 0.  1.
         21   -1    0    0  501  503 -0.00000000000E+00 -0.00000000000E+00 -0.38568065349E+03  0.38568065349E+03  0.00000000000E+00 0.  1.
    9000007    1    1    2  501    0 -0.77731902111E+02 -0.16385589545E+03 -0.17171138034E+03  0.47156738778E+03  0.40000000000E+03 0.  1.
   -9000007    1    1    2    0  502  0.77731902111E+02  0.16385589545E+03  0.68895365402E+03  0.81703619287E+03  0.40000000000E+03 0.  1.
<mgrwt>
<rscale>  2 0.43919358E+03</rscale>
<asrwt>0</asrwt>
<pdfrwt beam="1">  1       21 0.13891122E+00 0.43919358E+03</pdfrwt>
<pdfrwt beam="2">  1       21 0.59335485E-01 0.43919358E+03</pdfrwt>
<totfact> 0.82068640E+02</totfact>
</mgrwt>
</event>
<event>
 4    1  0.4656822E-002  0.4050305E+03  0.7818608E-02  0.1042052E+00
         21   -1    0    0  503  502  0.00000000000E+00  0.00000000000E+00  0.76243708539E+03  0.76243708539E+03  0.00000000000E+00 0. -1.
         21   -1    0    0  501  503 -0.00000000000E+00 -0.00000000000E+00 -0.23599623664E+03  0.23599623664E+03  0.00000000000E+00 0.  1.
    9000007    1    1    2  501    0  0.59423214364E+02 -0.22772436434E+02  0.11490201488E+03  0.42101327211E+03  0.40000000000E+03 0.  1.
   -9000007    1    1    2    0  502 -0.59423214364E+02  0.22772436434E+02  0.41153883387E+03  0.57742004992E+03  0.40000000000E+03 0. -1.
<mgrwt>
<rscale>  2 0.40503050E+03</rscale>
<asrwt>0</asrwt>
<pdfrwt beam="1">  1       21 0.11729801E+00 0.40503050E+03</pdfrwt>
<pdfrwt beam="2">  1       21 0.36307114E-01 0.40503050E+03</pdfrwt>
<totfact> 0.36181084E+03</totfact>
</mgrwt>
</event>
<event>
 4    1  0.4656822E-002  0.4784215E+03  0.7818608E-02  0.1019570E+00
         21   -1    0    0  503  502  0.00000000000E+00  0.00000000000E+00  0.49038868005E+03  0.49038868005E+03  0.00000000000E+00 0.  1.
         21   -1    0    0  501  503 -0.00000000000E+00 -0.00000000000E+00 -0.48371603817E+03  0.48371603817E+03  0.00000000000E+00 0.  1.
    9000007    1    1    2  501    0 -0.24540918295E+03 -0.93066836445E+02 -0.87889535323E+02  0.48642745969E+03  0.40000000000E+03 0.  1.
   -9000007    1    1    2    0  502  0.24540918295E+03  0.93066836445E+02  0.94562177200E+02  0.48767725852E+03  0.40000000000E+03 0.  1.
<mgrwt>
<rscale>  2 0.47842147E+03</rscale>
<asrwt>0</asrwt>
<pdfrwt beam="1">  1       21 0.75444412E-01 0.47842147E+03</pdfrwt>
<pdfrwt beam="2">  1       21 0.74417853E-01 0.47842147E+03</pdfrwt>
<totfact> 0.21739503E+03</totfact>
</mgrwt>
</event>
<event>
 4    1  0.4656822E-002  0.5368324E+03  0.7818608E-02  0.1004588E+00
         21   -1    0    0  501  502  0.00000000000E+00  0.00000000000E+00  0.11959369944E+04  0.11959369944E+04  0.00000000000E+00 0. -1.
         21   -1    0    0  502  503 -0.00000000000E+00 -0.00000000000E+00 -0.30241332959E+03  0.30241332959E+03  0.00000000000E+00 0.  1.
    9000007    1    1    2  501    0  0.31058251124E+03 -0.17812225119E+03  0.78444403710E+03  0.95054798932E+03  0.40000000000E+03 0. -1.
   -9000007    1    1    2    0  503 -0.31058251124E+03  0.17812225119E+03  0.10907962769E+03  0.54780233464E+03  0.40000000000E+03 0.  1.
<mgrwt>
<rscale>  2 0.53683241E+03</rscale>
<asrwt>0</asrwt>
<pdfrwt beam="1">  1       21 0.18399030E+00 0.53683241E+03</pdfrwt>
<pdfrwt beam="2">  1       21 0.46525128E-01 0.53683241E+03</pdfrwt>
<totfact> 0.60547929E+02</totfact>
</mgrwt>
</event>
<event>
 4    1  0.4656822E-002  0.4122098E+03  0.7818608E-02  0.1039632E+00
         21   -1    0    0  501  502  0.00000000000E+00  0.00000000000E+00  0.32414074015E+04  0.32414074015E+04  0.00000000000E+00 0. -1.
         21   -1    0    0  502  503 -0.00000000000E+00 -0.00000000000E+00 -0.86800417258E+02  0.86800417258E+02  0.00000000000E+00 0. -1.
    9000007    1    1    2  501    0  0.82071104367E+02  0.56402951861E+02  0.26246019458E+04  0.26567747991E+04  0.40000000000E+03 0. -1.
   -9000007    1    1    2    0  503 -0.82071104367E+02 -0.56402951861E+02  0.53000503850E+03  0.67143301973E+03  0.40000000000E+03 0. -1.
<mgrwt>
<rscale>  2 0.41220985E+03</rscale>
<asrwt>0</asrwt>
<pdfrwt beam="1">  1       21 0.49867797E+00 0.41220985E+03</pdfrwt>
<pdfrwt beam="2">  1       21 0.13353913E-01 0.41220985E+03</pdfrwt>
<totfact> 0.71815071E+01</totfact>
</mgrwt>
</event>
<event>
 4    1  0.4656822E-002  0.4283474E+03  0.7818608E-02  0.1034383E+00
         21   -1    0    0  501  502  0.00000000000E+00  0.00000000000E+00  0.25652513842E+03  0.25652513842E+03  0.00000000000E+00 0.  1.
         21   -1    0    0  502  503 -0.00000000000E+00 -0.00000000000E+00 -0.76093510872E+03  0.76093510872E+03  0.00000000000E+00 0. -1.
    9000007    1    1    2  501    0 -0.15312077074E+03  0.59569980431E+01 -0.12756233488E+03  0.44693803322E+03  0.40000000000E+03 0.  1.
   -9000007    1    1    2    0  503  0.15312077074E+03 -0.59569980431E+01 -0.37684763542E+03  0.57052221392E+03  0.40000000000E+03 0. -1.
<mgrwt>
<rscale>  2 0.42834735E+03</rscale>
<asrwt>0</asrwt>
<pdfrwt beam="1">  1       21 0.39465406E-01 0.42834735E+03</pdfrwt>
<pdfrwt beam="2">  1       21 0.11706694E+00 0.42834735E+03</pdfrwt>
<totfact> 0.30393877E+03</totfact>
</mgrwt>
</event>
<event>
 4    1  0.4656822E-002  0.4118775E+03  0.7818608E-02  0.1039743E+00
         21   -1    0    0  501  502  0.00000000000E+00  0.00000000000E+00  0.18067493479E+03  0.18067493479E+03  0.00000000000E+00 0.  1.
         21   -1    0    0  502  503 -0.00000000000E+00 -0.00000000000E+00 -0.15439984019E+04  0.15439984019E+04  0.00000000000E+00 0.  1.
    9000007    1    1    2  501    0 -0.85821250402E+01  0.97823472338E+02 -0.12214851978E+04  0.12890574746E+04  0.40000000000E+03 0.  1.
   -9000007    1    1    2    0  503  0.85821250402E+01 -0.97823472338E+02 -0.14183826936E+03  0.43561586204E+03  0.40000000000E+03 0.  1.
<mgrwt>
<rscale>  2 0.41187751E+03</rscale>
<asrwt>0</asrwt>
<pdfrwt beam="1">  1       21 0.27796142E-01 0.41187751E+03</pdfrwt>
<pdfrwt beam="2">  1       21 0.23753823E+00 0.41187751E+03</pdfrwt>
<totfact> 0.81571447E+02</totfact>
</mgrwt>
</event>
<event>
 4    1  0.4656822E-002  0.4328654E+03  0.7818608E-02  0.1032959E+00
         21   -1    0    0  503  502  0.00000000000E+00  0.00000000000E+00  0.13897655967E+03  0.13897655967E+03  0.00000000000E+00 0.  1.
         21   -1    0    0  501  503 -0.00000000000E+00 -0.00000000000E+00 -0.15826496983E+04  0.15826496983E+04  0.00000000000E+00 0.  1.
    9000007    1    1    2  501    0  0.11755615791E+03 -0.11641739098E+03 -0.10531300729E+04  0.11386199584E+04  0.40000000000E+03 0.  1.
   -9000007    1    1    2    0  502 -0.11755615791E+03  0.11641739098E+03 -0.39054306579E+03  0.58300629964E+03  0.40000000000E+03 0.  1.
<mgrwt>
<rscale>  2 0.43286541E+03</rscale>
<asrwt>0</asrwt>
<pdfrwt beam="1">  1       21 0.21381007E-01 0.43286541E+03</pdfrwt>
<pdfrwt beam="2">  1       21 0.24348459E+00 0.43286541E+03</pdfrwt>
<totfact> 0.12330162E+03</totfact>
</mgrwt>
</event>
<event>
 4    1  0.4656822E-002  0.5317847E+03  0.7818608E-02  0.1005800E+00
         21   -1    0    0  501  502  0.00000000000E+00  0.00000000000E+00  0.11282242246E+04  0.11282242246E+04  0.00000000000E+00 0. -1.
         21   -1    0    0  502  503 -0.00000000000E+00 -0.00000000000E+00 -0.25914885753E+03  0.25914885753E+03  0.00000000000E+00 0. -1.
    9000007    1    1    2  501    0  0.14556583621E+03  0.31875621537E+03  0.30895102773E+03  0.61501680875E+03  0.40000000000E+03 0. -1.
   -9000007    1    1    2    0  503 -0.14556583621E+03 -0.31875621537E+03  0.56012433935E+03  0.77235627339E+03  0.40000000000E+03 0. -1.
<mgrwt>
<rscale>  2 0.53178467E+03</rscale>
<asrwt>0</asrwt>
<pdfrwt beam="1">  1       21 0.17357295E+00 0.53178467E+03</pdfrwt>
<pdfrwt beam="2">  1       21 0.39869056E-01 0.53178467E+03</pdfrwt>
<totfact> 0.99378416E+02</totfact>
</mgrwt>
</event>
<event>
 4    1  0.4656822E-002  0.4752273E+03  0.7818608E-02  0.1020455E+00
         21   -1    0    0  503  502  0.00000000000E+00  0.00000000000E+00  0.38682611123E+03  0.38682611123E+03  0.00000000000E+00 0. -1.
         21   -1    0    0  501  503 -0.00000000000E+00 -0.00000000000E+00 -0.82585938864E+03  0.82585938864E+03  0.00000000000E+00 0.  1.
    9000007    1    1    2  501    0  0.25249895672E+03  0.45665080144E+02 -0.54776185888E+03  0.72517865159E+03  0.40000000000E+03 0. -1.
   -9000007    1    1    2    0  502 -0.25249895672E+03 -0.45665080144E+02  0.10872858146E+03  0.48750684827E+03  0.40000000000E+03 0. -1.
<mgrwt>
<rscale>  2 0.47522734E+03</rscale>
<asrwt>0</asrwt>
<pdfrwt beam="1">  1       21 0.59511709E-01 0.47522734E+03</pdfrwt>
<pdfrwt beam="2">  1       21 0.12705529E+00 0.47522734E+03</pdfrwt>
<totfact> 0.10139003E+03</totfact>
</mgrwt>
</event>
<event>
 4    1  0.4656822E-002  0.4407927E+03  0.7818608E-02  0.1030504E+00
         21   -1    0    0  503  502  0.00000000000E+00  0.00000000000E+00  0.46761339461E+03  0.46761339461E+03  0.00000000000E+00 0. -1.
         21   -1    0    0  501  503 -0.00000000000E+00 -0.00000000000E+00 -0.72030758651E+03  0.72030758651E+03  0.00000000000E+00 0.  1.
    9000007    1    1    2  501    0 -0.12125438040E+03 -0.13998406943E+03 -0.51271775393E+03  0.67614914010E+03  0.40000000000E+03 0.  1.
   -9000007    1    1    2    0  502  0.12125438040E+03  0.13998406943E+03  0.26002356202E+03  0.51177184103E+03  0.40000000000E+03 0. -1.
<mgrwt>
<rscale>  2 0.44079265E+03</rscale>
<asrwt>0</asrwt>
<pdfrwt beam="1">  1       21 0.71940522E-01 0.44079265E+03</pdfrwt>
<pdfrwt beam="2">  1       21 0.11081655E+00 0.44079265E+03</pdfrwt>
<totfact> 0.95317484E+02</totfact>
</mgrwt>
</event>
<event>
 4    1  0.4656822E-002  0.5034378E+03  0.7818608E-02  0.1012885E+00
         21   -1    0    0  503  502  0.00000000000E+00  0.00000000000E+00  0.25668738471E+03  0.25668738471E+03  0.00000000000E+00 0.  1.
         21   -1    0    0  501  503 -0.00000000000E+00 -0.00000000000E+00 -0.10028990727E+04  0.10028990727E+04  0.00000000000E+00 0.  1.
    9000007    1    1    2  501    0  0.25852611947E+03 -0.16313763427E+03 -0.29477872176E+03  0.58339020986E+03  0.40000000000E+03 0.  1.
   -9000007    1    1    2    0  502 -0.25852611947E+03  0.16313763427E+03 -0.45143296620E+03  0.67619624750E+03  0.40000000000E+03 0.  1.
<mgrwt>
<rscale>  2 0.50343782E+03</rscale>
<asrwt>0</asrwt>
<pdfrwt beam="1">  1       21 0.39490367E-01 0.50343782E+03</pdfrwt>
<pdfrwt beam="2">  1       21 0.15429217E+00 0.50343782E+03</pdfrwt>
<totfact> 0.14278609E+03</totfact>
</mgrwt>
</event>
<event>
 4    1  0.4656822E-002  0.4249110E+03  0.7818608E-02  0.1035480E+00
         21   -1    0    0  501  502  0.00000000000E+00  0.00000000000E+00  0.17932197225E+04  0.17932197225E+04  0.00000000000E+00 0. -1.
         21   -1    0    0  502  503 -0.00000000000E+00 -0.00000000000E+00 -0.14223244637E+03  0.14223244637E+03  0.00000000000E+00 0. -1.
    9000007    1    1    2  501    0  0.14253481586E+03 -0.15270366909E+02  0.13485254474E+04  0.14138848044E+04  0.40000000000E+03 0. -1.
   -9000007    1    1    2    0  503 -0.14253481586E+03  0.15270366909E+02  0.30246182875E+03  0.52156736448E+03  0.40000000000E+03 0. -1.
<mgrwt>
<rscale>  2 0.42491100E+03</rscale>
<asrwt>0</asrwt>
<pdfrwt beam="1">  1       21 0.27587994E+00 0.42491100E+03</pdfrwt>
<pdfrwt beam="2">  1       21 0.21881916E-01 0.42491100E+03</pdfrwt>
<totfact> 0.75234139E+02</totfact>
</mgrwt>
</event>
<event>
 4    1  0.4656822E-002  0.5085696E+03  0.7818608E-02  0.1011566E+00
         21   -1    0    0  503  502  0.00000000000E+00  0.00000000000E+00  0.12754461430E+04  0.12754461430E+04  0.00000000000E+00 0. -1.
         21   -1    0    0  501  503 -0.00000000000E+00 -0.00000000000E+00 -0.33829001454E+03  0.33829001454E+03  0.00000000000E+00 0. -1.
    9000007    1    1    2  501    0 -0.17839129089E+03 -0.25849478437E+03 -0.42083936812E+02  0.51030781294E+03  0.40000000000E+03 0. -1.
   -9000007    1    1    2    0  502  0.17839129089E+03  0.25849478437E+03  0.97924006527E+03  0.11034283446E+04  0.40000000000E+03 0. -1.
<mgrwt>
<rscale>  2 0.50856957E+03</rscale>
<asrwt>0</asrwt>
<pdfrwt beam="1">  1       21 0.19622248E+00 0.50856957E+03</pdfrwt>
<pdfrwt beam="2">  1       21 0.52044618E-01 0.50856957E+03</pdfrwt>
<totfact> 0.39744555E+02</totfact>
</mgrwt>
</event>
<event>
 4    1  0.4656822E-002  0.4165814E+03  0.7818608E-02  0.1038185E+00
         21   -1    0    0  501  502  0.00000000000E+00  0.00000000000E+00  0.18759550372E+04  0.18759550372E+04  0.00000000000E+00 0.  1.
         21   -1    0    0  502  503 -0.00000000000E+00 -0.00000000000E+00 -0.98301375082E+02  0.98301375082E+02  0.00000000000E+00 0.  1.
    9000007    1    1    2  501    0  0.10373394445E+03  0.52719424603E+02  0.64917808271E+03  0.77134444448E+03  0.40000000000E+03 0.  1.
   -9000007    1    1    2    0  503 -0.10373394445E+03 -0.52719424603E+02  0.11284755794E+04  0.12029119678E+04  0.40000000000E+03 0.  1.
<mgrwt>
<rscale>  2 0.41658141E+03</rscale>
<asrwt>0</asrwt>
<pdfrwt beam="1">  1       21 0.28860844E+00 0.41658141E+03</pdfrwt>
<pdfrwt beam="2">  1       21 0.15123290E-01 0.41658141E+03</pdfrwt>
<totfact> 0.12714234E+03</totfact>
</mgrwt>
</event>
<event>
 4    1  0.4656822E-002  0.4392144E+03  0.7818608E-02  0.1030988E+00
         21   -1    0    0  503  502  0.00000000000E+00  0.00000000000E+00  0.65165145975E+03  0.65165145975E+03  0.00000000000E+00 0. -1.
         21   -1    0    0  501  503 -0.00000000000E+00 -0.00000000000E+00 -0.40544123720E+03  0.40544123720E+03  0.00000000000E+00 0.  1.
    9000007    1    1    2  501    0  0.16050408507E+03  0.84544370479E+02 -0.15146119977E+03  0.46459639144E+03  0.40000000000E+03 0.  1.
   -9000007    1    1    2    0  502 -0.16050408507E+03 -0.84544370479E+02  0.39767142232E+03  0.59249630551E+03  0.40000000000E+03 0. -1.
<mgrwt>
<rscale>  2 0.43921443E+03</rscale>
<asrwt>0</asrwt>
<pdfrwt beam="1">  1       21 0.10025407E+00 0.43921443E+03</pdfrwt>
<pdfrwt beam="2">  1       21 0.62375575E-01 0.43921443E+03</pdfrwt>
<totfact> 0.16783149E+03</totfact>
</mgrwt>
</event>
<event>
 4    1  0.4656822E-002  0.4606385E+03  0.7818608E-02  0.1024596E+00
         21   -1    0    0  501  502  0.00000000000E+00  0.00000000000E+00  0.15701740620E+03  0.15701740620E+03  0.00000000000E+00 0.  1.
         21   -1    0    0  502  503 -0.00000000000E+00 -0.00000000000E+00 -0.13521688679E+04  0.13521688679E+04  0.00000000000E+00 0.  1.
    9000007    1    1    2  501    0  0.19944102258E+03  0.11140509107E+03 -0.61597536545E+03  0.76916413505E+03  0.40000000000E+03 0.  1.
   -9000007    1    1    2    0  503 -0.19944102258E+03 -0.11140509107E+03 -0.57917609623E+03  0.74002213903E+03  0.40000000000E+03 0.  1.
<mgrwt>
<rscale>  2 0.46063849E+03</rscale>
<asrwt>0</asrwt>
<pdfrwt beam="1">  1       21 0.24156523E-01 0.46063849E+03</pdfrwt>
<pdfrwt beam="2">  1       21 0.20802599E+00 0.46063849E+03</pdfrwt>
<totfact> 0.16146964E+03</totfact>
</mgrwt>
</event>
<event>
 4    1  0.4656822E-002  0.6174007E+03  0.7818608E-02  0.9869949E-01
         21   -1    0    0  501  502  0.00000000000E+00  0.00000000000E+00  0.75376890405E+03  0.75376890405E+03  0.00000000000E+00 0. -1.
         21   -1    0    0  502  503 -0.00000000000E+00 -0.00000000000E+00 -0.85638912660E+03  0.85638912660E+03  0.00000000000E+00 0.  1.
    9000007    1    1    2  501    0  0.42437530420E+03  0.20270475327E+03  0.46387331406E+03  0.77224482343E+03  0.40000000000E+03 0. -1.
   -9000007    1    1    2    0  503 -0.42437530420E+03 -0.20270475327E+03 -0.56649353661E+03  0.83791320722E+03  0.40000000000E+03 0.  1.
<mgrwt>
<rscale>  2 0.61740069E+03</rscale>
<asrwt>0</asrwt>
<pdfrwt beam="1">  1       21 0.11596445E+00 0.61740069E+03</pdfrwt>
<pdfrwt beam="2">  1       21 0.13175217E+00 0.61740069E+03</pdfrwt>
<totfact> 0.18252867E+02</totfact>
</mgrwt>
</event>
<event>
 4    1  0.4656822E-002  0.6670474E+03  0.7818608E-02  0.9775307E-01
         21   -1    0    0  503  502  0.00000000000E+00  0.00000000000E+00  0.75203175348E+03  0.75203175348E+03  0.00000000000E+00 0. -1.
         21   -1    0    0  501  503 -0.00000000000E+00 -0.00000000000E+00 -0.14159168898E+04  0.14159168898E+04  0.00000000000E+00 0. -1.
    9000007    1    1    2  501    0  0.37108679937E+03  0.38372752561E+03 -0.11589884677E+04  0.13372383837E+04  0.40000000000E+03 0. -1.
   -9000007    1    1    2    0  502 -0.37108679937E+03 -0.38372752561E+03  0.49510333139E+03  0.83071025956E+03  0.40000000000E+03 0. -1.
<mgrwt>
<rscale>  2 0.66704739E+03</rscale>
<asrwt>0</asrwt>
<pdfrwt beam="1">  1       21 0.11569719E+00 0.66704739E+03</pdfrwt>
<pdfrwt beam="2">  1       21 0.21783337E+00 0.66704739E+03</pdfrwt>
<totfact> 0.41793890E+01</totfact>
</mgrwt>
</event>
<event>
 4    1  0.4656822E-002  0.4061057E+03  0.7818608E-02  0.1041686E+00
         21   -1    0    0  501  502  0.00000000000E+00  0.00000000000E+00  0.63810666631E+03  0.63810666631E+03  0.00000000000E+00 0. -1.
         21   -1    0    0  502  503 -0.00000000000E+00 -0.00000000000E+00 -0.56573930445E+03  0.56573930445E+03  0.00000000000E+00 0. -1.
    9000007    1    1    2  501    0 -0.60079042083E+02  0.36226762257E+02  0.47979531600E+03  0.62859002128E+03  0.40000000000E+03 0. -1.
   -9000007    1    1    2    0  503  0.60079042083E+02 -0.36226762257E+02 -0.40742795414E+03  0.57525594948E+03  0.40000000000E+03 0. -1.
<mgrwt>
<rscale>  2 0.40610574E+03</rscale>
<asrwt>0</asrwt>
<pdfrwt beam="1">  1       21 0.98170257E-01 0.40610574E+03</pdfrwt>
<pdfrwt beam="2">  1       21 0.87036815E-01 0.40610574E+03</pdfrwt>
<totfact> 0.84023961E+02</totfact>
</mgrwt>
</event>
<event>
 4    1  0.4656822E-002  0.4016722E+03  0.7818608E-02  0.1043202E+00
         21   -1    0    0  501  502  0.00000000000E+00  0.00000000000E+00  0.11664582046E+03  0.11664582046E+03  0.00000000000E+00 0.  1.
         21   -1    0    0  502  503 -0.00000000000E+00 -0.00000000000E+00 -0.16926582887E+04  0.16926582887E+04  0.00000000000E+00 0.  1.
    9000007    1    1    2  501    0  0.36596730911E+02 -0.10981363477E+01 -0.40117468950E+03  0.56769856272E+03  0.40000000000E+03 0.  1.
   -9000007    1    1    2    0  503 -0.36596730911E+02  0.10981363477E+01 -0.11748377787E+04  0.12416055464E+04  0.40000000000E+03 0.  1.
<mgrwt>
<rscale>  2 0.40167216E+03</rscale>
<asrwt>0</asrwt>
<pdfrwt beam="1">  1       21 0.17945513E-01 0.40167216E+03</pdfrwt>
<pdfrwt beam="2">  1       21 0.26040893E+00 0.40167216E+03</pdfrwt>
<totfact> 0.13770841E+03</totfact>
</mgrwt>
</event>
<event>
 4    1  0.4656822E-002  0.4615609E+03  0.7818608E-02  0.1024329E+00
         21   -1    0    0  501  502  0.00000000000E+00  0.00000000000E+00  0.77510322189E+03  0.77510322189E+03  0.00000000000E+00 0.  1.
         21   -1    0    0  502  503 -0.00000000000E+00 -0.00000000000E+00 -0.70167501239E+03  0.70167501239E+03  0.00000000000E+00 0. -1.
    9000007    1    1    2  501    0 -0.11927491428E+03 -0.19700762206E+03  0.61260644421E+03  0.76702357448E+03  0.40000000000E+03 0.  1.
   -9000007    1    1    2    0  503  0.11927491428E+03  0.19700762206E+03 -0.53917823471E+03  0.70975465980E+03  0.40000000000E+03 0. -1.
<mgrwt>
<rscale>  2 0.46156095E+03</rscale>
<asrwt>0</asrwt>
<pdfrwt beam="1">  1       21 0.11924665E+00 0.46156095E+03</pdfrwt>
<pdfrwt beam="2">  1       21 0.10795000E+00 0.46156095E+03</pdfrwt>
<totfact> 0.30133006E+02</totfact>
</mgrwt>
</event>
<event>
 4    1  0.4656822E-002  0.4792233E+03  0.7818608E-02  0.1019349E+00
         21   -1    0    0  503  502  0.00000000000E+00  0.00000000000E+00  0.58380954169E+03  0.58380954169E+03  0.00000000000E+00 0. -1.
         21   -1    0    0  501  503 -0.00000000000E+00 -0.00000000000E+00 -0.59283655908E+03  0.59283655908E+03  0.00000000000E+00 0. -1.
    9000007    1    1    2  501    0  0.21026824641E+03 -0.15950633369E+03 -0.34576926047E+03  0.59094110318E+03  0.40000000000E+03 0. -1.
   -9000007    1    1    2    0  502 -0.21026824641E+03  0.15950633369E+03  0.33674224308E+03  0.58570499760E+03  0.40000000000E+03 0. -1.
<mgrwt>
<rscale>  2 0.47922334E+03</rscale>
<asrwt>0</asrwt>
<pdfrwt beam="1">  1       21 0.89816853E-01 0.47922334E+03</pdfrwt>
<pdfrwt beam="2">  1       21 0.91205624E-01 0.47922334E+03</pdfrwt>
<totfact> 0.90175689E+02</totfact>
</mgrwt>
</event>
<event>
 4    1  0.4656822E-002  0.4817251E+03  0.7818608E-02  0.1018662E+00
         21   -1    0    0  501  502  0.00000000000E+00  0.00000000000E+00  0.19022062498E+03  0.19022062498E+03  0.00000000000E+00 0. -1.
         21   -1    0    0  502  503 -0.00000000000E+00 -0.00000000000E+00 -0.13054954126E+04  0.13054954126E+04  0.00000000000E+00 0. -1.
    9000007    1    1    2  501    0  0.26781266542E+03 -0.18314143604E+02 -0.74907978641E+03  0.89060628677E+03  0.40000000000E+03 0. -1.
   -9000007    1    1    2    0  503 -0.26781266542E+03  0.18314143604E+02 -0.36619500120E+03  0.60510975081E+03  0.40000000000E+03 0. -1.
<mgrwt>
<rscale>  2 0.48172506E+03</rscale>
<asrwt>0</asrwt>
<pdfrwt beam="1">  1       21 0.29264711E-01 0.48172506E+03</pdfrwt>
<pdfrwt beam="2">  1       21 0.20084545E+00 0.48172506E+03</pdfrwt>
<totfact> 0.12252572E+03</totfact>
</mgrwt>
</event>
<event>
 4    1  0.4656822E-002  0.5102987E+03  0.7818608E-02  0.1011125E+00
         21   -1    0    0  501  502  0.00000000000E+00  0.00000000000E+00  0.45583494889E+03  0.45583494889E+03  0.00000000000E+00 0.  1.
         21   -1    0    0  502  503 -0.00000000000E+00 -0.00000000000E+00 -0.57769931123E+03  0.57769931123E+03  0.00000000000E+00 0.  1.
    9000007    1    1    2  501    0  0.20586466773E+02 -0.31619766138E+03 -0.64152766551E+01  0.51033902404E+03  0.40000000000E+03 0.  1.
   -9000007    1    1    2    0  503 -0.20586466773E+02  0.31619766138E+03 -0.11544908569E+03  0.52319523609E+03  0.40000000000E+03 0.  1.
<mgrwt>
<rscale>  2 0.51029870E+03</rscale>
<asrwt>0</asrwt>
<pdfrwt beam="1">  1       21 0.70128454E-01 0.51029870E+03</pdfrwt>
<pdfrwt beam="2">  1       21 0.88876816E-01 0.51029870E+03</pdfrwt>
<totfact> 0.16805378E+03</totfact>
</mgrwt>
</event>
<event>
 4    1  0.4656822E-002  0.4382243E+03  0.7818608E-02  0.1031293E+00
         21   -1    0    0  501  502  0.00000000000E+00  0.00000000000E+00  0.60270773954E+03  0.60270773954E+03  0.00000000000E+00 0.  1.
         21   -1    0    0  502  503 -0.00000000000E+00 -0.00000000000E+00 -0.37489274881E+03  0.37489274881E+03  0.00000000000E+00 0.  1.
    9000007    1    1    2  501    0  0.40856176549E+01 -0.17895213691E+03  0.30326812800E+03  0.53292787226E+03  0.40000000000E+03 0.  1.
   -9000007    1    1    2    0  503 -0.40856176549E+01  0.17895213691E+03 -0.75453137271E+02  0.44467261609E+03  0.40000000000E+03 0.  1.
<mgrwt>
<rscale>  2 0.43822433E+03</rscale>
<asrwt>0</asrwt>
<pdfrwt beam="1">  1       21 0.92724268E-01 0.43822433E+03</pdfrwt>
<pdfrwt beam="2">  1       21 0.57675808E-01 0.43822433E+03</pdfrwt>
<totfact> 0.24047722E+03</totfact>
</mgrwt>
</event>
<event>
 4    1  0.4656822E-002  0.4087763E+03  0.7818608E-02  0.1040782E+00
         21   -1    0    0  503  502  0.00000000000E+00  0.00000000000E+00  0.11420005650E+04  0.11420005650E+04  0.00000000000E+00 0. -1.
         21   -1    0    0  501  503 -0.00000000000E+00 -0.00000000000E+00 -0.14837415988E+03  0.14837415988E+03  0.00000000000E+00 0. -1.
    9000007    1    1    2  501    0  0.89283491660E+01 -0.83775643048E+02  0.42090777760E+03  0.58673795772E+03  0.40000000000E+03 0. -1.
   -9000007    1    1    2    0  502 -0.89283491660E+01  0.83775643048E+02  0.57271862748E+03  0.70363676713E+03  0.40000000000E+03 0. -1.
<mgrwt>
<rscale>  2 0.40877631E+03</rscale>
<asrwt>0</asrwt>
<pdfrwt beam="1">  1       21 0.17569239E+00 0.40877631E+03</pdfrwt>
<pdfrwt beam="2">  1       21 0.22826795E-01 0.40877631E+03</pdfrwt>
<totfact> 0.30588685E+03</totfact>
</mgrwt>
</event>
<event>
 4    1  0.4656822E-002  0.4735932E+03  0.7818608E-02  0.1020911E+00
         21   -1    0    0  503  502  0.00000000000E+00  0.00000000000E+00  0.52172241918E+03  0.52172241918E+03  0.00000000000E+00 0.  1.
         21   -1    0    0  501  503 -0.00000000000E+00 -0.00000000000E+00 -0.55148771180E+03  0.55148771180E+03  0.00000000000E+00 0.  1.
    9000007    1    1    2  501    0 -0.24646631102E+03 -0.59538567590E+02 -0.26683869641E+03  0.54359302185E+03  0.40000000000E+03 0.  1.
   -9000007    1    1    2    0  502  0.24646631102E+03  0.59538567590E+02  0.23707340380E+03  0.52961710913E+03  0.40000000000E+03 0.  1.
<mgrwt>
<rscale>  2 0.47359316E+03</rscale>
<asrwt>0</asrwt>
<pdfrwt beam="1">  1       21 0.80264987E-01 0.47359316E+03</pdfrwt>
<pdfrwt beam="2">  1       21 0.84844263E-01 0.47359316E+03</pdfrwt>
<totfact> 0.13949009E+03</totfact>
</mgrwt>
</event>
<event>
 4    1  0.4656822E-002  0.6668814E+03  0.7818608E-02  0.9775608E-01
         21   -1    0    0  501  502  0.00000000000E+00  0.00000000000E+00  0.38311985380E+03  0.38311985380E+03  0.00000000000E+00 0. -1.
         21   -1    0    0  502  503 -0.00000000000E+00 -0.00000000000E+00 -0.12000759637E+04  0.12000759637E+04  0.00000000000E+00 0.  1.
    9000007    1    1    2  501    0 -0.41745143591E+03  0.33236282947E+03 -0.26529610470E+03  0.71771357443E+03  0.40000000000E+03 0. -1.
   -9000007    1    1    2    0  503  0.41745143591E+03 -0.33236282947E+03 -0.55166000523E+03  0.86548224310E+03  0.40000000000E+03 0.  1.
<mgrwt>
<rscale>  2 0.66688136E+03</rscale>
<asrwt>0</asrwt>
<pdfrwt beam="1">  1       21 0.58941517E-01 0.66688136E+03</pdfrwt>
<pdfrwt beam="2">  1       21 0.18462707E+00 0.66688136E+03</pdfrwt>
<totfact> 0.34359030E+02</totfact>
</mgrwt>
</event>
<event>
 4    1  0.4656822E-002  0.4324634E+03  0.7818608E-02  0.1033085E+00
         21   -1    0    0  503  502  0.00000000000E+00  0.00000000000E+00  0.37709542684E+03  0.37709542684E+03  0.00000000000E+00 0.  1.
         21   -1    0    0  501  503 -0.00000000000E+00 -0.00000000000E+00 -0.81682950460E+03  0.81682950460E+03  0.00000000000E+00 0.  1.
    9000007    1    1    2  501    0 -0.10057938063E+02 -0.16408350131E+03 -0.59401637893E+03  0.73476527950E+03  0.40000000000E+03 0.  1.
   -9000007    1    1    2    0  502  0.10057938063E+02  0.16408350131E+03  0.15428230117E+03  0.45915965195E+03  0.40000000000E+03 0.  1.
<mgrwt>
<rscale>  2 0.43246336E+03</rscale>
<asrwt>0</asrwt>
<pdfrwt beam="1">  1       21 0.58014682E-01 0.43246336E+03</pdfrwt>
<pdfrwt beam="2">  1       21 0.12566608E+00 0.43246336E+03</pdfrwt>
<totfact> 0.11224311E+03</totfact>
</mgrwt>
</event>
<event>
 4    1  0.4656822E-002  0.4237477E+03  0.7818608E-02  0.1035853E+00
         21   -1    0    0  503  502  0.00000000000E+00  0.00000000000E+00  0.16642901595E+04  0.16642901595E+04  0.00000000000E+00 0.  1.
         21   -1    0    0  501  503 -0.00000000000E+00 -0.00000000000E+00 -0.14929632641E+03  0.14929632641E+03  0.00000000000E+00 0.  1.
    9000007    1    1    2  501    0  0.75942975117E+02  0.11745111119E+03  0.27995523206E+03  0.50787501508E+03  0.40000000000E+03 0.  1.
   -9000007    1    1    2    0  502 -0.75942975117E+02 -0.11745111119E+03  0.12350386010E+04  0.13057114708E+04  0.40000000000E+03 0.  1.
<mgrwt>
<rscale>  2 0.42374768E+03</rscale>
<asrwt>0</asrwt>
<pdfrwt beam="1">  1       21 0.25604463E+00 0.42374768E+03</pdfrwt>
<pdfrwt beam="2">  1       21 0.22968667E-01 0.42374768E+03</pdfrwt>
<totfact> 0.90421505E+02</totfact>
</mgrwt>
</event>
<event>
 4    1  0.4656822E-002  0.6981146E+03  0.7818608E-02  0.9720462E-01
         21   -1    0    0  503  502  0.00000000000E+00  0.00000000000E+00  0.34474901068E+03  0.34474901068E+03  0.00000000000E+00 0. -1.
         21   -1    0    0  501  503 -0.00000000000E+00 -0.00000000000E+00 -0.15004556875E+04  0.15004556875E+04  0.00000000000E+00 0.  1.
    9000007    1    1    2  501    0 -0.50985107924E+03 -0.25964572512E+03 -0.79972788713E+03  0.10615689893E+04  0.40000000000E+03 0.  1.
   -9000007    1    1    2    0  502  0.50985107924E+03  0.25964572512E+03 -0.35597878974E+03  0.78363570894E+03  0.40000000000E+03 0. -1.
<mgrwt>
<rscale>  2 0.69811462E+03</rscale>
<asrwt>0</asrwt>
<pdfrwt beam="1">  1       21 0.53038309E-01 0.69811462E+03</pdfrwt>
<pdfrwt beam="2">  1       21 0.23083934E+00 0.69811462E+03</pdfrwt>
<totfact> 0.21020120E+02</totfact>
</mgrwt>
</event>
<event>
 4    1  0.4656822E-002  0.4823994E+03  0.7818608E-02  0.1018478E+00
         21   -1    0    0  503  502  0.00000000000E+00  0.00000000000E+00  0.14975449636E+03  0.14975449636E+03  0.00000000000E+00 0.  1.
         21   -1    0    0  501  503 -0.00000000000E+00 -0.00000000000E+00 -0.16554907689E+04  0.16554907689E+04  0.00000000000E+00 0. -1.
    9000007    1    1    2  501    0 -0.23919060754E+03 -0.12448698880E+03 -0.97642570137E+03  0.10890896691E+04  0.40000000000E+03 0. -1.
   -9000007    1    1    2    0  502  0.23919060754E+03  0.12448698880E+03 -0.52931057115E+03  0.71615559612E+03  0.40000000000E+03 0.  1.
<mgrwt>
<rscale>  2 0.48239938E+03</rscale>
<asrwt>0</asrwt>
<pdfrwt beam="1">  1       21 0.23039152E-01 0.48239938E+03</pdfrwt>
<pdfrwt beam="2">  1       21 0.25469090E+00 0.48239938E+03</pdfrwt>
<totfact> 0.88943235E+02</totfact>
</mgrwt>
</event>
<event>
 4    1  0.4656822E-002  0.4025201E+03  0.7818608E-02  0.1042911E+00
         21   -1    0    0  503  502  0.00000000000E+00  0.00000000000E+00  0.94764167961E+02  0.94764167961E+02  0.00000000000E+00 0. -1.
         21   -1    0    0  501  503 -0.00000000000E+00 -0.00000000000E+00 -0.19696478083E+04  0.19696478083E+04  0.00000000000E+00 0. -1.
    9000007    1    1    2  501    0  0.42215895030E+02  0.15499556656E+02 -0.13123965566E+04  0.13727370978E+04  0.40000000000E+03 0. -1.
   -9000007    1    1    2    0  502 -0.42215895030E+02 -0.15499556656E+02 -0.56248708376E+03  0.69167487843E+03  0.40000000000E+03 0. -1.
<mgrwt>
<rscale>  2 0.40252008E+03</rscale>
<asrwt>0</asrwt>
<pdfrwt beam="1">  1       21 0.14579103E-01 0.40252008E+03</pdfrwt>
<pdfrwt beam="2">  1       21 0.30302274E+00 0.40252008E+03</pdfrwt>
<totfact> 0.11246503E+03</totfact>
</mgrwt>
</event>
<event>
 4    1  0.4656822E-002  0.4858536E+03  0.7818608E-02  0.1017539E+00
         21   -1    0    0  503  502  0.00000000000E+00  0.00000000000E+00  0.24286082100E+04  0.24286082100E+04  0.00000000000E+00 0. -1.
         21   -1    0    0  501  503 -0.00000000000E+00 -0.00000000000E+00 -0.11643122741E+03  0.11643122741E+03  0.00000000000E+00 0. -1.
    9000007    1    1    2  501    0  0.18055644786E+03 -0.20845398576E+03  0.63887965714E+03  0.80263373425E+03  0.40000000000E+03 0. -1.
   -9000007    1    1    2    0  502 -0.18055644786E+03  0.20845398576E+03  0.16732973254E+04  0.17424057031E+04  0.40000000000E+03 0. -1.
<mgrwt>
<rscale>  2 0.48585357E+03</rscale>
<asrwt>0</asrwt>
<pdfrwt beam="1">  1       21 0.37363199E+00 0.48585357E+03</pdfrwt>
<pdfrwt beam="2">  1       21 0.17912498E-01 0.48585357E+03</pdfrwt>
<totfact> 0.27015277E+02</totfact>
</mgrwt>
</event>
<event>
 4    1  0.4656822E-002  0.4035549E+03  0.7818608E-02  0.1042556E+00
         21   -1    0    0  503  502  0.00000000000E+00  0.00000000000E+00  0.22727995759E+03  0.22727995759E+03  0.00000000000E+00 0.  1.
         21   -1    0    0  501  503 -0.00000000000E+00 -0.00000000000E+00 -0.86368432681E+03  0.86368432681E+03  0.00000000000E+00 0.  1.
    9000007    1    1    2  501    0  0.31915013997E+02 -0.42871575800E+02 -0.54334907495E+03  0.67681958998E+03  0.40000000000E+03 0.  1.
   -9000007    1    1    2    0  502 -0.31915013997E+02  0.42871575800E+02 -0.93055294270E+02  0.41414469443E+03  0.40000000000E+03 0.  1.
<mgrwt>
<rscale>  2 0.40355488E+03</rscale>
<asrwt>0</asrwt>
<pdfrwt beam="1">  1       21 0.34966147E-01 0.40355488E+03</pdfrwt>
<pdfrwt beam="2">  1       21 0.13287451E+00 0.40355488E+03</pdfrwt>
<totfact> 0.28388725E+03</totfact>
</mgrwt>
</event>
<event>
 4    1  0.4656822E-002  0.4216991E+03  0.7818608E-02  0.1036515E+00
         21   -1    0    0  501  502  0.00000000000E+00  0.00000000000E+00  0.36621520809E+03  0.36621520809E+03  0.00000000000E+00 0.  1.
         21   -1    0    0  502  503 -0.00000000000E+00 -0.00000000000E+00 -0.48997689156E+03  0.48997689156E+03  0.00000000000E+00 0.  1.
    9000007    1    1    2  501    0  0.10904105414E+03  0.77072818454E+02 -0.21370244969E+02  0.42224028491E+03  0.40000000000E+03 0.  1.
   -9000007    1    1    2    0  503 -0.10904105414E+03 -0.77072818454E+02 -0.10239143850E+03  0.43395181473E+03  0.40000000000E+03 0.  1.
<mgrwt>
<rscale>  2 0.42169915E+03</rscale>
<asrwt>0</asrwt>
<pdfrwt beam="1">  1       21 0.56340802E-01 0.42169915E+03</pdfrwt>
<pdfrwt beam="2">  1       21 0.75381060E-01 0.42169915E+03</pdfrwt>
<totfact> 0.41236873E+03</totfact>
</mgrwt>
</event>
<event>
 4    1  0.4656822E-002  0.4421052E+03  0.7818608E-02  0.1030103E+00
         21   -1    0    0  501  502  0.00000000000E+00  0.00000000000E+00  0.46854264300E+03  0.46854264300E+03  0.00000000000E+00 0.  1.
         21   -1    0    0  502  503 -0.00000000000E+00 -0.00000000000E+00 -0.62817148011E+03  0.62817148011E+03  0.00000000000E+00 0.  1.
    9000007    1    1    2  501    0  0.12440772832E+03 -0.14134962050E+03  0.23800316843E+03  0.50209810422E+03  0.40000000000E+03 0.  1.
   -9000007    1    1    2    0  503 -0.12440772832E+03  0.14134962050E+03 -0.39763200555E+03  0.59461601889E+03  0.40000000000E+03 0.  1.
<mgrwt>
<rscale>  2 0.44210519E+03</rscale>
<asrwt>0</asrwt>
<pdfrwt beam="1">  1       21 0.72083484E-01 0.44210519E+03</pdfrwt>
<pdfrwt beam="2">  1       21 0.96641765E-01 0.44210519E+03</pdfrwt>
<totfact> 0.13260205E+03</totfact>
</mgrwt>
</event>
<event>
 4    1  0.4656822E-002  0.5441840E+03  0.7818608E-02  0.1002849E+00
         21   -1    0    0  503  502  0.00000000000E+00  0.00000000000E+00  0.45999382086E+03  0.45999382086E+03  0.00000000000E+00 0.  1.
         21   -1    0    0  501  503 -0.00000000000E+00 -0.00000000000E+00 -0.79490443321E+03  0.79490443321E+03  0.00000000000E+00 0. -1.
    9000007    1    1    2  501    0  0.35776759819E+03  0.90214261280E+02 -0.44103501804E+03  0.70046281442E+03  0.40000000000E+03 0. -1.
   -9000007    1    1    2    0  502 -0.35776759819E+03 -0.90214261280E+02  0.10612440568E+03  0.55443543965E+03  0.40000000000E+03 0.  1.
<mgrwt>
<rscale>  2 0.54418404E+03</rscale>
<asrwt>0</asrwt>
<pdfrwt beam="1">  1       21 0.70768280E-01 0.54418404E+03</pdfrwt>
<pdfrwt beam="2">  1       21 0.12229299E+00 0.54418404E+03</pdfrwt>
<totfact> 0.74133191E+02</totfact>
</mgrwt>
</event>
<event>
 4    1  0.4656822E-002  0.4849237E+03  0.7818608E-02  0.1017791E+00
         21   -1    0    0  501  502  0.00000000000E+00  0.00000000000E+00  0.11107914560E+04  0.11107914560E+04  0.00000000000E+00 0. -1.
         21   -1    0    0  502  503 -0.00000000000E+00 -0.00000000000E+00 -0.21231172432E+03  0.21231172432E+03  0.00000000000E+00 0. -1.
    9000007    1    1    2  501    0  0.24319722444E+03 -0.12651506669E+03  0.41363562337E+03  0.63737381574E+03  0.40000000000E+03 0.  1.
   -9000007    1    1    2    0  503 -0.24319722444E+03  0.12651506669E+03  0.48484410832E+03  0.68572936458E+03  0.40000000000E+03 0.  1.
<mgrwt>
<rscale>  2 0.48492366E+03</rscale>
<asrwt>0</asrwt>
<pdfrwt beam="1">  1       21 0.17089099E+00 0.48492366E+03</pdfrwt>
<pdfrwt beam="2">  1       21 0.32663343E-01 0.48492366E+03</pdfrwt>
<totfact> 0.15875496E+03</totfact>
</mgrwt>
</event>
<event>
 4    1  0.4656822E-002  0.5779649E+03  0.7818608E-02  0.9952207E-01
         21   -1    0    0  501  502  0.00000000000E+00  0.00000000000E+00  0.93842912011E+03  0.93842912011E+03  0.00000000000E+00 0. -1.
         21   -1    0    0  502  503 -0.00000000000E+00 -0.00000000000E+00 -0.64362977121E+03  0.64362977121E+03  0.00000000000E+00 0. -1.
    9000007    1    1    2  501    0 -0.31014560087E+02 -0.41603066681E+03  0.67623632990E+03  0.88957236499E+03  0.40000000000E+03 0. -1.
   -9000007    1    1    2    0  503  0.31014560087E+02  0.41603066681E+03 -0.38143698101E+03  0.69248652633E+03  0.40000000000E+03 0. -1.
<mgrwt>
<rscale>  2 0.57796489E+03</rscale>
<asrwt>0</asrwt>
<pdfrwt beam="1">  1       21 0.14437371E+00 0.57796489E+03</pdfrwt>
<pdfrwt beam="2">  1       21 0.99019965E-01 0.57796489E+03</pdfrwt>
<totfact> 0.21497681E+02</totfact>
</mgrwt>
</event>
<event>
 4    1  0.4656822E-002  0.4009935E+03  0.7818608E-02  0.1043436E+00
         21   -1    0    0  501  502  0.00000000000E+00  0.00000000000E+00  0.19360274231E+04  0.19360274231E+04  0.00000000000E+00 0. -1.
         21   -1    0    0  502  503 -0.00000000000E+00 -0.00000000000E+00 -0.83260899140E+02  0.83260899140E+02  0.00000000000E+00 0. -1.
    9000007    1    1    2  501    0  0.23887538831E+02  0.15005692256E+02  0.87611381954E+03  0.96352021779E+03  0.40000000000E+03 0.  1.
   -9000007    1    1    2    0  503 -0.23887538831E+02 -0.15005692256E+02  0.97665270443E+03  0.10557681045E+04  0.40000000000E+03 0.  1.
<mgrwt>
<rscale>  2 0.40099350E+03</rscale>
<asrwt>0</asrwt>
<pdfrwt beam="1">  1       21 0.29785034E+00 0.40099350E+03</pdfrwt>
<pdfrwt beam="2">  1       21 0.12809371E-01 0.40099350E+03</pdfrwt>
<totfact> 0.15332364E+03</totfact>
</mgrwt>
</event>
<event>
 4    1  0.4656822E-002  0.4674716E+03  0.7818608E-02  0.1022636E+00
         21   -1    0    0  501  502  0.00000000000E+00  0.00000000000E+00  0.15744164614E+04  0.15744164614E+04  0.00000000000E+00 0.  1.
         21   -1    0    0  502  503 -0.00000000000E+00 -0.00000000000E+00 -0.15673528736E+03  0.15673528736E+03  0.00000000000E+00 0. -1.
    9000007    1    1    2  501    0  0.11032185113E+03  0.21531095501E+03  0.10016401573E+04  0.11053563782E+04  0.40000000000E+03 0.  1.
   -9000007    1    1    2    0  503 -0.11032185113E+03 -0.21531095501E+03  0.41604101678E+03  0.62579537057E+03  0.40000000000E+03 0. -1.
<mgrwt>
<rscale>  2 0.46747162E+03</rscale>
<asrwt>0</asrwt>
<pdfrwt beam="1">  1       21 0.24221791E+00 0.46747162E+03</pdfrwt>
<pdfrwt beam="2">  1       21 0.24113122E-01 0.46747162E+03</pdfrwt>
<totfact> 0.97910125E+02</totfact>
</mgrwt>
</event>
<event>
 4    1  0.4656822E-002  0.5823786E+03  0.7818608E-02  0.9942655E-01
         21   -1    0    0  501  502  0.00000000000E+00  0.00000000000E+00  0.69426229546E+03  0.69426229546E+03  0.00000000000E+00 0.  1.
         21   -1    0    0  502  503 -0.00000000000E+00 -0.00000000000E+00 -0.10276867663E+04  0.10276867663E+04  0.00000000000E+00 0.  1.
    9000007    1    1    2  501    0 -0.39012999539E+03 -0.16420525594E+03  0.45690670501E+03  0.74022193730E+03  0.40000000000E+03 0.  1.
   -9000007    1    1    2    0  503  0.39012999539E+03  0.16420525594E+03 -0.79033117584E+03  0.98172712445E+03  0.40000000000E+03 0.  1.
<mgrwt>
<rscale>  2 0.58237855E+03</rscale>
<asrwt>0</asrwt>
<pdfrwt beam="1">  1       21 0.10680958E+00 0.58237855E+03</pdfrwt>
<pdfrwt beam="2">  1       21 0.15810566E+00 0.58237855E+03</pdfrwt>
<totfact> 0.13870670E+02</totfact>
</mgrwt>
</event>
<event>
 4    1  0.4656822E-002  0.4189193E+03  0.7818608E-02  0.1037419E+00
         21   -1    0    0  503  502  0.00000000000E+00  0.00000000000E+00  0.46105262236E+03  0.46105262236E+03  0.00000000000E+00 0. -1.
         21   -1    0    0  501  503 -0.00000000000E+00 -0.00000000000E+00 -0.57928327600E+03  0.57928327600E+03  0.00000000000E+00 0. -1.
    9000007    1    1    2  501    0  0.12409833794E+03 -0.96434459353E+01 -0.36372171252E+03  0.55478543392E+03  0.40000000000E+03 0. -1.
   -9000007    1    1    2    0  502 -0.12409833794E+03  0.96434459353E+01  0.24549105888E+03  0.48555046444E+03  0.40000000000E+03 0. -1.
<mgrwt>
<rscale>  2 0.41891932E+03</rscale>
<asrwt>0</asrwt>
<pdfrwt beam="1">  1       21 0.70931173E-01 0.41891932E+03</pdfrwt>
<pdfrwt beam="2">  1       21 0.89120504E-01 0.41891932E+03</pdfrwt>
<totfact> 0.16837378E+03</totfact>
</mgrwt>
</event>
<event>
 4    1  0.4656822E-002  0.5485883E+03  0.7818608E-02  0.1001821E+00
         21   -1    0    0  501  502  0.00000000000E+00  0.00000000000E+00  0.31955123770E+03  0.31955123770E+03  0.00000000000E+00 0.  1.
         21   -1    0    0  502  503 -0.00000000000E+00 -0.00000000000E+00 -0.18511927603E+04  0.18511927603E+04  0.00000000000E+00 0. -1.
    9000007    1    1    2  501    0 -0.17111901596E+03 -0.33416677093E+03 -0.50887673137E+01  0.54861192474E+03  0.40000000000E+03 0.  1.
   -9000007    1    1    2    0  503  0.17111901596E+03  0.33416677093E+03 -0.15265527553E+04  0.16221320733E+04  0.40000000000E+03 0. -1.
<mgrwt>
<rscale>  2 0.54858832E+03</rscale>
<asrwt>0</asrwt>
<pdfrwt beam="1">  1       21 0.49161729E-01 0.54858832E+03</pdfrwt>
<pdfrwt beam="2">  1       21 0.28479889E+00 0.54858832E+03</pdfrwt>
<totfact> 0.12176099E+02</totfact>
</mgrwt>
</event>
<event>
 4    1  0.4656822E-002  0.4205369E+03  0.7818608E-02  0.1036892E+00
         21   -1    0    0  503  502  0.00000000000E+00  0.00000000000E+00  0.29987378003E+03  0.29987378003E+03  0.00000000000E+00 0.  1.
         21   -1    0    0  501  503 -0.00000000000E+00 -0.00000000000E+00 -0.72956994658E+03  0.72956994658E+03  0.00000000000E+00 0.  1.
    9000007    1    1    2  501    0 -0.12969868106E+03 -0.54368818344E+01  0.10482349794E+02  0.42066754951E+03  0.40000000000E+03 0.  1.
   -9000007    1    1    2    0  502  0.12969868106E+03  0.54368818344E+01 -0.44017851634E+03  0.60877617710E+03  0.40000000000E+03 0.  1.
<mgrwt>
<rscale>  2 0.42053693E+03</rscale>
<asrwt>0</asrwt>
<pdfrwt beam="1">  1       21 0.46134428E-01 0.42053693E+03</pdfrwt>
<pdfrwt beam="2">  1       21 0.11224153E+00 0.42053693E+03</pdfrwt>
<totfact> 0.24484879E+03</totfact>
</mgrwt>
</event>
<event>
 4    1  0.4656822E-002  0.4942473E+03  0.7818608E-02  0.1015291E+00
         21   -1    0    0  503  502  0.00000000000E+00  0.00000000000E+00  0.49150053248E+03  0.49150053248E+03  0.00000000000E+00 0.  1.
         21   -1    0    0  501  503 -0.00000000000E+00 -0.00000000000E+00 -0.14857407651E+04  0.14857407651E+04  0.00000000000E+00 0.  1.
    9000007    1    1    2  501    0 -0.28841081598E+03  0.33159398231E+02 -0.13036070415E+04  0.13941562549E+04  0.40000000000E+03 0.  1.
   -9000007    1    1    2    0  502  0.28841081598E+03 -0.33159398231E+02  0.30936680893E+03  0.58308504262E+03  0.40000000000E+03 0.  1.
<mgrwt>
<rscale>  2 0.49424725E+03</rscale>
<asrwt>0</asrwt>
<pdfrwt beam="1">  1       21 0.75615467E-01 0.49424725E+03</pdfrwt>
<pdfrwt beam="2">  1       21 0.22857550E+00 0.49424725E+03</pdfrwt>
<totfact> 0.10756336E+02</totfact>
</mgrwt>
</event>
<event>
 4    1  0.4656822E-002  0.4591503E+03  0.7818608E-02  0.1025028E+00
         21   -1    0    0  503  502  0.00000000000E+00  0.00000000000E+00  0.93764376104E+03  0.93764376104E+03  0.00000000000E+00 0.  1.
         21   -1    0    0  501  503 -0.00000000000E+00 -0.00000000000E+00 -0.23916112650E+03  0.23916112650E+03  0.00000000000E+00 0. -1.
    9000007    1    1    2  501    0  0.38489571641E+02 -0.22212062990E+03  0.20525184832E+03  0.50293870660E+03  0.40000000000E+03 0. -1.
   -9000007    1    1    2    0  502 -0.38489571641E+02  0.22212062990E+03  0.49323078622E+03  0.67386618095E+03  0.40000000000E+03 0.  1.
<mgrwt>
<rscale>  2 0.45915033E+03</rscale>
<asrwt>0</asrwt>
<pdfrwt beam="1">  1       21 0.14425288E+00 0.45915033E+03</pdfrwt>
<pdfrwt beam="2">  1       21 0.36794020E-01 0.45915033E+03</pdfrwt>
<totfact> 0.20149525E+03</totfact>
</mgrwt>
</event>
<event>
 4    1  0.4656822E-002  0.5849088E+03  0.7818608E-02  0.9937220E-01
         21   -1    0    0  503  502  0.00000000000E+00  0.00000000000E+00  0.73562308421E+03  0.73562308421E+03  0.00000000000E+00 0.  1.
         21   -1    0    0  501  503 -0.00000000000E+00 -0.00000000000E+00 -0.62308755658E+03  0.62308755658E+03  0.00000000000E+00 0.  1.
    9000007    1    1    2  501    0  0.40366317787E+03  0.13847130700E+03 -0.28584660027E+03  0.65101961792E+03  0.40000000000E+03 0.  1.
   -9000007    1    1    2    0  502 -0.40366317787E+03 -0.13847130700E+03  0.39838212790E+03  0.70769102287E+03  0.40000000000E+03 0.  1.
<mgrwt>
<rscale>  2 0.58490877E+03</rscale>
<asrwt>0</asrwt>
<pdfrwt beam="1">  1       21 0.11317278E+00 0.58490877E+03</pdfrwt>
<pdfrwt beam="2">  1       21 0.95859624E-01 0.58490877E+03</pdfrwt>
<totfact> 0.43756731E+02</totfact>
</mgrwt>
</event>
<event>
 4    1  0.4656822E-002  0.5530427E+03  0.7818608E-02  0.1000792E+00
         21   -1    0    0  501  502  0.00000000000E+00  0.00000000000E+00  0.11698619121E+04  0.11698619121E+04  0.00000000000E+00 0. -1.
         21   -1    0    0  502  503 -0.00000000000E+00 -0.00000000000E+00 -0.46624866464E+03  0.46624866464E+03  0.00000000000E+00 0. -1.
    9000007    1    1    2  501    0  0.31154429061E+03 -0.22089894686E+03  0.89398379757E+03  0.10512198724E+04  0.40000000000E+03 0. -1.
   -9000007    1    1    2    0  503 -0.31154429061E+03  0.22089894686E+03 -0.19037055010E+03  0.58489070439E+03  0.40000000000E+03 0. -1.
<mgrwt>
<rscale>  2 0.55304267E+03</rscale>
<asrwt>0</asrwt>
<pdfrwt beam="1">  1       21 0.17997876E+00 0.55304267E+03</pdfrwt>
<pdfrwt beam="2">  1       21 0.71730564E-01 0.55304267E+03</pdfrwt>
<totfact> 0.24895861E+02</totfact>
</mgrwt>
</event>
<event>
 4    1  0.4656822E-002  0.4290929E+03  0.7818608E-02  0.1034147E+00
         21   -1    0    0  501  502  0.00000000000E+00  0.00000000000E+00  0.76582156201E+03  0.76582156201E+03  0.00000000000E+00 0. -1.
         21   -1    0    0  502  503 -0.00000000000E+00 -0.00000000000E+00 -0.33066095459E+03  0.33066095459E+03  0.00000000000E+00 0. -1.
    9000007    1    1    2  501    0 -0.15474078426E+03  0.13267385434E+02  0.50398232890E+03  0.66190552322E+03  0.40000000000E+03 0. -1.
   -9000007    1    1    2    0  503  0.15474078426E+03 -0.13267385434E+02 -0.68821721481E+02  0.43457699338E+03  0.40000000000E+03 0. -1.
<mgrwt>
<rscale>  2 0.42909292E+03</rscale>
<asrwt>0</asrwt>
<pdfrwt beam="1">  1       21 0.11781870E+00 0.42909292E+03</pdfrwt>
<pdfrwt beam="2">  1       21 0.50870916E-01 0.42909292E+03</pdfrwt>
<totfact> 0.17581739E+03</totfact>
</mgrwt>
</event>
<event>
 4    1  0.4656822E-002  0.6093350E+03  0.7818608E-02  0.9886226E-01
         21   -1    0    0  503  502  0.00000000000E+00  0.00000000000E+00  0.14151990061E+04  0.14151990061E+04  0.00000000000E+00 0. -1.
         21   -1    0    0  501  503 -0.00000000000E+00 -0.00000000000E+00 -0.27316552157E+03  0.27316552157E+03  0.00000000000E+00 0. -1.
    9000007    1    1    2  501    0 -0.44052177324E+03  0.13126182345E+03  0.40310470895E+03  0.73060420569E+03  0.40000000000E+03 0. -1.
   -9000007    1    1    2    0  502  0.44052177324E+03 -0.13126182345E+03  0.73892877561E+03  0.95776032201E+03  0.40000000000E+03 0. -1.
<mgrwt>
<rscale>  2 0.60933496E+03</rscale>
<asrwt>0</asrwt>
<pdfrwt beam="1">  1       21 0.21772292E+00 0.60933496E+03</pdfrwt>
<pdfrwt beam="2">  1       21 0.42025466E-01 0.60933496E+03</pdfrwt>
<totfact> 0.43232650E+02</totfact>
</mgrwt>
</event>
<event>
 4    1  0.4656822E-002  0.4749723E+03  0.7818608E-02  0.1020526E+00
         21   -1    0    0  503  502  0.00000000000E+00  0.00000000000E+00  0.53040218062E+03  0.53040218062E+03  0.00000000000E+00 0.  1.
         21   -1    0    0  501  503 -0.00000000000E+00 -0.00000000000E+00 -0.45371039507E+03  0.45371039507E+03  0.00000000000E+00 0. -1.
    9000007    1    1    2  501    0  0.28443197784E+02  0.25453816803E+03 -0.84707950453E+02  0.48246671528E+03  0.40000000000E+03 0.  1.
   -9000007    1    1    2    0  502 -0.28443197784E+02 -0.25453816803E+03  0.16139973600E+03  0.50164586041E+03  0.40000000000E+03 0. -1.
<mgrwt>
<rscale>  2 0.47497231E+03</rscale>
<asrwt>0</asrwt>
<pdfrwt beam="1">  1       21 0.81600336E-01 0.47497231E+03</pdfrwt>
<pdfrwt beam="2">  1       21 0.69801599E-01 0.47497231E+03</pdfrwt>
<totfact> 0.21005239E+03</totfact>
</mgrwt>
</event>
<event>
 4    1  0.4656822E-002  0.4151840E+03  0.7818608E-02  0.1038645E+00
         21   -1    0    0  501  502  0.00000000000E+00  0.00000000000E+00  0.73715007543E+03  0.73715007543E+03  0.00000000000E+00 0. -1.
         21   -1    0    0  502  503 -0.00000000000E+00 -0.00000000000E+00 -0.33989902898E+03  0.33989902898E+03  0.00000000000E+00 0. -1.
    9000007    1    1    2  501    0 -0.64403886665E+02 -0.90718784567E+02  0.49943893137E+03  0.64947440647E+03  0.40000000000E+03 0. -1.
   -9000007    1    1    2    0  503  0.64403886665E+02  0.90718784567E+02 -0.10218788493E+03  0.42757469794E+03  0.40000000000E+03 0. -1.
<mgrwt>
<rscale>  2 0.41518401E+03</rscale>
<asrwt>0</asrwt>
<pdfrwt beam="1">  1       21 0.11340770E+00 0.41518401E+03</pdfrwt>
<pdfrwt beam="2">  1       21 0.52292159E-01 0.41518401E+03</pdfrwt>
<totfact> 0.18340690E+03</totfact>
</mgrwt>
</event>
<event>
 4    1  0.4656822E-002  0.5066066E+03  0.7818608E-02  0.1012069E+00
         21   -1    0    0  501  502  0.00000000000E+00  0.00000000000E+00  0.11857674270E+04  0.11857674270E+04  0.00000000000E+00 0. -1.
         21   -1    0    0  502  503 -0.00000000000E+00 -0.00000000000E+00 -0.21647462806E+03  0.21647462806E+03  0.00000000000E+00 0. -1.
    9000007    1    1    2  501    0  0.26919898939E+03 -0.15550622449E+03  0.47608427955E+03  0.69520250502E+03  0.40000000000E+03 0. -1.
   -9000007    1    1    2    0  503 -0.26919898939E+03  0.15550622449E+03  0.49320851944E+03  0.70703955009E+03  0.40000000000E+03 0. -1.
<mgrwt>
<rscale>  2 0.50660663E+03</rscale>
<asrwt>0</asrwt>
<pdfrwt beam="1">  1       21 0.18242575E+00 0.50660663E+03</pdfrwt>
<pdfrwt beam="2">  1       21 0.33303790E-01 0.50660663E+03</pdfrwt>
<totfact> 0.12520647E+03</totfact>
</mgrwt>
</event>
<event>
 4    1  0.4656822E-002  0.4358353E+03  0.7818608E-02  0.1032032E+00
         21   -1    0    0  501  502  0.00000000000E+00  0.00000000000E+00  0.11549436131E+04  0.11549436131E+04  0.00000000000E+00 0.  1.
         21   -1    0    0  502  503 -0.00000000000E+00 -0.00000000000E+00 -0.39435147935E+03  0.39435147935E+03  0.00000000000E+00 0.  1.
    9000007    1    1    2  501    0  0.12431280788E+03 -0.12041065143E+03  0.97174243131E+03  0.10650050479E+04  0.40000000000E+03 0.  1.
   -9000007    1    1    2    0  503 -0.12431280788E+03  0.12041065143E+03 -0.21115029751E+03  0.48429004462E+03  0.40000000000E+03 0.  1.
<mgrwt>
<rscale>  2 0.43583529E+03</rscale>
<asrwt>0</asrwt>
<pdfrwt beam="1">  1       21 0.17768363E+00 0.43583529E+03</pdfrwt>
<pdfrwt beam="2">  1       21 0.60669459E-01 0.43583529E+03</pdfrwt>
<totfact> 0.39627653E+02</totfact>
</mgrwt>
</event>
<event>
 4    1  0.4656822E-002  0.4481032E+03  0.7818608E-02  0.1028289E+00
         21   -1    0    0  501  502  0.00000000000E+00  0.00000000000E+00  0.28019154655E+03  0.28019154655E+03  0.00000000000E+00 0. -1.
         21   -1    0    0  502  503 -0.00000000000E+00 -0.00000000000E+00 -0.74797203272E+03  0.74797203272E+03  0.00000000000E+00 0. -1.
    9000007    1    1    2  501    0 -0.67621896991E+02 -0.19032544956E+03 -0.12867391564E+03  0.46621183411E+03  0.40000000000E+03 0. -1.
   -9000007    1    1    2    0  503  0.67621896991E+02  0.19032544956E+03 -0.33910657053E+03  0.56195174515E+03  0.40000000000E+03 0. -1.
<mgrwt>
<rscale>  2 0.44810322E+03</rscale>
<asrwt>0</asrwt>
<pdfrwt beam="1">  1       21 0.43106391E-01 0.44810322E+03</pdfrwt>
<pdfrwt beam="2">  1       21 0.11507262E+00 0.44810322E+03</pdfrwt>
<totfact> 0.26241076E+03</totfact>
</mgrwt>
</event>
<event>
 4    1  0.4656822E-002  0.4281581E+03  0.7818608E-02  0.1034443E+00
         21   -1    0    0  503  502  0.00000000000E+00  0.00000000000E+00  0.33795155078E+04  0.33795155078E+04  0.00000000000E+00 0.  1.
         21   -1    0    0  501  503 -0.00000000000E+00 -0.00000000000E+00 -0.57232403479E+03  0.57232403479E+03  0.00000000000E+00 0.  1.
    9000007    1    1    2  501    0 -0.78514255305E+02  0.13097667779E+03 -0.47635568118E+03  0.64049520951E+03  0.40000000000E+03 0.  1.
   -9000007    1    1    2    0  502  0.78514255305E+02 -0.13097667779E+03  0.32835471542E+04  0.33113443331E+04  0.40000000000E+03 0.  1.
<mgrwt>
<rscale>  2 0.42815812E+03</rscale>
<asrwt>0</asrwt>
<pdfrwt beam="1">  1       21 0.51992545E+00 0.42815812E+03</pdfrwt>
<pdfrwt beam="2">  1       21 0.88049853E-01 0.42815812E+03</pdfrwt>
<totfact> 0.10598715E+00</totfact>
</mgrwt>
</event>
<event>
 4    1  0.4656822E-002  0.4229944E+03  0.7818608E-02  0.1036096E+00
         21   -1    0    0  503  502  0.00000000000E+00  0.00000000000E+00  0.67266500088E+03  0.67266500088E+03  0.00000000000E+00 0.  1.
         21   -1    0    0  501  503 -0.00000000000E+00 -0.00000000000E+00 -0.39667741250E+03  0.39667741250E+03  0.00000000000E+00 0.  1.
    9000007    1    1    2  501    0  0.39117014095E+02  0.13188686673E+03 -0.16889405753E+03  0.45546623264E+03  0.40000000000E+03 0.  1.
   -9000007    1    1    2    0  502 -0.39117014095E+02 -0.13188686673E+03  0.44488164590E+03  0.61387618073E+03  0.40000000000E+03 0.  1.
<mgrwt>
<rscale>  2 0.42299443E+03</rscale>
<asrwt>0</asrwt>
<pdfrwt beam="1">  1       21 0.10348692E+00 0.42299443E+03</pdfrwt>
<pdfrwt beam="2">  1       21 0.61027294E-01 0.42299443E+03</pdfrwt>
<totfact> 0.16402728E+03</totfact>
</mgrwt>
</event>
<event>
 4    1  0.4656822E-002  0.4174236E+03  0.7818608E-02  0.1037908E+00
         21   -1    0    0  503  502  0.00000000000E+00  0.00000000000E+00  0.21724135818E+03  0.21724135818E+03  0.00000000000E+00 0. -1.
         21   -1    0    0  501  503 -0.00000000000E+00 -0.00000000000E+00 -0.80984810846E+03  0.80984810846E+03  0.00000000000E+00 0.  1.
    9000007    1    1    2  501    0 -0.66998959834E+02 -0.98760208697E+02 -0.34663683194E+03  0.54258596803E+03  0.40000000000E+03 0.  1.
   -9000007    1    1    2    0  502  0.66998959834E+02  0.98760208697E+02 -0.24596991834E+03  0.48450349861E+03  0.40000000000E+03 0.  1.
<mgrwt>
<rscale>  2 0.41742357E+03</rscale>
<asrwt>0</asrwt>
<pdfrwt beam="1">  1       21 0.33421748E-01 0.41742357E+03</pdfrwt>
<pdfrwt beam="2">  1       21 0.12459202E+00 0.41742357E+03</pdfrwt>
<totfact> 0.36508095E+03</totfact>
</mgrwt>
</event>
<event>
 4    1  0.4656822E-002  0.4235984E+03  0.7818608E-02  0.1035901E+00
         21   -1    0    0  501  502  0.00000000000E+00  0.00000000000E+00  0.17524195868E+03  0.17524195868E+03  0.00000000000E+00 0.  1.
         21   -1    0    0  502  503 -0.00000000000E+00 -0.00000000000E+00 -0.10432605689E+04  0.10432605689E+04  0.00000000000E+00 0.  1.
    9000007    1    1    2  501    0 -0.18821059934E+02  0.13813526243E+03 -0.51694031569E+03  0.66832841703E+03  0.40000000000E+03 0.  1.
   -9000007    1    1    2    0  503  0.18821059934E+02 -0.13813526243E+03 -0.35107829453E+03  0.55017411054E+03  0.40000000000E+03 0.  1.
<mgrwt>
<rscale>  2 0.42359837E+03</rscale>
<asrwt>0</asrwt>
<pdfrwt beam="1">  1       21 0.26960302E-01 0.42359837E+03</pdfrwt>
<pdfrwt beam="2">  1       21 0.16050162E+00 0.42359837E+03</pdfrwt>
<totfact> 0.28420434E+03</totfact>
</mgrwt>
</event>
<event>
 4    1  0.4656822E-002  0.4141271E+03  0.7818608E-02  0.1038995E+00
         21   -1    0    0  501  502  0.00000000000E+00  0.00000000000E+00  0.16032426172E+03  0.16032426172E+03  0.00000000000E+00 0. -1.
         21   -1    0    0  502  503 -0.00000000000E+00 -0.00000000000E+00 -0.20812114726E+04  0.20812114726E+04  0.00000000000E+00 0. -1.
    9000007    1    1    2  501    0  0.97443784217E+02 -0.44787932814E+02 -0.17910411436E+03  0.45119788761E+03  0.40000000000E+03 0. -1.
   -9000007    1    1    2    0  503 -0.97443784217E+02  0.44787932814E+02 -0.17417830965E+04  0.17903378467E+04  0.40000000000E+03 0. -1.
<mgrwt>
<rscale>  2 0.41412709E+03</rscale>
<asrwt>0</asrwt>
<pdfrwt beam="1">  1       21 0.24665272E-01 0.41412709E+03</pdfrwt>
<pdfrwt beam="2">  1       21 0.32018637E+00 0.41412709E+03</pdfrwt>
<totfact> 0.32588615E+02</totfact>
</mgrwt>
</event>
<event>
 4    1  0.4656822E-002  0.4042560E+03  0.7818608E-02  0.1042316E+00
         21   -1    0    0  503  502  0.00000000000E+00  0.00000000000E+00  0.58626139006E+03  0.58626139006E+03  0.00000000000E+00 0.  1.
         21   -1    0    0  501  503 -0.00000000000E+00 -0.00000000000E+00 -0.27876083378E+03  0.27876083378E+03  0.00000000000E+00 0.  1.
    9000007    1    1    2  501    0  0.51315445444E+02  0.28100120762E+02  0.15584193841E+03  0.43325466125E+03  0.40000000000E+03 0.  1.
   -9000007    1    1    2    0  502 -0.51315445444E+02 -0.28100120762E+02  0.15165861788E+03  0.43176756259E+03  0.40000000000E+03 0.  1.
<mgrwt>
<rscale>  2 0.40425597E+03</rscale>
<asrwt>0</asrwt>
<pdfrwt beam="1">  1       21 0.90194060E-01 0.40425597E+03</pdfrwt>
<pdfrwt beam="2">  1       21 0.42886282E-01 0.40425597E+03</pdfrwt>
<totfact> 0.48787904E+03</totfact>
</mgrwt>
</event>
<event>
 4    1  0.4656822E-002  0.4838387E+03  0.7818608E-02  0.1018085E+00
         21   -1    0    0  501  502  0.00000000000E+00  0.00000000000E+00  0.52143547070E+03  0.52143547070E+03  0.00000000000E+00 0. -1.
         21   -1    0    0  502  503 -0.00000000000E+00 -0.00000000000E+00 -0.51042715733E+03  0.51042715733E+03  0.00000000000E+00 0. -1.
    9000007    1    1    2  501    0  0.80325401707E+02  0.26009181373E+03  0.18455317802E+03  0.51784147888E+03  0.40000000000E+03 0. -1.
   -9000007    1    1    2    0  503 -0.80325401707E+02 -0.26009181373E+03 -0.17354486465E+03  0.51402114915E+03  0.40000000000E+03 0. -1.
<mgrwt>
<rscale>  2 0.48383874E+03</rscale>
<asrwt>0</asrwt>
<pdfrwt beam="1">  1       21 0.80220842E-01 0.48383874E+03</pdfrwt>
<pdfrwt beam="2">  1       21 0.78527255E-01 0.48383874E+03</pdfrwt>
<totfact> 0.16654592E+03</totfact>
</mgrwt>
</event>
<event>
 4    1  0.4656822E-002  0.4202696E+03  0.7818608E-02  0.1036979E+00
         21   -1    0    0  501  502  0.00000000000E+00  0.00000000000E+00  0.89109349989E+03  0.89109349989E+03  0.00000000000E+00 0.  1.
         21   -1    0    0  502  503 -0.00000000000E+00 -0.00000000000E+00 -0.20700621779E+03  0.20700621779E+03  0.00000000000E+00 0.  1.
    9000007    1    1    2  501    0  0.10517139868E+03  0.74602159786E+02  0.45520255058E+03  0.61954488732E+03  0.40000000000E+03 0. -1.
   -9000007    1    1    2    0  503 -0.10517139868E+03 -0.74602159786E+02  0.22888473152E+03  0.47855483037E+03  0.40000000000E+03 0. -1.
<mgrwt>
<rscale>  2 0.42026956E+03</rscale>
<asrwt>0</asrwt>
<pdfrwt beam="1">  1       21 0.13709131E+00 0.42026956E+03</pdfrwt>
<pdfrwt beam="2">  1       21 0.31847111E-01 0.42026956E+03</pdfrwt>
<totfact> 0.31350785E+03</totfact>
</mgrwt>
</event>
<event>
 4    1  0.4656822E-002  0.4314804E+03  0.7818608E-02  0.1033393E+00
         21   -1    0    0  501  502  0.00000000000E+00  0.00000000000E+00  0.11467291431E+04  0.11467291431E+04  0.00000000000E+00 0.  1.
         21   -1    0    0  502  503 -0.00000000000E+00 -0.00000000000E+00 -0.17830566123E+03  0.17830566123E+03  0.00000000000E+00 0.  1.
    9000007    1    1    2  501    0 -0.90390517036E+02  0.13418242506E+03  0.68237627375E+03  0.80734921053E+03  0.40000000000E+03 0.  1.
   -9000007    1    1    2    0  503  0.90390517036E+02 -0.13418242506E+03  0.28604720815E+03  0.51768559382E+03  0.40000000000E+03 0.  1.
<mgrwt>
<rscale>  2 0.43148044E+03</rscale>
<asrwt>0</asrwt>
<pdfrwt beam="1">  1       21 0.17641986E+00 0.43148044E+03</pdfrwt>
<pdfrwt beam="2">  1       21 0.27431641E-01 0.43148044E+03</pdfrwt>
<totfact> 0.20944330E+03</totfact>
</mgrwt>
</event>
<event>
 4    1  0.4656822E-002  0.4525786E+03  0.7818608E-02  0.1026956E+00
         21   -1    0    0  503  502  0.00000000000E+00  0.00000000000E+00  0.10517996942E+04  0.10517996942E+04  0.00000000000E+00 0. -1.
         21   -1    0    0  501  503 -0.00000000000E+00 -0.00000000000E+00 -0.30303707210E+03  0.30303707210E+03  0.00000000000E+00 0. -1.
    9000007    1    1    2  501    0 -0.11608954933E+03 -0.17706089963E+03  0.77934650383E+03  0.90122600866E+03  0.40000000000E+03 0. -1.
   -9000007    1    1    2    0  502  0.11608954933E+03  0.17706089963E+03 -0.30583881715E+02  0.45361075766E+03  0.40000000000E+03 0. -1.
<mgrwt>
<rscale>  2 0.45257855E+03</rscale>
<asrwt>0</asrwt>
<pdfrwt beam="1">  1       21 0.16181534E+00 0.45257855E+03</pdfrwt>
<pdfrwt beam="2">  1       21 0.46621089E-01 0.45257855E+03</pdfrwt>
<totfact> 0.90347144E+02</totfact>
</mgrwt>
</event>
<event>
 4    1  0.4656822E-002  0.5157796E+03  0.7818608E-02  0.1009740E+00
         21   -1    0    0  503  502  0.00000000000E+00  0.00000000000E+00  0.35769871860E+03  0.35769871860E+03  0.00000000000E+00 0.  1.
         21   -1    0    0  501  503 -0.00000000000E+00 -0.00000000000E+00 -0.76401296149E+03  0.76401296149E+03  0.00000000000E+00 0. -1.
    9000007    1    1    2  501    0  0.26334171419E+03 -0.19151961540E+03 -0.11175721306E+03  0.52774832656E+03  0.40000000000E+03 0.  1.
   -9000007    1    1    2    0  502 -0.26334171419E+03  0.19151961540E+03 -0.29455702983E+03  0.59396335353E+03  0.40000000000E+03 0. -1.
<mgrwt>
<rscale>  2 0.51577962E+03</rscale>
<asrwt>0</asrwt>
<pdfrwt beam="1">  1       21 0.55030572E-01 0.51577962E+03</pdfrwt>
<pdfrwt beam="2">  1       21 0.11754045E+00 0.51577962E+03</pdfrwt>
<totfact> 0.14461841E+03</totfact>
</mgrwt>
</event>
<event>
 4    1  0.4656822E-002  0.5247681E+03  0.7818608E-02  0.1007509E+00
         21   -1    0    0  501  502  0.00000000000E+00  0.00000000000E+00  0.12145388785E+04  0.12145388785E+04  0.00000000000E+00 0. -1.
         21   -1    0    0  502  503 -0.00000000000E+00 -0.00000000000E+00 -0.42546457294E+03  0.42546457294E+03  0.00000000000E+00 0. -1.
    9000007    1    1    2  501    0  0.31077292663E+03 -0.13711949310E+03  0.95495444836E+03  0.10896419438E+04  0.40000000000E+03 0. -1.
   -9000007    1    1    2    0  503 -0.31077292663E+03  0.13711949310E+03 -0.16588014278E+03  0.55036150763E+03  0.40000000000E+03 0. -1.
<mgrwt>
<rscale>  2 0.52476811E+03</rscale>
<asrwt>0</asrwt>
<pdfrwt beam="1">  1       21 0.18685213E+00 0.52476811E+03</pdfrwt>
<pdfrwt beam="2">  1       21 0.65456089E-01 0.52476811E+03</pdfrwt>
<totfact> 0.27705744E+02</totfact>
</mgrwt>
</event>
<event>
 4    1  0.4656822E-002  0.4693997E+03  0.7818608E-02  0.1022090E+00
         21   -1    0    0  501  502  0.00000000000E+00  0.00000000000E+00  0.54307583100E+03  0.54307583100E+03  0.00000000000E+00 0.  1.
         21   -1    0    0  502  503 -0.00000000000E+00 -0.00000000000E+00 -0.62028368738E+03  0.62028368738E+03  0.00000000000E+00 0.  1.
    9000007    1    1    2  501    0 -0.19073509235E+03  0.15477797103E+03  0.30350787551E+03  0.55897506766E+03  0.40000000000E+03 0.  1.
   -9000007    1    1    2    0  503  0.19073509235E+03 -0.15477797103E+03 -0.38071573188E+03  0.60438445072E+03  0.40000000000E+03 0.  1.
<mgrwt>
<rscale>  2 0.46939972E+03</rscale>
<asrwt>0</asrwt>
<pdfrwt beam="1">  1       21 0.83550128E-01 0.46939972E+03</pdfrwt>
<pdfrwt beam="2">  1       21 0.95428259E-01 0.46939972E+03</pdfrwt>
<totfact> 0.96313926E+02</totfact>
</mgrwt>
</event>
<event>
 4    1  0.4656822E-002  0.5540327E+03  0.7818608E-02  0.1000565E+00
         21   -1    0    0  503  502  0.00000000000E+00  0.00000000000E+00  0.15858873797E+04  0.15858873797E+04  0.00000000000E+00 0.  1.
         21   -1    0    0  501  503 -0.00000000000E+00 -0.00000000000E+00 -0.20185283763E+03  0.20185283763E+03  0.00000000000E+00 0. -1.
    9000007    1    1    2  501    0 -0.29182547066E+03  0.24857624526E+03  0.51075460559E+03  0.75353999374E+03  0.40000000000E+03 0.  1.
   -9000007    1    1    2    0  502  0.29182547066E+03 -0.24857624526E+03  0.87327993645E+03  0.10342002236E+04  0.40000000000E+03 0. -1.
<mgrwt>
<rscale>  2 0.55403272E+03</rscale>
<asrwt>0</asrwt>
<pdfrwt beam="1">  1       21 0.24398267E+00 0.55403272E+03</pdfrwt>
<pdfrwt beam="2">  1       21 0.31054284E-01 0.55403272E+03</pdfrwt>
<totfact> 0.55809824E+02</totfact>
</mgrwt>
</event>
<event>
 4    1  0.4656822E-002  0.5636824E+03  0.7818608E-02  0.9983757E-01
         21   -1    0    0  503  502  0.00000000000E+00  0.00000000000E+00  0.20829862438E+03  0.20829862438E+03  0.00000000000E+00 0. -1.
         21   -1    0    0  501  503 -0.00000000000E+00 -0.00000000000E+00 -0.15335786932E+04  0.15335786932E+04  0.00000000000E+00 0.  1.
    9000007    1    1    2  501    0  0.35521740354E+03  0.17764682146E+03 -0.72626013099E+03  0.91934301260E+03  0.40000000000E+03 0.  1.
   -9000007    1    1    2    0  502 -0.35521740354E+03 -0.17764682146E+03 -0.59901993784E+03  0.82253430499E+03  0.40000000000E+03 0. -1.
<mgrwt>
<rscale>  2 0.56368235E+03</rscale>
<asrwt>0</asrwt>
<pdfrwt beam="1">  1       21 0.32045942E-01 0.56368235E+03</pdfrwt>
<pdfrwt beam="2">  1       21 0.23593518E+00 0.56368235E+03</pdfrwt>
<totfact> 0.58618732E+02</totfact>
</mgrwt>
</event>
<event>
 4    1  0.4656822E-002  0.4669951E+03  0.7818608E-02  0.1022772E+00
         21   -1    0    0  501  502  0.00000000000E+00  0.00000000000E+00  0.10590191260E+04  0.10590191260E+04  0.00000000000E+00 0. -1.
         21   -1    0    0  502  503 -0.00000000000E+00 -0.00000000000E+00 -0.28211518812E+03  0.28211518812E+03  0.00000000000E+00 0.  1.
    9000007    1    1    2  501    0 -0.71860508880E+02  0.23004449321E+03  0.73691982322E+03  0.87243064335E+03  0.40000000000E+03 0. -1.
   -9000007    1    1    2    0  503  0.71860508880E+02 -0.23004449321E+03  0.39984114690E+02  0.46870367080E+03  0.40000000000E+03 0.  1.
<mgrwt>
<rscale>  2 0.46699508E+03</rscale>
<asrwt>0</asrwt>
<pdfrwt beam="1">  1       21 0.16292602E+00 0.46699508E+03</pdfrwt>
<pdfrwt beam="2">  1       21 0.43402337E-01 0.46699508E+03</pdfrwt>
<totfact> 0.10233137E+03</totfact>
</mgrwt>
</event>
<event>
 4    1  0.4656822E-002  0.4619174E+03  0.7818608E-02  0.1024227E+00
         21   -1    0    0  503  502  0.00000000000E+00  0.00000000000E+00  0.40674122240E+03  0.40674122240E+03  0.00000000000E+00 0.  1.
         21   -1    0    0  501  503 -0.00000000000E+00 -0.00000000000E+00 -0.55185414590E+03  0.55185414590E+03  0.00000000000E+00 0. -1.
    9000007    1    1    2  501    0 -0.12031276012E+03 -0.19721183087E+03 -0.17911330849E+03  0.49542834372E+03  0.40000000000E+03 0.  1.
   -9000007    1    1    2    0  502  0.12031276012E+03  0.19721183087E+03  0.34000384987E+02  0.46316702458E+03  0.40000000000E+03 0. -1.
<mgrwt>
<rscale>  2 0.46191738E+03</rscale>
<asrwt>0</asrwt>
<pdfrwt beam="1">  1       21 0.62575573E-01 0.46191738E+03</pdfrwt>
<pdfrwt beam="2">  1       21 0.84900638E-01 0.46191738E+03</pdfrwt>
<totfact> 0.24551186E+03</totfact>
</mgrwt>
</event>
<event>
 4    1  0.4656822E-002  0.5994709E+03  0.7818608E-02  0.9906504E-01
         21   -1    0    0  501  502  0.00000000000E+00  0.00000000000E+00  0.10256375435E+04  0.10256375435E+04  0.00000000000E+00 0.  1.
         21   -1    0    0  502  503 -0.00000000000E+00 -0.00000000000E+00 -0.41358066336E+03  0.41358066336E+03  0.00000000000E+00 0.  1.
    9000007    1    1    2  501    0 -0.43306825302E+02  0.44439836941E+03  0.24728947998E+02  0.59998076029E+03  0.40000000000E+03 0.  1.
   -9000007    1    1    2    0  503  0.43306825302E+02 -0.44439836941E+03  0.58732793218E+03  0.83923744660E+03  0.40000000000E+03 0.  1.
<mgrwt>
<rscale>  2 0.59947093E+03</rscale>
<asrwt>0</asrwt>
<pdfrwt beam="1">  1       21 0.15779039E+00 0.59947093E+03</pdfrwt>
<pdfrwt beam="2">  1       21 0.63627795E-01 0.59947093E+03</pdfrwt>
<totfact> 0.46718850E+02</totfact>
</mgrwt>
</event>
<event>
 4    1  0.4656822E-002  0.4102300E+03  0.7818608E-02  0.1040294E+00
         21   -1    0    0  503  502  0.00000000000E+00  0.00000000000E+00  0.33522709425E+03  0.33522709425E+03  0.00000000000E+00 0.  1.
         21   -1    0    0  501  503 -0.00000000000E+00 -0.00000000000E+00 -0.59532981654E+03  0.59532981654E+03  0.00000000000E+00 0. -1.
    9000007    1    1    2  501    0  0.90036698805E+02 -0.13493789334E+02 -0.31426076244E+03  0.51676737154E+03  0.40000000000E+03 0. -1.
   -9000007    1    1    2    0  502 -0.90036698805E+02  0.13493789334E+02  0.54158040151E+02  0.41378953925E+03  0.40000000000E+03 0.  1.
<mgrwt>
<rscale>  2 0.41023004E+03</rscale>
<asrwt>0</asrwt>
<pdfrwt beam="1">  1       21 0.51573400E-01 0.41023004E+03</pdfrwt>
<pdfrwt beam="2">  1       21 0.91589201E-01 0.41023004E+03</pdfrwt>
<totfact> 0.31841947E+03</totfact>
</mgrwt>
</event>
<event>
 4    1  0.4656822E-002  0.5922283E+03  0.7818608E-02  0.9921662E-01
         21   -1    0    0  501  502  0.00000000000E+00  0.00000000000E+00  0.18777036539E+04  0.18777036539E+04  0.00000000000E+00 0.  1.
         21   -1    0    0  502  503 -0.00000000000E+00 -0.00000000000E+00 -0.50317567773E+03  0.50317567773E+03  0.00000000000E+00 0.  1.
    9000007    1    1    2  501    0 -0.40013911690E+03 -0.17499452641E+03  0.16312306570E+04  0.17354099958E+04  0.40000000000E+03 0.  1.
   -9000007    1    1    2    0  503  0.40013911690E+03  0.17499452641E+03 -0.25670268084E+03  0.64546933583E+03  0.40000000000E+03 0.  1.
<mgrwt>
<rscale>  2 0.59222833E+03</rscale>
<asrwt>0</asrwt>
<pdfrwt beam="1">  1       21 0.28887748E+00 0.59222833E+03</pdfrwt>
<pdfrwt beam="2">  1       21 0.77411644E-01 0.59222833E+03</pdfrwt>
<totfact> 0.41134114E+01</totfact>
</mgrwt>
</event>
<event>
 4    1  0.4656822E-002  0.4053785E+03  0.7818608E-02  0.1041933E+00
         21   -1    0    0  503  502  0.00000000000E+00  0.00000000000E+00  0.19499435215E+03  0.19499435215E+03  0.00000000000E+00 0. -1.
         21   -1    0    0  501  503 -0.00000000000E+00 -0.00000000000E+00 -0.90303015108E+03  0.90303015108E+03  0.00000000000E+00 0. -1.
    9000007    1    1    2  501    0  0.47519653351E+02 -0.45536512680E+02 -0.21217279215E+03  0.45754670272E+03  0.40000000000E+03 0. -1.
   -9000007    1    1    2    0  502 -0.47519653351E+02  0.45536512680E+02 -0.49586300678E+03  0.64047780050E+03  0.40000000000E+03 0. -1.
<mgrwt>
<rscale>  2 0.40537845E+03</rscale>
<asrwt>0</asrwt>
<pdfrwt beam="1">  1       21 0.29999131E-01 0.40537845E+03</pdfrwt>
<pdfrwt beam="2">  1       21 0.13892772E+00 0.40537845E+03</pdfrwt>
<totfact> 0.34295204E+03</totfact>
</mgrwt>
</event>
<event>
 4    1  0.4656822E-002  0.5531940E+03  0.7818608E-02  0.1000757E+00
         21   -1    0    0  501  502  0.00000000000E+00  0.00000000000E+00  0.13164301160E+04  0.13164301160E+04  0.00000000000E+00 0.  1.
         21   -1    0    0  502  503 -0.00000000000E+00 -0.00000000000E+00 -0.24501318502E+03  0.24501318502E+03  0.00000000000E+00 0. -1.
    9000007    1    1    2  501    0 -0.26169576741E+03  0.27845811833E+03  0.71239207829E+03  0.90195680137E+03  0.40000000000E+03 0. -1.
   -9000007    1    1    2    0  503  0.26169576741E+03 -0.27845811833E+03  0.35902485265E+03  0.65948649960E+03  0.40000000000E+03 0.  1.
<mgrwt>
<rscale>  2 0.55319400E+03</rscale>
<asrwt>0</asrwt>
<pdfrwt beam="1">  1       21 0.20252771E+00 0.55319400E+03</pdfrwt>
<pdfrwt beam="2">  1       21 0.37694337E-01 0.55319400E+03</pdfrwt>
<totfact> 0.69646391E+02</totfact>
</mgrwt>
</event>
<event>
 4    1  0.4656822E-002  0.4142309E+03  0.7818608E-02  0.1038960E+00
         21   -1    0    0  503  502  0.00000000000E+00  0.00000000000E+00  0.39670359502E+03  0.39670359502E+03  0.00000000000E+00 0. -1.
         21   -1    0    0  501  503 -0.00000000000E+00 -0.00000000000E+00 -0.12123015910E+04  0.12123015910E+04  0.00000000000E+00 0.  1.
    9000007    1    1    2  501    0  0.74678068632E+02 -0.77526697427E+02 -0.10530149784E+04  0.11315598736E+04  0.40000000000E+03 0.  1.
   -9000007    1    1    2    0  502 -0.74678068632E+02  0.77526697427E+02  0.23741698248E+03  0.47744531239E+03  0.40000000000E+03 0. -1.
<mgrwt>
<rscale>  2 0.41423086E+03</rscale>
<asrwt>0</asrwt>
<pdfrwt beam="1">  1       21 0.61031323E-01 0.41423086E+03</pdfrwt>
<pdfrwt beam="2">  1       21 0.18650794E+00 0.41423086E+03</pdfrwt>
<totfact> 0.34321107E+02</totfact>
</mgrwt>
</event>
<event>
 4    1  0.4656822E-002  0.4987432E+03  0.7818608E-02  0.1014107E+00
         21   -1    0    0  503  502  0.00000000000E+00  0.00000000000E+00  0.10732194504E+04  0.10732194504E+04  0.00000000000E+00 0.  1.
         21   -1    0    0  501  503 -0.00000000000E+00 -0.00000000000E+00 -0.33678494145E+03  0.33678494145E+03  0.00000000000E+00 0.  1.
    9000007    1    1    2  501    0  0.13586052646E+03  0.26511642097E+03 -0.25451164740E+02  0.49939219167E+03  0.40000000000E+03 0.  1.
   -9000007    1    1    2    0  502 -0.13586052646E+03 -0.26511642097E+03  0.76188567366E+03  0.91061220014E+03  0.40000000000E+03 0.  1.
<mgrwt>
<rscale>  2 0.49874322E+03</rscale>
<asrwt>0</asrwt>
<pdfrwt beam="1">  1       21 0.16511068E+00 0.49874322E+03</pdfrwt>
<pdfrwt beam="2">  1       21 0.51813068E-01 0.49874322E+03</pdfrwt>
<totfact> 0.66885181E+02</totfact>
</mgrwt>
</event>
<event>
 4    1  0.4656822E-002  0.7385307E+03  0.7818608E-02  0.9653518E-01
         21   -1    0    0  501  502  0.00000000000E+00  0.00000000000E+00  0.16399236083E+04  0.16399236083E+04  0.00000000000E+00 0.  1.
         21   -1    0    0  502  503 -0.00000000000E+00 -0.00000000000E+00 -0.38476623333E+03  0.38476623333E+03  0.00000000000E+00 0.  1.
    9000007    1    1    2  501    0  0.18602859526E+03 -0.59230136952E+03  0.10003588531E+04  0.12434409457E+04  0.40000000000E+03 0.  1.
   -9000007    1    1    2    0  503 -0.18602859526E+03  0.59230136952E+03  0.25479852191E+03  0.78124889591E+03  0.40000000000E+03 0.  1.
<mgrwt>
<rscale>  2 0.73853067E+03</rscale>
<asrwt>0</asrwt>
<pdfrwt beam="1">  1       21 0.25229594E+00 0.73853067E+03</pdfrwt>
<pdfrwt beam="2">  1       21 0.59194806E-01 0.73853067E+03</pdfrwt>
<totfact> 0.11924741E+02</totfact>
</mgrwt>
</event>
<event>
 4    1  0.4656822E-002  0.4399600E+03  0.7818608E-02  0.1030759E+00
         21   -1    0    0  503  502  0.00000000000E+00  0.00000000000E+00  0.72105154562E+03  0.72105154562E+03  0.00000000000E+00 0. -1.
         21   -1    0    0  501  503 -0.00000000000E+00 -0.00000000000E+00 -0.29667097109E+03  0.29667097109E+03  0.00000000000E+00 0. -1.
    9000007    1    1    2  501    0 -0.14208524847E+03 -0.11565727810E+03  0.36914105914E+03  0.57430823201E+03  0.40000000000E+03 0. -1.
   -9000007    1    1    2    0  502  0.14208524847E+03  0.11565727810E+03  0.55239515390E+02  0.44341428469E+03  0.40000000000E+03 0. -1.
<mgrwt>
<rscale>  2 0.43996003E+03</rscale>
<asrwt>0</asrwt>
<pdfrwt beam="1">  1       21 0.11093101E+00 0.43996003E+03</pdfrwt>
<pdfrwt beam="2">  1       21 0.45641688E-01 0.43996003E+03</pdfrwt>
<totfact> 0.25591832E+03</totfact>
</mgrwt>
</event>
<event>
 4    1  0.4656822E-002  0.6376965E+03  0.7818608E-02  0.9830144E-01
         21   -1    0    0  501  502  0.00000000000E+00  0.00000000000E+00  0.16100992512E+04  0.16100992512E+04  0.00000000000E+00 0. -1.
         21   -1    0    0  502  503 -0.00000000000E+00 -0.00000000000E+00 -0.28766202772E+03  0.28766202772E+03  0.00000000000E+00 0.  1.
    9000007    1    1    2  501    0  0.51387500831E+02 -0.49397995868E+03  0.99265271672E+03  0.11798374002E+04  0.40000000000E+03 0. -1.
   -9000007    1    1    2    0  503 -0.51387500831E+02  0.49397995868E+03  0.32978450680E+03  0.71792387879E+03  0.40000000000E+03 0.  1.
<mgrwt>
<rscale>  2 0.63769654E+03</rscale>
<asrwt>0</asrwt>
<pdfrwt beam="1">  1       21 0.24770757E+00 0.63769654E+03</pdfrwt>
<pdfrwt beam="2">  1       21 0.44255697E-01 0.63769654E+03</pdfrwt>
<totfact> 0.24736895E+02</totfact>
</mgrwt>
</event>
<event>
 4    1  0.4656822E-002  0.4569784E+03  0.7818608E-02  0.1025661E+00
         21   -1    0    0  503  502  0.00000000000E+00  0.00000000000E+00  0.87868892214E+03  0.87868892214E+03  0.00000000000E+00 0. -1.
         21   -1    0    0  501  503 -0.00000000000E+00 -0.00000000000E+00 -0.23928316961E+03  0.23928316961E+03  0.00000000000E+00 0. -1.
    9000007    1    1    2  501    0 -0.10850828466E+02 -0.22070685144E+03  0.36574124337E+03  0.58531693283E+03  0.40000000000E+03 0. -1.
   -9000007    1    1    2    0  502  0.10850828466E+02  0.22070685144E+03  0.27366450917E+03  0.53265515892E+03  0.40000000000E+03 0. -1.
<mgrwt>
<rscale>  2 0.45697840E+03</rscale>
<asrwt>0</asrwt>
<pdfrwt beam="1">  1       21 0.13518291E+00 0.45697840E+03</pdfrwt>
<pdfrwt beam="2">  1       21 0.36812796E-01 0.45697840E+03</pdfrwt>
<totfact> 0.23941728E+03</totfact>
</mgrwt>
</event>
<event>
 4    1  0.4656822E-002  0.5783409E+03  0.7818608E-02  0.9951389E-01
         21   -1    0    0  501  502  0.00000000000E+00  0.00000000000E+00  0.26196686996E+03  0.26196686996E+03  0.00000000000E+00 0.  1.
         21   -1    0    0  502  503 -0.00000000000E+00 -0.00000000000E+00 -0.12768787003E+04  0.12768787003E+04  0.00000000000E+00 0.  1.
    9000007    1    1    2  501    0 -0.41376832880E+03  0.57218413309E+02 -0.51365880134E+03  0.77351376260E+03  0.40000000000E+03 0.  1.
   -9000007    1    1    2    0  503  0.41376832880E+03 -0.57218413309E+02 -0.50125302903E+03  0.76533180768E+03  0.40000000000E+03 0.  1.
<mgrwt>
<rscale>  2 0.57834088E+03</rscale>
<asrwt>0</asrwt>
<pdfrwt beam="1">  1       21 0.40302596E-01 0.57834088E+03</pdfrwt>
<pdfrwt beam="2">  1       21 0.19644288E+00 0.57834088E+03</pdfrwt>
<totfact> 0.66055956E+02</totfact>
</mgrwt>
</event>
<event>
 4    1  0.4656822E-002  0.4846803E+03  0.7818608E-02  0.1017857E+00
         21   -1    0    0  501  502  0.00000000000E+00  0.00000000000E+00  0.76430561088E+03  0.76430561088E+03  0.00000000000E+00 0. -1.
         21   -1    0    0  502  503 -0.00000000000E+00 -0.00000000000E+00 -0.30881272806E+03  0.30881272806E+03  0.00000000000E+00 0. -1.
    9000007    1    1    2  501    0 -0.27370484449E+03  0.81524398530E+00  0.26458022614E+03  0.55219353725E+03  0.40000000000E+03 0. -1.
   -9000007    1    1    2    0  503  0.27370484449E+03 -0.81524398530E+00  0.19091265668E+03  0.52092480168E+03  0.40000000000E+03 0. -1.
<mgrwt>
<rscale>  2 0.48468031E+03</rscale>
<asrwt>0</asrwt>
<pdfrwt beam="1">  1       21 0.11758548E+00 0.48468031E+03</pdfrwt>
<pdfrwt beam="2">  1       21 0.47509651E-01 0.48468031E+03</pdfrwt>
<totfact> 0.20000554E+03</totfact>
</mgrwt>
</event>
<event>
 4    1  0.4656822E-002  0.4551683E+03  0.7818608E-02  0.1026192E+00
         21   -1    0    0  501  502  0.00000000000E+00  0.00000000000E+00  0.74770456964E+02  0.74770456964E+02  0.00000000000E+00 0. -1.
         21   -1    0    0  502  503 -0.00000000000E+00 -0.00000000000E+00 -0.28503974545E+04  0.28503974545E+04  0.00000000000E+00 0. -1.
    9000007    1    1    2  501    0  0.18466994449E+03  0.11434674278E+03 -0.11434901459E+04  0.12307509414E+04  0.40000000000E+03 0. -1.
   -9000007    1    1    2    0  503 -0.18466994449E+03 -0.11434674278E+03 -0.16321368516E+04  0.16944169701E+04  0.40000000000E+03 0. -1.
<mgrwt>
<rscale>  2 0.45516828E+03</rscale>
<asrwt>0</asrwt>
<pdfrwt beam="1">  1       21 0.11503150E-01 0.45516828E+03</pdfrwt>
<pdfrwt beam="2">  1       21 0.43852260E+00 0.45516828E+03</pdfrwt>
<totfact> 0.23783864E+02</totfact>
</mgrwt>
</event>
<event>
 4    1  0.4656822E-002  0.4849359E+03  0.7818608E-02  0.1017787E+00
         21   -1    0    0  501  502  0.00000000000E+00  0.00000000000E+00  0.15176349366E+04  0.15176349366E+04  0.00000000000E+00 0.  1.
         21   -1    0    0  502  503 -0.00000000000E+00 -0.00000000000E+00 -0.38590479127E+03  0.38590479127E+03  0.00000000000E+00 0. -1.
    9000007    1    1    2  501    0 -0.24703770894E+03 -0.11889150132E+03  0.13021604569E+04  0.13895267807E+04  0.40000000000E+03 0.  1.
   -9000007    1    1    2    0  503  0.24703770894E+03  0.11889150132E+03 -0.17043031161E+03  0.51401294715E+03  0.40000000000E+03 0. -1.
<mgrwt>
<rscale>  2 0.48493589E+03</rscale>
<asrwt>0</asrwt>
<pdfrwt beam="1">  1       21 0.23348230E+00 0.48493589E+03</pdfrwt>
<pdfrwt beam="2">  1       21 0.59369969E-01 0.48493589E+03</pdfrwt>
<totfact> 0.17301793E+02</totfact>
</mgrwt>
</event>
<event>
 4    1  0.4656822E-002  0.5206048E+03  0.7818608E-02  0.1008536E+00
         21   -1    0    0  503  502  0.00000000000E+00  0.00000000000E+00  0.76294200188E+03  0.76294200188E+03  0.00000000000E+00 0. -1.
         21   -1    0    0  501  503 -0.00000000000E+00 -0.00000000000E+00 -0.41194274779E+03  0.41194274779E+03  0.00000000000E+00 0.  1.
    9000007    1    1    2  501    0  0.78405538130E+02 -0.32385483435E+03 -0.42441668973E+02  0.52233196093E+03  0.40000000000E+03 0.  1.
   -9000007    1    1    2    0  502 -0.78405538130E+02  0.32385483435E+03  0.39344092307E+03  0.65255278874E+03  0.40000000000E+03 0. -1.
<mgrwt>
<rscale>  2 0.52060482E+03</rscale>
<asrwt>0</asrwt>
<pdfrwt beam="1">  1       21 0.11737569E+00 0.52060482E+03</pdfrwt>
<pdfrwt beam="2">  1       21 0.63375808E-01 0.52060482E+03</pdfrwt>
<totfact> 0.10631403E+03</totfact>
</mgrwt>
</event>
<event>
 4    1  0.4656822E-002  0.4178145E+03  0.7818608E-02  0.1037780E+00
         21   -1    0    0  501  502  0.00000000000E+00  0.00000000000E+00  0.66139818360E+03  0.66139818360E+03  0.00000000000E+00 0.  1.
         21   -1    0    0  502  503 -0.00000000000E+00 -0.00000000000E+00 -0.33837757840E+03  0.33837757840E+03  0.00000000000E+00 0.  1.
    9000007    1    1    2  501    0  0.80794792021E+01 -0.12043118748E+03  0.39597101925E+03  0.57564051020E+03  0.40000000000E+03 0.  1.
   -9000007    1    1    2    0  503 -0.80794792021E+01  0.12043118748E+03 -0.72950414049E+02  0.42413525179E+03  0.40000000000E+03 0.  1.
<mgrwt>
<rscale>  2 0.41781449E+03</rscale>
<asrwt>0</asrwt>
<pdfrwt beam="1">  1       21 0.10175357E+00 0.41781449E+03</pdfrwt>
<pdfrwt beam="2">  1       21 0.52058089E-01 0.41781449E+03</pdfrwt>
<totfact> 0.24167655E+03</totfact>
</mgrwt>
</event>
<event>
 4    1  0.4656822E-002  0.4848519E+03  0.7818608E-02  0.1017810E+00
         21   -1    0    0  503  502  0.00000000000E+00  0.00000000000E+00  0.13307699509E+04  0.13307699509E+04  0.00000000000E+00 0.  1.
         21   -1    0    0  501  503 -0.00000000000E+00 -0.00000000000E+00 -0.26178238594E+03  0.26178238594E+03  0.00000000000E+00 0.  1.
    9000007    1    1    2  501    0 -0.71099230561E+02  0.26462470966E+03  0.80406512299E+02  0.49147384953E+03  0.40000000000E+03 0.  1.
   -9000007    1    1    2    0  502  0.71099230561E+02 -0.26462470966E+03  0.98858105267E+03  0.11010784873E+04  0.40000000000E+03 0.  1.
<mgrwt>
<rscale>  2 0.48485187E+03</rscale>
<asrwt>0</asrwt>
<pdfrwt beam="1">  1       21 0.20473384E+00 0.48485187E+03</pdfrwt>
<pdfrwt beam="2">  1       21 0.40274214E-01 0.48485187E+03</pdfrwt>
<totfact> 0.60431788E+02</totfact>
</mgrwt>
</event>
<event>
 4    1  0.4656822E-002  0.4481019E+03  0.7818608E-02  0.1028290E+00
         21   -1    0    0  503  502  0.00000000000E+00  0.00000000000E+00  0.22857030667E+03  0.22857030667E+03  0.00000000000E+00 0. -1.
         21   -1    0    0  501  503 -0.00000000000E+00 -0.00000000000E+00 -0.10854610382E+04  0.10854610382E+04  0.00000000000E+00 0. -1.
    9000007    1    1    2  501    0 -0.19466932849E+03 -0.53843645275E+02 -0.71534501859E+03  0.84410531405E+03  0.40000000000E+03 0. -1.
   -9000007    1    1    2    0  502  0.19466932849E+03  0.53843645275E+02 -0.14154571295E+03  0.46992603082E+03  0.40000000000E+03 0. -1.
<mgrwt>
<rscale>  2 0.44810187E+03</rscale>
<asrwt>0</asrwt>
<pdfrwt beam="1">  1       21 0.35164663E-01 0.44810187E+03</pdfrwt>
<pdfrwt beam="2">  1       21 0.16699401E+00 0.44810187E+03</pdfrwt>
<totfact> 0.14827562E+03</totfact>
</mgrwt>
</event>
<event>
 4    1  0.4656822E-002  0.4319582E+03  0.7818608E-02  0.1033243E+00
         21   -1    0    0  503  502  0.00000000000E+00  0.00000000000E+00  0.11882756974E+04  0.11882756974E+04  0.00000000000E+00 0. -1.
         21   -1    0    0  501  503 -0.00000000000E+00 -0.00000000000E+00 -0.15702623752E+03  0.15702623752E+03  0.00000000000E+00 0. -1.
    9000007    1    1    2  501    0 -0.96289956356E+02  0.13159062348E+03  0.51814240211E+03  0.67458090452E+03  0.40000000000E+03 0.  1.
   -9000007    1    1    2    0  502  0.96289956356E+02 -0.13159062348E+03  0.51310705778E+03  0.67072103041E+03  0.40000000000E+03 0.  1.
<mgrwt>
<rscale>  2 0.43195816E+03</rscale>
<asrwt>0</asrwt>
<pdfrwt beam="1">  1       21 0.18281164E+00 0.43195816E+03</pdfrwt>
<pdfrwt beam="2">  1       21 0.24157883E-01 0.43195816E+03</pdfrwt>
<totfact> 0.24185937E+03</totfact>
</mgrwt>
</event>
<event>
 4    1  0.4656822E-002  0.4476536E+03  0.7818608E-02  0.1028424E+00
         21   -1    0    0  501  502  0.00000000000E+00  0.00000000000E+00  0.13178920864E+04  0.13178920864E+04  0.00000000000E+00 0. -1.
         21   -1    0    0  502  503 -0.00000000000E+00 -0.00000000000E+00 -0.66724943317E+03  0.66724943317E+03  0.00000000000E+00 0.  1.
    9000007    1    1    2  501    0  0.13359704293E+03  0.15015193323E+03  0.11974938690E+04  0.12784308113E+04  0.40000000000E+03 0. -1.
   -9000007    1    1    2    0  503 -0.13359704293E+03 -0.15015193323E+03 -0.54685121581E+03  0.70671070826E+03  0.40000000000E+03 0.  1.
<mgrwt>
<rscale>  2 0.44765363E+03</rscale>
<asrwt>0</asrwt>
<pdfrwt beam="1">  1       21 0.20275263E+00 0.44765363E+03</pdfrwt>
<pdfrwt beam="2">  1       21 0.10265376E+00 0.44765363E+03</pdfrwt>
<totfact> 0.78775590E+01</totfact>
</mgrwt>
</event>
<event>
 4    1  0.4656822E-002  0.4435710E+03  0.7818608E-02  0.1029657E+00
         21   -1    0    0  501  502  0.00000000000E+00  0.00000000000E+00  0.35420216445E+03  0.35420216445E+03  0.00000000000E+00 0. -1.
         21   -1    0    0  502  503 -0.00000000000E+00 -0.00000000000E+00 -0.71367179840E+03  0.71367179840E+03  0.00000000000E+00 0. -1.
    9000007    1    1    2  501    0 -0.14402554384E+03 -0.12653806854E+03  0.71639558696E+02  0.44931889170E+03  0.40000000000E+03 0. -1.
   -9000007    1    1    2    0  503  0.14402554384E+03  0.12653806854E+03 -0.43110919264E+03  0.61855507115E+03  0.40000000000E+03 0. -1.
<mgrwt>
<rscale>  2 0.44357101E+03</rscale>
<asrwt>0</asrwt>
<pdfrwt beam="1">  1       21 0.54492641E-01 0.44357101E+03</pdfrwt>
<pdfrwt beam="2">  1       21 0.10979566E+00 0.44357101E+03</pdfrwt>
<totfact> 0.17986552E+03</totfact>
</mgrwt>
</event>
<event>
 4    1  0.4656822E-002  0.5337183E+03  0.7818608E-02  0.1005334E+00
         21   -1    0    0  501  502  0.00000000000E+00  0.00000000000E+00  0.18650874599E+04  0.18650874599E+04  0.00000000000E+00 0. -1.
         21   -1    0    0  502  503 -0.00000000000E+00 -0.00000000000E+00 -0.28303821130E+03  0.28303821130E+03  0.00000000000E+00 0.  1.
    9000007    1    1    2  501    0  0.34839328977E+03 -0.58969233160E+02  0.15197982485E+04  0.16107892386E+04  0.40000000000E+03 0. -1.
   -9000007    1    1    2    0  503 -0.34839328977E+03  0.58969233160E+02  0.62251000057E+02  0.53733643262E+03  0.40000000000E+03 0.  1.
<mgrwt>
<rscale>  2 0.53371833E+03</rscale>
<asrwt>0</asrwt>
<pdfrwt beam="1">  1       21 0.28693652E+00 0.53371833E+03</pdfrwt>
<pdfrwt beam="2">  1       21 0.43544341E-01 0.53371833E+03</pdfrwt>
<totfact> 0.15383348E+02</totfact>
</mgrwt>
</event>
<event>
 4    1  0.4656822E-002  0.5016194E+03  0.7818608E-02  0.1013357E+00
         21   -1    0    0  501  502  0.00000000000E+00  0.00000000000E+00  0.43191577891E+03  0.43191577891E+03  0.00000000000E+00 0. -1.
         21   -1    0    0  502  503 -0.00000000000E+00 -0.00000000000E+00 -0.63716470114E+03  0.63716470114E+03  0.00000000000E+00 0.  1.
    9000007    1    1    2  501    0 -0.26696799198E+03 -0.14265394970E+03  0.53842146704E+02  0.50450077787E+03  0.40000000000E+03 0.  1.
   -9000007    1    1    2    0  503  0.26696799198E+03  0.14265394970E+03 -0.25909106893E+03  0.56457970217E+03  0.40000000000E+03 0. -1.
<mgrwt>
<rscale>  2 0.50161944E+03</rscale>
<asrwt>0</asrwt>
<pdfrwt beam="1">  1       21 0.66448581E-01 0.50161944E+03</pdfrwt>
<pdfrwt beam="2">  1       21 0.98025339E-01 0.50161944E+03</pdfrwt>
<totfact> 0.15046591E+03</totfact>
</mgrwt>
</event>
<event>
 4    1  0.4656822E-002  0.4120274E+03  0.7818608E-02  0.1039693E+00
         21   -1    0    0  501  502  0.00000000000E+00  0.00000000000E+00  0.19101268502E+03  0.19101268502E+03  0.00000000000E+00 0. -1.
         21   -1    0    0  502  503 -0.00000000000E+00 -0.00000000000E+00 -0.16918525842E+04  0.16918525842E+04  0.00000000000E+00 0. -1.
    9000007    1    1    2  501    0 -0.14715543559E+01  0.98815164538E+02 -0.10180384458E+03  0.42441798382E+03  0.40000000000E+03 0. -1.
   -9000007    1    1    2    0  503  0.14715543559E+01 -0.98815164538E+02 -0.13990360547E+04  0.14584472854E+04  0.40000000000E+03 0. -1.
<mgrwt>
<rscale>  2 0.41202743E+03</rscale>
<asrwt>0</asrwt>
<pdfrwt beam="1">  1       21 0.29386567E-01 0.41202743E+03</pdfrwt>
<pdfrwt beam="2">  1       21 0.26028501E+00 0.41202743E+03</pdfrwt>
<totfact> 0.53025035E+02</totfact>
</mgrwt>
</event>
<event>
 4    1  0.4656822E-002  0.4867366E+03  0.7818608E-02  0.1017300E+00
         21   -1    0    0  501  502  0.00000000000E+00  0.00000000000E+00  0.66491794154E+03  0.66491794154E+03  0.00000000000E+00 0. -1.
         21   -1    0    0  502  503 -0.00000000000E+00 -0.00000000000E+00 -0.86703596482E+03  0.86703596482E+03  0.00000000000E+00 0.  1.
    9000007    1    1    2  501    0 -0.27163601526E+02  0.27599754216E+03 -0.68894611542E+03  0.84353971720E+03  0.40000000000E+03 0.  1.
   -9000007    1    1    2    0  503  0.27163601526E+02 -0.27599754216E+03  0.48682809215E+03  0.68841418916E+03  0.40000000000E+03 0. -1.
<mgrwt>
<rscale>  2 0.48673659E+03</rscale>
<asrwt>0</asrwt>
<pdfrwt beam="1">  1       21 0.10229507E+00 0.48673659E+03</pdfrwt>
<pdfrwt beam="2">  1       21 0.13339015E+00 0.48673659E+03</pdfrwt>
<totfact> 0.25462503E+02</totfact>
</mgrwt>
</event>
<event>
 4    1  0.4656822E-002  0.5148796E+03  0.7818608E-02  0.1009966E+00
         21   -1    0    0  501  502  0.00000000000E+00  0.00000000000E+00  0.50541218753E+03  0.50541218753E+03  0.00000000000E+00 0. -1.
         21   -1    0    0  502  503 -0.00000000000E+00 -0.00000000000E+00 -0.61015691355E+03  0.61015691355E+03  0.00000000000E+00 0. -1.
    9000007    1    1    2  501    0  0.25908632832E+03 -0.19487233566E+03  0.15658872384E+03  0.53816445550E+03  0.40000000000E+03 0. -1.
   -9000007    1    1    2    0  503 -0.25908632832E+03  0.19487233566E+03 -0.26133344985E+03  0.57740464558E+03  0.40000000000E+03 0. -1.
<mgrwt>
<rscale>  2 0.51487955E+03</rscale>
<asrwt>0</asrwt>
<pdfrwt beam="1">  1       21 0.77755721E-01 0.51487955E+03</pdfrwt>
<pdfrwt beam="2">  1       21 0.93870294E-01 0.51487955E+03</pdfrwt>
<totfact> 0.11637969E+03</totfact>
</mgrwt>
</event>
<event>
 4    1  0.4656822E-002  0.4625142E+03  0.7818608E-02  0.1024055E+00
         21   -1    0    0  503  502  0.00000000000E+00  0.00000000000E+00  0.13628109535E+04  0.13628109535E+04  0.00000000000E+00 0.  1.
         21   -1    0    0  501  503 -0.00000000000E+00 -0.00000000000E+00 -0.16100121898E+03  0.16100121898E+03  0.00000000000E+00 0. -1.
    9000007    1    1    2  501    0  0.19084727033E+03 -0.13227497274E+03  0.48033244362E+03  0.66681227148E+03  0.40000000000E+03 0.  1.
   -9000007    1    1    2    0  502 -0.19084727033E+03  0.13227497274E+03  0.72147729086E+03  0.85699990095E+03  0.40000000000E+03 0. -1.
<mgrwt>
<rscale>  2 0.46251416E+03</rscale>
<asrwt>0</asrwt>
<pdfrwt beam="1">  1       21 0.20966322E+00 0.46251416E+03</pdfrwt>
<pdfrwt beam="2">  1       21 0.24769419E-01 0.46251416E+03</pdfrwt>
<totfact> 0.14993328E+03</totfact>
</mgrwt>
</event>
<event>
 4    1  0.4656822E-002  0.4589210E+03  0.7818608E-02  0.1025095E+00
         21   -1    0    0  501  502  0.00000000000E+00  0.00000000000E+00  0.89579706790E+03  0.89579706790E+03  0.00000000000E+00 0. -1.
         21   -1    0    0  502  503 -0.00000000000E+00 -0.00000000000E+00 -0.25059474473E+03  0.25059474473E+03  0.00000000000E+00 0. -1.
    9000007    1    1    2  501    0  0.97510966394E+02  0.20273148649E+03  0.46509850342E+03  0.65339502758E+03  0.40000000000E+03 0. -1.
   -9000007    1    1    2    0  503 -0.97510966394E+02 -0.20273148649E+03  0.18010381974E+03  0.49299678505E+03  0.40000000000E+03 0. -1.
<mgrwt>
<rscale>  2 0.45892096E+03</rscale>
<asrwt>0</asrwt>
<pdfrwt beam="1">  1       21 0.13781493E+00 0.45892096E+03</pdfrwt>
<pdfrwt beam="2">  1       21 0.38553038E-01 0.45892096E+03</pdfrwt>
<totfact> 0.20691317E+03</totfact>
</mgrwt>
</event>
<event>
 4    1  0.4656822E-002  0.4647774E+03  0.7818608E-02  0.1023405E+00
         21   -1    0    0  501  502  0.00000000000E+00  0.00000000000E+00  0.49415698746E+03  0.49415698746E+03  0.00000000000E+00 0.  1.
         21   -1    0    0  502  503 -0.00000000000E+00 -0.00000000000E+00 -0.71651121308E+03  0.71651121308E+03  0.00000000000E+00 0.  1.
    9000007    1    1    2  501    0  0.16587184240E+03 -0.16883307533E+03  0.26680466984E+03  0.53591305944E+03  0.40000000000E+03 0.  1.
   -9000007    1    1    2    0  503 -0.16587184240E+03  0.16883307533E+03 -0.48915889547E+03  0.67475514110E+03  0.40000000000E+03 0.  1.
<mgrwt>
<rscale>  2 0.46477745E+03</rscale>
<asrwt>0</asrwt>
<pdfrwt beam="1">  1       21 0.76024152E-01 0.46477745E+03</pdfrwt>
<pdfrwt beam="2">  1       21 0.11023249E+00 0.46477745E+03</pdfrwt>
<totfact> 0.84323914E+02</totfact>
</mgrwt>
</event>
<event>
 4    1  0.4656822E-002  0.4108814E+03  0.7818608E-02  0.1040076E+00
         21   -1    0    0  501  502  0.00000000000E+00  0.00000000000E+00  0.17415740197E+03  0.17415740197E+03  0.00000000000E+00 0.  1.
         21   -1    0    0  502  503 -0.00000000000E+00 -0.00000000000E+00 -0.10109642000E+04  0.10109642000E+04  0.00000000000E+00 0.  1.
    9000007    1    1    2  501    0 -0.93488411982E+02  0.91350672122E+01 -0.29821452282E+03  0.50769620271E+03  0.40000000000E+03 0.  1.
   -9000007    1    1    2    0  503  0.93488411982E+02 -0.91350672122E+01 -0.53859227520E+03  0.67742539924E+03  0.40000000000E+03 0.  1.
<mgrwt>
<rscale>  2 0.41088141E+03</rscale>
<asrwt>0</asrwt>
<pdfrwt beam="1">  1       21 0.26793447E-01 0.41088141E+03</pdfrwt>
<pdfrwt beam="2">  1       21 0.15553295E+00 0.41088141E+03</pdfrwt>
<totfact> 0.31547272E+03</totfact>
</mgrwt>
</event>
<event>
 4    1  0.4656822E-002  0.4583922E+03  0.7818608E-02  0.1025249E+00
         21   -1    0    0  503  502  0.00000000000E+00  0.00000000000E+00  0.25960756469E+03  0.25960756469E+03  0.00000000000E+00 0.  1.
         21   -1    0    0  501  503 -0.00000000000E+00 -0.00000000000E+00 -0.12519999810E+04  0.12519999810E+04  0.00000000000E+00 0.  1.
    9000007    1    1    2  501    0  0.22102000887E+03 -0.35686424019E+02 -0.94558088004E+03  0.10508313689E+04  0.40000000000E+03 0.  1.
   -9000007    1    1    2    0  502 -0.22102000887E+03  0.35686424019E+02 -0.46811536282E+02  0.46077617680E+03  0.40000000000E+03 0.  1.
<mgrwt>
<rscale>  2 0.45839215E+03</rscale>
<asrwt>0</asrwt>
<pdfrwt beam="1">  1       21 0.39939624E-01 0.45839215E+03</pdfrwt>
<pdfrwt beam="2">  1       21 0.19261539E+00 0.45839215E+03</pdfrwt>
<totfact> 0.75041322E+02</totfact>
</mgrwt>
</event>
<event>
 4    1  0.4656822E-002  0.5222611E+03  0.7818608E-02  0.1008126E+00
         21   -1    0    0  501  502  0.00000000000E+00  0.00000000000E+00  0.42276020343E+03  0.42276020343E+03  0.00000000000E+00 0. -1.
         21   -1    0    0  502  503 -0.00000000000E+00 -0.00000000000E+00 -0.12836978505E+04  0.12836978505E+04  0.00000000000E+00 0. -1.
    9000007    1    1    2  501    0 -0.10321359654E+02  0.33563385655E+03  0.17128739225E+03  0.54963259262E+03  0.40000000000E+03 0. -1.
   -9000007    1    1    2    0  503  0.10321359654E+02 -0.33563385655E+03 -0.10322250393E+04  0.11568254613E+04  0.40000000000E+03 0. -1.
<mgrwt>
<rscale>  2 0.52226106E+03</rscale>
<asrwt>0</asrwt>
<pdfrwt beam="1">  1       21 0.65040031E-01 0.52226106E+03</pdfrwt>
<pdfrwt beam="2">  1       21 0.19749198E+00 0.52226106E+03</pdfrwt>
<totfact> 0.23789623E+02</totfact>
</mgrwt>
</event>
<event>
 4    1  0.4656822E-002  0.4268306E+03  0.7818608E-02  0.1034866E+00
         21   -1    0    0  501  502  0.00000000000E+00  0.00000000000E+00  0.13147459667E+04  0.13147459667E+04  0.00000000000E+00 0. -1.
         21   -1    0    0  502  503 -0.00000000000E+00 -0.00000000000E+00 -0.21424525269E+03  0.21424525269E+03  0.00000000000E+00 0. -1.
    9000007    1    1    2  501    0  0.12127450611E+03  0.86468753288E+02  0.10046064186E+04  0.10915211438E+04  0.40000000000E+03 0. -1.
   -9000007    1    1    2    0  503 -0.12127450611E+03 -0.86468753288E+02  0.95894295431E+02  0.43747007558E+03  0.40000000000E+03 0. -1.
<mgrwt>
<rscale>  2 0.42683059E+03</rscale>
<asrwt>0</asrwt>
<pdfrwt beam="1">  1       21 0.20226861E+00 0.42683059E+03</pdfrwt>
<pdfrwt beam="2">  1       21 0.32960809E-01 0.42683059E+03</pdfrwt>
<totfact> 0.96942256E+02</totfact>
</mgrwt>
</event>
<event>
 4    1  0.4656822E-002  0.4098758E+03  0.7818608E-02  0.1040413E+00
         21   -1    0    0  503  502  0.00000000000E+00  0.00000000000E+00  0.20461320112E+04  0.20461320112E+04  0.00000000000E+00 0. -1.
         21   -1    0    0  501  503 -0.00000000000E+00 -0.00000000000E+00 -0.10682344655E+03  0.10682344655E+03  0.00000000000E+00 0. -1.
    9000007    1    1    2  501    0  0.80326617177E+02 -0.39316400747E+02  0.45183251893E+03  0.61004161330E+03  0.40000000000E+03 0. -1.
   -9000007    1    1    2    0  502 -0.80326617177E+02  0.39316400747E+02  0.14874760457E+04  0.15429138445E+04  0.40000000000E+03 0. -1.
<mgrwt>
<rscale>  2 0.40987577E+03</rscale>
<asrwt>0</asrwt>
<pdfrwt beam="1">  1       21 0.31478951E+00 0.40987577E+03</pdfrwt>
<pdfrwt beam="2">  1       21 0.16434378E-01 0.40987577E+03</pdfrwt>
<totfact> 0.76196646E+02</totfact>
</mgrwt>
</event>
<event>
 4    1  0.4656822E-002  0.4113422E+03  0.7818608E-02  0.1039922E+00
         21   -1    0    0  501  502  0.00000000000E+00  0.00000000000E+00  0.41972892871E+03  0.41972892871E+03  0.00000000000E+00 0. -1.
         21   -1    0    0  502  503 -0.00000000000E+00 -0.00000000000E+00 -0.54177221927E+03  0.54177221927E+03  0.00000000000E+00 0. -1.
    9000007    1    1    2  501    0 -0.49261591647E+00  0.95927754957E+02  0.18218206151E+03  0.44988074017E+03  0.40000000000E+03 0. -1.
   -9000007    1    1    2    0  503  0.49261591647E+00 -0.95927754957E+02 -0.30422535207E+03  0.51162040781E+03  0.40000000000E+03 0. -1.
<mgrwt>
<rscale>  2 0.41134217E+03</rscale>
<asrwt>0</asrwt>
<pdfrwt beam="1">  1       21 0.64573682E-01 0.41134217E+03</pdfrwt>
<pdfrwt beam="2">  1       21 0.83349572E-01 0.41134217E+03</pdfrwt>
<totfact> 0.24367670E+03</totfact>
</mgrwt>
</event>
<event>
 4    1  0.4656822E-002  0.4172276E+03  0.7818608E-02  0.1037972E+00
         21   -1    0    0  501  502  0.00000000000E+00  0.00000000000E+00  0.91973116931E+03  0.91973116931E+03  0.00000000000E+00 0.  1.
         21   -1    0    0  502  503 -0.00000000000E+00 -0.00000000000E+00 -0.33941994285E+03  0.33941994285E+03  0.00000000000E+00 0.  1.
    9000007    1    1    2  501    0 -0.11319151259E+03 -0.35588177869E+02  0.70889102701E+03  0.82256022582E+03  0.40000000000E+03 0.  1.
   -9000007    1    1    2    0  503  0.11319151259E+03  0.35588177869E+02 -0.12857980055E+03  0.43659088634E+03  0.40000000000E+03 0.  1.
<mgrwt>
<rscale>  2 0.41722756E+03</rscale>
<asrwt>0</asrwt>
<pdfrwt beam="1">  1       21 0.14149710E+00 0.41722756E+03</pdfrwt>
<pdfrwt beam="2">  1       21 0.52218453E-01 0.41722756E+03</pdfrwt>
<totfact> 0.10401386E+03</totfact>
</mgrwt>
</event>
<event>
 4    1  0.4656822E-002  0.5203271E+03  0.7818608E-02  0.1008605E+00
         21   -1    0    0  501  502  0.00000000000E+00  0.00000000000E+00  0.32866628595E+03  0.32866628595E+03  0.00000000000E+00 0. -1.
         21   -1    0    0  502  503 -0.00000000000E+00 -0.00000000000E+00 -0.84116102365E+03  0.84116102365E+03  0.00000000000E+00 0.  1.
    9000007    1    1    2  501    0 -0.23438353395E+03 -0.23623002877E+03 -0.34038894880E+03  0.62177560578E+03  0.40000000000E+03 0.  1.
   -9000007    1    1    2    0  503  0.23438353395E+03  0.23623002877E+03 -0.17210578890E+03  0.54805170381E+03  0.40000000000E+03 0. -1.
<mgrwt>
<rscale>  2 0.52032708E+03</rscale>
<asrwt>0</asrwt>
<pdfrwt beam="1">  1       21 0.50564044E-01 0.52032708E+03</pdfrwt>
<pdfrwt beam="2">  1       21 0.12940939E+00 0.52032708E+03</pdfrwt>
<totfact> 0.13525484E+03</totfact>
</mgrwt>
</event>
<event>
 4    1  0.4656822E-002  0.4666291E+03  0.7818608E-02  0.1022876E+00
         21   -1    0    0  503  502  0.00000000000E+00  0.00000000000E+00  0.38260357510E+03  0.38260357510E+03  0.00000000000E+00 0.  1.
         21   -1    0    0  501  503 -0.00000000000E+00 -0.00000000000E+00 -0.17680348737E+04  0.17680348737E+04  0.00000000000E+00 0.  1.
    9000007    1    1    2  501    0 -0.11895819580E+03  0.20878621556E+03 -0.15782152163E+04  0.16457539322E+04  0.40000000000E+03 0.  1.
   -9000007    1    1    2    0  502  0.11895819580E+03 -0.20878621556E+03  0.19278391777E+03  0.50488451661E+03  0.40000000000E+03 0.  1.
<mgrwt>
<rscale>  2 0.46662912E+03</rscale>
<asrwt>0</asrwt>
<pdfrwt beam="1">  1       21 0.58862089E-01 0.46662912E+03</pdfrwt>
<pdfrwt beam="2">  1       21 0.27200536E+00 0.46662912E+03</pdfrwt>
<totfact> 0.10322911E+02</totfact>
</mgrwt>
</event>
<event>
 4    1  0.4656822E-002  0.4464424E+03  0.7818608E-02  0.1028788E+00
         21   -1    0    0  503  502  0.00000000000E+00  0.00000000000E+00  0.35473838086E+03  0.35473838086E+03  0.00000000000E+00 0.  1.
         21   -1    0    0  501  503 -0.00000000000E+00 -0.00000000000E+00 -0.86629219261E+03  0.86629219261E+03  0.00000000000E+00 0.  1.
    9000007    1    1    2  501    0 -0.10200142196E+03  0.17001918630E+03 -0.61769862224E+03  0.76214329473E+03  0.40000000000E+03 0.  1.
   -9000007    1    1    2    0  502  0.10200142196E+03 -0.17001918630E+03  0.10614481050E+03  0.45888727874E+03  0.40000000000E+03 0.  1.
<mgrwt>
<rscale>  2 0.44644240E+03</rscale>
<asrwt>0</asrwt>
<pdfrwt beam="1">  1       21 0.54575136E-01 0.44644240E+03</pdfrwt>
<pdfrwt beam="2">  1       21 0.13327572E+00 0.44644240E+03</pdfrwt>
<totfact> 0.10938023E+03</totfact>
</mgrwt>
</event>
<event>
 4    1  0.4656822E-002  0.4047845E+03  0.7818608E-02  0.1042135E+00
         21   -1    0    0  503  502  0.00000000000E+00  0.00000000000E+00  0.69637540372E+03  0.69637540372E+03  0.00000000000E+00 0. -1.
         21   -1    0    0  501  503 -0.00000000000E+00 -0.00000000000E+00 -0.26958697288E+03  0.26958697288E+03  0.00000000000E+00 0. -1.
    9000007    1    1    2  501    0  0.61868026177E+02 -0.47792061740E+01  0.41125780899E+02  0.40686831202E+03  0.40000000000E+03 0. -1.
   -9000007    1    1    2    0  502 -0.61868026177E+02  0.47792061740E+01  0.38566264994E+03  0.55909406457E+03  0.40000000000E+03 0. -1.
<mgrwt>
<rscale>  2 0.40478450E+03</rscale>
<asrwt>0</asrwt>
<pdfrwt beam="1">  1       21 0.10713468E+00 0.40478450E+03</pdfrwt>
<pdfrwt beam="2">  1       21 0.41474919E-01 0.40478450E+03</pdfrwt>
<totfact> 0.34509901E+03</totfact>
</mgrwt>
</event>
<event>
 4    1  0.4656822E-002  0.5715871E+03  0.7818608E-02  0.9966173E-01
         21   -1    0    0  501  502  0.00000000000E+00  0.00000000000E+00  0.39867374105E+03  0.39867374105E+03  0.00000000000E+00 0. -1.
         21   -1    0    0  502  503 -0.00000000000E+00 -0.00000000000E+00 -0.99753941627E+03  0.99753941627E+03  0.00000000000E+00 0.  1.
    9000007    1    1    2  501    0 -0.39577802144E+03  0.10035733369E+03 -0.45029822025E+01  0.57160485786E+03  0.40000000000E+03 0. -1.
   -9000007    1    1    2    0  503  0.39577802144E+03 -0.10035733369E+03 -0.59436269302E+03  0.82460829946E+03  0.40000000000E+03 0.  1.
<mgrwt>
<rscale>  2 0.57158712E+03</rscale>
<asrwt>0</asrwt>
<pdfrwt beam="1">  1       21 0.61334422E-01 0.57158712E+03</pdfrwt>
<pdfrwt beam="2">  1       21 0.15346760E+00 0.57158712E+03</pdfrwt>
<totfact> 0.55295534E+02</totfact>
</mgrwt>
</event>
<event>
 4    1  0.4656822E-002  0.4819476E+03  0.7818608E-02  0.1018601E+00
         21   -1    0    0  501  502  0.00000000000E+00  0.00000000000E+00  0.39799513825E+03  0.39799513825E+03  0.00000000000E+00 0. -1.
         21   -1    0    0  502  503 -0.00000000000E+00 -0.00000000000E+00 -0.66686506545E+03  0.66686506545E+03  0.00000000000E+00 0.  1.
    9000007    1    1    2  501    0 -0.20253649695E+03  0.17678355419E+03 -0.32256239648E+03  0.57993099353E+03  0.40000000000E+03 0.  1.
   -9000007    1    1    2    0  503  0.20253649695E+03 -0.17678355419E+03  0.53692469283E+02  0.48492921018E+03  0.40000000000E+03 0. -1.
<mgrwt>
<rscale>  2 0.48194757E+03</rscale>
<asrwt>0</asrwt>
<pdfrwt beam="1">  1       21 0.61230022E-01 0.48194757E+03</pdfrwt>
<pdfrwt beam="2">  1       21 0.10259462E+00 0.48194757E+03</pdfrwt>
<totfact> 0.16257684E+03</totfact>
</mgrwt>
</event>
<event>
 4    1  0.4656822E-002  0.5074287E+03  0.7818608E-02  0.1011858E+00
         21   -1    0    0  503  502  0.00000000000E+00  0.00000000000E+00  0.78043591037E+03  0.78043591037E+03  0.00000000000E+00 0. -1.
         21   -1    0    0  501  503 -0.00000000000E+00 -0.00000000000E+00 -0.33262375890E+03  0.33262375890E+03  0.00000000000E+00 0. -1.
    9000007    1    1    2  501    0 -0.74724799319E+02  0.30315021072E+03  0.17375900700E+03  0.53635439628E+03  0.40000000000E+03 0. -1.
   -9000007    1    1    2    0  502  0.74724799319E+02 -0.30315021072E+03  0.27405314447E+03  0.57670527299E+03  0.40000000000E+03 0. -1.
<mgrwt>
<rscale>  2 0.50742866E+03</rscale>
<asrwt>0</asrwt>
<pdfrwt beam="1">  1       21 0.12006706E+00 0.50742866E+03</pdfrwt>
<pdfrwt beam="2">  1       21 0.51172886E-01 0.50742866E+03</pdfrwt>
<totfact> 0.16066553E+03</totfact>
</mgrwt>
</event>
<event>
 4    1  0.4656822E-002  0.4666126E+03  0.7818608E-02  0.1022881E+00
         21   -1    0    0  501  502  0.00000000000E+00  0.00000000000E+00  0.26587314956E+03  0.26587314956E+03  0.00000000000E+00 0. -1.
         21   -1    0    0  502  503 -0.00000000000E+00 -0.00000000000E+00 -0.10951577703E+04  0.10951577703E+04  0.00000000000E+00 0. -1.
    9000007    1    1    2  501    0 -0.24023599117E+03 -0.37458039358E+01 -0.72863173452E+02  0.47226730201E+03  0.40000000000E+03 0. -1.
   -9000007    1    1    2    0  503  0.24023599117E+03  0.37458039358E+01 -0.75642144727E+03  0.88876361783E+03  0.40000000000E+03 0. -1.
<mgrwt>
<rscale>  2 0.46661265E+03</rscale>
<asrwt>0</asrwt>
<pdfrwt beam="1">  1       21 0.40903562E-01 0.46661265E+03</pdfrwt>
<pdfrwt beam="2">  1       21 0.16848581E+00 0.46661265E+03</pdfrwt>
<totfact> 0.10529608E+03</totfact>
</mgrwt>
</event>
<event>
 4    1  0.4656822E-002  0.4540765E+03  0.7818608E-02  0.1026513E+00
         21   -1    0    0  503  502  0.00000000000E+00  0.00000000000E+00  0.23908631250E+03  0.23908631250E+03  0.00000000000E+00 0.  1.
         21   -1    0    0  501  503 -0.00000000000E+00 -0.00000000000E+00 -0.10230494975E+04  0.10230494975E+04  0.00000000000E+00 0. -1.
    9000007    1    1    2  501    0  0.76050350312E+02  0.20100190950E+03 -0.64206347222E+03  0.78640379308E+03  0.40000000000E+03 0. -1.
   -9000007    1    1    2    0  502 -0.76050350312E+02 -0.20100190950E+03 -0.14189971274E+03  0.47573201687E+03  0.40000000000E+03 0.  1.
<mgrwt>
<rscale>  2 0.45407645E+03</rscale>
<asrwt>0</asrwt>
<pdfrwt beam="1">  1       21 0.36782511E-01 0.45407645E+03</pdfrwt>
<pdfrwt beam="2">  1       21 0.15739223E+00 0.45407645E+03</pdfrwt>
<totfact> 0.15934043E+03</totfact>
</mgrwt>
</event>
<event>
 4    1  0.4656822E-002  0.4490319E+03  0.7818608E-02  0.1028011E+00
         21   -1    0    0  503  502  0.00000000000E+00  0.00000000000E+00  0.35380666785E+03  0.35380666785E+03  0.00000000000E+00 0. -1.
         21   -1    0    0  501  503 -0.00000000000E+00 -0.00000000000E+00 -0.76443486301E+03  0.76443486301E+03  0.00000000000E+00 0. -1.
    9000007    1    1    2  501    0 -0.32168380052E+02 -0.20148172361E+03 -0.48737898359E+03  0.66269749002E+03  0.40000000000E+03 0. -1.
   -9000007    1    1    2    0  502  0.32168380052E+02  0.20148172361E+03  0.76750788429E+02  0.45554404085E+03  0.40000000000E+03 0. -1.
<mgrwt>
<rscale>  2 0.44903195E+03</rscale>
<asrwt>0</asrwt>
<pdfrwt beam="1">  1       21 0.54431795E-01 0.44903195E+03</pdfrwt>
<pdfrwt beam="2">  1       21 0.11760536E+00 0.44903195E+03</pdfrwt>
<totfact> 0.15156529E+03</totfact>
</mgrwt>
</event>
<event>
 4    1  0.4656822E-002  0.5768396E+03  0.7818608E-02  0.9954657E-01
         21   -1    0    0  503  502  0.00000000000E+00  0.00000000000E+00  0.18906945851E+03  0.18906945851E+03  0.00000000000E+00 0. -1.
         21   -1    0    0  501  503 -0.00000000000E+00 -0.00000000000E+00 -0.19714268068E+04  0.19714268068E+04  0.00000000000E+00 0.  1.
    9000007    1    1    2  501    0 -0.34661553559E+03  0.22935044582E+03 -0.12450232599E+04  0.13721613878E+04  0.40000000000E+03 0.  1.
   -9000007    1    1    2    0  502  0.34661553559E+03 -0.22935044582E+03 -0.53733408834E+03  0.78833487745E+03  0.40000000000E+03 0. -1.
<mgrwt>
<rscale>  2 0.57683963E+03</rscale>
<asrwt>0</asrwt>
<pdfrwt beam="1">  1       21 0.29087609E-01 0.57683963E+03</pdfrwt>
<pdfrwt beam="2">  1       21 0.30329644E+00 0.57683963E+03</pdfrwt>
<totfact> 0.27282356E+02</totfact>
</mgrwt>
</event>
<event>
 4    1  0.4656822E-002  0.4079064E+03  0.7818608E-02  0.1041076E+00
         21   -1    0    0  503  502  0.00000000000E+00  0.00000000000E+00  0.20049732831E+04  0.20049732831E+04  0.00000000000E+00 0.  1.
         21   -1    0    0  501  503 -0.00000000000E+00 -0.00000000000E+00 -0.11115160478E+03  0.11115160478E+03  0.00000000000E+00 0.  1.
    9000007    1    1    2  501    0  0.44610052093E+02 -0.66314195420E+02  0.41431011014E+03  0.58141250127E+03  0.40000000000E+03 0.  1.
   -9000007    1    1    2    0  502 -0.44610052093E+02  0.66314195420E+02  0.14795115682E+04  0.15347123866E+04  0.40000000000E+03 0.  1.
<mgrwt>
<rscale>  2 0.40790640E+03</rscale>
<asrwt>0</asrwt>
<pdfrwt beam="1">  1       21 0.30845740E+00 0.40790640E+03</pdfrwt>
<pdfrwt beam="2">  1       21 0.17100248E-01 0.40790640E+03</pdfrwt>
<totfact> 0.77306689E+02</totfact>
</mgrwt>
</event>
<event>
 4    1  0.4656822E-002  0.4175889E+03  0.7818608E-02  0.1037854E+00
         21   -1    0    0  503  502  0.00000000000E+00  0.00000000000E+00  0.26117281452E+03  0.26117281452E+03  0.00000000000E+00 0. -1.
         21   -1    0    0  501  503 -0.00000000000E+00 -0.00000000000E+00 -0.73087109258E+03  0.73087109258E+03  0.00000000000E+00 0. -1.
    9000007    1    1    2  501    0  0.11354855663E+03  0.38564953345E+02 -0.38069687142E+03  0.56507578098E+03  0.40000000000E+03 0. -1.
   -9000007    1    1    2    0  502 -0.11354855663E+03 -0.38564953345E+02 -0.89001406634E+02  0.42696812612E+03  0.40000000000E+03 0. -1.
<mgrwt>
<rscale>  2 0.41758895E+03</rscale>
<asrwt>0</asrwt>
<pdfrwt beam="1">  1       21 0.40180434E-01 0.41758895E+03</pdfrwt>
<pdfrwt beam="2">  1       21 0.11244170E+00 0.41758895E+03</pdfrwt>
<totfact> 0.32525107E+03</totfact>
</mgrwt>
</event>
<event>
 4    1  0.4656822E-002  0.6145391E+03  0.7818608E-02  0.9875693E-01
         21   -1    0    0  501  502  0.00000000000E+00  0.00000000000E+00  0.35623349491E+03  0.35623349491E+03  0.00000000000E+00 0. -1.
         21   -1    0    0  502  503 -0.00000000000E+00 -0.00000000000E+00 -0.12997244089E+04  0.12997244089E+04  0.00000000000E+00 0.  1.
    9000007    1    1    2  501    0  0.36627246606E+03  0.28896849368E+03 -0.11626104380E+03  0.62543979730E+03  0.40000000000E+03 0. -1.
   -9000007    1    1    2    0  503 -0.36627246606E+03 -0.28896849368E+03 -0.82722987021E+03  0.10305181065E+04  0.40000000000E+03 0.  1.
<mgrwt>
<rscale>  2 0.61453910E+03</rscale>
<asrwt>0</asrwt>
<pdfrwt beam="1">  1       21 0.54805152E-01 0.61453910E+03</pdfrwt>
<pdfrwt beam="2">  1       21 0.19995760E+00 0.61453910E+03</pdfrwt>
<totfact> 0.32151113E+02</totfact>
</mgrwt>
</event>
<event>
 4    1  0.4656822E-002  0.4622615E+03  0.7818608E-02  0.1024127E+00
         21   -1    0    0  503  502  0.00000000000E+00  0.00000000000E+00  0.13882623435E+03  0.13882623435E+03  0.00000000000E+00 0. -1.
         21   -1    0    0  501  503 -0.00000000000E+00 -0.00000000000E+00 -0.19553864212E+04  0.19553864212E+04  0.00000000000E+00 0. -1.
    9000007    1    1    2  501    0 -0.87912044500E+02  0.21437618117E+03 -0.42521890226E+03  0.62808979411E+03  0.40000000000E+03 0. -1.
   -9000007    1    1    2    0  502  0.87912044500E+02 -0.21437618117E+03 -0.13913412846E+04  0.14661228614E+04  0.40000000000E+03 0. -1.
<mgrwt>
<rscale>  2 0.46226148E+03</rscale>
<asrwt>0</asrwt>
<pdfrwt beam="1">  1       21 0.21357883E-01 0.46226148E+03</pdfrwt>
<pdfrwt beam="2">  1       21 0.30082867E+00 0.46226148E+03</pdfrwt>
<totfact> 0.54641059E+02</totfact>
</mgrwt>
</event>
<event>
 4    1  0.4656822E-002  0.6720302E+03  0.7818608E-02  0.9766297E-01
         21   -1    0    0  501  502  0.00000000000E+00  0.00000000000E+00  0.24937012980E+04  0.24937012980E+04  0.00000000000E+00 0. -1.
         21   -1    0    0  502  503 -0.00000000000E+00 -0.00000000000E+00 -0.18999982371E+03  0.18999982371E+03  0.00000000000E+00 0. -1.
    9000007    1    1    2  501    0  0.51161457389E+03  0.17284405117E+03  0.14421655251E+04  0.15910581196E+04  0.40000000000E+03 0. -1.
   -9000007    1    1    2    0  503 -0.51161457389E+03 -0.17284405117E+03  0.86153594915E+03  0.10926430020E+04  0.40000000000E+03 0. -1.
<mgrwt>
<rscale>  2 0.67203016E+03</rscale>
<asrwt>0</asrwt>
<pdfrwt beam="1">  1       21 0.38364633E+00 0.67203016E+03</pdfrwt>
<pdfrwt beam="2">  1       21 0.29230744E-01 0.67203016E+03</pdfrwt>
<totfact> 0.82103152E+01</totfact>
</mgrwt>
</event>
<event>
 4    1  0.4656822E-002  0.4143183E+03  0.7818608E-02  0.1038932E+00
         21   -1    0    0  503  502  0.00000000000E+00  0.00000000000E+00  0.12077396664E+04  0.12077396664E+04  0.00000000000E+00 0.  1.
         21   -1    0    0  501  503 -0.00000000000E+00 -0.00000000000E+00 -0.55811931357E+03  0.55811931357E+03  0.00000000000E+00 0.  1.
    9000007    1    1    2  501    0  0.77683264971E+02  0.74999735885E+02 -0.43744787979E+03  0.60251165763E+03  0.40000000000E+03 0.  1.
   -9000007    1    1    2    0  502 -0.77683264971E+02 -0.74999735885E+02  0.10870682326E+04  0.11633473223E+04  0.40000000000E+03 0.  1.
<mgrwt>
<rscale>  2 0.41431830E+03</rscale>
<asrwt>0</asrwt>
<pdfrwt beam="1">  1       21 0.18580610E+00 0.41431830E+03</pdfrwt>
<pdfrwt beam="2">  1       21 0.85864510E-01 0.41431830E+03</pdfrwt>
<totfact> 0.16025314E+02</totfact>
</mgrwt>
</event>
<event>
 4    1  0.4656822E-002  0.4132438E+03  0.7818608E-02  0.1039288E+00
         21   -1    0    0  501  502  0.00000000000E+00  0.00000000000E+00  0.22787125617E+03  0.22787125617E+03  0.00000000000E+00 0. -1.
         21   -1    0    0  502  503 -0.00000000000E+00 -0.00000000000E+00 -0.15531001165E+04  0.15531001165E+04  0.00000000000E+00 0. -1.
    9000007    1    1    2  501    0 -0.43721118941E+02  0.94121827964E+02 -0.13031891621E+04  0.13671402440E+04  0.40000000000E+03 0. -1.
   -9000007    1    1    2    0  503  0.43721118941E+02 -0.94121827964E+02 -0.22039698274E+02  0.41383112865E+03  0.40000000000E+03 0. -1.
<mgrwt>
<rscale>  2 0.41324382E+03</rscale>
<asrwt>0</asrwt>
<pdfrwt beam="1">  1       21 0.35057116E-01 0.41324382E+03</pdfrwt>
<pdfrwt beam="2">  1       21 0.23893848E+00 0.41324382E+03</pdfrwt>
<totfact> 0.50312845E+02</totfact>
</mgrwt>
</event>
<event>
 4    1  0.4656822E-002  0.4309630E+03  0.7818608E-02  0.1033556E+00
         21   -1    0    0  503  502  0.00000000000E+00  0.00000000000E+00  0.26370503366E+03  0.26370503366E+03  0.00000000000E+00 0. -1.
         21   -1    0    0  501  503 -0.00000000000E+00 -0.00000000000E+00 -0.83351053161E+03  0.83351053161E+03  0.00000000000E+00 0.  1.
    9000007    1    1    2  501    0 -0.14811931661E+03  0.61561118569E+02 -0.68907165093E+02  0.43643705236E+03  0.40000000000E+03 0. -1.
   -9000007    1    1    2    0  502  0.14811931661E+03 -0.61561118569E+02 -0.50089833285E+03  0.66077851291E+03  0.40000000000E+03 0. -1.
<mgrwt>
<rscale>  2 0.43096300E+03</rscale>
<asrwt>0</asrwt>
<pdfrwt beam="1">  1       21 0.40570006E-01 0.43096300E+03</pdfrwt>
<pdfrwt beam="2">  1       21 0.12823239E+00 0.43096300E+03</pdfrwt>
<totfact> 0.22732039E+03</totfact>
</mgrwt>
</event>
<event>
 4    1  0.4656822E-002  0.4053387E+03  0.7818608E-02  0.1041947E+00
         21   -1    0    0  503  502  0.00000000000E+00  0.00000000000E+00  0.24488499881E+03  0.24488499881E+03  0.00000000000E+00 0.  1.
         21   -1    0    0  501  503 -0.00000000000E+00 -0.00000000000E+00 -0.67486124776E+03  0.67486124776E+03  0.00000000000E+00 0.  1.
    9000007    1    1    2  501    0  0.32392959565E+02 -0.57010364359E+02 -0.25010921734E+03  0.47629203864E+03  0.40000000000E+03 0.  1.
   -9000007    1    1    2    0  502 -0.32392959565E+02  0.57010364359E+02 -0.17986703161E+03  0.44345420793E+03  0.40000000000E+03 0.  1.
<mgrwt>
<rscale>  2 0.40533873E+03</rscale>
<asrwt>0</asrwt>
<pdfrwt beam="1">  1       21 0.37674615E-01 0.40533873E+03</pdfrwt>
<pdfrwt beam="2">  1       21 0.10382481E+00 0.40533873E+03</pdfrwt>
<totfact> 0.45390866E+03</totfact>
</mgrwt>
</event>
<event>
 4    1  0.4656822E-002  0.5707384E+03  0.7818608E-02  0.9968046E-01
         21   -1    0    0  503  502  0.00000000000E+00  0.00000000000E+00  0.27901389372E+03  0.27901389372E+03  0.00000000000E+00 0. -1.
         21   -1    0    0  501  503 -0.00000000000E+00 -0.00000000000E+00 -0.14236746795E+04  0.14236746795E+04  0.00000000000E+00 0.  1.
    9000007    1    1    2  501    0 -0.31109636713E+03  0.26260502630E+03 -0.93348012900E+03  0.10941332189E+04  0.40000000000E+03 0.  1.
   -9000007    1    1    2    0  502  0.31109636713E+03 -0.26260502630E+03 -0.21118065681E+03  0.60855535434E+03  0.40000000000E+03 0. -1.
<mgrwt>
<rscale>  2 0.57073842E+03</rscale>
<asrwt>0</asrwt>
<pdfrwt beam="1">  1       21 0.42925214E-01 0.57073842E+03</pdfrwt>
<pdfrwt beam="2">  1       21 0.21902688E+00 0.57073842E+03</pdfrwt>
<totfact> 0.41166415E+02</totfact>
</mgrwt>
</event>
<event>
 4    1  0.4656822E-002  0.4736005E+03  0.7818608E-02  0.1020909E+00
         21   -1    0    0  503  502  0.00000000000E+00  0.00000000000E+00  0.10861230548E+04  0.10861230548E+04  0.00000000000E+00 0. -1.
         21   -1    0    0  501  503 -0.00000000000E+00 -0.00000000000E+00 -0.20843545807E+03  0.20843545807E+03  0.00000000000E+00 0.  1.
    9000007    1    1    2  501    0  0.16029455788E+03 -0.19647664752E+03  0.37666390817E+03  0.60512239921E+03  0.40000000000E+03 0.  1.
   -9000007    1    1    2    0  502 -0.16029455788E+03  0.19647664752E+03  0.50102368853E+03  0.68943611362E+03  0.40000000000E+03 0. -1.
<mgrwt>
<rscale>  2 0.47360048E+03</rscale>
<asrwt>0</asrwt>
<pdfrwt beam="1">  1       21 0.16709585E+00 0.47360048E+03</pdfrwt>
<pdfrwt beam="2">  1       21 0.32066994E-01 0.47360048E+03</pdfrwt>
<totfact> 0.17639660E+03</totfact>
</mgrwt>
</event>
<event>
 4    1  0.4656822E-002  0.4522217E+03  0.7818608E-02  0.1027062E+00
         21   -1    0    0  501  502  0.00000000000E+00  0.00000000000E+00  0.75803825702E+03  0.75803825702E+03  0.00000000000E+00 0.  1.
         21   -1    0    0  502  503 -0.00000000000E+00 -0.00000000000E+00 -0.33694696619E+03  0.33694696619E+03  0.00000000000E+00 0. -1.
    9000007    1    1    2  501    0 -0.12343091210E+02  0.21059941213E+03  0.45498520987E+03  0.64149513286E+03  0.40000000000E+03 0.  1.
   -9000007    1    1    2    0  503  0.12343091210E+02 -0.21059941213E+03 -0.33893919039E+02  0.45349009034E+03  0.40000000000E+03 0. -1.
<mgrwt>
<rscale>  2 0.45222170E+03</rscale>
<asrwt>0</asrwt>
<pdfrwt beam="1">  1       21 0.11662127E+00 0.45222170E+03</pdfrwt>
<pdfrwt beam="2">  1       21 0.51837995E-01 0.45222170E+03</pdfrwt>
<totfact> 0.17168859E+03</totfact>
</mgrwt>
</event>
<event>
 4    1  0.4656822E-002  0.4452374E+03  0.7818608E-02  0.1029152E+00
         21   -1    0    0  501  502  0.00000000000E+00  0.00000000000E+00  0.38426762787E+03  0.38426762787E+03  0.00000000000E+00 0. -1.
         21   -1    0    0  502  503 -0.00000000000E+00 -0.00000000000E+00 -0.66499425975E+03  0.66499425975E+03  0.00000000000E+00 0.  1.
    9000007    1    1    2  501    0  0.18627052036E+02 -0.19465201953E+03 -0.38879275432E+03  0.59109743832E+03  0.40000000000E+03 0.  1.
   -9000007    1    1    2    0  503 -0.18627052036E+02  0.19465201953E+03  0.10806612244E+03  0.45816444929E+03  0.40000000000E+03 0. -1.
<mgrwt>
<rscale>  2 0.44523744E+03</rscale>
<asrwt>0</asrwt>
<pdfrwt beam="1">  1       21 0.59118098E-01 0.44523744E+03</pdfrwt>
<pdfrwt beam="2">  1       21 0.10230681E+00 0.44523744E+03</pdfrwt>
<totfact> 0.17926384E+03</totfact>
</mgrwt>
</event>
<event>
 4    1  0.4656822E-002  0.5531037E+03  0.7818608E-02  0.1000778E+00
         21   -1    0    0  501  502  0.00000000000E+00  0.00000000000E+00  0.75354297185E+03  0.75354297185E+03  0.00000000000E+00 0.  1.
         21   -1    0    0  502  503 -0.00000000000E+00 -0.00000000000E+00 -0.53486999048E+03  0.53486999048E+03  0.00000000000E+00 0.  1.
    9000007    1    1    2  501    0  0.32345852037E+03  0.20321972156E+03  0.42557147448E+03  0.69787874987E+03  0.40000000000E+03 0.  1.
   -9000007    1    1    2    0  503 -0.32345852037E+03 -0.20321972156E+03 -0.20689849310E+03  0.59053421245E+03  0.40000000000E+03 0.  1.
<mgrwt>
<rscale>  2 0.55310367E+03</rscale>
<asrwt>0</asrwt>
<pdfrwt beam="1">  1       21 0.11592969E+00 0.55310367E+03</pdfrwt>
<pdfrwt beam="2">  1       21 0.82287690E-01 0.55310367E+03</pdfrwt>
<totfact> 0.59861633E+02</totfact>
</mgrwt>
</event>
<event>
 4    1  0.4656822E-002  0.4228905E+03  0.7818608E-02  0.1036130E+00
         21   -1    0    0  503  502  0.00000000000E+00  0.00000000000E+00  0.93884017681E+03  0.93884017681E+03  0.00000000000E+00 0.  1.
         21   -1    0    0  501  503 -0.00000000000E+00 -0.00000000000E+00 -0.29989934252E+03  0.29989934252E+03  0.00000000000E+00 0.  1.
    9000007    1    1    2  501    0  0.67123867753E+02 -0.11971108911E+03 -0.54637100338E+02  0.42640540711E+03  0.40000000000E+03 0.  1.
   -9000007    1    1    2    0  502 -0.67123867753E+02  0.11971108911E+03  0.69357793463E+03  0.81233411222E+03  0.40000000000E+03 0.  1.
<mgrwt>
<rscale>  2 0.42289048E+03</rscale>
<asrwt>0</asrwt>
<pdfrwt beam="1">  1       21 0.14443695E+00 0.42289048E+03</pdfrwt>
<pdfrwt beam="2">  1       21 0.46138361E-01 0.42289048E+03</pdfrwt>
<totfact> 0.12764806E+03</totfact>
</mgrwt>
</event>
<event>
 4    1  0.4656822E-002  0.6175812E+03  0.7818608E-02  0.9869587E-01
         21   -1    0    0  501  502  0.00000000000E+00  0.00000000000E+00  0.86573000759E+03  0.86573000759E+03  0.00000000000E+00 0.  1.
         21   -1    0    0  502  503 -0.00000000000E+00 -0.00000000000E+00 -0.10507757159E+04  0.10507757159E+04  0.00000000000E+00 0. -1.
    9000007    1    1    2  501    0  0.31152474709E+03  0.35264560491E+03  0.63771874200E+03  0.88774533770E+03  0.40000000000E+03 0.  1.
   -9000007    1    1    2    0  503 -0.31152474709E+03 -0.35264560491E+03 -0.82276445034E+03  0.10287603858E+04  0.40000000000E+03 0. -1.
<mgrwt>
<rscale>  2 0.61758124E+03</rscale>
<asrwt>0</asrwt>
<pdfrwt beam="1">  1       21 0.13318923E+00 0.61758124E+03</pdfrwt>
<pdfrwt beam="2">  1       21 0.16165780E+00 0.61758124E+03</pdfrwt>
<totfact> 0.73061634E+01</totfact>
</mgrwt>
</event>
<event>
 4    1  0.4656822E-002  0.4132189E+03  0.7818608E-02  0.1039296E+00
         21   -1    0    0  501  502  0.00000000000E+00  0.00000000000E+00  0.12323214524E+04  0.12323214524E+04  0.00000000000E+00 0. -1.
         21   -1    0    0  502  503 -0.00000000000E+00 -0.00000000000E+00 -0.18301522688E+03  0.18301522688E+03  0.00000000000E+00 0. -1.
    9000007    1    1    2  501    0 -0.10285533949E+03  0.13064286828E+02  0.87343169254E+03  0.96624676868E+03  0.40000000000E+03 0. -1.
   -9000007    1    1    2    0  503  0.10285533949E+03 -0.13064286828E+02  0.17587453298E+03  0.44908991060E+03  0.40000000000E+03 0. -1.
<mgrwt>
<rscale>  2 0.41321894E+03</rscale>
<asrwt>0</asrwt>
<pdfrwt beam="1">  1       21 0.18958791E+00 0.41321894E+03</pdfrwt>
<pdfrwt beam="2">  1       21 0.28156190E-01 0.41321894E+03</pdfrwt>
<totfact> 0.16239122E+03</totfact>
</mgrwt>
</event>
<event>
 4    1  0.4656822E-002  0.4835142E+03  0.7818608E-02  0.1018174E+00
         21   -1    0    0  501  502  0.00000000000E+00  0.00000000000E+00  0.84579021289E+03  0.84579021289E+03  0.00000000000E+00 0. -1.
         21   -1    0    0  502  503 -0.00000000000E+00 -0.00000000000E+00 -0.60632565434E+03  0.60632565434E+03  0.00000000000E+00 0. -1.
    9000007    1    1    2  501    0 -0.52811688284E+01  0.27158442885E+03  0.65530554879E+03  0.81437789448E+03  0.40000000000E+03 0. -1.
   -9000007    1    1    2    0  503  0.52811688284E+01 -0.27158442885E+03 -0.41584099024E+03  0.63773797276E+03  0.40000000000E+03 0. -1.
<mgrwt>
<rscale>  2 0.48351421E+03</rscale>
<asrwt>0</asrwt>
<pdfrwt beam="1">  1       21 0.13012157E+00 0.48351421E+03</pdfrwt>
<pdfrwt beam="2">  1       21 0.93280869E-01 0.48351421E+03</pdfrwt>
<totfact> 0.34008301E+02</totfact>
</mgrwt>
</event>
<event>
 4    1  0.4656822E-002  0.4778472E+03  0.7818608E-02  0.1019729E+00
         21   -1    0    0  501  502  0.00000000000E+00  0.00000000000E+00  0.30785218293E+03  0.30785218293E+03  0.00000000000E+00 0. -1.
         21   -1    0    0  502  503 -0.00000000000E+00 -0.00000000000E+00 -0.18880024599E+04  0.18880024599E+04  0.00000000000E+00 0.  1.
    9000007    1    1    2  501    0 -0.20682701023E+03  0.15987657745E+03 -0.16455740966E+04  0.17135495440E+04  0.40000000000E+03 0.  1.
   -9000007    1    1    2    0  503  0.20682701023E+03 -0.15987657745E+03  0.65423819675E+02  0.48230509883E+03  0.40000000000E+03 0. -1.
<mgrwt>
<rscale>  2 0.47784718E+03</rscale>
<asrwt>0</asrwt>
<pdfrwt beam="1">  1       21 0.47361873E-01 0.47784718E+03</pdfrwt>
<pdfrwt beam="2">  1       21 0.29046192E+00 0.47784718E+03</pdfrwt>
<totfact> 0.12652152E+02</totfact>
</mgrwt>
</event>
<event>
 4    1  0.4656822E-002  0.5723892E+03  0.7818608E-02  0.9964405E-01
         21   -1    0    0  501  502  0.00000000000E+00  0.00000000000E+00  0.23505980247E+04  0.23505980247E+04  0.00000000000E+00 0. -1.
         21   -1    0    0  502  503 -0.00000000000E+00 -0.00000000000E+00 -0.19135060772E+03  0.19135060772E+03  0.00000000000E+00 0. -1.
    9000007    1    1    2  501    0  0.33005172334E+03  0.24227113402E+03  0.17419854767E+04  0.18336146933E+04  0.40000000000E+03 0. -1.
   -9000007    1    1    2    0  503 -0.33005172334E+03 -0.24227113402E+03  0.41726194021E+03  0.70833393905E+03  0.40000000000E+03 0. -1.
<mgrwt>
<rscale>  2 0.57238924E+03</rscale>
<asrwt>0</asrwt>
<pdfrwt beam="1">  1       21 0.36163044E+00 0.57238924E+03</pdfrwt>
<pdfrwt beam="2">  1       21 0.29438557E-01 0.57238924E+03</pdfrwt>
<totfact> 0.11698730E+02</totfact>
</mgrwt>
</event>
<event>
 4    1  0.4656822E-002  0.4447716E+03  0.7818608E-02  0.1029293E+00
         21   -1    0    0  501  502  0.00000000000E+00  0.00000000000E+00  0.13956868094E+03  0.13956868094E+03  0.00000000000E+00 0.  1.
         21   -1    0    0  502  503 -0.00000000000E+00 -0.00000000000E+00 -0.16778417150E+04  0.16778417150E+04  0.00000000000E+00 0.  1.
    9000007    1    1    2  501    0  0.18252033101E+03  0.67142341849E+02 -0.41110602605E+03  0.60566486604E+03  0.40000000000E+03 0.  1.
   -9000007    1    1    2    0  503 -0.18252033101E+03 -0.67142341849E+02 -0.11271670080E+04  0.12117455299E+04  0.40000000000E+03 0.  1.
<mgrwt>
<rscale>  2 0.44477159E+03</rscale>
<asrwt>0</asrwt>
<pdfrwt beam="1">  1       21 0.21472106E-01 0.44477159E+03</pdfrwt>
<pdfrwt beam="2">  1       21 0.25812948E+00 0.44477159E+03</pdfrwt>
<totfact> 0.98860286E+02</totfact>
</mgrwt>
</event>
<event>
 4    1  0.4656822E-002  0.4138960E+03  0.7818608E-02  0.1039071E+00
         21   -1    0    0  503  502  0.00000000000E+00  0.00000000000E+00  0.10071599067E+04  0.10071599067E+04  0.00000000000E+00 0. -1.
         21   -1    0    0  501  503 -0.00000000000E+00 -0.00000000000E+00 -0.26209974347E+03  0.26209974347E+03  0.00000000000E+00 0. -1.
    9000007    1    1    2  501    0  0.40589658552E+02  0.98297455358E+02 -0.34797603103E+01  0.41391064113E+03  0.40000000000E+03 0. -1.
   -9000007    1    1    2    0  502 -0.40589658552E+02 -0.98297455358E+02  0.74853992350E+03  0.85534900899E+03  0.40000000000E+03 0. -1.
<mgrwt>
<rscale>  2 0.41389601E+03</rscale>
<asrwt>0</asrwt>
<pdfrwt beam="1">  1       21 0.15494768E+00 0.41389601E+03</pdfrwt>
<pdfrwt beam="2">  1       21 0.40323038E-01 0.41389601E+03</pdfrwt>
<totfact> 0.14022661E+03</totfact>
</mgrwt>
</event>
<event>
 4    1  0.4656822E-002  0.4255996E+03  0.7818608E-02  0.1035259E+00
         21   -1    0    0  501  502  0.00000000000E+00  0.00000000000E+00  0.40826374481E+03  0.40826374481E+03  0.00000000000E+00 0. -1.
         21   -1    0    0  502  503 -0.00000000000E+00 -0.00000000000E+00 -0.56389028004E+03  0.56389028004E+03  0.00000000000E+00 0. -1.
    9000007    1    1    2  501    0 -0.14506920752E+03 -0.94845812098E+01  0.14662336358E+03  0.45014824558E+03  0.40000000000E+03 0. -1.
   -9000007    1    1    2    0  503  0.14506920752E+03  0.94845812098E+01 -0.30224989881E+03  0.52200577926E+03  0.40000000000E+03 0. -1.
<mgrwt>
<rscale>  2 0.42559961E+03</rscale>
<asrwt>0</asrwt>
<pdfrwt beam="1">  1       21 0.62809807E-01 0.42559961E+03</pdfrwt>
<pdfrwt beam="2">  1       21 0.86752351E-01 0.42559961E+03</pdfrwt>
<totfact> 0.23462916E+03</totfact>
</mgrwt>
</event>
<event>
 4    1  0.4656822E-002  0.4695199E+03  0.7818608E-02  0.1022056E+00
         21   -1    0    0  501  502  0.00000000000E+00  0.00000000000E+00  0.76754711672E+03  0.76754711672E+03  0.00000000000E+00 0. -1.
         21   -1    0    0  502  503 -0.00000000000E+00 -0.00000000000E+00 -0.29132360290E+03  0.29132360290E+03  0.00000000000E+00 0.  1.
    9000007    1    1    2  501    0  0.19389390215E+03  0.15117571858E+03  0.17521664712E+03  0.50114849756E+03  0.40000000000E+03 0.  1.
   -9000007    1    1    2    0  503 -0.19389390215E+03 -0.15117571858E+03  0.30100686670E+03  0.55772222206E+03  0.40000000000E+03 0.  1.
<mgrwt>
<rscale>  2 0.46951991E+03</rscale>
<asrwt>0</asrwt>
<pdfrwt beam="1">  1       21 0.11808417E+00 0.46951991E+03</pdfrwt>
<pdfrwt beam="2">  1       21 0.44819016E-01 0.46951991E+03</pdfrwt>
<totfact> 0.22494895E+03</totfact>
</mgrwt>
</event>
<event>
 4    1  0.4656822E-002  0.4086057E+03  0.7818608E-02  0.1040840E+00
         21   -1    0    0  503  502  0.00000000000E+00  0.00000000000E+00  0.52287414937E+03  0.52287414937E+03  0.00000000000E+00 0.  1.
         21   -1    0    0  501  503 -0.00000000000E+00 -0.00000000000E+00 -0.48994044699E+03  0.48994044699E+03  0.00000000000E+00 0.  1.
    9000007    1    1    2  501    0  0.42272260587E+02  0.71914419650E+02 -0.28238595928E+03  0.49668949835E+03  0.40000000000E+03 0.  1.
   -9000007    1    1    2    0  502 -0.42272260587E+02 -0.71914419650E+02  0.31531966166E+03  0.51612509801E+03  0.40000000000E+03 0.  1.
<mgrwt>
<rscale>  2 0.40860571E+03</rscale>
<asrwt>0</asrwt>
<pdfrwt beam="1">  1       21 0.80442177E-01 0.40860571E+03</pdfrwt>
<pdfrwt beam="2">  1       21 0.75375453E-01 0.40860571E+03</pdfrwt>
<totfact> 0.18712663E+03</totfact>
</mgrwt>
</event>
<event>
 4    1  0.4656822E-002  0.5183060E+03  0.7818608E-02  0.1009108E+00
         21   -1    0    0  503  502  0.00000000000E+00  0.00000000000E+00  0.13186177622E+04  0.13186177622E+04  0.00000000000E+00 0.  1.
         21   -1    0    0  501  503 -0.00000000000E+00 -0.00000000000E+00 -0.54985690223E+03  0.54985690223E+03  0.00000000000E+00 0.  1.
    9000007    1    1    2  501    0 -0.31273189078E+03 -0.10411470163E+03 -0.35684528638E+03  0.62926915149E+03  0.40000000000E+03 0.  1.
   -9000007    1    1    2    0  502  0.31273189078E+03  0.10411470163E+03  0.11256061464E+04  0.12392055130E+04  0.40000000000E+03 0.  1.
<mgrwt>
<rscale>  2 0.51830600E+03</rscale>
<asrwt>0</asrwt>
<pdfrwt beam="1">  1       21 0.20286427E+00 0.51830600E+03</pdfrwt>
<pdfrwt beam="2">  1       21 0.84593370E-01 0.51830600E+03</pdfrwt>
<totfact> 0.12030060E+02</totfact>
</mgrwt>
</event>
<event>
 4    1  0.4656822E-002  0.4017307E+03  0.7818608E-02  0.1043182E+00
         21   -1    0    0  503  502  0.00000000000E+00  0.00000000000E+00  0.68558844277E+02  0.68558844277E+02  0.00000000000E+00 0.  1.
         21   -1    0    0  501  503 -0.00000000000E+00 -0.00000000000E+00 -0.23581939730E+04  0.23581939730E+04  0.00000000000E+00 0.  1.
    9000007    1    1    2  501    0 -0.35957208065E+02  0.97283946227E+01 -0.11959841087E+04  0.12616519135E+04  0.40000000000E+03 0.  1.
   -9000007    1    1    2    0  502  0.35957208065E+02 -0.97283946227E+01 -0.10936510200E+04  0.11651009037E+04  0.40000000000E+03 0.  1.
<mgrwt>
<rscale>  2 0.40173071E+03</rscale>
<asrwt>0</asrwt>
<pdfrwt beam="1">  1       21 0.10547516E-01 0.40173071E+03</pdfrwt>
<pdfrwt beam="2">  1       21 0.36279904E+00 0.40173071E+03</pdfrwt>
<totfact> 0.88246315E+02</totfact>
</mgrwt>
</event>
<event>
 4    1  0.4656822E-002  0.4514152E+03  0.7818608E-02  0.1027301E+00
         21   -1    0    0  503  502  0.00000000000E+00  0.00000000000E+00  0.19337302334E+03  0.19337302334E+03  0.00000000000E+00 0.  1.
         21   -1    0    0  501  503 -0.00000000000E+00 -0.00000000000E+00 -0.10754152418E+04  0.10754152418E+04  0.00000000000E+00 0. -1.
    9000007    1    1    2  501    0 -0.11538286936E+03  0.17453497210E+03 -0.53096966096E+03  0.69692499158E+03  0.40000000000E+03 0.  1.
   -9000007    1    1    2    0  502  0.11538286936E+03 -0.17453497210E+03 -0.35107255752E+03  0.57186327358E+03  0.40000000000E+03 0.  1.
<mgrwt>
<rscale>  2 0.45141518E+03</rscale>
<asrwt>0</asrwt>
<pdfrwt beam="1">  1       21 0.29749696E-01 0.45141518E+03</pdfrwt>
<pdfrwt beam="2">  1       21 0.16544850E+00 0.45141518E+03</pdfrwt>
<totfact> 0.21255154E+03</totfact>
</mgrwt>
</event>
<event>
 4    1  0.4656822E-002  0.4034632E+03  0.7818608E-02  0.1042587E+00
         21   -1    0    0  503  502  0.00000000000E+00  0.00000000000E+00  0.55695200694E+03  0.55695200694E+03  0.00000000000E+00 0.  1.
         21   -1    0    0  501  503 -0.00000000000E+00 -0.00000000000E+00 -0.32239954018E+03  0.32239954018E+03  0.00000000000E+00 0.  1.
    9000007    1    1    2  501    0 -0.36350722735E+02  0.38225776217E+02  0.25167733452E+03  0.47552504216E+03  0.40000000000E+03 0. -1.
   -9000007    1    1    2    0  502  0.36350722735E+02 -0.38225776217E+02 -0.17124867760E+02  0.40382650496E+03  0.40000000000E+03 0. -1.
<mgrwt>
<rscale>  2 0.40346324E+03</rscale>
<asrwt>0</asrwt>
<pdfrwt beam="1">  1       21 0.85684924E-01 0.40346324E+03</pdfrwt>
<pdfrwt beam="2">  1       21 0.49599929E-01 0.40346324E+03</pdfrwt>
<totfact> 0.40580246E+03</totfact>
</mgrwt>
</event>
<event>
 4    1  0.4656822E-002  0.4073763E+03  0.7818608E-02  0.1041255E+00
         21   -1    0    0  503  502  0.00000000000E+00  0.00000000000E+00  0.24847791064E+03  0.24847791064E+03  0.00000000000E+00 0. -1.
         21   -1    0    0  501  503 -0.00000000000E+00 -0.00000000000E+00 -0.11450081599E+04  0.11450081599E+04  0.00000000000E+00 0. -1.
    9000007    1    1    2  501    0  0.76906586236E+02 -0.63893824644E+01 -0.89802651370E+03  0.98610702590E+03  0.40000000000E+03 0. -1.
   -9000007    1    1    2    0  502 -0.76906586236E+02  0.63893824644E+01  0.14962644286E+01  0.40737904465E+03  0.40000000000E+03 0. -1.
<mgrwt>
<rscale>  2 0.40737630E+03</rscale>
<asrwt>0</asrwt>
<pdfrwt beam="1">  1       21 0.38227371E-01 0.40737630E+03</pdfrwt>
<pdfrwt beam="2">  1       21 0.17615510E+00 0.40737630E+03</pdfrwt>
<totfact> 0.10942306E+03</totfact>
</mgrwt>
</event>
<event>
 4    1  0.4656822E-002  0.4028873E+03  0.7818608E-02  0.1042784E+00
         21   -1    0    0  503  502  0.00000000000E+00  0.00000000000E+00  0.16914221408E+03  0.16914221408E+03  0.00000000000E+00 0.  1.
         21   -1    0    0  501  503 -0.00000000000E+00 -0.00000000000E+00 -0.10587715554E+04  0.10587715554E+04  0.00000000000E+00 0.  1.
    9000007    1    1    2  501    0  0.40722551911E+02  0.25687399790E+02 -0.63266409854E+03  0.75005468489E+03  0.40000000000E+03 0. -1.
   -9000007    1    1    2    0  502 -0.40722551911E+02 -0.25687399790E+02 -0.25696524280E+03  0.47785908461E+03  0.40000000000E+03 0. -1.
<mgrwt>
<rscale>  2 0.40288729E+03</rscale>
<asrwt>0</asrwt>
<pdfrwt beam="1">  1       21 0.26021879E-01 0.40288729E+03</pdfrwt>
<pdfrwt beam="2">  1       21 0.16288793E+00 0.40288729E+03</pdfrwt>
<totfact> 0.29486063E+03</totfact>
</mgrwt>
</event>
<event>
 4    1  0.4656822E-002  0.4128606E+03  0.7818608E-02  0.1039415E+00
         21   -1    0    0  503  502  0.00000000000E+00  0.00000000000E+00  0.69636894111E+03  0.69636894111E+03  0.00000000000E+00 0. -1.
         21   -1    0    0  501  503 -0.00000000000E+00 -0.00000000000E+00 -0.35564071162E+03  0.35564071162E+03  0.00000000000E+00 0. -1.
    9000007    1    1    2  501    0  0.13882466675E+02 -0.10129749700E+03 -0.12332108493E+03  0.43088513060E+03  0.40000000000E+03 0. -1.
   -9000007    1    1    2    0  502 -0.13882466675E+02  0.10129749700E+03  0.46404931442E+03  0.62112452213E+03  0.40000000000E+03 0. -1.
<mgrwt>
<rscale>  2 0.41286064E+03</rscale>
<asrwt>0</asrwt>
<pdfrwt beam="1">  1       21 0.10713368E+00 0.41286064E+03</pdfrwt>
<pdfrwt beam="2">  1       21 0.54713956E-01 0.41286064E+03</pdfrwt>
<totfact> 0.19180849E+03</totfact>
</mgrwt>
</event>
<event>
 4    1  0.4656822E-002  0.4245643E+03  0.7818608E-02  0.1035591E+00
         21   -1    0    0  501  502  0.00000000000E+00  0.00000000000E+00  0.97532880647E+03  0.97532880647E+03  0.00000000000E+00 0. -1.
         21   -1    0    0  502  503 -0.00000000000E+00 -0.00000000000E+00 -0.47849759829E+03  0.47849759829E+03  0.00000000000E+00 0. -1.
    9000007    1    1    2  501    0  0.18401252090E+02  0.14112486942E+03  0.81790049454E+03  0.92152919314E+03  0.40000000000E+03 0. -1.
   -9000007    1    1    2    0  503 -0.18401252090E+02 -0.14112486942E+03 -0.32106928636E+03  0.53229721161E+03  0.40000000000E+03 0. -1.
<mgrwt>
<rscale>  2 0.42456429E+03</rscale>
<asrwt>0</asrwt>
<pdfrwt beam="1">  1       21 0.15005059E+00 0.42456429E+03</pdfrwt>
<pdfrwt beam="2">  1       21 0.73615015E-01 0.42456429E+03</pdfrwt>
<totfact> 0.41566654E+02</totfact>
</mgrwt>
</event>
<event>
 4    1  0.4656822E-002  0.5519440E+03  0.7818608E-02  0.1001045E+00
         21   -1    0    0  501  502  0.00000000000E+00  0.00000000000E+00  0.65810291998E+03  0.65810291998E+03  0.00000000000E+00 0. -1.
         21   -1    0    0  502  503 -0.00000000000E+00 -0.00000000000E+00 -0.81823051353E+03  0.81823051353E+03  0.00000000000E+00 0.  1.
    9000007    1    1    2  501    0 -0.35796387975E+02  0.37863009707E+03  0.40637368827E+03  0.68540623452E+03  0.40000000000E+03 0. -1.
   -9000007    1    1    2    0  503  0.35796387975E+02 -0.37863009707E+03 -0.56650128182E+03  0.79092719899E+03  0.40000000000E+03 0.  1.
<mgrwt>
<rscale>  2 0.55194396E+03</rscale>
<asrwt>0</asrwt>
<pdfrwt beam="1">  1       21 0.10124660E+00 0.55194396E+03</pdfrwt>
<pdfrwt beam="2">  1       21 0.12588162E+00 0.55194396E+03</pdfrwt>
<totfact> 0.29551193E+02</totfact>
</mgrwt>
</event>
<event>
 4    1  0.4656822E-002  0.6308678E+03  0.7818608E-02  0.9843357E-01
         21   -1    0    0  503  502  0.00000000000E+00  0.00000000000E+00  0.44427029176E+03  0.44427029176E+03  0.00000000000E+00 0. -1.
         21   -1    0    0  501  503 -0.00000000000E+00 -0.00000000000E+00 -0.10240847614E+04  0.10240847614E+04  0.00000000000E+00 0.  1.
    9000007    1    1    2  501    0 -0.48687060643E+03 -0.30841539203E+02 -0.54971756851E+03  0.83676973718E+03  0.40000000000E+03 0.  1.
   -9000007    1    1    2    0  502  0.48687060643E+03  0.30841539203E+02 -0.30096901168E+02  0.63158531601E+03  0.40000000000E+03 0. -1.
<mgrwt>
<rscale>  2 0.63086781E+03</rscale>
<asrwt>0</asrwt>
<pdfrwt beam="1">  1       21 0.68349276E-01 0.63086781E+03</pdfrwt>
<pdfrwt beam="2">  1       21 0.15755150E+00 0.63086781E+03</pdfrwt>
<totfact> 0.39540900E+02</totfact>
</mgrwt>
</event>
<event>
 4    1  0.4656822E-002  0.5258123E+03  0.7818608E-02  0.1007253E+00
         21   -1    0    0  501  502  0.00000000000E+00  0.00000000000E+00  0.18686204330E+03  0.18686204330E+03  0.00000000000E+00 0. -1.
         21   -1    0    0  502  503 -0.00000000000E+00 -0.00000000000E+00 -0.14795889112E+04  0.14795889112E+04  0.00000000000E+00 0.  1.
    9000007    1    1    2  501    0 -0.12306456750E+03  0.31832945518E+03 -0.64526856692E+03  0.83237614890E+03  0.40000000000E+03 0.  1.
   -9000007    1    1    2    0  503  0.12306456750E+03 -0.31832945518E+03 -0.64745830094E+03  0.83407480556E+03  0.40000000000E+03 0. -1.
<mgrwt>
<rscale>  2 0.52581226E+03</rscale>
<asrwt>0</asrwt>
<pdfrwt beam="1">  1       21 0.28748006E-01 0.52581226E+03</pdfrwt>
<pdfrwt beam="2">  1       21 0.22762907E+00 0.52581226E+03</pdfrwt>
<totfact> 0.83468188E+02</totfact>
</mgrwt>
</event>
<event>
 4    1  0.4656822E-002  0.4352653E+03  0.7818608E-02  0.1032209E+00
         21   -1    0    0  501  502  0.00000000000E+00  0.00000000000E+00  0.38719272360E+03  0.38719272360E+03  0.00000000000E+00 0. -1.
         21   -1    0    0  502  503 -0.00000000000E+00 -0.00000000000E+00 -0.64472120343E+03  0.64472120343E+03  0.00000000000E+00 0. -1.
    9000007    1    1    2  501    0 -0.93333993686E+02 -0.14402995789E+03 -0.38208672844E+03  0.57917711557E+03  0.40000000000E+03 0. -1.
   -9000007    1    1    2    0  503  0.93333993686E+02  0.14402995789E+03  0.12455824862E+03  0.45273681145E+03  0.40000000000E+03 0. -1.
<mgrwt>
<rscale>  2 0.43526528E+03</rscale>
<asrwt>0</asrwt>
<pdfrwt beam="1">  1       21 0.59568111E-01 0.43526528E+03</pdfrwt>
<pdfrwt beam="2">  1       21 0.99187878E-01 0.43526528E+03</pdfrwt>
<totfact> 0.19086877E+03</totfact>
</mgrwt>
</event>
<event>
 4    1  0.4656822E-002  0.4172562E+03  0.7818608E-02  0.1037963E+00
         21   -1    0    0  503  502  0.00000000000E+00  0.00000000000E+00  0.55459484108E+03  0.55459484108E+03  0.00000000000E+00 0. -1.
         21   -1    0    0  501  503 -0.00000000000E+00 -0.00000000000E+00 -0.31784060294E+03  0.31784060294E+03  0.00000000000E+00 0. -1.
    9000007    1    1    2  501    0 -0.11875271481E+03 -0.73415243373E+00  0.16677672379E+03  0.44935200217E+03  0.40000000000E+03 0. -1.
   -9000007    1    1    2    0  502  0.11875271481E+03  0.73415243373E+00  0.69977514355E+02  0.42308344185E+03  0.40000000000E+03 0. -1.
<mgrwt>
<rscale>  2 0.41725621E+03</rscale>
<asrwt>0</asrwt>
<pdfrwt beam="1">  1       21 0.85322283E-01 0.41725621E+03</pdfrwt>
<pdfrwt beam="2">  1       21 0.48898554E-01 0.41725621E+03</pdfrwt>
<totfact> 0.42022193E+03</totfact>
</mgrwt>
</event>
<event>
 4    1  0.4656822E-002  0.4143559E+03  0.7818608E-02  0.1038919E+00
         21   -1    0    0  501  502  0.00000000000E+00  0.00000000000E+00  0.23303050902E+03  0.23303050902E+03  0.00000000000E+00 0.  1.
         21   -1    0    0  502  503 -0.00000000000E+00 -0.00000000000E+00 -0.12652692736E+04  0.12652692736E+04  0.00000000000E+00 0.  1.
    9000007    1    1    2  501    0  0.31945013481E+02  0.10329718281E+03 -0.31949418337E+02  0.41558580004E+03  0.40000000000E+03 0.  1.
   -9000007    1    1    2    0  503 -0.31945013481E+02 -0.10329718281E+03 -0.10002893462E+04  0.10827139825E+04  0.40000000000E+03 0.  1.
<mgrwt>
<rscale>  2 0.41435588E+03</rscale>
<asrwt>0</asrwt>
<pdfrwt beam="1">  1       21 0.35850848E-01 0.41435588E+03</pdfrwt>
<pdfrwt beam="2">  1       21 0.19465681E+00 0.41435588E+03</pdfrwt>
<totfact> 0.92556482E+02</totfact>
</mgrwt>
</event>
<event>
 4    1  0.4656822E-002  0.4129268E+03  0.7818608E-02  0.1039393E+00
         21   -1    0    0  501  502  0.00000000000E+00  0.00000000000E+00  0.60665347493E+03  0.60665347493E+03  0.00000000000E+00 0. -1.
         21   -1    0    0  502  503 -0.00000000000E+00 -0.00000000000E+00 -0.51095927881E+03  0.51095927881E+03  0.00000000000E+00 0. -1.
    9000007    1    1    2  501    0 -0.61753524416E+02 -0.81823092407E+02  0.42267605561E+03  0.59090063819E+03  0.40000000000E+03 0. -1.
   -9000007    1    1    2    0  503  0.61753524416E+02  0.81823092407E+02 -0.32698185949E+03  0.52671211554E+03  0.40000000000E+03 0. -1.
<mgrwt>
<rscale>  2 0.41292677E+03</rscale>
<asrwt>0</asrwt>
<pdfrwt beam="1">  1       21 0.93331304E-01 0.41292677E+03</pdfrwt>
<pdfrwt beam="2">  1       21 0.78609120E-01 0.41292677E+03</pdfrwt>
<totfact> 0.11975433E+03</totfact>
</mgrwt>
</event>
<event>
 4    1  0.4656822E-002  0.5486090E+03  0.7818608E-02  0.1001816E+00
         21   -1    0    0  501  502  0.00000000000E+00  0.00000000000E+00  0.29587598399E+03  0.29587598399E+03  0.00000000000E+00 0.  1.
         21   -1    0    0  502  503 -0.00000000000E+00 -0.00000000000E+00 -0.10255788145E+04  0.10255788145E+04  0.00000000000E+00 0. -1.
    9000007    1    1    2  501    0  0.27387261400E+02 -0.37446197950E+03 -0.42449090755E+03  0.69366012338E+03  0.40000000000E+03 0.  1.
   -9000007    1    1    2    0  503 -0.27387261400E+02  0.37446197950E+03 -0.30521192298E+03  0.62779467512E+03  0.40000000000E+03 0.  1.
<mgrwt>
<rscale>  2 0.54860900E+03</rscale>
<asrwt>0</asrwt>
<pdfrwt beam="1">  1       21 0.45519382E-01 0.54860900E+03</pdfrwt>
<pdfrwt beam="2">  1       21 0.15778136E+00 0.54860900E+03</pdfrwt>
<totfact> 0.98205552E+02</totfact>
</mgrwt>
</event>
<event>
 4    1  0.4656822E-002  0.5378176E+03  0.7818608E-02  0.1004354E+00
         21   -1    0    0  501  502  0.00000000000E+00  0.00000000000E+00  0.23512793504E+03  0.23512793504E+03  0.00000000000E+00 0. -1.
         21   -1    0    0  502  503 -0.00000000000E+00 -0.00000000000E+00 -0.12835600856E+04  0.12835600856E+04  0.00000000000E+00 0. -1.
    9000007    1    1    2  501    0  0.34977503674E+03 -0.83097560791E+02 -0.67908098025E+03  0.86625559662E+03  0.40000000000E+03 0. -1.
   -9000007    1    1    2    0  503 -0.34977503674E+03  0.83097560791E+02 -0.36935117035E+03  0.65243242407E+03  0.40000000000E+03 0. -1.
<mgrwt>
<rscale>  2 0.53781761E+03</rscale>
<asrwt>0</asrwt>
<pdfrwt beam="1">  1       21 0.36173529E-01 0.53781761E+03</pdfrwt>
<pdfrwt beam="2">  1       21 0.19747078E+00 0.53781761E+03</pdfrwt>
<totfact> 0.82422219E+02</totfact>
</mgrwt>
</event>
<event>
 4    1  0.4656822E-002  0.5158968E+03  0.7818608E-02  0.1009711E+00
         21   -1    0    0  503  502  0.00000000000E+00  0.00000000000E+00  0.14387854220E+03  0.14387854220E+03  0.00000000000E+00 0. -1.
         21   -1    0    0  501  503 -0.00000000000E+00 -0.00000000000E+00 -0.28430013824E+04  0.28430013824E+04  0.00000000000E+00 0. -1.
    9000007    1    1    2  501    0 -0.28984703293E+03  0.14878906860E+03 -0.22322619541E+04  0.22911008099E+04  0.40000000000E+03 0. -1.
   -9000007    1    1    2    0  502  0.28984703293E+03 -0.14878906860E+03 -0.46686088602E+03  0.69577911461E+03  0.40000000000E+03 0. -1.
<mgrwt>
<rscale>  2 0.51589678E+03</rscale>
<asrwt>0</asrwt>
<pdfrwt beam="1">  1       21 0.22135163E-01 0.51589678E+03</pdfrwt>
<pdfrwt beam="2">  1       21 0.43738477E+00 0.51589678E+03</pdfrwt>
<totfact> 0.68472150E+01</totfact>
</mgrwt>
</event>
<event>
 4    1  0.4656822E-002  0.4974732E+03  0.7818608E-02  0.1014441E+00
         21   -1    0    0  501  502  0.00000000000E+00  0.00000000000E+00  0.26288187598E+03  0.26288187598E+03  0.00000000000E+00 0. -1.
         21   -1    0    0  502  503 -0.00000000000E+00 -0.00000000000E+00 -0.10379547778E+04  0.10379547778E+04  0.00000000000E+00 0. -1.
    9000007    1    1    2  501    0 -0.14248255156E+03 -0.25918771231E+03 -0.18916981662E+03  0.53222623688E+03  0.40000000000E+03 0. -1.
   -9000007    1    1    2    0  503  0.14248255156E+03  0.25918771231E+03 -0.58590308519E+03  0.76861041688E+03  0.40000000000E+03 0. -1.
<mgrwt>
<rscale>  2 0.49747316E+03</rscale>
<asrwt>0</asrwt>
<pdfrwt beam="1">  1       21 0.40443366E-01 0.49747316E+03</pdfrwt>
<pdfrwt beam="2">  1       21 0.15968535E+00 0.49747316E+03</pdfrwt>
<totfact> 0.12382828E+03</totfact>
</mgrwt>
</event>
<event>
 4    1  0.4656822E-002  0.4983401E+03  0.7818608E-02  0.1014213E+00
         21   -1    0    0  501  502  0.00000000000E+00  0.00000000000E+00  0.10726485715E+04  0.10726485715E+04  0.00000000000E+00 0.  1.
         21   -1    0    0  502  503 -0.00000000000E+00 -0.00000000000E+00 -0.12727369423E+04  0.12727369423E+04  0.00000000000E+00 0. -1.
    9000007    1    1    2  501    0  0.29080659482E+03  0.61436157778E+02  0.96063706799E+03  0.10822044416E+04  0.40000000000E+03 0.  1.
   -9000007    1    1    2    0  503 -0.29080659482E+03 -0.61436157778E+02 -0.11607254387E+04  0.12631810722E+04  0.40000000000E+03 0. -1.
<mgrwt>
<rscale>  2 0.49834012E+03</rscale>
<asrwt>0</asrwt>
<pdfrwt beam="1">  1       21 0.16502286E+00 0.49834012E+03</pdfrwt>
<pdfrwt beam="2">  1       21 0.19580568E+00 0.49834012E+03</pdfrwt>
<totfact> 0.24610835E+01</totfact>
</mgrwt>
</event>
<event>
 4    1  0.4656822E-002  0.4281415E+03  0.7818608E-02  0.1034449E+00
         21   -1    0    0  501  502  0.00000000000E+00  0.00000000000E+00  0.73753511358E+03  0.73753511358E+03  0.00000000000E+00 0.  1.
         21   -1    0    0  502  503 -0.00000000000E+00 -0.00000000000E+00 -0.33912107766E+03  0.33912107766E+03  0.00000000000E+00 0. -1.
    9000007    1    1    2  501    0 -0.85882553432E+02  0.12621160040E+03 -0.79016753937E+02  0.43537205751E+03  0.40000000000E+03 0. -1.
   -9000007    1    1    2    0  503  0.85882553432E+02 -0.12621160040E+03  0.47743078986E+03  0.64128413372E+03  0.40000000000E+03 0.  1.
<mgrwt>
<rscale>  2 0.42814154E+03</rscale>
<asrwt>0</asrwt>
<pdfrwt beam="1">  1       21 0.11346694E+00 0.42814154E+03</pdfrwt>
<pdfrwt beam="2">  1       21 0.52172474E-01 0.42814154E+03</pdfrwt>
<totfact> 0.18309336E+03</totfact>
</mgrwt>
</event>
<event>
 4    1  0.4656822E-002  0.4114048E+03  0.7818608E-02  0.1039901E+00
         21   -1    0    0  503  502  0.00000000000E+00  0.00000000000E+00  0.24677781037E+03  0.24677781037E+03  0.00000000000E+00 0. -1.
         21   -1    0    0  501  503 -0.00000000000E+00 -0.00000000000E+00 -0.70806514248E+03  0.70806514248E+03  0.00000000000E+00 0. -1.
    9000007    1    1    2  501    0 -0.80108058954E+02 -0.53259814243E+02 -0.31519812369E+03  0.51826997415E+03  0.40000000000E+03 0.  1.
   -9000007    1    1    2    0  502  0.80108058954E+02  0.53259814243E+02 -0.14608920842E+03  0.43657297871E+03  0.40000000000E+03 0.  1.
<mgrwt>
<rscale>  2 0.41140480E+03</rscale>
<asrwt>0</asrwt>
<pdfrwt beam="1">  1       21 0.37965817E-01 0.41140480E+03</pdfrwt>
<pdfrwt beam="2">  1       21 0.10893310E+00 0.41140480E+03</pdfrwt>
<totfact> 0.39611604E+03</totfact>
</mgrwt>
</event>
<event>
 4    1  0.4656822E-002  0.4644068E+03  0.7818608E-02  0.1023511E+00
         21   -1    0    0  503  502  0.00000000000E+00  0.00000000000E+00  0.12978745515E+03  0.12978745515E+03  0.00000000000E+00 0.  1.
         21   -1    0    0  501  503 -0.00000000000E+00 -0.00000000000E+00 -0.16619313256E+04  0.16619313256E+04  0.00000000000E+00 0.  1.
    9000007    1    1    2  501    0 -0.23327752875E+03 -0.35430034730E+02 -0.77555015857E+03  0.90396445795E+03  0.40000000000E+03 0.  1.
   -9000007    1    1    2    0  502  0.23327752875E+03  0.35430034730E+02 -0.75659371189E+03  0.88775432280E+03  0.40000000000E+03 0.  1.
<mgrwt>
<rscale>  2 0.46440682E+03</rscale>
<asrwt>0</asrwt>
<pdfrwt beam="1">  1       21 0.19967302E-01 0.46440682E+03</pdfrwt>
<pdfrwt beam="2">  1       21 0.25568173E+00 0.46440682E+03</pdfrwt>
<totfact> 0.11641714E+03</totfact>
</mgrwt>
</event>
<event>
 4    1  0.4656822E-002  0.4435644E+03  0.7818608E-02  0.1029659E+00
         21   -1    0    0  503  502  0.00000000000E+00  0.00000000000E+00  0.21020911323E+03  0.21020911323E+03  0.00000000000E+00 0. -1.
         21   -1    0    0  501  503 -0.00000000000E+00 -0.00000000000E+00 -0.11083825153E+04  0.11083825153E+04  0.00000000000E+00 0. -1.
    9000007    1    1    2  501    0 -0.84002168020E+02 -0.17231658735E+03 -0.70911475037E+03  0.83641682174E+03  0.40000000000E+03 0. -1.
   -9000007    1    1    2    0  502  0.84002168020E+02  0.17231658735E+03 -0.18905865169E+03  0.48217480677E+03  0.40000000000E+03 0. -1.
<mgrwt>
<rscale>  2 0.44356439E+03</rscale>
<asrwt>0</asrwt>
<pdfrwt beam="1">  1       21 0.32339864E-01 0.44356439E+03</pdfrwt>
<pdfrwt beam="2">  1       21 0.17052038E+00 0.44356439E+03</pdfrwt>
<totfact> 0.16572898E+03</totfact>
</mgrwt>
</event>
<event>
 4    1  0.4656822E-002  0.4213667E+03  0.7818608E-02  0.1036622E+00
         21   -1    0    0  501  502  0.00000000000E+00  0.00000000000E+00  0.12237818342E+04  0.12237818342E+04  0.00000000000E+00 0. -1.
         21   -1    0    0  502  503 -0.00000000000E+00 -0.00000000000E+00 -0.22560096739E+03  0.22560096739E+03  0.00000000000E+00 0. -1.
    9000007    1    1    2  501    0 -0.81592053663E+02 -0.10436796324E+03  0.93203175790E+03  0.10228553821E+04  0.40000000000E+03 0. -1.
   -9000007    1    1    2    0  503  0.81592053663E+02  0.10436796324E+03  0.66149108928E+02  0.42652741950E+03  0.40000000000E+03 0. -1.
<mgrwt>
<rscale>  2 0.42136675E+03</rscale>
<asrwt>0</asrwt>
<pdfrwt beam="1">  1       21 0.18827412E+00 0.42136675E+03</pdfrwt>
<pdfrwt beam="2">  1       21 0.34707842E-01 0.42136675E+03</pdfrwt>
<totfact> 0.10883343E+03</totfact>
</mgrwt>
</event>
<event>
 4    1  0.4656822E-002  0.4168982E+03  0.7818608E-02  0.1038081E+00
         21   -1    0    0  503  502  0.00000000000E+00  0.00000000000E+00  0.59502103695E+03  0.59502103695E+03  0.00000000000E+00 0. -1.
         21   -1    0    0  501  503 -0.00000000000E+00 -0.00000000000E+00 -0.51138243691E+03  0.51138243691E+03  0.00000000000E+00 0. -1.
    9000007    1    1    2  501    0  0.27694129852E+02 -0.11418034442E+03 -0.32043629341E+03  0.52581701571E+03  0.40000000000E+03 0. -1.
   -9000007    1    1    2    0  502 -0.27694129852E+02  0.11418034442E+03  0.40407489345E+03  0.58058645816E+03  0.40000000000E+03 0. -1.
<mgrwt>
<rscale>  2 0.41689821E+03</rscale>
<asrwt>0</asrwt>
<pdfrwt beam="1">  1       21 0.91541698E-01 0.41689821E+03</pdfrwt>
<pdfrwt beam="2">  1       21 0.78674221E-01 0.41689821E+03</pdfrwt>
<totfact> 0.12494175E+03</totfact>
</mgrwt>
</event>
<event>
 4    1  0.4656822E-002  0.5979083E+03  0.7818608E-02  0.9909755E-01
         21   -1    0    0  501  502  0.00000000000E+00  0.00000000000E+00  0.11682808007E+04  0.11682808007E+04  0.00000000000E+00 0.  1.
         21   -1    0    0  502  503 -0.00000000000E+00 -0.00000000000E+00 -0.30629807742E+03  0.30629807742E+03  0.00000000000E+00 0.  1.
    9000007    1    1    2  501    0 -0.44206140074E+03  0.45563330696E+02  0.45397913996E+03  0.75072721987E+03  0.40000000000E+03 0.  1.
   -9000007    1    1    2    0  503  0.44206140074E+03 -0.45563330696E+02  0.40800358330E+03  0.72385165822E+03  0.40000000000E+03 0.  1.
<mgrwt>
<rscale>  2 0.59790827E+03</rscale>
<asrwt>0</asrwt>
<pdfrwt beam="1">  1       21 0.17973551E+00 0.59790827E+03</pdfrwt>
<pdfrwt beam="2">  1       21 0.47122782E-01 0.59790827E+03</pdfrwt>
<totfact> 0.61755174E+02</totfact>
</mgrwt>
</event>
<event>
 4    1  0.4656822E-002  0.4905124E+03  0.7818608E-02  0.1016285E+00
         21   -1    0    0  501  502  0.00000000000E+00  0.00000000000E+00  0.91291744272E+03  0.91291744272E+03  0.00000000000E+00 0.  1.
         21   -1    0    0  502  503 -0.00000000000E+00 -0.00000000000E+00 -0.47252445954E+03  0.47252445954E+03  0.00000000000E+00 0.  1.
    9000007    1    1    2  501    0 -0.19905592299E+03 -0.20243301771E+03  0.68086589897E+03  0.83915478877E+03  0.40000000000E+03 0.  1.
   -9000007    1    1    2    0  503  0.19905592299E+03  0.20243301771E+03 -0.24047291579E+03  0.54628711349E+03  0.40000000000E+03 0.  1.
<mgrwt>
<rscale>  2 0.49051237E+03</rscale>
<asrwt>0</asrwt>
<pdfrwt beam="1">  1       21 0.14044884E+00 0.49051237E+03</pdfrwt>
<pdfrwt beam="2">  1       21 0.72696071E-01 0.49051237E+03</pdfrwt>
<totfact> 0.49570212E+02</totfact>
</mgrwt>
</event>
<event>
 4    1  0.4656822E-002  0.4124027E+03  0.7818608E-02  0.1039568E+00
         21   -1    0    0  503  502  0.00000000000E+00  0.00000000000E+00  0.10223542087E+04  0.10223542087E+04  0.00000000000E+00 0.  1.
         21   -1    0    0  501  503 -0.00000000000E+00 -0.00000000000E+00 -0.41773954431E+03  0.41773954431E+03  0.00000000000E+00 0.  1.
    9000007    1    1    2  501    0 -0.45800665651E+02 -0.89321258196E+02 -0.25625977648E+03  0.48553584954E+03  0.40000000000E+03 0.  1.
   -9000007    1    1    2    0  502  0.45800665651E+02  0.89321258196E+02  0.86087444090E+03  0.95455790350E+03  0.40000000000E+03 0.  1.
<mgrwt>
<rscale>  2 0.41240270E+03</rscale>
<asrwt>0</asrwt>
<pdfrwt beam="1">  1       21 0.15728526E+00 0.41240270E+03</pdfrwt>
<pdfrwt beam="2">  1       21 0.64267623E-01 0.41240270E+03</pdfrwt>
<totfact> 0.49853788E+02</totfact>
</mgrwt>
</event>
<event>
 4    1  0.4656822E-002  0.5570441E+03  0.7818608E-02  0.9998765E-01
         21   -1    0    0  501  502  0.00000000000E+00  0.00000000000E+00  0.36505372975E+03  0.36505372975E+03  0.00000000000E+00 0. -1.
         21   -1    0    0  502  503 -0.00000000000E+00 -0.00000000000E+00 -0.85639532052E+03  0.85639532052E+03  0.00000000000E+00 0.  1.
    9000007    1    1    2  501    0 -0.26913801437E+03  0.27903913473E+03 -0.19292201970E+03  0.58950573803E+03  0.40000000000E+03 0. -1.
   -9000007    1    1    2    0  503  0.26913801437E+03 -0.27903913473E+03 -0.29841957108E+03  0.63194331224E+03  0.40000000000E+03 0.  1.
<mgrwt>
<rscale>  2 0.55704408E+03</rscale>
<asrwt>0</asrwt>
<pdfrwt beam="1">  1       21 0.56162113E-01 0.55704408E+03</pdfrwt>
<pdfrwt beam="2">  1       21 0.13175312E+00 0.55704408E+03</pdfrwt>
<totfact> 0.10163552E+03</totfact>
</mgrwt>
</event>
<event>
 4    1  0.4656822E-002  0.4756414E+03  0.7818608E-02  0.1020340E+00
         21   -1    0    0  501  502  0.00000000000E+00  0.00000000000E+00  0.96961885116E+02  0.96961885116E+02  0.00000000000E+00 0. -1.
         21   -1    0    0  502  503 -0.00000000000E+00 -0.00000000000E+00 -0.23336152659E+04  0.23336152659E+04  0.00000000000E+00 0.  1.
    9000007    1    1    2  501    0  0.25363434337E+03 -0.43638595884E+02 -0.11027802790E+04  0.12009825356E+04  0.40000000000E+03 0.  1.
   -9000007    1    1    2    0  503 -0.25363434337E+03  0.43638595884E+02 -0.11338731018E+04  0.12295946154E+04  0.40000000000E+03 0.  1.
<mgrwt>
<rscale>  2 0.47564136E+03</rscale>
<asrwt>0</asrwt>
<pdfrwt beam="1">  1       21 0.14917212E-01 0.47564136E+03</pdfrwt>
<pdfrwt beam="2">  1       21 0.35901776E+00 0.47564136E+03</pdfrwt>
<totfact> 0.47208379E+02</totfact>
</mgrwt>
</event>
<event>
 4    1  0.4656822E-002  0.5447609E+03  0.7818608E-02  0.1002714E+00
         21   -1    0    0  503  502  0.00000000000E+00  0.00000000000E+00  0.15900665217E+03  0.15900665217E+03  0.00000000000E+00 0. -1.
         21   -1    0    0  501  503 -0.00000000000E+00 -0.00000000000E+00 -0.21078581981E+04  0.21078581981E+04  0.00000000000E+00 0.  1.
    9000007    1    1    2  501    0  0.21787623480E+02  0.36917441509E+03 -0.13580688757E+04  0.14632551112E+04  0.40000000000E+03 0.  1.
   -9000007    1    1    2    0  502 -0.21787623480E+02 -0.36917441509E+03 -0.59078267022E+03  0.80360973907E+03  0.40000000000E+03 0. -1.
<mgrwt>
<rscale>  2 0.54476091E+03</rscale>
<asrwt>0</asrwt>
<pdfrwt beam="1">  1       21 0.24462563E-01 0.54476091E+03</pdfrwt>
<pdfrwt beam="2">  1       21 0.32428586E+00 0.54476091E+03</pdfrwt>
<totfact> 0.29033854E+02</totfact>
</mgrwt>
</event>
<event>
 4    1  0.4656822E-002  0.4234819E+03  0.7818608E-02  0.1035939E+00
         21   -1    0    0  503  502  0.00000000000E+00  0.00000000000E+00  0.27360160143E+03  0.27360160143E+03  0.00000000000E+00 0. -1.
         21   -1    0    0  501  503 -0.00000000000E+00 -0.00000000000E+00 -0.15641245506E+04  0.15641245506E+04  0.00000000000E+00 0. -1.
    9000007    1    1    2  501    0  0.38680182688E+02  0.13356922368E+03 -0.13456115658E+04  0.14106762138E+04  0.40000000000E+03 0. -1.
   -9000007    1    1    2    0  502 -0.38680182688E+02 -0.13356922368E+03  0.55088616688E+02  0.42704993822E+03  0.40000000000E+03 0. -1.
<mgrwt>
<rscale>  2 0.42348187E+03</rscale>
<asrwt>0</asrwt>
<pdfrwt beam="1">  1       21 0.42092554E-01 0.42348187E+03</pdfrwt>
<pdfrwt beam="2">  1       21 0.24063455E+00 0.42348187E+03</pdfrwt>
<totfact> 0.33587948E+02</totfact>
</mgrwt>
</event>
<event>
 4    1  0.4656822E-002  0.4334529E+03  0.7818608E-02  0.1032775E+00
         21   -1    0    0  503  502  0.00000000000E+00  0.00000000000E+00  0.21089493843E+03  0.21089493843E+03  0.00000000000E+00 0.  1.
         21   -1    0    0  501  503 -0.00000000000E+00 -0.00000000000E+00 -0.95002916049E+03  0.95002916049E+03  0.00000000000E+00 0. -1.
    9000007    1    1    2  501    0  0.16565788045E+03 -0.20949164971E+02 -0.22472610753E+03  0.48824504532E+03  0.40000000000E+03 0.  1.
   -9000007    1    1    2    0  502 -0.16565788045E+03  0.20949164971E+02 -0.51440811452E+03  0.67267905360E+03  0.40000000000E+03 0. -1.
<mgrwt>
<rscale>  2 0.43345288E+03</rscale>
<asrwt>0</asrwt>
<pdfrwt beam="1">  1       21 0.32445375E-01 0.43345288E+03</pdfrwt>
<pdfrwt beam="2">  1       21 0.14615833E+00 0.43345288E+03</pdfrwt>
<totfact> 0.25331716E+03</totfact>
</mgrwt>
</event>
<event>
 4    1  0.4656822E-002  0.6542418E+03  0.7818608E-02  0.9798852E-01
         21   -1    0    0  501  502  0.00000000000E+00  0.00000000000E+00  0.39308874515E+03  0.39308874515E+03  0.00000000000E+00 0.  1.
         21   -1    0    0  502  503 -0.00000000000E+00 -0.00000000000E+00 -0.12665160107E+04  0.12665160107E+04  0.00000000000E+00 0. -1.
    9000007    1    1    2  501    0  0.46414247410E+03  0.22935571910E+03 -0.74746766459E+03  0.99334797113E+03  0.40000000000E+03 0. -1.
   -9000007    1    1    2    0  503 -0.46414247410E+03 -0.22935571910E+03 -0.12595960100E+03  0.66625678475E+03  0.40000000000E+03 0.  1.
<mgrwt>
<rscale>  2 0.65424176E+03</rscale>
<asrwt>0</asrwt>
<pdfrwt beam="1">  1       21 0.60475192E-01 0.65424176E+03</pdfrwt>
<pdfrwt beam="2">  1       21 0.19484862E+00 0.65424176E+03</pdfrwt>
<totfact> 0.27682260E+02</totfact>
</mgrwt>
</event>
<event>
 4    1  0.4656822E-002  0.5219409E+03  0.7818608E-02  0.1008206E+00
         21   -1    0    0  503  502  0.00000000000E+00  0.00000000000E+00  0.87543382238E+03  0.87543382238E+03  0.00000000000E+00 0.  1.
         21   -1    0    0  501  503 -0.00000000000E+00 -0.00000000000E+00 -0.59058461223E+03  0.59058461223E+03  0.00000000000E+00 0.  1.
    9000007    1    1    2  501    0  0.32758088588E+03  0.71505552396E+02 -0.36174993472E+03  0.63504747546E+03  0.40000000000E+03 0.  1.
   -9000007    1    1    2    0  502 -0.32758088588E+03 -0.71505552396E+02  0.64659914487E+03  0.83097095916E+03  0.40000000000E+03 0.  1.
<mgrwt>
<rscale>  2 0.52194088E+03</rscale>
<asrwt>0</asrwt>
<pdfrwt beam="1">  1       21 0.13468213E+00 0.52194088E+03</pdfrwt>
<pdfrwt beam="2">  1       21 0.90859171E-01 0.52194088E+03</pdfrwt>
<totfact> 0.32559793E+02</totfact>
</mgrwt>
</event>
<event>
 4    1  0.4656822E-002  0.4873576E+03  0.7818608E-02  0.1017132E+00
         21   -1    0    0  503  502  0.00000000000E+00  0.00000000000E+00  0.26840839684E+03  0.26840839684E+03  0.00000000000E+00 0. -1.
         21   -1    0    0  501  503 -0.00000000000E+00 -0.00000000000E+00 -0.11071648286E+04  0.11071648286E+04  0.00000000000E+00 0. -1.
    9000007    1    1    2  501    0 -0.27812531120E+03 -0.12796933565E+02 -0.11122085901E+03  0.49988751706E+03  0.40000000000E+03 0. -1.
   -9000007    1    1    2    0  502  0.27812531120E+03  0.12796933565E+02 -0.72753557280E+03  0.87568570842E+03  0.40000000000E+03 0. -1.
<mgrwt>
<rscale>  2 0.48735762E+03</rscale>
<asrwt>0</asrwt>
<pdfrwt beam="1">  1       21 0.41293600E-01 0.48735762E+03</pdfrwt>
<pdfrwt beam="2">  1       21 0.17033305E+00 0.48735762E+03</pdfrwt>
<totfact> 0.99227069E+02</totfact>
</mgrwt>
</event>
<event>
 4    1  0.4656822E-002  0.4318928E+03  0.7818608E-02  0.1033264E+00
         21   -1    0    0  503  502  0.00000000000E+00  0.00000000000E+00  0.15910440898E+04  0.15910440898E+04  0.00000000000E+00 0.  1.
         21   -1    0    0  501  503 -0.00000000000E+00 -0.00000000000E+00 -0.51398548105E+03  0.51398548105E+03  0.00000000000E+00 0.  1.
    9000007    1    1    2  501    0  0.31036744143E+02 -0.15990043513E+03 -0.38618944170E+03  0.57937355266E+03  0.40000000000E+03 0.  1.
   -9000007    1    1    2    0  502 -0.31036744143E+02  0.15990043513E+03  0.14632480505E+04  0.15256560182E+04  0.40000000000E+03 0.  1.
<mgrwt>
<rscale>  2 0.43189284E+03</rscale>
<asrwt>0</asrwt>
<pdfrwt beam="1">  1       21 0.24477601E+00 0.43189284E+03</pdfrwt>
<pdfrwt beam="2">  1       21 0.79074690E-01 0.43189284E+03</pdfrwt>
<totfact> 0.79769541E+01</totfact>
</mgrwt>
</event>
<event>
 4    1  0.4656822E-002  0.4438295E+03  0.7818608E-02  0.1029578E+00
         21   -1    0    0  503  502  0.00000000000E+00  0.00000000000E+00  0.10653612515E+03  0.10653612515E+03  0.00000000000E+00 0.  1.
         21   -1    0    0  501  503 -0.00000000000E+00 -0.00000000000E+00 -0.28955347625E+04  0.28955347625E+04  0.00000000000E+00 0.  1.
    9000007    1    1    2  501    0  0.10728480232E+03  0.15960751909E+03 -0.22969111092E+04  0.23393984766E+04  0.40000000000E+03 0.  1.
   -9000007    1    1    2    0  502 -0.10728480232E+03 -0.15960751909E+03 -0.49208752820E+03  0.66267241105E+03  0.40000000000E+03 0.  1.
<mgrwt>
<rscale>  2 0.44382946E+03</rscale>
<asrwt>0</asrwt>
<pdfrwt beam="1">  1       21 0.16390178E-01 0.44382946E+03</pdfrwt>
<pdfrwt beam="2">  1       21 0.44546676E+00 0.44382946E+03</pdfrwt>
<totfact> 0.11216316E+02</totfact>
</mgrwt>
</event>
<event>
 4    1  0.4656822E-002  0.8067723E+03  0.7818608E-02  0.9550266E-01
         21   -1    0    0  503  502  0.00000000000E+00  0.00000000000E+00  0.19779275276E+04  0.19779275276E+04  0.00000000000E+00 0. -1.
         21   -1    0    0  501  503 -0.00000000000E+00 -0.00000000000E+00 -0.33773918292E+03  0.33773918292E+03  0.00000000000E+00 0.  1.
    9000007    1    1    2  501    0  0.55860807706E+03 -0.42289303239E+03  0.63462040544E+03  0.10264621569E+04  0.40000000000E+03 0. -1.
   -9000007    1    1    2    0  502 -0.55860807706E+03  0.42289303239E+03  0.10055679392E+04  0.12892045536E+04  0.40000000000E+03 0.  1.
<mgrwt>
<rscale>  2 0.80677227E+03</rscale>
<asrwt>0</asrwt>
<pdfrwt beam="1">  1       21 0.30429653E+00 0.80677227E+03</pdfrwt>
<pdfrwt beam="2">  1       21 0.51959876E-01 0.80677227E+03</pdfrwt>
<totfact> 0.73839158E+01</totfact>
</mgrwt>
</event>
<event>
 4    1  0.4656822E-002  0.5619263E+03  0.7818608E-02  0.9987705E-01
         21   -1    0    0  501  502  0.00000000000E+00  0.00000000000E+00  0.18010191460E+04  0.18010191460E+04  0.00000000000E+00 0. -1.
         21   -1    0    0  502  503 -0.00000000000E+00 -0.00000000000E+00 -0.20161060652E+03  0.20161060652E+03  0.00000000000E+00 0.  1.
    9000007    1    1    2  501    0  0.35415162963E+03 -0.17417738779E+03  0.11612678213E+04  0.12900791030E+04  0.40000000000E+03 0. -1.
   -9000007    1    1    2    0  503 -0.35415162963E+03  0.17417738779E+03  0.43814071813E+03  0.71255064948E+03  0.40000000000E+03 0. -1.
<mgrwt>
<rscale>  2 0.56192628E+03</rscale>
<asrwt>0</asrwt>
<pdfrwt beam="1">  1       21 0.27707986E+00 0.56192628E+03</pdfrwt>
<pdfrwt beam="2">  1       21 0.31017018E-01 0.56192628E+03</pdfrwt>
<totfact> 0.34879803E+02</totfact>
</mgrwt>
</event>
<event>
 4    1  0.4656822E-002  0.4464645E+03  0.7818608E-02  0.1028782E+00
         21   -1    0    0  501  502  0.00000000000E+00  0.00000000000E+00  0.11679582522E+04  0.11679582522E+04  0.00000000000E+00 0. -1.
         21   -1    0    0  502  503 -0.00000000000E+00 -0.00000000000E+00 -0.22131801129E+03  0.22131801129E+03  0.00000000000E+00 0. -1.
    9000007    1    1    2  501    0  0.70688476159E+02  0.18529357351E+03  0.80563462711E+03  0.92107422147E+03  0.40000000000E+03 0.  1.
   -9000007    1    1    2    0  503 -0.70688476159E+02 -0.18529357351E+03  0.14100561380E+03  0.46820204204E+03  0.40000000000E+03 0.  1.
<mgrwt>
<rscale>  2 0.44646452E+03</rscale>
<asrwt>0</asrwt>
<pdfrwt beam="1">  1       21 0.17968588E+00 0.44646452E+03</pdfrwt>
<pdfrwt beam="2">  1       21 0.34048925E-01 0.44646452E+03</pdfrwt>
<totfact> 0.12832083E+03</totfact>
</mgrwt>
</event>
<event>
 4    1  0.4656822E-002  0.5316254E+03  0.7818608E-02  0.1005839E+00
         21   -1    0    0  501  502  0.00000000000E+00  0.00000000000E+00  0.10398557626E+04  0.10398557626E+04  0.00000000000E+00 0. -1.
         21   -1    0    0  502  503 -0.00000000000E+00 -0.00000000000E+00 -0.27186282596E+03  0.27186282596E+03  0.00000000000E+00 0.  1.
    9000007    1    1    2  501    0 -0.31916534268E+02  0.34872186830E+03  0.39450100577E+03  0.66200955442E+03  0.40000000000E+03 0.  1.
   -9000007    1    1    2    0  503  0.31916534268E+02 -0.34872186830E+03  0.37349193082E+03  0.64970903409E+03  0.40000000000E+03 0. -1.
<mgrwt>
<rscale>  2 0.53162544E+03</rscale>
<asrwt>0</asrwt>
<pdfrwt beam="1">  1       21 0.15997781E+00 0.53162544E+03</pdfrwt>
<pdfrwt beam="2">  1       21 0.41825051E-01 0.53162544E+03</pdfrwt>
<totfact> 0.11347867E+03</totfact>
</mgrwt>
</event>
<event>
 4    1  0.4656822E-002  0.4614678E+03  0.7818608E-02  0.1024356E+00
         21   -1    0    0  503  502  0.00000000000E+00  0.00000000000E+00  0.34592595625E+03  0.34592595625E+03  0.00000000000E+00 0.  1.
         21   -1    0    0  501  503 -0.00000000000E+00 -0.00000000000E+00 -0.63485927776E+03  0.63485927776E+03  0.00000000000E+00 0.  1.
    9000007    1    1    2  501    0  0.13911835114E+03  0.18329919118E+03 -0.59056566683E+02  0.46523132652E+03  0.40000000000E+03 0.  1.
   -9000007    1    1    2    0  502 -0.13911835114E+03 -0.18329919118E+03 -0.22987675482E+03  0.51555390748E+03  0.40000000000E+03 0.  1.
<mgrwt>
<rscale>  2 0.46146778E+03</rscale>
<asrwt>0</asrwt>
<pdfrwt beam="1">  1       21 0.53219379E-01 0.46146778E+03</pdfrwt>
<pdfrwt beam="2">  1       21 0.97670656E-01 0.46146778E+03</pdfrwt>
<totfact> 0.25045836E+03</totfact>
</mgrwt>
</event>
<event>
 4    1  0.4656822E-002  0.5244673E+03  0.7818608E-02  0.1007583E+00
         21   -1    0    0  501  502  0.00000000000E+00  0.00000000000E+00  0.59194271258E+03  0.59194271258E+03  0.00000000000E+00 0.  1.
         21   -1    0    0  502  503 -0.00000000000E+00 -0.00000000000E+00 -0.51992270487E+03  0.51992270487E+03  0.00000000000E+00 0.  1.
    9000007    1    1    2  501    0 -0.30368403370E+03  0.15113572104E+03  0.21721769661E+03  0.56767026187E+03  0.40000000000E+03 0.  1.
   -9000007    1    1    2    0  503  0.30368403370E+03 -0.15113572104E+03 -0.14519768890E+03  0.54419515558E+03  0.40000000000E+03 0.  1.
<mgrwt>
<rscale>  2 0.52446735E+03</rscale>
<asrwt>0</asrwt>
<pdfrwt beam="1">  1       21 0.91068110E-01 0.52446735E+03</pdfrwt>
<pdfrwt beam="2">  1       21 0.79988108E-01 0.52446735E+03</pdfrwt>
<totfact> 0.11681710E+03</totfact>
</mgrwt>
</event>
<event>
 4    1  0.4656822E-002  0.5484572E+03  0.7818608E-02  0.1001852E+00
         21   -1    0    0  501  502  0.00000000000E+00  0.00000000000E+00  0.24263242482E+03  0.24263242482E+03  0.00000000000E+00 0.  1.
         21   -1    0    0  502  503 -0.00000000000E+00 -0.00000000000E+00 -0.21790742433E+04  0.21790742433E+04  0.00000000000E+00 0. -1.
    9000007    1    1    2  501    0  0.26236866975E+03  0.26826843523E+03 -0.17632108836E+04  0.18465421447E+04  0.40000000000E+03 0. -1.
   -9000007    1    1    2    0  503 -0.26236866975E+03 -0.26826843523E+03 -0.17323093493E+03  0.57516452344E+03  0.40000000000E+03 0.  1.
<mgrwt>
<rscale>  2 0.54845717E+03</rscale>
<asrwt>0</asrwt>
<pdfrwt beam="1">  1       21 0.37328065E-01 0.54845717E+03</pdfrwt>
<pdfrwt beam="2">  1       21 0.33524220E+00 0.54845717E+03</pdfrwt>
<totfact> 0.10679984E+02</totfact>
</mgrwt>
</event>
<event>
 4    1  0.4656822E-002  0.5059407E+03  0.7818608E-02  0.1012240E+00
         21   -1    0    0  501  502  0.00000000000E+00  0.00000000000E+00  0.84753901169E+03  0.84753901169E+03  0.00000000000E+00 0.  1.
         21   -1    0    0  502  503 -0.00000000000E+00 -0.00000000000E+00 -0.43498150123E+03  0.43498150123E+03  0.00000000000E+00 0.  1.
    9000007    1    1    2  501    0 -0.26336896083E+03  0.16313426640E+03  0.56081245172E+03  0.75530563642E+03  0.40000000000E+03 0.  1.
   -9000007    1    1    2    0  503  0.26336896083E+03 -0.16313426640E+03 -0.14825494126E+03  0.52721487651E+03  0.40000000000E+03 0.  1.
<mgrwt>
<rscale>  2 0.50594071E+03</rscale>
<asrwt>0</asrwt>
<pdfrwt beam="1">  1       21 0.13039062E+00 0.50594071E+03</pdfrwt>
<pdfrwt beam="2">  1       21 0.66920231E-01 0.50594071E+03</pdfrwt>
<totfact> 0.72225428E+02</totfact>
</mgrwt>
</event>
<event>
 4    1  0.4656822E-002  0.4665740E+03  0.7818608E-02  0.1022892E+00
         21   -1    0    0  503  502  0.00000000000E+00  0.00000000000E+00  0.11923679507E+04  0.11923679507E+04  0.00000000000E+00 0. -1.
         21   -1    0    0  501  503 -0.00000000000E+00 -0.00000000000E+00 -0.19138752900E+03  0.19138752900E+03  0.00000000000E+00 0. -1.
    9000007    1    1    2  501    0 -0.18668065391E+03  0.15113443411E+03  0.64899218027E+03  0.79930102825E+03  0.40000000000E+03 0. -1.
   -9000007    1    1    2    0  502  0.18668065391E+03 -0.15113443411E+03  0.35198824144E+03  0.58445445146E+03  0.40000000000E+03 0. -1.
<mgrwt>
<rscale>  2 0.46657399E+03</rscale>
<asrwt>0</asrwt>
<pdfrwt beam="1">  1       21 0.18344122E+00 0.46657399E+03</pdfrwt>
<pdfrwt beam="2">  1       21 0.29444236E-01 0.46657399E+03</pdfrwt>
<totfact> 0.16011818E+03</totfact>
</mgrwt>
</event>
<event>
 4    1  0.4656822E-002  0.4234287E+03  0.7818608E-02  0.1035956E+00
         21   -1    0    0  503  502  0.00000000000E+00  0.00000000000E+00  0.10253262650E+04  0.10253262650E+04  0.00000000000E+00 0. -1.
         21   -1    0    0  501  503 -0.00000000000E+00 -0.00000000000E+00 -0.46868406985E+03  0.46868406985E+03  0.00000000000E+00 0. -1.
    9000007    1    1    2  501    0 -0.13816607541E+03  0.14211528333E+02 -0.31313815447E+03  0.52663776519E+03  0.40000000000E+03 0. -1.
   -9000007    1    1    2    0  502  0.13816607541E+03 -0.14211528333E+02  0.86978034960E+03  0.96737256963E+03  0.40000000000E+03 0. -1.
<mgrwt>
<rscale>  2 0.42342866E+03</rscale>
<asrwt>0</asrwt>
<pdfrwt beam="1">  1       21 0.15774250E+00 0.42342866E+03</pdfrwt>
<pdfrwt beam="2">  1       21 0.72105242E-01 0.42342866E+03</pdfrwt>
<totfact> 0.38018287E+02</totfact>
</mgrwt>
</event>
<event>
 4    1  0.4656822E-002  0.4124685E+03  0.7818608E-02  0.1039546E+00
         21   -1    0    0  501  502  0.00000000000E+00  0.00000000000E+00  0.10301505971E+03  0.10301505971E+03  0.00000000000E+00 0. -1.
         21   -1    0    0  502  503 -0.00000000000E+00 -0.00000000000E+00 -0.20138261102E+04  0.20138261102E+04  0.00000000000E+00 0. -1.
    9000007    1    1    2  501    0 -0.34309897564E+02  0.94620656335E+02 -0.50646163214E+03  0.65317197009E+03  0.40000000000E+03 0. -1.
   -9000007    1    1    2    0  503  0.34309897564E+02 -0.94620656335E+02 -0.14043494184E+04  0.14636691998E+04  0.40000000000E+03 0. -1.
<mgrwt>
<rscale>  2 0.41246847E+03</rscale>
<asrwt>0</asrwt>
<pdfrwt beam="1">  1       21 0.15848472E-01 0.41246847E+03</pdfrwt>
<pdfrwt beam="2">  1       21 0.30981937E+00 0.41246847E+03</pdfrwt>
<totfact> 0.87185776E+02</totfact>
</mgrwt>
</event>
<event>
 4    1  0.4656822E-002  0.5533280E+03  0.7818608E-02  0.1000727E+00
         21   -1    0    0  501  502  0.00000000000E+00  0.00000000000E+00  0.63925655295E+03  0.63925655295E+03  0.00000000000E+00 0.  1.
         21   -1    0    0  502  503 -0.00000000000E+00 -0.00000000000E+00 -0.22575844236E+04  0.22575844236E+04  0.00000000000E+00 0.  1.
    9000007    1    1    2  501    0  0.31620996659E+03  0.21490257025E+03  0.47646612707E+03  0.73019985478E+03  0.40000000000E+03 0.  1.
   -9000007    1    1    2    0  503 -0.31620996659E+03 -0.21490257025E+03 -0.20947939977E+04  0.21666411218E+04  0.40000000000E+03 0.  1.
<mgrwt>
<rscale>  2 0.55332798E+03</rscale>
<asrwt>0</asrwt>
<pdfrwt beam="1">  1       21 0.98347162E-01 0.55332798E+03</pdfrwt>
<pdfrwt beam="2">  1       21 0.34732068E+00 0.55332798E+03</pdfrwt>
<totfact> 0.10488988E+01</totfact>
</mgrwt>
</event>
<event>
 4    1  0.4656822E-002  0.4420908E+03  0.7818608E-02  0.1030107E+00
         21   -1    0    0  501  502  0.00000000000E+00  0.00000000000E+00  0.22349101201E+03  0.22349101201E+03  0.00000000000E+00 0.  1.
         21   -1    0    0  502  503 -0.00000000000E+00 -0.00000000000E+00 -0.88561177684E+03  0.88561177684E+03  0.00000000000E+00 0.  1.
    9000007    1    1    2  501    0  0.16538368324E+03  0.89958476395E+02 -0.26896069689E+03  0.51747864365E+03  0.40000000000E+03 0.  1.
   -9000007    1    1    2    0  503 -0.16538368324E+03 -0.89958476395E+02 -0.39316006794E+03  0.59162414520E+03  0.40000000000E+03 0.  1.
<mgrwt>
<rscale>  2 0.44209082E+03</rscale>
<asrwt>0</asrwt>
<pdfrwt beam="1">  1       21 0.34383232E-01 0.44209082E+03</pdfrwt>
<pdfrwt beam="2">  1       21 0.13624797E+00 0.44209082E+03</pdfrwt>
<totfact> 0.27089428E+03</totfact>
</mgrwt>
</event>
<event>
 4    1  0.4656822E-002  0.6025416E+03  0.7818608E-02  0.9900147E-01
         21   -1    0    0  503  502  0.00000000000E+00  0.00000000000E+00  0.59458587396E+03  0.59458587396E+03  0.00000000000E+00 0. -1.
         21   -1    0    0  501  503 -0.00000000000E+00 -0.00000000000E+00 -0.61284710587E+03  0.61284710587E+03  0.00000000000E+00 0.  1.
    9000007    1    1    2  501    0  0.45058366725E+03 -0.55457814310E+01 -0.45656501740E+02  0.60426890788E+03  0.40000000000E+03 0.  1.
   -9000007    1    1    2    0  502 -0.45058366725E+03  0.55457814310E+01  0.27395269836E+02  0.60316407195E+03  0.40000000000E+03 0. -1.
<mgrwt>
<rscale>  2 0.60254161E+03</rscale>
<asrwt>0</asrwt>
<pdfrwt beam="1">  1       21 0.91474750E-01 0.60254161E+03</pdfrwt>
<pdfrwt beam="2">  1       21 0.94284170E-01 0.60254161E+03</pdfrwt>
<totfact> 0.76384108E+02</totfact>
</mgrwt>
</event>
<event>
 4    1  0.4656822E-002  0.4502932E+03  0.7818608E-02  0.1027635E+00
         21   -1    0    0  503  502  0.00000000000E+00  0.00000000000E+00  0.23441537117E+03  0.23441537117E+03  0.00000000000E+00 0. -1.
         21   -1    0    0  501  503 -0.00000000000E+00 -0.00000000000E+00 -0.13689517449E+04  0.13689517449E+04  0.00000000000E+00 0. -1.
    9000007    1    1    2  501    0  0.18032200137E+02  0.20600688870E+03 -0.10536900882E+04  0.11458738152E+04  0.40000000000E+03 0. -1.
   -9000007    1    1    2    0  502 -0.18032200137E+02 -0.20600688870E+03 -0.80846285517E+02  0.45749330084E+03  0.40000000000E+03 0. -1.
<mgrwt>
<rscale>  2 0.45029324E+03</rscale>
<asrwt>0</asrwt>
<pdfrwt beam="1">  1       21 0.36063903E-01 0.45029324E+03</pdfrwt>
<pdfrwt beam="2">  1       21 0.21060796E+00 0.45029324E+03</pdfrwt>
<totfact> 0.70466920E+02</totfact>
</mgrwt>
</event>
<event>
 4    1  0.4656822E-002  0.4091391E+03  0.7818608E-02  0.1040660E+00
         21   -1    0    0  503  502  0.00000000000E+00  0.00000000000E+00  0.33158821055E+03  0.33158821055E+03  0.00000000000E+00 0.  1.
         21   -1    0    0  501  503 -0.00000000000E+00 -0.00000000000E+00 -0.64901024671E+03  0.64901024671E+03  0.00000000000E+00 0.  1.
    9000007    1    1    2  501    0  0.80006181687E+02 -0.31525432522E+02 -0.38980684591E+03  0.56510549380E+03  0.40000000000E+03 0.  1.
   -9000007    1    1    2    0  502 -0.80006181687E+02  0.31525432522E+02  0.72384809755E+02  0.41549296346E+03  0.40000000000E+03 0.  1.
<mgrwt>
<rscale>  2 0.40913915E+03</rscale>
<asrwt>0</asrwt>
<pdfrwt beam="1">  1       21 0.51013571E-01 0.40913915E+03</pdfrwt>
<pdfrwt beam="2">  1       21 0.99847729E-01 0.40913915E+03</pdfrwt>
<totfact> 0.26515365E+03</totfact>
</mgrwt>
</event>
<event>
 4    1  0.4656822E-002  0.5650704E+03  0.7818608E-02  0.9980647E-01
         21   -1    0    0  503  502  0.00000000000E+00  0.00000000000E+00  0.48786397377E+03  0.48786397377E+03  0.00000000000E+00 0. -1.
         21   -1    0    0  501  503 -0.00000000000E+00 -0.00000000000E+00 -0.65855354487E+03  0.65855354487E+03  0.00000000000E+00 0.  1.
    9000007    1    1    2  501    0 -0.10330823606E+03 -0.38552822340E+03 -0.40346637162E+02  0.56650900594E+03  0.40000000000E+03 0. -1.
   -9000007    1    1    2    0  502  0.10330823606E+03  0.38552822340E+03 -0.13034293394E+03  0.57990851270E+03  0.40000000000E+03 0.  1.
<mgrwt>
<rscale>  2 0.56507044E+03</rscale>
<asrwt>0</asrwt>
<pdfrwt beam="1">  1       21 0.75055996E-01 0.56507044E+03</pdfrwt>
<pdfrwt beam="2">  1       21 0.10131593E+00 0.56507044E+03</pdfrwt>
<totfact> 0.10315632E+03</totfact>
</mgrwt>
</event>
<event>
 4    1  0.4656822E-002  0.5414188E+03  0.7818608E-02  0.1003500E+00
         21   -1    0    0  501  502  0.00000000000E+00  0.00000000000E+00  0.13960120273E+04  0.13960120273E+04  0.00000000000E+00 0. -1.
         21   -1    0    0  502  503 -0.00000000000E+00 -0.00000000000E+00 -0.30893003441E+03  0.30893003441E+03  0.00000000000E+00 0. -1.
    9000007    1    1    2  501    0 -0.13200084179E+03 -0.34016180737E+03  0.10259973761E+04  0.11600883126E+04  0.40000000000E+03 0. -1.
   -9000007    1    1    2    0  503  0.13200084179E+03  0.34016180737E+03  0.61084616795E+02  0.54485374904E+03  0.40000000000E+03 0. -1.
<mgrwt>
<rscale>  2 0.54141876E+03</rscale>
<asrwt>0</asrwt>
<pdfrwt beam="1">  1       21 0.21477108E+00 0.54141876E+03</pdfrwt>
<pdfrwt beam="2">  1       21 0.47527698E-01 0.54141876E+03</pdfrwt>
<totfact> 0.35833226E+02</totfact>
</mgrwt>
</event>
<event>
 4    1  0.4656822E-002  0.4133214E+03  0.7818608E-02  0.1039262E+00
         21   -1    0    0  503  502  0.00000000000E+00  0.00000000000E+00  0.70345526827E+03  0.70345526827E+03  0.00000000000E+00 0.  1.
         21   -1    0    0  501  503 -0.00000000000E+00 -0.00000000000E+00 -0.30409360536E+03  0.30409360536E+03  0.00000000000E+00 0.  1.
    9000007    1    1    2  501    0 -0.80251397901E+02  0.66289202789E+02  0.42576006527E+03  0.59338535409E+03  0.40000000000E+03 0.  1.
   -9000007    1    1    2    0  502  0.80251397901E+02 -0.66289202789E+02 -0.26398402361E+02  0.41416351954E+03  0.40000000000E+03 0.  1.
<mgrwt>
<rscale>  2 0.41332136E+03</rscale>
<asrwt>0</asrwt>
<pdfrwt beam="1">  1       21 0.10822389E+00 0.41332136E+03</pdfrwt>
<pdfrwt beam="2">  1       21 0.46783632E-01 0.41332136E+03</pdfrwt>
<totfact> 0.26097806E+03</totfact>
</mgrwt>
</event>
<event>
 4    1  0.4656822E-002  0.4268193E+03  0.7818608E-02  0.1034869E+00
         21   -1    0    0  501  502  0.00000000000E+00  0.00000000000E+00  0.70910389119E+03  0.70910389119E+03  0.00000000000E+00 0.  1.
         21   -1    0    0  502  503 -0.00000000000E+00 -0.00000000000E+00 -0.28436947106E+03  0.28436947106E+03  0.00000000000E+00 0.  1.
    9000007    1    1    2  501    0 -0.12376525998E+03  0.82806171692E+02  0.36673048296E+03  0.56273079601E+03  0.40000000000E+03 0.  1.
   -9000007    1    1    2    0  503  0.12376525998E+03 -0.82806171692E+02  0.58003937171E+02  0.43074256625E+03  0.40000000000E+03 0.  1.
<mgrwt>
<rscale>  2 0.42681928E+03</rscale>
<asrwt>0</asrwt>
<pdfrwt beam="1">  1       21 0.10909291E+00 0.42681928E+03</pdfrwt>
<pdfrwt beam="2">  1       21 0.43749150E-01 0.42681928E+03</pdfrwt>
<totfact> 0.29289153E+03</totfact>
</mgrwt>
</event>
<event>
 4    1  0.4656822E-002  0.5065382E+03  0.7818608E-02  0.1012086E+00
         21   -1    0    0  501  502  0.00000000000E+00  0.00000000000E+00  0.70049894882E+03  0.70049894882E+03  0.00000000000E+00 0.  1.
         21   -1    0    0  502  503 -0.00000000000E+00 -0.00000000000E+00 -0.60610176619E+03  0.60610176619E+03  0.00000000000E+00 0.  1.
    9000007    1    1    2  501    0 -0.22784504693E+03 -0.21134695239E+03  0.45814164835E+03  0.68298950918E+03  0.40000000000E+03 0.  1.
   -9000007    1    1    2    0  503  0.22784504693E+03  0.21134695239E+03 -0.36374446573E+03  0.62361120583E+03  0.40000000000E+03 0.  1.
<mgrwt>
<rscale>  2 0.50653815E+03</rscale>
<asrwt>0</asrwt>
<pdfrwt beam="1">  1       21 0.10776907E+00 0.50653815E+03</pdfrwt>
<pdfrwt beam="2">  1       21 0.93246425E-01 0.50653815E+03</pdfrwt>
<totfact> 0.54387876E+02</totfact>
</mgrwt>
</event>
<event>
 4    1  0.4656822E-002  0.4579483E+03  0.7818608E-02  0.1025378E+00
         21   -1    0    0  501  502  0.00000000000E+00  0.00000000000E+00  0.50000769421E+03  0.50000769421E+03  0.00000000000E+00 0.  1.
         21   -1    0    0  502  503 -0.00000000000E+00 -0.00000000000E+00 -0.42144751552E+03  0.42144751552E+03  0.00000000000E+00 0.  1.
    9000007    1    1    2  501    0  0.20277203932E+03 -0.92737205889E+02  0.71181634626E+02  0.46344742355E+03  0.40000000000E+03 0.  1.
   -9000007    1    1    2    0  503 -0.20277203932E+03  0.92737205889E+02  0.73785440621E+01  0.45800778618E+03  0.40000000000E+03 0.  1.
<mgrwt>
<rscale>  2 0.45794835E+03</rscale>
<asrwt>0</asrwt>
<pdfrwt beam="1">  1       21 0.76924261E-01 0.45794835E+03</pdfrwt>
<pdfrwt beam="2">  1       21 0.64838079E-01 0.45794835E+03</pdfrwt>
<totfact> 0.28560312E+03</totfact>
</mgrwt>
</event>
<event>
 4    1  0.4656822E-002  0.4015334E+03  0.7818608E-02  0.1043250E+00
         21   -1    0    0  503  502  0.00000000000E+00  0.00000000000E+00  0.16100951452E+03  0.16100951452E+03  0.00000000000E+00 0. -1.
         21   -1    0    0  501  503 -0.00000000000E+00 -0.00000000000E+00 -0.11663105573E+04  0.11663105573E+04  0.00000000000E+00 0. -1.
    9000007    1    1    2  501    0 -0.34699942030E+02  0.50013978898E+01 -0.75223090529E+03  0.85269011653E+03  0.40000000000E+03 0. -1.
   -9000007    1    1    2    0  502  0.34699942030E+02 -0.50013978898E+01 -0.25307013746E+03  0.47462995526E+03  0.40000000000E+03 0. -1.
<mgrwt>
<rscale>  2 0.40153344E+03</rscale>
<asrwt>0</asrwt>
<pdfrwt beam="1">  1       21 0.24770696E-01 0.40153344E+03</pdfrwt>
<pdfrwt beam="2">  1       21 0.17943239E+00 0.40153344E+03</pdfrwt>
<totfact> 0.24657186E+03</totfact>
</mgrwt>
</event>
<event>
 4    1  0.4656822E-002  0.4101164E+03  0.7818608E-02  0.1040332E+00
         21   -1    0    0  503  502  0.00000000000E+00  0.00000000000E+00  0.36120844502E+03  0.36120844502E+03  0.00000000000E+00 0. -1.
         21   -1    0    0  501  503 -0.00000000000E+00 -0.00000000000E+00 -0.59287334993E+03  0.59287334993E+03  0.00000000000E+00 0. -1.
    9000007    1    1    2  501    0  0.68465500462E+02 -0.59227587861E+02  0.10515321786E+03  0.42338236990E+03  0.40000000000E+03 0. -1.
   -9000007    1    1    2    0  502 -0.68465500462E+02  0.59227587861E+02 -0.33681812277E+03  0.53069942504E+03  0.40000000000E+03 0. -1.
<mgrwt>
<rscale>  2 0.41011636E+03</rscale>
<asrwt>0</asrwt>
<pdfrwt beam="1">  1       21 0.55570530E-01 0.41011636E+03</pdfrwt>
<pdfrwt beam="2">  1       21 0.91211285E-01 0.41011636E+03</pdfrwt>
<totfact> 0.27398706E+03</totfact>
</mgrwt>
</event>
<event>
 4    1  0.4656822E-002  0.5028364E+03  0.7818608E-02  0.1013041E+00
         21   -1    0    0  501  502  0.00000000000E+00  0.00000000000E+00  0.14030503111E+03  0.14030503111E+03  0.00000000000E+00 0. -1.
         21   -1    0    0  502  503 -0.00000000000E+00 -0.00000000000E+00 -0.20230663773E+04  0.20230663773E+04  0.00000000000E+00 0. -1.
    9000007    1    1    2  501    0 -0.30053919520E+03  0.50206117086E+02 -0.58389901801E+03  0.77057285527E+03  0.40000000000E+03 0. -1.
   -9000007    1    1    2    0  503  0.30053919520E+03 -0.50206117086E+02 -0.12988623282E+04  0.13927985532E+04  0.40000000000E+03 0. -1.
<mgrwt>
<rscale>  2 0.50283642E+03</rscale>
<asrwt>0</asrwt>
<pdfrwt beam="1">  1       21 0.21585391E-01 0.50283642E+03</pdfrwt>
<pdfrwt beam="2">  1       21 0.31124096E+00 0.50283642E+03</pdfrwt>
<totfact> 0.45328344E+02</totfact>
</mgrwt>
</event>
<event>
 4    1  0.4656822E-002  0.6053071E+03  0.7818608E-02  0.9894456E-01
         21   -1    0    0  503  502  0.00000000000E+00  0.00000000000E+00  0.27864553267E+03  0.27864553267E+03  0.00000000000E+00 0. -1.
         21   -1    0    0  501  503 -0.00000000000E+00 -0.00000000000E+00 -0.13240013854E+04  0.13240013854E+04  0.00000000000E+00 0.  1.
    9000007    1    1    2  501    0 -0.16204068389E+03  0.42442850116E+03 -0.45631482945E+03  0.75803691164E+03  0.40000000000E+03 0.  1.
   -9000007    1    1    2    0  502  0.16204068389E+03 -0.42442850116E+03 -0.58904102325E+03  0.84461000639E+03  0.40000000000E+03 0. -1.
<mgrwt>
<rscale>  2 0.60530714E+03</rscale>
<asrwt>0</asrwt>
<pdfrwt beam="1">  1       21 0.42868544E-01 0.60530714E+03</pdfrwt>
<pdfrwt beam="2">  1       21 0.20369252E+00 0.60530714E+03</pdfrwt>
<totfact> 0.51395954E+02</totfact>
</mgrwt>
</event>
<event>
 4    1  0.4656822E-002  0.4059476E+03  0.7818608E-02  0.1041739E+00
         21   -1    0    0  501  502  0.00000000000E+00  0.00000000000E+00  0.18067816050E+04  0.18067816050E+04  0.00000000000E+00 0. -1.
         21   -1    0    0  502  503 -0.00000000000E+00 -0.00000000000E+00 -0.35970985848E+03  0.35970985848E+03  0.00000000000E+00 0. -1.
    9000007    1    1    2  501    0 -0.22929145686E+02 -0.65327510083E+02  0.16594246597E+04  0.17083569974E+04  0.40000000000E+03 0. -1.
   -9000007    1    1    2    0  503  0.22929145686E+02  0.65327510083E+02 -0.21235291318E+03  0.45813446610E+03  0.40000000000E+03 0. -1.
<mgrwt>
<rscale>  2 0.40594757E+03</rscale>
<asrwt>0</asrwt>
<pdfrwt beam="1">  1       21 0.27796640E+00 0.40594757E+03</pdfrwt>
<pdfrwt beam="2">  1       21 0.55339979E-01 0.40594757E+03</pdfrwt>
<totfact> 0.11297360E+02</totfact>
</mgrwt>
</event>
<event>
 4    1  0.4656822E-002  0.4488858E+03  0.7818608E-02  0.1028055E+00
         21   -1    0    0  503  502  0.00000000000E+00  0.00000000000E+00  0.40961082052E+03  0.40961082052E+03  0.00000000000E+00 0. -1.
         21   -1    0    0  501  503 -0.00000000000E+00 -0.00000000000E+00 -0.56021910494E+03  0.56021910494E+03  0.00000000000E+00 0. -1.
    9000007    1    1    2  501    0  0.18295845177E+03 -0.89580673548E+02 -0.24461035136E+03  0.51120711667E+03  0.40000000000E+03 0. -1.
   -9000007    1    1    2    0  502 -0.18295845177E+03  0.89580673548E+02  0.94002066944E+02  0.45862280878E+03  0.40000000000E+03 0. -1.
<mgrwt>
<rscale>  2 0.44888583E+03</rscale>
<asrwt>0</asrwt>
<pdfrwt beam="1">  1       21 0.63017050E-01 0.44888583E+03</pdfrwt>
<pdfrwt beam="2">  1       21 0.86187554E-01 0.44888583E+03</pdfrwt>
<totfact> 0.23445633E+03</totfact>
</mgrwt>
</event>
<event>
 4    1  0.4656822E-002  0.5326332E+03  0.7818608E-02  0.1005596E+00
         21   -1    0    0  501  502  0.00000000000E+00  0.00000000000E+00  0.10227994085E+04  0.10227994085E+04  0.00000000000E+00 0. -1.
         21   -1    0    0  502  503 -0.00000000000E+00 -0.00000000000E+00 -0.12847105077E+04  0.12847105077E+04  0.00000000000E+00 0.  1.
    9000007    1    1    2  501    0 -0.33725260013E+03 -0.99793831973E+02  0.89068517162E+03  0.10377948738E+04  0.40000000000E+03 0. -1.
   -9000007    1    1    2    0  503  0.33725260013E+03  0.99793831973E+02 -0.11525962709E+04  0.12697150424E+04  0.40000000000E+03 0.  1.
<mgrwt>
<rscale>  2 0.53263320E+03</rscale>
<asrwt>0</asrwt>
<pdfrwt beam="1">  1       21 0.15735376E+00 0.53263320E+03</pdfrwt>
<pdfrwt beam="2">  1       21 0.19764777E+00 0.53263320E+03</pdfrwt>
<totfact> 0.26808255E+01</totfact>
</mgrwt>
</event>
<event>
 4    1  0.4656822E-002  0.4611688E+03  0.7818608E-02  0.1024443E+00
         21   -1    0    0  503  502  0.00000000000E+00  0.00000000000E+00  0.27728347153E+03  0.27728347153E+03  0.00000000000E+00 0. -1.
         21   -1    0    0  501  503 -0.00000000000E+00 -0.00000000000E+00 -0.12864850260E+04  0.12864850260E+04  0.00000000000E+00 0. -1.
    9000007    1    1    2  501    0  0.41758554227E+02 -0.22568314297E+03 -0.10014518808E+04  0.11025345924E+04  0.40000000000E+03 0. -1.
   -9000007    1    1    2    0  502 -0.41758554227E+02  0.22568314297E+03 -0.77496737477E+01  0.46123390521E+03  0.40000000000E+03 0. -1.
<mgrwt>
<rscale>  2 0.46116880E+03</rscale>
<asrwt>0</asrwt>
<pdfrwt beam="1">  1       21 0.42658995E-01 0.46116880E+03</pdfrwt>
<pdfrwt beam="2">  1       21 0.19792077E+00 0.46116880E+03</pdfrwt>
<totfact> 0.60205268E+02</totfact>
</mgrwt>
</event>
<event>
 4    1  0.4656822E-002  0.4156608E+03  0.7818608E-02  0.1038488E+00
         21   -1    0    0  503  502  0.00000000000E+00  0.00000000000E+00  0.96242255964E+03  0.96242255964E+03  0.00000000000E+00 0. -1.
         21   -1    0    0  501  503 -0.00000000000E+00 -0.00000000000E+00 -0.22369681724E+03  0.22369681724E+03  0.00000000000E+00 0. -1.
    9000007    1    1    2  501    0  0.96855759331E+02  0.58247984872E+02  0.10581051727E+03  0.42891692835E+03  0.40000000000E+03 0. -1.
   -9000007    1    1    2    0  502 -0.96855759331E+02 -0.58247984872E+02  0.63291522513E+03  0.75720244853E+03  0.40000000000E+03 0. -1.
<mgrwt>
<rscale>  2 0.41566076E+03</rscale>
<asrwt>0</asrwt>
<pdfrwt beam="1">  1       21 0.14806501E+00 0.41566076E+03</pdfrwt>
<pdfrwt beam="2">  1       21 0.34414895E-01 0.41566076E+03</pdfrwt>
<totfact> 0.21888487E+03</totfact>
</mgrwt>
</event>
<event>
 4    1  0.4656822E-002  0.8989074E+03  0.7818608E-02  0.9426948E-01
         21   -1    0    0  503  502  0.00000000000E+00  0.00000000000E+00  0.72867598506E+03  0.72867598506E+03  0.00000000000E+00 0.  1.
         21   -1    0    0  501  503 -0.00000000000E+00 -0.00000000000E+00 -0.13757716651E+04  0.13757716651E+04  0.00000000000E+00 0.  1.
    9000007    1    1    2  501    0 -0.70135995974E+03 -0.39513136555E+03  0.13987743754E+03  0.90972539082E+03  0.40000000000E+03 0.  1.
   -9000007    1    1    2    0  502  0.70135995974E+03  0.39513136555E+03 -0.78697311760E+03  0.11947222594E+04  0.40000000000E+03 0.  1.
<mgrwt>
<rscale>  2 0.89890744E+03</rscale>
<asrwt>0</asrwt>
<pdfrwt beam="1">  1       21 0.11210400E+00 0.89890744E+03</pdfrwt>
<pdfrwt beam="2">  1       21 0.21165718E+00 0.89890744E+03</pdfrwt>
<totfact> 0.45916579E+01</totfact>
</mgrwt>
</event>
<event>
 4    1  0.4656822E-002  0.4660890E+03  0.7818608E-02  0.1023030E+00
         21   -1    0    0  501  502  0.00000000000E+00  0.00000000000E+00  0.59626947099E+03  0.59626947099E+03  0.00000000000E+00 0.  1.
         21   -1    0    0  502  503 -0.00000000000E+00 -0.00000000000E+00 -0.36443908354E+03  0.36443908354E+03  0.00000000000E+00 0. -1.
    9000007    1    1    2  501    0 -0.17182714735E+03  0.16647628832E+03  0.12422145847E+03  0.48235867763E+03  0.40000000000E+03 0.  1.
   -9000007    1    1    2    0  503  0.17182714735E+03 -0.16647628832E+03  0.10760892899E+03  0.47834987691E+03  0.40000000000E+03 0. -1.
<mgrwt>
<rscale>  2 0.46608896E+03</rscale>
<asrwt>0</asrwt>
<pdfrwt beam="1">  1       21 0.91733765E-01 0.46608896E+03</pdfrwt>
<pdfrwt beam="2">  1       21 0.56067551E-01 0.46608896E+03</pdfrwt>
<totfact> 0.25968463E+03</totfact>
</mgrwt>
</event>
<event>
 4    1  0.4656822E-002  0.4187734E+03  0.7818608E-02  0.1037466E+00
         21   -1    0    0  501  502  0.00000000000E+00  0.00000000000E+00  0.32220338896E+03  0.32220338896E+03  0.00000000000E+00 0. -1.
         21   -1    0    0  502  503 -0.00000000000E+00 -0.00000000000E+00 -0.60324426200E+03  0.60324426200E+03  0.00000000000E+00 0. -1.
    9000007    1    1    2  501    0  0.75500442018E+02 -0.98340373207E+02  0.41379359888E+01  0.41879382548E+03  0.40000000000E+03 0. -1.
   -9000007    1    1    2    0  503 -0.75500442018E+02  0.98340373207E+02 -0.28517880903E+03  0.50665382548E+03  0.40000000000E+03 0. -1.
<mgrwt>
<rscale>  2 0.41877338E+03</rscale>
<asrwt>0</asrwt>
<pdfrwt beam="1">  1       21 0.49569753E-01 0.41877338E+03</pdfrwt>
<pdfrwt beam="2">  1       21 0.92806808E-01 0.41877338E+03</pdfrwt>
<totfact> 0.33462961E+03</totfact>
</mgrwt>
</event>
<event>
 4    1  0.4656822E-002  0.5995537E+03  0.7818608E-02  0.9906332E-01
         21   -1    0    0  503  502  0.00000000000E+00  0.00000000000E+00  0.81468701592E+03  0.81468701592E+03  0.00000000000E+00 0.  1.
         21   -1    0    0  501  503 -0.00000000000E+00 -0.00000000000E+00 -0.72956532810E+03  0.72956532810E+03  0.00000000000E+00 0.  1.
    9000007    1    1    2  501    0 -0.42421153438E+03 -0.13967559055E+03 -0.44284476529E+03  0.74536982944E+03  0.40000000000E+03 0.  1.
   -9000007    1    1    2    0  502  0.42421153438E+03  0.13967559055E+03  0.52796645310E+03  0.79888251458E+03  0.40000000000E+03 0.  1.
<mgrwt>
<rscale>  2 0.59955375E+03</rscale>
<asrwt>0</asrwt>
<pdfrwt beam="1">  1       21 0.12533646E+00 0.59955375E+03</pdfrwt>
<pdfrwt beam="2">  1       21 0.11224082E+00 0.59955375E+03</pdfrwt>
<totfact> 0.22720382E+02</totfact>
</mgrwt>
</event>
<event>
 4    1  0.4656822E-002  0.4430910E+03  0.7818608E-02  0.1029803E+00
         21   -1    0    0  503  502  0.00000000000E+00  0.00000000000E+00  0.50387596392E+03  0.50387596392E+03  0.00000000000E+00 0. -1.
         21   -1    0    0  501  503 -0.00000000000E+00 -0.00000000000E+00 -0.48156845457E+03  0.48156845457E+03  0.00000000000E+00 0. -1.
    9000007    1    1    2  501    0  0.73611600477E+02 -0.17581527440E+03 -0.20412476138E+03  0.48784894859E+03  0.40000000000E+03 0. -1.
   -9000007    1    1    2    0  502 -0.73611600477E+02  0.17581527440E+03  0.22643227073E+03  0.49759546990E+03  0.40000000000E+03 0. -1.
<mgrwt>
<rscale>  2 0.44309105E+03</rscale>
<asrwt>0</asrwt>
<pdfrwt beam="1">  1       21 0.77519380E-01 0.44309105E+03</pdfrwt>
<pdfrwt beam="2">  1       21 0.74087454E-01 0.44309105E+03</pdfrwt>
<totfact> 0.20904223E+03</totfact>
</mgrwt>
</event>
<event>
 4    1  0.4656822E-002  0.4294509E+03  0.7818608E-02  0.1034034E+00
         21   -1    0    0  503  502  0.00000000000E+00  0.00000000000E+00  0.60195074893E+03  0.60195074893E+03  0.00000000000E+00 0. -1.
         21   -1    0    0  501  503 -0.00000000000E+00 -0.00000000000E+00 -0.30681540813E+03  0.30681540813E+03  0.00000000000E+00 0. -1.
    9000007    1    1    2  501    0  0.11503385097E+03 -0.10580784814E+03  0.16460572163E+03  0.45991643936E+03  0.40000000000E+03 0. -1.
   -9000007    1    1    2    0  502 -0.11503385097E+03  0.10580784814E+03  0.13052961917E+03  0.44884971770E+03  0.40000000000E+03 0. -1.
<mgrwt>
<rscale>  2 0.42945091E+03</rscale>
<asrwt>0</asrwt>
<pdfrwt beam="1">  1       21 0.92607807E-01 0.42945091E+03</pdfrwt>
<pdfrwt beam="2">  1       21 0.47202371E-01 0.42945091E+03</pdfrwt>
<totfact> 0.37153991E+03</totfact>
</mgrwt>
</event>
<event>
 4    1  0.4656822E-002  0.5408081E+03  0.7818608E-02  0.1003644E+00
         21   -1    0    0  503  502  0.00000000000E+00  0.00000000000E+00  0.16471964263E+03  0.16471964263E+03  0.00000000000E+00 0. -1.
         21   -1    0    0  501  503 -0.00000000000E+00 -0.00000000000E+00 -0.19170017589E+04  0.19170017589E+04  0.00000000000E+00 0.  1.
    9000007    1    1    2  501    0  0.16154330893E+03 -0.32615517159E+03 -0.59343540089E+03  0.80289414722E+03  0.40000000000E+03 0. -1.
   -9000007    1    1    2    0  502 -0.16154330893E+03  0.32615517159E+03 -0.11588467153E+04  0.12788272543E+04  0.40000000000E+03 0.  1.
<mgrwt>
<rscale>  2 0.54080813E+03</rscale>
<asrwt>0</asrwt>
<pdfrwt beam="1">  1       21 0.25341482E-01 0.54080813E+03</pdfrwt>
<pdfrwt beam="2">  1       21 0.29492337E+00 0.54080813E+03</pdfrwt>
<totfact> 0.40935876E+02</totfact>
</mgrwt>
</event>
<event>
 4    1  0.4656822E-002  0.4762332E+03  0.7818608E-02  0.1020176E+00
         21   -1    0    0  501  502  0.00000000000E+00  0.00000000000E+00  0.30259443006E+03  0.30259443006E+03  0.00000000000E+00 0. -1.
         21   -1    0    0  502  503 -0.00000000000E+00 -0.00000000000E+00 -0.14376153846E+04  0.14376153846E+04  0.00000000000E+00 0. -1.
    9000007    1    1    2  501    0 -0.10007664880E+03 -0.23829127719E+03  0.34462784046E+02  0.47747853554E+03  0.40000000000E+03 0. -1.
   -9000007    1    1    2    0  503  0.10007664880E+03  0.23829127719E+03 -0.11694837386E+04  0.12627312791E+04  0.40000000000E+03 0. -1.
<mgrwt>
<rscale>  2 0.47623321E+03</rscale>
<asrwt>0</asrwt>
<pdfrwt beam="1">  1       21 0.46552990E-01 0.47623321E+03</pdfrwt>
<pdfrwt beam="2">  1       21 0.22117159E+00 0.47623321E+03</pdfrwt>
<totfact> 0.35065504E+02</totfact>
</mgrwt>
</event>
<event>
 4    1  0.4656822E-002  0.4855587E+03  0.7818608E-02  0.1017619E+00
         21   -1    0    0  503  502  0.00000000000E+00  0.00000000000E+00  0.62972652371E+03  0.62972652371E+03  0.00000000000E+00 0. -1.
         21   -1    0    0  501  503 -0.00000000000E+00 -0.00000000000E+00 -0.40526918138E+03  0.40526918138E+03  0.00000000000E+00 0.  1.
    9000007    1    1    2  501    0 -0.27255942658E+03  0.38452974805E+02 -0.30603302074E+02  0.48652218283E+03  0.40000000000E+03 0.  1.
   -9000007    1    1    2    0  502  0.27255942658E+03 -0.38452974805E+02  0.25506064440E+03  0.54847352225E+03  0.40000000000E+03 0. -1.
<mgrwt>
<rscale>  2 0.48555872E+03</rscale>
<asrwt>0</asrwt>
<pdfrwt beam="1">  1       21 0.96881004E-01 0.48555872E+03</pdfrwt>
<pdfrwt beam="2">  1       21 0.62349105E-01 0.48555872E+03</pdfrwt>
<totfact> 0.17934522E+03</totfact>
</mgrwt>
</event>
<event>
 4    1  0.4656822E-002  0.4598381E+03  0.7818608E-02  0.1024828E+00
         21   -1    0    0  501  502  0.00000000000E+00  0.00000000000E+00  0.78141013935E+03  0.78141013935E+03  0.00000000000E+00 0. -1.
         21   -1    0    0  502  503 -0.00000000000E+00 -0.00000000000E+00 -0.76799753595E+03  0.76799753595E+03  0.00000000000E+00 0. -1.
    9000007    1    1    2  501    0 -0.17743166250E+03  0.14131199157E+03  0.63016369047E+03  0.78010085925E+03  0.40000000000E+03 0. -1.
   -9000007    1    1    2    0  503  0.17743166250E+03 -0.14131199157E+03 -0.61675108707E+03  0.76930681605E+03  0.40000000000E+03 0. -1.
<mgrwt>
<rscale>  2 0.45983810E+03</rscale>
<asrwt>0</asrwt>
<pdfrwt beam="1">  1       21 0.12021695E+00 0.45983810E+03</pdfrwt>
<pdfrwt beam="2">  1       21 0.11815347E+00 0.45983810E+03</pdfrwt>
<totfact> 0.23582100E+02</totfact>
</mgrwt>
</event>
<event>
 4    1  0.4656822E-002  0.4028741E+03  0.7818608E-02  0.1042789E+00
         21   -1    0    0  503  502  0.00000000000E+00  0.00000000000E+00  0.58873398910E+03  0.58873398910E+03  0.00000000000E+00 0.  1.
         21   -1    0    0  501  503 -0.00000000000E+00 -0.00000000000E+00 -0.63480579287E+03  0.63480579287E+03  0.00000000000E+00 0.  1.
    9000007    1    1    2  501    0 -0.95094720574E+01 -0.47086084545E+02 -0.48317111410E+03  0.62909606176E+03  0.40000000000E+03 0.  1.
   -9000007    1    1    2    0  502  0.95094720574E+01  0.47086084545E+02  0.43709931033E+03  0.59444372022E+03  0.40000000000E+03 0.  1.
<mgrwt>
<rscale>  2 0.40287409E+03</rscale>
<asrwt>0</asrwt>
<pdfrwt beam="1">  1       21 0.90574460E-01 0.40287409E+03</pdfrwt>
<pdfrwt beam="2">  1       21 0.97662429E-01 0.40287409E+03</pdfrwt>
<totfact> 0.77580187E+02</totfact>
</mgrwt>
</event>
<event>
 4    1  0.4656822E-002  0.4893157E+03  0.7818608E-02  0.1016606E+00
         21   -1    0    0  501  502  0.00000000000E+00  0.00000000000E+00  0.22984512069E+03  0.22984512069E+03  0.00000000000E+00 0.  1.
         21   -1    0    0  502  503 -0.00000000000E+00 -0.00000000000E+00 -0.10765424074E+04  0.10765424074E+04  0.00000000000E+00 0.  1.
    9000007    1    1    2  501    0 -0.92934912267E+02  0.26606937534E+03 -0.30583818569E+03  0.57703276011E+03  0.40000000000E+03 0.  1.
   -9000007    1    1    2    0  503  0.92934912267E+02 -0.26606937534E+03 -0.54085910101E+03  0.72935476797E+03  0.40000000000E+03 0.  1.
<mgrwt>
<rscale>  2 0.48931566E+03</rscale>
<asrwt>0</asrwt>
<pdfrwt beam="1">  1       21 0.35360787E-01 0.48931566E+03</pdfrwt>
<pdfrwt beam="2">  1       21 0.16562191E+00 0.48931566E+03</pdfrwt>
<totfact> 0.14759136E+03</totfact>
</mgrwt>
</event>
<event>
 4    1  0.4656822E-002  0.4361949E+03  0.7818608E-02  0.1031921E+00
         21   -1    0    0  503  502  0.00000000000E+00  0.00000000000E+00  0.59392977932E+03  0.59392977932E+03  0.00000000000E+00 0. -1.
         21   -1    0    0  501  503 -0.00000000000E+00 -0.00000000000E+00 -0.33219533641E+03  0.33219533641E+03  0.00000000000E+00 0. -1.
    9000007    1    1    2  501    0  0.49006744350E+02 -0.16692603572E+03  0.21830505520E+03  0.48777357402E+03  0.40000000000E+03 0. -1.
   -9000007    1    1    2    0  502 -0.49006744350E+02  0.16692603572E+03  0.43429387712E+02  0.43835154170E+03  0.40000000000E+03 0. -1.
<mgrwt>
<rscale>  2 0.43619487E+03</rscale>
<asrwt>0</asrwt>
<pdfrwt beam="1">  1       21 0.91373812E-01 0.43619487E+03</pdfrwt>
<pdfrwt beam="2">  1       21 0.51106975E-01 0.43619487E+03</pdfrwt>
<totfact> 0.32331537E+03</totfact>
</mgrwt>
</event>
<event>
 4    1  0.4656822E-002  0.4126380E+03  0.7818608E-02  0.1039489E+00
         21   -1    0    0  503  502  0.00000000000E+00  0.00000000000E+00  0.21423310269E+03  0.21423310269E+03  0.00000000000E+00 0. -1.
         21   -1    0    0  501  503 -0.00000000000E+00 -0.00000000000E+00 -0.79907863738E+03  0.79907863738E+03  0.00000000000E+00 0.  1.
    9000007    1    1    2  501    0  0.69775763965E+02  0.73494377607E+02 -0.32954519163E+03  0.52808154115E+03  0.40000000000E+03 0. -1.
   -9000007    1    1    2    0  502 -0.69775763965E+02 -0.73494377607E+02 -0.25530034306E+03  0.48523019892E+03  0.40000000000E+03 0. -1.
<mgrwt>
<rscale>  2 0.41263795E+03</rscale>
<asrwt>0</asrwt>
<pdfrwt beam="1">  1       21 0.32958939E-01 0.41263795E+03</pdfrwt>
<pdfrwt beam="2">  1       21 0.12293517E+00 0.41263795E+03</pdfrwt>
<totfact> 0.38924506E+03</totfact>
</mgrwt>
</event>
<event>
 4    1  0.4656822E-002  0.4385566E+03  0.7818608E-02  0.1031191E+00
         21   -1    0    0  501  502  0.00000000000E+00  0.00000000000E+00  0.40795332812E+03  0.40795332812E+03  0.00000000000E+00 0. -1.
         21   -1    0    0  502  503 -0.00000000000E+00 -0.00000000000E+00 -0.71535425768E+03  0.71535425768E+03  0.00000000000E+00 0.  1.
    9000007    1    1    2  501    0  0.84372708973E+02  0.15878653415E+03  0.17425338895E+03  0.47190694105E+03  0.40000000000E+03 0. -1.
   -9000007    1    1    2    0  503 -0.84372708973E+02 -0.15878653415E+03 -0.48165431851E+03  0.65140064475E+03  0.40000000000E+03 0.  1.
<mgrwt>
<rscale>  2 0.43855663E+03</rscale>
<asrwt>0</asrwt>
<pdfrwt beam="1">  1       21 0.62762051E-01 0.43855663E+03</pdfrwt>
<pdfrwt beam="2">  1       21 0.11005450E+00 0.43855663E+03</pdfrwt>
<totfact> 0.13166230E+03</totfact>
</mgrwt>
</event>
<event>
 4    1  0.4656822E-002  0.1080099E+04  0.7818608E-02  0.9224809E-01
         21   -1    0    0  503  502  0.00000000000E+00  0.00000000000E+00  0.95272565395E+03  0.95272565395E+03  0.00000000000E+00 0. -1.
         21   -1    0    0  501  503 -0.00000000000E+00 -0.00000000000E+00 -0.13837144272E+04  0.13837144272E+04  0.00000000000E+00 0.  1.
    9000007    1    1    2  501    0 -0.46360280312E+03  0.88976779058E+03 -0.61176345073E+03  0.12413173647E+04  0.40000000000E+03 0.  1.
   -9000007    1    1    2    0  502  0.46360280312E+03 -0.88976779058E+03  0.18077467745E+03  0.10951227165E+04  0.40000000000E+03 0. -1.
<mgrwt>
<rscale>  2 0.10800992E+04</rscale>
<asrwt>0</asrwt>
<pdfrwt beam="1">  1       21 0.14657318E+00 0.10800992E+04</pdfrwt>
<pdfrwt beam="2">  1       21 0.21287914E+00 0.10800992E+04</pdfrwt>
<totfact> 0.21089835E+01</totfact>
</mgrwt>
</event>
<event>
 4    1  0.4656822E-002  0.5362655E+03  0.7818608E-02  0.1004724E+00
         21   -1    0    0  503  502  0.00000000000E+00  0.00000000000E+00  0.92386585525E+03  0.92386585525E+03  0.00000000000E+00 0.  1.
         21   -1    0    0  501  503 -0.00000000000E+00 -0.00000000000E+00 -0.68940115157E+03  0.68940115157E+03  0.00000000000E+00 0.  1.
    9000007    1    1    2  501    0  0.20253120373E+03  0.29421390567E+03 -0.48015482648E+03  0.71981203669E+03  0.40000000000E+03 0.  1.
   -9000007    1    1    2    0  502 -0.20253120373E+03 -0.29421390567E+03  0.71461953015E+03  0.89345497013E+03  0.40000000000E+03 0.  1.
<mgrwt>
<rscale>  2 0.53626552E+03</rscale>
<asrwt>0</asrwt>
<pdfrwt beam="1">  1       21 0.14213321E+00 0.53626552E+03</pdfrwt>
<pdfrwt beam="2">  1       21 0.10606172E+00 0.53626552E+03</pdfrwt>
<totfact> 0.19258983E+02</totfact>
</mgrwt>
</event>
<event>
 4    1  0.4656822E-002  0.4631945E+03  0.7818608E-02  0.1023859E+00
         21   -1    0    0  503  502  0.00000000000E+00  0.00000000000E+00  0.49226487538E+03  0.49226487538E+03  0.00000000000E+00 0. -1.
         21   -1    0    0  501  503 -0.00000000000E+00 -0.00000000000E+00 -0.43811765698E+03  0.43811765698E+03  0.00000000000E+00 0. -1.
    9000007    1    1    2  501    0  0.35576543628E+02 -0.23083201978E+03  0.60609131411E+02  0.46714299591E+03  0.40000000000E+03 0. -1.
   -9000007    1    1    2    0  502 -0.35576543628E+02  0.23083201978E+03 -0.64619130067E+01  0.46323953645E+03  0.40000000000E+03 0. -1.
<mgrwt>
<rscale>  2 0.46319446E+03</rscale>
<asrwt>0</asrwt>
<pdfrwt beam="1">  1       21 0.75733058E-01 0.46319446E+03</pdfrwt>
<pdfrwt beam="2">  1       21 0.67402717E-01 0.46319446E+03</pdfrwt>
<totfact> 0.27096751E+03</totfact>
</mgrwt>
</event>
<event>
 4    1  0.4656822E-002  0.4367353E+03  0.7818608E-02  0.1031753E+00
         21   -1    0    0  503  502  0.00000000000E+00  0.00000000000E+00  0.61746898332E+03  0.61746898332E+03  0.00000000000E+00 0. -1.
         21   -1    0    0  501  503 -0.00000000000E+00 -0.00000000000E+00 -0.31779776500E+03  0.31779776500E+03  0.00000000000E+00 0.  1.
    9000007    1    1    2  501    0 -0.17133862141E+03 -0.37158588949E+02  0.22807233356E+03  0.49270140375E+03  0.40000000000E+03 0. -1.
   -9000007    1    1    2    0  502  0.17133862141E+03  0.37158588949E+02  0.71598884763E+02  0.44256534457E+03  0.40000000000E+03 0.  1.
<mgrwt>
<rscale>  2 0.43673526E+03</rscale>
<asrwt>0</asrwt>
<pdfrwt beam="1">  1       21 0.94995228E-01 0.43673526E+03</pdfrwt>
<pdfrwt beam="2">  1       21 0.48891964E-01 0.43673526E+03</pdfrwt>
<totfact> 0.32373786E+03</totfact>
</mgrwt>
</event>
<event>
 4    1  0.4656822E-002  0.5566303E+03  0.7818608E-02  0.9999708E-01
         21   -1    0    0  503  502  0.00000000000E+00  0.00000000000E+00  0.52832524739E+03  0.52832524739E+03  0.00000000000E+00 0. -1.
         21   -1    0    0  501  503 -0.00000000000E+00 -0.00000000000E+00 -0.66373192550E+03  0.66373192550E+03  0.00000000000E+00 0. -1.
    9000007    1    1    2  501    0 -0.18217118772E+03  0.34154204071E+03 -0.27108161710E+03  0.61913047925E+03  0.40000000000E+03 0. -1.
   -9000007    1    1    2    0  502  0.18217118772E+03 -0.34154204071E+03  0.13567493900E+03  0.57292669364E+03  0.40000000000E+03 0. -1.
<mgrwt>
<rscale>  2 0.55663031E+03</rscale>
<asrwt>0</asrwt>
<pdfrwt beam="1">  1       21 0.81280808E-01 0.55663031E+03</pdfrwt>
<pdfrwt beam="2">  1       21 0.10211260E+00 0.55663031E+03</pdfrwt>
<totfact> 0.84403723E+02</totfact>
</mgrwt>
</event>
<event>
 4    1  0.4656822E-002  0.4720546E+03  0.7818608E-02  0.1021342E+00
         21   -1    0    0  501  502  0.00000000000E+00  0.00000000000E+00  0.33263036913E+03  0.33263036913E+03  0.00000000000E+00 0.  1.
         21   -1    0    0  502  503 -0.00000000000E+00 -0.00000000000E+00 -0.67606044435E+03  0.67606044435E+03  0.00000000000E+00 0. -1.
    9000007    1    1    2  501    0  0.24392876135E+03  0.57743532038E+02 -0.21978285754E+03  0.52071111048E+03  0.40000000000E+03 0. -1.
   -9000007    1    1    2    0  503 -0.24392876135E+03 -0.57743532038E+02 -0.12364721768E+03  0.48797970300E+03  0.40000000000E+03 0.  1.
<mgrwt>
<rscale>  2 0.47205461E+03</rscale>
<asrwt>0</asrwt>
<pdfrwt beam="1">  1       21 0.51173903E-01 0.47205461E+03</pdfrwt>
<pdfrwt beam="2">  1       21 0.10400930E+00 0.47205461E+03</pdfrwt>
<totfact> 0.23279529E+03</totfact>
</mgrwt>
</event>
<event>
 4    1  0.4656822E-002  0.4981270E+03  0.7818608E-02  0.1014269E+00
         21   -1    0    0  503  502  0.00000000000E+00  0.00000000000E+00  0.92323612961E+03  0.92323612961E+03  0.00000000000E+00 0.  1.
         21   -1    0    0  501  503 -0.00000000000E+00 -0.00000000000E+00 -0.67496825487E+03  0.67496825487E+03  0.00000000000E+00 0.  1.
    9000007    1    1    2  501    0 -0.29343173062E+03  0.45036523887E+02 -0.49578390548E+03  0.70280306626E+03  0.40000000000E+03 0.  1.
   -9000007    1    1    2    0  502  0.29343173062E+03 -0.45036523887E+02  0.74405178022E+03  0.89540131821E+03  0.40000000000E+03 0.  1.
<mgrwt>
<rscale>  2 0.49812696E+03</rscale>
<asrwt>0</asrwt>
<pdfrwt beam="1">  1       21 0.14203633E+00 0.49812696E+03</pdfrwt>
<pdfrwt beam="2">  1       21 0.10384127E+00 0.49812696E+03</pdfrwt>
<totfact> 0.20669590E+02</totfact>
</mgrwt>
</event>
<event>
 4    1  0.4656822E-002  0.4344460E+03  0.7818608E-02  0.1032465E+00
         21   -1    0    0  503  502  0.00000000000E+00  0.00000000000E+00  0.33179354057E+03  0.33179354057E+03  0.00000000000E+00 0.  1.
         21   -1    0    0  501  503 -0.00000000000E+00 -0.00000000000E+00 -0.12136669148E+04  0.12136669148E+04  0.00000000000E+00 0.  1.
    9000007    1    1    2  501    0  0.14481152942E+03 -0.88164232770E+02 -0.10041770399E+04  0.10941274325E+04  0.40000000000E+03 0.  1.
   -9000007    1    1    2    0  502 -0.14481152942E+03  0.88164232770E+02  0.12230366562E+03  0.45133302296E+03  0.40000000000E+03 0.  1.
<mgrwt>
<rscale>  2 0.43444598E+03</rscale>
<asrwt>0</asrwt>
<pdfrwt beam="1">  1       21 0.51045160E-01 0.43444598E+03</pdfrwt>
<pdfrwt beam="2">  1       21 0.18671799E+00 0.43444598E+03</pdfrwt>
<totfact> 0.49810960E+02</totfact>
</mgrwt>
</event>
<event>
 4    1  0.4656822E-002  0.4307688E+03  0.7818608E-02  0.1033617E+00
         21   -1    0    0  501  502  0.00000000000E+00  0.00000000000E+00  0.25633352522E+03  0.25633352522E+03  0.00000000000E+00 0.  1.
         21   -1    0    0  502  503 -0.00000000000E+00 -0.00000000000E+00 -0.12215779867E+04  0.12215779867E+04  0.00000000000E+00 0.  1.
    9000007    1    1    2  501    0 -0.91072820051E+02  0.13140602165E+03 -0.10962592982E+02  0.43090831916E+03  0.40000000000E+03 0.  1.
   -9000007    1    1    2    0  503  0.91072820051E+02 -0.13140602165E+03 -0.95428186848E+03  0.10470031927E+04  0.40000000000E+03 0.  1.
<mgrwt>
<rscale>  2 0.43076885E+03</rscale>
<asrwt>0</asrwt>
<pdfrwt beam="1">  1       21 0.39435927E-01 0.43076885E+03</pdfrwt>
<pdfrwt beam="2">  1       21 0.18793508E+00 0.43076885E+03</pdfrwt>
<totfact> 0.83991768E+02</totfact>
</mgrwt>
</event>
<event>
 4    1  0.4656822E-002  0.4292389E+03  0.7818608E-02  0.1034101E+00
         21   -1    0    0  501  502  0.00000000000E+00  0.00000000000E+00  0.31184589258E+03  0.31184589258E+03  0.00000000000E+00 0. -1.
         21   -1    0    0  502  503 -0.00000000000E+00 -0.00000000000E+00 -0.16188632305E+04  0.16188632305E+04  0.00000000000E+00 0. -1.
    9000007    1    1    2  501    0 -0.13427685672E+03 -0.78840101652E+02  0.11577518735E+03  0.44457837316E+03  0.40000000000E+03 0. -1.
   -9000007    1    1    2    0  503  0.13427685672E+03  0.78840101652E+02 -0.14227925253E+04  0.14861307499E+04  0.40000000000E+03 0. -1.
<mgrwt>
<rscale>  2 0.42923890E+03</rscale>
<asrwt>0</asrwt>
<pdfrwt beam="1">  1       21 0.47976290E-01 0.42923890E+03</pdfrwt>
<pdfrwt beam="2">  1       21 0.24905589E+00 0.42923890E+03</pdfrwt>
<totfact> 0.22594534E+02</totfact>
</mgrwt>
</event>
<event>
 4    1  0.4656822E-002  0.5017936E+03  0.7818608E-02  0.1013312E+00
         21   -1    0    0  501  502  0.00000000000E+00  0.00000000000E+00  0.33194605834E+03  0.33194605834E+03  0.00000000000E+00 0. -1.
         21   -1    0    0  502  503 -0.00000000000E+00 -0.00000000000E+00 -0.23591721526E+04  0.23591721526E+04  0.00000000000E+00 0. -1.
    9000007    1    1    2  501    0 -0.15474612209E+02 -0.30258453464E+03 -0.21219395257E+04  0.21804642201E+04  0.40000000000E+03 0. -1.
   -9000007    1    1    2    0  503  0.15474612209E+02  0.30258453464E+03  0.94713431507E+02  0.51065399081E+03  0.40000000000E+03 0. -1.
<mgrwt>
<rscale>  2 0.50179365E+03</rscale>
<asrwt>0</asrwt>
<pdfrwt beam="1">  1       21 0.51068626E-01 0.50179365E+03</pdfrwt>
<pdfrwt beam="2">  1       21 0.36294955E+00 0.50179365E+03</pdfrwt>
<totfact> 0.38409213E+01</totfact>
</mgrwt>
</event>
<event>
 4    1  0.4656822E-002  0.4156047E+03  0.7818608E-02  0.1038506E+00
         21   -1    0    0  503  502  0.00000000000E+00  0.00000000000E+00  0.20035606162E+03  0.20035606162E+03  0.00000000000E+00 0. -1.
         21   -1    0    0  501  503 -0.00000000000E+00 -0.00000000000E+00 -0.10887022676E+04  0.10887022676E+04  0.00000000000E+00 0. -1.
    9000007    1    1    2  501    0  0.11267305816E+03  0.56641520788E+01 -0.73822129266E+03  0.84717057173E+03  0.40000000000E+03 0. -1.
   -9000007    1    1    2    0  502 -0.11267305816E+03 -0.56641520788E+01 -0.15012491336E+03  0.44188775754E+03  0.40000000000E+03 0. -1.
<mgrwt>
<rscale>  2 0.41560474E+03</rscale>
<asrwt>0</asrwt>
<pdfrwt beam="1">  1       21 0.30824009E-01 0.41560474E+03</pdfrwt>
<pdfrwt beam="2">  1       21 0.16749266E+00 0.41560474E+03</pdfrwt>
<totfact> 0.19422948E+03</totfact>
</mgrwt>
</event>
<event>
 4    1  0.4656822E-002  0.4725863E+03  0.7818608E-02  0.1021193E+00
         21   -1    0    0  503  502  0.00000000000E+00  0.00000000000E+00  0.85275924739E+03  0.85275924739E+03  0.00000000000E+00 0.  1.
         21   -1    0    0  501  503 -0.00000000000E+00 -0.00000000000E+00 -0.31021896817E+03  0.31021896817E+03  0.00000000000E+00 0. -1.
    9000007    1    1    2  501    0  0.24247979867E+03 -0.67389408158E+02  0.41779219580E+02  0.47442943446E+03  0.40000000000E+03 0. -1.
   -9000007    1    1    2    0  502 -0.24247979867E+03  0.67389408158E+02  0.50076105965E+03  0.68854878110E+03  0.40000000000E+03 0.  1.
<mgrwt>
<rscale>  2 0.47258627E+03</rscale>
<asrwt>0</asrwt>
<pdfrwt beam="1">  1       21 0.13119373E+00 0.47258627E+03</pdfrwt>
<pdfrwt beam="2">  1       21 0.47725995E-01 0.47258627E+03</pdfrwt>
<totfact> 0.15015302E+03</totfact>
</mgrwt>
</event>
<event>
 4    1  0.4656822E-002  0.4319589E+03  0.7818608E-02  0.1033243E+00
         21   -1    0    0  501  502  0.00000000000E+00  0.00000000000E+00  0.32306035471E+03  0.32306035471E+03  0.00000000000E+00 0.  1.
         21   -1    0    0  502  503 -0.00000000000E+00 -0.00000000000E+00 -0.60993309026E+03  0.60993309026E+03  0.00000000000E+00 0.  1.
    9000007    1    1    2  501    0  0.78672761269E+02  0.14282523891E+03 -0.35972122605E+02  0.43345408735E+03  0.40000000000E+03 0.  1.
   -9000007    1    1    2    0  503 -0.78672761269E+02 -0.14282523891E+03 -0.25090061295E+03  0.49953935762E+03  0.40000000000E+03 0.  1.
<mgrwt>
<rscale>  2 0.43195885E+03</rscale>
<asrwt>0</asrwt>
<pdfrwt beam="1">  1       21 0.49701593E-01 0.43195885E+03</pdfrwt>
<pdfrwt beam="2">  1       21 0.93835860E-01 0.43195885E+03</pdfrwt>
<totfact> 0.32253311E+03</totfact>
</mgrwt>
</event>
<event>
 4    1  0.4656822E-002  0.4366969E+03  0.7818608E-02  0.1031765E+00
         21   -1    0    0  501  502  0.00000000000E+00  0.00000000000E+00  0.49467037305E+03  0.49467037305E+03  0.00000000000E+00 0.  1.
         21   -1    0    0  502  503 -0.00000000000E+00 -0.00000000000E+00 -0.40970057532E+03  0.40970057532E+03  0.00000000000E+00 0.  1.
    9000007    1    1    2  501    0  0.99679962726E+02  0.14411133779E+03  0.15234436984E+03  0.46250727526E+03  0.40000000000E+03 0.  1.
   -9000007    1    1    2    0  503 -0.99679962726E+02 -0.14411133779E+03 -0.67374572112E+02  0.44186367311E+03  0.40000000000E+03 0.  1.
<mgrwt>
<rscale>  2 0.43669689E+03</rscale>
<asrwt>0</asrwt>
<pdfrwt beam="1">  1       21 0.76103134E-01 0.43669689E+03</pdfrwt>
<pdfrwt beam="2">  1       21 0.63030858E-01 0.43669689E+03</pdfrwt>
<totfact> 0.31399306E+03</totfact>
</mgrwt>
</event>
<event>
 4    1  0.4656822E-002  0.4024077E+03  0.7818608E-02  0.1042949E+00
         21   -1    0    0  501  502  0.00000000000E+00  0.00000000000E+00  0.85567774975E+03  0.85567774975E+03  0.00000000000E+00 0.  1.
         21   -1    0    0  502  503 -0.00000000000E+00 -0.00000000000E+00 -0.18924646551E+03  0.18924646551E+03  0.00000000000E+00 0. -1.
    9000007    1    1    2  501    0  0.27693450489E+02  0.34132655737E+02  0.33506291163E+03  0.52364025833E+03  0.40000000000E+03 0. -1.
   -9000007    1    1    2    0  503 -0.27693450489E+02 -0.34132655737E+02  0.33136837261E+03  0.52128395693E+03  0.40000000000E+03 0. -1.
<mgrwt>
<rscale>  2 0.40240771E+03</rscale>
<asrwt>0</asrwt>
<pdfrwt beam="1">  1       21 0.13164273E+00 0.40240771E+03</pdfrwt>
<pdfrwt beam="2">  1       21 0.29114841E-01 0.40240771E+03</pdfrwt>
<totfact> 0.41943306E+03</totfact>
</mgrwt>
</event>
<event>
 4    1  0.4656822E-002  0.4028391E+03  0.7818608E-02  0.1042801E+00
         21   -1    0    0  503  502  0.00000000000E+00  0.00000000000E+00  0.11460789096E+04  0.11460789096E+04  0.00000000000E+00 0. -1.
         21   -1    0    0  501  503 -0.00000000000E+00 -0.00000000000E+00 -0.21744074436E+03  0.21744074436E+03  0.00000000000E+00 0. -1.
    9000007    1    1    2  501    0 -0.14361907917E+02  0.45530644203E+02  0.61670753572E+02  0.40753231259E+03  0.40000000000E+03 0. -1.
   -9000007    1    1    2    0  502  0.14361907917E+02 -0.45530644203E+02  0.86696741163E+03  0.95598734133E+03  0.40000000000E+03 0. -1.
<mgrwt>
<rscale>  2 0.40283905E+03</rscale>
<asrwt>0</asrwt>
<pdfrwt beam="1">  1       21 0.17631983E+00 0.40283905E+03</pdfrwt>
<pdfrwt beam="2">  1       21 0.33452423E-01 0.40283905E+03</pdfrwt>
<totfact> 0.14329779E+03</totfact>
</mgrwt>
</event>
<event>
 4    1  0.4656822E-002  0.4554735E+03  0.7818608E-02  0.1026102E+00
         21   -1    0    0  503  502  0.00000000000E+00  0.00000000000E+00  0.11703918769E+04  0.11703918769E+04  0.00000000000E+00 0.  1.
         21   -1    0    0  501  503 -0.00000000000E+00 -0.00000000000E+00 -0.26053957636E+03  0.26053957636E+03  0.00000000000E+00 0.  1.
    9000007    1    1    2  501    0 -0.97898058944E+01 -0.21762417369E+03  0.50407974357E+02  0.45825438913E+03  0.40000000000E+03 0.  1.
   -9000007    1    1    2    0  502  0.97898058944E+01  0.21762417369E+03  0.85944432621E+03  0.97267706416E+03  0.40000000000E+03 0.  1.
<mgrwt>
<rscale>  2 0.45547351E+03</rscale>
<asrwt>0</asrwt>
<pdfrwt beam="1">  1       21 0.18006029E+00 0.45547351E+03</pdfrwt>
<pdfrwt beam="2">  1       21 0.40083012E-01 0.45547351E+03</pdfrwt>
<totfact> 0.91100535E+02</totfact>
</mgrwt>
</event>
<event>
 4    1  0.4656822E-002  0.5884239E+03  0.7818608E-02  0.9929718E-01
         21   -1    0    0  501  502  0.00000000000E+00  0.00000000000E+00  0.56137989421E+03  0.56137989421E+03  0.00000000000E+00 0. -1.
         21   -1    0    0  502  503 -0.00000000000E+00 -0.00000000000E+00 -0.70820382106E+03  0.70820382106E+03  0.00000000000E+00 0.  1.
    9000007    1    1    2  501    0  0.40758921937E+03 -0.14182275342E+03 -0.30150078895E+03  0.66116971412E+03  0.40000000000E+03 0.  1.
   -9000007    1    1    2    0  503 -0.40758921937E+03  0.14182275342E+03  0.15467686210E+03  0.60841400115E+03  0.40000000000E+03 0.  1.
<mgrwt>
<rscale>  2 0.58842388E+03</rscale>
<asrwt>0</asrwt>
<pdfrwt beam="1">  1       21 0.86366138E-01 0.58842388E+03</pdfrwt>
<pdfrwt beam="2">  1       21 0.10895443E+00 0.58842388E+03</pdfrwt>
<totfact> 0.61671117E+02</totfact>
</mgrwt>
</event>
<event>
 4    1  0.4656822E-002  0.4195258E+03  0.7818608E-02  0.1037221E+00
         21   -1    0    0  503  502  0.00000000000E+00  0.00000000000E+00  0.11154976895E+04  0.11154976895E+04  0.00000000000E+00 0. -1.
         21   -1    0    0  501  503 -0.00000000000E+00 -0.00000000000E+00 -0.16137188033E+03  0.16137188033E+03  0.00000000000E+00 0. -1.
    9000007    1    1    2  501    0  0.11072730933E+02 -0.12601311899E+03  0.38179760483E+03  0.56724890708E+03  0.40000000000E+03 0. -1.
   -9000007    1    1    2    0  502 -0.11072730933E+02  0.12601311899E+03  0.57232820436E+03  0.70962066277E+03  0.40000000000E+03 0. -1.
<mgrwt>
<rscale>  2 0.41952582E+03</rscale>
<asrwt>0</asrwt>
<pdfrwt beam="1">  1       21 0.17161502E+00 0.41952582E+03</pdfrwt>
<pdfrwt beam="2">  1       21 0.24826444E-01 0.41952582E+03</pdfrwt>
<totfact> 0.27690160E+03</totfact>
</mgrwt>
</event>
<event>
 4    1  0.4656822E-002  0.4026568E+03  0.7818608E-02  0.1042864E+00
         21   -1    0    0  503  502  0.00000000000E+00  0.00000000000E+00  0.74397614474E+03  0.74397614474E+03  0.00000000000E+00 0. -1.
         21   -1    0    0  501  503 -0.00000000000E+00 -0.00000000000E+00 -0.22745207893E+03  0.22745207893E+03  0.00000000000E+00 0. -1.
    9000007    1    1    2  501    0  0.26015765655E+02 -0.38153024085E+02  0.15886565754E+03  0.43286345475E+03  0.40000000000E+03 0. -1.
   -9000007    1    1    2    0  502 -0.26015765655E+02  0.38153024085E+02  0.35765840827E+03  0.53856476892E+03  0.40000000000E+03 0. -1.
<mgrwt>
<rscale>  2 0.40265677E+03</rscale>
<asrwt>0</asrwt>
<pdfrwt beam="1">  1       21 0.11445787E+00 0.40265677E+03</pdfrwt>
<pdfrwt beam="2">  1       21 0.34992628E-01 0.40265677E+03</pdfrwt>
<totfact> 0.41484035E+03</totfact>
</mgrwt>
</event>
<event>
 4    1  0.4656822E-002  0.4374790E+03  0.7818608E-02  0.1031523E+00
         21   -1    0    0  501  502  0.00000000000E+00  0.00000000000E+00  0.17068031970E+03  0.17068031970E+03  0.00000000000E+00 0.  1.
         21   -1    0    0  502  503 -0.00000000000E+00 -0.00000000000E+00 -0.13780176945E+04  0.13780176945E+04  0.00000000000E+00 0.  1.
    9000007    1    1    2  501    0  0.10786070258E+03 -0.14054871280E+03 -0.26946034915E+03  0.51380614204E+03  0.40000000000E+03 0.  1.
   -9000007    1    1    2    0  503 -0.10786070258E+03  0.14054871280E+03 -0.93787702561E+03  0.10348918721E+04  0.40000000000E+03 0.  1.
<mgrwt>
<rscale>  2 0.43747900E+03</rscale>
<asrwt>0</asrwt>
<pdfrwt beam="1">  1       21 0.26258511E-01 0.43747900E+03</pdfrwt>
<pdfrwt beam="2">  1       21 0.21200272E+00 0.43747900E+03</pdfrwt>
<totfact> 0.13065942E+03</totfact>
</mgrwt>
</event>
<event>
 4    1  0.4656822E-002  0.4032971E+03  0.7818608E-02  0.1042644E+00
         21   -1    0    0  503  502  0.00000000000E+00  0.00000000000E+00  0.26163324048E+03  0.26163324048E+03  0.00000000000E+00 0. -1.
         21   -1    0    0  501  503 -0.00000000000E+00 -0.00000000000E+00 -0.66928521672E+03  0.66928521672E+03  0.00000000000E+00 0. -1.
    9000007    1    1    2  501    0  0.40903219863E+02  0.31232113644E+02 -0.32798168753E+03  0.51982738065E+03  0.40000000000E+03 0.  1.
   -9000007    1    1    2    0  502 -0.40903219863E+02 -0.31232113644E+02 -0.79670288701E+02  0.41109107655E+03  0.40000000000E+03 0.  1.
<mgrwt>
<rscale>  2 0.40329706E+03</rscale>
<asrwt>0</asrwt>
<pdfrwt beam="1">  1       21 0.40251267E-01 0.40329706E+03</pdfrwt>
<pdfrwt beam="2">  1       21 0.10296696E+00 0.40329706E+03</pdfrwt>
<totfact> 0.40485983E+03</totfact>
</mgrwt>
</event>
<event>
 4    1  0.4656822E-002  0.4589250E+03  0.7818608E-02  0.1025093E+00
         21   -1    0    0  501  502  0.00000000000E+00  0.00000000000E+00  0.12163292432E+04  0.12163292432E+04  0.00000000000E+00 0.  1.
         21   -1    0    0  502  503 -0.00000000000E+00 -0.00000000000E+00 -0.26952992587E+03  0.26952992587E+03  0.00000000000E+00 0.  1.
    9000007    1    1    2  501    0  0.78181001898E+02  0.21095004251E+03  0.91765084353E+03  0.10260093860E+04  0.40000000000E+03 0.  1.
   -9000007    1    1    2    0  503 -0.78181001898E+02 -0.21095004251E+03  0.29148473813E+02  0.45984978310E+03  0.40000000000E+03 0.  1.
<mgrwt>
<rscale>  2 0.45892504E+03</rscale>
<asrwt>0</asrwt>
<pdfrwt beam="1">  1       21 0.18712757E+00 0.45892504E+03</pdfrwt>
<pdfrwt beam="2">  1       21 0.41466143E-01 0.45892504E+03</pdfrwt>
<totfact> 0.75700571E+02</totfact>
</mgrwt>
</event>
<event>
 4    1  0.4656822E-002  0.4466741E+03  0.7818608E-02  0.1028719E+00
         21   -1    0    0  503  502  0.00000000000E+00  0.00000000000E+00  0.83177424791E+03  0.83177424791E+03  0.00000000000E+00 0.  1.
         21   -1    0    0  501  503 -0.00000000000E+00 -0.00000000000E+00 -0.24067529949E+03  0.24067529949E+03  0.00000000000E+00 0.  1.
    9000007    1    1    2  501    0 -0.10068891955E+03  0.17140447996E+03  0.26453327222E+03  0.51912966240E+03  0.40000000000E+03 0.  1.
   -9000007    1    1    2    0  502  0.10068891955E+03 -0.17140447996E+03  0.32656567619E+03  0.55331988500E+03  0.40000000000E+03 0.  1.
<mgrwt>
<rscale>  2 0.44667410E+03</rscale>
<asrwt>0</asrwt>
<pdfrwt beam="1">  1       21 0.12796527E+00 0.44667410E+03</pdfrwt>
<pdfrwt beam="2">  1       21 0.37026969E-01 0.44667410E+03</pdfrwt>
<totfact> 0.27396869E+03</totfact>
</mgrwt>
</event>
<event>
 4    1  0.4656822E-002  0.4616400E+03  0.7818608E-02  0.1024307E+00
         21   -1    0    0  501  502  0.00000000000E+00  0.00000000000E+00  0.10142527975E+04  0.10142527975E+04  0.00000000000E+00 0.  1.
         21   -1    0    0  502  503 -0.00000000000E+00 -0.00000000000E+00 -0.12873681013E+04  0.12873681013E+04  0.00000000000E+00 0. -1.
    9000007    1    1    2  501    0  0.22497546776E+03  0.49975366380E+02  0.91615768237E+03  0.10258929756E+04  0.40000000000E+03 0.  1.
   -9000007    1    1    2    0  503 -0.22497546776E+03 -0.49975366380E+02 -0.11892729862E+04  0.12757279232E+04  0.40000000000E+03 0. -1.
<mgrwt>
<rscale>  2 0.46164001E+03</rscale>
<asrwt>0</asrwt>
<pdfrwt beam="1">  1       21 0.15603889E+00 0.46164001E+03</pdfrwt>
<pdfrwt beam="2">  1       21 0.19805663E+00 0.46164001E+03</pdfrwt>
<totfact> 0.28436383E+01</totfact>
</mgrwt>
</event>
<event>
 4    1  0.4656822E-002  0.7536015E+03  0.7818608E-02  0.9629717E-01
         21   -1    0    0  501  502  0.00000000000E+00  0.00000000000E+00  0.88273145498E+03  0.88273145498E+03  0.00000000000E+00 0. -1.
         21   -1    0    0  502  503 -0.00000000000E+00 -0.00000000000E+00 -0.64934238098E+03  0.64934238098E+03  0.00000000000E+00 0. -1.
    9000007    1    1    2  501    0  0.48530991560E+03  0.41519808372E+03  0.19021470881E+03  0.77723664244E+03  0.40000000000E+03 0. -1.
   -9000007    1    1    2    0  503 -0.48530991560E+03 -0.41519808372E+03  0.43174365185E+02  0.75483719352E+03  0.40000000000E+03 0. -1.
<mgrwt>
<rscale>  2 0.75360146E+03</rscale>
<asrwt>0</asrwt>
<pdfrwt beam="1">  1       21 0.13580484E+00 0.75360146E+03</pdfrwt>
<pdfrwt beam="2">  1       21 0.99898827E-01 0.75360146E+03</pdfrwt>
<totfact> 0.23411589E+02</totfact>
</mgrwt>
</event>
<event>
 4    1  0.4656822E-002  0.5165131E+03  0.7818608E-02  0.1009556E+00
         21   -1    0    0  501  502  0.00000000000E+00  0.00000000000E+00  0.31000089567E+03  0.31000089567E+03  0.00000000000E+00 0. -1.
         21   -1    0    0  502  503 -0.00000000000E+00 -0.00000000000E+00 -0.10913913925E+04  0.10913913925E+04  0.00000000000E+00 0.  1.
    9000007    1    1    2  501    0  0.30088332714E+03  0.12749496060E+03 -0.68475322717E+02  0.52103225557E+03  0.40000000000E+03 0. -1.
   -9000007    1    1    2    0  503 -0.30088332714E+03 -0.12749496060E+03 -0.71291517415E+03  0.88036003264E+03  0.40000000000E+03 0.  1.
<mgrwt>
<rscale>  2 0.51651306E+03</rscale>
<asrwt>0</asrwt>
<pdfrwt beam="1">  1       21 0.47692446E-01 0.51651306E+03</pdfrwt>
<pdfrwt beam="2">  1       21 0.16790637E+00 0.51651306E+03</pdfrwt>
<totfact> 0.75560217E+02</totfact>
</mgrwt>
</event>
<event>
 4    1  0.4656822E-002  0.4378067E+03  0.7818608E-02  0.1031422E+00
         21   -1    0    0  503  502  0.00000000000E+00  0.00000000000E+00  0.21507366416E+03  0.21507366416E+03  0.00000000000E+00 0. -1.
         21   -1    0    0  501  503 -0.00000000000E+00 -0.00000000000E+00 -0.89814526021E+03  0.89814526021E+03  0.00000000000E+00 0. -1.
    9000007    1    1    2  501    0  0.17681541445E+03  0.20273459416E+02 -0.39046500930E+03  0.58663244662E+03  0.40000000000E+03 0. -1.
   -9000007    1    1    2    0  502 -0.17681541445E+03 -0.20273459416E+02 -0.29260658675E+03  0.52658647775E+03  0.40000000000E+03 0. -1.
<mgrwt>
<rscale>  2 0.43780670E+03</rscale>
<asrwt>0</asrwt>
<pdfrwt beam="1">  1       21 0.33088256E-01 0.43780670E+03</pdfrwt>
<pdfrwt beam="2">  1       21 0.13817619E+00 0.43780670E+03</pdfrwt>
<totfact> 0.28246909E+03</totfact>
</mgrwt>
</event>
<event>
 4    1  0.4656822E-002  0.4052419E+03  0.7818608E-02  0.1041980E+00
         21   -1    0    0  501  502  0.00000000000E+00  0.00000000000E+00  0.17049206033E+04  0.17049206033E+04  0.00000000000E+00 0.  1.
         21   -1    0    0  502  503 -0.00000000000E+00 -0.00000000000E+00 -0.15571845808E+03  0.15571845808E+03  0.00000000000E+00 0.  1.
    9000007    1    1    2  501    0 -0.38939571648E+02 -0.52006622089E+02  0.13491713910E+04  0.14087172965E+04  0.40000000000E+03 0.  1.
   -9000007    1    1    2    0  503  0.38939571648E+02  0.52006622089E+02  0.20003075419E+03  0.45192176491E+03  0.40000000000E+03 0.  1.
<mgrwt>
<rscale>  2 0.40524188E+03</rscale>
<asrwt>0</asrwt>
<pdfrwt beam="1">  1       21 0.26229546E+00 0.40524188E+03</pdfrwt>
<pdfrwt beam="2">  1       21 0.23956687E-01 0.40524188E+03</pdfrwt>
<totfact> 0.77181056E+02</totfact>
</mgrwt>
</event>
<event>
 4    1  0.4656822E-002  0.5459826E+03  0.7818608E-02  0.1002428E+00
         21   -1    0    0  503  502  0.00000000000E+00  0.00000000000E+00  0.39239598289E+03  0.39239598289E+03  0.00000000000E+00 0.  1.
         21   -1    0    0  501  503 -0.00000000000E+00 -0.00000000000E+00 -0.80969984736E+03  0.80969984736E+03  0.00000000000E+00 0. -1.
    9000007    1    1    2  501    0  0.34137904298E+03 -0.14682421863E+03 -0.59269232772E+02  0.54919017117E+03  0.40000000000E+03 0.  1.
   -9000007    1    1    2    0  502 -0.34137904298E+03  0.14682421863E+03 -0.35803463170E+03  0.65290565908E+03  0.40000000000E+03 0.  1.
<mgrwt>
<rscale>  2 0.54598260E+03</rscale>
<asrwt>0</asrwt>
<pdfrwt beam="1">  1       21 0.60368614E-01 0.54598260E+03</pdfrwt>
<pdfrwt beam="2">  1       21 0.12456921E+00 0.54598260E+03</pdfrwt>
<totfact> 0.10076691E+03</totfact>
</mgrwt>
</event>
<event>
 4    1  0.4656822E-002  0.5332607E+03  0.7818608E-02  0.1005444E+00
         21   -1    0    0  503  502  0.00000000000E+00  0.00000000000E+00  0.91882613064E+03  0.91882613064E+03  0.00000000000E+00 0.  1.
         21   -1    0    0  501  503 -0.00000000000E+00 -0.00000000000E+00 -0.35149476710E+03  0.35149476710E+03  0.00000000000E+00 0. -1.
    9000007    1    1    2  501    0 -0.22708142215E+03 -0.26981668094E+03  0.64094147005E+02  0.53709875562E+03  0.40000000000E+03 0. -1.
   -9000007    1    1    2    0  502  0.22708142215E+03  0.26981668094E+03  0.50323721654E+03  0.73322214213E+03  0.40000000000E+03 0. -1.
<mgrwt>
<rscale>  2 0.53326074E+03</rscale>
<asrwt>0</asrwt>
<pdfrwt beam="1">  1       21 0.14135787E+00 0.53326074E+03</pdfrwt>
<pdfrwt beam="2">  1       21 0.54076118E-01 0.53326074E+03</pdfrwt>
<totfact> 0.92314384E+02</totfact>
</mgrwt>
</event>
<event>
 4    1  0.4656822E-002  0.4031154E+03  0.7818608E-02  0.1042706E+00
         21   -1    0    0  501  502  0.00000000000E+00  0.00000000000E+00  0.10904357238E+04  0.10904357238E+04  0.00000000000E+00 0.  1.
         21   -1    0    0  502  503 -0.00000000000E+00 -0.00000000000E+00 -0.15567908825E+03  0.15567908825E+03  0.00000000000E+00 0.  1.
    9000007    1    1    2  501    0 -0.33015832797E+02 -0.37575809272E+02  0.59619232748E+03  0.71968554105E+03  0.40000000000E+03 0.  1.
   -9000007    1    1    2    0  503  0.33015832797E+02  0.37575809272E+02  0.33856430809E+03  0.52642927100E+03  0.40000000000E+03 0.  1.
<mgrwt>
<rscale>  2 0.40311535E+03</rscale>
<asrwt>0</asrwt>
<pdfrwt beam="1">  1       21 0.16775934E+00 0.40311535E+03</pdfrwt>
<pdfrwt beam="2">  1       21 0.23950630E-01 0.40311535E+03</pdfrwt>
<totfact> 0.31883848E+03</totfact>
</mgrwt>
</event>
<event>
 4    1  0.4656822E-002  0.6160706E+03  0.7818608E-02  0.9872614E-01
         21   -1    0    0  503  502  0.00000000000E+00  0.00000000000E+00  0.90166732013E+03  0.90166732013E+03  0.00000000000E+00 0.  1.
         21   -1    0    0  501  503 -0.00000000000E+00 -0.00000000000E+00 -0.13695420254E+04  0.13695420254E+04  0.00000000000E+00 0. -1.
    9000007    1    1    2  501    0 -0.32955997391E+03  0.33306634917E+03 -0.11790482048E+04  0.13302998303E+04  0.40000000000E+03 0. -1.
   -9000007    1    1    2    0  502  0.32955997391E+03 -0.33306634917E+03  0.71117349953E+03  0.94090951520E+03  0.40000000000E+03 0.  1.
<mgrwt>
<rscale>  2 0.61607059E+03</rscale>
<asrwt>0</asrwt>
<pdfrwt beam="1">  1       21 0.13871805E+00 0.61607059E+03</pdfrwt>
<pdfrwt beam="2">  1       21 0.21069877E+00 0.61607059E+03</pdfrwt>
<totfact> 0.29664397E+01</totfact>
</mgrwt>
</event>
<event>
 4    1  0.4656822E-002  0.4082083E+03  0.7818608E-02  0.1040974E+00
         21   -1    0    0  501  502  0.00000000000E+00  0.00000000000E+00  0.10581597669E+03  0.10581597669E+03  0.00000000000E+00 0.  1.
         21   -1    0    0  502  503 -0.00000000000E+00 -0.00000000000E+00 -0.15891596999E+04  0.15891596999E+04  0.00000000000E+00 0.  1.
    9000007    1    1    2  501    0 -0.78023653786E+02  0.23374269876E+02 -0.82236359920E+03  0.91810453453E+03  0.40000000000E+03 0. -1.
   -9000007    1    1    2    0  503  0.78023653786E+02 -0.23374269876E+02 -0.66098012403E+03  0.77687114209E+03  0.40000000000E+03 0. -1.
<mgrwt>
<rscale>  2 0.40820834E+03</rscale>
<asrwt>0</asrwt>
<pdfrwt beam="1">  1       21 0.16279381E-01 0.40820834E+03</pdfrwt>
<pdfrwt beam="2">  1       21 0.24448610E+00 0.40820834E+03</pdfrwt>
<totfact> 0.20593555E+03</totfact>
</mgrwt>
</event>
<event>
 4    1  0.4656822E-002  0.4648515E+03  0.7818608E-02  0.1023383E+00
         21   -1    0    0  503  502  0.00000000000E+00  0.00000000000E+00  0.37979185688E+03  0.37979185688E+03  0.00000000000E+00 0. -1.
         21   -1    0    0  501  503 -0.00000000000E+00 -0.00000000000E+00 -0.58918112375E+03  0.58918112375E+03  0.00000000000E+00 0. -1.
    9000007    1    1    2  501    0  0.14171459536E+03 -0.18974699771E+03 -0.14942733696E+02  0.46509164147E+03  0.40000000000E+03 0. -1.
   -9000007    1    1    2    0  502 -0.14171459536E+03  0.18974699771E+03 -0.19444653317E+03  0.50388133915E+03  0.40000000000E+03 0. -1.
<mgrwt>
<rscale>  2 0.46485154E+03</rscale>
<asrwt>0</asrwt>
<pdfrwt beam="1">  1       21 0.58429517E-01 0.46485154E+03</pdfrwt>
<pdfrwt beam="2">  1       21 0.90643249E-01 0.46485154E+03</pdfrwt>
<totfact> 0.24434306E+03</totfact>
</mgrwt>
</event>
<event>
 4    1  0.4656822E-002  0.4480812E+03  0.7818608E-02  0.1028296E+00
         21   -1    0    0  503  502  0.00000000000E+00  0.00000000000E+00  0.43445823812E+03  0.43445823812E+03  0.00000000000E+00 0.  1.
         21   -1    0    0  501  503 -0.00000000000E+00 -0.00000000000E+00 -0.70720555630E+03  0.70720555630E+03  0.00000000000E+00 0. -1.
    9000007    1    1    2  501    0 -0.19725363024E+03  0.43217157393E+02 -0.47240850496E+03  0.65111175147E+03  0.40000000000E+03 0. -1.
   -9000007    1    1    2    0  502  0.19725363024E+03 -0.43217157393E+02  0.19966118678E+03  0.49055204295E+03  0.40000000000E+03 0.  1.
<mgrwt>
<rscale>  2 0.44808115E+03</rscale>
<asrwt>0</asrwt>
<pdfrwt beam="1">  1       21 0.66839729E-01 0.44808115E+03</pdfrwt>
<pdfrwt beam="2">  1       21 0.10880086E+00 0.44808115E+03</pdfrwt>
<totfact> 0.11732876E+03</totfact>
</mgrwt>
</event>
<event>
 4    1  0.4656822E-002  0.4031623E+03  0.7818608E-02  0.1042690E+00
         21   -1    0    0  503  502  0.00000000000E+00  0.00000000000E+00  0.45424356015E+03  0.45424356015E+03  0.00000000000E+00 0.  1.
         21   -1    0    0  501  503 -0.00000000000E+00 -0.00000000000E+00 -0.41185734639E+03  0.41185734639E+03  0.00000000000E+00 0.  1.
    9000007    1    1    2  501    0  0.50331671139E+02  0.25580609798E+01 -0.13565921463E+03  0.42537423912E+03  0.40000000000E+03 0.  1.
   -9000007    1    1    2    0  502 -0.50331671139E+02 -0.25580609798E+01  0.17804542839E+03  0.44072666741E+03  0.40000000000E+03 0.  1.
<mgrwt>
<rscale>  2 0.40316228E+03</rscale>
<asrwt>0</asrwt>
<pdfrwt beam="1">  1       21 0.69883624E-01 0.40316228E+03</pdfrwt>
<pdfrwt beam="2">  1       21 0.63362669E-01 0.40316228E+03</pdfrwt>
<totfact> 0.38123031E+03</totfact>
</mgrwt>
</event>
<event>
 4    1  0.4656822E-002  0.4763690E+03  0.7818608E-02  0.1020138E+00
         21   -1    0    0  501  502  0.00000000000E+00  0.00000000000E+00  0.49193575152E+03  0.49193575152E+03  0.00000000000E+00 0.  1.
         21   -1    0    0  502  503 -0.00000000000E+00 -0.00000000000E+00 -0.55596067373E+03  0.55596067373E+03  0.00000000000E+00 0.  1.
    9000007    1    1    2  501    0  0.12117801194E+03  0.22856794356E+03  0.18419117720E+03  0.51073848999E+03  0.40000000000E+03 0.  1.
   -9000007    1    1    2    0  503 -0.12117801194E+03 -0.22856794356E+03 -0.24821609940E+03  0.53715793525E+03  0.40000000000E+03 0.  1.
<mgrwt>
<rscale>  2 0.47636899E+03</rscale>
<asrwt>0</asrwt>
<pdfrwt beam="1">  1       21 0.75682423E-01 0.47636899E+03</pdfrwt>
<pdfrwt beam="2">  1       21 0.85532411E-01 0.47636899E+03</pdfrwt>
<totfact> 0.15653992E+03</totfact>
</mgrwt>
</event>
<event>
 4    1  0.4656822E-002  0.4433696E+03  0.7818608E-02  0.1029718E+00
         21   -1    0    0  503  502  0.00000000000E+00  0.00000000000E+00  0.92682630875E+03  0.92682630875E+03  0.00000000000E+00 0. -1.
         21   -1    0    0  501  503 -0.00000000000E+00 -0.00000000000E+00 -0.21215448320E+03  0.21215448320E+03  0.00000000000E+00 0.  1.
    9000007    1    1    2  501    0  0.92129732965E+02  0.16759689938E+03  0.36675140349E+03  0.57539829713E+03  0.40000000000E+03 0.  1.
   -9000007    1    1    2    0  502 -0.92129732965E+02 -0.16759689938E+03  0.34792042206E+03  0.56358249482E+03  0.40000000000E+03 0. -1.
<mgrwt>
<rscale>  2 0.44336961E+03</rscale>
<asrwt>0</asrwt>
<pdfrwt beam="1">  1       21 0.14258866E+00 0.44336961E+03</pdfrwt>
<pdfrwt beam="2">  1       21 0.32639152E-01 0.44336961E+03</pdfrwt>
<totfact> 0.26644661E+03</totfact>
</mgrwt>
</event>
<event>
 4    1  0.4656822E-002  0.4191846E+03  0.7818608E-02  0.1037332E+00
         21   -1    0    0  503  502  0.00000000000E+00  0.00000000000E+00  0.11856135909E+03  0.11856135909E+03  0.00000000000E+00 0.  1.
         21   -1    0    0  501  503 -0.00000000000E+00 -0.00000000000E+00 -0.15467528766E+04  0.15467528766E+04  0.00000000000E+00 0. -1.
    9000007    1    1    2  501    0  0.11085929229E+03  0.58531341799E+02 -0.88437648029E+03  0.97869170813E+03  0.40000000000E+03 0. -1.
   -9000007    1    1    2    0  502 -0.11085929229E+03 -0.58531341799E+02 -0.54381503724E+03  0.68662252759E+03  0.40000000000E+03 0.  1.
<mgrwt>
<rscale>  2 0.41918457E+03</rscale>
<asrwt>0</asrwt>
<pdfrwt beam="1">  1       21 0.18240210E-01 0.41918457E+03</pdfrwt>
<pdfrwt beam="2">  1       21 0.23796197E+00 0.41918457E+03</pdfrwt>
<totfact> 0.18159317E+03</totfact>
</mgrwt>
</event>
<event>
 4    1  0.4656822E-002  0.4553807E+03  0.7818608E-02  0.1026130E+00
         21   -1    0    0  501  502  0.00000000000E+00  0.00000000000E+00  0.17134824954E+03  0.17134824954E+03  0.00000000000E+00 0. -1.
         21   -1    0    0  502  503 -0.00000000000E+00 -0.00000000000E+00 -0.14768939796E+04  0.14768939796E+04  0.00000000000E+00 0. -1.
    9000007    1    1    2  501    0  0.60598814465E+02 -0.20904394055E+03 -0.30259008286E+03  0.54674705636E+03  0.40000000000E+03 0. -1.
   -9000007    1    1    2    0  503 -0.60598814465E+02  0.20904394055E+03 -0.10029556472E+04  0.11014951727E+04  0.40000000000E+03 0. -1.
<mgrwt>
<rscale>  2 0.45538070E+03</rscale>
<asrwt>0</asrwt>
<pdfrwt beam="1">  1       21 0.26361270E-01 0.45538070E+03</pdfrwt>
<pdfrwt beam="2">  1       21 0.22721445E+00 0.45538070E+03</pdfrwt>
<totfact> 0.10275778E+03</totfact>
</mgrwt>
</event>
<event>
 4    1  0.4656822E-002  0.4126950E+03  0.7818608E-02  0.1039470E+00
         21   -1    0    0  501  502  0.00000000000E+00  0.00000000000E+00  0.45073453928E+03  0.45073453928E+03  0.00000000000E+00 0. -1.
         21   -1    0    0  502  503 -0.00000000000E+00 -0.00000000000E+00 -0.57896075811E+03  0.57896075811E+03  0.00000000000E+00 0. -1.
    9000007    1    1    2  501    0  0.10679121933E+02 -0.10101059872E+03  0.23931423682E+03  0.47706235299E+03  0.40000000000E+03 0. -1.
   -9000007    1    1    2    0  503 -0.10679121933E+02  0.10101059872E+03 -0.36754045564E+03  0.55263294440E+03  0.40000000000E+03 0. -1.
<mgrwt>
<rscale>  2 0.41269503E+03</rscale>
<asrwt>0</asrwt>
<pdfrwt beam="1">  1       21 0.69343776E-01 0.41269503E+03</pdfrwt>
<pdfrwt beam="2">  1       21 0.89070885E-01 0.41269503E+03</pdfrwt>
<totfact> 0.17785395E+03</totfact>
</mgrwt>
</event>
<event>
 4    1  0.4656822E-002  0.4251969E+03  0.7818608E-02  0.1035388E+00
         21   -1    0    0  503  502  0.00000000000E+00  0.00000000000E+00  0.44132517490E+03  0.44132517490E+03  0.00000000000E+00 0.  1.
         21   -1    0    0  501  503 -0.00000000000E+00 -0.00000000000E+00 -0.67097304124E+03  0.67097304124E+03  0.00000000000E+00 0.  1.
    9000007    1    1    2  501    0 -0.19475086311E+02 -0.14287444101E+03 -0.46189700567E+03  0.62780668101E+03  0.40000000000E+03 0.  1.
   -9000007    1    1    2    0  502  0.19475086311E+02  0.14287444101E+03  0.23224913933E+03  0.48449153512E+03  0.40000000000E+03 0.  1.
<mgrwt>
<rscale>  2 0.42519688E+03</rscale>
<asrwt>0</asrwt>
<pdfrwt beam="1">  1       21 0.67896181E-01 0.42519688E+03</pdfrwt>
<pdfrwt beam="2">  1       21 0.10322662E+00 0.42519688E+03</pdfrwt>
<totfact> 0.13018719E+03</totfact>
</mgrwt>
</event>
<event>
 4    1  0.4656822E-002  0.4629228E+03  0.7818608E-02  0.1023937E+00
         21   -1    0    0  501  502  0.00000000000E+00  0.00000000000E+00  0.26152564410E+03  0.26152564410E+03  0.00000000000E+00 0.  1.
         21   -1    0    0  502  503 -0.00000000000E+00 -0.00000000000E+00 -0.82745239486E+03  0.82745239486E+03  0.00000000000E+00 0.  1.
    9000007    1    1    2  501    0 -0.13071106760E+03 -0.19290446770E+03 -0.22929371356E+03  0.51659764220E+03  0.40000000000E+03 0.  1.
   -9000007    1    1    2    0  503  0.13071106760E+03  0.19290446770E+03 -0.33663303721E+03  0.57238039676E+03  0.40000000000E+03 0.  1.
<mgrwt>
<rscale>  2 0.46292280E+03</rscale>
<asrwt>0</asrwt>
<pdfrwt beam="1">  1       21 0.40234716E-01 0.46292280E+03</pdfrwt>
<pdfrwt beam="2">  1       21 0.12730036E+00 0.46292280E+03</pdfrwt>
<totfact> 0.23278457E+03</totfact>
</mgrwt>
</event>
<event>
 4    1  0.4656822E-002  0.4252971E+03  0.7818608E-02  0.1035356E+00
         21   -1    0    0  501  502  0.00000000000E+00  0.00000000000E+00  0.88557843089E+03  0.88557843089E+03  0.00000000000E+00 0.  1.
         21   -1    0    0  502  503 -0.00000000000E+00 -0.00000000000E+00 -0.29002819264E+03  0.29002819264E+03  0.00000000000E+00 0.  1.
    9000007    1    1    2  501    0  0.13204733027E+03  0.58661445298E+02 -0.21897409932E+02  0.42586049260E+03  0.40000000000E+03 0.  1.
   -9000007    1    1    2    0  503 -0.13204733027E+03 -0.58661445298E+02  0.61744764818E+03  0.74974613093E+03  0.40000000000E+03 0.  1.
<mgrwt>
<rscale>  2 0.42529715E+03</rscale>
<asrwt>0</asrwt>
<pdfrwt beam="1">  1       21 0.13624283E+00 0.42529715E+03</pdfrwt>
<pdfrwt beam="2">  1       21 0.44619722E-01 0.42529715E+03</pdfrwt>
<totfact> 0.15974073E+03</totfact>
</mgrwt>
</event>
<event>
 4    1  0.4656822E-002  0.4119449E+03  0.7818608E-02  0.1039720E+00
         21   -1    0    0  501  502  0.00000000000E+00  0.00000000000E+00  0.13163447660E+04  0.13163447660E+04  0.00000000000E+00 0.  1.
         21   -1    0    0  502  503 -0.00000000000E+00 -0.00000000000E+00 -0.21066147749E+03  0.21066147749E+03  0.00000000000E+00 0.  1.
    9000007    1    1    2  501    0 -0.74760831483E+01 -0.98197151138E+02  0.10284492255E+04  0.11078837401E+04  0.40000000000E+03 0.  1.
   -9000007    1    1    2    0  503  0.74760831483E+01  0.98197151138E+02  0.77234063039E+02  0.41912250334E+03  0.40000000000E+03 0.  1.
<mgrwt>
<rscale>  2 0.41194487E+03</rscale>
<asrwt>0</asrwt>
<pdfrwt beam="1">  1       21 0.20251457E+00 0.41194487E+03</pdfrwt>
<pdfrwt beam="2">  1       21 0.32409459E-01 0.41194487E+03</pdfrwt>
<totfact> 0.10063468E+03</totfact>
</mgrwt>
</event>
<event>
 4    1  0.4656822E-002  0.4141297E+03  0.7818608E-02  0.1038994E+00
         21   -1    0    0  501  502  0.00000000000E+00  0.00000000000E+00  0.34313477521E+03  0.34313477521E+03  0.00000000000E+00 0. -1.
         21   -1    0    0  502  503 -0.00000000000E+00 -0.00000000000E+00 -0.68868171342E+03  0.68868171342E+03  0.00000000000E+00 0. -1.
    9000007    1    1    2  501    0  0.42779396181E+02 -0.98353054630E+02  0.97399941107E+02  0.42542936972E+03  0.40000000000E+03 0. -1.
   -9000007    1    1    2    0  503 -0.42779396181E+02  0.98353054630E+02 -0.44294687932E+03  0.60638711892E+03  0.40000000000E+03 0. -1.
<mgrwt>
<rscale>  2 0.41412969E+03</rscale>
<asrwt>0</asrwt>
<pdfrwt beam="1">  1       21 0.52789966E-01 0.41412969E+03</pdfrwt>
<pdfrwt beam="2">  1       21 0.10595103E+00 0.41412969E+03</pdfrwt>
<totfact> 0.21275882E+03</totfact>
</mgrwt>
</event>
<event>
 4    1  0.4656822E-002  0.5120350E+03  0.7818608E-02  0.1010684E+00
         21   -1    0    0  501  502  0.00000000000E+00  0.00000000000E+00  0.44049974795E+03  0.44049974795E+03  0.00000000000E+00 0.  1.
         21   -1    0    0  502  503 -0.00000000000E+00 -0.00000000000E+00 -0.90105715661E+03  0.90105715661E+03  0.00000000000E+00 0.  1.
    9000007    1    1    2  501    0  0.58294992816E+02  0.31429527590E+03  0.16053638136E+03  0.53661136438E+03  0.40000000000E+03 0.  1.
   -9000007    1    1    2    0  503 -0.58294992816E+02 -0.31429527590E+03 -0.62109379002E+03  0.80494554017E+03  0.40000000000E+03 0.  1.
<mgrwt>
<rscale>  2 0.51203499E+03</rscale>
<asrwt>0</asrwt>
<pdfrwt beam="1">  1       21 0.67769192E-01 0.51203499E+03</pdfrwt>
<pdfrwt beam="2">  1       21 0.13862418E+00 0.51203499E+03</pdfrwt>
<totfact> 0.59630843E+02</totfact>
</mgrwt>
</event>
<event>
 4    1  0.4656822E-002  0.5233571E+03  0.7818608E-02  0.1007856E+00
         21   -1    0    0  501  502  0.00000000000E+00  0.00000000000E+00  0.31390121310E+03  0.31390121310E+03  0.00000000000E+00 0. -1.
         21   -1    0    0  502  503 -0.00000000000E+00 -0.00000000000E+00 -0.88247756850E+03  0.88247756850E+03  0.00000000000E+00 0.  1.
    9000007    1    1    2  501    0 -0.33669663668E+03 -0.23195571228E+02 -0.22092466674E+03  0.56807602313E+03  0.40000000000E+03 0.  1.
   -9000007    1    1    2    0  503  0.33669663668E+03  0.23195571228E+02 -0.34765168865E+03  0.62830275847E+03  0.40000000000E+03 0.  1.
<mgrwt>
<rscale>  2 0.52335711E+03</rscale>
<asrwt>0</asrwt>
<pdfrwt beam="1">  1       21 0.48292495E-01 0.52335711E+03</pdfrwt>
<pdfrwt beam="2">  1       21 0.13576578E+00 0.52335711E+03</pdfrwt>
<totfact> 0.13143307E+03</totfact>
</mgrwt>
</event>
<event>
 4    1  0.4656822E-002  0.4325841E+03  0.7818608E-02  0.1033047E+00
         21   -1    0    0  503  502  0.00000000000E+00  0.00000000000E+00  0.32399235589E+03  0.32399235589E+03  0.00000000000E+00 0. -1.
         21   -1    0    0  501  503 -0.00000000000E+00 -0.00000000000E+00 -0.57805963498E+03  0.57805963498E+03  0.00000000000E+00 0.  1.
    9000007    1    1    2  501    0  0.69247598767E+02 -0.14944491843E+03 -0.14012920809E+03  0.45471442526E+03  0.40000000000E+03 0.  1.
   -9000007    1    1    2    0  502 -0.69247598767E+02  0.14944491843E+03 -0.11393807100E+03  0.44733756561E+03  0.40000000000E+03 0.  1.
<mgrwt>
<rscale>  2 0.43258411E+03</rscale>
<asrwt>0</asrwt>
<pdfrwt beam="1">  1       21 0.49844979E-01 0.43258411E+03</pdfrwt>
<pdfrwt beam="2">  1       21 0.88932250E-01 0.43258411E+03</pdfrwt>
<totfact> 0.36404127E+03</totfact>
</mgrwt>
</event>
<event>
 4    1  0.4656822E-002  0.4458391E+03  0.7818608E-02  0.1028970E+00
         21   -1    0    0  503  502  0.00000000000E+00  0.00000000000E+00  0.76587247541E+03  0.76587247541E+03  0.00000000000E+00 0. -1.
         21   -1    0    0  501  503 -0.00000000000E+00 -0.00000000000E+00 -0.28654370414E+03  0.28654370414E+03  0.00000000000E+00 0. -1.
    9000007    1    1    2  501    0  0.19674702976E+03 -0.79468251288E+01  0.40120983081E+03  0.59978485650E+03  0.40000000000E+03 0. -1.
   -9000007    1    1    2    0  502 -0.19674702976E+03  0.79468251288E+01  0.78118940455E+02  0.45263132305E+03  0.40000000000E+03 0. -1.
<mgrwt>
<rscale>  2 0.44583915E+03</rscale>
<asrwt>0</asrwt>
<pdfrwt beam="1">  1       21 0.11782653E+00 0.44583915E+03</pdfrwt>
<pdfrwt beam="2">  1       21 0.44083647E-01 0.44583915E+03</pdfrwt>
<totfact> 0.23621438E+03</totfact>
</mgrwt>
</event>
<event>
 4    1  0.4656822E-002  0.5817717E+03  0.7818608E-02  0.9943963E-01
         21   -1    0    0  503  502  0.00000000000E+00  0.00000000000E+00  0.61506631921E+03  0.61506631921E+03  0.00000000000E+00 0.  1.
         21   -1    0    0  501  503 -0.00000000000E+00 -0.00000000000E+00 -0.55319592510E+03  0.55319592510E+03  0.00000000000E+00 0. -1.
    9000007    1    1    2  501    0 -0.21516545808E+02 -0.42189495655E+03 -0.11478370845E+02  0.58188492771E+03  0.40000000000E+03 0. -1.
   -9000007    1    1    2    0  502  0.21516545808E+02  0.42189495655E+03  0.73348764951E+02  0.58637731660E+03  0.40000000000E+03 0. -1.
<mgrwt>
<rscale>  2 0.58177170E+03</rscale>
<asrwt>0</asrwt>
<pdfrwt beam="1">  1       21 0.94625588E-01 0.58177170E+03</pdfrwt>
<pdfrwt beam="2">  1       21 0.85107065E-01 0.58177170E+03</pdfrwt>
<totfact> 0.90462667E+02</totfact>
</mgrwt>
</event>
<event>
 4    1  0.4656822E-002  0.4236161E+03  0.7818608E-02  0.1035896E+00
         21   -1    0    0  503  502  0.00000000000E+00  0.00000000000E+00  0.68686812916E+03  0.68686812916E+03  0.00000000000E+00 0.  1.
         21   -1    0    0  501  503 -0.00000000000E+00 -0.00000000000E+00 -0.62692111667E+03  0.62692111667E+03  0.00000000000E+00 0.  1.
    9000007    1    1    2  501    0  0.13227422253E+03 -0.44205460055E+02 -0.47170921698E+03  0.63400329497E+03  0.40000000000E+03 0.  1.
   -9000007    1    1    2    0  502 -0.13227422253E+03  0.44205460055E+02  0.53165622948E+03  0.67978595086E+03  0.40000000000E+03 0.  1.
<mgrwt>
<rscale>  2 0.42361609E+03</rscale>
<asrwt>0</asrwt>
<pdfrwt beam="1">  1       21 0.10567202E+00 0.42361609E+03</pdfrwt>
<pdfrwt beam="2">  1       21 0.96449403E-01 0.42361609E+03</pdfrwt>
<totfact> 0.54578966E+02</totfact>
</mgrwt>
</event>
<event>
 4    1  0.4656822E-002  0.4374273E+03  0.7818608E-02  0.1031539E+00
         21   -1    0    0  503  502  0.00000000000E+00  0.00000000000E+00  0.27640515818E+03  0.27640515818E+03  0.00000000000E+00 0.  1.
         21   -1    0    0  501  503 -0.00000000000E+00 -0.00000000000E+00 -0.71369839082E+03  0.71369839082E+03  0.00000000000E+00 0.  1.
    9000007    1    1    2  501    0  0.63412026573E+02  0.16529235374E+03 -0.30445851681E+03  0.53295181375E+03  0.40000000000E+03 0.  1.
   -9000007    1    1    2    0  502 -0.63412026573E+02 -0.16529235374E+03 -0.13283471583E+03  0.45715173526E+03  0.40000000000E+03 0.  1.
<mgrwt>
<rscale>  2 0.43742731E+03</rscale>
<asrwt>0</asrwt>
<pdfrwt beam="1">  1       21 0.42523871E-01 0.43742731E+03</pdfrwt>
<pdfrwt beam="2">  1       21 0.10979975E+00 0.43742731E+03</pdfrwt>
<totfact> 0.30457915E+03</totfact>
</mgrwt>
</event>
<event>
 4    1  0.4656822E-002  0.4445616E+03  0.7818608E-02  0.1029356E+00
         21   -1    0    0  503  502  0.00000000000E+00  0.00000000000E+00  0.14716218766E+03  0.14716218766E+03  0.00000000000E+00 0. -1.
         21   -1    0    0  501  503 -0.00000000000E+00 -0.00000000000E+00 -0.14236946376E+04  0.14236946376E+04  0.00000000000E+00 0.  1.
    9000007    1    1    2  501    0 -0.79971674313E+02  0.17674710048E+03 -0.82528715451E+03  0.93740807209E+03  0.40000000000E+03 0. -1.
   -9000007    1    1    2    0  502  0.79971674313E+02 -0.17674710048E+03 -0.45124529539E+03  0.63344875312E+03  0.40000000000E+03 0. -1.
<mgrwt>
<rscale>  2 0.44456159E+03</rscale>
<asrwt>0</asrwt>
<pdfrwt beam="1">  1       21 0.22640336E-01 0.44456159E+03</pdfrwt>
<pdfrwt beam="2">  1       21 0.21902995E+00 0.44456159E+03</pdfrwt>
<totfact> 0.15643441E+03</totfact>
</mgrwt>
</event>
<event>
 4    1  0.4656822E-002  0.5292500E+03  0.7818608E-02  0.1006414E+00
         21   -1    0    0  503  502  0.00000000000E+00  0.00000000000E+00  0.43766792055E+03  0.43766792055E+03  0.00000000000E+00 0.  1.
         21   -1    0    0  501  503 -0.00000000000E+00 -0.00000000000E+00 -0.65372723458E+03  0.65372723458E+03  0.00000000000E+00 0.  1.
    9000007    1    1    2  501    0 -0.34107485756E+03  0.61429221893E+02 -0.18711800984E+03  0.56135439552E+03  0.40000000000E+03 0.  1.
   -9000007    1    1    2    0  502  0.34107485756E+03 -0.61429221893E+02 -0.28941304187E+02  0.53004075961E+03  0.40000000000E+03 0.  1.
<mgrwt>
<rscale>  2 0.52925004E+03</rscale>
<asrwt>0</asrwt>
<pdfrwt beam="1">  1       21 0.67333526E-01 0.52925004E+03</pdfrwt>
<pdfrwt beam="2">  1       21 0.10057342E+00 0.52925004E+03</pdfrwt>
<totfact> 0.13595793E+03</totfact>
</mgrwt>
</event>
<event>
 4    1  0.4656822E-002  0.4140503E+03  0.7818608E-02  0.1039020E+00
         21   -1    0    0  501  502  0.00000000000E+00  0.00000000000E+00  0.11970952744E+04  0.11970952744E+04  0.00000000000E+00 0. -1.
         21   -1    0    0  502  503 -0.00000000000E+00 -0.00000000000E+00 -0.15494735073E+03  0.15494735073E+03  0.00000000000E+00 0. -1.
    9000007    1    1    2  501    0 -0.10400696329E+03 -0.24903659622E+02  0.70712333631E+03  0.81942727160E+03  0.40000000000E+03 0. -1.
   -9000007    1    1    2    0  503  0.10400696329E+03  0.24903659622E+02  0.33502458731E+03  0.53261535350E+03  0.40000000000E+03 0. -1.
<mgrwt>
<rscale>  2 0.41405029E+03</rscale>
<asrwt>0</asrwt>
<pdfrwt beam="1">  1       21 0.18416850E+00 0.41405029E+03</pdfrwt>
<pdfrwt beam="2">  1       21 0.23838055E-01 0.41405029E+03</pdfrwt>
<totfact> 0.24472213E+03</totfact>
</mgrwt>
</event>
<event>
 4    1  0.4656822E-002  0.4768424E+03  0.7818608E-02  0.1020007E+00
         21   -1    0    0  501  502  0.00000000000E+00  0.00000000000E+00  0.22772333552E+03  0.22772333552E+03  0.00000000000E+00 0.  1.
         21   -1    0    0  502  503 -0.00000000000E+00 -0.00000000000E+00 -0.20876098656E+04  0.20876098656E+04  0.00000000000E+00 0.  1.
    9000007    1    1    2  501    0  0.25540746769E+03 -0.46321661707E+02 -0.93767885729E+02  0.48597436896E+03  0.40000000000E+03 0.  1.
   -9000007    1    1    2    0  503 -0.25540746769E+03  0.46321661707E+02 -0.17661186444E+04  0.18293588322E+04  0.40000000000E+03 0.  1.
<mgrwt>
<rscale>  2 0.47684240E+03</rscale>
<asrwt>0</asrwt>
<pdfrwt beam="1">  1       21 0.35034360E-01 0.47684240E+03</pdfrwt>
<pdfrwt beam="2">  1       21 0.32117074E+00 0.47684240E+03</pdfrwt>
<totfact> 0.15414460E+02</totfact>
</mgrwt>
</event>
<event>
 4    1  0.4656822E-002  0.4174835E+03  0.7818608E-02  0.1037888E+00
         21   -1    0    0  503  502  0.00000000000E+00  0.00000000000E+00  0.33540891274E+03  0.33540891274E+03  0.00000000000E+00 0.  1.
         21   -1    0    0  501  503 -0.00000000000E+00 -0.00000000000E+00 -0.81188826525E+03  0.81188826525E+03  0.00000000000E+00 0.  1.
    9000007    1    1    2  501    0 -0.29860257487E+02 -0.11576187206E+03 -0.58240929527E+03  0.71658428200E+03  0.40000000000E+03 0.  1.
   -9000007    1    1    2    0  502  0.29860257487E+02  0.11576187206E+03  0.10592994276E+03  0.43071289599E+03  0.40000000000E+03 0.  1.
<mgrwt>
<rscale>  2 0.41748347E+03</rscale>
<asrwt>0</asrwt>
<pdfrwt beam="1">  1       21 0.51601372E-01 0.41748347E+03</pdfrwt>
<pdfrwt beam="2">  1       21 0.12490589E+00 0.41748347E+03</pdfrwt>
<totfact> 0.14768566E+03</totfact>
</mgrwt>
</event>
<event>
 4    1  0.4656822E-002  0.5058497E+03  0.7818608E-02  0.1012263E+00
         21   -1    0    0  503  502  0.00000000000E+00  0.00000000000E+00  0.79275838514E+03  0.79275838514E+03  0.00000000000E+00 0. -1.
         21   -1    0    0  501  503 -0.00000000000E+00 -0.00000000000E+00 -0.33555264179E+03  0.33555264179E+03  0.00000000000E+00 0.  1.
    9000007    1    1    2  501    0 -0.59859696757E+02 -0.30381042815E+03  0.11852134315E+03  0.51954910098E+03  0.40000000000E+03 0.  1.
   -9000007    1    1    2    0  502  0.59859696757E+02  0.30381042815E+03  0.33868440021E+03  0.60876192595E+03  0.40000000000E+03 0. -1.
<mgrwt>
<rscale>  2 0.50584974E+03</rscale>
<asrwt>0</asrwt>
<pdfrwt beam="1">  1       21 0.12196283E+00 0.50584974E+03</pdfrwt>
<pdfrwt beam="2">  1       21 0.51623483E-01 0.50584974E+03</pdfrwt>
<totfact> 0.15155737E+03</totfact>
</mgrwt>
</event>
<event>
 4    1  0.4656822E-002  0.4522225E+03  0.7818608E-02  0.1027061E+00
         21   -1    0    0  503  502  0.00000000000E+00  0.00000000000E+00  0.11283218615E+03  0.11283218615E+03  0.00000000000E+00 0. -1.
         21   -1    0    0  501  503 -0.00000000000E+00 -0.00000000000E+00 -0.18230879401E+04  0.18230879401E+04  0.00000000000E+00 0. -1.
    9000007    1    1    2  501    0  0.37555847135E+02 -0.20759272720E+03 -0.78126399220E+03  0.90270626870E+03  0.40000000000E+03 0. -1.
   -9000007    1    1    2    0  502 -0.37555847135E+02  0.20759272720E+03 -0.92899176179E+03  0.10332138576E+04  0.40000000000E+03 0. -1.
<mgrwt>
<rscale>  2 0.45222249E+03</rscale>
<asrwt>0</asrwt>
<pdfrwt beam="1">  1       21 0.17358798E-01 0.45222249E+03</pdfrwt>
<pdfrwt beam="2">  1       21 0.28047507E+00 0.45222249E+03</pdfrwt>
<totfact> 0.10794658E+03</totfact>
</mgrwt>
</event>
<event>
 4    1  0.4656822E-002  0.4027994E+03  0.7818608E-02  0.1042815E+00
         21   -1    0    0  501  502  0.00000000000E+00  0.00000000000E+00  0.15696064989E+03  0.15696064989E+03  0.00000000000E+00 0.  1.
         21   -1    0    0  502  503 -0.00000000000E+00 -0.00000000000E+00 -0.13071977957E+04  0.13071977957E+04  0.00000000000E+00 0.  1.
    9000007    1    1    2  501    0  0.31554001420E+02  0.35379267105E+02 -0.24024652996E+03  0.46900505616E+03  0.40000000000E+03 0. -1.
   -9000007    1    1    2    0  503 -0.31554001420E+02 -0.35379267105E+02 -0.90999061580E+03  0.99515338938E+03  0.40000000000E+03 0. -1.
<mgrwt>
<rscale>  2 0.40279939E+03</rscale>
<asrwt>0</asrwt>
<pdfrwt beam="1">  1       21 0.24147793E-01 0.40279939E+03</pdfrwt>
<pdfrwt beam="2">  1       21 0.20110735E+00 0.40279939E+03</pdfrwt>
<totfact> 0.18425374E+03</totfact>
</mgrwt>
</event>
<event>
 4    1  0.4656822E-002  0.4228753E+03  0.7818608E-02  0.1036135E+00
         21   -1    0    0  501  502  0.00000000000E+00  0.00000000000E+00  0.28579945813E+03  0.28579945813E+03  0.00000000000E+00 0.  1.
         21   -1    0    0  502  503 -0.00000000000E+00 -0.00000000000E+00 -0.14959385931E+04  0.14959385931E+04  0.00000000000E+00 0.  1.
    9000007    1    1    2  501    0  0.76663360543E+02  0.11378156663E+03  0.74411245893E+02  0.42937227352E+03  0.40000000000E+03 0.  1.
   -9000007    1    1    2    0  503 -0.76663360543E+02 -0.11378156663E+03 -0.12845503808E+04  0.13523657777E+04  0.40000000000E+03 0.  1.
<mgrwt>
<rscale>  2 0.42287530E+03</rscale>
<asrwt>0</asrwt>
<pdfrwt beam="1">  1       21 0.43969148E-01 0.42287530E+03</pdfrwt>
<pdfrwt beam="2">  1       21 0.23014440E+00 0.42287530E+03</pdfrwt>
<totfact> 0.35670443E+02</totfact>
</mgrwt>
</event>
<event>
 4    1  0.4656822E-002  0.5186441E+03  0.7818608E-02  0.1009024E+00
         21   -1    0    0  503  502  0.00000000000E+00  0.00000000000E+00  0.29845559339E+03  0.29845559339E+03  0.00000000000E+00 0. -1.
         21   -1    0    0  501  503 -0.00000000000E+00 -0.00000000000E+00 -0.10882971910E+04  0.10882971910E+04  0.00000000000E+00 0. -1.
    9000007    1    1    2  501    0 -0.30587025060E+03 -0.12423796230E+03 -0.68235439153E+03  0.85708762511E+03  0.40000000000E+03 0. -1.
   -9000007    1    1    2    0  502  0.30587025060E+03  0.12423796230E+03 -0.10748720607E+03  0.52966515927E+03  0.40000000000E+03 0. -1.
<mgrwt>
<rscale>  2 0.51864408E+03</rscale>
<asrwt>0</asrwt>
<pdfrwt beam="1">  1       21 0.45916245E-01 0.51864408E+03</pdfrwt>
<pdfrwt beam="2">  1       21 0.16743034E+00 0.51864408E+03</pdfrwt>
<totfact> 0.82466456E+02</totfact>
</mgrwt>
</event>
<event>
 4    1  0.4656822E-002  0.5945316E+03  0.7818608E-02  0.9916817E-01
         21   -1    0    0  501  502  0.00000000000E+00  0.00000000000E+00  0.60937396854E+03  0.60937396854E+03  0.00000000000E+00 0.  1.
         21   -1    0    0  502  503 -0.00000000000E+00 -0.00000000000E+00 -0.93052738515E+03  0.93052738515E+03  0.00000000000E+00 0. -1.
    9000007    1    1    2  501    0  0.67404773254E+02 -0.43465434058E+03  0.31195166343E+03  0.67140274021E+03  0.40000000000E+03 0.  1.
   -9000007    1    1    2    0  503 -0.67404773254E+02  0.43465434058E+03 -0.63310508004E+03  0.86849861348E+03  0.40000000000E+03 0. -1.
<mgrwt>
<rscale>  2 0.59453158E+03</rscale>
<asrwt>0</asrwt>
<pdfrwt beam="1">  1       21 0.93749842E-01 0.59453158E+03</pdfrwt>
<pdfrwt beam="2">  1       21 0.14315806E+00 0.59453158E+03</pdfrwt>
<totfact> 0.24950802E+02</totfact>
</mgrwt>
</event>
<event>
 4    1  0.4656822E-002  0.4162184E+03  0.7818608E-02  0.1038304E+00
         21   -1    0    0  503  502  0.00000000000E+00  0.00000000000E+00  0.13185156522E+03  0.13185156522E+03  0.00000000000E+00 0. -1.
         21   -1    0    0  501  503 -0.00000000000E+00 -0.00000000000E+00 -0.15652922960E+04  0.15652922960E+04  0.00000000000E+00 0. -1.
    9000007    1    1    2  501    0 -0.69534553453E+02 -0.91666258139E+02 -0.10567996022E+04  0.11358094718E+04  0.40000000000E+03 0. -1.
   -9000007    1    1    2    0  502  0.69534553453E+02  0.91666258139E+02 -0.37664112858E+03  0.56133438942E+03  0.40000000000E+03 0. -1.
<mgrwt>
<rscale>  2 0.41621840E+03</rscale>
<asrwt>0</asrwt>
<pdfrwt beam="1">  1       21 0.20284856E-01 0.41621840E+03</pdfrwt>
<pdfrwt beam="2">  1       21 0.24081420E+00 0.41621840E+03</pdfrwt>
<totfact> 0.14279581E+03</totfact>
</mgrwt>
</event>
<event>
 4    1  0.4656822E-002  0.4305908E+03  0.7818608E-02  0.1033673E+00
         21   -1    0    0  503  502  0.00000000000E+00  0.00000000000E+00  0.12299381228E+04  0.12299381228E+04  0.00000000000E+00 0.  1.
         21   -1    0    0  501  503 -0.00000000000E+00 -0.00000000000E+00 -0.21166353130E+03  0.21166353130E+03  0.00000000000E+00 0.  1.
    9000007    1    1    2  501    0  0.88770174504E+02 -0.13239445993E+03  0.12244735910E+03  0.44766258795E+03  0.40000000000E+03 0.  1.
   -9000007    1    1    2    0  502 -0.88770174504E+02  0.13239445993E+03  0.89582723235E+03  0.99393906610E+03  0.40000000000E+03 0.  1.
<mgrwt>
<rscale>  2 0.43059080E+03</rscale>
<asrwt>0</asrwt>
<pdfrwt beam="1">  1       21 0.18922125E+00 0.43059080E+03</pdfrwt>
<pdfrwt beam="2">  1       21 0.32563621E-01 0.43059080E+03</pdfrwt>
<totfact> 0.12137045E+03</totfact>
</mgrwt>
</event>
<event>
 4    1  0.4656822E-002  0.4160134E+03  0.7818608E-02  0.1038372E+00
         21   -1    0    0  503  502  0.00000000000E+00  0.00000000000E+00  0.25140253953E+03  0.25140253953E+03  0.00000000000E+00 0. -1.
         21   -1    0    0  501  503 -0.00000000000E+00 -0.00000000000E+00 -0.74057258913E+03  0.74057258913E+03  0.00000000000E+00 0. -1.
    9000007    1    1    2  501    0 -0.10357383230E+03 -0.48369456791E+02 -0.11294707856E+03  0.43107329498E+03  0.40000000000E+03 0. -1.
   -9000007    1    1    2    0  502  0.10357383230E+03  0.48369456791E+02 -0.37622297104E+03  0.56090183368E+03  0.40000000000E+03 0. -1.
<mgrwt>
<rscale>  2 0.41601339E+03</rscale>
<asrwt>0</asrwt>
<pdfrwt beam="1">  1       21 0.38677314E-01 0.41601339E+03</pdfrwt>
<pdfrwt beam="2">  1       21 0.11393424E+00 0.41601339E+03</pdfrwt>
<totfact> 0.34057657E+03</totfact>
</mgrwt>
</event>
<event>
 4    1  0.4656822E-002  0.4452438E+03  0.7818608E-02  0.1029150E+00
         21   -1    0    0  501  502  0.00000000000E+00  0.00000000000E+00  0.37146862221E+03  0.37146862221E+03  0.00000000000E+00 0. -1.
         21   -1    0    0  502  503 -0.00000000000E+00 -0.00000000000E+00 -0.57688238223E+03  0.57688238223E+03  0.00000000000E+00 0. -1.
    9000007    1    1    2  501    0 -0.19438559670E+03  0.21361476016E+02 -0.23248276194E+03  0.50228508585E+03  0.40000000000E+03 0.  1.
   -9000007    1    1    2    0  503  0.19438559670E+03 -0.21361476016E+02  0.27069001923E+02  0.44606591859E+03  0.40000000000E+03 0.  1.
<mgrwt>
<rscale>  2 0.44524384E+03</rscale>
<asrwt>0</asrwt>
<pdfrwt beam="1">  1       21 0.57149019E-01 0.44524384E+03</pdfrwt>
<pdfrwt beam="2">  1       21 0.88751135E-01 0.44524384E+03</pdfrwt>
<totfact> 0.27146592E+03</totfact>
</mgrwt>
</event>
<event>
 4    1  0.4656822E-002  0.5041317E+03  0.7818608E-02  0.1012706E+00
         21   -1    0    0  501  502  0.00000000000E+00  0.00000000000E+00  0.36792250043E+03  0.36792250043E+03  0.00000000000E+00 0.  1.
         21   -1    0    0  502  503 -0.00000000000E+00 -0.00000000000E+00 -0.91419733766E+03  0.91419733766E+03  0.00000000000E+00 0. -1.
    9000007    1    1    2  501    0  0.83290562185E+02 -0.29531578019E+03 -0.59005745970E+03  0.77609054466E+03  0.40000000000E+03 0. -1.
   -9000007    1    1    2    0  503 -0.83290562185E+02  0.29531578019E+03  0.43782622468E+02  0.50602929343E+03  0.40000000000E+03 0.  1.
<mgrwt>
<rscale>  2 0.50413166E+03</rscale>
<asrwt>0</asrwt>
<pdfrwt beam="1">  1       21 0.56603462E-01 0.50413166E+03</pdfrwt>
<pdfrwt beam="2">  1       21 0.14064574E+00 0.50413166E+03</pdfrwt>
<totfact> 0.85661544E+02</totfact>
</mgrwt>
</event>
<event>
 4    1  0.4656822E-002  0.5735296E+03  0.7818608E-02  0.9961898E-01
         21   -1    0    0  503  502  0.00000000000E+00  0.00000000000E+00  0.77634031523E+03  0.77634031523E+03  0.00000000000E+00 0.  1.
         21   -1    0    0  501  503 -0.00000000000E+00 -0.00000000000E+00 -0.48050925365E+03  0.48050925365E+03  0.00000000000E+00 0.  1.
    9000007    1    1    2  501    0 -0.32355781600E+03  0.25346904150E+03 -0.68161156516E+02  0.57756571795E+03  0.40000000000E+03 0.  1.
   -9000007    1    1    2    0  502  0.32355781600E+03 -0.25346904150E+03  0.36399221810E+03  0.67928385093E+03  0.40000000000E+03 0.  1.
<mgrwt>
<rscale>  2 0.57352961E+03</rscale>
<asrwt>0</asrwt>
<pdfrwt beam="1">  1       21 0.11943697E+00 0.57352961E+03</pdfrwt>
<pdfrwt beam="2">  1       21 0.73924501E-01 0.57352961E+03</pdfrwt>
<totfact> 0.70603790E+02</totfact>
</mgrwt>
</event>
<event>
 4    1  0.4656822E-002  0.4598625E+03  0.7818608E-02  0.1024821E+00
         21   -1    0    0  503  502  0.00000000000E+00  0.00000000000E+00  0.26050542589E+03  0.26050542589E+03  0.00000000000E+00 0. -1.
         21   -1    0    0  501  503 -0.00000000000E+00 -0.00000000000E+00 -0.85219825926E+03  0.85219825926E+03  0.00000000000E+00 0. -1.
    9000007    1    1    2  501    0  0.29035195334E+02  0.22501208825E+03 -0.17468620756E+03  0.49192352407E+03  0.40000000000E+03 0.  1.
   -9000007    1    1    2    0  502 -0.29035195334E+02 -0.22501208825E+03 -0.41700662581E+03  0.62078016108E+03  0.40000000000E+03 0.  1.
<mgrwt>
<rscale>  2 0.45986246E+03</rscale>
<asrwt>0</asrwt>
<pdfrwt beam="1">  1       21 0.40077758E-01 0.45986246E+03</pdfrwt>
<pdfrwt beam="2">  1       21 0.13110742E+00 0.45986246E+03</pdfrwt>
<totfact> 0.21765565E+03</totfact>
</mgrwt>
</event>
<event>
 4    1  0.4656822E-002  0.4874326E+03  0.7818608E-02  0.1017112E+00
         21   -1    0    0  503  502  0.00000000000E+00  0.00000000000E+00  0.11468013159E+04  0.11468013159E+04  0.00000000000E+00 0.  1.
         21   -1    0    0  501  503 -0.00000000000E+00 -0.00000000000E+00 -0.20790180128E+03  0.20790180128E+03  0.00000000000E+00 0.  1.
    9000007    1    1    2  501    0 -0.25682626216E+03 -0.10784622607E+03  0.50945139334E+03  0.70507535738E+03  0.40000000000E+03 0.  1.
   -9000007    1    1    2    0  502  0.25682626216E+03  0.10784622607E+03  0.42944812125E+03  0.64962775977E+03  0.40000000000E+03 0.  1.
<mgrwt>
<rscale>  2 0.48743260E+03</rscale>
<asrwt>0</asrwt>
<pdfrwt beam="1">  1       21 0.17643097E+00 0.48743260E+03</pdfrwt>
<pdfrwt beam="2">  1       21 0.31984893E-01 0.48743260E+03</pdfrwt>
<totfact> 0.15088324E+03</totfact>
</mgrwt>
</event>
<event>
 4    1  0.4656822E-002  0.5132201E+03  0.7818608E-02  0.1010385E+00
         21   -1    0    0  501  502  0.00000000000E+00  0.00000000000E+00  0.69793857484E+03  0.69793857484E+03  0.00000000000E+00 0.  1.
         21   -1    0    0  502  503 -0.00000000000E+00 -0.00000000000E+00 -0.86495925963E+03  0.86495925963E+03  0.00000000000E+00 0.  1.
    9000007    1    1    2  501    0  0.26127760012E+03 -0.18742715108E+03  0.50319629411E+03  0.71874990900E+03  0.40000000000E+03 0.  1.
   -9000007    1    1    2    0  503 -0.26127760012E+03  0.18742715108E+03 -0.67021697889E+03  0.84414792547E+03  0.40000000000E+03 0.  1.
<mgrwt>
<rscale>  2 0.51322015E+03</rscale>
<asrwt>0</asrwt>
<pdfrwt beam="1">  1       21 0.10737517E+00 0.51322015E+03</pdfrwt>
<pdfrwt beam="2">  1       21 0.13307065E+00 0.51322015E+03</pdfrwt>
<totfact> 0.22470317E+02</totfact>
</mgrwt>
</event>
<event>
 4    1  0.4656822E-002  0.4918698E+03  0.7818608E-02  0.1015923E+00
         21   -1    0    0  503  502  0.00000000000E+00  0.00000000000E+00  0.23028709782E+04  0.23028709782E+04  0.00000000000E+00 0. -1.
         21   -1    0    0  501  503 -0.00000000000E+00 -0.00000000000E+00 -0.10945693170E+03  0.10945693170E+03  0.00000000000E+00 0. -1.
    9000007    1    1    2  501    0  0.54530399001E+02  0.28100240734E+03  0.13384974312E+04  0.14260123739E+04  0.40000000000E+03 0. -1.
   -9000007    1    1    2    0  502 -0.54530399001E+02 -0.28100240734E+03  0.85491661536E+03  0.98631553600E+03  0.40000000000E+03 0. -1.
<mgrwt>
<rscale>  2 0.49186982E+03</rscale>
<asrwt>0</asrwt>
<pdfrwt beam="1">  1       21 0.35428781E+00 0.49186982E+03</pdfrwt>
<pdfrwt beam="2">  1       21 0.16839530E-01 0.49186982E+03</pdfrwt>
<totfact> 0.39894778E+02</totfact>
</mgrwt>
</event>
<event>
 4    1  0.4656822E-002  0.4047176E+03  0.7818608E-02  0.1042158E+00
         21   -1    0    0  501  502  0.00000000000E+00  0.00000000000E+00  0.26204219762E+03  0.26204219762E+03  0.00000000000E+00 0.  1.
         21   -1    0    0  502  503 -0.00000000000E+00 -0.00000000000E+00 -0.62508206449E+03  0.62508206449E+03  0.00000000000E+00 0.  1.
    9000007    1    1    2  501    0  0.26307295926E+02 -0.55716109618E+02 -0.18016909083E+03  0.44300932268E+03  0.40000000000E+03 0.  1.
   -9000007    1    1    2    0  503 -0.26307295926E+02  0.55716109618E+02 -0.18287077604E+03  0.44411493942E+03  0.40000000000E+03 0.  1.
<mgrwt>
<rscale>  2 0.40471763E+03</rscale>
<asrwt>0</asrwt>
<pdfrwt beam="1">  1       21 0.40314184E-01 0.40471763E+03</pdfrwt>
<pdfrwt beam="2">  1       21 0.96166472E-01 0.40471763E+03</pdfrwt>
<totfact> 0.47587133E+03</totfact>
</mgrwt>
</event>
<event>
 4    1  0.4656822E-002  0.4005156E+03  0.7818608E-02  0.1043601E+00
         21   -1    0    0  501  502  0.00000000000E+00  0.00000000000E+00  0.22437664314E+03  0.22437664314E+03  0.00000000000E+00 0. -1.
         21   -1    0    0  502  503 -0.00000000000E+00 -0.00000000000E+00 -0.18697205863E+04  0.18697205863E+04  0.00000000000E+00 0. -1.
    9000007    1    1    2  501    0  0.19827237381E+02 -0.44286754489E+01  0.19727324595E+00  0.40051563194E+03  0.40000000000E+03 0. -1.
   -9000007    1    1    2    0  503 -0.19827237381E+02  0.44286754489E+01 -0.16455412164E+04  0.16935815975E+04  0.40000000000E+03 0. -1.
<mgrwt>
<rscale>  2 0.40051558E+03</rscale>
<asrwt>0</asrwt>
<pdfrwt beam="1">  1       21 0.34519485E-01 0.40051558E+03</pdfrwt>
<pdfrwt beam="2">  1       21 0.28764931E+00 0.40051558E+03</pdfrwt>
<totfact> 0.26511894E+02</totfact>
</mgrwt>
</event>
<event>
 4    1  0.4656822E-002  0.5556908E+03  0.7818608E-02  0.1000185E+00
         21   -1    0    0  503  502  0.00000000000E+00  0.00000000000E+00  0.29055305570E+03  0.29055305570E+03  0.00000000000E+00 0. -1.
         21   -1    0    0  501  503 -0.00000000000E+00 -0.00000000000E+00 -0.10647859339E+04  0.10647859339E+04  0.00000000000E+00 0.  1.
    9000007    1    1    2  501    0  0.19845099305E+03 -0.33077107618E+03 -0.41657206639E+03  0.69449592366E+03  0.40000000000E+03 0.  1.
   -9000007    1    1    2    0  502 -0.19845099305E+03  0.33077107618E+03 -0.35766081176E+03  0.66084306590E+03  0.40000000000E+03 0.  1.
<mgrwt>
<rscale>  2 0.55569083E+03</rscale>
<asrwt>0</asrwt>
<pdfrwt beam="1">  1       21 0.44700471E-01 0.55569083E+03</pdfrwt>
<pdfrwt beam="2">  1       21 0.16381322E+00 0.55569083E+03</pdfrwt>
<totfact> 0.91588552E+02</totfact>
</mgrwt>
</event>
<event>
 4    1  0.4656822E-002  0.4596566E+03  0.7818608E-02  0.1024881E+00
         21   -1    0    0  503  502  0.00000000000E+00  0.00000000000E+00  0.68486091545E+03  0.68486091545E+03  0.00000000000E+00 0.  1.
         21   -1    0    0  501  503 -0.00000000000E+00 -0.00000000000E+00 -0.36355614508E+03  0.36355614508E+03  0.00000000000E+00 0.  1.
    9000007    1    1    2  501    0 -0.15599812016E+03 -0.16416084153E+03 -0.43330968948E+02  0.46169445335E+03  0.40000000000E+03 0.  1.
   -9000007    1    1    2    0  502  0.15599812016E+03  0.16416084153E+03  0.36463573933E+03  0.58672260718E+03  0.40000000000E+03 0.  1.
<mgrwt>
<rscale>  2 0.45965661E+03</rscale>
<asrwt>0</asrwt>
<pdfrwt beam="1">  1       21 0.10536322E+00 0.45965661E+03</pdfrwt>
<pdfrwt beam="2">  1       21 0.55931715E-01 0.45965661E+03</pdfrwt>
<totfact> 0.18709397E+03</totfact>
</mgrwt>
</event>
<event>
 4    1  0.4656822E-002  0.5428610E+03  0.7818608E-02  0.1003160E+00
         21   -1    0    0  501  502  0.00000000000E+00  0.00000000000E+00  0.20609309443E+03  0.20609309443E+03  0.00000000000E+00 0.  1.
         21   -1    0    0  502  503 -0.00000000000E+00 -0.00000000000E+00 -0.14313062222E+04  0.14313062222E+04  0.00000000000E+00 0. -1.
    9000007    1    1    2  501    0  0.36435263781E+03 -0.44104343669E+02 -0.58719052549E+03  0.79968165606E+03  0.40000000000E+03 0.  1.
   -9000007    1    1    2    0  503 -0.36435263781E+03  0.44104343669E+02 -0.63802260226E+03  0.83771766056E+03  0.40000000000E+03 0. -1.
<mgrwt>
<rscale>  2 0.54286097E+03</rscale>
<asrwt>0</asrwt>
<pdfrwt beam="1">  1       21 0.31706629E-01 0.54286097E+03</pdfrwt>
<pdfrwt beam="2">  1       21 0.22020096E+00 0.54286097E+03</pdfrwt>
<totfact> 0.76061510E+02</totfact>
</mgrwt>
</event>
<event>
 4    1  0.4656822E-002  0.4070849E+03  0.7818608E-02  0.1041354E+00
         21   -1    0    0  501  502  0.00000000000E+00  0.00000000000E+00  0.14327648980E+04  0.14327648980E+04  0.00000000000E+00 0. -1.
         21   -1    0    0  502  503 -0.00000000000E+00 -0.00000000000E+00 -0.11435734754E+04  0.11435734754E+04  0.00000000000E+00 0. -1.
    9000007    1    1    2  501    0 -0.57552835093E+02 -0.49048880196E+02  0.13658848113E+04  0.14252576747E+04  0.40000000000E+03 0. -1.
   -9000007    1    1    2    0  503  0.57552835093E+02  0.49048880196E+02 -0.10766933887E+04  0.11510806987E+04  0.40000000000E+03 0. -1.
<mgrwt>
<rscale>  2 0.40708491E+03</rscale>
<asrwt>0</asrwt>
<pdfrwt beam="1">  1       21 0.22042537E+00 0.40708491E+03</pdfrwt>
<pdfrwt beam="2">  1       21 0.17593438E+00 0.40708491E+03</pdfrwt>
<totfact> 0.15060027E+01</totfact>
</mgrwt>
</event>
<event>
 4    1  0.4656822E-002  0.4108486E+03  0.7818608E-02  0.1040087E+00
         21   -1    0    0  501  502  0.00000000000E+00  0.00000000000E+00  0.23785690751E+03  0.23785690751E+03  0.00000000000E+00 0. -1.
         21   -1    0    0  502  503 -0.00000000000E+00 -0.00000000000E+00 -0.70971296133E+03  0.70971296133E+03  0.00000000000E+00 0.  1.
    9000007    1    1    2  501    0 -0.68067680616E+02  0.64524099874E+02 -0.23168146607E+03  0.47167029833E+03  0.40000000000E+03 0. -1.
   -9000007    1    1    2    0  503  0.68067680616E+02 -0.64524099874E+02 -0.24017458775E+03  0.47589957051E+03  0.40000000000E+03 0.  1.
<mgrwt>
<rscale>  2 0.41084860E+03</rscale>
<asrwt>0</asrwt>
<pdfrwt beam="1">  1       21 0.36593371E-01 0.41084860E+03</pdfrwt>
<pdfrwt beam="2">  1       21 0.10918661E+00 0.41084860E+03</pdfrwt>
<totfact> 0.42459329E+03</totfact>
</mgrwt>
</event>
<event>
 4    1  0.4656822E-002  0.4832478E+03  0.7818608E-02  0.1018246E+00
         21   -1    0    0  501  502  0.00000000000E+00  0.00000000000E+00  0.13392882614E+04  0.13392882614E+04  0.00000000000E+00 0. -1.
         21   -1    0    0  502  503 -0.00000000000E+00 -0.00000000000E+00 -0.41459113995E+03  0.41459113995E+03  0.00000000000E+00 0. -1.
    9000007    1    1    2  501    0 -0.27019564233E+03  0.22863858238E+02  0.11298735536E+04  0.12288786304E+04  0.40000000000E+03 0. -1.
   -9000007    1    1    2    0  503  0.27019564233E+03 -0.22863858238E+02 -0.20517643217E+03  0.52500077092E+03  0.40000000000E+03 0. -1.
<mgrwt>
<rscale>  2 0.48324781E+03</rscale>
<asrwt>0</asrwt>
<pdfrwt beam="1">  1       21 0.20604435E+00 0.48324781E+03</pdfrwt>
<pdfrwt beam="2">  1       21 0.63783253E-01 0.48324781E+03</pdfrwt>
<totfact> 0.22187840E+02</totfact>
</mgrwt>
</event>
<event>
 4    1  0.4656822E-002  0.6311999E+03  0.7818608E-02  0.9842710E-01
         21   -1    0    0  501  502  0.00000000000E+00  0.00000000000E+00  0.59218699206E+03  0.59218699206E+03  0.00000000000E+00 0.  1.
         21   -1    0    0  502  503 -0.00000000000E+00 -0.00000000000E+00 -0.83371519093E+03  0.83371519093E+03  0.00000000000E+00 0. -1.
    9000007    1    1    2  501    0  0.43724658594E+03 -0.21732161659E+03  0.19247251626E+03  0.65989312125E+03  0.40000000000E+03 0.  1.
   -9000007    1    1    2    0  503 -0.43724658594E+03  0.21732161659E+03 -0.43400071512E+03  0.76600906175E+03  0.40000000000E+03 0. -1.
<mgrwt>
<rscale>  2 0.63119986E+03</rscale>
<asrwt>0</asrwt>
<pdfrwt beam="1">  1       21 0.91105691E-01 0.63119986E+03</pdfrwt>
<pdfrwt beam="2">  1       21 0.12826388E+00 0.63119986E+03</pdfrwt>
<totfact> 0.35326027E+02</totfact>
</mgrwt>
</event>
<event>
 4    1  0.4656822E-002  0.4492793E+03  0.7818608E-02  0.1027937E+00
         21   -1    0    0  503  502  0.00000000000E+00  0.00000000000E+00  0.21502620426E+04  0.21502620426E+04  0.00000000000E+00 0.  1.
         21   -1    0    0  501  503 -0.00000000000E+00 -0.00000000000E+00 -0.94944639693E+02  0.94944639693E+02  0.00000000000E+00 0.  1.
    9000007    1    1    2  501    0 -0.16429350428E+03 -0.12189950589E+03  0.90840068781E+03  0.10134316231E+04  0.40000000000E+03 0.  1.
   -9000007    1    1    2    0  502  0.16429350428E+03  0.12189950589E+03  0.11469167151E+04  0.12317750592E+04  0.40000000000E+03 0.  1.
<mgrwt>
<rscale>  2 0.44927925E+03</rscale>
<asrwt>0</asrwt>
<pdfrwt beam="1">  1       21 0.33080951E+00 0.44927925E+03</pdfrwt>
<pdfrwt beam="2">  1       21 0.14606869E-01 0.44927925E+03</pdfrwt>
<totfact> 0.74190194E+02</totfact>
</mgrwt>
</event>
<event>
 4    1  0.4656822E-002  0.4163160E+03  0.7818608E-02  0.1038272E+00
         21   -1    0    0  503  502  0.00000000000E+00  0.00000000000E+00  0.22322193943E+03  0.22322193943E+03  0.00000000000E+00 0. -1.
         21   -1    0    0  501  503 -0.00000000000E+00 -0.00000000000E+00 -0.15396294536E+04  0.15396294536E+04  0.00000000000E+00 0. -1.
    9000007    1    1    2  501    0  0.11142842453E+02 -0.11486875820E+03 -0.12787770465E+04  0.13448381795E+04  0.40000000000E+03 0. -1.
   -9000007    1    1    2    0  502 -0.11142842453E+02  0.11486875820E+03 -0.37630467690E+02  0.41801321348E+03  0.40000000000E+03 0. -1.
<mgrwt>
<rscale>  2 0.41631598E+03</rscale>
<asrwt>0</asrwt>
<pdfrwt beam="1">  1       21 0.34341837E-01 0.41631598E+03</pdfrwt>
<pdfrwt beam="2">  1       21 0.23686607E+00 0.41631598E+03</pdfrwt>
<totfact> 0.53933201E+02</totfact>
</mgrwt>
</event>
<event>
 4    1  0.4656822E-002  0.5767604E+03  0.7818608E-02  0.9954829E-01
         21   -1    0    0  501  502  0.00000000000E+00  0.00000000000E+00  0.27377799497E+03  0.27377799497E+03  0.00000000000E+00 0. -1.
         21   -1    0    0  502  503 -0.00000000000E+00 -0.00000000000E+00 -0.13266306232E+04  0.13266306232E+04  0.00000000000E+00 0. -1.
    9000007    1    1    2  501    0  0.33058452412E+03 -0.25172698268E+03 -0.29435050462E+03  0.64752978385E+03  0.40000000000E+03 0. -1.
   -9000007    1    1    2    0  503 -0.33058452412E+03  0.25172698268E+03 -0.75850212359E+03  0.95287883432E+03  0.40000000000E+03 0. -1.
<mgrwt>
<rscale>  2 0.57676044E+03</rscale>
<asrwt>0</asrwt>
<pdfrwt beam="1">  1       21 0.42119692E-01 0.57676044E+03</pdfrwt>
<pdfrwt beam="2">  1       21 0.20409702E+00 0.57676044E+03</pdfrwt>
<totfact> 0.53552267E+02</totfact>
</mgrwt>
</event>
<event>
 4    1  0.4656822E-002  0.4741915E+03  0.7818608E-02  0.1020744E+00
         21   -1    0    0  501  502  0.00000000000E+00  0.00000000000E+00  0.77549766686E+03  0.77549766686E+03  0.00000000000E+00 0. -1.
         21   -1    0    0  502  503 -0.00000000000E+00 -0.00000000000E+00 -0.69820664278E+03  0.69820664278E+03  0.00000000000E+00 0. -1.
    9000007    1    1    2  501    0  0.22884161719E+03  0.11175441610E+03  0.60209324648E+03  0.76640316592E+03  0.40000000000E+03 0. -1.
   -9000007    1    1    2    0  503 -0.22884161719E+03 -0.11175441610E+03 -0.52480222240E+03  0.70730114373E+03  0.40000000000E+03 0. -1.
<mgrwt>
<rscale>  2 0.47419145E+03</rscale>
<asrwt>0</asrwt>
<pdfrwt beam="1">  1       21 0.11930733E+00 0.47419145E+03</pdfrwt>
<pdfrwt beam="2">  1       21 0.10741641E+00 0.47419145E+03</pdfrwt>
<totfact> 0.30286312E+02</totfact>
</mgrwt>
</event>
<event>
 4    1  0.4656822E-002  0.6936900E+03  0.7818608E-02  0.9728084E-01
         21   -1    0    0  503  502  0.00000000000E+00  0.00000000000E+00  0.20245407596E+04  0.20245407596E+04  0.00000000000E+00 0.  1.
         21   -1    0    0  501  503 -0.00000000000E+00 -0.00000000000E+00 -0.64918684774E+03  0.64918684774E+03  0.00000000000E+00 0. -1.
    9000007    1    1    2  501    0  0.52656946036E+03  0.20959571993E+03 -0.37668042328E+03  0.78936297334E+03  0.40000000000E+03 0. -1.
   -9000007    1    1    2    0  502 -0.52656946036E+03 -0.20959571993E+03  0.17520343351E+04  0.18843646340E+04  0.40000000000E+03 0.  1.
<mgrwt>
<rscale>  2 0.69368996E+03</rscale>
<asrwt>0</asrwt>
<pdfrwt beam="1">  1       21 0.31146781E+00 0.69368996E+03</pdfrwt>
<pdfrwt beam="2">  1       21 0.99874900E-01 0.69368996E+03</pdfrwt>
<totfact> 0.15558453E+01</totfact>
</mgrwt>
</event>
<event>
 4    1  0.4656822E-002  0.4551805E+03  0.7818608E-02  0.1026188E+00
         21   -1    0    0  501  502  0.00000000000E+00  0.00000000000E+00  0.85806539601E+03  0.85806539601E+03  0.00000000000E+00 0. -1.
         21   -1    0    0  502  503 -0.00000000000E+00 -0.00000000000E+00 -0.34821709922E+03  0.34821709922E+03  0.00000000000E+00 0. -1.
    9000007    1    1    2  501    0  0.28503432182E+02  0.21535293669E+03  0.58888097167E+03  0.74429169805E+03  0.40000000000E+03 0. -1.
   -9000007    1    1    2    0  503 -0.28503432182E+02 -0.21535293669E+03 -0.79032674881E+02  0.46199079719E+03  0.40000000000E+03 0. -1.
<mgrwt>
<rscale>  2 0.45518055E+03</rscale>
<asrwt>0</asrwt>
<pdfrwt beam="1">  1       21 0.13201006E+00 0.45518055E+03</pdfrwt>
<pdfrwt beam="2">  1       21 0.53571862E-01 0.45518055E+03</pdfrwt>
<totfact> 0.11628207E+03</totfact>
</mgrwt>
</event>
<event>
 4    1  0.4656822E-002  0.4440054E+03  0.7818608E-02  0.1029525E+00
         21   -1    0    0  501  502  0.00000000000E+00  0.00000000000E+00  0.47247883199E+03  0.47247883199E+03  0.00000000000E+00 0. -1.
         21   -1    0    0  502  503 -0.00000000000E+00 -0.00000000000E+00 -0.41736936277E+03  0.41736936277E+03  0.00000000000E+00 0. -1.
    9000007    1    1    2  501    0  0.12337125537E+03 -0.14805527138E+03  0.35142873078E+02  0.44539404078E+03  0.40000000000E+03 0. -1.
   -9000007    1    1    2    0  503 -0.12337125537E+03  0.14805527138E+03  0.19966596143E+02  0.44445415399E+03  0.40000000000E+03 0. -1.
<mgrwt>
<rscale>  2 0.44400544E+03</rscale>
<asrwt>0</asrwt>
<pdfrwt beam="1">  1       21 0.72689051E-01 0.44400544E+03</pdfrwt>
<pdfrwt beam="2">  1       21 0.64210671E-01 0.44400544E+03</pdfrwt>
<totfact> 0.33368847E+03</totfact>
</mgrwt>
</event>
<event>
 4    1  0.4656822E-002  0.7049200E+03  0.7818608E-02  0.9708855E-01
         21   -1    0    0  501  502  0.00000000000E+00  0.00000000000E+00  0.56926654481E+03  0.56926654481E+03  0.00000000000E+00 0.  1.
         21   -1    0    0  502  503 -0.00000000000E+00 -0.00000000000E+00 -0.11028396056E+04  0.11028396056E+04  0.00000000000E+00 0. -1.
    9000007    1    1    2  501    0 -0.48017108601E+03  0.32611041782E+03  0.11496903430E+03  0.71423396398E+03  0.40000000000E+03 0.  1.
   -9000007    1    1    2    0  503  0.48017108601E+03 -0.32611041782E+03 -0.64854209513E+03  0.95787218646E+03  0.40000000000E+03 0. -1.
<mgrwt>
<rscale>  2 0.70492005E+03</rscale>
<asrwt>0</asrwt>
<pdfrwt beam="1">  1       21 0.87579470E-01 0.70492005E+03</pdfrwt>
<pdfrwt beam="2">  1       21 0.16966763E+00 0.70492005E+03</pdfrwt>
<totfact> 0.17596352E+02</totfact>
</mgrwt>
</event>
<event>
 4    1  0.4656822E-002  0.4282752E+03  0.7818608E-02  0.1034406E+00
         21   -1    0    0  501  502  0.00000000000E+00  0.00000000000E+00  0.11990200091E+03  0.11990200091E+03  0.00000000000E+00 0. -1.
         21   -1    0    0  502  503 -0.00000000000E+00 -0.00000000000E+00 -0.25754791231E+04  0.25754791231E+04  0.00000000000E+00 0. -1.
    9000007    1    1    2  501    0  0.18977650199E+02 -0.15185360141E+03 -0.36902917621E+03  0.56533370708E+03  0.40000000000E+03 0. -1.
   -9000007    1    1    2    0  503 -0.18977650199E+02  0.15185360141E+03 -0.20865479460E+04  0.21300474169E+04  0.40000000000E+03 0. -1.
<mgrwt>
<rscale>  2 0.42827522E+03</rscale>
<asrwt>0</asrwt>
<pdfrwt beam="1">  1       21 0.18446461E-01 0.42827522E+03</pdfrwt>
<pdfrwt beam="2">  1       21 0.39622756E+00 0.42827522E+03</pdfrwt>
<totfact> 0.19097488E+02</totfact>
</mgrwt>
</event>
<event>
 4    1  0.4656822E-002  0.4839894E+03  0.7818608E-02  0.1018044E+00
         21   -1    0    0  503  502  0.00000000000E+00  0.00000000000E+00  0.11413957710E+04  0.11413957710E+04  0.00000000000E+00 0.  1.
         21   -1    0    0  501  503 -0.00000000000E+00 -0.00000000000E+00 -0.21223354174E+03  0.21223354174E+03  0.00000000000E+00 0. -1.
    9000007    1    1    2  501    0 -0.77635887128E+02 -0.26118655672E+03  0.34161073277E+03  0.59240496379E+03  0.40000000000E+03 0. -1.
   -9000007    1    1    2    0  502  0.77635887128E+02  0.26118655672E+03  0.58755149647E+03  0.76122434892E+03  0.40000000000E+03 0.  1.
<mgrwt>
<rscale>  2 0.48398941E+03</rscale>
<asrwt>0</asrwt>
<pdfrwt beam="1">  1       21 0.17559935E+00 0.48398941E+03</pdfrwt>
<pdfrwt beam="2">  1       21 0.32651315E-01 0.48398941E+03</pdfrwt>
<totfact> 0.14696564E+03</totfact>
</mgrwt>
</event>
<event>
 4    1  0.4656822E-002  0.5683800E+03  0.7818608E-02  0.9973270E-01
         21   -1    0    0  501  502  0.00000000000E+00  0.00000000000E+00  0.38204003832E+03  0.38204003832E+03  0.00000000000E+00 0.  1.
         21   -1    0    0  502  503 -0.00000000000E+00 -0.00000000000E+00 -0.86515494185E+03  0.86515494185E+03  0.00000000000E+00 0.  1.
    9000007    1    1    2  501    0 -0.74186640145E+02 -0.39692845247E+03 -0.14782189848E+03  0.58728797674E+03  0.40000000000E+03 0.  1.
   -9000007    1    1    2    0  503  0.74186640145E+02  0.39692845247E+03 -0.33529300505E+03  0.65990700344E+03  0.40000000000E+03 0.  1.
<mgrwt>
<rscale>  2 0.56838003E+03</rscale>
<asrwt>0</asrwt>
<pdfrwt beam="1">  1       21 0.58775391E-01 0.56838003E+03</pdfrwt>
<pdfrwt beam="2">  1       21 0.13310076E+00 0.56838003E+03</pdfrwt>
<totfact> 0.89254311E+02</totfact>
</mgrwt>
</event>
<event>
 4    1  0.4656822E-002  0.8248490E+03  0.7818608E-02  0.9524730E-01
         21   -1    0    0  503  502  0.00000000000E+00  0.00000000000E+00  0.12518371568E+04  0.12518371568E+04  0.00000000000E+00 0. -1.
         21   -1    0    0  501  503 -0.00000000000E+00 -0.00000000000E+00 -0.63295579079E+03  0.63295579079E+03  0.00000000000E+00 0.  1.
    9000007    1    1    2  501    0 -0.68070697594E+03  0.23877578120E+03 -0.44839291917E+02  0.82606683923E+03  0.40000000000E+03 0.  1.
   -9000007    1    1    2    0  502  0.68070697594E+03 -0.23877578120E+03  0.66372065796E+03  0.10587261084E+04  0.40000000000E+03 0. -1.
<mgrwt>
<rscale>  2 0.82484899E+03</rscale>
<asrwt>0</asrwt>
<pdfrwt beam="1">  1       21 0.19259033E+00 0.82484899E+03</pdfrwt>
<pdfrwt beam="2">  1       21 0.97377814E-01 0.82484899E+03</pdfrwt>
<totfact> 0.89950136E+01</totfact>
</mgrwt>
</event>
<event>
 4    1  0.4656822E-002  0.4017023E+03  0.7818608E-02  0.1043192E+00
         21   -1    0    0  503  502  0.00000000000E+00  0.00000000000E+00  0.12577302426E+04  0.12577302426E+04  0.00000000000E+00 0. -1.
         21   -1    0    0  501  503 -0.00000000000E+00 -0.00000000000E+00 -0.13755103066E+03  0.13755103066E+03  0.00000000000E+00 0. -1.
    9000007    1    1    2  501    0  0.26244416715E+02  0.25999949665E+02  0.37915040698E+03  0.55237650013E+03  0.40000000000E+03 0.  1.
   -9000007    1    1    2    0  502 -0.26244416715E+02 -0.25999949665E+02  0.74102880501E+03  0.84290477317E+03  0.40000000000E+03 0.  1.
<mgrwt>
<rscale>  2 0.40170234E+03</rscale>
<asrwt>0</asrwt>
<pdfrwt beam="1">  1       21 0.19349695E+00 0.40170234E+03</pdfrwt>
<pdfrwt beam="2">  1       21 0.21161698E-01 0.40170234E+03</pdfrwt>
<totfact> 0.26712022E+03</totfact>
</mgrwt>
</event>
<event>
 4    1  0.4656822E-002  0.4040929E+03  0.7818608E-02  0.1042372E+00
         21   -1    0    0  503  502  0.00000000000E+00  0.00000000000E+00  0.11573072894E+04  0.11573072894E+04  0.00000000000E+00 0. -1.
         21   -1    0    0  501  503 -0.00000000000E+00 -0.00000000000E+00 -0.23915943433E+03  0.23915943433E+03  0.00000000000E+00 0. -1.
    9000007    1    1    2  501    0  0.23506025216E+02 -0.52330898903E+02  0.11967307489E+02  0.40427004916E+03  0.40000000000E+03 0. -1.
   -9000007    1    1    2    0  502 -0.23506025216E+02  0.52330898903E+02  0.90618054763E+03  0.99219667461E+03  0.40000000000E+03 0. -1.
<mgrwt>
<rscale>  2 0.40409288E+03</rscale>
<asrwt>0</asrwt>
<pdfrwt beam="1">  1       21 0.17804727E+00 0.40409288E+03</pdfrwt>
<pdfrwt beam="2">  1       21 0.36793760E-01 0.40409288E+03</pdfrwt>
<totfact> 0.11487283E+03</totfact>
</mgrwt>
</event>
<event>
 4    1  0.4656822E-002  0.4494273E+03  0.7818608E-02  0.1027893E+00
         21   -1    0    0  501  502  0.00000000000E+00  0.00000000000E+00  0.66852444510E+03  0.66852444510E+03  0.00000000000E+00 0. -1.
         21   -1    0    0  502  503 -0.00000000000E+00 -0.00000000000E+00 -0.10563359198E+04  0.10563359198E+04  0.00000000000E+00 0.  1.
    9000007    1    1    2  501    0  0.94308361240E+01 -0.20468497629E+03  0.53482375416E+03  0.69858523331E+03  0.40000000000E+03 0. -1.
   -9000007    1    1    2    0  503 -0.94308361240E+01  0.20468497629E+03 -0.92263522888E+03  0.10262751316E+04  0.40000000000E+03 0.  1.
<mgrwt>
<rscale>  2 0.44942728E+03</rscale>
<asrwt>0</asrwt>
<pdfrwt beam="1">  1       21 0.10284991E+00 0.44942728E+03</pdfrwt>
<pdfrwt beam="2">  1       21 0.16251322E+00 0.44942728E+03</pdfrwt>
<totfact> 0.14997520E+02</totfact>
</mgrwt>
</event>
<event>
 4    1  0.4656822E-002  0.6182297E+03  0.7818608E-02  0.9868291E-01
         21   -1    0    0  503  502  0.00000000000E+00  0.00000000000E+00  0.66433254126E+03  0.66433254126E+03  0.00000000000E+00 0. -1.
         21   -1    0    0  501  503 -0.00000000000E+00 -0.00000000000E+00 -0.58213317562E+03  0.58213317562E+03  0.00000000000E+00 0.  1.
    9000007    1    1    2  501    0  0.43763200957E+03  0.17517463884E+03 -0.26293446342E+02  0.61878855453E+03  0.40000000000E+03 0.  1.
   -9000007    1    1    2    0  502 -0.43763200957E+03 -0.17517463884E+03  0.10849281198E+03  0.62767716236E+03  0.40000000000E+03 0. -1.
<mgrwt>
<rscale>  2 0.61822967E+03</rscale>
<asrwt>0</asrwt>
<pdfrwt beam="1">  1       21 0.10220501E+00 0.61822967E+03</pdfrwt>
<pdfrwt beam="2">  1       21 0.89558950E-01 0.61822967E+03</pdfrwt>
<totfact> 0.65690992E+02</totfact>
</mgrwt>
</event>
<event>
 4    1  0.4656822E-002  0.6979918E+03  0.7818608E-02  0.9720673E-01
         21   -1    0    0  503  502  0.00000000000E+00  0.00000000000E+00  0.44785787957E+03  0.44785787957E+03  0.00000000000E+00 0.  1.
         21   -1    0    0  501  503 -0.00000000000E+00 -0.00000000000E+00 -0.13548373162E+04  0.13548373162E+04  0.00000000000E+00 0. -1.
    9000007    1    1    2  501    0 -0.31863898991E+03 -0.47503869488E+03 -0.53350124078E+02  0.70002771607E+03  0.40000000000E+03 0.  1.
   -9000007    1    1    2    0  502  0.31863898991E+03  0.47503869488E+03 -0.85362931251E+03  0.11026674797E+04  0.40000000000E+03 0. -1.
<mgrwt>
<rscale>  2 0.69799181E+03</rscale>
<asrwt>0</asrwt>
<pdfrwt beam="1">  1       21 0.68901213E-01 0.69799181E+03</pdfrwt>
<pdfrwt beam="2">  1       21 0.20843651E+00 0.69799181E+03</pdfrwt>
<totfact> 0.16481842E+02</totfact>
</mgrwt>
</event>
<event>
 4    1  0.4656822E-002  0.4195609E+03  0.7818608E-02  0.1037209E+00
         21   -1    0    0  501  502  0.00000000000E+00  0.00000000000E+00  0.24928261026E+03  0.24928261026E+03  0.00000000000E+00 0.  1.
         21   -1    0    0  502  503 -0.00000000000E+00 -0.00000000000E+00 -0.76418548953E+03  0.76418548953E+03  0.00000000000E+00 0.  1.
    9000007    1    1    2  501    0 -0.12039009345E+03  0.39211892031E+02 -0.11780783904E+03  0.43578668408E+03  0.40000000000E+03 0.  1.
   -9000007    1    1    2    0  503  0.12039009345E+03 -0.39211892031E+02 -0.39709504024E+03  0.57768141571E+03  0.40000000000E+03 0.  1.
<mgrwt>
<rscale>  2 0.41956090E+03</rscale>
<asrwt>0</asrwt>
<pdfrwt beam="1">  1       21 0.38351171E-01 0.41956090E+03</pdfrwt>
<pdfrwt beam="2">  1       21 0.11756700E+00 0.41956090E+03</pdfrwt>
<totfact> 0.31995174E+03</totfact>
</mgrwt>
</event>
<event>
 4    1  0.4656822E-002  0.4529482E+03  0.7818608E-02  0.1026846E+00
         21   -1    0    0  503  502  0.00000000000E+00  0.00000000000E+00  0.51623826533E+03  0.51623826533E+03  0.00000000000E+00 0. -1.
         21   -1    0    0  501  503 -0.00000000000E+00 -0.00000000000E+00 -0.58636659454E+03  0.58636659454E+03  0.00000000000E+00 0. -1.
    9000007    1    1    2  501    0 -0.20055115276E+03 -0.70294630862E+02 -0.34801617826E+03  0.57120693302E+03  0.40000000000E+03 0. -1.
   -9000007    1    1    2    0  502  0.20055115276E+03  0.70294630862E+02  0.27788784905E+03  0.53139792684E+03  0.40000000000E+03 0. -1.
<mgrwt>
<rscale>  2 0.45294823E+03</rscale>
<asrwt>0</asrwt>
<pdfrwt beam="1">  1       21 0.79421272E-01 0.45294823E+03</pdfrwt>
<pdfrwt beam="2">  1       21 0.90210245E-01 0.45294823E+03</pdfrwt>
<totfact> 0.12470070E+03</totfact>
</mgrwt>
</event>
<event>
 4    1  0.4656822E-002  0.5470343E+03  0.7818608E-02  0.1002183E+00
         21   -1    0    0  503  502  0.00000000000E+00  0.00000000000E+00  0.24152164254E+03  0.24152164254E+03  0.00000000000E+00 0.  1.
         21   -1    0    0  501  503 -0.00000000000E+00 -0.00000000000E+00 -0.12865863618E+04  0.12865863618E+04  0.00000000000E+00 0. -1.
    9000007    1    1    2  501    0 -0.49649125533E+02  0.36983977006E+03 -0.66946680329E+03  0.86454166580E+03  0.40000000000E+03 0.  1.
   -9000007    1    1    2    0  502  0.49649125533E+02 -0.36983977006E+03 -0.37559791600E+03  0.66356633857E+03  0.40000000000E+03 0. -1.
<mgrwt>
<rscale>  2 0.54703427E+03</rscale>
<asrwt>0</asrwt>
<pdfrwt beam="1">  1       21 0.37157176E-01 0.54703427E+03</pdfrwt>
<pdfrwt beam="2">  1       21 0.19793636E+00 0.54703427E+03</pdfrwt>
<totfact> 0.77189408E+02</totfact>
</mgrwt>
</event>
<event>
 4    1  0.4656822E-002  0.4048597E+03  0.7818608E-02  0.1042110E+00
         21   -1    0    0  503  502  0.00000000000E+00  0.00000000000E+00  0.15489308137E+03  0.15489308137E+03  0.00000000000E+00 0.  1.
         21   -1    0    0  501  503 -0.00000000000E+00 -0.00000000000E+00 -0.11956095296E+04  0.11956095296E+04  0.00000000000E+00 0.  1.
    9000007    1    1    2  501    0 -0.48487740473E+02  0.39500330599E+02 -0.74925711263E+03  0.85164403240E+03  0.40000000000E+03 0.  1.
   -9000007    1    1    2    0  502  0.48487740473E+02 -0.39500330599E+02 -0.29145933558E+03  0.49885857855E+03  0.40000000000E+03 0.  1.
<mgrwt>
<rscale>  2 0.40485965E+03</rscale>
<asrwt>0</asrwt>
<pdfrwt beam="1">  1       21 0.23829706E-01 0.40485965E+03</pdfrwt>
<pdfrwt beam="2">  1       21 0.18393992E+00 0.40485965E+03</pdfrwt>
<totfact> 0.24680488E+03</totfact>
</mgrwt>
</event>
<event>
 4    1  0.4656822E-002  0.4915346E+03  0.7818608E-02  0.1016012E+00
         21   -1    0    0  503  502  0.00000000000E+00  0.00000000000E+00  0.59716162481E+03  0.59716162481E+03  0.00000000000E+00 0.  1.
         21   -1    0    0  501  503 -0.00000000000E+00 -0.00000000000E+00 -0.49566622348E+03  0.49566622348E+03  0.00000000000E+00 0.  1.
    9000007    1    1    2  501    0  0.27985224095E+03 -0.57349343668E+02 -0.18347403653E+03  0.52466079143E+03  0.40000000000E+03 0.  1.
   -9000007    1    1    2    0  502 -0.27985224095E+03  0.57349343668E+02  0.28496943787E+03  0.56816705686E+03  0.40000000000E+03 0.  1.
<mgrwt>
<rscale>  2 0.49153456E+03</rscale>
<asrwt>0</asrwt>
<pdfrwt beam="1">  1       21 0.91871019E-01 0.49153456E+03</pdfrwt>
<pdfrwt beam="2">  1       21 0.76256342E-01 0.49153456E+03</pdfrwt>
<totfact> 0.12919703E+03</totfact>
</mgrwt>
</event>
<event>
 4    1  0.4656822E-002  0.4029804E+03  0.7818608E-02  0.1042753E+00
         21   -1    0    0  501  502  0.00000000000E+00  0.00000000000E+00  0.11172419176E+03  0.11172419176E+03  0.00000000000E+00 0. -1.
         21   -1    0    0  502  503 -0.00000000000E+00 -0.00000000000E+00 -0.18969065693E+04  0.18969065693E+04  0.00000000000E+00 0. -1.
    9000007    1    1    2  501    0 -0.25511729515E+02  0.41741793813E+02 -0.40703561599E+03  0.57277501550E+03  0.40000000000E+03 0.  1.
   -9000007    1    1    2    0  503  0.25511729515E+02 -0.41741793813E+02 -0.13781467616E+04  0.14358557456E+04  0.40000000000E+03 0.  1.
<mgrwt>
<rscale>  2 0.40298043E+03</rscale>
<asrwt>0</asrwt>
<pdfrwt beam="1">  1       21 0.17188338E-01 0.40298043E+03</pdfrwt>
<pdfrwt beam="2">  1       21 0.29183177E+00 0.40298043E+03</pdfrwt>
<totfact> 0.96580986E+02</totfact>
</mgrwt>
</event>
<event>
 4    1  0.4656822E-002  0.4225023E+03  0.7818608E-02  0.1036255E+00
         21   -1    0    0  503  502  0.00000000000E+00  0.00000000000E+00  0.39279602146E+03  0.39279602146E+03  0.00000000000E+00 0. -1.
         21   -1    0    0  501  503 -0.00000000000E+00 -0.00000000000E+00 -0.56832892642E+03  0.56832892642E+03  0.00000000000E+00 0. -1.
    9000007    1    1    2  501    0  0.72838712891E+02 -0.11490304485E+03 -0.30287703336E+03  0.51984871371E+03  0.40000000000E+03 0. -1.
   -9000007    1    1    2    0  502 -0.72838712891E+02  0.11490304485E+03  0.12734412840E+03  0.44127623418E+03  0.40000000000E+03 0. -1.
<mgrwt>
<rscale>  2 0.42250229E+03</rscale>
<asrwt>0</asrwt>
<pdfrwt beam="1">  1       21 0.60430157E-01 0.42250229E+03</pdfrwt>
<pdfrwt beam="2">  1       21 0.87435219E-01 0.42250229E+03</pdfrwt>
<totfact> 0.25106555E+03</totfact>
</mgrwt>
</event>
<event>
 4    1  0.4656822E-002  0.5672626E+03  0.7818608E-02  0.9975754E-01
         21   -1    0    0  501  502  0.00000000000E+00  0.00000000000E+00  0.11060472816E+04  0.11060472816E+04  0.00000000000E+00 0. -1.
         21   -1    0    0  502  503 -0.00000000000E+00 -0.00000000000E+00 -0.41094694326E+03  0.41094694326E+03  0.00000000000E+00 0. -1.
    9000007    1    1    2  501    0  0.82271808569E+02 -0.39372353855E+03  0.75744732896E+03  0.94631566163E+03  0.40000000000E+03 0. -1.
   -9000007    1    1    2    0  503 -0.82271808569E+02  0.39372353855E+03 -0.62346990621E+02  0.57067856323E+03  0.40000000000E+03 0. -1.
<mgrwt>
<rscale>  2 0.56726262E+03</rscale>
<asrwt>0</asrwt>
<pdfrwt beam="1">  1       21 0.17016112E+00 0.56726262E+03</pdfrwt>
<pdfrwt beam="2">  1       21 0.63222607E-01 0.56726262E+03</pdfrwt>
<totfact> 0.38707665E+02</totfact>
</mgrwt>
</event>
<event>
 4    1  0.4656822E-002  0.4087290E+03  0.7818608E-02  0.1040798E+00
         21   -1    0    0  503  502  0.00000000000E+00  0.00000000000E+00  0.31724366741E+03  0.31724366741E+03  0.00000000000E+00 0. -1.
         21   -1    0    0  501  503 -0.00000000000E+00 -0.00000000000E+00 -0.71745771894E+03  0.71745771894E+03  0.00000000000E+00 0. -1.
    9000007    1    1    2  501    0  0.82404634001E+02 -0.16397129702E+02  0.66729809192E+02  0.41414038321E+03  0.40000000000E+03 0. -1.
   -9000007    1    1    2    0  502 -0.82404634001E+02  0.16397129702E+02 -0.46694386072E+03  0.62056100315E+03  0.40000000000E+03 0. -1.
<mgrwt>
<rscale>  2 0.40872899E+03</rscale>
<asrwt>0</asrwt>
<pdfrwt beam="1">  1       21 0.48806718E-01 0.40872899E+03</pdfrwt>
<pdfrwt beam="2">  1       21 0.11037811E+00 0.40872899E+03</pdfrwt>
<totfact> 0.22775839E+03</totfact>
</mgrwt>
</event>
<event>
 4    1  0.4656822E-002  0.5389837E+03  0.7818608E-02  0.1004076E+00
         21   -1    0    0  501  502  0.00000000000E+00  0.00000000000E+00  0.33313320983E+03  0.33313320983E+03  0.00000000000E+00 0. -1.
         21   -1    0    0  502  503 -0.00000000000E+00 -0.00000000000E+00 -0.10336768396E+04  0.10336768396E+04  0.00000000000E+00 0. -1.
    9000007    1    1    2  501    0 -0.30149100852E+03  0.19901398872E+03 -0.62052098662E+03  0.82191829933E+03  0.40000000000E+03 0. -1.
   -9000007    1    1    2    0  503  0.30149100852E+03 -0.19901398872E+03 -0.80022643158E+02  0.54489175012E+03  0.40000000000E+03 0. -1.
<mgrwt>
<rscale>  2 0.53898367E+03</rscale>
<asrwt>0</asrwt>
<pdfrwt beam="1">  1       21 0.51251264E-01 0.53898367E+03</pdfrwt>
<pdfrwt beam="2">  1       21 0.15902720E+00 0.53898367E+03</pdfrwt>
<totfact> 0.74925363E+02</totfact>
</mgrwt>
</event>
<event>
 4    1  0.4656822E-002  0.4241505E+03  0.7818608E-02  0.1035724E+00
         21   -1    0    0  501  502  0.00000000000E+00  0.00000000000E+00  0.61187510879E+03  0.61187510879E+03  0.00000000000E+00 0. -1.
         21   -1    0    0  502  503 -0.00000000000E+00 -0.00000000000E+00 -0.29530594414E+03  0.29530594414E+03  0.00000000000E+00 0. -1.
    9000007    1    1    2  501    0  0.15469349037E+02 -0.14022963608E+03  0.18821428973E+03  0.46403477289E+03  0.40000000000E+03 0. -1.
   -9000007    1    1    2    0  503 -0.15469349037E+02  0.14022963608E+03  0.12835487491E+03  0.44314628003E+03  0.40000000000E+03 0. -1.
<mgrwt>
<rscale>  2 0.42415051E+03</rscale>
<asrwt>0</asrwt>
<pdfrwt beam="1">  1       21 0.94134632E-01 0.42415051E+03</pdfrwt>
<pdfrwt beam="2">  1       21 0.45431684E-01 0.42415051E+03</pdfrwt>
<totfact> 0.38796609E+03</totfact>
</mgrwt>
</event>
<event>
 4    1  0.4656822E-002  0.4296490E+03  0.7818608E-02  0.1033971E+00
         21   -1    0    0  503  502  0.00000000000E+00  0.00000000000E+00  0.91329669855E+03  0.91329669855E+03  0.00000000000E+00 0.  1.
         21   -1    0    0  501  503 -0.00000000000E+00 -0.00000000000E+00 -0.25993322493E+03  0.25993322493E+03  0.00000000000E+00 0.  1.
    9000007    1    1    2  501    0 -0.67736711527E+02 -0.14145676546E+03  0.50035653099E+02  0.43255270796E+03  0.40000000000E+03 0.  1.
   -9000007    1    1    2    0  502  0.67736711527E+02  0.14145676546E+03  0.60332782051E+03  0.74067721552E+03  0.40000000000E+03 0.  1.
<mgrwt>
<rscale>  2 0.42964902E+03</rscale>
<asrwt>0</asrwt>
<pdfrwt beam="1">  1       21 0.14050718E+00 0.42964902E+03</pdfrwt>
<pdfrwt beam="2">  1       21 0.39989727E-01 0.42964902E+03</pdfrwt>
<totfact> 0.18445095E+03</totfact>
</mgrwt>
</event>
<event>
 4    1  0.4656822E-002  0.4305584E+03  0.7818608E-02  0.1033684E+00
         21   -1    0    0  503  502  0.00000000000E+00  0.00000000000E+00  0.80716377212E+03  0.80716377212E+03  0.00000000000E+00 0. -1.
         21   -1    0    0  501  503 -0.00000000000E+00 -0.00000000000E+00 -0.64058523969E+03  0.64058523969E+03  0.00000000000E+00 0.  1.
    9000007    1    1    2  501    0 -0.15542757057E+03 -0.34968257000E+02 -0.49647502433E+03  0.65716661394E+03  0.40000000000E+03 0.  1.
   -9000007    1    1    2    0  502  0.15542757057E+03  0.34968257000E+02  0.66305355676E+03  0.79058239787E+03  0.40000000000E+03 0. -1.
<mgrwt>
<rscale>  2 0.43055837E+03</rscale>
<asrwt>0</asrwt>
<pdfrwt beam="1">  1       21 0.12417904E+00 0.43055837E+03</pdfrwt>
<pdfrwt beam="2">  1       21 0.98551575E-01 0.43055837E+03</pdfrwt>
<totfact> 0.34473679E+02</totfact>
</mgrwt>
</event>
<event>
 4    1  0.4656822E-002  0.4129499E+03  0.7818608E-02  0.1039386E+00
         21   -1    0    0  503  502  0.00000000000E+00  0.00000000000E+00  0.78972536394E+03  0.78972536394E+03  0.00000000000E+00 0. -1.
         21   -1    0    0  501  503 -0.00000000000E+00 -0.00000000000E+00 -0.21601638792E+03  0.21601638792E+03  0.00000000000E+00 0.  1.
    9000007    1    1    2  501    0 -0.75184537046E+02 -0.69820309309E+02  0.27696105662E+03  0.49722732939E+03  0.40000000000E+03 0. -1.
   -9000007    1    1    2    0  502  0.75184537046E+02  0.69820309309E+02  0.29674791939E+03  0.50851442248E+03  0.40000000000E+03 0.  1.
<mgrwt>
<rscale>  2 0.41294986E+03</rscale>
<asrwt>0</asrwt>
<pdfrwt beam="1">  1       21 0.12149621E+00 0.41294986E+03</pdfrwt>
<pdfrwt beam="2">  1       21 0.33233291E-01 0.41294986E+03</pdfrwt>
<totfact> 0.39445568E+03</totfact>
</mgrwt>
</event>
<event>
 4    1  0.4656822E-002  0.4725732E+03  0.7818608E-02  0.1021196E+00
         21   -1    0    0  501  502  0.00000000000E+00  0.00000000000E+00  0.11003069516E+04  0.11003069516E+04  0.00000000000E+00 0. -1.
         21   -1    0    0  502  503 -0.00000000000E+00 -0.00000000000E+00 -0.22537660900E+03  0.22537660900E+03  0.00000000000E+00 0. -1.
    9000007    1    1    2  501    0  0.22425164151E+03  0.11417819902E+03  0.22845021652E+03  0.52489519075E+03  0.40000000000E+03 0. -1.
   -9000007    1    1    2    0  503 -0.22425164151E+03 -0.11417819902E+03  0.64648012607E+03  0.80078836983E+03  0.40000000000E+03 0. -1.
<mgrwt>
<rscale>  2 0.47257323E+03</rscale>
<asrwt>0</asrwt>
<pdfrwt beam="1">  1       21 0.16927799E+00 0.47257323E+03</pdfrwt>
<pdfrwt beam="2">  1       21 0.34673325E-01 0.47257323E+03</pdfrwt>
<totfact> 0.14531550E+03</totfact>
</mgrwt>
</event>
<event>
 4    1  0.4656822E-002  0.4869518E+03  0.7818608E-02  0.1017242E+00
         21   -1    0    0  503  502  0.00000000000E+00  0.00000000000E+00  0.11436783362E+04  0.11436783362E+04  0.00000000000E+00 0. -1.
         21   -1    0    0  501  503 -0.00000000000E+00 -0.00000000000E+00 -0.37566284305E+03  0.37566284305E+03  0.00000000000E+00 0.  1.
    9000007    1    1    2  501    0  0.22527001501E+03  0.16240541961E+03 -0.12451095917E+03  0.50261822384E+03  0.40000000000E+03 0.  1.
   -9000007    1    1    2    0  502 -0.22527001501E+03 -0.16240541961E+03  0.89252645227E+03  0.10167229554E+04  0.40000000000E+03 0. -1.
<mgrwt>
<rscale>  2 0.48695185E+03</rscale>
<asrwt>0</asrwt>
<pdfrwt beam="1">  1       21 0.17595051E+00 0.48695185E+03</pdfrwt>
<pdfrwt beam="2">  1       21 0.57794284E-01 0.48695185E+03</pdfrwt>
<totfact> 0.44251056E+02</totfact>
</mgrwt>
</event>
<event>
 4    1  0.4656822E-002  0.4424510E+03  0.7818608E-02  0.1029997E+00
         21   -1    0    0  501  502  0.00000000000E+00  0.00000000000E+00  0.35730681378E+03  0.35730681378E+03  0.00000000000E+00 0. -1.
         21   -1    0    0  502  503 -0.00000000000E+00 -0.00000000000E+00 -0.64573298236E+03  0.64573298236E+03  0.00000000000E+00 0.  1.
    9000007    1    1    2  501    0 -0.91011278966E+02 -0.16577045253E+03  0.51013312792E+02  0.44538214369E+03  0.40000000000E+03 0. -1.
   -9000007    1    1    2    0  503  0.91011278966E+02  0.16577045253E+03 -0.33943948136E+03  0.55765765245E+03  0.40000000000E+03 0. -1.
<mgrwt>
<rscale>  2 0.44245101E+03</rscale>
<asrwt>0</asrwt>
<pdfrwt beam="1">  1       21 0.54970279E-01 0.44245101E+03</pdfrwt>
<pdfrwt beam="2">  1       21 0.99343536E-01 0.44245101E+03</pdfrwt>
<totfact> 0.22577402E+03</totfact>
</mgrwt>
</event>
<event>
 4    1  0.4656822E-002  0.7102768E+03  0.7818608E-02  0.9699817E-01
         21   -1    0    0  503  502  0.00000000000E+00  0.00000000000E+00  0.18089057883E+04  0.18089057883E+04  0.00000000000E+00 0.  1.
         21   -1    0    0  501  503 -0.00000000000E+00 -0.00000000000E+00 -0.53859663650E+03  0.53859663650E+03  0.00000000000E+00 0. -1.
    9000007    1    1    2  501    0  0.11709158041E+03  0.57513715839E+03 -0.17989178714E+03  0.73270338081E+03  0.40000000000E+03 0. -1.
   -9000007    1    1    2    0  502 -0.11709158041E+03 -0.57513715839E+03  0.14502009389E+04  0.16147990440E+04  0.40000000000E+03 0.  1.
<mgrwt>
<rscale>  2 0.71027684E+03</rscale>
<asrwt>0</asrwt>
<pdfrwt beam="1">  1       21 0.27829320E+00 0.71027684E+03</pdfrwt>
<pdfrwt beam="2">  1       21 0.82861022E-01 0.71027684E+03</pdfrwt>
<totfact> 0.38641912E+01</totfact>
</mgrwt>
</event>
<event>
 4    1  0.4656822E-002  0.4520297E+03  0.7818608E-02  0.1027118E+00
         21   -1    0    0  503  502  0.00000000000E+00  0.00000000000E+00  0.21638763084E+03  0.21638763084E+03  0.00000000000E+00 0.  1.
         21   -1    0    0  501  503 -0.00000000000E+00 -0.00000000000E+00 -0.99308295867E+03  0.99308295867E+03  0.00000000000E+00 0. -1.
    9000007    1    1    2  501    0 -0.76309620714E+02  0.19623387899E+03 -0.25429119234E+03  0.51864718642E+03  0.40000000000E+03 0. -1.
   -9000007    1    1    2    0  502  0.76309620714E+02 -0.19623387899E+03 -0.52240413549E+03  0.69082340309E+03  0.40000000000E+03 0. -1.
<mgrwt>
<rscale>  2 0.45202975E+03</rscale>
<asrwt>0</asrwt>
<pdfrwt beam="1">  1       21 0.33290405E-01 0.45202975E+03</pdfrwt>
<pdfrwt beam="2">  1       21 0.15278199E+00 0.45202975E+03</pdfrwt>
<totfact> 0.21177884E+03</totfact>
</mgrwt>
</event>
<event>
 4    1  0.4656822E-002  0.6320333E+03  0.7818608E-02  0.9841089E-01
         21   -1    0    0  501  502  0.00000000000E+00  0.00000000000E+00  0.40908608172E+03  0.40908608172E+03  0.00000000000E+00 0.  1.
         21   -1    0    0  502  503 -0.00000000000E+00 -0.00000000000E+00 -0.10334998213E+04  0.10334998213E+04  0.00000000000E+00 0.  1.
    9000007    1    1    2  501    0  0.35342561992E+03  0.33846181496E+03 -0.14279116759E+03  0.64796248853E+03  0.40000000000E+03 0.  1.
   -9000007    1    1    2    0  503 -0.35342561992E+03 -0.33846181496E+03 -0.48162257200E+03  0.79462341449E+03  0.40000000000E+03 0.  1.
<mgrwt>
<rscale>  2 0.63203328E+03</rscale>
<asrwt>0</asrwt>
<pdfrwt beam="1">  1       21 0.62936322E-01 0.63203328E+03</pdfrwt>
<pdfrwt beam="2">  1       21 0.15899997E+00 0.63203328E+03</pdfrwt>
<totfact> 0.46353208E+02</totfact>
</mgrwt>
</event>
<event>
 4    1  0.4656822E-002  0.4993497E+03  0.7818608E-02  0.1013949E+00
         21   -1    0    0  501  502  0.00000000000E+00  0.00000000000E+00  0.74574029402E+03  0.74574029402E+03  0.00000000000E+00 0. -1.
         21   -1    0    0  502  503 -0.00000000000E+00 -0.00000000000E+00 -0.38201241928E+03  0.38201241928E+03  0.00000000000E+00 0. -1.
    9000007    1    1    2  501    0 -0.53104864069E+02  0.29415988996E+03  0.38100484021E+03  0.62810417584E+03  0.40000000000E+03 0. -1.
   -9000007    1    1    2    0  503  0.53104864069E+02 -0.29415988996E+03 -0.17276965466E+02  0.49964853746E+03  0.40000000000E+03 0. -1.
<mgrwt>
<rscale>  2 0.49934974E+03</rscale>
<asrwt>0</asrwt>
<pdfrwt beam="1">  1       21 0.11472928E+00 0.49934974E+03</pdfrwt>
<pdfrwt beam="2">  1       21 0.58771142E-01 0.49934974E+03</pdfrwt>
<totfact> 0.13395351E+03</totfact>
</mgrwt>
</event>
<event>
 4    1  0.4656822E-002  0.5532579E+03  0.7818608E-02  0.1000743E+00
         21   -1    0    0  501  502  0.00000000000E+00  0.00000000000E+00  0.16216979418E+04  0.16216979418E+04  0.00000000000E+00 0. -1.
         21   -1    0    0  502  503 -0.00000000000E+00 -0.00000000000E+00 -0.32431437141E+03  0.32431437141E+03  0.00000000000E+00 0.  1.
    9000007    1    1    2  501    0  0.37582046791E+03  0.69665139410E+02  0.12777726703E+04  0.13924069997E+04  0.40000000000E+03 0. -1.
   -9000007    1    1    2    0  503 -0.37582046791E+03 -0.69665139410E+02  0.19610900059E+02  0.55360531351E+03  0.40000000000E+03 0.  1.
<mgrwt>
<rscale>  2 0.55325786E+03</rscale>
<asrwt>0</asrwt>
<pdfrwt beam="1">  1       21 0.24949199E+00 0.55325786E+03</pdfrwt>
<pdfrwt beam="2">  1       21 0.49894520E-01 0.55325786E+03</pdfrwt>
<totfact> 0.19368210E+02</totfact>
</mgrwt>
</event>
<event>
 4    1  0.4656822E-002  0.5523602E+03  0.7818608E-02  0.1000949E+00
         21   -1    0    0  503  502  0.00000000000E+00  0.00000000000E+00  0.58196298423E+03  0.58196298423E+03  0.00000000000E+00 0. -1.
         21   -1    0    0  501  503 -0.00000000000E+00 -0.00000000000E+00 -0.71665081508E+03  0.71665081508E+03  0.00000000000E+00 0. -1.
    9000007    1    1    2  501    0  0.62586350409E+02  0.37574557693E+03 -0.40376619373E+03  0.68419948045E+03  0.40000000000E+03 0. -1.
   -9000007    1    1    2    0  502 -0.62586350409E+02 -0.37574557693E+03  0.26907836288E+03  0.61441431885E+03  0.40000000000E+03 0. -1.
<mgrwt>
<rscale>  2 0.55236020E+03</rscale>
<asrwt>0</asrwt>
<pdfrwt beam="1">  1       21 0.89532767E-01 0.55236020E+03</pdfrwt>
<pdfrwt beam="2">  1       21 0.11025397E+00 0.55236020E+03</pdfrwt>
<totfact> 0.55662399E+02</totfact>
</mgrwt>
</event>
<event>
 4    1  0.4656822E-002  0.4443383E+03  0.7818608E-02  0.1029424E+00
         21   -1    0    0  501  502  0.00000000000E+00  0.00000000000E+00  0.20908728867E+03  0.20908728867E+03  0.00000000000E+00 0. -1.
         21   -1    0    0  502  503 -0.00000000000E+00 -0.00000000000E+00 -0.14277898617E+04  0.14277898617E+04  0.00000000000E+00 0.  1.
    9000007    1    1    2  501    0  0.18317164695E+03 -0.62327221751E+02 -0.13307660768E+03  0.46383824587E+03  0.40000000000E+03 0. -1.
   -9000007    1    1    2    0  503 -0.18317164695E+03  0.62327221751E+02 -0.10856259654E+04  0.11730389045E+04  0.40000000000E+03 0.  1.
<mgrwt>
<rscale>  2 0.44433831E+03</rscale>
<asrwt>0</asrwt>
<pdfrwt beam="1">  1       21 0.32167276E-01 0.44433831E+03</pdfrwt>
<pdfrwt beam="2">  1       21 0.21965997E+00 0.44433831E+03</pdfrwt>
<totfact> 0.77796008E+02</totfact>
</mgrwt>
</event>
<event>
 4    1  0.4656822E-002  0.4807334E+03  0.7818608E-02  0.1018934E+00
         21   -1    0    0  503  502  0.00000000000E+00  0.00000000000E+00  0.25277487193E+03  0.25277487193E+03  0.00000000000E+00 0.  1.
         21   -1    0    0  501  503 -0.00000000000E+00 -0.00000000000E+00 -0.11570788339E+04  0.11570788339E+04  0.00000000000E+00 0.  1.
    9000007    1    1    2  501    0 -0.10843170431E+03  0.24361272237E+03 -0.77507159856E+03  0.91205294578E+03  0.40000000000E+03 0.  1.
   -9000007    1    1    2    0  502  0.10843170431E+03 -0.24361272237E+03 -0.12923236345E+03  0.49780076011E+03  0.40000000000E+03 0.  1.
<mgrwt>
<rscale>  2 0.48073339E+03</rscale>
<asrwt>0</asrwt>
<pdfrwt beam="1">  1       21 0.38888441E-01 0.48073339E+03</pdfrwt>
<pdfrwt beam="2">  1       21 0.17801213E+00 0.48073339E+03</pdfrwt>
<totfact> 0.99157440E+02</totfact>
</mgrwt>
</event>
<event>
 4    1  0.4656822E-002  0.4025822E+03  0.7818608E-02  0.1042889E+00
         21   -1    0    0  501  502  0.00000000000E+00  0.00000000000E+00  0.47385334270E+03  0.47385334270E+03  0.00000000000E+00 0. -1.
         21   -1    0    0  502  503 -0.00000000000E+00 -0.00000000000E+00 -0.34404146023E+03  0.34404146023E+03  0.00000000000E+00 0. -1.
    9000007    1    1    2  501    0  0.29822321861E+01 -0.45426516189E+02  0.96168598587E+02  0.41390924299E+03  0.40000000000E+03 0. -1.
   -9000007    1    1    2    0  503 -0.29822321861E+01  0.45426516189E+02  0.33643283886E+02  0.40398555993E+03  0.40000000000E+03 0. -1.
<mgrwt>
<rscale>  2 0.40258224E+03</rscale>
<asrwt>0</asrwt>
<pdfrwt beam="1">  1       21 0.72900514E-01 0.40258224E+03</pdfrwt>
<pdfrwt beam="2">  1       21 0.52929456E-01 0.40258224E+03</pdfrwt>
<totfact> 0.51250430E+03</totfact>
</mgrwt>
</event>
<event>
 4    1  0.4656822E-002  0.4271279E+03  0.7818608E-02  0.1034771E+00
         21   -1    0    0  501  502  0.00000000000E+00  0.00000000000E+00  0.17005317840E+04  0.17005317840E+04  0.00000000000E+00 0. -1.
         21   -1    0    0  502  503 -0.00000000000E+00 -0.00000000000E+00 -0.15825869449E+03  0.15825869449E+03  0.00000000000E+00 0. -1.
    9000007    1    1    2  501    0 -0.10772323790E+03  0.10408628039E+03  0.12986068111E+04  0.13670471461E+04  0.40000000000E+03 0. -1.
   -9000007    1    1    2    0  503  0.10772323790E+03 -0.10408628039E+03  0.24366627842E+03  0.49174333243E+03  0.40000000000E+03 0. -1.
<mgrwt>
<rscale>  2 0.42712791E+03</rscale>
<asrwt>0</asrwt>
<pdfrwt beam="1">  1       21 0.26162026E+00 0.42712791E+03</pdfrwt>
<pdfrwt beam="2">  1       21 0.24347493E-01 0.42712791E+03</pdfrwt>
<totfact> 0.74585925E+02</totfact>
</mgrwt>
</event>
<event>
 4    1  0.4656822E-002  0.4203480E+03  0.7818608E-02  0.1036953E+00
         21   -1    0    0  503  502  0.00000000000E+00  0.00000000000E+00  0.22331118109E+03  0.22331118109E+03  0.00000000000E+00 0.  1.
         21   -1    0    0  501  503 -0.00000000000E+00 -0.00000000000E+00 -0.94811397744E+03  0.94811397744E+03  0.00000000000E+00 0.  1.
    9000007    1    1    2  501    0  0.58948863906E+02 -0.11496722956E+03 -0.60065069671E+03  0.73312597273E+03  0.40000000000E+03 0.  1.
   -9000007    1    1    2    0  502 -0.58948863906E+02  0.11496722956E+03 -0.12415209963E+03  0.43829918580E+03  0.40000000000E+03 0.  1.
<mgrwt>
<rscale>  2 0.42034799E+03</rscale>
<asrwt>0</asrwt>
<pdfrwt beam="1">  1       21 0.34355567E-01 0.42034799E+03</pdfrwt>
<pdfrwt beam="2">  1       21 0.14586369E+00 0.42034799E+03</pdfrwt>
<totfact> 0.22824018E+03</totfact>
</mgrwt>
</event>
<event>
 4    1  0.4656822E-002  0.6142906E+03  0.7818608E-02  0.9876193E-01
         21   -1    0    0  503  502  0.00000000000E+00  0.00000000000E+00  0.67409211817E+03  0.67409211817E+03  0.00000000000E+00 0. -1.
         21   -1    0    0  501  503 -0.00000000000E+00 -0.00000000000E+00 -0.12930956985E+04  0.12930956985E+04  0.00000000000E+00 0.  1.
    9000007    1    1    2  501    0  0.43144561207E+02 -0.46421054434E+03 -0.10502008139E+04  0.12166653740E+04  0.40000000000E+03 0.  1.
   -9000007    1    1    2    0  502 -0.43144561207E+02  0.46421054434E+03  0.43119723364E+03  0.75052244266E+03  0.40000000000E+03 0. -1.
<mgrwt>
<rscale>  2 0.61429055E+03</rscale>
<asrwt>0</asrwt>
<pdfrwt beam="1">  1       21 0.10370648E+00 0.61429055E+03</pdfrwt>
<pdfrwt beam="2">  1       21 0.19893780E+00 0.61429055E+03</pdfrwt>
<totfact> 0.74992390E+01</totfact>
</mgrwt>
</event>
<event>
 4    1  0.4656822E-002  0.4302506E+03  0.7818608E-02  0.1033781E+00
         21   -1    0    0  503  502  0.00000000000E+00  0.00000000000E+00  0.74986364344E+03  0.74986364344E+03  0.00000000000E+00 0. -1.
         21   -1    0    0  501  503 -0.00000000000E+00 -0.00000000000E+00 -0.26997586393E+03  0.26997586393E+03  0.00000000000E+00 0.  1.
    9000007    1    1    2  501    0 -0.57658295346E+02 -0.14761799720E+03  0.90753226222E+02  0.43971775060E+03  0.40000000000E+03 0.  1.
   -9000007    1    1    2    0  502  0.57658295346E+02  0.14761799720E+03  0.38913455329E+03  0.58012175678E+03  0.40000000000E+03 0. -1.
<mgrwt>
<rscale>  2 0.43025057E+03</rscale>
<asrwt>0</asrwt>
<pdfrwt beam="1">  1       21 0.11536364E+00 0.43025057E+03</pdfrwt>
<pdfrwt beam="2">  1       21 0.41534749E-01 0.43025057E+03</pdfrwt>
<totfact> 0.28355125E+03</totfact>
</mgrwt>
</event>
<event>
 4    1  0.4656822E-002  0.4179122E+03  0.7818608E-02  0.1037748E+00
         21   -1    0    0  503  502  0.00000000000E+00  0.00000000000E+00  0.64701601604E+03  0.64701601604E+03  0.00000000000E+00 0. -1.
         21   -1    0    0  501  503 -0.00000000000E+00 -0.00000000000E+00 -0.10283036882E+04  0.10283036882E+04  0.00000000000E+00 0. -1.
    9000007    1    1    2  501    0 -0.23490674227E+02  0.11873850973E+03 -0.91000654213E+03  0.10013803235E+04  0.40000000000E+03 0. -1.
   -9000007    1    1    2    0  502  0.23490674227E+02 -0.11873850973E+03  0.52871886999E+03  0.67393938077E+03  0.40000000000E+03 0. -1.
<mgrwt>
<rscale>  2 0.41791225E+03</rscale>
<asrwt>0</asrwt>
<pdfrwt beam="1">  1       21 0.99540926E-01 0.41791225E+03</pdfrwt>
<pdfrwt beam="2">  1       21 0.15820057E+00 0.41791225E+03</pdfrwt>
<totfact> 0.17810861E+02</totfact>
</mgrwt>
</event>
<event>
 4    1  0.4656822E-002  0.4094636E+03  0.7818608E-02  0.1040551E+00
         21   -1    0    0  501  502  0.00000000000E+00  0.00000000000E+00  0.97927894307E+03  0.97927894307E+03  0.00000000000E+00 0. -1.
         21   -1    0    0  502  503 -0.00000000000E+00 -0.00000000000E+00 -0.17710768277E+03  0.17710768277E+03  0.00000000000E+00 0. -1.
    9000007    1    1    2  501    0  0.54290602565E+02 -0.68650873056E+02  0.50661366339E+03  0.65139681902E+03  0.40000000000E+03 0. -1.
   -9000007    1    1    2    0  503 -0.54290602565E+02  0.68650873056E+02  0.29555759691E+03  0.50498980682E+03  0.40000000000E+03 0. -1.
<mgrwt>
<rscale>  2 0.40946357E+03</rscale>
<asrwt>0</asrwt>
<pdfrwt beam="1">  1       21 0.15065830E+00 0.40946357E+03</pdfrwt>
<pdfrwt beam="2">  1       21 0.27247336E-01 0.40946357E+03</pdfrwt>
<totfact> 0.33312156E+03</totfact>
</mgrwt>
</event>
<event>
 4    1  0.4656822E-002  0.4257019E+03  0.7818608E-02  0.1035226E+00
         21   -1    0    0  501  502  0.00000000000E+00  0.00000000000E+00  0.92239611500E+03  0.92239611500E+03  0.00000000000E+00 0. -1.
         21   -1    0    0  502  503 -0.00000000000E+00 -0.00000000000E+00 -0.30520843828E+03  0.30520843828E+03  0.00000000000E+00 0. -1.
    9000007    1    1    2  501    0 -0.11684820360E+03 -0.86997601088E+02  0.67496738545E+03  0.79799940896E+03  0.40000000000E+03 0. -1.
   -9000007    1    1    2    0  503  0.11684820360E+03  0.86997601088E+02 -0.57779708743E+02  0.42960514432E+03  0.40000000000E+03 0. -1.
<mgrwt>
<rscale>  2 0.42570187E+03</rscale>
<asrwt>0</asrwt>
<pdfrwt beam="1">  1       21 0.14190709E+00 0.42570187E+03</pdfrwt>
<pdfrwt beam="2">  1       21 0.46955145E-01 0.42570187E+03</pdfrwt>
<totfact> 0.12881892E+03</totfact>
</mgrwt>
</event>
<event>
 4    1  0.4656822E-002  0.4696559E+03  0.7818608E-02  0.1022017E+00
         21   -1    0    0  503  502  0.00000000000E+00  0.00000000000E+00  0.64307474250E+03  0.64307474250E+03  0.00000000000E+00 0.  1.
         21   -1    0    0  501  503 -0.00000000000E+00 -0.00000000000E+00 -0.92816818583E+03  0.92816818583E+03  0.00000000000E+00 0.  1.
    9000007    1    1    2  501    0  0.24225649441E+03  0.43456371326E+02 -0.76633783573E+03  0.89880495312E+03  0.40000000000E+03 0.  1.
   -9000007    1    1    2    0  502 -0.24225649441E+03 -0.43456371326E+02  0.48124439240E+03  0.67243797521E+03  0.40000000000E+03 0.  1.
<mgrwt>
<rscale>  2 0.46965590E+03</rscale>
<asrwt>0</asrwt>
<pdfrwt beam="1">  1       21 0.98934577E-01 0.46965590E+03</pdfrwt>
<pdfrwt beam="2">  1       21 0.14279510E+00 0.46965590E+03</pdfrwt>
<totfact> 0.23247787E+02</totfact>
</mgrwt>
</event>
<event>
 4    1  0.4656822E-002  0.4093011E+03  0.7818608E-02  0.1040606E+00
         21   -1    0    0  503  502  0.00000000000E+00  0.00000000000E+00  0.79045856065E+03  0.79045856065E+03  0.00000000000E+00 0.  1.
         21   -1    0    0  501  503 -0.00000000000E+00 -0.00000000000E+00 -0.35178016661E+03  0.35178016661E+03  0.00000000000E+00 0.  1.
    9000007    1    1    2  501    0  0.83939421509E+02 -0.21943862484E+02  0.57942993051E+03  0.70941271764E+03  0.40000000000E+03 0.  1.
   -9000007    1    1    2    0  502 -0.83939421509E+02  0.21943862484E+02 -0.14075153647E+03  0.43282600962E+03  0.40000000000E+03 0.  1.
<mgrwt>
<rscale>  2 0.40930106E+03</rscale>
<asrwt>0</asrwt>
<pdfrwt beam="1">  1       21 0.12160901E+00 0.40930106E+03</pdfrwt>
<pdfrwt beam="2">  1       21 0.54120026E-01 0.40930106E+03</pdfrwt>
<totfact> 0.14330687E+03</totfact>
</mgrwt>
</event>
<event>
 4    1  0.4656822E-002  0.5112963E+03  0.7818608E-02  0.1010872E+00
         21   -1    0    0  501  502  0.00000000000E+00  0.00000000000E+00  0.26823282637E+03  0.26823282637E+03  0.00000000000E+00 0.  1.
         21   -1    0    0  502  503 -0.00000000000E+00 -0.00000000000E+00 -0.11734010363E+04  0.11734010363E+04  0.00000000000E+00 0. -1.
    9000007    1    1    2  501    0  0.29620897901E+03  0.11697932521E+03 -0.15590024112E+03  0.53453606703E+03  0.40000000000E+03 0.  1.
   -9000007    1    1    2    0  503 -0.29620897901E+03 -0.11697932521E+03 -0.74926796879E+03  0.90709779562E+03  0.40000000000E+03 0. -1.
<mgrwt>
<rscale>  2 0.51129632E+03</rscale>
<asrwt>0</asrwt>
<pdfrwt beam="1">  1       21 0.41266589E-01 0.51129632E+03</pdfrwt>
<pdfrwt beam="2">  1       21 0.18052324E+00 0.51129632E+03</pdfrwt>
<totfact> 0.83157787E+02</totfact>
</mgrwt>
</event>
<event>
 4    1  0.4656822E-002  0.4897987E+03  0.7818608E-02  0.1016476E+00
         21   -1    0    0  501  502  0.00000000000E+00  0.00000000000E+00  0.86604560497E+03  0.86604560497E+03  0.00000000000E+00 0. -1.
         21   -1    0    0  502  503 -0.00000000000E+00 -0.00000000000E+00 -0.29904243363E+03  0.29904243363E+03  0.00000000000E+00 0.  1.
    9000007    1    1    2  501    0 -0.26915617262E+03 -0.86357946321E+02  0.44162634073E+03  0.65949720620E+03  0.40000000000E+03 0. -1.
   -9000007    1    1    2    0  503  0.26915617262E+03  0.86357946321E+02  0.12537683061E+03  0.50559083240E+03  0.40000000000E+03 0. -1.
<mgrwt>
<rscale>  2 0.48979867E+03</rscale>
<asrwt>0</asrwt>
<pdfrwt beam="1">  1       21 0.13323778E+00 0.48979867E+03</pdfrwt>
<pdfrwt beam="2">  1       21 0.46006529E-01 0.48979867E+03</pdfrwt>
<totfact> 0.15481568E+03</totfact>
</mgrwt>
</event>
<event>
 4    1  0.4656822E-002  0.4381198E+03  0.7818608E-02  0.1031325E+00
         21   -1    0    0  501  502  0.00000000000E+00  0.00000000000E+00  0.49546488057E+03  0.49546488057E+03  0.00000000000E+00 0. -1.
         21   -1    0    0  502  503 -0.00000000000E+00 -0.00000000000E+00 -0.41864544971E+03  0.41864544971E+03  0.00000000000E+00 0. -1.
    9000007    1    1    2  501    0  0.15555851551E+03 -0.88036919118E+02 -0.86431119855E+02  0.44656386929E+03  0.40000000000E+03 0. -1.
   -9000007    1    1    2    0  503 -0.15555851551E+03  0.88036919118E+02  0.16325055072E+03  0.46754646099E+03  0.40000000000E+03 0. -1.
<mgrwt>
<rscale>  2 0.43811979E+03</rscale>
<asrwt>0</asrwt>
<pdfrwt beam="1">  1       21 0.76225366E-01 0.43811979E+03</pdfrwt>
<pdfrwt beam="2">  1       21 0.64406993E-01 0.43811979E+03</pdfrwt>
<totfact> 0.29808786E+03</totfact>
</mgrwt>
</event>
<event>
 4    1  0.4656822E-002  0.6093616E+03  0.7818608E-02  0.9886172E-01
         21   -1    0    0  501  502  0.00000000000E+00  0.00000000000E+00  0.87194919186E+03  0.87194919186E+03  0.00000000000E+00 0.  1.
         21   -1    0    0  502  503 -0.00000000000E+00 -0.00000000000E+00 -0.91473452432E+03  0.91473452432E+03  0.00000000000E+00 0.  1.
    9000007    1    1    2  501    0  0.45969709812E+03  0.27684926818E+00  0.63169624104E+03  0.87770247784E+03  0.40000000000E+03 0.  1.
   -9000007    1    1    2    0  503 -0.45969709812E+03 -0.27684926818E+00 -0.67448157351E+03  0.90898123834E+03  0.40000000000E+03 0.  1.
<mgrwt>
<rscale>  2 0.60936155E+03</rscale>
<asrwt>0</asrwt>
<pdfrwt beam="1">  1       21 0.13414603E+00 0.60936155E+03</pdfrwt>
<pdfrwt beam="2">  1       21 0.14072839E+00 0.60936155E+03</pdfrwt>
<totfact> 0.10537256E+02</totfact>
</mgrwt>
</event>
<event>
 4    1  0.4656822E-002  0.4587821E+03  0.7818608E-02  0.1025135E+00
         21   -1    0    0  503  502  0.00000000000E+00  0.00000000000E+00  0.34732778192E+03  0.34732778192E+03  0.00000000000E+00 0. -1.
         21   -1    0    0  501  503 -0.00000000000E+00 -0.00000000000E+00 -0.66151038857E+03  0.66151038857E+03  0.00000000000E+00 0. -1.
    9000007    1    1    2  501    0  0.22465397151E+03  0.34042368658E+01 -0.10972449790E+02  0.45891327111E+03  0.40000000000E+03 0. -1.
   -9000007    1    1    2    0  502 -0.22465397151E+03 -0.34042368658E+01 -0.30321015686E+03  0.54992489939E+03  0.40000000000E+03 0. -1.
<mgrwt>
<rscale>  2 0.45878208E+03</rscale>
<asrwt>0</asrwt>
<pdfrwt beam="1">  1       21 0.53435044E-01 0.45878208E+03</pdfrwt>
<pdfrwt beam="2">  1       21 0.10177083E+00 0.45878208E+03</pdfrwt>
<totfact> 0.22489961E+03</totfact>
</mgrwt>
</event>
<event>
 4    1  0.4656822E-002  0.4592151E+03  0.7818608E-02  0.1025009E+00
         21   -1    0    0  501  502  0.00000000000E+00  0.00000000000E+00  0.37490682996E+03  0.37490682996E+03  0.00000000000E+00 0.  1.
         21   -1    0    0  502  503 -0.00000000000E+00 -0.00000000000E+00 -0.72813975900E+03  0.72813975900E+03  0.00000000000E+00 0.  1.
    9000007    1    1    2  501    0 -0.20685630093E+03  0.89938503163E+02  0.86447862093E+02  0.46728117493E+03  0.40000000000E+03 0.  1.
   -9000007    1    1    2    0  503  0.20685630093E+03 -0.89938503163E+02 -0.43968079113E+03  0.63576541403E+03  0.40000000000E+03 0.  1.
<mgrwt>
<rscale>  2 0.45921505E+03</rscale>
<asrwt>0</asrwt>
<pdfrwt beam="1">  1       21 0.57677974E-01 0.45921505E+03</pdfrwt>
<pdfrwt beam="2">  1       21 0.11202150E+00 0.45921505E+03</pdfrwt>
<totfact> 0.15038628E+03</totfact>
</mgrwt>
</event>
<event>
 4    1  0.4656822E-002  0.4931198E+03  0.7818608E-02  0.1015590E+00
         21   -1    0    0  501  502  0.00000000000E+00  0.00000000000E+00  0.11702992476E+04  0.11702992476E+04  0.00000000000E+00 0. -1.
         21   -1    0    0  502  503 -0.00000000000E+00 -0.00000000000E+00 -0.44396392479E+03  0.44396392479E+03  0.00000000000E+00 0. -1.
    9000007    1    1    2  501    0  0.59528629082E+02  0.28217639002E+03  0.95186732580E+03  0.10720161280E+04  0.40000000000E+03 0. -1.
   -9000007    1    1    2    0  503 -0.59528629082E+02 -0.28217639002E+03 -0.22553200300E+03  0.54224704438E+03  0.40000000000E+03 0. -1.
<mgrwt>
<rscale>  2 0.49311984E+03</rscale>
<asrwt>0</asrwt>
<pdfrwt beam="1">  1       21 0.18004604E+00 0.49311984E+03</pdfrwt>
<pdfrwt beam="2">  1       21 0.68302143E-01 0.49311984E+03</pdfrwt>
<totfact> 0.28504848E+02</totfact>
</mgrwt>
</event>
<event>
 4    1  0.4656822E-002  0.5253844E+03  0.7818608E-02  0.1007358E+00
         21   -1    0    0  503  502  0.00000000000E+00  0.00000000000E+00  0.52935590248E+03  0.52935590248E+03  0.00000000000E+00 0.  1.
         21   -1    0    0  501  503 -0.00000000000E+00 -0.00000000000E+00 -0.12478513204E+04  0.12478513204E+04  0.00000000000E+00 0. -1.
    9000007    1    1    2  501    0  0.25023740248E+03  0.23110605035E+03 -0.10372281281E+04  0.11626998554E+04  0.40000000000E+03 0. -1.
   -9000007    1    1    2    0  502 -0.25023740248E+03 -0.23110605035E+03  0.31873271017E+03  0.61450736744E+03  0.40000000000E+03 0.  1.
<mgrwt>
<rscale>  2 0.52538440E+03</rscale>
<asrwt>0</asrwt>
<pdfrwt beam="1">  1       21 0.81439369E-01 0.52538440E+03</pdfrwt>
<pdfrwt beam="2">  1       21 0.19197713E+00 0.52538440E+03</pdfrwt>
<totfact> 0.15522274E+02</totfact>
</mgrwt>
</event>
<event>
 4    1  0.4656822E-002  0.5254579E+03  0.7818608E-02  0.1007340E+00
         21   -1    0    0  503  502  0.00000000000E+00  0.00000000000E+00  0.89868276032E+03  0.89868276032E+03  0.00000000000E+00 0.  1.
         21   -1    0    0  501  503 -0.00000000000E+00 -0.00000000000E+00 -0.39765940762E+03  0.39765940762E+03  0.00000000000E+00 0. -1.
    9000007    1    1    2  501    0 -0.33877272948E+03  0.36592411345E+02 -0.58574141853E+02  0.52871248983E+03  0.40000000000E+03 0. -1.
   -9000007    1    1    2    0  502  0.33877272948E+03 -0.36592411345E+02  0.55959749455E+03  0.76762967811E+03  0.40000000000E+03 0.  1.
<mgrwt>
<rscale>  2 0.52545786E+03</rscale>
<asrwt>0</asrwt>
<pdfrwt beam="1">  1       21 0.13825889E+00 0.52545786E+03</pdfrwt>
<pdfrwt beam="2">  1       21 0.61178370E-01 0.52545786E+03</pdfrwt>
<totfact> 0.75029022E+02</totfact>
</mgrwt>
</event>
<event>
 4    1  0.4656822E-002  0.4619454E+03  0.7818608E-02  0.1024219E+00
         21   -1    0    0  501  502  0.00000000000E+00  0.00000000000E+00  0.10243688220E+04  0.10243688220E+04  0.00000000000E+00 0. -1.
         21   -1    0    0  502  503 -0.00000000000E+00 -0.00000000000E+00 -0.20834413245E+03  0.20834413245E+03  0.00000000000E+00 0. -1.
    9000007    1    1    2  501    0  0.14214840871E+03 -0.18217400856E+03  0.40099122661E+03  0.61170867520E+03  0.40000000000E+03 0. -1.
   -9000007    1    1    2    0  503 -0.14214840871E+03  0.18217400856E+03  0.41503346296E+03  0.62100427927E+03  0.40000000000E+03 0. -1.
<mgrwt>
<rscale>  2 0.46194539E+03</rscale>
<asrwt>0</asrwt>
<pdfrwt beam="1">  1       21 0.15759520E+00 0.46194539E+03</pdfrwt>
<pdfrwt beam="2">  1       21 0.32052944E-01 0.46194539E+03</pdfrwt>
<totfact> 0.20899972E+03</totfact>
</mgrwt>
</event>
<event>
 4    1  0.4656822E-002  0.4668172E+03  0.7818608E-02  0.1022822E+00
         21   -1    0    0  501  502  0.00000000000E+00  0.00000000000E+00  0.71118308989E+03  0.71118308989E+03  0.00000000000E+00 0.  1.
         21   -1    0    0  502  503 -0.00000000000E+00 -0.00000000000E+00 -0.50996327984E+03  0.50996327984E+03  0.00000000000E+00 0.  1.
    9000007    1    1    2  501    0  0.24045082555E+03  0.10086425192E+02  0.48635484595E+03  0.67413601866E+03  0.40000000000E+03 0.  1.
   -9000007    1    1    2    0  503 -0.24045082555E+03 -0.10086425192E+02 -0.28513503589E+03  0.54701035107E+03  0.40000000000E+03 0.  1.
<mgrwt>
<rscale>  2 0.46681724E+03</rscale>
<asrwt>0</asrwt>
<pdfrwt beam="1">  1       21 0.10941278E+00 0.46681724E+03</pdfrwt>
<pdfrwt beam="2">  1       21 0.78455890E-01 0.46681724E+03</pdfrwt>
<totfact> 0.79843417E+02</totfact>
</mgrwt>
</event>
<event>
 4    1  0.4656822E-002  0.5598311E+03  0.7818608E-02  0.9992437E-01
         21   -1    0    0  501  502  0.00000000000E+00  0.00000000000E+00  0.41188136837E+03  0.41188136837E+03  0.00000000000E+00 0.  1.
         21   -1    0    0  502  503 -0.00000000000E+00 -0.00000000000E+00 -0.80914160802E+03  0.80914160802E+03  0.00000000000E+00 0.  1.
    9000007    1    1    2  501    0  0.20469647134E+03  0.33393148799E+03 -0.49598194340E+02  0.56202390068E+03  0.40000000000E+03 0.  1.
   -9000007    1    1    2    0  503 -0.20469647134E+03 -0.33393148799E+03 -0.34766204530E+03  0.65899907572E+03  0.40000000000E+03 0.  1.
<mgrwt>
<rscale>  2 0.55983112E+03</rscale>
<asrwt>0</asrwt>
<pdfrwt beam="1">  1       21 0.63366365E-01 0.55983112E+03</pdfrwt>
<pdfrwt beam="2">  1       21 0.12448332E+00 0.55983112E+03</pdfrwt>
<totfact> 0.90255979E+02</totfact>
</mgrwt>
</event>
<event>
 4    1  0.4656822E-002  0.5071654E+03  0.7818608E-02  0.1011925E+00
         21   -1    0    0  501  502  0.00000000000E+00  0.00000000000E+00  0.68581008132E+03  0.68581008132E+03  0.00000000000E+00 0. -1.
         21   -1    0    0  502  503 -0.00000000000E+00 -0.00000000000E+00 -0.94874027858E+03  0.94874027858E+03  0.00000000000E+00 0.  1.
    9000007    1    1    2  501    0 -0.19015660387E+03  0.24709754538E+03  0.50405803782E+03  0.71504631767E+03  0.40000000000E+03 0. -1.
   -9000007    1    1    2    0  503  0.19015660387E+03 -0.24709754538E+03 -0.76698823507E+03  0.91950404222E+03  0.40000000000E+03 0.  1.
<mgrwt>
<rscale>  2 0.50716539E+03</rscale>
<asrwt>0</asrwt>
<pdfrwt beam="1">  1       21 0.10550924E+00 0.50716539E+03</pdfrwt>
<pdfrwt beam="2">  1       21 0.14596004E+00 0.50716539E+03</pdfrwt>
<totfact> 0.18391864E+02</totfact>
</mgrwt>
</event>
<event>
 4    1  0.4656822E-002  0.7135501E+03  0.7818608E-02  0.9694336E-01
         21   -1    0    0  503  502  0.00000000000E+00  0.00000000000E+00  0.90153384139E+03  0.90153384139E+03  0.00000000000E+00 0. -1.
         21   -1    0    0  501  503 -0.00000000000E+00 -0.00000000000E+00 -0.56485001096E+03  0.56485001096E+03  0.00000000000E+00 0.  1.
    9000007    1    1    2  501    0 -0.23500719692E+03 -0.54214884254E+03  0.17739571999E+03  0.73527069270E+03  0.40000000000E+03 0. -1.
   -9000007    1    1    2    0  502  0.23500719692E+03  0.54214884254E+03  0.15928811043E+03  0.73111315964E+03  0.40000000000E+03 0.  1.
<mgrwt>
<rscale>  2 0.71355010E+03</rscale>
<asrwt>0</asrwt>
<pdfrwt beam="1">  1       21 0.13869751E+00 0.71355010E+03</pdfrwt>
<pdfrwt beam="2">  1       21 0.86900002E-01 0.71355010E+03</pdfrwt>
<totfact> 0.31341501E+02</totfact>
</mgrwt>
</event>
<event>
 4    1  0.4656822E-002  0.4091187E+03  0.7818608E-02  0.1040667E+00
         21   -1    0    0  501  502  0.00000000000E+00  0.00000000000E+00  0.45222882596E+03  0.45222882596E+03  0.00000000000E+00 0.  1.
         21   -1    0    0  502  503 -0.00000000000E+00 -0.00000000000E+00 -0.42202945251E+03  0.42202945251E+03  0.00000000000E+00 0.  1.
    9000007    1    1    2  501    0  0.23348624282E+02 -0.82661476469E+02  0.16840934355E+03  0.44242489187E+03  0.40000000000E+03 0.  1.
   -9000007    1    1    2    0  503 -0.23348624282E+02  0.82661476469E+02 -0.13820997010E+03  0.43183338660E+03  0.40000000000E+03 0.  1.
<mgrwt>
<rscale>  2 0.40911866E+03</rscale>
<asrwt>0</asrwt>
<pdfrwt beam="1">  1       21 0.69573666E-01 0.40911866E+03</pdfrwt>
<pdfrwt beam="2">  1       21 0.64927608E-01 0.40911866E+03</pdfrwt>
<totfact> 0.36398432E+03</totfact>
</mgrwt>
</event>
<event>
 4    1  0.4656822E-002  0.5475803E+03  0.7818608E-02  0.1002056E+00
         21   -1    0    0  501  502  0.00000000000E+00  0.00000000000E+00  0.10379841582E+04  0.10379841582E+04  0.00000000000E+00 0.  1.
         21   -1    0    0  502  503 -0.00000000000E+00 -0.00000000000E+00 -0.32672569505E+03  0.32672569505E+03  0.00000000000E+00 0.  1.
    9000007    1    1    2  501    0 -0.14194880828E+02  0.37368797001E+03  0.58788946041E+03  0.80340413941E+03  0.40000000000E+03 0.  1.
   -9000007    1    1    2    0  503  0.14194880828E+02 -0.37368797001E+03  0.12336900277E+03  0.56130571386E+03  0.40000000000E+03 0.  1.
<mgrwt>
<rscale>  2 0.54758031E+03</rscale>
<asrwt>0</asrwt>
<pdfrwt beam="1">  1       21 0.15968987E+00 0.54758031E+03</pdfrwt>
<pdfrwt beam="2">  1       21 0.50265492E-01 0.54758031E+03</pdfrwt>
<totfact> 0.76960083E+02</totfact>
</mgrwt>
</event>
<event>
 4    1  0.4656822E-002  0.4315531E+03  0.7818608E-02  0.1033370E+00
         21   -1    0    0  503  502  0.00000000000E+00  0.00000000000E+00  0.75122921763E+03  0.75122921763E+03  0.00000000000E+00 0.  1.
         21   -1    0    0  501  503 -0.00000000000E+00 -0.00000000000E+00 -0.52076396680E+03  0.52076396680E+03  0.00000000000E+00 0.  1.
    9000007    1    1    2  501    0 -0.94053784598E+02  0.13187847231E+03 -0.34512845724E+03  0.55258637140E+03  0.40000000000E+03 0.  1.
   -9000007    1    1    2    0  502  0.94053784598E+02 -0.13187847231E+03  0.57559370808E+03  0.71940681303E+03  0.40000000000E+03 0.  1.
<mgrwt>
<rscale>  2 0.43155306E+03</rscale>
<asrwt>0</asrwt>
<pdfrwt beam="1">  1       21 0.11557373E+00 0.43155306E+03</pdfrwt>
<pdfrwt beam="2">  1       21 0.80117533E-01 0.43155306E+03</pdfrwt>
<totfact> 0.67394241E+02</totfact>
</mgrwt>
</event>
<event>
 4    1  0.4656822E-002  0.4075233E+03  0.7818608E-02  0.1041205E+00
         21   -1    0    0  501  502  0.00000000000E+00  0.00000000000E+00  0.35033285857E+03  0.35033285857E+03  0.00000000000E+00 0. -1.
         21   -1    0    0  502  503 -0.00000000000E+00 -0.00000000000E+00 -0.53285802659E+03  0.53285802659E+03  0.00000000000E+00 0. -1.
    9000007    1    1    2  501    0  0.46155852822E+02 -0.62808151527E+02  0.55440017157E+02  0.41127706251E+03  0.40000000000E+03 0. -1.
   -9000007    1    1    2    0  503 -0.46155852822E+02  0.62808151527E+02 -0.23796518518E+03  0.47191382265E+03  0.40000000000E+03 0. -1.
<mgrwt>
<rscale>  2 0.40752328E+03</rscale>
<asrwt>0</asrwt>
<pdfrwt beam="1">  1       21 0.53897363E-01 0.40752328E+03</pdfrwt>
<pdfrwt beam="2">  1       21 0.81978158E-01 0.40752328E+03</pdfrwt>
<totfact> 0.37613485E+03</totfact>
</mgrwt>
</event>
<event>
 4    1  0.4656822E-002  0.4419304E+03  0.7818608E-02  0.1030156E+00
         21   -1    0    0  501  502  0.00000000000E+00  0.00000000000E+00  0.52825673991E+03  0.52825673991E+03  0.00000000000E+00 0.  1.
         21   -1    0    0  502  503 -0.00000000000E+00 -0.00000000000E+00 -0.36975750751E+03  0.36975750751E+03  0.00000000000E+00 0.  1.
    9000007    1    1    2  501    0  0.18302404508E+03  0.42481259284E+02  0.84271841774E+02  0.44989354494E+03  0.40000000000E+03 0.  1.
   -9000007    1    1    2    0  503 -0.18302404508E+03 -0.42481259284E+02  0.74227390626E+02  0.44812070247E+03  0.40000000000E+03 0.  1.
<mgrwt>
<rscale>  2 0.44193038E+03</rscale>
<asrwt>0</asrwt>
<pdfrwt beam="1">  1       21 0.81270268E-01 0.44193038E+03</pdfrwt>
<pdfrwt beam="2">  1       21 0.56885770E-01 0.44193038E+03</pdfrwt>
<totfact> 0.33730149E+03</totfact>
</mgrwt>
</event>
<event>
 4    1  0.4656822E-002  0.6041141E+03  0.7818608E-02  0.9896907E-01
         21   -1    0    0  503  502  0.00000000000E+00  0.00000000000E+00  0.95610370474E+03  0.95610370474E+03  0.00000000000E+00 0.  1.
         21   -1    0    0  501  503 -0.00000000000E+00 -0.00000000000E+00 -0.62580917508E+03  0.62580917508E+03  0.00000000000E+00 0.  1.
    9000007    1    1    2  501    0 -0.35846068033E+03  0.27651366873E+03 -0.32883937444E+03  0.68781480249E+03  0.40000000000E+03 0.  1.
   -9000007    1    1    2    0  502  0.35846068033E+03 -0.27651366873E+03  0.65913390410E+03  0.89409807733E+03  0.40000000000E+03 0.  1.
<mgrwt>
<rscale>  2 0.60411412E+03</rscale>
<asrwt>0</asrwt>
<pdfrwt beam="1">  1       21 0.14709288E+00 0.60411412E+03</pdfrwt>
<pdfrwt beam="2">  1       21 0.96278335E-01 0.60411412E+03</pdfrwt>
<totfact> 0.21661967E+02</totfact>
</mgrwt>
</event>
<event>
 4    1  0.4656822E-002  0.5049574E+03  0.7818608E-02  0.1012493E+00
         21   -1    0    0  503  502  0.00000000000E+00  0.00000000000E+00  0.23120729143E+03  0.23120729143E+03  0.00000000000E+00 0. -1.
         21   -1    0    0  501  503 -0.00000000000E+00 -0.00000000000E+00 -0.11479275732E+04  0.11479275732E+04  0.00000000000E+00 0. -1.
    9000007    1    1    2  501    0  0.15194199078E+03 -0.26813358583E+03 -0.59503963046E+03  0.78041921442E+03  0.40000000000E+03 0. -1.
   -9000007    1    1    2    0  502 -0.15194199078E+03  0.26813358583E+03 -0.32168065135E+03  0.59871565026E+03  0.40000000000E+03 0. -1.
<mgrwt>
<rscale>  2 0.50495741E+03</rscale>
<asrwt>0</asrwt>
<pdfrwt beam="1">  1       21 0.35570352E-01 0.50495741E+03</pdfrwt>
<pdfrwt beam="2">  1       21 0.17660424E+00 0.50495741E+03</pdfrwt>
<totfact> 0.12058973E+03</totfact>
</mgrwt>
</event>
<event>
 4    1  0.4656822E-002  0.4265619E+03  0.7818608E-02  0.1034952E+00
         21   -1    0    0  501  502  0.00000000000E+00  0.00000000000E+00  0.69423922794E+03  0.69423922794E+03  0.00000000000E+00 0.  1.
         21   -1    0    0  502  503 -0.00000000000E+00 -0.00000000000E+00 -0.12983361909E+04  0.12983361909E+04  0.00000000000E+00 0.  1.
    9000007    1    1    2  501    0 -0.38200831894E+02  0.14316335008E+03  0.58801727865E+03  0.72644295602E+03  0.40000000000E+03 0.  1.
   -9000007    1    1    2    0  503  0.38200831894E+02 -0.14316335008E+03 -0.11921142416E+04  0.12661324628E+04  0.40000000000E+03 0.  1.
<mgrwt>
<rscale>  2 0.42656189E+03</rscale>
<asrwt>0</asrwt>
<pdfrwt beam="1">  1       21 0.10680604E+00 0.42656189E+03</pdfrwt>
<pdfrwt beam="2">  1       21 0.19974403E+00 0.42656189E+03</pdfrwt>
<totfact> 0.75789936E+01</totfact>
</mgrwt>
</event>
<event>
 4    1  0.4656822E-002  0.4982034E+03  0.7818608E-02  0.1014249E+00
         21   -1    0    0  503  502  0.00000000000E+00  0.00000000000E+00  0.51385827837E+03  0.51385827837E+03  0.00000000000E+00 0.  1.
         21   -1    0    0  501  503 -0.00000000000E+00 -0.00000000000E+00 -0.69364158987E+03  0.69364158987E+03  0.00000000000E+00 0. -1.
    9000007    1    1    2  501    0 -0.13882143334E+03 -0.26255511706E+03 -0.42257836494E+03  0.65328328799E+03  0.40000000000E+03 0. -1.
   -9000007    1    1    2    0  502  0.13882143334E+03  0.26255511706E+03  0.24279505345E+03  0.55421658025E+03  0.40000000000E+03 0.  1.
<mgrwt>
<rscale>  2 0.49820335E+03</rscale>
<asrwt>0</asrwt>
<pdfrwt beam="1">  1       21 0.79055120E-01 0.49820335E+03</pdfrwt>
<pdfrwt beam="2">  1       21 0.10671409E+00 0.49820335E+03</pdfrwt>
<totfact> 0.82428601E+02</totfact>
</mgrwt>
</event>
<event>
 4    1  0.4656822E-002  0.4922589E+03  0.7818608E-02  0.1015819E+00
         21   -1    0    0  501  502  0.00000000000E+00  0.00000000000E+00  0.12453530008E+04  0.12453530008E+04  0.00000000000E+00 0. -1.
         21   -1    0    0  502  503 -0.00000000000E+00 -0.00000000000E+00 -0.20507099939E+03  0.20507099939E+03  0.00000000000E+00 0. -1.
    9000007    1    1    2  501    0  0.27280138921E+03 -0.88871963361E+02  0.68418256933E+03  0.84286690052E+03  0.40000000000E+03 0. -1.
   -9000007    1    1    2    0  503 -0.27280138921E+03  0.88871963361E+02  0.35609943210E+03  0.60755709968E+03  0.40000000000E+03 0. -1.
<mgrwt>
<rscale>  2 0.49225890E+03</rscale>
<asrwt>0</asrwt>
<pdfrwt beam="1">  1       21 0.19159276E+00 0.49225890E+03</pdfrwt>
<pdfrwt beam="2">  1       21 0.31549386E-01 0.49225890E+03</pdfrwt>
<totfact> 0.12128016E+03</totfact>
</mgrwt>
</event>
<event>
 4    1  0.4656822E-002  0.4296792E+03  0.7818608E-02  0.1033961E+00
         21   -1    0    0  503  502  0.00000000000E+00  0.00000000000E+00  0.76972614896E+03  0.76972614896E+03  0.00000000000E+00 0. -1.
         21   -1    0    0  501  503 -0.00000000000E+00 -0.00000000000E+00 -0.34054121933E+03  0.34054121933E+03  0.00000000000E+00 0. -1.
    9000007    1    1    2  501    0 -0.55432945227E+02  0.14680400928E+03  0.51644398957E+03  0.67181740296E+03  0.40000000000E+03 0. -1.
   -9000007    1    1    2    0  502  0.55432945227E+02 -0.14680400928E+03 -0.87259059935E+02  0.43844996533E+03  0.40000000000E+03 0. -1.
<mgrwt>
<rscale>  2 0.42967922E+03</rscale>
<asrwt>0</asrwt>
<pdfrwt beam="1">  1       21 0.11841941E+00 0.42967922E+03</pdfrwt>
<pdfrwt beam="2">  1       21 0.52390957E-01 0.42967922E+03</pdfrwt>
<totfact> 0.16296847E+03</totfact>
</mgrwt>
</event>
<event>
 4    1  0.4656822E-002  0.4706636E+03  0.7818608E-02  0.1021733E+00
         21   -1    0    0  501  502  0.00000000000E+00  0.00000000000E+00  0.14351291057E+04  0.14351291057E+04  0.00000000000E+00 0.  1.
         21   -1    0    0  502  503 -0.00000000000E+00 -0.00000000000E+00 -0.33099650023E+03  0.33099650023E+03  0.00000000000E+00 0.  1.
    9000007    1    1    2  501    0  0.92767465980E+02 -0.23004001839E+03  0.11971589622E+04  0.12863567909E+04  0.40000000000E+03 0.  1.
   -9000007    1    1    2    0  503 -0.92767465980E+02  0.23004001839E+03 -0.93026356727E+02  0.47976881500E+03  0.40000000000E+03 0.  1.
<mgrwt>
<rscale>  2 0.47066359E+03</rscale>
<asrwt>0</asrwt>
<pdfrwt beam="1">  1       21 0.22078909E+00 0.47066359E+03</pdfrwt>
<pdfrwt beam="2">  1       21 0.50922539E-01 0.47066359E+03</pdfrwt>
<totfact> 0.29234918E+02</totfact>
</mgrwt>
</event>
<event>
 4    1  0.4656822E-002  0.4750815E+03  0.7818608E-02  0.1020496E+00
         21   -1    0    0  501  502  0.00000000000E+00  0.00000000000E+00  0.31144319045E+03  0.31144319045E+03  0.00000000000E+00 0. -1.
         21   -1    0    0  502  503 -0.00000000000E+00 -0.00000000000E+00 -0.72891947682E+03  0.72891947682E+03  0.00000000000E+00 0. -1.
    9000007    1    1    2  501    0  0.24378036709E+03 -0.79205927184E+02 -0.24832180478E+03  0.53606544844E+03  0.40000000000E+03 0. -1.
   -9000007    1    1    2    0  503 -0.24378036709E+03  0.79205927184E+02 -0.16915448159E+03  0.50429721883E+03  0.40000000000E+03 0. -1.
<mgrwt>
<rscale>  2 0.47508152E+03</rscale>
<asrwt>0</asrwt>
<pdfrwt beam="1">  1       21 0.47914337E-01 0.47508152E+03</pdfrwt>
<pdfrwt beam="2">  1       21 0.11214146E+00 0.47508152E+03</pdfrwt>
<totfact> 0.22197702E+03</totfact>
</mgrwt>
</event>
<event>
 4    1  0.4656822E-002  0.4689364E+03  0.7818608E-02  0.1022221E+00
         21   -1    0    0  503  502  0.00000000000E+00  0.00000000000E+00  0.77711835451E+03  0.77711835451E+03  0.00000000000E+00 0. -1.
         21   -1    0    0  501  503 -0.00000000000E+00 -0.00000000000E+00 -0.48462081327E+03  0.48462081327E+03  0.00000000000E+00 0.  1.
    9000007    1    1    2  501    0  0.16289449076E+03 -0.18266572528E+03 -0.26069861982E+03  0.53653066333E+03  0.40000000000E+03 0.  1.
   -9000007    1    1    2    0  502 -0.16289449076E+03  0.18266572528E+03  0.55319616106E+03  0.72520850445E+03  0.40000000000E+03 0. -1.
<mgrwt>
<rscale>  2 0.46893644E+03</rscale>
<asrwt>0</asrwt>
<pdfrwt beam="1">  1       21 0.11955667E+00 0.46893644E+03</pdfrwt>
<pdfrwt beam="2">  1       21 0.74557048E-01 0.46893644E+03</pdfrwt>
<totfact> 0.71806139E+02</totfact>
</mgrwt>
</event>
<event>
 4    1  0.4656822E-002  0.4543070E+03  0.7818608E-02  0.1026445E+00
         21   -1    0    0  503  502  0.00000000000E+00  0.00000000000E+00  0.23311925373E+03  0.23311925373E+03  0.00000000000E+00 0. -1.
         21   -1    0    0  501  503 -0.00000000000E+00 -0.00000000000E+00 -0.10614629987E+04  0.10614629987E+04  0.00000000000E+00 0. -1.
    9000007    1    1    2  501    0  0.18581443038E+03  0.10893955558E+03 -0.67782240856E+03  0.81598899922E+03  0.40000000000E+03 0. -1.
   -9000007    1    1    2    0  502 -0.18581443038E+03 -0.10893955558E+03 -0.15052133643E+03  0.47859325322E+03  0.40000000000E+03 0. -1.
<mgrwt>
<rscale>  2 0.45430698E+03</rscale>
<asrwt>0</asrwt>
<pdfrwt beam="1">  1       21 0.35864500E-01 0.45430698E+03</pdfrwt>
<pdfrwt beam="2">  1       21 0.16330200E+00 0.45430698E+03</pdfrwt>
<totfact> 0.15133853E+03</totfact>
</mgrwt>
</event>
<event>
 4    1  0.4656822E-002  0.4134241E+03  0.7818608E-02  0.1039228E+00
         21   -1    0    0  503  502  0.00000000000E+00  0.00000000000E+00  0.81704643300E+02  0.81704643300E+02  0.00000000000E+00 0.  1.
         21   -1    0    0  501  503 -0.00000000000E+00 -0.00000000000E+00 -0.29815504023E+04  0.29815504023E+04  0.00000000000E+00 0.  1.
    9000007    1    1    2  501    0  0.80751424371E+02  0.66322898468E+02 -0.22865598762E+04  0.23236341336E+04  0.40000000000E+03 0.  1.
   -9000007    1    1    2    0  502 -0.80751424371E+02 -0.66322898468E+02 -0.61328588271E+03  0.73962091191E+03  0.40000000000E+03 0.  1.
<mgrwt>
<rscale>  2 0.41342414E+03</rscale>
<asrwt>0</asrwt>
<pdfrwt beam="1">  1       21 0.12569947E-01 0.41342414E+03</pdfrwt>
<pdfrwt beam="2">  1       21 0.45870000E+00 0.41342414E+03</pdfrwt>
<totfact> 0.15226554E+02</totfact>
</mgrwt>
</event>
<event>
 4    1  0.4656822E-002  0.4395598E+03  0.7818608E-02  0.1030882E+00
         21   -1    0    0  501  502  0.00000000000E+00  0.00000000000E+00  0.10222087680E+04  0.10222087680E+04  0.00000000000E+00 0.  1.
         21   -1    0    0  502  503 -0.00000000000E+00 -0.00000000000E+00 -0.22022519393E+03  0.22022519393E+03  0.00000000000E+00 0.  1.
    9000007    1    1    2  501    0  0.13813158698E+03 -0.11888000139E+03  0.63485292215E+03  0.77217292287E+03  0.40000000000E+03 0.  1.
   -9000007    1    1    2    0  503 -0.13813158698E+03  0.11888000139E+03  0.16713065194E+03  0.47026103907E+03  0.40000000000E+03 0.  1.
<mgrwt>
<rscale>  2 0.43955977E+03</rscale>
<asrwt>0</asrwt>
<pdfrwt beam="1">  1       21 0.15726289E+00 0.43955977E+03</pdfrwt>
<pdfrwt beam="2">  1       21 0.33880800E-01 0.43955977E+03</pdfrwt>
<totfact> 0.18975277E+03</totfact>
</mgrwt>
</event>
<event>
 4    1  0.4656822E-002  0.4210650E+03  0.7818608E-02  0.1036720E+00
         21   -1    0    0  501  502  0.00000000000E+00  0.00000000000E+00  0.81033172893E+03  0.81033172893E+03  0.00000000000E+00 0. -1.
         21   -1    0    0  502  503 -0.00000000000E+00 -0.00000000000E+00 -0.30208680724E+03  0.30208680724E+03  0.00000000000E+00 0. -1.
    9000007    1    1    2  501    0  0.13063029713E+03 -0.15212791190E+02  0.54618519414E+03  0.68964771430E+03  0.40000000000E+03 0.  1.
   -9000007    1    1    2    0  503 -0.13063029713E+03  0.15212791190E+02 -0.37940272453E+02  0.42277082186E+03  0.40000000000E+03 0.  1.
<mgrwt>
<rscale>  2 0.42106496E+03</rscale>
<asrwt>0</asrwt>
<pdfrwt beam="1">  1       21 0.12466642E+00 0.42106496E+03</pdfrwt>
<pdfrwt beam="2">  1       21 0.46474894E-01 0.42106496E+03</pdfrwt>
<totfact> 0.18494635E+03</totfact>
</mgrwt>
</event>
<event>
 4    1  0.4656822E-002  0.4387302E+03  0.7818608E-02  0.1031137E+00
         21   -1    0    0  503  502  0.00000000000E+00  0.00000000000E+00  0.15666767500E+03  0.15666767500E+03  0.00000000000E+00 0.  1.
         21   -1    0    0  501  503 -0.00000000000E+00 -0.00000000000E+00 -0.12849448331E+04  0.12849448331E+04  0.00000000000E+00 0.  1.
    9000007    1    1    2  501    0  0.15821594997E+03  0.86324640713E+02 -0.41321880208E+03  0.60268898182E+03  0.40000000000E+03 0.  1.
   -9000007    1    1    2    0  502 -0.15821594997E+03 -0.86324640713E+02 -0.71505835600E+03  0.83892352625E+03  0.40000000000E+03 0.  1.
<mgrwt>
<rscale>  2 0.43873025E+03</rscale>
<asrwt>0</asrwt>
<pdfrwt beam="1">  1       21 0.24102720E-01 0.43873025E+03</pdfrwt>
<pdfrwt beam="2">  1       21 0.19768381E+00 0.43873025E+03</pdfrwt>
<totfact> 0.19169833E+03</totfact>
</mgrwt>
</event>
<event>
 4    1  0.4656822E-002  0.4047767E+03  0.7818608E-02  0.1042138E+00
         21   -1    0    0  503  502  0.00000000000E+00  0.00000000000E+00  0.11161131600E+04  0.11161131600E+04  0.00000000000E+00 0.  1.
         21   -1    0    0  501  503 -0.00000000000E+00 -0.00000000000E+00 -0.16728418857E+03  0.16728418857E+03  0.00000000000E+00 0.  1.
    9000007    1    1    2  501    0  0.51233176006E+02  0.34919122234E+02  0.24985844360E+03  0.47568206321E+03  0.40000000000E+03 0.  1.
   -9000007    1    1    2    0  502 -0.51233176006E+02 -0.34919122234E+02  0.69897052782E+03  0.80771528534E+03  0.40000000000E+03 0.  1.
<mgrwt>
<rscale>  2 0.40477671E+03</rscale>
<asrwt>0</asrwt>
<pdfrwt beam="1">  1       21 0.17170971E+00 0.40477671E+03</pdfrwt>
<pdfrwt beam="2">  1       21 0.25736030E-01 0.40477671E+03</pdfrwt>
<totfact> 0.25943469E+03</totfact>
</mgrwt>
</event>
<event>
 4    1  0.4656822E-002  0.4265557E+03  0.7818608E-02  0.1034954E+00
         21   -1    0    0  503  502  0.00000000000E+00  0.00000000000E+00  0.69420583694E+03  0.69420583694E+03  0.00000000000E+00 0. -1.
         21   -1    0    0  501  503 -0.00000000000E+00 -0.00000000000E+00 -0.26674523536E+03  0.26674523536E+03  0.00000000000E+00 0. -1.
    9000007    1    1    2  501    0  0.60163027632E+01  0.14803244757E+03  0.15030959818E+03  0.45226405643E+03  0.40000000000E+03 0. -1.
   -9000007    1    1    2    0  502 -0.60163027632E+01 -0.14803244757E+03  0.27715100340E+03  0.50868701587E+03  0.40000000000E+03 0. -1.
<mgrwt>
<rscale>  2 0.42655574E+03</rscale>
<asrwt>0</asrwt>
<pdfrwt beam="1">  1       21 0.10680090E+00 0.42655574E+03</pdfrwt>
<pdfrwt beam="2">  1       21 0.41037729E-01 0.42655574E+03</pdfrwt>
<totfact> 0.35251414E+03</totfact>
</mgrwt>
</event>
<event>
 4    1  0.4656822E-002  0.4088781E+03  0.7818608E-02  0.1040748E+00
         21   -1    0    0  501  502  0.00000000000E+00  0.00000000000E+00  0.13977396307E+04  0.13977396307E+04  0.00000000000E+00 0.  1.
         21   -1    0    0  502  503 -0.00000000000E+00 -0.00000000000E+00 -0.12110262507E+03  0.12110262507E+03  0.00000000000E+00 0.  1.
    9000007    1    1    2  501    0 -0.83092384435E+02  0.16642747734E+02  0.72267562375E+03  0.83032607003E+03  0.40000000000E+03 0.  1.
   -9000007    1    1    2    0  503  0.83092384435E+02 -0.16642747734E+02  0.55396138188E+03  0.68851618573E+03  0.40000000000E+03 0.  1.
<mgrwt>
<rscale>  2 0.40887813E+03</rscale>
<asrwt>0</asrwt>
<pdfrwt beam="1">  1       21 0.21503685E+00 0.40887813E+03</pdfrwt>
<pdfrwt beam="2">  1       21 0.18631174E-01 0.40887813E+03</pdfrwt>
<totfact> 0.24461500E+03</totfact>
</mgrwt>
</event>
<event>
 4    1  0.4656822E-002  0.4176273E+03  0.7818608E-02  0.1037841E+00
         21   -1    0    0  501  502  0.00000000000E+00  0.00000000000E+00  0.19520660765E+03  0.19520660765E+03  0.00000000000E+00 0.  1.
         21   -1    0    0  502  503 -0.00000000000E+00 -0.00000000000E+00 -0.15481612735E+04  0.15481612735E+04  0.00000000000E+00 0.  1.
    9000007    1    1    2  501    0 -0.11692713777E+03 -0.27214581526E+02 -0.10962891067E+03  0.43177666339E+03  0.40000000000E+03 0.  1.
   -9000007    1    1    2    0  503  0.11692713777E+03  0.27214581526E+02 -0.12433257552E+04  0.13115912178E+04  0.40000000000E+03 0.  1.
<mgrwt>
<rscale>  2 0.41762733E+03</rscale>
<asrwt>0</asrwt>
<pdfrwt beam="1">  1       21 0.30031786E-01 0.41762733E+03</pdfrwt>
<pdfrwt beam="2">  1       21 0.23817865E+00 0.41762733E+03</pdfrwt>
<totfact> 0.69161726E+02</totfact>
</mgrwt>
</event>
<event>
 4    1  0.4656822E-002  0.4648686E+03  0.7818608E-02  0.1023379E+00
         21   -1    0    0  503  502  0.00000000000E+00  0.00000000000E+00  0.50140010633E+03  0.50140010633E+03  0.00000000000E+00 0.  1.
         21   -1    0    0  501  503 -0.00000000000E+00 -0.00000000000E+00 -0.55493293023E+03  0.55493293023E+03  0.00000000000E+00 0.  1.
    9000007    1    1    2  501    0  0.81710031763E+02 -0.22232027420E+03  0.22283447066E+03  0.51551724988E+03  0.40000000000E+03 0.  1.
   -9000007    1    1    2    0  502 -0.81710031763E+02  0.22232027420E+03 -0.27636729456E+03  0.54081578667E+03  0.40000000000E+03 0.  1.
<mgrwt>
<rscale>  2 0.46486862E+03</rscale>
<asrwt>0</asrwt>
<pdfrwt beam="1">  1       21 0.77138478E-01 0.46486862E+03</pdfrwt>
<pdfrwt beam="2">  1       21 0.85374297E-01 0.46486862E+03</pdfrwt>
<totfact> 0.15114919E+03</totfact>
</mgrwt>
</event>
<event>
 4    1  0.4656822E-002  0.4680590E+03  0.7818608E-02  0.1022469E+00
         21   -1    0    0  503  502  0.00000000000E+00  0.00000000000E+00  0.26144750538E+03  0.26144750538E+03  0.00000000000E+00 0.  1.
         21   -1    0    0  501  503 -0.00000000000E+00 -0.00000000000E+00 -0.99610101029E+03  0.99610101029E+03  0.00000000000E+00 0.  1.
    9000007    1    1    2  501    0  0.24756544721E+02  0.24179820083E+03 -0.61786995423E+03  0.77514033359E+03  0.40000000000E+03 0.  1.
   -9000007    1    1    2    0  502 -0.24756544721E+02 -0.24179820083E+03 -0.11678355068E+03  0.48240818208E+03  0.40000000000E+03 0.  1.
<mgrwt>
<rscale>  2 0.46805903E+03</rscale>
<asrwt>0</asrwt>
<pdfrwt beam="1">  1       21 0.40222693E-01 0.46805903E+03</pdfrwt>
<pdfrwt beam="2">  1       21 0.15324631E+00 0.46805903E+03</pdfrwt>
<totfact> 0.14197693E+03</totfact>
</mgrwt>
</event>
<event>
 4    1  0.4656822E-002  0.4233145E+03  0.7818608E-02  0.1035993E+00
         21   -1    0    0  503  502  0.00000000000E+00  0.00000000000E+00  0.91754164956E+03  0.91754164956E+03  0.00000000000E+00 0.  1.
         21   -1    0    0  501  503 -0.00000000000E+00 -0.00000000000E+00 -0.19582895057E+03  0.19582895057E+03  0.00000000000E+00 0.  1.
    9000007    1    1    2  501    0 -0.13290638024E+03 -0.39128525473E+02  0.38981032699E+03  0.57545394120E+03  0.40000000000E+03 0.  1.
   -9000007    1    1    2    0  502  0.13290638024E+03  0.39128525473E+02  0.33190237201E+03  0.53791665894E+03  0.40000000000E+03 0.  1.
<mgrwt>
<rscale>  2 0.42331448E+03</rscale>
<asrwt>0</asrwt>
<pdfrwt beam="1">  1       21 0.14116025E+00 0.42331448E+03</pdfrwt>
<pdfrwt beam="2">  1       21 0.30127531E-01 0.42331448E+03</pdfrwt>
<totfact> 0.32363589E+03</totfact>
</mgrwt>
</event>
<event>
 4    1  0.4656822E-002  0.4162525E+03  0.7818608E-02  0.1038293E+00
         21   -1    0    0  503  502  0.00000000000E+00  0.00000000000E+00  0.34873385926E+03  0.34873385926E+03  0.00000000000E+00 0. -1.
         21   -1    0    0  501  503 -0.00000000000E+00 -0.00000000000E+00 -0.64745282447E+03  0.64745282447E+03  0.00000000000E+00 0. -1.
    9000007    1    1    2  501    0 -0.11433047793E+03  0.13952423031E+02 -0.38959250022E+03  0.57013019962E+03  0.40000000000E+03 0. -1.
   -9000007    1    1    2    0  502  0.11433047793E+03 -0.13952423031E+02  0.90873535003E+02  0.42605648411E+03  0.40000000000E+03 0. -1.
<mgrwt>
<rscale>  2 0.41625248E+03</rscale>
<asrwt>0</asrwt>
<pdfrwt beam="1">  1       21 0.53651363E-01 0.41625248E+03</pdfrwt>
<pdfrwt beam="2">  1       21 0.99608126E-01 0.41625248E+03</pdfrwt>
<totfact> 0.23877157E+03</totfact>
</mgrwt>
</event>
<event>
 4    1  0.4656822E-002  0.5545302E+03  0.7818608E-02  0.1000451E+00
         21   -1    0    0  503  502  0.00000000000E+00  0.00000000000E+00  0.11968973518E+04  0.11968973518E+04  0.00000000000E+00 0.  1.
         21   -1    0    0  501  503 -0.00000000000E+00 -0.00000000000E+00 -0.25973910705E+03  0.25973910705E+03  0.00000000000E+00 0.  1.
    9000007    1    1    2  501    0 -0.11242087628E+02  0.38389754107E+03  0.39266691361E+03  0.67947848503E+03  0.40000000000E+03 0.  1.
   -9000007    1    1    2    0  502  0.11242087628E+02 -0.38389754107E+03  0.54449133112E+03  0.77715797380E+03  0.40000000000E+03 0.  1.
<mgrwt>
<rscale>  2 0.55453017E+03</rscale>
<asrwt>0</asrwt>
<pdfrwt beam="1">  1       21 0.18413805E+00 0.55453017E+03</pdfrwt>
<pdfrwt beam="2">  1       21 0.39959863E-01 0.55453017E+03</pdfrwt>
<totfact> 0.82470467E+02</totfact>
</mgrwt>
</event>
<event>
 4    1  0.4656822E-002  0.4834232E+03  0.7818608E-02  0.1018199E+00
         21   -1    0    0  501  502  0.00000000000E+00  0.00000000000E+00  0.35719578171E+03  0.35719578171E+03  0.00000000000E+00 0. -1.
         21   -1    0    0  502  503 -0.00000000000E+00 -0.00000000000E+00 -0.65852561111E+03  0.65852561111E+03  0.00000000000E+00 0.  1.
    9000007    1    1    2  501    0  0.27122525404E+03  0.11613063719E+02 -0.10977853886E+03  0.49573110581E+03  0.40000000000E+03 0.  1.
   -9000007    1    1    2    0  503 -0.27122525404E+03 -0.11613063719E+02 -0.19155129053E+03  0.51999028700E+03  0.40000000000E+03 0. -1.
<mgrwt>
<rscale>  2 0.48342321E+03</rscale>
<asrwt>0</asrwt>
<pdfrwt beam="1">  1       21 0.54953198E-01 0.48342321E+03</pdfrwt>
<pdfrwt beam="2">  1       21 0.10131163E+00 0.48342321E+03</pdfrwt>
<totfact> 0.21219394E+03</totfact>
</mgrwt>
</event>
<event>
 4    1  0.4656822E-002  0.4664475E+03  0.7818608E-02  0.1022928E+00
         21   -1    0    0  501  502  0.00000000000E+00  0.00000000000E+00  0.71391457364E+03  0.71391457364E+03  0.00000000000E+00 0. -1.
         21   -1    0    0  502  503 -0.00000000000E+00 -0.00000000000E+00 -0.74662597664E+03  0.74662597664E+03  0.00000000000E+00 0.  1.
    9000007    1    1    2  501    0 -0.13425622356E+03  0.19886824968E+03  0.54543800397E+03  0.71768790604E+03  0.40000000000E+03 0. -1.
   -9000007    1    1    2    0  503  0.13425622356E+03 -0.19886824968E+03 -0.57814940696E+03  0.74285264425E+03  0.40000000000E+03 0.  1.
<mgrwt>
<rscale>  2 0.46644755E+03</rscale>
<asrwt>0</asrwt>
<pdfrwt beam="1">  1       21 0.10983301E+00 0.46644755E+03</pdfrwt>
<pdfrwt beam="2">  1       21 0.11486553E+00 0.46644755E+03</pdfrwt>
<totfact> 0.31647216E+02</totfact>
</mgrwt>
</event>
<event>
 4    1  0.4656822E-002  0.4292598E+03  0.7818608E-02  0.1034094E+00
         21   -1    0    0  503  502  0.00000000000E+00  0.00000000000E+00  0.55534516025E+03  0.55534516025E+03  0.00000000000E+00 0.  1.
         21   -1    0    0  501  503 -0.00000000000E+00 -0.00000000000E+00 -0.47410904362E+03  0.47410904362E+03  0.00000000000E+00 0. -1.
    9000007    1    1    2  501    0 -0.45915710656E+02  0.14884805297E+03 -0.24138438514E+03  0.49247377265E+03  0.40000000000E+03 0. -1.
   -9000007    1    1    2    0  502  0.45915710656E+02 -0.14884805297E+03  0.32262050177E+03  0.53698043123E+03  0.40000000000E+03 0.  1.
<mgrwt>
<rscale>  2 0.42925982E+03</rscale>
<asrwt>0</asrwt>
<pdfrwt beam="1">  1       21 0.85437717E-01 0.42925982E+03</pdfrwt>
<pdfrwt beam="2">  1       21 0.72939853E-01 0.42925982E+03</pdfrwt>
<totfact> 0.17382134E+03</totfact>
</mgrwt>
</event>
<event>
 4    1  0.4656822E-002  0.4451857E+03  0.7818608E-02  0.1029168E+00
         21   -1    0    0  501  502  0.00000000000E+00  0.00000000000E+00  0.92530243516E+03  0.92530243516E+03  0.00000000000E+00 0.  1.
         21   -1    0    0  502  503 -0.00000000000E+00 -0.00000000000E+00 -0.26019797576E+03  0.26019797576E+03  0.00000000000E+00 0.  1.
    9000007    1    1    2  501    0  0.15856710380E+03  0.11422243048E+03  0.58180358938E+03  0.73258836098E+03  0.40000000000E+03 0.  1.
   -9000007    1    1    2    0  503 -0.15856710380E+03 -0.11422243048E+03  0.83300870012E+02  0.45291204994E+03  0.40000000000E+03 0.  1.
<mgrwt>
<rscale>  2 0.44518568E+03</rscale>
<asrwt>0</asrwt>
<pdfrwt beam="1">  1       21 0.14235422E+00 0.44518568E+03</pdfrwt>
<pdfrwt beam="2">  1       21 0.40030458E-01 0.44518568E+03</pdfrwt>
<totfact> 0.17664031E+03</totfact>
</mgrwt>
</event>
<event>
 4    1  0.4656822E-002  0.4227826E+03  0.7818608E-02  0.1036164E+00
         21   -1    0    0  503  502  0.00000000000E+00  0.00000000000E+00  0.49514561580E+03  0.49514561580E+03  0.00000000000E+00 0.  1.
         21   -1    0    0  501  503 -0.00000000000E+00 -0.00000000000E+00 -0.36603337193E+03  0.36603337193E+03  0.00000000000E+00 0. -1.
    9000007    1    1    2  501    0 -0.57700382705E+02  0.12416019326E+03  0.11507439919E+03  0.43816344565E+03  0.40000000000E+03 0.  1.
   -9000007    1    1    2    0  502  0.57700382705E+02 -0.12416019326E+03  0.14037844675E+02  0.42301554208E+03  0.40000000000E+03 0.  1.
<mgrwt>
<rscale>  2 0.42278255E+03</rscale>
<asrwt>0</asrwt>
<pdfrwt beam="1">  1       21 0.76176249E-01 0.42278255E+03</pdfrwt>
<pdfrwt beam="2">  1       21 0.56312826E-01 0.42278255E+03</pdfrwt>
<totfact> 0.40288604E+03</totfact>
</mgrwt>
</event>
<event>
 4    1  0.4656822E-002  0.4333588E+03  0.7818608E-02  0.1032804E+00
         21   -1    0    0  501  502  0.00000000000E+00  0.00000000000E+00  0.13081294703E+04  0.13081294703E+04  0.00000000000E+00 0.  1.
         21   -1    0    0  502  503 -0.00000000000E+00 -0.00000000000E+00 -0.15965876586E+03  0.15965876586E+03  0.00000000000E+00 0.  1.
    9000007    1    1    2  501    0  0.27838771078E+02 -0.16439225344E+03  0.80725063134E+03  0.91621689133E+03  0.40000000000E+03 0.  1.
   -9000007    1    1    2    0  503 -0.27838771078E+02  0.16439225344E+03  0.34122007314E+03  0.55157134487E+03  0.40000000000E+03 0.  1.
<mgrwt>
<rscale>  2 0.43335875E+03</rscale>
<asrwt>0</asrwt>
<pdfrwt beam="1">  1       21 0.20125068E+00 0.43335875E+03</pdfrwt>
<pdfrwt beam="2">  1       21 0.24562888E-01 0.43335875E+03</pdfrwt>
<totfact> 0.17535961E+03</totfact>
</mgrwt>
</event>
<event>
 4    1  0.4656822E-002  0.4113547E+03  0.7818608E-02  0.1039917E+00
         21   -1    0    0  501  502  0.00000000000E+00  0.00000000000E+00  0.27099570428E+03  0.27099570428E+03  0.00000000000E+00 0.  1.
         21   -1    0    0  502  503 -0.00000000000E+00 -0.00000000000E+00 -0.75695556363E+03  0.75695556363E+03  0.00000000000E+00 0.  1.
    9000007    1    1    2  501    0 -0.76601346378E+02  0.57835090473E+02 -0.27905634616E+02  0.41230011933E+03  0.40000000000E+03 0.  1.
   -9000007    1    1    2    0  503  0.76601346378E+02 -0.57835090473E+02 -0.45805422473E+03  0.61565114858E+03  0.40000000000E+03 0.  1.
<mgrwt>
<rscale>  2 0.41135467E+03</rscale>
<asrwt>0</asrwt>
<pdfrwt beam="1">  1       21 0.41691648E-01 0.41135467E+03</pdfrwt>
<pdfrwt beam="2">  1       21 0.11645470E+00 0.41135467E+03</pdfrwt>
<totfact> 0.27683514E+03</totfact>
</mgrwt>
</event>
<event>
 4    1  0.4656822E-002  0.4560506E+03  0.7818608E-02  0.1025933E+00
         21   -1    0    0  503  502  0.00000000000E+00  0.00000000000E+00  0.12512925794E+04  0.12512925794E+04  0.00000000000E+00 0.  1.
         21   -1    0    0  501  503 -0.00000000000E+00 -0.00000000000E+00 -0.16957275246E+03  0.16957275246E+03  0.00000000000E+00 0.  1.
    9000007    1    1    2  501    0 -0.19574462084E+03  0.98316991943E+02  0.44087326448E+03  0.63431177100E+03  0.40000000000E+03 0.  1.
   -9000007    1    1    2    0  502  0.19574462084E+03 -0.98316991943E+02  0.64084656248E+03  0.78655356088E+03  0.40000000000E+03 0.  1.
<mgrwt>
<rscale>  2 0.45605064E+03</rscale>
<asrwt>0</asrwt>
<pdfrwt beam="1">  1       21 0.19250655E+00 0.45605064E+03</pdfrwt>
<pdfrwt beam="2">  1       21 0.26088116E-01 0.45605064E+03</pdfrwt>
<totfact> 0.17678983E+03</totfact>
</mgrwt>
</event>
<event>
 4    1  0.4656822E-002  0.4037395E+03  0.7818608E-02  0.1042492E+00
         21   -1    0    0  503  502  0.00000000000E+00  0.00000000000E+00  0.12794111660E+04  0.12794111660E+04  0.00000000000E+00 0. -1.
         21   -1    0    0  501  503 -0.00000000000E+00 -0.00000000000E+00 -0.16362650304E+03  0.16362650304E+03  0.00000000000E+00 0. -1.
    9000007    1    1    2  501    0  0.39005610855E+02  0.38524359332E+02  0.89735642678E+03  0.98399904503E+03  0.40000000000E+03 0. -1.
   -9000007    1    1    2    0  502 -0.39005610855E+02 -0.38524359332E+02  0.21842823613E+03  0.45903862395E+03  0.40000000000E+03 0. -1.
<mgrwt>
<rscale>  2 0.40373948E+03</rscale>
<asrwt>0</asrwt>
<pdfrwt beam="1">  1       21 0.19683248E+00 0.40373948E+03</pdfrwt>
<pdfrwt beam="2">  1       21 0.25173309E-01 0.40373948E+03</pdfrwt>
<totfact> 0.18141056E+03</totfact>
</mgrwt>
</event>
<event>
 4    1  0.4656822E-002  0.4179418E+03  0.7818608E-02  0.1037738E+00
         21   -1    0    0  503  502  0.00000000000E+00  0.00000000000E+00  0.19063619324E+03  0.19063619324E+03  0.00000000000E+00 0.  1.
         21   -1    0    0  501  503 -0.00000000000E+00 -0.00000000000E+00 -0.98790910106E+03  0.98790910106E+03  0.00000000000E+00 0.  1.
    9000007    1    1    2  501    0  0.45984772316E+02  0.11207464333E+03 -0.55731395756E+03  0.69661623025E+03  0.40000000000E+03 0.  1.
   -9000007    1    1    2    0  502 -0.45984772316E+02 -0.11207464333E+03 -0.23995895026E+03  0.48192906405E+03  0.40000000000E+03 0.  1.
<mgrwt>
<rscale>  2 0.41794177E+03</rscale>
<asrwt>0</asrwt>
<pdfrwt beam="1">  1       21 0.29328645E-01 0.41794177E+03</pdfrwt>
<pdfrwt beam="2">  1       21 0.15198602E+00 0.41794177E+03</pdfrwt>
<totfact> 0.28040004E+03</totfact>
</mgrwt>
</event>
<event>
 4    1  0.4656822E-002  0.5187300E+03  0.7818608E-02  0.1009003E+00
         21   -1    0    0  503  502  0.00000000000E+00  0.00000000000E+00  0.17441932845E+04  0.17441932845E+04  0.00000000000E+00 0. -1.
         21   -1    0    0  501  503 -0.00000000000E+00 -0.00000000000E+00 -0.16742288527E+03  0.16742288527E+03  0.00000000000E+00 0. -1.
    9000007    1    1    2  501    0 -0.22931487271E+03 -0.23768789398E+03  0.52050874603E+03  0.73485386335E+03  0.40000000000E+03 0. -1.
   -9000007    1    1    2    0  502  0.22931487271E+03  0.23768789398E+03  0.10562616532E+04  0.11767623064E+04  0.40000000000E+03 0. -1.
<mgrwt>
<rscale>  2 0.51873003E+03</rscale>
<asrwt>0</asrwt>
<pdfrwt beam="1">  1       21 0.26833742E+00 0.51873003E+03</pdfrwt>
<pdfrwt beam="2">  1       21 0.25757368E-01 0.51873003E+03</pdfrwt>
<totfact> 0.58099681E+02</totfact>
</mgrwt>
</event>
<event>
 4    1  0.4656822E-002  0.5121377E+03  0.7818608E-02  0.1010658E+00
         21   -1    0    0  501  502  0.00000000000E+00  0.00000000000E+00  0.95740674277E+03  0.95740674277E+03  0.00000000000E+00 0.  1.
         21   -1    0    0  502  503 -0.00000000000E+00 -0.00000000000E+00 -0.58482102201E+03  0.58482102201E+03  0.00000000000E+00 0.  1.
    9000007    1    1    2  501    0  0.24139543164E+03  0.20979338496E+03  0.74849778260E+03  0.90693657405E+03  0.40000000000E+03 0.  1.
   -9000007    1    1    2    0  503 -0.24139543164E+03 -0.20979338496E+03 -0.37591206184E+03  0.63529119074E+03  0.40000000000E+03 0.  1.
<mgrwt>
<rscale>  2 0.51213770E+03</rscale>
<asrwt>0</asrwt>
<pdfrwt beam="1">  1       21 0.14729335E+00 0.51213770E+03</pdfrwt>
<pdfrwt beam="2">  1       21 0.89972465E-01 0.51213770E+03</pdfrwt>
<totfact> 0.26337219E+02</totfact>
</mgrwt>
</event>
<event>
 4    1  0.4656822E-002  0.5870983E+03  0.7818608E-02  0.9932540E-01
         21   -1    0    0  501  502  0.00000000000E+00  0.00000000000E+00  0.63923525278E+03  0.63923525278E+03  0.00000000000E+00 0.  1.
         21   -1    0    0  502  503 -0.00000000000E+00 -0.00000000000E+00 -0.11908356269E+04  0.11908356269E+04  0.00000000000E+00 0.  1.
    9000007    1    1    2  501    0  0.40861785098E+03 -0.13310104408E+03  0.40107693323E+03  0.71101838404E+03  0.40000000000E+03 0.  1.
   -9000007    1    1    2    0  503 -0.40861785098E+03  0.13310104408E+03 -0.95267730739E+03  0.11190524957E+04  0.40000000000E+03 0.  1.
<mgrwt>
<rscale>  2 0.58709832E+03</rscale>
<asrwt>0</asrwt>
<pdfrwt beam="1">  1       21 0.98343885E-01 0.58709832E+03</pdfrwt>
<pdfrwt beam="2">  1       21 0.18320548E+00 0.58709832E+03</pdfrwt>
<totfact> 0.11096821E+02</totfact>
</mgrwt>
</event>
<event>
 4    1  0.4656822E-002  0.5163279E+03  0.7818608E-02  0.1009603E+00
         21   -1    0    0  501  502  0.00000000000E+00  0.00000000000E+00  0.10819386447E+04  0.10819386447E+04  0.00000000000E+00 0.  1.
         21   -1    0    0  502  503 -0.00000000000E+00 -0.00000000000E+00 -0.38964779699E+03  0.38964779699E+03  0.00000000000E+00 0.  1.
    9000007    1    1    2  501    0 -0.28499129316E+03  0.15929357608E+03  0.79227079494E+03  0.94566774983E+03  0.40000000000E+03 0.  1.
   -9000007    1    1    2    0  503  0.28499129316E+03 -0.15929357608E+03 -0.99979947266E+02  0.52591869182E+03  0.40000000000E+03 0.  1.
<mgrwt>
<rscale>  2 0.51632788E+03</rscale>
<asrwt>0</asrwt>
<pdfrwt beam="1">  1       21 0.16645210E+00 0.51632788E+03</pdfrwt>
<pdfrwt beam="2">  1       21 0.59945815E-01 0.51632788E+03</pdfrwt>
<totfact> 0.47303620E+02</totfact>
</mgrwt>
</event>
<event>
 4    1  0.4656822E-002  0.4680873E+03  0.7818608E-02  0.1022461E+00
         21   -1    0    0  501  502  0.00000000000E+00  0.00000000000E+00  0.49499267445E+03  0.49499267445E+03  0.00000000000E+00 0.  1.
         21   -1    0    0  502  503 -0.00000000000E+00 -0.00000000000E+00 -0.78870510966E+03  0.78870510966E+03  0.00000000000E+00 0.  1.
    9000007    1    1    2  501    0  0.28732704935E+02 -0.24141285511E+03  0.27830301670E+03  0.54457167026E+03  0.40000000000E+03 0.  1.
   -9000007    1    1    2    0  503 -0.28732704935E+02  0.24141285511E+03 -0.57201545191E+03  0.73912611384E+03  0.40000000000E+03 0.  1.
<mgrwt>
<rscale>  2 0.46808732E+03</rscale>
<asrwt>0</asrwt>
<pdfrwt beam="1">  1       21 0.76152720E-01 0.46808732E+03</pdfrwt>
<pdfrwt beam="2">  1       21 0.12133925E+00 0.46808732E+03</pdfrwt>
<totfact> 0.65900820E+02</totfact>
</mgrwt>
</event>
<event>
 4    1  0.4656822E-002  0.4328589E+03  0.7818608E-02  0.1032961E+00
         21   -1    0    0  503  502  0.00000000000E+00  0.00000000000E+00  0.81900649669E+03  0.81900649669E+03  0.00000000000E+00 0. -1.
         21   -1    0    0  501  503 -0.00000000000E+00 -0.00000000000E+00 -0.51067481687E+03  0.51067481687E+03  0.00000000000E+00 0. -1.
    9000007    1    1    2  501    0  0.14987832128E+03 -0.70023685285E+02 -0.33979673646E+03  0.55029869144E+03  0.40000000000E+03 0. -1.
   -9000007    1    1    2    0  502 -0.14987832128E+03  0.70023685285E+02  0.64812841628E+03  0.77938262213E+03  0.40000000000E+03 0. -1.
<mgrwt>
<rscale>  2 0.43285890E+03</rscale>
<asrwt>0</asrwt>
<pdfrwt beam="1">  1       21 0.12600100E+00 0.43285890E+03</pdfrwt>
<pdfrwt beam="2">  1       21 0.78565357E-01 0.43285890E+03</pdfrwt>
<totfact> 0.56571349E+02</totfact>
</mgrwt>
</event>
<event>
 4    1  0.4656822E-002  0.4055959E+03  0.7818608E-02  0.1041859E+00
         21   -1    0    0  503  502  0.00000000000E+00  0.00000000000E+00  0.85769652674E+03  0.85769652674E+03  0.00000000000E+00 0.  1.
         21   -1    0    0  501  503 -0.00000000000E+00 -0.00000000000E+00 -0.19182954187E+03  0.19182954187E+03  0.00000000000E+00 0.  1.
    9000007    1    1    2  501    0  0.47303103777E+01  0.66974898367E+02  0.33920753679E+03  0.52874357288E+03  0.40000000000E+03 0.  1.
   -9000007    1    1    2    0  502 -0.47303103777E+01 -0.66974898367E+02  0.32665944808E+03  0.52078249574E+03  0.40000000000E+03 0.  1.
<mgrwt>
<rscale>  2 0.40559587E+03</rscale>
<asrwt>0</asrwt>
<pdfrwt beam="1">  1       21 0.13195331E+00 0.40559587E+03</pdfrwt>
<pdfrwt beam="2">  1       21 0.29512238E-01 0.40559587E+03</pdfrwt>
<totfact> 0.40533063E+03</totfact>
</mgrwt>
</event>
<event>
 4    1  0.4656822E-002  0.4086886E+03  0.7818608E-02  0.1040812E+00
         21   -1    0    0  503  502  0.00000000000E+00  0.00000000000E+00  0.25121550803E+03  0.25121550803E+03  0.00000000000E+00 0. -1.
         21   -1    0    0  501  503 -0.00000000000E+00 -0.00000000000E+00 -0.10750854264E+04  0.10750854264E+04  0.00000000000E+00 0. -1.
    9000007    1    1    2  501    0  0.11174531114E+01 -0.83815783467E+02 -0.82156816572E+03  0.91760589862E+03  0.40000000000E+03 0. -1.
   -9000007    1    1    2    0  502 -0.11174531114E+01  0.83815783467E+02 -0.23017526778E+01  0.40869503585E+03  0.40000000000E+03 0. -1.
<mgrwt>
<rscale>  2 0.40868855E+03</rscale>
<asrwt>0</asrwt>
<pdfrwt beam="1">  1       21 0.38648540E-01 0.40868855E+03</pdfrwt>
<pdfrwt beam="2">  1       21 0.16539776E+00 0.40868855E+03</pdfrwt>
<totfact> 0.12791607E+03</totfact>
</mgrwt>
</event>
<event>
 4    1  0.4656822E-002  0.4296176E+03  0.7818608E-02  0.1033981E+00
         21   -1    0    0  501  502  0.00000000000E+00  0.00000000000E+00  0.90118985151E+03  0.90118985151E+03  0.00000000000E+00 0. -1.
         21   -1    0    0  502  503 -0.00000000000E+00 -0.00000000000E+00 -0.21529081777E+03  0.21529081777E+03  0.00000000000E+00 0. -1.
    9000007    1    1    2  501    0  0.11085679632E+03  0.11082450110E+03  0.46612891938E+03  0.63391440181E+03  0.40000000000E+03 0. -1.
   -9000007    1    1    2    0  503 -0.11085679632E+03 -0.11082450110E+03  0.21977011436E+03  0.48256626747E+03  0.40000000000E+03 0. -1.
<mgrwt>
<rscale>  2 0.42961762E+03</rscale>
<asrwt>0</asrwt>
<pdfrwt beam="1">  1       21 0.13864459E+00 0.42961762E+03</pdfrwt>
<pdfrwt beam="2">  1       21 0.33121665E-01 0.42961762E+03</pdfrwt>
<totfact> 0.28026866E+03</totfact>
</mgrwt>
</event>
<event>
 4    1  0.4656822E-002  0.4465612E+03  0.7818608E-02  0.1028753E+00
         21   -1    0    0  503  502  0.00000000000E+00  0.00000000000E+00  0.29121802128E+03  0.29121802128E+03  0.00000000000E+00 0.  1.
         21   -1    0    0  501  503 -0.00000000000E+00 -0.00000000000E+00 -0.70656303839E+03  0.70656303839E+03  0.00000000000E+00 0.  1.
    9000007    1    1    2  501    0 -0.32232461146E+02  0.19590288733E+03 -0.29529296571E+03  0.53536418297E+03  0.40000000000E+03 0.  1.
   -9000007    1    1    2    0  502  0.32232461146E+02 -0.19590288733E+03 -0.12005205140E+03  0.46241687670E+03  0.40000000000E+03 0.  1.
<mgrwt>
<rscale>  2 0.44656116E+03</rscale>
<asrwt>0</asrwt>
<pdfrwt beam="1">  1       21 0.44802773E-01 0.44656116E+03</pdfrwt>
<pdfrwt beam="2">  1       21 0.10870200E+00 0.44656116E+03</pdfrwt>
<totfact> 0.27911244E+03</totfact>
</mgrwt>
</event>
<event>
 4    1  0.4656822E-002  0.4962008E+03  0.7818608E-02  0.1014775E+00
         21   -1    0    0  503  502  0.00000000000E+00  0.00000000000E+00  0.94924064539E+03  0.94924064539E+03  0.00000000000E+00 0.  1.
         21   -1    0    0  501  503 -0.00000000000E+00 -0.00000000000E+00 -0.25976888150E+03  0.25976888150E+03  0.00000000000E+00 0.  1.
    9000007    1    1    2  501    0 -0.20674065212E+03  0.20850302305E+03  0.32138378419E+03  0.59118757142E+03  0.40000000000E+03 0.  1.
   -9000007    1    1    2    0  502  0.20674065212E+03 -0.20850302305E+03  0.36808797970E+03  0.61782195547E+03  0.40000000000E+03 0.  1.
<mgrwt>
<rscale>  2 0.49620077E+03</rscale>
<asrwt>0</asrwt>
<pdfrwt beam="1">  1       21 0.14603702E+00 0.49620077E+03</pdfrwt>
<pdfrwt beam="2">  1       21 0.39964444E-01 0.49620077E+03</pdfrwt>
<totfact> 0.16225977E+03</totfact>
</mgrwt>
</event>
<event>
 4    1  0.4656822E-002  0.4027563E+03  0.7818608E-02  0.1042829E+00
         21   -1    0    0  503  502  0.00000000000E+00  0.00000000000E+00  0.49059936225E+03  0.49059936225E+03  0.00000000000E+00 0. -1.
         21   -1    0    0  501  503 -0.00000000000E+00 -0.00000000000E+00 -0.33584469015E+03  0.33584469015E+03  0.00000000000E+00 0. -1.
    9000007    1    1    2  501    0 -0.43043320812E+02  0.18970965176E+02  0.12881002195E+03  0.42285298478E+03  0.40000000000E+03 0.  1.
   -9000007    1    1    2    0  502  0.43043320812E+02 -0.18970965176E+02  0.25944650159E+02  0.40359106761E+03  0.40000000000E+03 0.  1.
<mgrwt>
<rscale>  2 0.40275628E+03</rscale>
<asrwt>0</asrwt>
<pdfrwt beam="1">  1       21 0.75476824E-01 0.40275628E+03</pdfrwt>
<pdfrwt beam="2">  1       21 0.51668414E-01 0.40275628E+03</pdfrwt>
<totfact> 0.49865305E+03</totfact>
</mgrwt>
</event>
<event>
 4    1  0.4656822E-002  0.4832935E+03  0.7818608E-02  0.1018234E+00
         21   -1    0    0  501  502  0.00000000000E+00  0.00000000000E+00  0.66005054380E+03  0.66005054380E+03  0.00000000000E+00 0.  1.
         21   -1    0    0  502  503 -0.00000000000E+00 -0.00000000000E+00 -0.55422077349E+03  0.55422077349E+03  0.00000000000E+00 0.  1.
    9000007    1    1    2  501    0 -0.72683749333E+02 -0.26132299100E+03  0.41795362299E+03  0.63895059591E+03  0.40000000000E+03 0. -1.
   -9000007    1    1    2    0  503  0.72683749333E+02  0.26132299100E+03 -0.31212385268E+03  0.57532072138E+03  0.40000000000E+03 0. -1.
<mgrwt>
<rscale>  2 0.48329353E+03</rscale>
<asrwt>0</asrwt>
<pdfrwt beam="1">  1       21 0.10154624E+00 0.48329353E+03</pdfrwt>
<pdfrwt beam="2">  1       21 0.85264734E-01 0.48329353E+03</pdfrwt>
<totfact> 0.78569067E+02</totfact>
</mgrwt>
</event>
<event>
 4    1  0.4656822E-002  0.4664740E+03  0.7818608E-02  0.1022920E+00
         21   -1    0    0  503  502  0.00000000000E+00  0.00000000000E+00  0.17592026969E+03  0.17592026969E+03  0.00000000000E+00 0.  1.
         21   -1    0    0  501  503 -0.00000000000E+00 -0.00000000000E+00 -0.13457155307E+04  0.13457155307E+04  0.00000000000E+00 0.  1.
    9000007    1    1    2  501    0 -0.23904563089E+03  0.21335170582E+02 -0.80123140609E+03  0.92712985566E+03  0.40000000000E+03 0.  1.
   -9000007    1    1    2    0  502  0.23904563089E+03 -0.21335170582E+02 -0.36856385487E+03  0.59450594469E+03  0.40000000000E+03 0.  1.
<mgrwt>
<rscale>  2 0.46647401E+03</rscale>
<asrwt>0</asrwt>
<pdfrwt beam="1">  1       21 0.27064658E-01 0.46647401E+03</pdfrwt>
<pdfrwt beam="2">  1       21 0.20703315E+00 0.46647401E+03</pdfrwt>
<totfact> 0.13096204E+03</totfact>
</mgrwt>
</event>
<event>
 4    1  0.4656822E-002  0.4267611E+03  0.7818608E-02  0.1034888E+00
         21   -1    0    0  503  502  0.00000000000E+00  0.00000000000E+00  0.55558872091E+03  0.55558872091E+03  0.00000000000E+00 0. -1.
         21   -1    0    0  501  503 -0.00000000000E+00 -0.00000000000E+00 -0.46326839501E+03  0.46326839501E+03  0.00000000000E+00 0. -1.
    9000007    1    1    2  501    0  0.64341438748E+02  0.13410892583E+03 -0.22931164979E+03  0.48446760207E+03  0.40000000000E+03 0. -1.
   -9000007    1    1    2    0  502 -0.64341438748E+02 -0.13410892583E+03  0.32163197568E+03  0.53438951385E+03  0.40000000000E+03 0. -1.
<mgrwt>
<rscale>  2 0.42676109E+03</rscale>
<asrwt>0</asrwt>
<pdfrwt beam="1">  1       21 0.85475188E-01 0.42676109E+03</pdfrwt>
<pdfrwt beam="2">  1       21 0.71272061E-01 0.42676109E+03</pdfrwt>
<totfact> 0.18315151E+03</totfact>
</mgrwt>
</event>
<event>
 4    1  0.4656822E-002  0.4302893E+03  0.7818608E-02  0.1033769E+00
         21   -1    0    0  501  502  0.00000000000E+00  0.00000000000E+00  0.10291841633E+04  0.10291841633E+04  0.00000000000E+00 0.  1.
         21   -1    0    0  502  503 -0.00000000000E+00 -0.00000000000E+00 -0.18098665604E+03  0.18098665604E+03  0.00000000000E+00 0.  1.
    9000007    1    1    2  501    0 -0.12901128360E+03  0.92222612577E+02  0.47101179017E+03  0.63796632203E+03  0.40000000000E+03 0.  1.
   -9000007    1    1    2    0  503  0.12901128360E+03 -0.92222612577E+02  0.37718571712E+03  0.57220449733E+03  0.40000000000E+03 0.  1.
<mgrwt>
<rscale>  2 0.43028935E+03</rscale>
<asrwt>0</asrwt>
<pdfrwt beam="1">  1       21 0.15833602E+00 0.43028935E+03</pdfrwt>
<pdfrwt beam="2">  1       21 0.27844102E-01 0.43028935E+03</pdfrwt>
<totfact> 0.27626785E+03</totfact>
</mgrwt>
</event>
<event>
 4    1  0.4656822E-002  0.6658945E+03  0.7818608E-02  0.9777403E-01
         21   -1    0    0  501  502  0.00000000000E+00  0.00000000000E+00  0.33017988475E+03  0.33017988475E+03  0.00000000000E+00 0.  1.
         21   -1    0    0  502  503 -0.00000000000E+00 -0.00000000000E+00 -0.14462520546E+04  0.14462520546E+04  0.00000000000E+00 0. -1.
    9000007    1    1    2  501    0 -0.43064811568E+03  0.31298195801E+03 -0.32065378733E+03  0.73907669217E+03  0.40000000000E+03 0.  1.
   -9000007    1    1    2    0  503  0.43064811568E+03 -0.31298195801E+03 -0.79541838250E+03  0.10373552472E+04  0.40000000000E+03 0. -1.
<mgrwt>
<rscale>  2 0.66589452E+03</rscale>
<asrwt>0</asrwt>
<pdfrwt beam="1">  1       21 0.50796904E-01 0.66589452E+03</pdfrwt>
<pdfrwt beam="2">  1       21 0.22250032E+00 0.66589452E+03</pdfrwt>
<totfact> 0.26403808E+02</totfact>
</mgrwt>
</event>
<event>
 4    1  0.4656822E-002  0.4668713E+03  0.7818608E-02  0.1022807E+00
         21   -1    0    0  503  502  0.00000000000E+00  0.00000000000E+00  0.65388929349E+03  0.65388929349E+03  0.00000000000E+00 0.  1.
         21   -1    0    0  501  503 -0.00000000000E+00 -0.00000000000E+00 -0.40621050212E+03  0.40621050212E+03  0.00000000000E+00 0.  1.
    9000007    1    1    2  501    0  0.16925951417E+03 -0.17123104525E+03 -0.10065768422E+03  0.47759901946E+03  0.40000000000E+03 0.  1.
   -9000007    1    1    2    0  502 -0.16925951417E+03  0.17123104525E+03  0.34833647559E+03  0.58250077615E+03  0.40000000000E+03 0.  1.
<mgrwt>
<rscale>  2 0.46687135E+03</rscale>
<asrwt>0</asrwt>
<pdfrwt beam="1">  1       21 0.10059835E+00 0.46687135E+03</pdfrwt>
<pdfrwt beam="2">  1       21 0.62493924E-01 0.46687135E+03</pdfrwt>
<totfact> 0.16398370E+03</totfact>
</mgrwt>
</event>
<event>
 4    1  0.4656822E-002  0.5420612E+03  0.7818608E-02  0.1003348E+00
         21   -1    0    0  503  502  0.00000000000E+00  0.00000000000E+00  0.26426401630E+04  0.26426401630E+04  0.00000000000E+00 0.  1.
         21   -1    0    0  501  503 -0.00000000000E+00 -0.00000000000E+00 -0.11673407995E+03  0.11673407995E+03  0.00000000000E+00 0. -1.
    9000007    1    1    2  501    0  0.23769422001E+03 -0.27808593645E+03  0.15636770401E+04  0.16549671344E+04  0.40000000000E+03 0.  1.
   -9000007    1    1    2    0  502 -0.23769422001E+03  0.27808593645E+03  0.96222904293E+03  0.11044071085E+04  0.40000000000E+03 0.  1.
<mgrwt>
<rscale>  2 0.54206119E+03</rscale>
<asrwt>0</asrwt>
<pdfrwt beam="1">  1       21 0.40655998E+00 0.54206119E+03</pdfrwt>
<pdfrwt beam="2">  1       21 0.17959091E-01 0.54206119E+03</pdfrwt>
<totfact> 0.16051044E+02</totfact>
</mgrwt>
</event>
<event>
 4    1  0.4656822E-002  0.6260163E+03  0.7818608E-02  0.9852854E-01
         21   -1    0    0  501  502  0.00000000000E+00  0.00000000000E+00  0.87592656437E+03  0.87592656437E+03  0.00000000000E+00 0.  1.
         21   -1    0    0  502  503 -0.00000000000E+00 -0.00000000000E+00 -0.59242030290E+03  0.59242030290E+03  0.00000000000E+00 0.  1.
    9000007    1    1    2  501    0  0.26952752051E+03  0.39906311912E+03  0.50498695696E+03  0.80430608853E+03  0.40000000000E+03 0.  1.
   -9000007    1    1    2    0  503 -0.26952752051E+03 -0.39906311912E+03 -0.22148069549E+03  0.66404077874E+03  0.40000000000E+03 0.  1.
<mgrwt>
<rscale>  2 0.62601634E+03</rscale>
<asrwt>0</asrwt>
<pdfrwt beam="1">  1       21 0.13475793E+00 0.62601634E+03</pdfrwt>
<pdfrwt beam="2">  1       21 0.91141585E-01 0.62601634E+03</pdfrwt>
<totfact> 0.31050417E+02</totfact>
</mgrwt>
</event>
<event>
 4    1  0.4656822E-002  0.5256372E+03  0.7818608E-02  0.1007296E+00
         21   -1    0    0  501  502  0.00000000000E+00  0.00000000000E+00  0.73418547076E+03  0.73418547076E+03  0.00000000000E+00 0. -1.
         21   -1    0    0  502  503 -0.00000000000E+00 -0.00000000000E+00 -0.40631135998E+03  0.40631135998E+03  0.00000000000E+00 0. -1.
    9000007    1    1    2  501    0 -0.34080612481E+03  0.12070677849E+02  0.31884549817E+03  0.61478204892E+03  0.40000000000E+03 0. -1.
   -9000007    1    1    2    0  503  0.34080612481E+03 -0.12070677849E+02  0.90286126092E+01  0.52571478182E+03  0.40000000000E+03 0. -1.
<mgrwt>
<rscale>  2 0.52563725E+03</rscale>
<asrwt>0</asrwt>
<pdfrwt beam="1">  1       21 0.11295161E+00 0.52563725E+03</pdfrwt>
<pdfrwt beam="2">  1       21 0.62509440E-01 0.52563725E+03</pdfrwt>
<totfact> 0.12050474E+03</totfact>
</mgrwt>
</event>
<event>
 4    1  0.4656822E-002  0.4082018E+03  0.7818608E-02  0.1040976E+00
         21   -1    0    0  501  502  0.00000000000E+00  0.00000000000E+00  0.83253449079E+03  0.83253449079E+03  0.00000000000E+00 0. -1.
         21   -1    0    0  502  503 -0.00000000000E+00 -0.00000000000E+00 -0.36869385014E+03  0.36869385014E+03  0.00000000000E+00 0. -1.
    9000007    1    1    2  501    0 -0.33700358421E+02 -0.74114637442E+02  0.63801178034E+03  0.75742176196E+03  0.40000000000E+03 0. -1.
   -9000007    1    1    2    0  503  0.33700358421E+02  0.74114637442E+02 -0.17417113969E+03  0.44380657898E+03  0.40000000000E+03 0. -1.
<mgrwt>
<rscale>  2 0.40820178E+03</rscale>
<asrwt>0</asrwt>
<pdfrwt beam="1">  1       21 0.12808223E+00 0.40820178E+03</pdfrwt>
<pdfrwt beam="2">  1       21 0.56722131E-01 0.40820178E+03</pdfrwt>
<totfact> 0.11343947E+03</totfact>
</mgrwt>
</event>
<event>
 4    1  0.4656822E-002  0.4481790E+03  0.7818608E-02  0.1028266E+00
         21   -1    0    0  501  502  0.00000000000E+00  0.00000000000E+00  0.13590928005E+04  0.13590928005E+04  0.00000000000E+00 0. -1.
         21   -1    0    0  502  503 -0.00000000000E+00 -0.00000000000E+00 -0.22112039683E+03  0.22112039683E+03  0.00000000000E+00 0. -1.
    9000007    1    1    2  501    0  0.19553541529E+02 -0.20120160569E+03  0.11399356769E+03  0.46244887349E+03  0.40000000000E+03 0. -1.
   -9000007    1    1    2    0  503 -0.19553541529E+02  0.20120160569E+03  0.10239788360E+04  0.11177643239E+04  0.40000000000E+03 0. -1.
<mgrwt>
<rscale>  2 0.44817901E+03</rscale>
<asrwt>0</asrwt>
<pdfrwt beam="1">  1       21 0.20909119E+00 0.44817901E+03</pdfrwt>
<pdfrwt beam="2">  1       21 0.34018524E-01 0.44817901E+03</pdfrwt>
<totfact> 0.81214312E+02</totfact>
</mgrwt>
</event>
<event>
 4    1  0.4656822E-002  0.4632444E+03  0.7818608E-02  0.1023844E+00
         21   -1    0    0  503  502  0.00000000000E+00  0.00000000000E+00  0.22328392495E+03  0.22328392495E+03  0.00000000000E+00 0.  1.
         21   -1    0    0  501  503 -0.00000000000E+00 -0.00000000000E+00 -0.10588958169E+04  0.10588958169E+04  0.00000000000E+00 0.  1.
    9000007    1    1    2  501    0 -0.17353175426E+03  0.15646753460E+03 -0.61264700923E+03  0.76807012508E+03  0.40000000000E+03 0.  1.
   -9000007    1    1    2    0  502  0.17353175426E+03 -0.15646753460E+03 -0.22296488270E+03  0.51410961675E+03  0.40000000000E+03 0.  1.
<mgrwt>
<rscale>  2 0.46324438E+03</rscale>
<asrwt>0</asrwt>
<pdfrwt beam="1">  1       21 0.34351373E-01 0.46324438E+03</pdfrwt>
<pdfrwt beam="2">  1       21 0.16290705E+00 0.46324438E+03</pdfrwt>
<totfact> 0.16566638E+03</totfact>
</mgrwt>
</event>
<event>
 4    1  0.4656822E-002  0.4346388E+03  0.7818608E-02  0.1032405E+00
         21   -1    0    0  503  502  0.00000000000E+00  0.00000000000E+00  0.17498040214E+03  0.17498040214E+03  0.00000000000E+00 0.  1.
         21   -1    0    0  501  503 -0.00000000000E+00 -0.00000000000E+00 -0.13464037175E+04  0.13464037175E+04  0.00000000000E+00 0. -1.
    9000007    1    1    2  501    0 -0.63485403940E+02  0.15773550530E+03 -0.92432780403E+03  0.10214170429E+04  0.40000000000E+03 0. -1.
   -9000007    1    1    2    0  502  0.63485403940E+02 -0.15773550530E+03 -0.24709551133E+03  0.49996707678E+03  0.40000000000E+03 0. -1.
<mgrwt>
<rscale>  2 0.43463880E+03</rscale>
<asrwt>0</asrwt>
<pdfrwt beam="1">  1       21 0.26920061E-01 0.43463880E+03</pdfrwt>
<pdfrwt beam="2">  1       21 0.20713904E+00 0.43463880E+03</pdfrwt>
<totfact> 0.13404649E+03</totfact>
</mgrwt>
</event>
<event>
 4    1  0.4656822E-002  0.5567894E+03  0.7818608E-02  0.9999346E-01
         21   -1    0    0  503  502  0.00000000000E+00  0.00000000000E+00  0.23810975906E+03  0.23810975906E+03  0.00000000000E+00 0.  1.
         21   -1    0    0  501  503 -0.00000000000E+00 -0.00000000000E+00 -0.20502080582E+04  0.20502080582E+04  0.00000000000E+00 0. -1.
    9000007    1    1    2  501    0 -0.24877847913E+03 -0.29685637733E+03 -0.15972495995E+04  0.16915143285E+04  0.40000000000E+03 0. -1.
   -9000007    1    1    2    0  502  0.24877847913E+03  0.29685637733E+03 -0.21484869962E+03  0.59680348874E+03  0.40000000000E+03 0.  1.
<mgrwt>
<rscale>  2 0.55678940E+03</rscale>
<asrwt>0</asrwt>
<pdfrwt beam="1">  1       21 0.36632272E-01 0.55678940E+03</pdfrwt>
<pdfrwt beam="2">  1       21 0.31541661E+00 0.55678940E+03</pdfrwt>
<totfact> 0.14602030E+02</totfact>
</mgrwt>
</event>
<event>
 4    1  0.4656822E-002  0.4761596E+03  0.7818608E-02  0.1020196E+00
         21   -1    0    0  501  502  0.00000000000E+00  0.00000000000E+00  0.16518151368E+04  0.16518151368E+04  0.00000000000E+00 0. -1.
         21   -1    0    0  502  503 -0.00000000000E+00 -0.00000000000E+00 -0.23799730195E+03  0.23799730195E+03  0.00000000000E+00 0.  1.
    9000007    1    1    2  501    0 -0.19021366385E+03  0.17477625571E+03  0.13216582525E+04  0.14048161851E+04  0.40000000000E+03 0. -1.
   -9000007    1    1    2    0  503  0.19021366385E+03 -0.17477625571E+03  0.92159582385E+02  0.48499625370E+03  0.40000000000E+03 0.  1.
<mgrwt>
<rscale>  2 0.47615961E+03</rscale>
<asrwt>0</asrwt>
<pdfrwt beam="1">  1       21 0.25412540E+00 0.47615961E+03</pdfrwt>
<pdfrwt beam="2">  1       21 0.36614971E-01 0.47615961E+03</pdfrwt>
<totfact> 0.35893243E+02</totfact>
</mgrwt>
</event>
<event>
 4    1  0.4656822E-002  0.6272778E+03  0.7818608E-02  0.9850376E-01
         21   -1    0    0  503  502  0.00000000000E+00  0.00000000000E+00  0.15320728700E+04  0.15320728700E+04  0.00000000000E+00 0.  1.
         21   -1    0    0  501  503 -0.00000000000E+00 -0.00000000000E+00 -0.76007713172E+03  0.76007713172E+03  0.00000000000E+00 0.  1.
    9000007    1    1    2  501    0  0.40505936023E+03  0.26344694696E+03 -0.54656096258E+03  0.83198934187E+03  0.40000000000E+03 0.  1.
   -9000007    1    1    2    0  502 -0.40505936023E+03 -0.26344694696E+03  0.13185567008E+04  0.14601606598E+04  0.40000000000E+03 0.  1.
<mgrwt>
<rscale>  2 0.62727775E+03</rscale>
<asrwt>0</asrwt>
<pdfrwt beam="1">  1       21 0.23570352E+00 0.62727775E+03</pdfrwt>
<pdfrwt beam="2">  1       21 0.11693494E+00 0.62727775E+03</pdfrwt>
<totfact> 0.31772306E+01</totfact>
</mgrwt>
</event>
<event>
 4    1  0.4656822E-002  0.5012276E+03  0.7818608E-02  0.1013459E+00
         21   -1    0    0  501  502  0.00000000000E+00  0.00000000000E+00  0.51377152024E+03  0.51377152024E+03  0.00000000000E+00 0.  1.
         21   -1    0    0  502  503 -0.00000000000E+00 -0.00000000000E+00 -0.49058161441E+03  0.49058161441E+03  0.00000000000E+00 0.  1.
    9000007    1    1    2  501    0  0.30120105596E+03  0.22518456368E+02  0.40198117391E+02  0.50283699708E+03  0.40000000000E+03 0.  1.
   -9000007    1    1    2    0  503 -0.30120105596E+03 -0.22518456368E+02 -0.17008211561E+02  0.50151613757E+03  0.40000000000E+03 0.  1.
<mgrwt>
<rscale>  2 0.50122765E+03</rscale>
<asrwt>0</asrwt>
<pdfrwt beam="1">  1       21 0.79041773E-01 0.50122765E+03</pdfrwt>
<pdfrwt beam="2">  1       21 0.75474094E-01 0.50122765E+03</pdfrwt>
<totfact> 0.18765607E+03</totfact>
</mgrwt>
</event>
<event>
 4    1  0.4656822E-002  0.4242048E+03  0.7818608E-02  0.1035706E+00
         21   -1    0    0  503  502  0.00000000000E+00  0.00000000000E+00  0.93498859530E+02  0.93498859530E+02  0.00000000000E+00 0. -1.
         21   -1    0    0  501  503 -0.00000000000E+00 -0.00000000000E+00 -0.19400709173E+04  0.19400709173E+04  0.00000000000E+00 0. -1.
    9000007    1    1    2  501    0 -0.12090361539E+03 -0.73021015652E+02 -0.10140264382E+04  0.10991812273E+04  0.40000000000E+03 0.  1.
   -9000007    1    1    2    0  502  0.12090361539E+03  0.73021015652E+02 -0.83254561954E+03  0.93438854956E+03  0.40000000000E+03 0.  1.
<mgrwt>
<rscale>  2 0.42420485E+03</rscale>
<asrwt>0</asrwt>
<pdfrwt beam="1">  1       21 0.14384440E-01 0.42420485E+03</pdfrwt>
<pdfrwt beam="2">  1       21 0.29847245E+00 0.42420485E+03</pdfrwt>
<totfact> 0.12121933E+03</totfact>
</mgrwt>
</event>
<event>
 4    1  0.4656822E-002  0.5139178E+03  0.7818608E-02  0.1010209E+00
         21   -1    0    0  501  502  0.00000000000E+00  0.00000000000E+00  0.67687688110E+03  0.67687688110E+03  0.00000000000E+00 0. -1.
         21   -1    0    0  502  503 -0.00000000000E+00 -0.00000000000E+00 -0.42653374751E+03  0.42653374751E+03  0.00000000000E+00 0.  1.
    9000007    1    1    2  501    0 -0.16271039604E+03 -0.27863393772E+03  0.28621273056E+03  0.58824252767E+03  0.40000000000E+03 0. -1.
   -9000007    1    1    2    0  503  0.16271039604E+03  0.27863393772E+03 -0.35869596966E+02  0.51516810093E+03  0.40000000000E+03 0. -1.
<mgrwt>
<rscale>  2 0.51391784E+03</rscale>
<asrwt>0</asrwt>
<pdfrwt beam="1">  1       21 0.10413490E+00 0.51391784E+03</pdfrwt>
<pdfrwt beam="2">  1       21 0.65620577E-01 0.51391784E+03</pdfrwt>
<totfact> 0.13290684E+03</totfact>
</mgrwt>
</event>
<event>
 4    1  0.4656822E-002  0.7047531E+03  0.7818608E-02  0.9709138E-01
         21   -1    0    0  503  502  0.00000000000E+00  0.00000000000E+00  0.14456247359E+04  0.14456247359E+04  0.00000000000E+00 0. -1.
         21   -1    0    0  501  503 -0.00000000000E+00 -0.00000000000E+00 -0.37515021882E+03  0.37515021882E+03  0.00000000000E+00 0.  1.
    9000007    1    1    2  501    0  0.45084813453E+03  0.36525727195E+03  0.27110952808E+03  0.75510084845E+03  0.40000000000E+03 0.  1.
   -9000007    1    1    2    0  502 -0.45084813453E+03 -0.36525727195E+03  0.79936498901E+03  0.10656741063E+04  0.40000000000E+03 0. -1.
<mgrwt>
<rscale>  2 0.70475309E+03</rscale>
<asrwt>0</asrwt>
<pdfrwt beam="1">  1       21 0.22240380E+00 0.70475309E+03</pdfrwt>
<pdfrwt beam="2">  1       21 0.57715419E-01 0.70475309E+03</pdfrwt>
<totfact> 0.19766842E+02</totfact>
</mgrwt>
</event>
<event>
 4    1  0.4656822E-002  0.4013336E+03  0.7818608E-02  0.1043319E+00
         21   -1    0    0  503  502  0.00000000000E+00  0.00000000000E+00  0.63750586756E+03  0.63750586756E+03  0.00000000000E+00 0. -1.
         21   -1    0    0  501  503 -0.00000000000E+00 -0.00000000000E+00 -0.26052920592E+03  0.26052920592E+03  0.00000000000E+00 0. -1.
    9000007    1    1    2  501    0 -0.98534106575E+01 -0.31169733212E+02  0.11042341221E+03  0.41624748880E+03  0.40000000000E+03 0.  1.
   -9000007    1    1    2    0  502  0.98534106575E+01  0.31169733212E+02  0.26655324943E+03  0.48178758468E+03  0.40000000000E+03 0.  1.
<mgrwt>
<rscale>  2 0.40133358E+03</rscale>
<asrwt>0</asrwt>
<pdfrwt beam="1">  1       21 0.98077825E-01 0.40133358E+03</pdfrwt>
<pdfrwt beam="2">  1       21 0.40081417E-01 0.40133358E+03</pdfrwt>
<totfact> 0.45993362E+03</totfact>
</mgrwt>
</event>
<event>
 4    1  0.4656822E-002  0.9644111E+03  0.7818608E-02  0.9348463E-01
         21   -1    0    0  503  502  0.00000000000E+00  0.00000000000E+00  0.21884345523E+04  0.21884345523E+04  0.00000000000E+00 0.  1.
         21   -1    0    0  501  503 -0.00000000000E+00 -0.00000000000E+00 -0.59291513898E+03  0.59291513898E+03  0.00000000000E+00 0. -1.
    9000007    1    1    2  501    0 -0.33985601158E+03 -0.80906528532E+03  0.57691312824E+02  0.96613510033E+03  0.40000000000E+03 0. -1.
   -9000007    1    1    2    0  502  0.33985601158E+03  0.80906528532E+03  0.15378281005E+04  0.18152145910E+04  0.40000000000E+03 0.  1.
<mgrwt>
<rscale>  2 0.96441109E+03</rscale>
<asrwt>0</asrwt>
<pdfrwt beam="1">  1       21 0.33668223E+00 0.96441109E+03</pdfrwt>
<pdfrwt beam="2">  1       21 0.91217715E-01 0.96441109E+03</pdfrwt>
<totfact> 0.12196024E+01</totfact>
</mgrwt>
</event>
<event>
 4    1  0.4656822E-002  0.4516360E+03  0.7818608E-02  0.1027235E+00
         21   -1    0    0  503  502  0.00000000000E+00  0.00000000000E+00  0.80547589019E+03  0.80547589019E+03  0.00000000000E+00 0. -1.
         21   -1    0    0  501  503 -0.00000000000E+00 -0.00000000000E+00 -0.25884266640E+03  0.25884266640E+03  0.00000000000E+00 0. -1.
    9000007    1    1    2  501    0 -0.17719715840E+03  0.11214384954E+03  0.35164083476E+03  0.57238654125E+03  0.40000000000E+03 0. -1.
   -9000007    1    1    2    0  502  0.17719715840E+03 -0.11214384954E+03  0.19499238902E+03  0.49193201533E+03  0.40000000000E+03 0. -1.
<mgrwt>
<rscale>  2 0.45163600E+03</rscale>
<asrwt>0</asrwt>
<pdfrwt beam="1">  1       21 0.12391937E+00 0.45163600E+03</pdfrwt>
<pdfrwt beam="2">  1       21 0.39821949E-01 0.45163600E+03</pdfrwt>
<totfact> 0.25592708E+03</totfact>
</mgrwt>
</event>
<event>
 4    1  0.4656822E-002  0.4632875E+03  0.7818608E-02  0.1023832E+00
         21   -1    0    0  503  502  0.00000000000E+00  0.00000000000E+00  0.10404269420E+04  0.10404269420E+04  0.00000000000E+00 0. -1.
         21   -1    0    0  501  503 -0.00000000000E+00 -0.00000000000E+00 -0.20733753198E+03  0.20733753198E+03  0.00000000000E+00 0. -1.
    9000007    1    1    2  501    0  0.14655120369E+03  0.18209351115E+03  0.46077532522E+03  0.65341350035E+03  0.40000000000E+03 0. -1.
   -9000007    1    1    2    0  502 -0.14655120369E+03 -0.18209351115E+03  0.37231408476E+03  0.59435097359E+03  0.40000000000E+03 0. -1.
<mgrwt>
<rscale>  2 0.46328749E+03</rscale>
<asrwt>0</asrwt>
<pdfrwt beam="1">  1       21 0.16006568E+00 0.46328749E+03</pdfrwt>
<pdfrwt beam="2">  1       21 0.31898083E-01 0.46328749E+03</pdfrwt>
<totfact> 0.20199253E+03</totfact>
</mgrwt>
</event>
<event>
 4    1  0.4656822E-002  0.5922812E+03  0.7818608E-02  0.9921551E-01
         21   -1    0    0  501  502  0.00000000000E+00  0.00000000000E+00  0.10164662968E+04  0.10164662968E+04  0.00000000000E+00 0.  1.
         21   -1    0    0  502  503 -0.00000000000E+00 -0.00000000000E+00 -0.41809971442E+03  0.41809971442E+03  0.00000000000E+00 0. -1.
    9000007    1    1    2  501    0 -0.36446978837E+03 -0.24074641841E+03  0.59887078187E+03  0.84228455880E+03  0.40000000000E+03 0.  1.
   -9000007    1    1    2    0  503  0.36446978837E+03  0.24074641841E+03 -0.50419953107E+00  0.59228145238E+03  0.40000000000E+03 0. -1.
<mgrwt>
<rscale>  2 0.59228124E+03</rscale>
<asrwt>0</asrwt>
<pdfrwt beam="1">  1       21 0.15637943E+00 0.59228124E+03</pdfrwt>
<pdfrwt beam="2">  1       21 0.64323033E-01 0.59228124E+03</pdfrwt>
<totfact> 0.46876688E+02</totfact>
</mgrwt>
</event>
<event>
 4    1  0.4656822E-002  0.4582357E+03  0.7818608E-02  0.1025294E+00
         21   -1    0    0  503  502  0.00000000000E+00  0.00000000000E+00  0.38235194822E+03  0.38235194822E+03  0.00000000000E+00 0.  1.
         21   -1    0    0  501  503 -0.00000000000E+00 -0.00000000000E+00 -0.67959208094E+03  0.67959208094E+03  0.00000000000E+00 0. -1.
    9000007    1    1    2  501    0  0.20202809624E+03  0.95732030458E+02 -0.38121845003E+03  0.59607674000E+03  0.40000000000E+03 0. -1.
   -9000007    1    1    2    0  502 -0.20202809624E+03 -0.95732030458E+02  0.83978317309E+02  0.46586728916E+03  0.40000000000E+03 0.  1.
<mgrwt>
<rscale>  2 0.45823572E+03</rscale>
<asrwt>0</asrwt>
<pdfrwt beam="1">  1       21 0.58823377E-01 0.45823572E+03</pdfrwt>
<pdfrwt beam="2">  1       21 0.10455263E+00 0.45823572E+03</pdfrwt>
<totfact> 0.17097226E+03</totfact>
</mgrwt>
</event>
<event>
 4    1  0.4656822E-002  0.4838534E+03  0.7818608E-02  0.1018081E+00
         21   -1    0    0  503  502  0.00000000000E+00  0.00000000000E+00  0.12120042817E+04  0.12120042817E+04  0.00000000000E+00 0.  1.
         21   -1    0    0  501  503 -0.00000000000E+00 -0.00000000000E+00 -0.20044501736E+03  0.20044501736E+03  0.00000000000E+00 0.  1.
    9000007    1    1    2  501    0  0.36431928681E+01  0.27221470091E+03  0.37116952846E+03  0.60982041217E+03  0.40000000000E+03 0.  1.
   -9000007    1    1    2    0  502 -0.36431928681E+01 -0.27221470091E+03  0.64038973591E+03  0.80262888691E+03  0.40000000000E+03 0.  1.
<mgrwt>
<rscale>  2 0.48385340E+03</rscale>
<asrwt>0</asrwt>
<pdfrwt beam="1">  1       21 0.18646219E+00 0.48385340E+03</pdfrwt>
<pdfrwt beam="2">  1       21 0.30837696E-01 0.48385340E+03</pdfrwt>
<totfact> 0.13815935E+03</totfact>
</mgrwt>
</event>
<event>
 4    1  0.4656822E-002  0.4152775E+03  0.7818608E-02  0.1038614E+00
         21   -1    0    0  501  502  0.00000000000E+00  0.00000000000E+00  0.88540482346E+03  0.88540482346E+03  0.00000000000E+00 0. -1.
         21   -1    0    0  502  503 -0.00000000000E+00 -0.00000000000E+00 -0.29018016978E+03  0.29018016978E+03  0.00000000000E+00 0. -1.
    9000007    1    1    2  501    0  0.57861830751E+02  0.95432749333E+02  0.63464684907E+03  0.75844052116E+03  0.40000000000E+03 0. -1.
   -9000007    1    1    2    0  503 -0.57861830751E+02 -0.95432749333E+02 -0.39422195391E+02  0.41714447209E+03  0.40000000000E+03 0. -1.
<mgrwt>
<rscale>  2 0.41527750E+03</rscale>
<asrwt>0</asrwt>
<pdfrwt beam="1">  1       21 0.13621613E+00 0.41527750E+03</pdfrwt>
<pdfrwt beam="2">  1       21 0.44643103E-01 0.41527750E+03</pdfrwt>
<totfact> 0.16033182E+03</totfact>
</mgrwt>
</event>
<event>
 4    1  0.4656822E-002  0.4048055E+03  0.7818608E-02  0.1042128E+00
         21   -1    0    0  501  502  0.00000000000E+00  0.00000000000E+00  0.22692314583E+03  0.22692314583E+03  0.00000000000E+00 0. -1.
         21   -1    0    0  502  503 -0.00000000000E+00 -0.00000000000E+00 -0.75141319345E+03  0.75141319345E+03  0.00000000000E+00 0. -1.
    9000007    1    1    2  501    0 -0.26650594887E+02 -0.56189501196E+02 -0.16567457682E+03  0.43739636448E+03  0.40000000000E+03 0. -1.
   -9000007    1    1    2    0  503  0.26650594887E+02  0.56189501196E+02 -0.35881547080E+03  0.54093997480E+03  0.40000000000E+03 0. -1.
<mgrwt>
<rscale>  2 0.40480553E+03</rscale>
<asrwt>0</asrwt>
<pdfrwt beam="1">  1       21 0.34911254E-01 0.40480553E+03</pdfrwt>
<pdfrwt beam="2">  1       21 0.11560203E+00 0.40480553E+03</pdfrwt>
<totfact> 0.40623973E+03</totfact>
</mgrwt>
</event>
<event>
 4    1  0.4656822E-002  0.4708002E+03  0.7818608E-02  0.1021695E+00
         21   -1    0    0  501  502  0.00000000000E+00  0.00000000000E+00  0.86457290050E+03  0.86457290050E+03  0.00000000000E+00 0. -1.
         21   -1    0    0  502  503 -0.00000000000E+00 -0.00000000000E+00 -0.29521451751E+03  0.29521451751E+03  0.00000000000E+00 0.  1.
    9000007    1    1    2  501    0 -0.86424649738E+02 -0.23277374693E+03  0.49502295824E+03  0.68315486277E+03  0.40000000000E+03 0. -1.
   -9000007    1    1    2    0  503  0.86424649738E+02  0.23277374693E+03  0.74335424748E+02  0.47663255524E+03  0.40000000000E+03 0.  1.
<mgrwt>
<rscale>  2 0.47080021E+03</rscale>
<asrwt>0</asrwt>
<pdfrwt beam="1">  1       21 0.13301121E+00 0.47080021E+03</pdfrwt>
<pdfrwt beam="2">  1       21 0.45417618E-01 0.47080021E+03</pdfrwt>
<totfact> 0.16092338E+03</totfact>
</mgrwt>
</event>
<event>
 4    1  0.4656822E-002  0.4279141E+03  0.7818608E-02  0.1034521E+00
         21   -1    0    0  503  502  0.00000000000E+00  0.00000000000E+00  0.28521366993E+03  0.28521366993E+03  0.00000000000E+00 0. -1.
         21   -1    0    0  501  503 -0.00000000000E+00 -0.00000000000E+00 -0.15671699241E+04  0.15671699241E+04  0.00000000000E+00 0. -1.
    9000007    1    1    2  501    0  0.26162852491E+02  0.14975310474E+03 -0.13526026640E+04  0.14186770083E+04  0.40000000000E+03 0. -1.
   -9000007    1    1    2    0  502 -0.26162852491E+02 -0.14975310474E+03  0.70646409885E+02  0.43370658568E+03  0.40000000000E+03 0. -1.
<mgrwt>
<rscale>  2 0.42791411E+03</rscale>
<asrwt>0</asrwt>
<pdfrwt beam="1">  1       21 0.43879025E-01 0.42791411E+03</pdfrwt>
<pdfrwt beam="2">  1       21 0.24110307E+00 0.42791411E+03</pdfrwt>
<totfact> 0.30525401E+02</totfact>
</mgrwt>
</event>
<event>
 4    1  0.4656822E-002  0.4134658E+03  0.7818608E-02  0.1039214E+00
         21   -1    0    0  503  502  0.00000000000E+00  0.00000000000E+00  0.32047285134E+03  0.32047285134E+03  0.00000000000E+00 0.  1.
         21   -1    0    0  501  503 -0.00000000000E+00 -0.00000000000E+00 -0.67546731599E+03  0.67546731599E+03  0.00000000000E+00 0.  1.
    9000007    1    1    2  501    0  0.37570298327E+02  0.97685481794E+02 -0.40583750987E+03  0.57936004789E+03  0.40000000000E+03 0.  1.
   -9000007    1    1    2    0  502 -0.37570298327E+02 -0.97685481794E+02  0.50843045224E+02  0.41658011945E+03  0.40000000000E+03 0.  1.
<mgrwt>
<rscale>  2 0.41346582E+03</rscale>
<asrwt>0</asrwt>
<pdfrwt beam="1">  1       21 0.49303516E-01 0.41346582E+03</pdfrwt>
<pdfrwt beam="2">  1       21 0.10391805E+00 0.41346582E+03</pdfrwt>
<totfact> 0.25814365E+03</totfact>
</mgrwt>
</event>
<event>
 4    1  0.4656822E-002  0.5157517E+03  0.7818608E-02  0.1009747E+00
         21   -1    0    0  503  502  0.00000000000E+00  0.00000000000E+00  0.12248463621E+04  0.12248463621E+04  0.00000000000E+00 0. -1.
         21   -1    0    0  501  503 -0.00000000000E+00 -0.00000000000E+00 -0.21725267550E+03  0.21725267550E+03  0.00000000000E+00 0. -1.
    9000007    1    1    2  501    0 -0.20425641531E+03  0.25353335230E+03  0.48972801773E+03  0.71121963927E+03  0.40000000000E+03 0. -1.
   -9000007    1    1    2    0  502  0.20425641531E+03 -0.25353335230E+03  0.51786566885E+03  0.73087939833E+03  0.40000000000E+03 0. -1.
<mgrwt>
<rscale>  2 0.51575173E+03</rscale>
<asrwt>0</asrwt>
<pdfrwt beam="1">  1       21 0.18843790E+00 0.51575173E+03</pdfrwt>
<pdfrwt beam="2">  1       21 0.33423489E-01 0.51575173E+03</pdfrwt>
<totfact> 0.11248671E+03</totfact>
</mgrwt>
</event>
<event>
 4    1  0.4656822E-002  0.4194237E+03  0.7818608E-02  0.1037254E+00
         21   -1    0    0  503  502  0.00000000000E+00  0.00000000000E+00  0.16375108636E+03  0.16375108636E+03  0.00000000000E+00 0.  1.
         21   -1    0    0  501  503 -0.00000000000E+00 -0.00000000000E+00 -0.11617835341E+04  0.11617835341E+04  0.00000000000E+00 0.  1.
    9000007    1    1    2  501    0  0.12310866047E+02  0.12555748395E+03 -0.68089631699E+03  0.79970996848E+03  0.40000000000E+03 0.  1.
   -9000007    1    1    2    0  502 -0.12310866047E+02 -0.12555748395E+03 -0.31713613077E+03  0.52582465199E+03  0.40000000000E+03 0.  1.
<mgrwt>
<rscale>  2 0.41942370E+03</rscale>
<asrwt>0</asrwt>
<pdfrwt beam="1">  1       21 0.25192474E-01 0.41942370E+03</pdfrwt>
<pdfrwt beam="2">  1       21 0.17873594E+00 0.41942370E+03</pdfrwt>
<totfact> 0.23941096E+03</totfact>
</mgrwt>
</event>
<event>
 4    1  0.4656822E-002  0.5564266E+03  0.7818608E-02  0.1000017E+00
         21   -1    0    0  501  502  0.00000000000E+00  0.00000000000E+00  0.39300397148E+03  0.39300397148E+03  0.00000000000E+00 0. -1.
         21   -1    0    0  502  503 -0.00000000000E+00 -0.00000000000E+00 -0.14076229237E+04  0.14076229237E+04  0.00000000000E+00 0. -1.
    9000007    1    1    2  501    0 -0.37802918316E+03 -0.81881326123E+02  0.90114336492E+02  0.56367651053E+03  0.40000000000E+03 0. -1.
   -9000007    1    1    2    0  503  0.37802918316E+03  0.81881326123E+02 -0.11047332887E+04  0.12369503846E+04  0.40000000000E+03 0. -1.
<mgrwt>
<rscale>  2 0.55642665E+03</rscale>
<asrwt>0</asrwt>
<pdfrwt beam="1">  1       21 0.60462150E-01 0.55642665E+03</pdfrwt>
<pdfrwt beam="2">  1       21 0.21655737E+00 0.55642665E+03</pdfrwt>
<totfact> 0.20607435E+02</totfact>
</mgrwt>
</event>
<event>
 4    1  0.4656822E-002  0.4540351E+03  0.7818608E-02  0.1026526E+00
         21   -1    0    0  503  502  0.00000000000E+00  0.00000000000E+00  0.66211506249E+03  0.66211506249E+03  0.00000000000E+00 0. -1.
         21   -1    0    0  501  503 -0.00000000000E+00 -0.00000000000E+00 -0.33555691536E+03  0.33555691536E+03  0.00000000000E+00 0.  1.
    9000007    1    1    2  501    0 -0.19974679088E+03  0.79051272860E+02  0.29290849065E+02  0.45497894242E+03  0.40000000000E+03 0.  1.
   -9000007    1    1    2    0  502  0.19974679088E+03 -0.79051272860E+02  0.29726729806E+03  0.54269303543E+03  0.40000000000E+03 0. -1.
<mgrwt>
<rscale>  2 0.45403511E+03</rscale>
<asrwt>0</asrwt>
<pdfrwt beam="1">  1       21 0.10186386E+00 0.45403511E+03</pdfrwt>
<pdfrwt beam="2">  1       21 0.51624141E-01 0.45403511E+03</pdfrwt>
<totfact> 0.24203198E+03</totfact>
</mgrwt>
</event>
<event>
 4    1  0.4656822E-002  0.4166476E+03  0.7818608E-02  0.1038163E+00
         21   -1    0    0  503  502  0.00000000000E+00  0.00000000000E+00  0.18564654638E+03  0.18564654638E+03  0.00000000000E+00 0.  1.
         21   -1    0    0  501  503 -0.00000000000E+00 -0.00000000000E+00 -0.11547643647E+04  0.11547643647E+04  0.00000000000E+00 0.  1.
    9000007    1    1    2  501    0 -0.85959551809E+02  0.78779264650E+02 -0.77687744166E+03  0.88155191365E+03  0.40000000000E+03 0.  1.
   -9000007    1    1    2    0  502  0.85959551809E+02 -0.78779264650E+02 -0.19224037661E+03  0.45885899739E+03  0.40000000000E+03 0.  1.
<mgrwt>
<rscale>  2 0.41664759E+03</rscale>
<asrwt>0</asrwt>
<pdfrwt beam="1">  1       21 0.28561007E-01 0.41664759E+03</pdfrwt>
<pdfrwt beam="2">  1       21 0.17765606E+00 0.41664759E+03</pdfrwt>
<totfact> 0.19080250E+03</totfact>
</mgrwt>
</event>
<event>
 4    1  0.4656822E-002  0.4032700E+03  0.7818608E-02  0.1042653E+00
         21   -1    0    0  503  502  0.00000000000E+00  0.00000000000E+00  0.34282245574E+03  0.34282245574E+03  0.00000000000E+00 0.  1.
         21   -1    0    0  501  503 -0.00000000000E+00 -0.00000000000E+00 -0.82123720709E+03  0.82123720709E+03  0.00000000000E+00 0.  1.
    9000007    1    1    2  501    0 -0.28176704852E+02  0.42810898847E+02 -0.61746603992E+03  0.73748966787E+03  0.40000000000E+03 0.  1.
   -9000007    1    1    2    0  502  0.28176704852E+02 -0.42810898847E+02  0.13905128857E+03  0.42656999497E+03  0.40000000000E+03 0.  1.
<mgrwt>
<rscale>  2 0.40327001E+03</rscale>
<asrwt>0</asrwt>
<pdfrwt beam="1">  1       21 0.52741917E-01 0.40327001E+03</pdfrwt>
<pdfrwt beam="2">  1       21 0.12634418E+00 0.40327001E+03</pdfrwt>
<totfact> 0.13772891E+03</totfact>
</mgrwt>
</event>
<event>
 4    1  0.4656822E-002  0.4387372E+03  0.7818608E-02  0.1031135E+00
         21   -1    0    0  501  502  0.00000000000E+00  0.00000000000E+00  0.31710362001E+03  0.31710362001E+03  0.00000000000E+00 0. -1.
         21   -1    0    0  502  503 -0.00000000000E+00 -0.00000000000E+00 -0.64982029591E+03  0.64982029591E+03  0.00000000000E+00 0. -1.
    9000007    1    1    2  501    0 -0.87280894993E+02  0.15770985594E+03 -0.42291637292E+02  0.44077084282E+03  0.40000000000E+03 0. -1.
   -9000007    1    1    2    0  503  0.87280894993E+02 -0.15770985594E+03 -0.29042503861E+03  0.52615307311E+03  0.40000000000E+03 0. -1.
<mgrwt>
<rscale>  2 0.43873723E+03</rscale>
<asrwt>0</asrwt>
<pdfrwt beam="1">  1       21 0.48785173E-01 0.43873723E+03</pdfrwt>
<pdfrwt beam="2">  1       21 0.99972353E-01 0.43873723E+03</pdfrwt>
<totfact> 0.28738080E+03</totfact>
</mgrwt>
</event>
<event>
 4    1  0.4656822E-002  0.4303981E+03  0.7818608E-02  0.1033734E+00
         21   -1    0    0  501  502  0.00000000000E+00  0.00000000000E+00  0.11605983663E+04  0.11605983663E+04  0.00000000000E+00 0. -1.
         21   -1    0    0  502  503 -0.00000000000E+00 -0.00000000000E+00 -0.16040690739E+03  0.16040690739E+03  0.00000000000E+00 0. -1.
    9000007    1    1    2  501    0  0.10996033208E+03 -0.11467893484E+03  0.54666520243E+03  0.69576244242E+03  0.40000000000E+03 0. -1.
   -9000007    1    1    2    0  503 -0.10996033208E+03  0.11467893484E+03  0.45352625643E+03  0.62524283123E+03  0.40000000000E+03 0. -1.
<mgrwt>
<rscale>  2 0.43039811E+03</rscale>
<asrwt>0</asrwt>
<pdfrwt beam="1">  1       21 0.17855359E+00 0.43039811E+03</pdfrwt>
<pdfrwt beam="2">  1       21 0.24677987E-01 0.43039811E+03</pdfrwt>
<totfact> 0.24878102E+03</totfact>
</mgrwt>
</event>
<event>
 4    1  0.4656822E-002  0.6122662E+03  0.7818608E-02  0.9880279E-01
         21   -1    0    0  503  502  0.00000000000E+00  0.00000000000E+00  0.15202375149E+04  0.15202375149E+04  0.00000000000E+00 0. -1.
         21   -1    0    0  501  503 -0.00000000000E+00 -0.00000000000E+00 -0.59245097018E+03  0.59245097018E+03  0.00000000000E+00 0.  1.
    9000007    1    1    2  501    0 -0.33272781257E+03  0.32274147687E+03 -0.34321596090E+03  0.70190245331E+03  0.40000000000E+03 0.  1.
   -9000007    1    1    2    0  502  0.33272781257E+03 -0.32274147687E+03  0.12710025056E+04  0.14107860317E+04  0.40000000000E+03 0. -1.
<mgrwt>
<rscale>  2 0.61226617E+03</rscale>
<asrwt>0</asrwt>
<pdfrwt beam="1">  1       21 0.23388269E+00 0.61226617E+03</pdfrwt>
<pdfrwt beam="2">  1       21 0.91146304E-01 0.61226617E+03</pdfrwt>
<totfact> 0.60731763E+01</totfact>
</mgrwt>
</event>
<event>
 4    1  0.4656822E-002  0.5774937E+03  0.7818608E-02  0.9953232E-01
         21   -1    0    0  503  502  0.00000000000E+00  0.00000000000E+00  0.24925232832E+03  0.24925232832E+03  0.00000000000E+00 0. -1.
         21   -1    0    0  501  503 -0.00000000000E+00 -0.00000000000E+00 -0.14693097126E+04  0.14693097126E+04  0.00000000000E+00 0. -1.
    9000007    1    1    2  501    0 -0.41590716518E+03  0.22809223381E+02 -0.86690902090E+03  0.10416478682E+04  0.40000000000E+03 0. -1.
   -9000007    1    1    2    0  502  0.41590716518E+03 -0.22809223381E+02 -0.35314836337E+03  0.67691417275E+03  0.40000000000E+03 0. -1.
<mgrwt>
<rscale>  2 0.57749375E+03</rscale>
<asrwt>0</asrwt>
<pdfrwt beam="1">  1       21 0.38346512E-01 0.57749375E+03</pdfrwt>
<pdfrwt beam="2">  1       21 0.22604765E+00 0.57749375E+03</pdfrwt>
<totfact> 0.46758228E+02</totfact>
</mgrwt>
</event>
<event>
 4    1  0.4656822E-002  0.4100800E+03  0.7818608E-02  0.1040344E+00
         21   -1    0    0  503  502  0.00000000000E+00  0.00000000000E+00  0.33944744813E+03  0.33944744813E+03  0.00000000000E+00 0.  1.
         21   -1    0    0  501  503 -0.00000000000E+00 -0.00000000000E+00 -0.13737191674E+04  0.13737191674E+04  0.00000000000E+00 0.  1.
    9000007    1    1    2  501    0 -0.39365646481E+02 -0.81338494721E+02 -0.12020630012E+04  0.12700870300E+04  0.40000000000E+03 0.  1.
   -9000007    1    1    2    0  502  0.39365646481E+02  0.81338494721E+02  0.16779128193E+03  0.44307958556E+03  0.40000000000E+03 0.  1.
<mgrwt>
<rscale>  2 0.41008000E+03</rscale>
<asrwt>0</asrwt>
<pdfrwt beam="1">  1       21 0.52222685E-01 0.41008000E+03</pdfrwt>
<pdfrwt beam="2">  1       21 0.21134141E+00 0.41008000E+03</pdfrwt>
<totfact> 0.32923234E+02</totfact>
</mgrwt>
</event>
<event>
 4    1  0.4656822E-002  0.5299954E+03  0.7818608E-02  0.1006233E+00
         21   -1    0    0  503  502  0.00000000000E+00  0.00000000000E+00  0.43788456293E+03  0.43788456293E+03  0.00000000000E+00 0.  1.
         21   -1    0    0  501  503 -0.00000000000E+00 -0.00000000000E+00 -0.11936253449E+04  0.11936253449E+04  0.00000000000E+00 0.  1.
    9000007    1    1    2  501    0  0.69493419753E+02 -0.34068422049E+03  0.17694898230E+03  0.55875398506E+03  0.40000000000E+03 0.  1.
   -9000007    1    1    2    0  502 -0.69493419753E+02  0.34068422049E+03 -0.93268976430E+03  0.10727559228E+04  0.40000000000E+03 0.  1.
<mgrwt>
<rscale>  2 0.52999535E+03</rscale>
<asrwt>0</asrwt>
<pdfrwt beam="1">  1       21 0.67366856E-01 0.52999535E+03</pdfrwt>
<pdfrwt beam="2">  1       21 0.18363467E+00 0.52999535E+03</pdfrwt>
<totfact> 0.27294233E+02</totfact>
</mgrwt>
</event>
<event>
 4    1  0.4656822E-002  0.4038367E+03  0.7818608E-02  0.1042459E+00
         21   -1    0    0  501  502  0.00000000000E+00  0.00000000000E+00  0.10250853331E+03  0.10250853331E+03  0.00000000000E+00 0. -1.
         21   -1    0    0  502  503 -0.00000000000E+00 -0.00000000000E+00 -0.21710943195E+04  0.21710943195E+04  0.00000000000E+00 0. -1.
    9000007    1    1    2  501    0 -0.41183153623E+02  0.37256569902E+02 -0.16219446381E+04  0.16714629859E+04  0.40000000000E+03 0. -1.
   -9000007    1    1    2    0  503  0.41183153623E+02 -0.37256569902E+02 -0.44664114801E+03  0.60213986684E+03  0.40000000000E+03 0. -1.
<mgrwt>
<rscale>  2 0.40383673E+03</rscale>
<asrwt>0</asrwt>
<pdfrwt beam="1">  1       21 0.15770543E-01 0.40383673E+03</pdfrwt>
<pdfrwt beam="2">  1       21 0.33401452E+00 0.40383673E+03</pdfrwt>
<totfact> 0.63276608E+02</totfact>
</mgrwt>
</event>
<event>
 4    1  0.4656822E-002  0.4006564E+03  0.7818608E-02  0.1043553E+00
         21   -1    0    0  501  502  0.00000000000E+00  0.00000000000E+00  0.19939624668E+04  0.19939624668E+04  0.00000000000E+00 0. -1.
         21   -1    0    0  502  503 -0.00000000000E+00 -0.00000000000E+00 -0.82896294753E+02  0.82896294753E+02  0.00000000000E+00 0. -1.
    9000007    1    1    2  501    0  0.20757392633E+02 -0.97310156832E+01  0.11318737471E+04  0.12006930255E+04  0.40000000000E+03 0.  1.
   -9000007    1    1    2    0  503 -0.20757392633E+02  0.97310156832E+01  0.77919242498E+03  0.87616573613E+03  0.40000000000E+03 0.  1.
<mgrwt>
<rscale>  2 0.40065641E+03</rscale>
<asrwt>0</asrwt>
<pdfrwt beam="1">  1       21 0.30676342E+00 0.40065641E+03</pdfrwt>
<pdfrwt beam="2">  1       21 0.12753278E-01 0.40065641E+03</pdfrwt>
<totfact> 0.13672981E+03</totfact>
</mgrwt>
</event>
<event>
 4    1  0.4656822E-002  0.4230226E+03  0.7818608E-02  0.1036087E+00
         21   -1    0    0  503  502  0.00000000000E+00  0.00000000000E+00  0.27204028002E+03  0.27204028002E+03  0.00000000000E+00 0.  1.
         21   -1    0    0  501  503 -0.00000000000E+00 -0.00000000000E+00 -0.15956899606E+04  0.15956899606E+04  0.00000000000E+00 0. -1.
    9000007    1    1    2  501    0 -0.76613447244E+02 -0.11436114310E+03 -0.13777800378E+04  0.14412584514E+04  0.40000000000E+03 0. -1.
   -9000007    1    1    2    0  502  0.76613447244E+02  0.11436114310E+03  0.54130357254E+02  0.42647178913E+03  0.40000000000E+03 0.  1.
<mgrwt>
<rscale>  2 0.42302257E+03</rscale>
<asrwt>0</asrwt>
<pdfrwt beam="1">  1       21 0.41852349E-01 0.42302257E+03</pdfrwt>
<pdfrwt beam="2">  1       21 0.24549077E+00 0.42302257E+03</pdfrwt>
<totfact> 0.31732587E+02</totfact>
</mgrwt>
</event>
<event>
 4    1  0.4656822E-002  0.4494635E+03  0.7818608E-02  0.1027882E+00
         21   -1    0    0  503  502  0.00000000000E+00  0.00000000000E+00  0.15413293556E+04  0.15413293556E+04  0.00000000000E+00 0. -1.
         21   -1    0    0  501  503 -0.00000000000E+00 -0.00000000000E+00 -0.13645190756E+03  0.13645190756E+03  0.00000000000E+00 0. -1.
    9000007    1    1    2  501    0  0.64495769494E+02  0.19457052802E+03  0.53578877402E+03  0.69934755667E+03  0.40000000000E+03 0. -1.
   -9000007    1    1    2    0  502 -0.64495769494E+02 -0.19457052802E+03  0.86908867400E+03  0.97843370646E+03  0.40000000000E+03 0. -1.
<mgrwt>
<rscale>  2 0.44946345E+03</rscale>
<asrwt>0</asrwt>
<pdfrwt beam="1">  1       21 0.23712758E+00 0.44946345E+03</pdfrwt>
<pdfrwt beam="2">  1       21 0.20992602E-01 0.44946345E+03</pdfrwt>
<totfact> 0.13870899E+03</totfact>
</mgrwt>
</event>
<event>
 4    1  0.4656822E-002  0.5583921E+03  0.7818608E-02  0.9995699E-01
         21   -1    0    0  503  502  0.00000000000E+00  0.00000000000E+00  0.55209738899E+03  0.55209738899E+03  0.00000000000E+00 0. -1.
         21   -1    0    0  501  503 -0.00000000000E+00 -0.00000000000E+00 -0.76170155053E+03  0.76170155053E+03  0.00000000000E+00 0.  1.
    9000007    1    1    2  501    0  0.38431586757E+03 -0.64055006545E+02 -0.43882537016E+03  0.71018971791E+03  0.40000000000E+03 0. -1.
   -9000007    1    1    2    0  502 -0.38431586757E+03  0.64055006545E+02  0.22922120862E+03  0.60360922161E+03  0.40000000000E+03 0. -1.
<mgrwt>
<rscale>  2 0.55839209E+03</rscale>
<asrwt>0</asrwt>
<pdfrwt beam="1">  1       21 0.84938060E-01 0.55839209E+03</pdfrwt>
<pdfrwt beam="2">  1       21 0.11718485E+00 0.55839209E+03</pdfrwt>
<totfact> 0.53984718E+02</totfact>
</mgrwt>
</event>
<event>
 4    1  0.4656822E-002  0.4656225E+03  0.7818608E-02  0.1023163E+00
         21   -1    0    0  501  502  0.00000000000E+00  0.00000000000E+00  0.43717982995E+03  0.43717982995E+03  0.00000000000E+00 0.  1.
         21   -1    0    0  502  503 -0.00000000000E+00 -0.00000000000E+00 -0.88656116147E+03  0.88656116147E+03  0.00000000000E+00 0. -1.
    9000007    1    1    2  501    0  0.22644484168E+03  0.74343968236E+02  0.21465882305E+03  0.51272088142E+03  0.40000000000E+03 0.  1.
   -9000007    1    1    2    0  503 -0.22644484168E+03 -0.74343968236E+02 -0.66404015456E+03  0.81102010999E+03  0.40000000000E+03 0. -1.
<mgrwt>
<rscale>  2 0.46562248E+03</rscale>
<asrwt>0</asrwt>
<pdfrwt beam="1">  1       21 0.67258436E-01 0.46562248E+03</pdfrwt>
<pdfrwt beam="2">  1       21 0.13639402E+00 0.46562248E+03</pdfrwt>
<totfact> 0.64534284E+02</totfact>
</mgrwt>
</event>
<event>
 4    1  0.4656822E-002  0.5103326E+03  0.7818608E-02  0.1011117E+00
         21   -1    0    0  501  502  0.00000000000E+00  0.00000000000E+00  0.11213379693E+04  0.11213379693E+04  0.00000000000E+00 0. -1.
         21   -1    0    0  502  503 -0.00000000000E+00 -0.00000000000E+00 -0.40534787328E+03  0.40534787328E+03  0.00000000000E+00 0. -1.
    9000007    1    1    2  501    0 -0.28454133201E+03 -0.13955493892E+03  0.85681287934E+03  0.99728013156E+03  0.40000000000E+03 0. -1.
   -9000007    1    1    2    0  503  0.28454133201E+03  0.13955493892E+03 -0.14082278329E+03  0.52940571105E+03  0.40000000000E+03 0. -1.
<mgrwt>
<rscale>  2 0.51033259E+03</rscale>
<asrwt>0</asrwt>
<pdfrwt beam="1">  1       21 0.17251353E+00 0.51033259E+03</pdfrwt>
<pdfrwt beam="2">  1       21 0.62361212E-01 0.51033259E+03</pdfrwt>
<totfact> 0.39241781E+02</totfact>
</mgrwt>
</event>
<event>
 4    1  0.4656822E-002  0.6044605E+03  0.7818608E-02  0.9896195E-01
         21   -1    0    0  503  502  0.00000000000E+00  0.00000000000E+00  0.22452043297E+03  0.22452043297E+03  0.00000000000E+00 0.  1.
         21   -1    0    0  501  503 -0.00000000000E+00 -0.00000000000E+00 -0.18333760540E+04  0.18333760540E+04  0.00000000000E+00 0.  1.
    9000007    1    1    2  501    0  0.44033941088E+03  0.10711539433E+03 -0.11493591734E+04  0.12986142668E+04  0.40000000000E+03 0.  1.
   -9000007    1    1    2    0  502 -0.44033941088E+03 -0.10711539433E+03 -0.45949644763E+03  0.75928222017E+03  0.40000000000E+03 0.  1.
<mgrwt>
<rscale>  2 0.60446051E+03</rscale>
<asrwt>0</asrwt>
<pdfrwt beam="1">  1       21 0.34541604E-01 0.60446051E+03</pdfrwt>
<pdfrwt beam="2">  1       21 0.28205786E+00 0.60446051E+03</pdfrwt>
<totfact> 0.25692418E+02</totfact>
</mgrwt>
</event>
<event>
 4    1  0.4656822E-002  0.4286495E+03  0.7818608E-02  0.1034287E+00
         21   -1    0    0  503  502  0.00000000000E+00  0.00000000000E+00  0.75929534819E+03  0.75929534819E+03  0.00000000000E+00 0. -1.
         21   -1    0    0  501  503 -0.00000000000E+00 -0.00000000000E+00 -0.24262793564E+03  0.24262793564E+03  0.00000000000E+00 0. -1.
    9000007    1    1    2  501    0  0.65573053671E+02 -0.13942951219E+03  0.23260729578E+03  0.48769515918E+03  0.40000000000E+03 0.  1.
   -9000007    1    1    2    0  502 -0.65573053671E+02  0.13942951219E+03  0.28406011677E+03  0.51422812465E+03  0.40000000000E+03 0.  1.
<mgrwt>
<rscale>  2 0.42864952E+03</rscale>
<asrwt>0</asrwt>
<pdfrwt beam="1">  1       21 0.11681467E+00 0.42864952E+03</pdfrwt>
<pdfrwt beam="2">  1       21 0.37327375E-01 0.42864952E+03</pdfrwt>
<totfact> 0.34242220E+03</totfact>
</mgrwt>
</event>
<event>
 4    1  0.4656822E-002  0.4021248E+03  0.7818608E-02  0.1043046E+00
         21   -1    0    0  503  502  0.00000000000E+00  0.00000000000E+00  0.25257961854E+03  0.25257961854E+03  0.00000000000E+00 0.  1.
         21   -1    0    0  501  503 -0.00000000000E+00 -0.00000000000E+00 -0.67746067933E+03  0.67746067933E+03  0.00000000000E+00 0.  1.
    9000007    1    1    2  501    0 -0.28077737354E+02 -0.30264984318E+02 -0.32148136901E+03  0.51483453578E+03  0.40000000000E+03 0.  1.
   -9000007    1    1    2    0  502  0.28077737354E+02  0.30264984318E+02 -0.10339969178E+03  0.41520576209E+03  0.40000000000E+03 0.  1.
<mgrwt>
<rscale>  2 0.40212477E+03</rscale>
<asrwt>0</asrwt>
<pdfrwt beam="1">  1       21 0.38858403E-01 0.40212477E+03</pdfrwt>
<pdfrwt beam="2">  1       21 0.10422472E+00 0.40212477E+03</pdfrwt>
<totfact> 0.42265230E+03</totfact>
</mgrwt>
</event>
<event>
 4    1  0.4656822E-002  0.5001880E+03  0.7818608E-02  0.1013730E+00
         21   -1    0    0  503  502  0.00000000000E+00  0.00000000000E+00  0.62417118844E+03  0.62417118844E+03  0.00000000000E+00 0. -1.
         21   -1    0    0  501  503 -0.00000000000E+00 -0.00000000000E+00 -0.55932692677E+03  0.55932692677E+03  0.00000000000E+00 0.  1.
    9000007    1    1    2  501    0 -0.16620646224E+03  0.25012688448E+03 -0.28257878899E+03  0.57449005076E+03  0.40000000000E+03 0.  1.
   -9000007    1    1    2    0  502  0.16620646224E+03 -0.25012688448E+03  0.34742305066E+03  0.60900806445E+03  0.40000000000E+03 0. -1.
<mgrwt>
<rscale>  2 0.50018801E+03</rscale>
<asrwt>0</asrwt>
<pdfrwt beam="1">  1       21 0.96026337E-01 0.50018801E+03</pdfrwt>
<pdfrwt beam="2">  1       21 0.86050296E-01 0.50018801E+03</pdfrwt>
<totfact> 0.87493755E+02</totfact>
</mgrwt>
</event>
<event>
 4    1  0.4656822E-002  0.4052023E+03  0.7818608E-02  0.1041993E+00
         21   -1    0    0  501  502  0.00000000000E+00  0.00000000000E+00  0.67528843954E+03  0.67528843954E+03  0.00000000000E+00 0.  1.
         21   -1    0    0  502  503 -0.00000000000E+00 -0.00000000000E+00 -0.25989285467E+03  0.25989285467E+03  0.00000000000E+00 0.  1.
    9000007    1    1    2  501    0  0.63179167036E+02 -0.14045967501E+02  0.88976897719E+02  0.41485634222E+03  0.40000000000E+03 0.  1.
   -9000007    1    1    2    0  503 -0.63179167036E+02  0.14045967501E+02  0.32641868715E+03  0.52032495200E+03  0.40000000000E+03 0.  1.
<mgrwt>
<rscale>  2 0.40520229E+03</rscale>
<asrwt>0</asrwt>
<pdfrwt beam="1">  1       21 0.10389053E+00 0.40520229E+03</pdfrwt>
<pdfrwt beam="2">  1       21 0.39983516E-01 0.40520229E+03</pdfrwt>
<totfact> 0.40128587E+03</totfact>
</mgrwt>
</event>
<event>
 4    1  0.4656822E-002  0.5529518E+03  0.7818608E-02  0.1000813E+00
         21   -1    0    0  501  502  0.00000000000E+00  0.00000000000E+00  0.25829600148E+03  0.25829600148E+03  0.00000000000E+00 0.  1.
         21   -1    0    0  502  503 -0.00000000000E+00 -0.00000000000E+00 -0.17547639540E+04  0.17547639540E+04  0.00000000000E+00 0. -1.
    9000007    1    1    2  501    0  0.32644966819E+02  0.38038140910E+03 -0.17405943219E+03  0.57970026408E+03  0.40000000000E+03 0.  1.
   -9000007    1    1    2    0  503 -0.32644966819E+02 -0.38038140910E+03 -0.13224085203E+04  0.14333596913E+04  0.40000000000E+03 0.  1.
<mgrwt>
<rscale>  2 0.55295182E+03</rscale>
<asrwt>0</asrwt>
<pdfrwt beam="1">  1       21 0.39737846E-01 0.55295182E+03</pdfrwt>
<pdfrwt beam="2">  1       21 0.26996369E+00 0.55295182E+03</pdfrwt>
<totfact> 0.23383679E+02</totfact>
</mgrwt>
</event>
<event>
 4    1  0.4656822E-002  0.5756386E+03  0.7818608E-02  0.9957278E-01
         21   -1    0    0  501  502  0.00000000000E+00  0.00000000000E+00  0.50686964980E+03  0.50686964980E+03  0.00000000000E+00 0.  1.
         21   -1    0    0  502  503 -0.00000000000E+00 -0.00000000000E+00 -0.67845408807E+03  0.67845408807E+03  0.00000000000E+00 0.  1.
    9000007    1    1    2  501    0 -0.16020009260E+03  0.38170108790E+03  0.27327784715E+02  0.57628690597E+03  0.40000000000E+03 0.  1.
   -9000007    1    1    2    0  503  0.16020009260E+03 -0.38170108790E+03 -0.19891222298E+03  0.60903683191E+03  0.40000000000E+03 0.  1.
<mgrwt>
<rscale>  2 0.57563859E+03</rscale>
<asrwt>0</asrwt>
<pdfrwt beam="1">  1       21 0.77979946E-01 0.57563859E+03</pdfrwt>
<pdfrwt beam="2">  1       21 0.10437755E+00 0.57563859E+03</pdfrwt>
<totfact> 0.87478019E+02</totfact>
</mgrwt>
</event>
<event>
 4    1  0.4656822E-002  0.6006694E+03  0.7818608E-02  0.9904018E-01
         21   -1    0    0  501  502  0.00000000000E+00  0.00000000000E+00  0.40286752510E+03  0.40286752510E+03  0.00000000000E+00 0.  1.
         21   -1    0    0  502  503 -0.00000000000E+00 -0.00000000000E+00 -0.11155140840E+04  0.11155140840E+04  0.00000000000E+00 0. -1.
    9000007    1    1    2  501    0 -0.39976968569E+03  0.20245479400E+03 -0.19229497667E+02  0.60097713666E+03  0.40000000000E+03 0.  1.
   -9000007    1    1    2    0  503  0.39976968569E+03 -0.20245479400E+03 -0.69341706121E+03  0.91740447240E+03  0.40000000000E+03 0. -1.
<mgrwt>
<rscale>  2 0.60066941E+03</rscale>
<asrwt>0</asrwt>
<pdfrwt beam="1">  1       21 0.61979619E-01 0.60066941E+03</pdfrwt>
<pdfrwt beam="2">  1       21 0.17161755E+00 0.60066941E+03</pdfrwt>
<totfact> 0.38987908E+02</totfact>
</mgrwt>
</event>
<event>
 4    1  0.4656822E-002  0.4191147E+03  0.7818608E-02  0.1037355E+00
         21   -1    0    0  501  502  0.00000000000E+00  0.00000000000E+00  0.12104672632E+04  0.12104672632E+04  0.00000000000E+00 0.  1.
         21   -1    0    0  502  503 -0.00000000000E+00 -0.00000000000E+00 -0.16120241801E+03  0.16120241801E+03  0.00000000000E+00 0.  1.
    9000007    1    1    2  501    0 -0.44708117137E+02 -0.11686881195E+03  0.74129053526E+03  0.85156843096E+03  0.40000000000E+03 0.  1.
   -9000007    1    1    2    0  503  0.44708117137E+02  0.11686881195E+03  0.30797430994E+03  0.52010125026E+03  0.40000000000E+03 0.  1.
<mgrwt>
<rscale>  2 0.41911470E+03</rscale>
<asrwt>0</asrwt>
<pdfrwt beam="1">  1       21 0.18622573E+00 0.41911470E+03</pdfrwt>
<pdfrwt beam="2">  1       21 0.24800373E-01 0.41911470E+03</pdfrwt>
<totfact> 0.21887070E+03</totfact>
</mgrwt>
</event>
<event>
 4    1  0.4656822E-002  0.4508709E+03  0.7818608E-02  0.1027463E+00
         21   -1    0    0  503  502  0.00000000000E+00  0.00000000000E+00  0.53095089365E+03  0.53095089365E+03  0.00000000000E+00 0.  1.
         21   -1    0    0  501  503 -0.00000000000E+00 -0.00000000000E+00 -0.45430750163E+03  0.45430750163E+03  0.00000000000E+00 0.  1.
    9000007    1    1    2  501    0 -0.17938824801E+03  0.10537761875E+03 -0.15702751369E+03  0.47743295457E+03  0.40000000000E+03 0.  1.
   -9000007    1    1    2    0  502  0.17938824801E+03 -0.10537761875E+03  0.23367090570E+03  0.50782544071E+03  0.40000000000E+03 0.  1.
<mgrwt>
<rscale>  2 0.45087092E+03</rscale>
<asrwt>0</asrwt>
<pdfrwt beam="1">  1       21 0.81684752E-01 0.45087092E+03</pdfrwt>
<pdfrwt beam="2">  1       21 0.69893462E-01 0.45087092E+03</pdfrwt>
<totfact> 0.21076327E+03</totfact>
</mgrwt>
</event>
<event>
 4    1  0.4656822E-002  0.4267949E+03  0.7818608E-02  0.1034877E+00
         21   -1    0    0  501  502  0.00000000000E+00  0.00000000000E+00  0.21303638097E+03  0.21303638097E+03  0.00000000000E+00 0.  1.
         21   -1    0    0  502  503 -0.00000000000E+00 -0.00000000000E+00 -0.11116137566E+04  0.11116137566E+04  0.00000000000E+00 0.  1.
    9000007    1    1    2  501    0 -0.14864087113E+03  0.77303824741E+01 -0.13108634578E+03  0.44647228070E+03  0.40000000000E+03 0.  1.
   -9000007    1    1    2    0  503  0.14864087113E+03 -0.77303824741E+01 -0.76749102983E+03  0.87817785685E+03  0.40000000000E+03 0.  1.
<mgrwt>
<rscale>  2 0.42679488E+03</rscale>
<asrwt>0</asrwt>
<pdfrwt beam="1">  1       21 0.32774828E-01 0.42679488E+03</pdfrwt>
<pdfrwt beam="2">  1       21 0.17101750E+00 0.42679488E+03</pdfrwt>
<totfact> 0.16117678E+03</totfact>
</mgrwt>
</event>
<event>
 4    1  0.4656822E-002  0.1032617E+04  0.7818608E-02  0.9273477E-01
         21   -1    0    0  503  502  0.00000000000E+00  0.00000000000E+00  0.10337048974E+04  0.10337048974E+04  0.00000000000E+00 0.  1.
         21   -1    0    0  501  503 -0.00000000000E+00 -0.00000000000E+00 -0.10805500628E+04  0.10805500628E+04  0.00000000000E+00 0. -1.
    9000007    1    1    2  501    0  0.81373200814E+03  0.49410418426E+03 -0.24858042457E+03  0.10621162617E+04  0.40000000000E+03 0.  1.
   -9000007    1    1    2    0  502 -0.81373200814E+03 -0.49410418426E+03  0.20173525919E+03  0.10521386984E+04  0.40000000000E+03 0. -1.
<mgrwt>
<rscale>  2 0.10326174E+04</rscale>
<asrwt>0</asrwt>
<pdfrwt beam="1">  1       21 0.15903152E+00 0.10326174E+04</pdfrwt>
<pdfrwt beam="2">  1       21 0.16623847E+00 0.10326174E+04</pdfrwt>
<totfact> 0.36369939E+01</totfact>
</mgrwt>
</event>
<event>
 4    1  0.4656822E-002  0.4656263E+03  0.7818608E-02  0.1023162E+00
         21   -1    0    0  503  502  0.00000000000E+00  0.00000000000E+00  0.64495672904E+03  0.64495672904E+03  0.00000000000E+00 0.  1.
         21   -1    0    0  501  503 -0.00000000000E+00 -0.00000000000E+00 -0.48675533427E+03  0.48675533427E+03  0.00000000000E+00 0.  1.
    9000007    1    1    2  501    0 -0.13991618571E+03 -0.19295427397E+03 -0.23564373346E+03  0.52185808414E+03  0.40000000000E+03 0.  1.
   -9000007    1    1    2    0  502  0.13991618571E+03  0.19295427397E+03  0.39384512823E+03  0.60985397916E+03  0.40000000000E+03 0.  1.
<mgrwt>
<rscale>  2 0.46562634E+03</rscale>
<asrwt>0</asrwt>
<pdfrwt beam="1">  1       21 0.99224112E-01 0.46562634E+03</pdfrwt>
<pdfrwt beam="2">  1       21 0.74885436E-01 0.46562634E+03</pdfrwt>
<totfact> 0.11302782E+03</totfact>
</mgrwt>
</event>
<event>
 4    1  0.4656822E-002  0.4237488E+03  0.7818608E-02  0.1035853E+00
         21   -1    0    0  501  502  0.00000000000E+00  0.00000000000E+00  0.37168967806E+03  0.37168967806E+03  0.00000000000E+00 0.  1.
         21   -1    0    0  502  503 -0.00000000000E+00 -0.00000000000E+00 -0.75110532246E+03  0.75110532246E+03  0.00000000000E+00 0.  1.
    9000007    1    1    2  501    0  0.28228721021E+02  0.13698987162E+03  0.14563745592E+03  0.44807739754E+03  0.40000000000E+03 0.  1.
   -9000007    1    1    2    0  503 -0.28228721021E+02 -0.13698987162E+03 -0.52505310032E+03  0.67471760298E+03  0.40000000000E+03 0.  1.
<mgrwt>
<rscale>  2 0.42374885E+03</rscale>
<asrwt>0</asrwt>
<pdfrwt beam="1">  1       21 0.57183028E-01 0.42374885E+03</pdfrwt>
<pdfrwt beam="2">  1       21 0.11555466E+00 0.42374885E+03</pdfrwt>
<totfact> 0.14385544E+03</totfact>
</mgrwt>
</event>
<event>
 4    1  0.4656822E-002  0.5168572E+03  0.7818608E-02  0.1009470E+00
         21   -1    0    0  503  502  0.00000000000E+00  0.00000000000E+00  0.18825758920E+03  0.18825758920E+03  0.00000000000E+00 0. -1.
         21   -1    0    0  501  503 -0.00000000000E+00 -0.00000000000E+00 -0.17157257965E+04  0.17157257965E+04  0.00000000000E+00 0.  1.
    9000007    1    1    2  501    0 -0.71297709988E+01  0.32724693924E+03 -0.11596216236E+04  0.12695919434E+04  0.40000000000E+03 0.  1.
   -9000007    1    1    2    0  502  0.71297709988E+01 -0.32724693924E+03 -0.36784658368E+03  0.63439144225E+03  0.40000000000E+03 0. -1.
<mgrwt>
<rscale>  2 0.51685723E+03</rscale>
<asrwt>0</asrwt>
<pdfrwt beam="1">  1       21 0.28962707E-01 0.51685723E+03</pdfrwt>
<pdfrwt beam="2">  1       21 0.26395780E+00 0.51685723E+03</pdfrwt>
<totfact> 0.49078241E+02</totfact>
</mgrwt>
</event>
<event>
 4    1  0.4656822E-002  0.4045383E+03  0.7818608E-02  0.1042219E+00
         21   -1    0    0  503  502  0.00000000000E+00  0.00000000000E+00  0.10852944495E+04  0.10852944495E+04  0.00000000000E+00 0.  1.
         21   -1    0    0  501  503 -0.00000000000E+00 -0.00000000000E+00 -0.19885764579E+03  0.19885764579E+03  0.00000000000E+00 0.  1.
    9000007    1    1    2  501    0  0.53099149264E+02 -0.28839973778E+02  0.12754140230E+03  0.42416750588E+03  0.40000000000E+03 0.  1.
   -9000007    1    1    2    0  502 -0.53099149264E+02  0.28839973778E+02  0.75889540138E+03  0.85998458939E+03  0.40000000000E+03 0.  1.
<mgrwt>
<rscale>  2 0.40453833E+03</rscale>
<asrwt>0</asrwt>
<pdfrwt beam="1">  1       21 0.16696837E+00 0.40453833E+03</pdfrwt>
<pdfrwt beam="2">  1       21 0.30593485E-01 0.40453833E+03</pdfrwt>
<totfact> 0.19989332E+03</totfact>
</mgrwt>
</event>
<event>
 4    1  0.4656822E-002  0.4693241E+03  0.7818608E-02  0.1022111E+00
         21   -1    0    0  503  502  0.00000000000E+00  0.00000000000E+00  0.20196105287E+04  0.20196105287E+04  0.00000000000E+00 0.  1.
         21   -1    0    0  501  503 -0.00000000000E+00 -0.00000000000E+00 -0.11013614131E+03  0.11013614131E+03  0.00000000000E+00 0.  1.
    9000007    1    1    2  501    0 -0.10816802404E+03  0.22037429276E+03  0.84963187785E+03  0.97063869601E+03  0.40000000000E+03 0.  1.
   -9000007    1    1    2    0  502  0.10816802404E+03 -0.22037429276E+03  0.10598425095E+04  0.11591079740E+04  0.40000000000E+03 0.  1.
<mgrwt>
<rscale>  2 0.46932414E+03</rscale>
<asrwt>0</asrwt>
<pdfrwt beam="1">  1       21 0.31070929E+00 0.46932414E+03</pdfrwt>
<pdfrwt beam="2">  1       21 0.16944023E-01 0.46932414E+03</pdfrwt>
<totfact> 0.73601638E+02</totfact>
</mgrwt>
</event>
<event>
 4    1  0.4656822E-002  0.4043012E+03  0.7818608E-02  0.1042300E+00
         21   -1    0    0  501  502  0.00000000000E+00  0.00000000000E+00  0.10990949531E+04  0.10990949531E+04  0.00000000000E+00 0. -1.
         21   -1    0    0  502  503 -0.00000000000E+00 -0.00000000000E+00 -0.19408026070E+03  0.19408026070E+03  0.00000000000E+00 0. -1.
    9000007    1    1    2  501    0 -0.32304130224E+02 -0.49152032825E+02  0.76509038864E+03  0.86534546971E+03  0.40000000000E+03 0. -1.
   -9000007    1    1    2    0  503  0.32304130224E+02  0.49152032825E+02  0.13992430378E+03  0.42782974411E+03  0.40000000000E+03 0. -1.
<mgrwt>
<rscale>  2 0.40430122E+03</rscale>
<asrwt>0</asrwt>
<pdfrwt beam="1">  1       21 0.16909153E+00 0.40430122E+03</pdfrwt>
<pdfrwt beam="2">  1       21 0.29858502E-01 0.40430122E+03</pdfrwt>
<totfact> 0.20244477E+03</totfact>
</mgrwt>
</event>
<event>
 4    1  0.4656822E-002  0.4667236E+03  0.7818608E-02  0.1022849E+00
         21   -1    0    0  501  502  0.00000000000E+00  0.00000000000E+00  0.13216800243E+04  0.13216800243E+04  0.00000000000E+00 0.  1.
         21   -1    0    0  502  503 -0.00000000000E+00 -0.00000000000E+00 -0.57077773268E+03  0.57077773268E+03  0.00000000000E+00 0.  1.
    9000007    1    1    2  501    0 -0.44194595712E+02 -0.23638480363E+03  0.11734577427E+04  0.12628673768E+04  0.40000000000E+03 0.  1.
   -9000007    1    1    2    0  503  0.44194595712E+02  0.23638480363E+03 -0.42255545098E+03  0.62959038019E+03  0.40000000000E+03 0.  1.
<mgrwt>
<rscale>  2 0.46672362E+03</rscale>
<asrwt>0</asrwt>
<pdfrwt beam="1">  1       21 0.20333539E+00 0.46672362E+03</pdfrwt>
<pdfrwt beam="2">  1       21 0.87811959E-01 0.46672362E+03</pdfrwt>
<totfact> 0.11234363E+02</totfact>
</mgrwt>
</event>
<event>
 4    1  0.4656822E-002  0.4221588E+03  0.7818608E-02  0.1036366E+00
         21   -1    0    0  501  502  0.00000000000E+00  0.00000000000E+00  0.22813906830E+03  0.22813906830E+03  0.00000000000E+00 0.  1.
         21   -1    0    0  502  503 -0.00000000000E+00 -0.00000000000E+00 -0.82097195429E+03  0.82097195429E+03  0.00000000000E+00 0.  1.
    9000007    1    1    2  501    0  0.10666077427E+03 -0.82713772556E+02 -0.18093423380E+03  0.45929868920E+03  0.40000000000E+03 0.  1.
   -9000007    1    1    2    0  503 -0.10666077427E+03  0.82713772556E+02 -0.41189865218E+03  0.58981233338E+03  0.40000000000E+03 0.  1.
<mgrwt>
<rscale>  2 0.42215884E+03</rscale>
<asrwt>0</asrwt>
<pdfrwt beam="1">  1       21 0.35098319E-01 0.42215884E+03</pdfrwt>
<pdfrwt beam="2">  1       21 0.12630338E+00 0.42215884E+03</pdfrwt>
<totfact> 0.31881542E+03</totfact>
</mgrwt>
</event>
<event>
 4    1  0.4656822E-002  0.5028206E+03  0.7818608E-02  0.1013045E+00
         21   -1    0    0  501  502  0.00000000000E+00  0.00000000000E+00  0.68951558559E+03  0.68951558559E+03  0.00000000000E+00 0.  1.
         21   -1    0    0  502  503 -0.00000000000E+00 -0.00000000000E+00 -0.42688696608E+03  0.42688696608E+03  0.00000000000E+00 0.  1.
    9000007    1    1    2  501    0 -0.11720964388E+03  0.28123021196E+03 -0.78325453760E+02  0.50888447554E+03  0.40000000000E+03 0.  1.
   -9000007    1    1    2    0  503  0.11720964388E+03 -0.28123021196E+03  0.34095407327E+03  0.60751807613E+03  0.40000000000E+03 0.  1.
<mgrwt>
<rscale>  2 0.50282058E+03</rscale>
<asrwt>0</asrwt>
<pdfrwt beam="1">  1       21 0.10607932E+00 0.50282058E+03</pdfrwt>
<pdfrwt beam="2">  1       21 0.65674918E-01 0.50282058E+03</pdfrwt>
<totfact> 0.12722590E+03</totfact>
</mgrwt>
</event>
<event>
 4    1  0.4656822E-002  0.4317153E+03  0.7818608E-02  0.1033319E+00
         21   -1    0    0  503  502  0.00000000000E+00  0.00000000000E+00  0.44133449207E+03  0.44133449207E+03  0.00000000000E+00 0. -1.
         21   -1    0    0  501  503 -0.00000000000E+00 -0.00000000000E+00 -0.86122949400E+03  0.86122949400E+03  0.00000000000E+00 0. -1.
    9000007    1    1    2  501    0  0.47242373959E+02 -0.15539054612E+03 -0.67489529834E+03  0.80116273469E+03  0.40000000000E+03 0. -1.
   -9000007    1    1    2    0  502 -0.47242373959E+02  0.15539054612E+03  0.25500029642E+03  0.50140125139E+03  0.40000000000E+03 0. -1.
<mgrwt>
<rscale>  2 0.43171526E+03</rscale>
<asrwt>0</asrwt>
<pdfrwt beam="1">  1       21 0.67897614E-01 0.43171526E+03</pdfrwt>
<pdfrwt beam="2">  1       21 0.13249685E+00 0.43171526E+03</pdfrwt>
<totfact> 0.69193191E+02</totfact>
</mgrwt>
</event>
<event>
 4    1  0.4656822E-002  0.4266676E+03  0.7818608E-02  0.1034918E+00
         21   -1    0    0  503  502  0.00000000000E+00  0.00000000000E+00  0.67115049187E+03  0.67115049187E+03  0.00000000000E+00 0. -1.
         21   -1    0    0  501  503 -0.00000000000E+00 -0.00000000000E+00 -0.55003470127E+03  0.55003470127E+03  0.00000000000E+00 0.  1.
    9000007    1    1    2  501    0 -0.92235482505E+02 -0.11635240210E+03 -0.37414842493E+03  0.56747890673E+03  0.40000000000E+03 0.  1.
   -9000007    1    1    2    0  502  0.92235482505E+02  0.11635240210E+03  0.49526421553E+03  0.65370628641E+03  0.40000000000E+03 0. -1.
<mgrwt>
<rscale>  2 0.42666763E+03</rscale>
<asrwt>0</asrwt>
<pdfrwt beam="1">  1       21 0.10325392E+00 0.42666763E+03</pdfrwt>
<pdfrwt beam="2">  1       21 0.84620724E-01 0.42666763E+03</pdfrwt>
<totfact> 0.78634698E+02</totfact>
</mgrwt>
</event>
<event>
 4    1  0.4656822E-002  0.4236547E+03  0.7818608E-02  0.1035883E+00
         21   -1    0    0  503  502  0.00000000000E+00  0.00000000000E+00  0.11710675775E+04  0.11710675775E+04  0.00000000000E+00 0.  1.
         21   -1    0    0  501  503 -0.00000000000E+00 -0.00000000000E+00 -0.15382112586E+03  0.15382112586E+03  0.00000000000E+00 0. -1.
    9000007    1    1    2  501    0  0.13663878060E+03 -0.28515656497E+02  0.54846625637E+03  0.69303573747E+03  0.40000000000E+03 0.  1.
   -9000007    1    1    2    0  502 -0.13663878060E+03  0.28515656497E+02  0.46878019527E+03  0.63185296589E+03  0.40000000000E+03 0. -1.
<mgrwt>
<rscale>  2 0.42365469E+03</rscale>
<asrwt>0</asrwt>
<pdfrwt beam="1">  1       21 0.18016424E+00 0.42365469E+03</pdfrwt>
<pdfrwt beam="2">  1       21 0.23664789E-01 0.42365469E+03</pdfrwt>
<totfact> 0.26360816E+03</totfact>
</mgrwt>
</event>
<event>
 4    1  0.4656822E-002  0.4030788E+03  0.7818608E-02  0.1042719E+00
         21   -1    0    0  503  502  0.00000000000E+00  0.00000000000E+00  0.11773773463E+04  0.11773773463E+04  0.00000000000E+00 0. -1.
         21   -1    0    0  501  503 -0.00000000000E+00 -0.00000000000E+00 -0.17807433953E+03  0.17807433953E+03  0.00000000000E+00 0. -1.
    9000007    1    1    2  501    0 -0.49049256832E+02 -0.81684871105E+01  0.17812856288E+03  0.44068394422E+03  0.40000000000E+03 0.  1.
   -9000007    1    1    2    0  502  0.49049256832E+02  0.81684871105E+01  0.82117444388E+03  0.91476774159E+03  0.40000000000E+03 0.  1.
<mgrwt>
<rscale>  2 0.40307884E+03</rscale>
<asrwt>0</asrwt>
<pdfrwt beam="1">  1       21 0.18113497E+00 0.40307884E+03</pdfrwt>
<pdfrwt beam="2">  1       21 0.27396053E-01 0.40307884E+03</pdfrwt>
<totfact> 0.19696054E+03</totfact>
</mgrwt>
</event>
<event>
 4    1  0.4656822E-002  0.4919598E+03  0.7818608E-02  0.1015899E+00
         21   -1    0    0  501  502  0.00000000000E+00  0.00000000000E+00  0.14857460518E+04  0.14857460518E+04  0.00000000000E+00 0.  1.
         21   -1    0    0  502  503 -0.00000000000E+00 -0.00000000000E+00 -0.16558704271E+03  0.16558704271E+03  0.00000000000E+00 0.  1.
    9000007    1    1    2  501    0  0.25768708593E+03 -0.12498724095E+03  0.55485331950E+03  0.74154342477E+03  0.40000000000E+03 0.  1.
   -9000007    1    1    2    0  503 -0.25768708593E+03  0.12498724095E+03  0.76530568959E+03  0.90978966974E+03  0.40000000000E+03 0.  1.
<mgrwt>
<rscale>  2 0.49195980E+03</rscale>
<asrwt>0</asrwt>
<pdfrwt beam="1">  1       21 0.22857631E+00 0.49195980E+03</pdfrwt>
<pdfrwt beam="2">  1       21 0.25474931E-01 0.49195980E+03</pdfrwt>
<totfact> 0.10591872E+03</totfact>
</mgrwt>
</event>
<event>
 4    1  0.4656822E-002  0.4050057E+03  0.7818608E-02  0.1042060E+00
         21   -1    0    0  503  502  0.00000000000E+00  0.00000000000E+00  0.21518671692E+03  0.21518671692E+03  0.00000000000E+00 0.  1.
         21   -1    0    0  501  503 -0.00000000000E+00 -0.00000000000E+00 -0.93384762484E+03  0.93384762484E+03  0.00000000000E+00 0.  1.
    9000007    1    1    2  501    0  0.33978724158E+02  0.53619515493E+02 -0.11306705270E+03  0.42049228833E+03  0.40000000000E+03 0.  1.
   -9000007    1    1    2    0  502 -0.33978724158E+02 -0.53619515493E+02 -0.60559385522E+03  0.72854205343E+03  0.40000000000E+03 0.  1.
<mgrwt>
<rscale>  2 0.40500569E+03</rscale>
<asrwt>0</asrwt>
<pdfrwt beam="1">  1       21 0.33105649E-01 0.40500569E+03</pdfrwt>
<pdfrwt beam="2">  1       21 0.14366886E+00 0.40500569E+03</pdfrwt>
<totfact> 0.25775431E+03</totfact>
</mgrwt>
</event>
<event>
 4    1  0.4656822E-002  0.4341220E+03  0.7818608E-02  0.1032566E+00
         21   -1    0    0  503  502  0.00000000000E+00  0.00000000000E+00  0.17061201960E+04  0.17061201960E+04  0.00000000000E+00 0.  1.
         21   -1    0    0  501  503 -0.00000000000E+00 -0.00000000000E+00 -0.13215959892E+03  0.13215959892E+03  0.00000000000E+00 0.  1.
    9000007    1    1    2  501    0 -0.82457920294E+02 -0.14718226434E+03  0.41455832771E+03  0.60026705276E+03  0.40000000000E+03 0.  1.
   -9000007    1    1    2    0  502  0.82457920294E+02  0.14718226434E+03  0.11594022694E+04  0.12380127422E+04  0.40000000000E+03 0.  1.
<mgrwt>
<rscale>  2 0.43412202E+03</rscale>
<asrwt>0</asrwt>
<pdfrwt beam="1">  1       21 0.26248001E+00 0.43412202E+03</pdfrwt>
<pdfrwt beam="2">  1       21 0.20332247E-01 0.43412202E+03</pdfrwt>
<totfact> 0.10380430E+03</totfact>
</mgrwt>
</event>
<event>
 4    1  0.4656822E-002  0.4305977E+03  0.7818608E-02  0.1033671E+00
         21   -1    0    0  501  502  0.00000000000E+00  0.00000000000E+00  0.13149633414E+04  0.13149633414E+04  0.00000000000E+00 0.  1.
         21   -1    0    0  502  503 -0.00000000000E+00 -0.00000000000E+00 -0.14484367061E+03  0.14484367061E+03  0.00000000000E+00 0.  1.
    9000007    1    1    2  501    0  0.70158002657E+02  0.14315122801E+03  0.70390774698E+03  0.82516697442E+03  0.40000000000E+03 0.  1.
   -9000007    1    1    2    0  503 -0.70158002657E+02 -0.14315122801E+03  0.46621192386E+03  0.63464003763E+03  0.40000000000E+03 0.  1.
<mgrwt>
<rscale>  2 0.43059775E+03</rscale>
<asrwt>0</asrwt>
<pdfrwt beam="1">  1       21 0.20230204E+00 0.43059775E+03</pdfrwt>
<pdfrwt beam="2">  1       21 0.22283642E-01 0.43059775E+03</pdfrwt>
<totfact> 0.20852982E+03</totfact>
</mgrwt>
</event>
<event>
 4    1  0.4656822E-002  0.5050741E+03  0.7818608E-02  0.1012463E+00
         21   -1    0    0  501  502  0.00000000000E+00  0.00000000000E+00  0.24316200142E+03  0.24316200142E+03  0.00000000000E+00 0. -1.
         21   -1    0    0  502  503 -0.00000000000E+00 -0.00000000000E+00 -0.10906455537E+04  0.10906455537E+04  0.00000000000E+00 0. -1.
    9000007    1    1    2  501    0 -0.27863856821E+03  0.13213761884E+03 -0.29357058438E+03  0.58419473638E+03  0.40000000000E+03 0. -1.
   -9000007    1    1    2    0  503  0.27863856821E+03 -0.13213761884E+03 -0.55391296794E+03  0.74961281876E+03  0.40000000000E+03 0. -1.
<mgrwt>
<rscale>  2 0.50507406E+03</rscale>
<asrwt>0</asrwt>
<pdfrwt beam="1">  1       21 0.37409539E-01 0.50507406E+03</pdfrwt>
<pdfrwt beam="2">  1       21 0.16779162E+00 0.50507406E+03</pdfrwt>
<totfact> 0.12606426E+03</totfact>
</mgrwt>
</event>
<event>
 4    1  0.4656822E-002  0.5597379E+03  0.7818608E-02  0.9992648E-01
         21   -1    0    0  503  502  0.00000000000E+00  0.00000000000E+00  0.11353065865E+04  0.11353065865E+04  0.00000000000E+00 0. -1.
         21   -1    0    0  501  503 -0.00000000000E+00 -0.00000000000E+00 -0.27641825380E+03  0.27641825380E+03  0.00000000000E+00 0.  1.
    9000007    1    1    2  501    0 -0.17827741216E+02 -0.39113769607E+03  0.40090687271E+03  0.68850043299E+03  0.40000000000E+03 0.  1.
   -9000007    1    1    2    0  502  0.17827741216E+02  0.39113769607E+03  0.45798146003E+03  0.72322440734E+03  0.40000000000E+03 0. -1.
<mgrwt>
<rscale>  2 0.55973791E+03</rscale>
<asrwt>0</asrwt>
<pdfrwt beam="1">  1       21 0.17466255E+00 0.55973791E+03</pdfrwt>
<pdfrwt beam="2">  1       21 0.42525886E-01 0.55973791E+03</pdfrwt>
<totfact> 0.84487925E+02</totfact>
</mgrwt>
</event>
<event>
 4    1  0.4656822E-002  0.4362858E+03  0.7818608E-02  0.1031893E+00
         21   -1    0    0  503  502  0.00000000000E+00  0.00000000000E+00  0.21687202764E+04  0.21687202764E+04  0.00000000000E+00 0.  1.
         21   -1    0    0  501  503 -0.00000000000E+00 -0.00000000000E+00 -0.97078753839E+02  0.97078753839E+02  0.00000000000E+00 0.  1.
    9000007    1    1    2  501    0 -0.17236882485E+03 -0.25184745385E+02  0.68497962294E+03  0.81212213799E+03  0.40000000000E+03 0.  1.
   -9000007    1    1    2    0  502  0.17236882485E+03  0.25184745385E+02  0.13866618996E+04  0.14536768922E+04  0.40000000000E+03 0.  1.
<mgrwt>
<rscale>  2 0.43628578E+03</rscale>
<asrwt>0</asrwt>
<pdfrwt beam="1">  1       21 0.33364924E+00 0.43628578E+03</pdfrwt>
<pdfrwt beam="2">  1       21 0.14935195E-01 0.43628578E+03</pdfrwt>
<totfact> 0.68952283E+02</totfact>
</mgrwt>
</event>
<event>
 4    1  0.4656822E-002  0.4143695E+03  0.7818608E-02  0.1038915E+00
         21   -1    0    0  503  502  0.00000000000E+00  0.00000000000E+00  0.32309723180E+03  0.32309723180E+03  0.00000000000E+00 0. -1.
         21   -1    0    0  501  503 -0.00000000000E+00 -0.00000000000E+00 -0.65417337634E+03  0.65417337634E+03  0.00000000000E+00 0.  1.
    9000007    1    1    2  501    0  0.44228861301E+02 -0.98721274915E+02 -0.37720136270E+03  0.56034181561E+03  0.40000000000E+03 0. -1.
   -9000007    1    1    2    0  502 -0.44228861301E+02  0.98721274915E+02  0.46125218165E+02  0.41692879253E+03  0.40000000000E+03 0. -1.
<mgrwt>
<rscale>  2 0.41436950E+03</rscale>
<asrwt>0</asrwt>
<pdfrwt beam="1">  1       21 0.49707267E-01 0.41436950E+03</pdfrwt>
<pdfrwt beam="2">  1       21 0.10064206E+00 0.41436950E+03</pdfrwt>
<totfact> 0.27427157E+03</totfact>
</mgrwt>
</event>
<event>
 4    1  0.4656822E-002  0.7101183E+03  0.7818608E-02  0.9700083E-01
         21   -1    0    0  503  502  0.00000000000E+00  0.00000000000E+00  0.77503066555E+03  0.77503066555E+03  0.00000000000E+00 0.  1.
         21   -1    0    0  501  503 -0.00000000000E+00 -0.00000000000E+00 -0.97895341622E+03  0.97895341622E+03  0.00000000000E+00 0. -1.
    9000007    1    1    2  501    0  0.48182460344E+03 -0.33483287192E+03 -0.60983680861E+03  0.93603895952E+03  0.40000000000E+03 0. -1.
   -9000007    1    1    2    0  502 -0.48182460344E+03  0.33483287192E+03  0.40591405793E+03  0.81794512226E+03  0.40000000000E+03 0.  1.
<mgrwt>
<rscale>  2 0.71011830E+03</rscale>
<asrwt>0</asrwt>
<pdfrwt beam="1">  1       21 0.11923549E+00 0.71011830E+03</pdfrwt>
<pdfrwt beam="2">  1       21 0.15060822E+00 0.71011830E+03</pdfrwt>
<totfact> 0.11482813E+02</totfact>
</mgrwt>
</event>
<event>
 4    1  0.4656822E-002  0.4400352E+03  0.7818608E-02  0.1030736E+00
         21   -1    0    0  503  502  0.00000000000E+00  0.00000000000E+00  0.29373774687E+03  0.29373774687E+03  0.00000000000E+00 0. -1.
         21   -1    0    0  501  503 -0.00000000000E+00 -0.00000000000E+00 -0.84408681919E+03  0.84408681919E+03  0.00000000000E+00 0.  1.
    9000007    1    1    2  501    0 -0.14871567036E+03 -0.10730610924E+03 -0.54143618017E+03  0.69769913923E+03  0.40000000000E+03 0.  1.
   -9000007    1    1    2    0  502  0.14871567036E+03  0.10730610924E+03 -0.89128921532E+01  0.44012542682E+03  0.40000000000E+03 0. -1.
<mgrwt>
<rscale>  2 0.44003517E+03</rscale>
<asrwt>0</asrwt>
<pdfrwt beam="1">  1       21 0.45190422E-01 0.44003517E+03</pdfrwt>
<pdfrwt beam="2">  1       21 0.12985951E+00 0.44003517E+03</pdfrwt>
<totfact> 0.17519557E+03</totfact>
</mgrwt>
</event>
<event>
 4    1  0.4656822E-002  0.6310234E+03  0.7818608E-02  0.9843054E-01
         21   -1    0    0  501  502  0.00000000000E+00  0.00000000000E+00  0.43434642992E+03  0.43434642992E+03  0.00000000000E+00 0.  1.
         21   -1    0    0  502  503 -0.00000000000E+00 -0.00000000000E+00 -0.91694835131E+03  0.91694835131E+03  0.00000000000E+00 0. -1.
    9000007    1    1    2  501    0  0.37982977246E+03  0.30646353492E+03 -0.23156559672E+03  0.67217049911E+03  0.40000000000E+03 0. -1.
   -9000007    1    1    2    0  503 -0.37982977246E+03 -0.30646353492E+03 -0.25103632466E+03  0.67912428213E+03  0.40000000000E+03 0.  1.
<mgrwt>
<rscale>  2 0.63102342E+03</rscale>
<asrwt>0</asrwt>
<pdfrwt beam="1">  1       21 0.66822528E-01 0.63102342E+03</pdfrwt>
<pdfrwt beam="2">  1       21 0.14106898E+00 0.63102342E+03</pdfrwt>
<totfact> 0.56338248E+02</totfact>
</mgrwt>
</event>
<event>
 4    1  0.4656822E-002  0.4786066E+03  0.7818608E-02  0.1019519E+00
         21   -1    0    0  501  502  0.00000000000E+00  0.00000000000E+00  0.70027859182E+03  0.70027859182E+03  0.00000000000E+00 0.  1.
         21   -1    0    0  502  503 -0.00000000000E+00 -0.00000000000E+00 -0.34303847622E+03  0.34303847622E+03  0.00000000000E+00 0.  1.
    9000007    1    1    2  501    0  0.19535598899E+03  0.17578491978E+03  0.29104859421E+03  0.56015496485E+03  0.40000000000E+03 0.  1.
   -9000007    1    1    2    0  503 -0.19535598899E+03 -0.17578491978E+03  0.66191521382E+02  0.48316210319E+03  0.40000000000E+03 0.  1.
<mgrwt>
<rscale>  2 0.47860662E+03</rscale>
<asrwt>0</asrwt>
<pdfrwt beam="1">  1       21 0.10773517E+00 0.47860662E+03</pdfrwt>
<pdfrwt beam="2">  1       21 0.52775150E-01 0.47860662E+03</pdfrwt>
<totfact> 0.19932497E+03</totfact>
</mgrwt>
</event>
<event>
 4    1  0.4656822E-002  0.4785366E+03  0.7818608E-02  0.1019538E+00
         21   -1    0    0  503  502  0.00000000000E+00  0.00000000000E+00  0.73615142002E+03  0.73615142002E+03  0.00000000000E+00 0.  1.
         21   -1    0    0  501  503 -0.00000000000E+00 -0.00000000000E+00 -0.47570169003E+03  0.47570169003E+03  0.00000000000E+00 0.  1.
    9000007    1    1    2  501    0  0.91283272482E+02 -0.24630193828E+03 -0.22623003896E+03  0.52931777900E+03  0.40000000000E+03 0.  1.
   -9000007    1    1    2    0  502 -0.91283272482E+02  0.24630193828E+03  0.48667976894E+03  0.68253533105E+03  0.40000000000E+03 0.  1.
<mgrwt>
<rscale>  2 0.47853660E+03</rscale>
<asrwt>0</asrwt>
<pdfrwt beam="1">  1       21 0.11325406E+00 0.47853660E+03</pdfrwt>
<pdfrwt beam="2">  1       21 0.73184875E-01 0.47853660E+03</pdfrwt>
<totfact> 0.85501945E+02</totfact>
</mgrwt>
</event>
<event>
 4    1  0.4656822E-002  0.4944518E+03  0.7818608E-02  0.1015237E+00
         21   -1    0    0  503  502  0.00000000000E+00  0.00000000000E+00  0.56686833101E+03  0.56686833101E+03  0.00000000000E+00 0. -1.
         21   -1    0    0  501  503 -0.00000000000E+00 -0.00000000000E+00 -0.46911577458E+03  0.46911577458E+03  0.00000000000E+00 0. -1.
    9000007    1    1    2  501    0 -0.13681223896E+02 -0.29033674551E+03  0.19597119325E+03  0.53187151669E+03  0.40000000000E+03 0. -1.
   -9000007    1    1    2    0  502  0.13681223896E+02  0.29033674551E+03 -0.98218636813E+02  0.50411258891E+03  0.40000000000E+03 0. -1.
<mgrwt>
<rscale>  2 0.49445182E+03</rscale>
<asrwt>0</asrwt>
<pdfrwt beam="1">  1       21 0.87210512E-01 0.49445182E+03</pdfrwt>
<pdfrwt beam="2">  1       21 0.72171658E-01 0.49445182E+03</pdfrwt>
<totfact> 0.16556117E+03</totfact>
</mgrwt>
</event>
<event>
 4    1  0.4656822E-002  0.4038470E+03  0.7818608E-02  0.1042456E+00
         21   -1    0    0  503  502  0.00000000000E+00  0.00000000000E+00  0.72943546028E+03  0.72943546028E+03  0.00000000000E+00 0.  1.
         21   -1    0    0  501  503 -0.00000000000E+00 -0.00000000000E+00 -0.32381123020E+03  0.32381123020E+03  0.00000000000E+00 0.  1.
    9000007    1    1    2  501    0 -0.55195814396E+02 -0.67663996575E+01 -0.90169449316E+02  0.41379087917E+03  0.40000000000E+03 0.  1.
   -9000007    1    1    2    0  502  0.55195814396E+02  0.67663996575E+01  0.49579367940E+03  0.63945581132E+03  0.40000000000E+03 0.  1.
<mgrwt>
<rscale>  2 0.40384695E+03</rscale>
<asrwt>0</asrwt>
<pdfrwt beam="1">  1       21 0.11222084E+00 0.40384695E+03</pdfrwt>
<pdfrwt beam="2">  1       21 0.49817113E-01 0.40384695E+03</pdfrwt>
<totfact> 0.20974943E+03</totfact>
</mgrwt>
</event>
<event>
 4    1  0.4656822E-002  0.4159889E+03  0.7818608E-02  0.1038380E+00
         21   -1    0    0  503  502  0.00000000000E+00  0.00000000000E+00  0.53449041761E+03  0.53449041761E+03  0.00000000000E+00 0. -1.
         21   -1    0    0  501  503 -0.00000000000E+00 -0.00000000000E+00 -0.37038432033E+03  0.37038432033E+03  0.00000000000E+00 0. -1.
    9000007    1    1    2  501    0 -0.39896631452E+02 -0.10702799909E+03 -0.78470006262E+02  0.42332525990E+03  0.40000000000E+03 0. -1.
   -9000007    1    1    2    0  502  0.39896631452E+02  0.10702799909E+03  0.24257610354E+03  0.48154947804E+03  0.40000000000E+03 0. -1.
<mgrwt>
<rscale>  2 0.41598886E+03</rscale>
<asrwt>0</asrwt>
<pdfrwt beam="1">  1       21 0.82229295E-01 0.41598886E+03</pdfrwt>
<pdfrwt beam="2">  1       21 0.56982203E-01 0.41598886E+03</pdfrwt>
<totfact> 0.33016499E+03</totfact>
</mgrwt>
</event>
<event>
 4    1  0.4656822E-002  0.4336139E+03  0.7818608E-02  0.1032724E+00
         21   -1    0    0  503  502  0.00000000000E+00  0.00000000000E+00  0.22361441402E+03  0.22361441402E+03  0.00000000000E+00 0.  1.
         21   -1    0    0  501  503 -0.00000000000E+00 -0.00000000000E+00 -0.85541928075E+03  0.85541928075E+03  0.00000000000E+00 0.  1.
    9000007    1    1    2  501    0 -0.11837176758E+02 -0.16697571798E+03 -0.38636832122E+03  0.58077662556E+03  0.40000000000E+03 0.  1.
   -9000007    1    1    2    0  502  0.11837176758E+02  0.16697571798E+03 -0.24543654551E+03  0.49825706921E+03  0.40000000000E+03 0.  1.
<mgrwt>
<rscale>  2 0.43361389E+03</rscale>
<asrwt>0</asrwt>
<pdfrwt beam="1">  1       21 0.34402217E-01 0.43361389E+03</pdfrwt>
<pdfrwt beam="2">  1       21 0.13160297E+00 0.43361389E+03</pdfrwt>
<totfact> 0.29719713E+03</totfact>
</mgrwt>
</event>
<event>
 4    1  0.4656822E-002  0.4131932E+03  0.7818608E-02  0.1039305E+00
         21   -1    0    0  503  502  0.00000000000E+00  0.00000000000E+00  0.49378409603E+03  0.49378409603E+03  0.00000000000E+00 0. -1.
         21   -1    0    0  501  503 -0.00000000000E+00 -0.00000000000E+00 -0.61629934326E+03  0.61629934326E+03  0.00000000000E+00 0. -1.
    9000007    1    1    2  501    0 -0.10181925465E+03  0.19012363812E+02 -0.42900408277E+03  0.59562835193E+03  0.40000000000E+03 0. -1.
   -9000007    1    1    2    0  502  0.10181925465E+03 -0.19012363812E+02  0.30648883554E+03  0.51445508735E+03  0.40000000000E+03 0. -1.
<mgrwt>
<rscale>  2 0.41319321E+03</rscale>
<asrwt>0</asrwt>
<pdfrwt beam="1">  1       21 0.75966785E-01 0.41319321E+03</pdfrwt>
<pdfrwt beam="2">  1       21 0.94815283E-01 0.41319321E+03</pdfrwt>
<totfact> 0.12470764E+03</totfact>
</mgrwt>
</event>
<event>
 4    1  0.4656822E-002  0.5622259E+03  0.7818608E-02  0.9987031E-01
         21   -1    0    0  501  502  0.00000000000E+00  0.00000000000E+00  0.11966894624E+03  0.11966894624E+03  0.00000000000E+00 0. -1.
         21   -1    0    0  502  503 -0.00000000000E+00 -0.00000000000E+00 -0.32596940210E+04  0.32596940210E+04  0.00000000000E+00 0. -1.
    9000007    1    1    2  501    0 -0.31647192230E+03  0.23652366945E+03 -0.83414248773E+03  0.10059282348E+04  0.40000000000E+03 0. -1.
   -9000007    1    1    2    0  503  0.31647192230E+03 -0.23652366945E+03 -0.23058825870E+04  0.23734347324E+04  0.40000000000E+03 0. -1.
<mgrwt>
<rscale>  2 0.56222587E+03</rscale>
<asrwt>0</asrwt>
<pdfrwt beam="1">  1       21 0.18410612E-01 0.56222587E+03</pdfrwt>
<pdfrwt beam="2">  1       21 0.50149125E+00 0.56222587E+03</pdfrwt>
<totfact> 0.34038710E+01</totfact>
</mgrwt>
</event>
<event>
 4    1  0.4656822E-002  0.4115235E+03  0.7818608E-02  0.1039861E+00
         21   -1    0    0  501  502  0.00000000000E+00  0.00000000000E+00  0.12637924128E+03  0.12637924128E+03  0.00000000000E+00 0.  1.
         21   -1    0    0  502  503 -0.00000000000E+00 -0.00000000000E+00 -0.15156023164E+04  0.15156023164E+04  0.00000000000E+00 0. -1.
    9000007    1    1    2  501    0  0.18483075011E+02 -0.94921012920E+02 -0.41517891114E+03  0.58457262253E+03  0.40000000000E+03 0.  1.
   -9000007    1    1    2    0  503 -0.18483075011E+02  0.94921012920E+02 -0.97404416401E+03  0.10574089352E+04  0.40000000000E+03 0. -1.
<mgrwt>
<rscale>  2 0.41152354E+03</rscale>
<asrwt>0</asrwt>
<pdfrwt beam="1">  1       21 0.19442961E-01 0.41152354E+03</pdfrwt>
<pdfrwt beam="2">  1       21 0.23316958E+00 0.41152354E+03</pdfrwt>
<totfact> 0.17304831E+03</totfact>
</mgrwt>
</event>
<event>
 4    1  0.4656822E-002  0.4220885E+03  0.7818608E-02  0.1036389E+00
         21   -1    0    0  503  502  0.00000000000E+00  0.00000000000E+00  0.38800784035E+03  0.38800784035E+03  0.00000000000E+00 0.  1.
         21   -1    0    0  501  503 -0.00000000000E+00 -0.00000000000E+00 -0.46129479179E+03  0.46129479179E+03  0.00000000000E+00 0.  1.
    9000007    1    1    2  501    0  0.26907171230E+02 -0.13204059536E+03 -0.65513658702E+02  0.42714254548E+03  0.40000000000E+03 0. -1.
   -9000007    1    1    2    0  502 -0.26907171230E+02  0.13204059536E+03 -0.77732927391E+01  0.42216008666E+03  0.40000000000E+03 0. -1.
<mgrwt>
<rscale>  2 0.42208852E+03</rscale>
<asrwt>0</asrwt>
<pdfrwt beam="1">  1       21 0.59693514E-01 0.42208852E+03</pdfrwt>
<pdfrwt beam="2">  1       21 0.70968429E-01 0.42208852E+03</pdfrwt>
<totfact> 0.41686250E+03</totfact>
</mgrwt>
</event>
<event>
 4    1  0.4656822E-002  0.5342870E+03  0.7818608E-02  0.1005198E+00
         21   -1    0    0  503  502  0.00000000000E+00  0.00000000000E+00  0.46417763031E+03  0.46417763031E+03  0.00000000000E+00 0.  1.
         21   -1    0    0  501  503 -0.00000000000E+00 -0.00000000000E+00 -0.61598413378E+03  0.61598413378E+03  0.00000000000E+00 0.  1.
    9000007    1    1    2  501    0 -0.34748492824E+03  0.68679114402E+02 -0.97647169327E+02  0.54313678368E+03  0.40000000000E+03 0.  1.
   -9000007    1    1    2    0  502  0.34748492824E+03 -0.68679114402E+02 -0.54159334134E+02  0.53702498041E+03  0.40000000000E+03 0.  1.
<mgrwt>
<rscale>  2 0.53428700E+03</rscale>
<asrwt>0</asrwt>
<pdfrwt beam="1">  1       21 0.71411943E-01 0.53428700E+03</pdfrwt>
<pdfrwt beam="2">  1       21 0.94766790E-01 0.53428700E+03</pdfrwt>
<totfact> 0.13728995E+03</totfact>
</mgrwt>
</event>
<event>
 4    1  0.4656822E-002  0.4088798E+03  0.7818608E-02  0.1040748E+00
         21   -1    0    0  503  502  0.00000000000E+00  0.00000000000E+00  0.94190856465E+03  0.94190856465E+03  0.00000000000E+00 0.  1.
         21   -1    0    0  501  503 -0.00000000000E+00 -0.00000000000E+00 -0.20162163739E+03  0.20162163739E+03  0.00000000000E+00 0.  1.
    9000007    1    1    2  501    0 -0.31938826272E+02 -0.78502381307E+02  0.17235071958E+03  0.44372005030E+03  0.40000000000E+03 0.  1.
   -9000007    1    1    2    0  502  0.31938826272E+02  0.78502381307E+02  0.56793620768E+03  0.69981015175E+03  0.40000000000E+03 0.  1.
<mgrwt>
<rscale>  2 0.40887983E+03</rscale>
<asrwt>0</asrwt>
<pdfrwt beam="1">  1       21 0.14490901E+00 0.40887983E+03</pdfrwt>
<pdfrwt beam="2">  1       21 0.31018714E-01 0.40887983E+03</pdfrwt>
<totfact> 0.28641548E+03</totfact>
</mgrwt>
</event>
<event>
 4    1  0.4656822E-002  0.4096800E+03  0.7818608E-02  0.1040478E+00
         21   -1    0    0  501  502  0.00000000000E+00  0.00000000000E+00  0.26734368443E+03  0.26734368443E+03  0.00000000000E+00 0. -1.
         21   -1    0    0  502  503 -0.00000000000E+00 -0.00000000000E+00 -0.64501407736E+03  0.64501407736E+03  0.00000000000E+00 0. -1.
    9000007    1    1    2  501    0 -0.81776498127E+02  0.33916073043E+02 -0.11430641191E+03  0.42532769891E+03  0.40000000000E+03 0.  1.
   -9000007    1    1    2    0  503  0.81776498127E+02 -0.33916073043E+02 -0.26336398102E+03  0.48703006288E+03  0.40000000000E+03 0.  1.
<mgrwt>
<rscale>  2 0.40967999E+03</rscale>
<asrwt>0</asrwt>
<pdfrwt beam="1">  1       21 0.41129798E-01 0.40967999E+03</pdfrwt>
<pdfrwt beam="2">  1       21 0.99232935E-01 0.40967999E+03</pdfrwt>
<totfact> 0.42261080E+03</totfact>
</mgrwt>
</event>
<event>
 4    1  0.4656822E-002  0.4519407E+03  0.7818608E-02  0.1027145E+00
         21   -1    0    0  503  502  0.00000000000E+00  0.00000000000E+00  0.32485302540E+03  0.32485302540E+03  0.00000000000E+00 0.  1.
         21   -1    0    0  501  503 -0.00000000000E+00 -0.00000000000E+00 -0.66987934513E+03  0.66987934513E+03  0.00000000000E+00 0.  1.
    9000007    1    1    2  501    0 -0.20276682586E+03  0.55999972466E+02 -0.49268130066E+02  0.45461822580E+03  0.40000000000E+03 0.  1.
   -9000007    1    1    2    0  502  0.20276682586E+03 -0.55999972466E+02 -0.29575818967E+03  0.54011414473E+03  0.40000000000E+03 0.  1.
<mgrwt>
<rscale>  2 0.45194068E+03</rscale>
<asrwt>0</asrwt>
<pdfrwt beam="1">  1       21 0.49977388E-01 0.45194068E+03</pdfrwt>
<pdfrwt beam="2">  1       21 0.10305836E+00 0.45194068E+03</pdfrwt>
<totfact> 0.25224783E+03</totfact>
</mgrwt>
</event>
<event>
 4    1  0.4656822E-002  0.4210560E+03  0.7818608E-02  0.1036723E+00
         21   -1    0    0  503  502  0.00000000000E+00  0.00000000000E+00  0.42853181168E+03  0.42853181168E+03  0.00000000000E+00 0.  1.
         21   -1    0    0  501  503 -0.00000000000E+00 -0.00000000000E+00 -0.41398672903E+03  0.41398672903E+03  0.00000000000E+00 0.  1.
    9000007    1    1    2  501    0 -0.92112040091E+02 -0.93827119136E+02  0.18151974338E+02  0.42144709085E+03  0.40000000000E+03 0.  1.
   -9000007    1    1    2    0  502  0.92112040091E+02  0.93827119136E+02 -0.36068916844E+01  0.42107144985E+03  0.40000000000E+03 0.  1.
<mgrwt>
<rscale>  2 0.42105600E+03</rscale>
<asrwt>0</asrwt>
<pdfrwt beam="1">  1       21 0.65927972E-01 0.42105600E+03</pdfrwt>
<pdfrwt beam="2">  1       21 0.63690265E-01 0.42105600E+03</pdfrwt>
<totfact> 0.42649069E+03</totfact>
</mgrwt>
</event>
<event>
 4    1  0.4656822E-002  0.4889129E+03  0.7818608E-02  0.1016714E+00
         21   -1    0    0  503  502  0.00000000000E+00  0.00000000000E+00  0.21487571610E+03  0.21487571610E+03  0.00000000000E+00 0.  1.
         21   -1    0    0  501  503 -0.00000000000E+00 -0.00000000000E+00 -0.14155808050E+04  0.14155808050E+04  0.00000000000E+00 0.  1.
    9000007    1    1    2  501    0 -0.26422178664E+03  0.96034900612E+02 -0.97760816343E+03  0.10930478379E+04  0.40000000000E+03 0.  1.
   -9000007    1    1    2    0  502  0.26422178664E+03 -0.96034900612E+02 -0.22309692549E+03  0.53740868325E+03  0.40000000000E+03 0.  1.
<mgrwt>
<rscale>  2 0.48891293E+03</rscale>
<asrwt>0</asrwt>
<pdfrwt beam="1">  1       21 0.33057802E-01 0.48891293E+03</pdfrwt>
<pdfrwt beam="2">  1       21 0.21778167E+00 0.48891293E+03</pdfrwt>
<totfact> 0.74144295E+02</totfact>
</mgrwt>
</event>
<event>
 4    1  0.4656822E-002  0.5001466E+03  0.7818608E-02  0.1013741E+00
         21   -1    0    0  503  502  0.00000000000E+00  0.00000000000E+00  0.21952439202E+03  0.21952439202E+03  0.00000000000E+00 0.  1.
         21   -1    0    0  501  503 -0.00000000000E+00 -0.00000000000E+00 -0.15132816122E+04  0.15132816122E+04  0.00000000000E+00 0.  1.
    9000007    1    1    2  501    0  0.12258959252E+02 -0.29999387923E+03 -0.10774774297E+04  0.11878990787E+04  0.40000000000E+03 0. -1.
   -9000007    1    1    2    0  502 -0.12258959252E+02  0.29999387923E+03 -0.21627979040E+03  0.54490692544E+03  0.40000000000E+03 0. -1.
<mgrwt>
<rscale>  2 0.50014659E+03</rscale>
<asrwt>0</asrwt>
<pdfrwt beam="1">  1       21 0.33772983E-01 0.50014659E+03</pdfrwt>
<pdfrwt beam="2">  1       21 0.23281256E+00 0.50014659E+03</pdfrwt>
<totfact> 0.56683023E+02</totfact>
</mgrwt>
</event>
<event>
 4    1  0.4656822E-002  0.5646903E+03  0.7818608E-02  0.9981497E-01
         21   -1    0    0  501  502  0.00000000000E+00  0.00000000000E+00  0.23125443121E+04  0.23125443121E+04  0.00000000000E+00 0.  1.
         21   -1    0    0  502  503 -0.00000000000E+00 -0.00000000000E+00 -0.15192982386E+03  0.15192982386E+03  0.00000000000E+00 0. -1.
    9000007    1    1    2  501    0  0.38868425173E+03  0.88316002147E+02  0.70571042000E+03  0.90382651027E+03  0.40000000000E+03 0. -1.
   -9000007    1    1    2    0  503 -0.38868425173E+03 -0.88316002147E+02  0.14549040683E+04  0.15606476257E+04  0.40000000000E+03 0. -1.
<mgrwt>
<rscale>  2 0.56469033E+03</rscale>
<asrwt>0</asrwt>
<pdfrwt beam="1">  1       21 0.35577602E+00 0.56469033E+03</pdfrwt>
<pdfrwt beam="2">  1       21 0.23373821E-01 0.56469033E+03</pdfrwt>
<totfact> 0.20106090E+02</totfact>
</mgrwt>
</event>
<event>
 4    1  0.4656822E-002  0.4420394E+03  0.7818608E-02  0.1030123E+00
         21   -1    0    0  501  502  0.00000000000E+00  0.00000000000E+00  0.23488816584E+03  0.23488816584E+03  0.00000000000E+00 0. -1.
         21   -1    0    0  502  503 -0.00000000000E+00 -0.00000000000E+00 -0.10150410147E+04  0.10150410147E+04  0.00000000000E+00 0. -1.
    9000007    1    1    2  501    0  0.12483612066E+03 -0.14076488024E+03 -0.12459757381E+03  0.45926393711E+03  0.40000000000E+03 0. -1.
   -9000007    1    1    2    0  503 -0.12483612066E+03  0.14076488024E+03 -0.65555527506E+03  0.79066524345E+03  0.40000000000E+03 0. -1.
<mgrwt>
<rscale>  2 0.44203937E+03</rscale>
<asrwt>0</asrwt>
<pdfrwt beam="1">  1       21 0.36136641E-01 0.44203937E+03</pdfrwt>
<pdfrwt beam="2">  1       21 0.15616016E+00 0.44203937E+03</pdfrwt>
<totfact> 0.16965465E+03</totfact>
</mgrwt>
</event>
<event>
 4    1  0.4656822E-002  0.4388839E+03  0.7818608E-02  0.1031090E+00
         21   -1    0    0  503  502  0.00000000000E+00  0.00000000000E+00  0.32925117358E+03  0.32925117358E+03  0.00000000000E+00 0.  1.
         21   -1    0    0  501  503 -0.00000000000E+00 -0.00000000000E+00 -0.69547667847E+03  0.69547667847E+03  0.00000000000E+00 0. -1.
    9000007    1    1    2  501    0 -0.10975603781E+03  0.14343191179E+03 -0.38730055166E+03  0.58533820862E+03  0.40000000000E+03 0. -1.
   -9000007    1    1    2    0  502  0.10975603781E+03 -0.14343191179E+03  0.21075046769E+02  0.43938964343E+03  0.40000000000E+03 0.  1.
<mgrwt>
<rscale>  2 0.43888393E+03</rscale>
<asrwt>0</asrwt>
<pdfrwt beam="1">  1       21 0.50654027E-01 0.43888393E+03</pdfrwt>
<pdfrwt beam="2">  1       21 0.10699641E+00 0.43888393E+03</pdfrwt>
<totfact> 0.22461949E+03</totfact>
</mgrwt>
</event>
<event>
 4    1  0.4656822E-002  0.5955316E+03  0.7818608E-02  0.9914720E-01
         21   -1    0    0  503  502  0.00000000000E+00  0.00000000000E+00  0.21412696485E+04  0.21412696485E+04  0.00000000000E+00 0.  1.
         21   -1    0    0  501  503 -0.00000000000E+00 -0.00000000000E+00 -0.19344755353E+03  0.19344755353E+03  0.00000000000E+00 0.  1.
    9000007    1    1    2  501    0  0.43123005901E+03 -0.93265644348E+02  0.53123655917E+03  0.79804143126E+03  0.40000000000E+03 0.  1.
   -9000007    1    1    2    0  502 -0.43123005901E+03  0.93265644348E+02  0.14165855358E+04  0.15366757708E+04  0.40000000000E+03 0.  1.
<mgrwt>
<rscale>  2 0.59553156E+03</rscale>
<asrwt>0</asrwt>
<pdfrwt beam="1">  1       21 0.32942608E+00 0.59553156E+03</pdfrwt>
<pdfrwt beam="2">  1       21 0.29761164E-01 0.59553156E+03</pdfrwt>
<totfact> 0.17897552E+02</totfact>
</mgrwt>
</event>
<event>
 4    1  0.4656822E-002  0.4299667E+03  0.7818608E-02  0.1033870E+00
         21   -1    0    0  501  502  0.00000000000E+00  0.00000000000E+00  0.74597386194E+03  0.74597386194E+03  0.00000000000E+00 0.  1.
         21   -1    0    0  502  503 -0.00000000000E+00 -0.00000000000E+00 -0.25733319653E+03  0.25733319653E+03  0.00000000000E+00 0.  1.
    9000007    1    1    2  501    0  0.50589756184E+01 -0.15762546723E+03  0.34074597121E+03  0.54861571072E+03  0.40000000000E+03 0.  1.
   -9000007    1    1    2    0  503 -0.50589756184E+01  0.15762546723E+03  0.14789469420E+03  0.45469134776E+03  0.40000000000E+03 0.  1.
<mgrwt>
<rscale>  2 0.42996672E+03</rscale>
<asrwt>0</asrwt>
<pdfrwt beam="1">  1       21 0.11476521E+00 0.42996672E+03</pdfrwt>
<pdfrwt beam="2">  1       21 0.39589723E-01 0.42996672E+03</pdfrwt>
<totfact> 0.31716420E+03</totfact>
</mgrwt>
</event>
<event>
 4    1  0.4656822E-002  0.4390348E+03  0.7818608E-02  0.1031043E+00
         21   -1    0    0  503  502  0.00000000000E+00  0.00000000000E+00  0.17965409680E+04  0.17965409680E+04  0.00000000000E+00 0.  1.
         21   -1    0    0  501  503 -0.00000000000E+00 -0.00000000000E+00 -0.10776748126E+03  0.10776748126E+03  0.00000000000E+00 0.  1.
    9000007    1    1    2  501    0 -0.46868245723E+02  0.17479957337E+03  0.78103204780E+03  0.89597019091E+03  0.40000000000E+03 0.  1.
   -9000007    1    1    2    0  502  0.46868245723E+02 -0.17479957337E+03  0.90774143898E+03  0.10083382584E+04  0.40000000000E+03 0.  1.
<mgrwt>
<rscale>  2 0.43903476E+03</rscale>
<asrwt>0</asrwt>
<pdfrwt beam="1">  1       21 0.27639090E+00 0.43903476E+03</pdfrwt>
<pdfrwt beam="2">  1       21 0.16579614E-01 0.43903476E+03</pdfrwt>
<totfact> 0.12536217E+03</totfact>
</mgrwt>
</event>
<event>
 4    1  0.4656822E-002  0.4167738E+03  0.7818608E-02  0.1038121E+00
         21   -1    0    0  501  502  0.00000000000E+00  0.00000000000E+00  0.17835504204E+04  0.17835504204E+04  0.00000000000E+00 0. -1.
         21   -1    0    0  502  503 -0.00000000000E+00 -0.00000000000E+00 -0.20999607242E+03  0.20999607242E+03  0.00000000000E+00 0. -1.
    9000007    1    1    2  501    0  0.73317795530E+02 -0.91240748966E+02  0.15166904487E+04  0.15729114058E+04  0.40000000000E+03 0. -1.
   -9000007    1    1    2    0  503 -0.73317795530E+02  0.91240748966E+02  0.56863899357E+02  0.42063508706E+03  0.40000000000E+03 0. -1.
<mgrwt>
<rscale>  2 0.41677377E+03</rscale>
<asrwt>0</asrwt>
<pdfrwt beam="1">  1       21 0.27439236E+00 0.41677377E+03</pdfrwt>
<pdfrwt beam="2">  1       21 0.32307089E-01 0.41677377E+03</pdfrwt>
<totfact> 0.35990212E+02</totfact>
</mgrwt>
</event>
<event>
 4    1  0.4656822E-002  0.4193505E+03  0.7818608E-02  0.1037278E+00
         21   -1    0    0  503  502  0.00000000000E+00  0.00000000000E+00  0.73006215695E+02  0.73006215695E+02  0.00000000000E+00 0.  1.
         21   -1    0    0  501  503 -0.00000000000E+00 -0.00000000000E+00 -0.26575117356E+04  0.26575117356E+04  0.00000000000E+00 0.  1.
    9000007    1    1    2  501    0 -0.10148624156E+03  0.74534569544E+02 -0.17099442585E+04  0.17606147297E+04  0.40000000000E+03 0.  1.
   -9000007    1    1    2    0  502  0.10148624156E+03 -0.74534569544E+02 -0.87456126134E+03  0.96990322152E+03  0.40000000000E+03 0.  1.
<mgrwt>
<rscale>  2 0.41935052E+03</rscale>
<asrwt>0</asrwt>
<pdfrwt beam="1">  1       21 0.11231724E-01 0.41935052E+03</pdfrwt>
<pdfrwt beam="2">  1       21 0.40884800E+00 0.41935052E+03</pdfrwt>
<totfact> 0.39867911E+02</totfact>
</mgrwt>
</event>
<event>
 4    1  0.4656822E-002  0.4127534E+03  0.7818608E-02  0.1039451E+00
         21   -1    0    0  501  502  0.00000000000E+00  0.00000000000E+00  0.13671049045E+03  0.13671049045E+03  0.00000000000E+00 0.  1.
         21   -1    0    0  502  503 -0.00000000000E+00 -0.00000000000E+00 -0.13294910287E+04  0.13294910287E+04  0.00000000000E+00 0.  1.
    9000007    1    1    2  501    0 -0.10133190238E+03 -0.98577413820E+01 -0.41287057009E+03  0.58380427983E+03  0.40000000000E+03 0.  1.
   -9000007    1    1    2    0  503  0.10133190238E+03  0.98577413820E+01 -0.77990996812E+03  0.88239723928E+03  0.40000000000E+03 0.  1.
<mgrwt>
<rscale>  2 0.41275335E+03</rscale>
<asrwt>0</asrwt>
<pdfrwt beam="1">  1       21 0.21032383E-01 0.41275335E+03</pdfrwt>
<pdfrwt beam="2">  1       21 0.20453709E+00 0.41275335E+03</pdfrwt>
<totfact> 0.22698478E+03</totfact>
</mgrwt>
</event>
<event>
 4    1  0.4656822E-002  0.5146958E+03  0.7818608E-02  0.1010013E+00
         21   -1    0    0  503  502  0.00000000000E+00  0.00000000000E+00  0.11848851115E+04  0.11848851115E+04  0.00000000000E+00 0.  1.
         21   -1    0    0  501  503 -0.00000000000E+00 -0.00000000000E+00 -0.38899051597E+03  0.38899051597E+03  0.00000000000E+00 0.  1.
    9000007    1    1    2  501    0 -0.16933644596E+03 -0.27611035862E+03 -0.11521866273E+03  0.52743445309E+03  0.40000000000E+03 0.  1.
   -9000007    1    1    2    0  502  0.16933644596E+03  0.27611035862E+03  0.91111325826E+03  0.10464411744E+04  0.40000000000E+03 0.  1.
<mgrwt>
<rscale>  2 0.51469580E+03</rscale>
<asrwt>0</asrwt>
<pdfrwt beam="1">  1       21 0.18229002E+00 0.51469580E+03</pdfrwt>
<pdfrwt beam="2">  1       21 0.59844695E-01 0.51469580E+03</pdfrwt>
<totfact> 0.36519993E+02</totfact>
</mgrwt>
</event>
<event>
 4    1  0.4656822E-002  0.4471537E+03  0.7818608E-02  0.1028574E+00
         21   -1    0    0  503  502  0.00000000000E+00  0.00000000000E+00  0.12013004832E+04  0.12013004832E+04  0.00000000000E+00 0.  1.
         21   -1    0    0  501  503 -0.00000000000E+00 -0.00000000000E+00 -0.18524506316E+03  0.18524506316E+03  0.00000000000E+00 0.  1.
    9000007    1    1    2  501    0 -0.18621154268E+03  0.72606726779E+02  0.28715158481E+03  0.53141557002E+03  0.40000000000E+03 0.  1.
   -9000007    1    1    2    0  502  0.18621154268E+03 -0.72606726779E+02  0.72890383518E+03  0.85512997629E+03  0.40000000000E+03 0.  1.
<mgrwt>
<rscale>  2 0.44715375E+03</rscale>
<asrwt>0</asrwt>
<pdfrwt beam="1">  1       21 0.18481545E+00 0.44715375E+03</pdfrwt>
<pdfrwt beam="2">  1       21 0.28499241E-01 0.44715375E+03</pdfrwt>
<totfact> 0.16844678E+03</totfact>
</mgrwt>
</event>
<event>
 4    1  0.4656822E-002  0.4587263E+03  0.7818608E-02  0.1025151E+00
         21   -1    0    0  503  502  0.00000000000E+00  0.00000000000E+00  0.84346131595E+03  0.84346131595E+03  0.00000000000E+00 0.  1.
         21   -1    0    0  501  503 -0.00000000000E+00 -0.00000000000E+00 -0.45448678984E+03  0.45448678984E+03  0.00000000000E+00 0.  1.
    9000007    1    1    2  501    0 -0.17984110875E+03  0.13448787521E+03 -0.24137267307E+03  0.51835372120E+03  0.40000000000E+03 0.  1.
   -9000007    1    1    2    0  502  0.17984110875E+03 -0.13448787521E+03  0.63034719918E+03  0.77959438459E+03  0.40000000000E+03 0.  1.
<mgrwt>
<rscale>  2 0.45872629E+03</rscale>
<asrwt>0</asrwt>
<pdfrwt beam="1">  1       21 0.12976328E+00 0.45872629E+03</pdfrwt>
<pdfrwt beam="2">  1       21 0.69921044E-01 0.45872629E+03</pdfrwt>
<totfact> 0.67567545E+02</totfact>
</mgrwt>
</event>
<event>
 4    1  0.4656822E-002  0.4344527E+03  0.7818608E-02  0.1032463E+00
         21   -1    0    0  503  502  0.00000000000E+00  0.00000000000E+00  0.42762728856E+03  0.42762728856E+03  0.00000000000E+00 0. -1.
         21   -1    0    0  501  503 -0.00000000000E+00 -0.00000000000E+00 -0.52040268837E+03  0.52040268837E+03  0.00000000000E+00 0.  1.
    9000007    1    1    2  501    0 -0.94424369188E+02  0.14083041147E+03 -0.23109272618E+03  0.49209045346E+03  0.40000000000E+03 0.  1.
   -9000007    1    1    2    0  502  0.94424369188E+02 -0.14083041147E+03  0.13831732637E+03  0.45593952347E+03  0.40000000000E+03 0. -1.
<mgrwt>
<rscale>  2 0.43445272E+03</rscale>
<asrwt>0</asrwt>
<pdfrwt beam="1">  1       21 0.65788814E-01 0.43445272E+03</pdfrwt>
<pdfrwt beam="2">  1       21 0.80061952E-01 0.43445272E+03</pdfrwt>
<totfact> 0.25436286E+03</totfact>
</mgrwt>
</event>
<event>
 4    1  0.4656822E-002  0.4956210E+03  0.7818608E-02  0.1014928E+00
         21   -1    0    0  503  502  0.00000000000E+00  0.00000000000E+00  0.74199757020E+03  0.74199757020E+03  0.00000000000E+00 0.  1.
         21   -1    0    0  501  503 -0.00000000000E+00 -0.00000000000E+00 -0.39026431799E+03  0.39026431799E+03  0.00000000000E+00 0.  1.
    9000007    1    1    2  501    0 -0.31641832600E+00  0.29264334053E+03  0.39638323313E+03  0.63463366786E+03  0.40000000000E+03 0.  1.
   -9000007    1    1    2    0  502  0.31641832600E+00 -0.29264334053E+03 -0.44649980922E+02  0.49762822033E+03  0.40000000000E+03 0.  1.
<mgrwt>
<rscale>  2 0.49562105E+03</rscale>
<asrwt>0</asrwt>
<pdfrwt beam="1">  1       21 0.11415347E+00 0.49562105E+03</pdfrwt>
<pdfrwt beam="2">  1       21 0.60040665E-01 0.49562105E+03</pdfrwt>
<totfact> 0.12961337E+03</totfact>
</mgrwt>
</event>
<event>
 4    1  0.4656822E-002  0.4500883E+03  0.7818608E-02  0.1027696E+00
         21   -1    0    0  503  502  0.00000000000E+00  0.00000000000E+00  0.40895992061E+03  0.40895992061E+03  0.00000000000E+00 0.  1.
         21   -1    0    0  501  503 -0.00000000000E+00 -0.00000000000E+00 -0.59557642956E+03  0.59557642956E+03  0.00000000000E+00 0.  1.
    9000007    1    1    2  501    0  0.36676316839E+02  0.20306242892E+03  0.11273179853E+03  0.46399133683E+03  0.40000000000E+03 0.  1.
   -9000007    1    1    2    0  502 -0.36676316839E+02 -0.20306242892E+03 -0.29934830748E+03  0.54054501334E+03  0.40000000000E+03 0.  1.
<mgrwt>
<rscale>  2 0.45008833E+03</rscale>
<asrwt>0</asrwt>
<pdfrwt beam="1">  1       21 0.62916911E-01 0.45008833E+03</pdfrwt>
<pdfrwt beam="2">  1       21 0.91627143E-01 0.45008833E+03</pdfrwt>
<totfact> 0.20352234E+03</totfact>
</mgrwt>
</event>
<event>
 4    1  0.4656822E-002  0.4106180E+03  0.7818608E-02  0.1040164E+00
         21   -1    0    0  501  502  0.00000000000E+00  0.00000000000E+00  0.41008830873E+03  0.41008830873E+03  0.00000000000E+00 0.  1.
         21   -1    0    0  502  503 -0.00000000000E+00 -0.00000000000E+00 -0.44047248169E+03  0.44047248169E+03  0.00000000000E+00 0.  1.
    9000007    1    1    2  501    0  0.58721432715E+02  0.71825774225E+02  0.94538637751E+02  0.42136053746E+03  0.40000000000E+03 0.  1.
   -9000007    1    1    2    0  503 -0.58721432715E+02 -0.71825774225E+02 -0.12492281070E+03  0.42920025296E+03  0.40000000000E+03 0.  1.
<mgrwt>
<rscale>  2 0.41061801E+03</rscale>
<asrwt>0</asrwt>
<pdfrwt beam="1">  1       21 0.63090510E-01 0.41061801E+03</pdfrwt>
<pdfrwt beam="2">  1       21 0.67764997E-01 0.41061801E+03</pdfrwt>
<totfact> 0.41117083E+03</totfact>
</mgrwt>
</event>
<event>
 4    1  0.4656822E-002  0.4377728E+03  0.7818608E-02  0.1031432E+00
         21   -1    0    0  501  502  0.00000000000E+00  0.00000000000E+00  0.67401968592E+03  0.67401968592E+03  0.00000000000E+00 0. -1.
         21   -1    0    0  502  503 -0.00000000000E+00 -0.00000000000E+00 -0.43851780122E+03  0.43851780122E+03  0.00000000000E+00 0. -1.
    9000007    1    1    2  501    0 -0.13917749229E+03 -0.11079107636E+03  0.44759899240E+03  0.62609096381E+03  0.40000000000E+03 0. -1.
   -9000007    1    1    2    0  503  0.13917749229E+03  0.11079107636E+03 -0.21209710771E+03  0.48644652333E+03  0.40000000000E+03 0. -1.
<mgrwt>
<rscale>  2 0.43777281E+03</rscale>
<asrwt>0</asrwt>
<pdfrwt beam="1">  1       21 0.10369534E+00 0.43777281E+03</pdfrwt>
<pdfrwt beam="2">  1       21 0.67464277E-01 0.43777281E+03</pdfrwt>
<totfact> 0.12991779E+03</totfact>
</mgrwt>
</event>
<event>
 4    1  0.4656822E-002  0.5021341E+03  0.7818608E-02  0.1013223E+00
         21   -1    0    0  503  502  0.00000000000E+00  0.00000000000E+00  0.13963648107E+04  0.13963648107E+04  0.00000000000E+00 0. -1.
         21   -1    0    0  501  503 -0.00000000000E+00 -0.00000000000E+00 -0.37032017732E+03  0.37032017732E+03  0.00000000000E+00 0.  1.
    9000007    1    1    2  501    0  0.29686720500E+03 -0.63312980964E+02 -0.11929332603E+03  0.51611003536E+03  0.40000000000E+03 0.  1.
   -9000007    1    1    2    0  502 -0.29686720500E+03  0.63312980964E+02  0.11453379594E+04  0.12505749527E+04  0.40000000000E+03 0. -1.
<mgrwt>
<rscale>  2 0.50213412E+03</rscale>
<asrwt>0</asrwt>
<pdfrwt beam="1">  1       21 0.21482535E+00 0.50213412E+03</pdfrwt>
<pdfrwt beam="2">  1       21 0.56972336E-01 0.50213412E+03</pdfrwt>
<totfact> 0.24688078E+02</totfact>
</mgrwt>
</event>
<event>
 4    1  0.4656822E-002  0.4084796E+03  0.7818608E-02  0.1040882E+00
         21   -1    0    0  503  502  0.00000000000E+00  0.00000000000E+00  0.70790722181E+03  0.70790722181E+03  0.00000000000E+00 0.  1.
         21   -1    0    0  501  503 -0.00000000000E+00 -0.00000000000E+00 -0.25355014840E+03  0.25355014840E+03  0.00000000000E+00 0.  1.
    9000007    1    1    2  501    0 -0.12096997804E+02 -0.81910017042E+02  0.99635392110E+02  0.42045546686E+03  0.40000000000E+03 0.  1.
   -9000007    1    1    2    0  502  0.12096997804E+02  0.81910017042E+02  0.35472168130E+03  0.54100190335E+03  0.40000000000E+03 0.  1.
<mgrwt>
<rscale>  2 0.40847961E+03</rscale>
<asrwt>0</asrwt>
<pdfrwt beam="1">  1       21 0.10890880E+00 0.40847961E+03</pdfrwt>
<pdfrwt beam="2">  1       21 0.39007716E-01 0.40847961E+03</pdfrwt>
<totfact> 0.37541719E+03</totfact>
</mgrwt>
</event>
<event>
 4    1  0.4656822E-002  0.4910447E+03  0.7818608E-02  0.1016143E+00
         21   -1    0    0  501  502  0.00000000000E+00  0.00000000000E+00  0.28708247512E+03  0.28708247512E+03  0.00000000000E+00 0.  1.
         21   -1    0    0  502  503 -0.00000000000E+00 -0.00000000000E+00 -0.84061262228E+03  0.84061262228E+03  0.00000000000E+00 0.  1.
    9000007    1    1    2  501    0  0.27958910989E+03  0.54358085572E+02 -0.26052157377E+03  0.55587441229E+03  0.40000000000E+03 0.  1.
   -9000007    1    1    2    0  503 -0.27958910989E+03 -0.54358085572E+02 -0.29300857339E+03  0.57182068511E+03  0.40000000000E+03 0.  1.
<mgrwt>
<rscale>  2 0.49104467E+03</rscale>
<asrwt>0</asrwt>
<pdfrwt beam="1">  1       21 0.44166535E-01 0.49104467E+03</pdfrwt>
<pdfrwt beam="2">  1       21 0.12932502E+00 0.49104467E+03</pdfrwt>
<totfact> 0.18221224E+03</totfact>
</mgrwt>
</event>
<event>
 4    1  0.4656822E-002  0.6597906E+03  0.7818608E-02  0.9788579E-01
         21   -1    0    0  501  502  0.00000000000E+00  0.00000000000E+00  0.78733818054E+03  0.78733818054E+03  0.00000000000E+00 0. -1.
         21   -1    0    0  502  503 -0.00000000000E+00 -0.00000000000E+00 -0.70569339111E+03  0.70569339111E+03  0.00000000000E+00 0.  1.
    9000007    1    1    2  501    0  0.52404131215E+03  0.26539746653E+02  0.38817883728E+03  0.76551059085E+03  0.40000000000E+03 0. -1.
   -9000007    1    1    2    0  503 -0.52404131215E+03 -0.26539746653E+02 -0.30653404786E+03  0.72752098079E+03  0.40000000000E+03 0.  1.
<mgrwt>
<rscale>  2 0.65979061E+03</rscale>
<asrwt>0</asrwt>
<pdfrwt beam="1">  1       21 0.12112895E+00 0.65979061E+03</pdfrwt>
<pdfrwt beam="2">  1       21 0.10856822E+00 0.65979061E+03</pdfrwt>
<totfact> 0.26430144E+02</totfact>
</mgrwt>
</event>
<event>
 4    1  0.4656822E-002  0.5134260E+03  0.7818608E-02  0.1010333E+00
         21   -1    0    0  503  502  0.00000000000E+00  0.00000000000E+00  0.63322202302E+03  0.63322202302E+03  0.00000000000E+00 0.  1.
         21   -1    0    0  501  503 -0.00000000000E+00 -0.00000000000E+00 -0.51184955994E+03  0.51184955994E+03  0.00000000000E+00 0. -1.
    9000007    1    1    2  501    0  0.27084673284E+03 -0.17392035871E+03 -0.18669142886E+03  0.54631486661E+03  0.40000000000E+03 0. -1.
   -9000007    1    1    2    0  502 -0.27084673284E+03  0.17392035871E+03  0.30806389193E+03  0.59875671635E+03  0.40000000000E+03 0.  1.
<mgrwt>
<rscale>  2 0.51342599E+03</rscale>
<asrwt>0</asrwt>
<pdfrwt beam="1">  1       21 0.97418773E-01 0.51342599E+03</pdfrwt>
<pdfrwt beam="2">  1       21 0.78746086E-01 0.51342599E+03</pdfrwt>
<totfact> 0.10341882E+03</totfact>
</mgrwt>
</event>
<event>
 4    1  0.4656822E-002  0.5235617E+03  0.7818608E-02  0.1007806E+00
         21   -1    0    0  501  502  0.00000000000E+00  0.00000000000E+00  0.33881769824E+03  0.33881769824E+03  0.00000000000E+00 0.  1.
         21   -1    0    0  502  503 -0.00000000000E+00 -0.00000000000E+00 -0.17510269425E+04  0.17510269425E+04  0.00000000000E+00 0.  1.
    9000007    1    1    2  501    0  0.89689877869E+02  0.32568790675E+03  0.60303605446E+02  0.52702316043E+03  0.40000000000E+03 0.  1.
   -9000007    1    1    2    0  503 -0.89689877869E+02 -0.32568790675E+03 -0.14725128497E+04  0.15628214803E+04  0.40000000000E+03 0.  1.
<mgrwt>
<rscale>  2 0.52356173E+03</rscale>
<asrwt>0</asrwt>
<pdfrwt beam="1">  1       21 0.52125800E-01 0.52356173E+03</pdfrwt>
<pdfrwt beam="2">  1       21 0.26938876E+00 0.52356173E+03</pdfrwt>
<totfact> 0.13500427E+02</totfact>
</mgrwt>
</event>
<event>
 4    1  0.4656822E-002  0.6034566E+03  0.7818608E-02  0.9898261E-01
         21   -1    0    0  501  502  0.00000000000E+00  0.00000000000E+00  0.22197992846E+03  0.22197992846E+03  0.00000000000E+00 0. -1.
         21   -1    0    0  502  503 -0.00000000000E+00 -0.00000000000E+00 -0.20909501937E+04  0.20909501937E+04  0.00000000000E+00 0. -1.
    9000007    1    1    2  501    0  0.35014973228E+03  0.28557839174E+03 -0.39772506937E+03  0.72273444891E+03  0.40000000000E+03 0. -1.
   -9000007    1    1    2    0  503 -0.35014973228E+03 -0.28557839174E+03 -0.14712451959E+04  0.15901956732E+04  0.40000000000E+03 0. -1.
<mgrwt>
<rscale>  2 0.60345659E+03</rscale>
<asrwt>0</asrwt>
<pdfrwt beam="1">  1       21 0.34150758E-01 0.60345659E+03</pdfrwt>
<pdfrwt beam="2">  1       21 0.32168464E+00 0.60345659E+03</pdfrwt>
<totfact> 0.15078876E+02</totfact>
</mgrwt>
</event>
<event>
 4    1  0.4656822E-002  0.4559522E+03  0.7818608E-02  0.1025962E+00
         21   -1    0    0  503  502  0.00000000000E+00  0.00000000000E+00  0.12180807722E+04  0.12180807722E+04  0.00000000000E+00 0.  1.
         21   -1    0    0  501  503 -0.00000000000E+00 -0.00000000000E+00 -0.17971747459E+03  0.17971747459E+03  0.00000000000E+00 0.  1.
    9000007    1    1    2  501    0 -0.20945137826E+03 -0.63423671741E+02  0.67597652235E+03  0.81537519018E+03  0.40000000000E+03 0.  1.
   -9000007    1    1    2    0  502  0.20945137826E+03  0.63423671741E+02  0.36238677526E+03  0.58242305661E+03  0.40000000000E+03 0.  1.
<mgrwt>
<rscale>  2 0.45595224E+03</rscale>
<asrwt>0</asrwt>
<pdfrwt beam="1">  1       21 0.18739704E+00 0.45595224E+03</pdfrwt>
<pdfrwt beam="2">  1       21 0.27648843E-01 0.45595224E+03</pdfrwt>
<totfact> 0.17097527E+03</totfact>
</mgrwt>
</event>
<event>
 4    1  0.4656822E-002  0.6303469E+03  0.7818608E-02  0.9844372E-01
         21   -1    0    0  503  502  0.00000000000E+00  0.00000000000E+00  0.13591595466E+04  0.13591595466E+04  0.00000000000E+00 0. -1.
         21   -1    0    0  501  503 -0.00000000000E+00 -0.00000000000E+00 -0.29487738258E+03  0.29487738258E+03  0.00000000000E+00 0. -1.
    9000007    1    1    2  501    0 -0.38671949732E+03 -0.29628569141E+03  0.45543014133E+03  0.77765917610E+03  0.40000000000E+03 0. -1.
   -9000007    1    1    2    0  502  0.38671949732E+03  0.29628569141E+03  0.60885202266E+03  0.87637775305E+03  0.40000000000E+03 0. -1.
<mgrwt>
<rscale>  2 0.63034687E+03</rscale>
<asrwt>0</asrwt>
<pdfrwt beam="1">  1       21 0.20910147E+00 0.63034687E+03</pdfrwt>
<pdfrwt beam="2">  1       21 0.45365752E-01 0.63034687E+03</pdfrwt>
<totfact> 0.41633647E+02</totfact>
</mgrwt>
</event>
<event>
 4    1  0.4656822E-002  0.5816147E+03  0.7818608E-02  0.9944301E-01
         21   -1    0    0  503  502  0.00000000000E+00  0.00000000000E+00  0.31578926792E+03  0.31578926792E+03  0.00000000000E+00 0.  1.
         21   -1    0    0  501  503 -0.00000000000E+00 -0.00000000000E+00 -0.10726813963E+04  0.10726813963E+04  0.00000000000E+00 0.  1.
    9000007    1    1    2  501    0  0.94460922624E+02 -0.41152495590E+03 -0.40418480851E+03  0.70826620324E+03  0.40000000000E+03 0.  1.
   -9000007    1    1    2    0  502 -0.94460922624E+02  0.41152495590E+03 -0.35270731988E+03  0.68020446097E+03  0.40000000000E+03 0.  1.
<mgrwt>
<rscale>  2 0.58161470E+03</rscale>
<asrwt>0</asrwt>
<pdfrwt beam="1">  1       21 0.48582965E-01 0.58161470E+03</pdfrwt>
<pdfrwt beam="2">  1       21 0.16502791E+00 0.58161470E+03</pdfrwt>
<totfact> 0.74520942E+02</totfact>
</mgrwt>
</event>
<event>
 4    1  0.4656822E-002  0.5647311E+03  0.7818608E-02  0.9981406E-01
         21   -1    0    0  503  502  0.00000000000E+00  0.00000000000E+00  0.31857995999E+03  0.31857995999E+03  0.00000000000E+00 0.  1.
         21   -1    0    0  501  503 -0.00000000000E+00 -0.00000000000E+00 -0.10299790953E+04  0.10299790953E+04  0.00000000000E+00 0.  1.
    9000007    1    1    2  501    0 -0.37328870387E+03 -0.13991679112E+03 -0.46866234779E+03  0.73387026177E+03  0.40000000000E+03 0.  1.
   -9000007    1    1    2    0  502  0.37328870387E+03  0.13991679112E+03 -0.24273678754E+03  0.61468879354E+03  0.40000000000E+03 0.  1.
<mgrwt>
<rscale>  2 0.56473106E+03</rscale>
<asrwt>0</asrwt>
<pdfrwt beam="1">  1       21 0.49012302E-01 0.56473106E+03</pdfrwt>
<pdfrwt beam="2">  1       21 0.15845832E+00 0.56473106E+03</pdfrwt>
<totfact> 0.82499031E+02</totfact>
</mgrwt>
</event>
<event>
 4    1  0.4656822E-002  0.4628137E+03  0.7818608E-02  0.1023968E+00
         21   -1    0    0  501  502  0.00000000000E+00  0.00000000000E+00  0.14814889188E+04  0.14814889188E+04  0.00000000000E+00 0.  1.
         21   -1    0    0  502  503 -0.00000000000E+00 -0.00000000000E+00 -0.14820345205E+03  0.14820345205E+03  0.00000000000E+00 0.  1.
    9000007    1    1    2  501    0  0.16442567765E+03 -0.16480508444E+03  0.79402012765E+03  0.91905629993E+03  0.40000000000E+03 0.  1.
   -9000007    1    1    2    0  503 -0.16442567765E+03  0.16480508444E+03  0.53926533906E+03  0.71063607088E+03  0.40000000000E+03 0.  1.
<mgrwt>
<rscale>  2 0.46281370E+03</rscale>
<asrwt>0</asrwt>
<pdfrwt beam="1">  1       21 0.22792136E+00 0.46281370E+03</pdfrwt>
<pdfrwt beam="2">  1       21 0.22800532E-01 0.46281370E+03</pdfrwt>
<totfact> 0.13436583E+03</totfact>
</mgrwt>
</event>
<event>
 4    1  0.4656822E-002  0.4511820E+03  0.7818608E-02  0.1027370E+00
         21   -1    0    0  503  502  0.00000000000E+00  0.00000000000E+00  0.11934166527E+03  0.11934166527E+03  0.00000000000E+00 0.  1.
         21   -1    0    0  501  503 -0.00000000000E+00 -0.00000000000E+00 -0.18868970175E+04  0.18868970175E+04  0.00000000000E+00 0. -1.
    9000007    1    1    2  501    0 -0.19511940965E+03 -0.74118610526E+02 -0.11946006516E+04  0.12769635348E+04  0.40000000000E+03 0. -1.
   -9000007    1    1    2    0  502  0.19511940965E+03  0.74118610526E+02 -0.57295470059E+03  0.72927514792E+03  0.40000000000E+03 0.  1.
<mgrwt>
<rscale>  2 0.45118195E+03</rscale>
<asrwt>0</asrwt>
<pdfrwt beam="1">  1       21 0.18360257E-01 0.45118195E+03</pdfrwt>
<pdfrwt beam="2">  1       21 0.29029184E+00 0.45118195E+03</pdfrwt>
<totfact> 0.84815664E+02</totfact>
</mgrwt>
</event>
<event>
 4    1  0.4656822E-002  0.4017291E+03  0.7818608E-02  0.1043183E+00
         21   -1    0    0  503  502  0.00000000000E+00  0.00000000000E+00  0.56274036434E+03  0.56274036434E+03  0.00000000000E+00 0.  1.
         21   -1    0    0  501  503 -0.00000000000E+00 -0.00000000000E+00 -0.29015166607E+03  0.29015166607E+03  0.00000000000E+00 0.  1.
    9000007    1    1    2  501    0 -0.22705017908E+02  0.29508463022E+02  0.18222081889E+03  0.44112435216E+03  0.40000000000E+03 0.  1.
   -9000007    1    1    2    0  502  0.22705017908E+02 -0.29508463022E+02  0.90367879382E+02  0.41176767825E+03  0.40000000000E+03 0.  1.
<mgrwt>
<rscale>  2 0.40172910E+03</rscale>
<asrwt>0</asrwt>
<pdfrwt beam="1">  1       21 0.86575441E-01 0.40172910E+03</pdfrwt>
<pdfrwt beam="2">  1       21 0.44638718E-01 0.40172910E+03</pdfrwt>
<totfact> 0.49472000E+03</totfact>
</mgrwt>
</event>
<event>
 4    1  0.4656822E-002  0.4535085E+03  0.7818608E-02  0.1026681E+00
         21   -1    0    0  501  502  0.00000000000E+00  0.00000000000E+00  0.10804002134E+04  0.10804002134E+04  0.00000000000E+00 0. -1.
         21   -1    0    0  502  503 -0.00000000000E+00 -0.00000000000E+00 -0.20103527285E+03  0.20103527285E+03  0.00000000000E+00 0. -1.
    9000007    1    1    2  501    0 -0.10407823134E+03  0.18664843646E+03  0.58729636048E+03  0.74201545274E+03  0.40000000000E+03 0. -1.
   -9000007    1    1    2    0  503  0.10407823134E+03 -0.18664843646E+03  0.29206858004E+03  0.53942003348E+03  0.40000000000E+03 0. -1.
<mgrwt>
<rscale>  2 0.45350845E+03</rscale>
<asrwt>0</asrwt>
<pdfrwt beam="1">  1       21 0.16621541E+00 0.45350845E+03</pdfrwt>
<pdfrwt beam="2">  1       21 0.30928504E-01 0.45350845E+03</pdfrwt>
<totfact> 0.19402200E+03</totfact>
</mgrwt>
</event>
<event>
 4    1  0.4656822E-002  0.4178988E+03  0.7818608E-02  0.1037752E+00
         21   -1    0    0  503  502  0.00000000000E+00  0.00000000000E+00  0.80416261180E+03  0.80416261180E+03  0.00000000000E+00 0. -1.
         21   -1    0    0  501  503 -0.00000000000E+00 -0.00000000000E+00 -0.24156751308E+03  0.24156751308E+03  0.00000000000E+00 0. -1.
    9000007    1    1    2  501    0  0.52226877120E+02 -0.10914092535E+03  0.44746648860E+03  0.61226272686E+03  0.40000000000E+03 0. -1.
   -9000007    1    1    2    0  502 -0.52226877120E+02  0.10914092535E+03  0.11512861011E+03  0.43346739802E+03  0.40000000000E+03 0. -1.
<mgrwt>
<rscale>  2 0.41789878E+03</rscale>
<asrwt>0</asrwt>
<pdfrwt beam="1">  1       21 0.12371732E+00 0.41789878E+03</pdfrwt>
<pdfrwt beam="2">  1       21 0.37164233E-01 0.41789878E+03</pdfrwt>
<totfact> 0.29986514E+03</totfact>
</mgrwt>
</event>
<event>
 4    1  0.4656822E-002  0.4739822E+03  0.7818608E-02  0.1020802E+00
         21   -1    0    0  503  502  0.00000000000E+00  0.00000000000E+00  0.93878953994E+03  0.93878953994E+03  0.00000000000E+00 0.  1.
         21   -1    0    0  501  503 -0.00000000000E+00 -0.00000000000E+00 -0.24272116398E+03  0.24272116398E+03  0.00000000000E+00 0. -1.
    9000007    1    1    2  501    0 -0.18353126201E+03  0.17599841690E+03  0.27797283506E+03  0.54947981211E+03  0.40000000000E+03 0.  1.
   -9000007    1    1    2    0  502  0.18353126201E+03 -0.17599841690E+03  0.41809554090E+03  0.63203089181E+03  0.40000000000E+03 0. -1.
<mgrwt>
<rscale>  2 0.47398224E+03</rscale>
<asrwt>0</asrwt>
<pdfrwt beam="1">  1       21 0.14442916E+00 0.47398224E+03</pdfrwt>
<pdfrwt beam="2">  1       21 0.37341718E-01 0.47398224E+03</pdfrwt>
<totfact> 0.19377197E+03</totfact>
</mgrwt>
</event>
<event>
 4    1  0.4656822E-002  0.4137709E+03  0.7818608E-02  0.1039113E+00
         21   -1    0    0  503  502  0.00000000000E+00  0.00000000000E+00  0.41312016513E+03  0.41312016513E+03  0.00000000000E+00 0. -1.
         21   -1    0    0  501  503 -0.00000000000E+00 -0.00000000000E+00 -0.50521319032E+03  0.50521319032E+03  0.00000000000E+00 0.  1.
    9000007    1    1    2  501    0 -0.89805505917E+02  0.56047524298E+02 -0.24069602568E+03  0.47868667273E+03  0.40000000000E+03 0.  1.
   -9000007    1    1    2    0  502  0.89805505917E+02 -0.56047524298E+02  0.14860300050E+03  0.43964668272E+03  0.40000000000E+03 0. -1.
<mgrwt>
<rscale>  2 0.41377090E+03</rscale>
<asrwt>0</asrwt>
<pdfrwt beam="1">  1       21 0.63556948E-01 0.41377090E+03</pdfrwt>
<pdfrwt beam="2">  1       21 0.77725107E-01 0.41377090E+03</pdfrwt>
<totfact> 0.29627087E+03</totfact>
</mgrwt>
</event>
<event>
 4    1  0.4656822E-002  0.4822687E+03  0.7818608E-02  0.1018514E+00
         21   -1    0    0  503  502  0.00000000000E+00  0.00000000000E+00  0.21820280925E+04  0.21820280925E+04  0.00000000000E+00 0. -1.
         21   -1    0    0  501  503 -0.00000000000E+00 -0.00000000000E+00 -0.11422319657E+03  0.11422319657E+03  0.00000000000E+00 0.  1.
    9000007    1    1    2  501    0 -0.26903003144E+03 -0.14350289518E+02  0.73710772580E+03  0.88085804081E+03  0.40000000000E+03 0.  1.
   -9000007    1    1    2    0  502  0.26903003144E+03  0.14350289518E+02  0.13306971702E+04  0.14153932483E+04  0.40000000000E+03 0.  1.
<mgrwt>
<rscale>  2 0.48226869E+03</rscale>
<asrwt>0</asrwt>
<pdfrwt beam="1">  1       21 0.33569660E+00 0.48226869E+03</pdfrwt>
<pdfrwt beam="2">  1       21 0.17572801E-01 0.48226869E+03</pdfrwt>
<totfact> 0.48149840E+02</totfact>
</mgrwt>
</event>
<event>
 4    1  0.4656822E-002  0.4713042E+03  0.7818608E-02  0.1021553E+00
         21   -1    0    0  503  502  0.00000000000E+00  0.00000000000E+00  0.84042901805E+03  0.84042901805E+03  0.00000000000E+00 0.  1.
         21   -1    0    0  501  503 -0.00000000000E+00 -0.00000000000E+00 -0.31251179809E+03  0.31251179809E+03  0.00000000000E+00 0.  1.
    9000007    1    1    2  501    0  0.20593236454E+03  0.14042626702E+03  0.37542031045E+02  0.47279708050E+03  0.40000000000E+03 0.  1.
   -9000007    1    1    2    0  502 -0.20593236454E+03 -0.14042626702E+03  0.49037518891E+03  0.68014373564E+03  0.40000000000E+03 0.  1.
<mgrwt>
<rscale>  2 0.47130423E+03</rscale>
<asrwt>0</asrwt>
<pdfrwt beam="1">  1       21 0.12929677E+00 0.47130423E+03</pdfrwt>
<pdfrwt beam="2">  1       21 0.48078739E-01 0.47130423E+03</pdfrwt>
<totfact> 0.15361103E+03</totfact>
</mgrwt>
</event>
<event>
 4    1  0.4656822E-002  0.4181217E+03  0.7818608E-02  0.1037679E+00
         21   -1    0    0  501  502  0.00000000000E+00  0.00000000000E+00  0.50124531139E+03  0.50124531139E+03  0.00000000000E+00 0.  1.
         21   -1    0    0  502  503 -0.00000000000E+00 -0.00000000000E+00 -0.49921633584E+03  0.49921633584E+03  0.00000000000E+00 0.  1.
    9000007    1    1    2  501    0 -0.12975274050E+02 -0.12106759226E+03  0.27561317352E+03  0.50078772055E+03  0.40000000000E+03 0.  1.
   -9000007    1    1    2    0  503  0.12975274050E+02  0.12106759226E+03 -0.27358419797E+03  0.49967392669E+03  0.40000000000E+03 0.  1.
<mgrwt>
<rscale>  2 0.41812166E+03</rscale>
<asrwt>0</asrwt>
<pdfrwt beam="1">  1       21 0.77114663E-01 0.41812166E+03</pdfrwt>
<pdfrwt beam="2">  1       21 0.76802514E-01 0.41812166E+03</pdfrwt>
<totfact> 0.19679574E+03</totfact>
</mgrwt>
</event>
<event>
 4    1  0.4656822E-002  0.4385024E+03  0.7818608E-02  0.1031207E+00
         21   -1    0    0  501  502  0.00000000000E+00  0.00000000000E+00  0.39994913201E+03  0.39994913201E+03  0.00000000000E+00 0.  1.
         21   -1    0    0  502  503 -0.00000000000E+00 -0.00000000000E+00 -0.51429221510E+03  0.51429221510E+03  0.00000000000E+00 0.  1.
    9000007    1    1    2  501    0  0.66507138889E+02  0.16691674031E+03  0.59530490368E+02  0.44252488857E+03  0.40000000000E+03 0. -1.
   -9000007    1    1    2    0  503 -0.66507138889E+02 -0.16691674031E+03 -0.17387357345E+03  0.47171645855E+03  0.40000000000E+03 0. -1.
<mgrwt>
<rscale>  2 0.43850245E+03</rscale>
<asrwt>0</asrwt>
<pdfrwt beam="1">  1       21 0.61530636E-01 0.43850245E+03</pdfrwt>
<pdfrwt beam="2">  1       21 0.79121879E-01 0.43850245E+03</pdfrwt>
<totfact> 0.30264284E+03</totfact>
</mgrwt>
</event>
<event>
 4    1  0.4656822E-002  0.4443021E+03  0.7818608E-02  0.1029435E+00
         21   -1    0    0  501  502  0.00000000000E+00  0.00000000000E+00  0.27991507842E+03  0.27991507842E+03  0.00000000000E+00 0.  1.
         21   -1    0    0  502  503 -0.00000000000E+00 -0.00000000000E+00 -0.71834466267E+03  0.71834466267E+03  0.00000000000E+00 0.  1.
    9000007    1    1    2  501    0  0.12343662576E+03  0.14888835197E+03 -0.15177197937E+03  0.46950939890E+03  0.40000000000E+03 0.  1.
   -9000007    1    1    2    0  503 -0.12343662576E+03 -0.14888835197E+03 -0.28665760489E+03  0.52875034220E+03  0.40000000000E+03 0.  1.
<mgrwt>
<rscale>  2 0.44430208E+03</rscale>
<asrwt>0</asrwt>
<pdfrwt beam="1">  1       21 0.43063859E-01 0.44430208E+03</pdfrwt>
<pdfrwt beam="2">  1       21 0.11051456E+00 0.44430208E+03</pdfrwt>
<totfact> 0.29121647E+03</totfact>
</mgrwt>
</event>
<event>
 4    1  0.4656822E-002  0.4475876E+03  0.7818608E-02  0.1028444E+00
         21   -1    0    0  503  502  0.00000000000E+00  0.00000000000E+00  0.11017756190E+03  0.11017756190E+03  0.00000000000E+00 0.  1.
         21   -1    0    0  501  503 -0.00000000000E+00 -0.00000000000E+00 -0.18187854128E+04  0.18187854128E+04  0.00000000000E+00 0.  1.
    9000007    1    1    2  501    0  0.19650264806E+03  0.41489211641E+02 -0.87023842483E+03  0.97859570887E+03  0.40000000000E+03 0.  1.
   -9000007    1    1    2    0  502 -0.19650264806E+03 -0.41489211641E+02 -0.83836942604E+03  0.95036726580E+03  0.40000000000E+03 0.  1.
<mgrwt>
<rscale>  2 0.44758758E+03</rscale>
<asrwt>0</asrwt>
<pdfrwt beam="1">  1       21 0.16950394E-01 0.44758758E+03</pdfrwt>
<pdfrwt beam="2">  1       21 0.27981314E+00 0.44758758E+03</pdfrwt>
<totfact> 0.11419228E+03</totfact>
</mgrwt>
</event>
<event>
 4    1  0.4656822E-002  0.4028436E+03  0.7818608E-02  0.1042799E+00
         21   -1    0    0  501  502  0.00000000000E+00  0.00000000000E+00  0.43911541107E+03  0.43911541107E+03  0.00000000000E+00 0.  1.
         21   -1    0    0  502  503 -0.00000000000E+00 -0.00000000000E+00 -0.48308535244E+03  0.48308535244E+03  0.00000000000E+00 0.  1.
    9000007    1    1    2  501    0 -0.44235647408E+02  0.18059944451E+02  0.20153425909E+03  0.45044312813E+03  0.40000000000E+03 0.  1.
   -9000007    1    1    2    0  503  0.44235647408E+02 -0.18059944451E+02 -0.24550420046E+03  0.47175763538E+03  0.40000000000E+03 0.  1.
<mgrwt>
<rscale>  2 0.40284359E+03</rscale>
<asrwt>0</asrwt>
<pdfrwt beam="1">  1       21 0.67556217E-01 0.40284359E+03</pdfrwt>
<pdfrwt beam="2">  1       21 0.74320823E-01 0.40284359E+03</pdfrwt>
<totfact> 0.28780740E+03</totfact>
</mgrwt>
</event>
<event>
 4    1  0.4656822E-002  0.4539766E+03  0.7818608E-02  0.1026543E+00
         21   -1    0    0  501  502  0.00000000000E+00  0.00000000000E+00  0.53190938057E+03  0.53190938057E+03  0.00000000000E+00 0.  1.
         21   -1    0    0  502  503 -0.00000000000E+00 -0.00000000000E+00 -0.39636236455E+03  0.39636236455E+03  0.00000000000E+00 0.  1.
    9000007    1    1    2  501    0 -0.20309048009E+03 -0.69634831949E+02  0.13732382847E+03  0.47429166848E+03  0.40000000000E+03 0.  1.
   -9000007    1    1    2    0  503  0.20309048009E+03  0.69634831949E+02 -0.17768124481E+01  0.45398007664E+03  0.40000000000E+03 0.  1.
<mgrwt>
<rscale>  2 0.45397660E+03</rscale>
<asrwt>0</asrwt>
<pdfrwt beam="1">  1       21 0.81832212E-01 0.45397660E+03</pdfrwt>
<pdfrwt beam="2">  1       21 0.60978825E-01 0.45397660E+03</pdfrwt>
<totfact> 0.28398895E+03</totfact>
</mgrwt>
</event>
<event>
 4    1  0.4656822E-002  0.5655069E+03  0.7818608E-02  0.9979671E-01
         21   -1    0    0  503  502  0.00000000000E+00  0.00000000000E+00  0.13509727741E+04  0.13509727741E+04  0.00000000000E+00 0. -1.
         21   -1    0    0  501  503 -0.00000000000E+00 -0.00000000000E+00 -0.35263634224E+03  0.35263634224E+03  0.00000000000E+00 0.  1.
    9000007    1    1    2  501    0  0.31350200872E+02  0.39851630798E+03  0.10791924142E+02  0.56560989069E+03  0.40000000000E+03 0.  1.
   -9000007    1    1    2    0  502 -0.31350200872E+02 -0.39851630798E+03  0.98754450770E+03  0.11379992256E+04  0.40000000000E+03 0. -1.
<mgrwt>
<rscale>  2 0.56550693E+03</rscale>
<asrwt>0</asrwt>
<pdfrwt beam="1">  1       21 0.20784196E+00 0.56550693E+03</pdfrwt>
<pdfrwt beam="2">  1       21 0.54251746E-01 0.56550693E+03</pdfrwt>
<totfact> 0.29669326E+02</totfact>
</mgrwt>
</event>
<event>
 4    1  0.4656822E-002  0.4171478E+03  0.7818608E-02  0.1037999E+00
         21   -1    0    0  501  502  0.00000000000E+00  0.00000000000E+00  0.47120654016E+03  0.47120654016E+03  0.00000000000E+00 0. -1.
         21   -1    0    0  502  503 -0.00000000000E+00 -0.00000000000E+00 -0.44829781654E+03  0.44829781654E+03  0.00000000000E+00 0. -1.
    9000007    1    1    2  501    0 -0.88113415335E+02  0.79046177920E+02  0.20446139196E+03  0.46456079582E+03  0.40000000000E+03 0. -1.
   -9000007    1    1    2    0  503  0.88113415335E+02 -0.79046177920E+02 -0.18155266835E+03  0.45494356088E+03  0.40000000000E+03 0. -1.
<mgrwt>
<rscale>  2 0.41714778E+03</rscale>
<asrwt>0</asrwt>
<pdfrwt beam="1">  1       21 0.72493314E-01 0.41714778E+03</pdfrwt>
<pdfrwt beam="2">  1       21 0.68968895E-01 0.41714778E+03</pdfrwt>
<totfact> 0.28911122E+03</totfact>
</mgrwt>
</event>
<event>
 4    1  0.4656822E-002  0.4779788E+03  0.7818608E-02  0.1019692E+00
         21   -1    0    0  501  502  0.00000000000E+00  0.00000000000E+00  0.19275566780E+03  0.19275566780E+03  0.00000000000E+00 0. -1.
         21   -1    0    0  502  503 -0.00000000000E+00 -0.00000000000E+00 -0.13552111980E+04  0.13552111980E+04  0.00000000000E+00 0. -1.
    9000007    1    1    2  501    0 -0.24228896105E+03 -0.98791763763E+02 -0.30713194269E+03  0.56814943761E+03  0.40000000000E+03 0. -1.
   -9000007    1    1    2    0  503  0.24228896105E+03  0.98791763763E+02 -0.85532358750E+03  0.97981742819E+03  0.40000000000E+03 0. -1.
<mgrwt>
<rscale>  2 0.47797882E+03</rscale>
<asrwt>0</asrwt>
<pdfrwt beam="1">  1       21 0.29654717E-01 0.47797882E+03</pdfrwt>
<pdfrwt beam="2">  1       21 0.20849404E+00 0.47797882E+03</pdfrwt>
<totfact> 0.10640009E+03</totfact>
</mgrwt>
</event>
<event>
 4    1  0.4656822E-002  0.4256914E+03  0.7818608E-02  0.1035230E+00
         21   -1    0    0  501  502  0.00000000000E+00  0.00000000000E+00  0.12984836509E+03  0.12984836509E+03  0.00000000000E+00 0.  1.
         21   -1    0    0  502  503 -0.00000000000E+00 -0.00000000000E+00 -0.14296482869E+04  0.14296482869E+04  0.00000000000E+00 0.  1.
    9000007    1    1    2  501    0 -0.14383890054E+03  0.22880514557E+02 -0.52952223944E+03  0.67941662426E+03  0.40000000000E+03 0.  1.
   -9000007    1    1    2    0  503  0.14383890054E+03 -0.22880514557E+02 -0.77027768238E+03  0.88008002774E+03  0.40000000000E+03 0.  1.
<mgrwt>
<rscale>  2 0.42569138E+03</rscale>
<asrwt>0</asrwt>
<pdfrwt beam="1">  1       21 0.19976672E-01 0.42569138E+03</pdfrwt>
<pdfrwt beam="2">  1       21 0.21994589E+00 0.42569138E+03</pdfrwt>
<totfact> 0.19782064E+03</totfact>
</mgrwt>
</event>
<event>
 4    1  0.4656822E-002  0.5805056E+03  0.7818608E-02  0.9946697E-01
         21   -1    0    0  503  502  0.00000000000E+00  0.00000000000E+00  0.10263514638E+04  0.10263514638E+04  0.00000000000E+00 0.  1.
         21   -1    0    0  501  503 -0.00000000000E+00 -0.00000000000E+00 -0.56779896847E+03  0.56779896847E+03  0.00000000000E+00 0. -1.
    9000007    1    1    2  501    0 -0.41952565983E+03  0.31383726613E+02 -0.28835732806E+03  0.64817950153E+03  0.40000000000E+03 0. -1.
   -9000007    1    1    2    0  502  0.41952565983E+03 -0.31383726613E+02  0.74690982340E+03  0.94597093076E+03  0.40000000000E+03 0.  1.
<mgrwt>
<rscale>  2 0.58050557E+03</rscale>
<asrwt>0</asrwt>
<pdfrwt beam="1">  1       21 0.15790022E+00 0.58050557E+03</pdfrwt>
<pdfrwt beam="2">  1       21 0.87353688E-01 0.58050557E+03</pdfrwt>
<totfact> 0.22690415E+02</totfact>
</mgrwt>
</event>
<event>
 4    1  0.4656822E-002  0.4254281E+03  0.7818608E-02  0.1035314E+00
         21   -1    0    0  501  502  0.00000000000E+00  0.00000000000E+00  0.21112777493E+03  0.21112777493E+03  0.00000000000E+00 0.  1.
         21   -1    0    0  502  503 -0.00000000000E+00 -0.00000000000E+00 -0.10282201351E+04  0.10282201351E+04  0.00000000000E+00 0.  1.
    9000007    1    1    2  501    0 -0.65402915845E+01  0.14472843401E+03 -0.15586001660E+03  0.45307994858E+03  0.40000000000E+03 0.  1.
   -9000007    1    1    2    0  503  0.65402915845E+01 -0.14472843401E+03 -0.66123234352E+03  0.78626796141E+03  0.40000000000E+03 0.  1.
<mgrwt>
<rscale>  2 0.42542813E+03</rscale>
<asrwt>0</asrwt>
<pdfrwt beam="1">  1       21 0.32481196E-01 0.42542813E+03</pdfrwt>
<pdfrwt beam="2">  1       21 0.15818771E+00 0.42542813E+03</pdfrwt>
<totfact> 0.20440768E+03</totfact>
</mgrwt>
</event>
<event>
 4    1  0.4656822E-002  0.5661661E+03  0.7818608E-02  0.9978199E-01
         21   -1    0    0  501  502  0.00000000000E+00  0.00000000000E+00  0.80965238906E+03  0.80965238906E+03  0.00000000000E+00 0. -1.
         21   -1    0    0  502  503 -0.00000000000E+00 -0.00000000000E+00 -0.11364138122E+04  0.11364138122E+04  0.00000000000E+00 0. -1.
    9000007    1    1    2  501    0 -0.13162514654E+03 -0.37844262162E+03  0.62208095866E+03  0.84114726189E+03  0.40000000000E+03 0. -1.
   -9000007    1    1    2    0  503  0.13162514654E+03  0.37844262162E+03 -0.94884238179E+03  0.11049189394E+04  0.40000000000E+03 0. -1.
<mgrwt>
<rscale>  2 0.56616605E+03</rscale>
<asrwt>0</asrwt>
<pdfrwt beam="1">  1       21 0.12456191E+00 0.56616605E+03</pdfrwt>
<pdfrwt beam="2">  1       21 0.17483289E+00 0.56616605E+03</pdfrwt>
<totfact> 0.71082024E+01</totfact>
</mgrwt>
</event>
<event>
 4    1  0.4656822E-002  0.5232683E+03  0.7818608E-02  0.1007878E+00
         21   -1    0    0  503  502  0.00000000000E+00  0.00000000000E+00  0.34970333579E+03  0.34970333579E+03  0.00000000000E+00 0. -1.
         21   -1    0    0  501  503 -0.00000000000E+00 -0.00000000000E+00 -0.78302514808E+03  0.78302514808E+03  0.00000000000E+00 0. -1.
    9000007    1    1    2  501    0 -0.12213772798E+03  0.31447111775E+03 -0.21222498119E+03  0.56466729243E+03  0.40000000000E+03 0. -1.
   -9000007    1    1    2    0  502  0.12213772798E+03 -0.31447111775E+03 -0.22109683110E+03  0.56806119144E+03  0.40000000000E+03 0. -1.
<mgrwt>
<rscale>  2 0.52326829E+03</rscale>
<asrwt>0</asrwt>
<pdfrwt beam="1">  1       21 0.53800513E-01 0.52326829E+03</pdfrwt>
<pdfrwt beam="2">  1       21 0.12046541E+00 0.52326829E+03</pdfrwt>
<totfact> 0.14228708E+03</totfact>
</mgrwt>
</event>
<event>
 4    1  0.4656822E-002  0.4731668E+03  0.7818608E-02  0.1021030E+00
         21   -1    0    0  501  502  0.00000000000E+00  0.00000000000E+00  0.67273713157E+03  0.67273713157E+03  0.00000000000E+00 0.  1.
         21   -1    0    0  502  503 -0.00000000000E+00 -0.00000000000E+00 -0.63217801599E+03  0.63217801599E+03  0.00000000000E+00 0.  1.
    9000007    1    1    2  501    0 -0.33143314871E+01 -0.25273677930E+03  0.46927568220E+03  0.66641318287E+03  0.40000000000E+03 0.  1.
   -9000007    1    1    2    0  503  0.33143314871E+01  0.25273677930E+03 -0.42871656662E+03  0.63850196468E+03  0.40000000000E+03 0.  1.
<mgrwt>
<rscale>  2 0.47316685E+03</rscale>
<asrwt>0</asrwt>
<pdfrwt beam="1">  1       21 0.10349802E+00 0.47316685E+03</pdfrwt>
<pdfrwt beam="2">  1       21 0.97258157E-01 0.47316685E+03</pdfrwt>
<totfact> 0.55058898E+02</totfact>
</mgrwt>
</event>
<event>
 4    1  0.4656822E-002  0.8270227E+03  0.7818608E-02  0.9521706E-01
         21   -1    0    0  501  502  0.00000000000E+00  0.00000000000E+00  0.16370274338E+04  0.16370274338E+04  0.00000000000E+00 0.  1.
         21   -1    0    0  502  503 -0.00000000000E+00 -0.00000000000E+00 -0.48633517639E+03  0.48633517639E+03  0.00000000000E+00 0.  1.
    9000007    1    1    2  501    0 -0.62549528045E+03  0.36431048928E+03  0.97386722825E+03  0.12776477827E+04  0.40000000000E+03 0.  1.
   -9000007    1    1    2    0  503  0.62549528045E+03 -0.36431048928E+03  0.17682502919E+03  0.84571482748E+03  0.40000000000E+03 0.  1.
<mgrwt>
<rscale>  2 0.82702266E+03</rscale>
<asrwt>0</asrwt>
<pdfrwt beam="1">  1       21 0.25185037E+00 0.82702266E+03</pdfrwt>
<pdfrwt beam="2">  1       21 0.74820797E-01 0.82702266E+03</pdfrwt>
<totfact> 0.68651967E+01</totfact>
</mgrwt>
</event>
<event>
 4    1  0.4656822E-002  0.4987147E+03  0.7818608E-02  0.1014115E+00
         21   -1    0    0  503  502  0.00000000000E+00  0.00000000000E+00  0.21402144426E+04  0.21402144426E+04  0.00000000000E+00 0. -1.
         21   -1    0    0  501  503 -0.00000000000E+00 -0.00000000000E+00 -0.12425281890E+03  0.12425281890E+03  0.00000000000E+00 0. -1.
    9000007    1    1    2  501    0 -0.22497668281E+02  0.29700197124E+03  0.71993478184E+03  0.87579815375E+03  0.40000000000E+03 0. -1.
   -9000007    1    1    2    0  502  0.22497668281E+02 -0.29700197124E+03  0.12960268419E+04  0.13886691077E+04  0.40000000000E+03 0. -1.
<mgrwt>
<rscale>  2 0.49871466E+03</rscale>
<asrwt>0</asrwt>
<pdfrwt beam="1">  1       21 0.32926373E+00 0.49871466E+03</pdfrwt>
<pdfrwt beam="2">  1       21 0.19115820E-01 0.49871466E+03</pdfrwt>
<totfact> 0.44540530E+02</totfact>
</mgrwt>
</event>
<event>
 4    1  0.4656822E-002  0.4336900E+03  0.7818608E-02  0.1032701E+00
         21   -1    0    0  501  502  0.00000000000E+00  0.00000000000E+00  0.97044202652E+03  0.97044202652E+03  0.00000000000E+00 0.  1.
         21   -1    0    0  502  503 -0.00000000000E+00 -0.00000000000E+00 -0.34396129214E+03  0.34396129214E+03  0.00000000000E+00 0. -1.
    9000007    1    1    2  501    0 -0.16732810308E+03  0.93997867165E+01  0.74745048228E+03  0.86415812993E+03  0.40000000000E+03 0.  1.
   -9000007    1    1    2    0  503  0.16732810308E+03 -0.93997867165E+01 -0.12096974790E+03  0.45024518873E+03  0.40000000000E+03 0. -1.
<mgrwt>
<rscale>  2 0.43369004E+03</rscale>
<asrwt>0</asrwt>
<pdfrwt beam="1">  1       21 0.14929877E+00 0.43369004E+03</pdfrwt>
<pdfrwt beam="2">  1       21 0.52917122E-01 0.43369004E+03</pdfrwt>
<totfact> 0.86875681E+02</totfact>
</mgrwt>
</event>
<event>
 4    1  0.4656822E-002  0.4920769E+03  0.7818608E-02  0.1015868E+00
         21   -1    0    0  501  502  0.00000000000E+00  0.00000000000E+00  0.55479403708E+03  0.55479403708E+03  0.00000000000E+00 0.  1.
         21   -1    0    0  502  503 -0.00000000000E+00 -0.00000000000E+00 -0.50534396422E+03  0.50534396422E+03  0.00000000000E+00 0.  1.
    9000007    1    1    2  501    0  0.25826308155E+03 -0.12425733751E+03  0.22044283305E+03  0.53919824542E+03  0.40000000000E+03 0.  1.
   -9000007    1    1    2    0  503 -0.25826308155E+03  0.12425733751E+03 -0.17099276019E+03  0.52093975588E+03  0.40000000000E+03 0.  1.
<mgrwt>
<rscale>  2 0.49207693E+03</rscale>
<asrwt>0</asrwt>
<pdfrwt beam="1">  1       21 0.85352929E-01 0.49207693E+03</pdfrwt>
<pdfrwt beam="2">  1       21 0.77745225E-01 0.49207693E+03</pdfrwt>
<totfact> 0.14705496E+03</totfact>
</mgrwt>
</event>
<event>
 4    1  0.4656822E-002  0.5046462E+03  0.7818608E-02  0.1012573E+00
         21   -1    0    0  503  502  0.00000000000E+00  0.00000000000E+00  0.64224865366E+03  0.64224865366E+03  0.00000000000E+00 0. -1.
         21   -1    0    0  501  503 -0.00000000000E+00 -0.00000000000E+00 -0.82443078013E+03  0.82443078013E+03  0.00000000000E+00 0. -1.
    9000007    1    1    2  501    0  0.30753457418E+03 -0.95005900346E+01 -0.61941718386E+03  0.79896522026E+03  0.40000000000E+03 0. -1.
   -9000007    1    1    2    0  502 -0.30753457418E+03  0.95005900346E+01  0.43723505739E+03  0.66771421352E+03  0.40000000000E+03 0. -1.
<mgrwt>
<rscale>  2 0.50464619E+03</rscale>
<asrwt>0</asrwt>
<pdfrwt beam="1">  1       21 0.98807485E-01 0.50464619E+03</pdfrwt>
<pdfrwt beam="2">  1       21 0.12683551E+00 0.50464619E+03</pdfrwt>
<totfact> 0.31349239E+02</totfact>
</mgrwt>
</event>
<event>
 4    1  0.4656822E-002  0.4005968E+03  0.7818608E-02  0.1043573E+00
         21   -1    0    0  503  502  0.00000000000E+00  0.00000000000E+00  0.64689230440E+03  0.64689230440E+03  0.00000000000E+00 0.  1.
         21   -1    0    0  501  503 -0.00000000000E+00 -0.00000000000E+00 -0.26112460809E+03  0.26112460809E+03  0.00000000000E+00 0.  1.
    9000007    1    1    2  501    0 -0.24039808625E+01  0.21726259368E+02  0.91390226800E+02  0.41088925883E+03  0.40000000000E+03 0.  1.
   -9000007    1    1    2    0  502  0.24039808625E+01 -0.21726259368E+02  0.29437746952E+03  0.49712765366E+03  0.40000000000E+03 0.  1.
<mgrwt>
<rscale>  2 0.40059682E+03</rscale>
<asrwt>0</asrwt>
<pdfrwt beam="1">  1       21 0.99521893E-01 0.40059682E+03</pdfrwt>
<pdfrwt beam="2">  1       21 0.40173017E-01 0.40059682E+03</pdfrwt>
<totfact> 0.44205367E+03</totfact>
</mgrwt>
</event>
<event>
 4    1  0.4656822E-002  0.4061930E+03  0.7818608E-02  0.1041656E+00
         21   -1    0    0  503  502  0.00000000000E+00  0.00000000000E+00  0.56210834074E+03  0.56210834074E+03  0.00000000000E+00 0.  1.
         21   -1    0    0  501  503 -0.00000000000E+00 -0.00000000000E+00 -0.36860712969E+03  0.36860712969E+03  0.00000000000E+00 0.  1.
    9000007    1    1    2  501    0  0.65372436739E+02  0.26818364212E+02 -0.11327571603E+03  0.42169202979E+03  0.40000000000E+03 0.  1.
   -9000007    1    1    2    0  502 -0.65372436739E+02 -0.26818364212E+02  0.30677692707E+03  0.50902344065E+03  0.40000000000E+03 0.  1.
<mgrwt>
<rscale>  2 0.40619303E+03</rscale>
<asrwt>0</asrwt>
<pdfrwt beam="1">  1       21 0.86478207E-01 0.40619303E+03</pdfrwt>
<pdfrwt beam="2">  1       21 0.56708789E-01 0.40619303E+03</pdfrwt>
<totfact> 0.29778709E+03</totfact>
</mgrwt>
</event>
<event>
 4    1  0.4656822E-002  0.5109655E+03  0.7818608E-02  0.1010956E+00
         21   -1    0    0  503  502  0.00000000000E+00  0.00000000000E+00  0.28542614558E+03  0.28542614558E+03  0.00000000000E+00 0.  1.
         21   -1    0    0  501  503 -0.00000000000E+00 -0.00000000000E+00 -0.95317549412E+03  0.95317549412E+03  0.00000000000E+00 0.  1.
    9000007    1    1    2  501    0 -0.29158510166E+03  0.12674336778E+03 -0.45826299434E+03  0.68636049185E+03  0.40000000000E+03 0.  1.
   -9000007    1    1    2    0  502  0.29158510166E+03 -0.12674336778E+03 -0.20948635421E+03  0.55224114786E+03  0.40000000000E+03 0.  1.
<mgrwt>
<rscale>  2 0.51096551E+03</rscale>
<asrwt>0</asrwt>
<pdfrwt beam="1">  1       21 0.43911715E-01 0.51096551E+03</pdfrwt>
<pdfrwt beam="2">  1       21 0.14664238E+00 0.51096551E+03</pdfrwt>
<totfact> 0.13122326E+03</totfact>
</mgrwt>
</event>
<event>
 4    1  0.4656822E-002  0.5285776E+03  0.7818608E-02  0.1006578E+00
         21   -1    0    0  503  502  0.00000000000E+00  0.00000000000E+00  0.45588324707E+03  0.45588324707E+03  0.00000000000E+00 0.  1.
         21   -1    0    0  501  503 -0.00000000000E+00 -0.00000000000E+00 -0.70829068025E+03  0.70829068025E+03  0.00000000000E+00 0. -1.
    9000007    1    1    2  501    0  0.19427994553E+03  0.28574388162E+03  0.87453640440E+02  0.53576338279E+03  0.40000000000E+03 0.  1.
   -9000007    1    1    2    0  502 -0.19427994553E+03 -0.28574388162E+03 -0.33986107362E+03  0.62841054453E+03  0.40000000000E+03 0. -1.
<mgrwt>
<rscale>  2 0.52857758E+03</rscale>
<asrwt>0</asrwt>
<pdfrwt beam="1">  1       21 0.70135885E-01 0.52857758E+03</pdfrwt>
<pdfrwt beam="2">  1       21 0.10896780E+00 0.52857758E+03</pdfrwt>
<totfact> 0.10176913E+03</totfact>
</mgrwt>
</event>
<event>
 4    1  0.4656822E-002  0.4241319E+03  0.7818608E-02  0.1035730E+00
         21   -1    0    0  501  502  0.00000000000E+00  0.00000000000E+00  0.15291421679E+04  0.15291421679E+04  0.00000000000E+00 0.  1.
         21   -1    0    0  502  503 -0.00000000000E+00 -0.00000000000E+00 -0.11764716444E+03  0.11764716444E+03  0.00000000000E+00 0.  1.
    9000007    1    1    2  501    0  0.10582881246E+03  0.93210369584E+02  0.71228180902E+03  0.82899534740E+03  0.40000000000E+03 0. -1.
   -9000007    1    1    2    0  503 -0.10582881246E+03 -0.93210369584E+02  0.69921319446E+03  0.81779398497E+03  0.40000000000E+03 0. -1.
<mgrwt>
<rscale>  2 0.42413195E+03</rscale>
<asrwt>0</asrwt>
<pdfrwt beam="1">  1       21 0.23525263E+00 0.42413195E+03</pdfrwt>
<pdfrwt beam="2">  1       21 0.18099565E-01 0.42413195E+03</pdfrwt>
<totfact> 0.19108771E+03</totfact>
</mgrwt>
</event>
<event>
 4    1  0.4656822E-002  0.4280801E+03  0.7818608E-02  0.1034468E+00
         21   -1    0    0  503  502  0.00000000000E+00  0.00000000000E+00  0.15284596251E+03  0.15284596251E+03  0.00000000000E+00 0.  1.
         21   -1    0    0  501  503 -0.00000000000E+00 -0.00000000000E+00 -0.11994237206E+04  0.11994237206E+04  0.00000000000E+00 0.  1.
    9000007    1    1    2  501    0  0.20034467357E+02 -0.15116597240E+03 -0.53692278733E+03  0.68668669031E+03  0.40000000000E+03 0.  1.
   -9000007    1    1    2    0  502 -0.20034467357E+02  0.15116597240E+03 -0.50965497074E+03  0.66558299279E+03  0.40000000000E+03 0.  1.
<mgrwt>
<rscale>  2 0.42808005E+03</rscale>
<asrwt>0</asrwt>
<pdfrwt beam="1">  1       21 0.23514764E-01 0.42808005E+03</pdfrwt>
<pdfrwt beam="2">  1       21 0.18452672E+00 0.42808005E+03</pdfrwt>
<totfact> 0.24832228E+03</totfact>
</mgrwt>
</event>
<event>
 4    1  0.4656822E-002  0.4842269E+03  0.7818608E-02  0.1017980E+00
         21   -1    0    0  501  502  0.00000000000E+00  0.00000000000E+00  0.91334546962E+02  0.91334546962E+02  0.00000000000E+00 0. -1.
         21   -1    0    0  502  503 -0.00000000000E+00 -0.00000000000E+00 -0.25823611472E+04  0.25823611472E+04  0.00000000000E+00 0.  1.
    9000007    1    1    2  501    0 -0.21096049321E+03 -0.17312241651E+03 -0.13478850996E+04  0.14322255208E+04  0.40000000000E+03 0. -1.
   -9000007    1    1    2    0  503  0.21096049321E+03  0.17312241651E+03 -0.11431415006E+04  0.12414701733E+04  0.40000000000E+03 0.  1.
<mgrwt>
<rscale>  2 0.48422691E+03</rscale>
<asrwt>0</asrwt>
<pdfrwt beam="1">  1       21 0.14051468E-01 0.48422691E+03</pdfrwt>
<pdfrwt beam="2">  1       21 0.39728634E+00 0.48422691E+03</pdfrwt>
<totfact> 0.30120263E+02</totfact>
</mgrwt>
</event>
<event>
 4    1  0.4656822E-002  0.4970974E+03  0.7818608E-02  0.1014539E+00
         21   -1    0    0  501  502  0.00000000000E+00  0.00000000000E+00  0.72700050105E+03  0.72700050105E+03  0.00000000000E+00 0. -1.
         21   -1    0    0  502  503 -0.00000000000E+00 -0.00000000000E+00 -0.38212429339E+03  0.38212429339E+03  0.00000000000E+00 0.  1.
    9000007    1    1    2  501    0  0.29510631031E+03 -0.42560422072E+01  0.35678709401E+03  0.61188469398E+03  0.40000000000E+03 0.  1.
   -9000007    1    1    2    0  503 -0.29510631031E+03  0.42560422072E+01 -0.11910886351E+02  0.49724010045E+03  0.40000000000E+03 0.  1.
<mgrwt>
<rscale>  2 0.49709742E+03</rscale>
<asrwt>0</asrwt>
<pdfrwt beam="1">  1       21 0.11184623E+00 0.49709742E+03</pdfrwt>
<pdfrwt beam="2">  1       21 0.58788353E-01 0.49709742E+03</pdfrwt>
<totfact> 0.14277966E+03</totfact>
</mgrwt>
</event>
<event>
 4    1  0.4656822E-002  0.4260241E+03  0.7818608E-02  0.1035123E+00
         21   -1    0    0  501  502  0.00000000000E+00  0.00000000000E+00  0.10054756400E+04  0.10054756400E+04  0.00000000000E+00 0. -1.
         21   -1    0    0  502  503 -0.00000000000E+00 -0.00000000000E+00 -0.22437994037E+03  0.22437994037E+03  0.00000000000E+00 0. -1.
    9000007    1    1    2  501    0  0.86477763124E+02  0.11839826401E+03  0.11863811167E+03  0.44223472724E+03  0.40000000000E+03 0. -1.
   -9000007    1    1    2    0  503 -0.86477763124E+02 -0.11839826401E+03  0.66245758798E+03  0.78762085314E+03  0.40000000000E+03 0. -1.
<mgrwt>
<rscale>  2 0.42602412E+03</rscale>
<asrwt>0</asrwt>
<pdfrwt beam="1">  1       21 0.15468856E+00 0.42602412E+03</pdfrwt>
<pdfrwt beam="2">  1       21 0.34519992E-01 0.42602412E+03</pdfrwt>
<totfact> 0.19232102E+03</totfact>
</mgrwt>
</event>
<event>
 4    1  0.4656822E-002  0.4925740E+03  0.7818608E-02  0.1015736E+00
         21   -1    0    0  501  502  0.00000000000E+00  0.00000000000E+00  0.37887057152E+03  0.37887057152E+03  0.00000000000E+00 0.  1.
         21   -1    0    0  502  503 -0.00000000000E+00 -0.00000000000E+00 -0.78734950690E+03  0.78734950690E+03  0.00000000000E+00 0. -1.
    9000007    1    1    2  501    0  0.10281881335E+03  0.26843517624E+03  0.47672671602E+02  0.49487557612E+03  0.40000000000E+03 0.  1.
   -9000007    1    1    2    0  503 -0.10281881335E+03 -0.26843517624E+03 -0.45615160698E+03  0.67134450230E+03  0.40000000000E+03 0. -1.
<mgrwt>
<rscale>  2 0.49257401E+03</rscale>
<asrwt>0</asrwt>
<pdfrwt beam="1">  1       21 0.58287781E-01 0.49257401E+03</pdfrwt>
<pdfrwt beam="2">  1       21 0.12113069E+00 0.49257401E+03</pdfrwt>
<totfact> 0.11917575E+03</totfact>
</mgrwt>
</event>
<event>
 4    1  0.4656822E-002  0.4829980E+03  0.7818608E-02  0.1018314E+00
         21   -1    0    0  501  502  0.00000000000E+00  0.00000000000E+00  0.41977213961E+03  0.41977213961E+03  0.00000000000E+00 0.  1.
         21   -1    0    0  502  503 -0.00000000000E+00 -0.00000000000E+00 -0.69679151371E+03  0.69679151371E+03  0.00000000000E+00 0.  1.
    9000007    1    1    2  501    0 -0.27050904290E+03 -0.10581228189E+02  0.11266748868E+03  0.49596478472E+03  0.40000000000E+03 0.  1.
   -9000007    1    1    2    0  503  0.27050904290E+03  0.10581228189E+02 -0.38968686277E+03  0.62059886859E+03  0.40000000000E+03 0.  1.
<mgrwt>
<rscale>  2 0.48299804E+03</rscale>
<asrwt>0</asrwt>
<pdfrwt beam="1">  1       21 0.64580329E-01 0.48299804E+03</pdfrwt>
<pdfrwt beam="2">  1       21 0.10719869E+00 0.48299804E+03</pdfrwt>
<totfact> 0.12962623E+03</totfact>
</mgrwt>
</event>
<event>
 4    1  0.4656822E-002  0.4939705E+03  0.7818608E-02  0.1015365E+00
         21   -1    0    0  503  502  0.00000000000E+00  0.00000000000E+00  0.59236159764E+03  0.59236159764E+03  0.00000000000E+00 0. -1.
         21   -1    0    0  501  503 -0.00000000000E+00 -0.00000000000E+00 -0.43214363571E+03  0.43214363571E+03  0.00000000000E+00 0. -1.
    9000007    1    1    2  501    0  0.98098287841E+02  0.27273361561E+03  0.19091822641E+03  0.52958159743E+03  0.40000000000E+03 0.  1.
   -9000007    1    1    2    0  502 -0.98098287841E+02 -0.27273361561E+03 -0.30700264473E+02  0.49492363592E+03  0.40000000000E+03 0.  1.
<mgrwt>
<rscale>  2 0.49397054E+03</rscale>
<asrwt>0</asrwt>
<pdfrwt beam="1">  1       21 0.91132554E-01 0.49397054E+03</pdfrwt>
<pdfrwt beam="2">  1       21 0.66483636E-01 0.49397054E+03</pdfrwt>
<totfact> 0.17950445E+03</totfact>
</mgrwt>
</event>
<event>
 4    1  0.4656822E-002  0.4673677E+03  0.7818608E-02  0.1022666E+00
         21   -1    0    0  501  502  0.00000000000E+00  0.00000000000E+00  0.68088546054E+03  0.68088546054E+03  0.00000000000E+00 0. -1.
         21   -1    0    0  502  503 -0.00000000000E+00 -0.00000000000E+00 -0.54162113825E+03  0.54162113825E+03  0.00000000000E+00 0. -1.
    9000007    1    1    2  501    0 -0.77948628306E+02 -0.22881567185E+03  0.45992193481E+03  0.65571395170E+03  0.40000000000E+03 0. -1.
   -9000007    1    1    2    0  503  0.77948628306E+02  0.22881567185E+03 -0.32065761251E+03  0.56679264710E+03  0.40000000000E+03 0. -1.
<mgrwt>
<rscale>  2 0.46736774E+03</rscale>
<asrwt>0</asrwt>
<pdfrwt beam="1">  1       21 0.10475161E+00 0.46736774E+03</pdfrwt>
<pdfrwt beam="2">  1       21 0.83326329E-01 0.46736774E+03</pdfrwt>
<totfact> 0.77316258E+02</totfact>
</mgrwt>
</event>
<event>
 4    1  0.4656822E-002  0.5021348E+03  0.7818608E-02  0.1013223E+00
         21   -1    0    0  501  502  0.00000000000E+00  0.00000000000E+00  0.19859602462E+03  0.19859602462E+03  0.00000000000E+00 0.  1.
         21   -1    0    0  502  503 -0.00000000000E+00 -0.00000000000E+00 -0.13618728864E+04  0.13618728864E+04  0.00000000000E+00 0.  1.
    9000007    1    1    2  501    0 -0.29708946167E+03 -0.62266958869E+02 -0.37855595591E+03  0.62884333038E+03  0.40000000000E+03 0.  1.
   -9000007    1    1    2    0  503  0.29708946167E+03  0.62266958869E+02 -0.78472090592E+03  0.93162558069E+03  0.40000000000E+03 0.  1.
<mgrwt>
<rscale>  2 0.50213477E+03</rscale>
<asrwt>0</asrwt>
<pdfrwt beam="1">  1       21 0.30553235E-01 0.50213477E+03</pdfrwt>
<pdfrwt beam="2">  1       21 0.20951890E+00 0.50213477E+03</pdfrwt>
<totfact> 0.97711046E+02</totfact>
</mgrwt>
</event>
<event>
 4    1  0.4656822E-002  0.4900451E+03  0.7818608E-02  0.1016410E+00
         21   -1    0    0  501  502  0.00000000000E+00  0.00000000000E+00  0.39911230742E+03  0.39911230742E+03  0.00000000000E+00 0.  1.
         21   -1    0    0  502  503 -0.00000000000E+00 -0.00000000000E+00 -0.61846581357E+03  0.61846581357E+03  0.00000000000E+00 0.  1.
    9000007    1    1    2  501    0  0.87232419036E+02  0.26932271332E+03 -0.19345783844E+03  0.52684927076E+03  0.40000000000E+03 0.  1.
   -9000007    1    1    2    0  503 -0.87232419036E+02 -0.26932271332E+03 -0.25895667708E+02  0.49072885023E+03  0.40000000000E+03 0.  1.
<mgrwt>
<rscale>  2 0.49004512E+03</rscale>
<asrwt>0</asrwt>
<pdfrwt beam="1">  1       21 0.61401894E-01 0.49004512E+03</pdfrwt>
<pdfrwt beam="2">  1       21 0.95148586E-01 0.49004512E+03</pdfrwt>
<totfact> 0.19343959E+03</totfact>
</mgrwt>
</event>
<event>
 4    1  0.4656822E-002  0.4504338E+03  0.7818608E-02  0.1027593E+00
         21   -1    0    0  503  502  0.00000000000E+00  0.00000000000E+00  0.23902200543E+03  0.23902200543E+03  0.00000000000E+00 0.  1.
         21   -1    0    0  501  503 -0.00000000000E+00 -0.00000000000E+00 -0.87631315750E+03  0.87631315750E+03  0.00000000000E+00 0.  1.
    9000007    1    1    2  501    0 -0.18730789376E+03 -0.88353382315E+02 -0.41739369898E+03  0.61409125314E+03  0.40000000000E+03 0.  1.
   -9000007    1    1    2    0  502  0.18730789376E+03  0.88353382315E+02 -0.21989745309E+03  0.50124390979E+03  0.40000000000E+03 0.  1.
<mgrwt>
<rscale>  2 0.45043375E+03</rscale>
<asrwt>0</asrwt>
<pdfrwt beam="1">  1       21 0.36772617E-01 0.45043375E+03</pdfrwt>
<pdfrwt beam="2">  1       21 0.13481741E+00 0.45043375E+03</pdfrwt>
<totfact> 0.24225562E+03</totfact>
</mgrwt>
</event>
<event>
 4    1  0.4656822E-002  0.4606803E+03  0.7818608E-02  0.1024584E+00
         21   -1    0    0  501  502  0.00000000000E+00  0.00000000000E+00  0.41731825529E+03  0.41731825529E+03  0.00000000000E+00 0.  1.
         21   -1    0    0  502  503 -0.00000000000E+00 -0.00000000000E+00 -0.50951664248E+03  0.50951664248E+03  0.00000000000E+00 0.  1.
    9000007    1    1    2  501    0 -0.12301136573E+03 -0.19259936398E+03 -0.25892120597E+02  0.46140731790E+03  0.40000000000E+03 0.  1.
   -9000007    1    1    2    0  503  0.12301136573E+03  0.19259936398E+03 -0.66306266591E+02  0.46542757986E+03  0.40000000000E+03 0.  1.
<mgrwt>
<rscale>  2 0.46068027E+03</rscale>
<asrwt>0</asrwt>
<pdfrwt beam="1">  1       21 0.64202809E-01 0.46068027E+03</pdfrwt>
<pdfrwt beam="2">  1       21 0.78387175E-01 0.46068027E+03</pdfrwt>
<totfact> 0.27928202E+03</totfact>
</mgrwt>
</event>
<event>
 4    1  0.4656822E-002  0.5330380E+03  0.7818608E-02  0.1005498E+00
         21   -1    0    0  503  502  0.00000000000E+00  0.00000000000E+00  0.23394057194E+04  0.23394057194E+04  0.00000000000E+00 0. -1.
         21   -1    0    0  501  503 -0.00000000000E+00 -0.00000000000E+00 -0.12229613065E+03  0.12229613065E+03  0.00000000000E+00 0. -1.
    9000007    1    1    2  501    0  0.60820982316E+02  0.34703065371E+03  0.10063978933E+04  0.11388442326E+04  0.40000000000E+03 0. -1.
   -9000007    1    1    2    0  502 -0.60820982316E+02 -0.34703065371E+03  0.12107116955E+04  0.13228576175E+04  0.40000000000E+03 0. -1.
<mgrwt>
<rscale>  2 0.53303796E+03</rscale>
<asrwt>0</asrwt>
<pdfrwt beam="1">  1       21 0.35990854E+00 0.53303796E+03</pdfrwt>
<pdfrwt beam="2">  1       21 0.18814791E-01 0.53303796E+03</pdfrwt>
<totfact> 0.29217264E+02</totfact>
</mgrwt>
</event>
<event>
 4    1  0.4656822E-002  0.5582710E+03  0.7818608E-02  0.9995974E-01
         21   -1    0    0  503  502  0.00000000000E+00  0.00000000000E+00  0.16383465395E+03  0.16383465395E+03  0.00000000000E+00 0.  1.
         21   -1    0    0  501  503 -0.00000000000E+00 -0.00000000000E+00 -0.19065289457E+04  0.19065289457E+04  0.00000000000E+00 0.  1.
    9000007    1    1    2  501    0  0.35169705980E+03 -0.16725933559E+03 -0.91996575716E+03  0.10761057111E+04  0.40000000000E+03 0.  1.
   -9000007    1    1    2    0  502 -0.35169705980E+03  0.16725933559E+03 -0.82272853462E+03  0.99425788852E+03  0.40000000000E+03 0.  1.
<mgrwt>
<rscale>  2 0.55827100E+03</rscale>
<asrwt>0</asrwt>
<pdfrwt beam="1">  1       21 0.25205331E-01 0.55827100E+03</pdfrwt>
<pdfrwt beam="2">  1       21 0.29331215E+00 0.55827100E+03</pdfrwt>
<totfact> 0.41972029E+02</totfact>
</mgrwt>
</event>
<event>
 4    1  0.4656822E-002  0.5639288E+03  0.7818608E-02  0.9983204E-01
         21   -1    0    0  501  502  0.00000000000E+00  0.00000000000E+00  0.63124931957E+03  0.63124931957E+03  0.00000000000E+00 0.  1.
         21   -1    0    0  502  503 -0.00000000000E+00 -0.00000000000E+00 -0.60379654221E+03  0.60379654221E+03  0.00000000000E+00 0. -1.
    9000007    1    1    2  501    0 -0.38553440012E+03  0.96844791835E+02 -0.23759348047E+03  0.61193655663E+03  0.40000000000E+03 0.  1.
   -9000007    1    1    2    0  503  0.38553440012E+03 -0.96844791835E+02  0.26504625783E+03  0.62310930515E+03  0.40000000000E+03 0.  1.
<mgrwt>
<rscale>  2 0.56392880E+03</rscale>
<asrwt>0</asrwt>
<pdfrwt beam="1">  1       21 0.97115280E-01 0.56392880E+03</pdfrwt>
<pdfrwt beam="2">  1       21 0.92891776E-01 0.56392880E+03</pdfrwt>
<totfact> 0.69410412E+02</totfact>
</mgrwt>
</event>
<event>
 4    1  0.4656822E-002  0.4317608E+03  0.7818608E-02  0.1033305E+00
         21   -1    0    0  503  502  0.00000000000E+00  0.00000000000E+00  0.39069318038E+03  0.39069318038E+03  0.00000000000E+00 0.  1.
         21   -1    0    0  501  503 -0.00000000000E+00 -0.00000000000E+00 -0.53522486026E+03  0.53522486026E+03  0.00000000000E+00 0. -1.
    9000007    1    1    2  501    0 -0.45743544202E+02  0.15596440976E+03 -0.22477169226E+03  0.48676450424E+03  0.40000000000E+03 0. -1.
   -9000007    1    1    2    0  502  0.45743544202E+02 -0.15596440976E+03  0.80240012377E+02  0.43915353640E+03  0.40000000000E+03 0.  1.
<mgrwt>
<rscale>  2 0.43176078E+03</rscale>
<asrwt>0</asrwt>
<pdfrwt beam="1">  1       21 0.60106643E-01 0.43176078E+03</pdfrwt>
<pdfrwt beam="2">  1       21 0.82342286E-01 0.43176078E+03</pdfrwt>
<totfact> 0.29124542E+03</totfact>
</mgrwt>
</event>
<event>
 4    1  0.4656822E-002  0.4042364E+03  0.7818608E-02  0.1042323E+00
         21   -1    0    0  503  502  0.00000000000E+00  0.00000000000E+00  0.44707453616E+03  0.44707453616E+03  0.00000000000E+00 0.  1.
         21   -1    0    0  501  503 -0.00000000000E+00 -0.00000000000E+00 -0.37132968064E+03  0.37132968064E+03  0.00000000000E+00 0.  1.
    9000007    1    1    2  501    0  0.42564165937E+02 -0.39941903890E+02 -0.13386595815E+02  0.40445798899E+03  0.40000000000E+03 0.  1.
   -9000007    1    1    2    0  502 -0.42564165937E+02  0.39941903890E+02  0.89131451337E+02  0.41394622782E+03  0.40000000000E+03 0.  1.
<mgrwt>
<rscale>  2 0.40423640E+03</rscale>
<asrwt>0</asrwt>
<pdfrwt beam="1">  1       21 0.68780698E-01 0.40423640E+03</pdfrwt>
<pdfrwt beam="2">  1       21 0.57127643E-01 0.40423640E+03</pdfrwt>
<totfact> 0.49535271E+03</totfact>
</mgrwt>
</event>
<event>
 4    1  0.4656822E-002  0.4050635E+03  0.7818608E-02  0.1042040E+00
         21   -1    0    0  501  502  0.00000000000E+00  0.00000000000E+00  0.39956965256E+03  0.39956965256E+03  0.00000000000E+00 0. -1.
         21   -1    0    0  502  503 -0.00000000000E+00 -0.00000000000E+00 -0.41064152023E+03  0.41064152023E+03  0.00000000000E+00 0.  1.
    9000007    1    1    2  501    0  0.60287828445E+02 -0.21020047356E+02 -0.73867595352E+01  0.40513087869E+03  0.40000000000E+03 0. -1.
   -9000007    1    1    2    0  503 -0.60287828445E+02  0.21020047356E+02 -0.36851081272E+01  0.40508029410E+03  0.40000000000E+03 0. -1.
<mgrwt>
<rscale>  2 0.40506353E+03</rscale>
<asrwt>0</asrwt>
<pdfrwt beam="1">  1       21 0.61472254E-01 0.40506353E+03</pdfrwt>
<pdfrwt beam="2">  1       21 0.63175618E-01 0.40506353E+03</pdfrwt>
<totfact> 0.50975816E+03</totfact>
</mgrwt>
</event>
<event>
 4    1  0.4656822E-002  0.4343326E+03  0.7818608E-02  0.1032500E+00
         21   -1    0    0  501  502  0.00000000000E+00  0.00000000000E+00  0.33061604438E+03  0.33061604438E+03  0.00000000000E+00 0. -1.
         21   -1    0    0  502  503 -0.00000000000E+00 -0.00000000000E+00 -0.58111626879E+03  0.58111626879E+03  0.00000000000E+00 0. -1.
    9000007    1    1    2  501    0  0.14966997906E+03 -0.79017203155E+02 -0.63883855281E+02  0.43900565827E+03  0.40000000000E+03 0. -1.
   -9000007    1    1    2    0  503 -0.14966997906E+03  0.79017203155E+02 -0.18661636913E+03  0.47272665490E+03  0.40000000000E+03 0. -1.
<mgrwt>
<rscale>  2 0.43433262E+03</rscale>
<asrwt>0</asrwt>
<pdfrwt beam="1">  1       21 0.50864007E-01 0.43433262E+03</pdfrwt>
<pdfrwt beam="2">  1       21 0.89402503E-01 0.43433262E+03</pdfrwt>
<totfact> 0.34416561E+03</totfact>
</mgrwt>
</event>
<event>
 4    1  0.4656822E-002  0.4912157E+03  0.7818608E-02  0.1016098E+00
         21   -1    0    0  501  502  0.00000000000E+00  0.00000000000E+00  0.53270194301E+03  0.53270194301E+03  0.00000000000E+00 0.  1.
         21   -1    0    0  502  503 -0.00000000000E+00 -0.00000000000E+00 -0.54062714849E+03  0.54062714849E+03  0.00000000000E+00 0.  1.
    9000007    1    1    2  501    0 -0.22022078470E+03  0.18109582026E+03  0.21214567694E+03  0.53506885387E+03  0.40000000000E+03 0.  1.
   -9000007    1    1    2    0  503  0.22022078470E+03 -0.18109582026E+03 -0.22007088243E+03  0.53826023764E+03  0.40000000000E+03 0.  1.
<mgrwt>
<rscale>  2 0.49121573E+03</rscale>
<asrwt>0</asrwt>
<pdfrwt beam="1">  1       21 0.81954145E-01 0.49121573E+03</pdfrwt>
<pdfrwt beam="2">  1       21 0.83173407E-01 0.49121573E+03</pdfrwt>
<totfact> 0.13833281E+03</totfact>
</mgrwt>
</event>
<event>
 4    1  0.4656822E-002  0.4720414E+03  0.7818608E-02  0.1021346E+00
         21   -1    0    0  503  502  0.00000000000E+00  0.00000000000E+00  0.87065366372E+03  0.87065366372E+03  0.00000000000E+00 0. -1.
         21   -1    0    0  501  503 -0.00000000000E+00 -0.00000000000E+00 -0.29421357001E+03  0.29421357001E+03  0.00000000000E+00 0.  1.
    9000007    1    1    2  501    0 -0.20008182805E+03 -0.15096459302E+03  0.49832829181E+03  0.68640668170E+03  0.40000000000E+03 0. -1.
   -9000007    1    1    2    0  502  0.20008182805E+03  0.15096459302E+03  0.78111801897E+02  0.47846055204E+03  0.40000000000E+03 0. -1.
<mgrwt>
<rscale>  2 0.47204136E+03</rscale>
<asrwt>0</asrwt>
<pdfrwt beam="1">  1       21 0.13394672E+00 0.47204136E+03</pdfrwt>
<pdfrwt beam="2">  1       21 0.45263626E-01 0.47204136E+03</pdfrwt>
<totfact> 0.15905676E+03</totfact>
</mgrwt>
</event>
<event>
 4    1  0.4656822E-002  0.4507730E+03  0.7818608E-02  0.1027492E+00
         21   -1    0    0  503  502  0.00000000000E+00  0.00000000000E+00  0.45404057352E+03  0.45404057352E+03  0.00000000000E+00 0. -1.
         21   -1    0    0  501  503 -0.00000000000E+00 -0.00000000000E+00 -0.55443104674E+03  0.55443104674E+03  0.00000000000E+00 0. -1.
    9000007    1    1    2  501    0 -0.20169503805E+03 -0.50153992907E+02 -0.27160816730E+03  0.52627683582E+03  0.40000000000E+03 0. -1.
   -9000007    1    1    2    0  502  0.20169503805E+03  0.50153992907E+02  0.17121769408E+03  0.48219478444E+03  0.40000000000E+03 0. -1.
<mgrwt>
<rscale>  2 0.45077302E+03</rscale>
<asrwt>0</asrwt>
<pdfrwt beam="1">  1       21 0.69852396E-01 0.45077302E+03</pdfrwt>
<pdfrwt beam="2">  1       21 0.85297084E-01 0.45077302E+03</pdfrwt>
<totfact> 0.19080040E+03</totfact>
</mgrwt>
</event>
<event>
 4    1  0.4656822E-002  0.4643789E+03  0.7818608E-02  0.1023519E+00
         21   -1    0    0  503  502  0.00000000000E+00  0.00000000000E+00  0.53870771474E+03  0.53870771474E+03  0.00000000000E+00 0. -1.
         21   -1    0    0  501  503 -0.00000000000E+00 -0.00000000000E+00 -0.10841583627E+04  0.10841583627E+04  0.00000000000E+00 0. -1.
    9000007    1    1    2  501    0 -0.16511302659E+03 -0.16847994944E+03 -0.91717287030E+03  0.10280339872E+04  0.40000000000E+03 0. -1.
   -9000007    1    1    2    0  502  0.16511302659E+03  0.16847994944E+03  0.37172222236E+03  0.59483209018E+03  0.40000000000E+03 0. -1.
<mgrwt>
<rscale>  2 0.46437895E+03</rscale>
<asrwt>0</asrwt>
<pdfrwt beam="1">  1       21 0.82878110E-01 0.46437895E+03</pdfrwt>
<pdfrwt beam="2">  1       21 0.16679359E+00 0.46437895E+03</pdfrwt>
<totfact> 0.23147165E+02</totfact>
</mgrwt>
</event>
<event>
 4    1  0.4656822E-002  0.9155247E+03  0.7818608E-02  0.9406380E-01
         21   -1    0    0  501  502  0.00000000000E+00  0.00000000000E+00  0.76626825682E+03  0.76626825682E+03  0.00000000000E+00 0. -1.
         21   -1    0    0  502  503 -0.00000000000E+00 -0.00000000000E+00 -0.11340065164E+04  0.11340065164E+04  0.00000000000E+00 0.  1.
    9000007    1    1    2  501    0 -0.18224379560E+03 -0.80310190999E+03 -0.50821633017E+01  0.91553880707E+03  0.40000000000E+03 0. -1.
   -9000007    1    1    2    0  503  0.18224379560E+03  0.80310190999E+03 -0.36265609627E+03  0.98473596615E+03  0.40000000000E+03 0. -1.
<mgrwt>
<rscale>  2 0.91552470E+03</rscale>
<asrwt>0</asrwt>
<pdfrwt beam="1">  1       21 0.11788742E+00 0.91552470E+03</pdfrwt>
<pdfrwt beam="2">  1       21 0.17446254E+00 0.91552470E+03</pdfrwt>
<totfact> 0.73151885E+01</totfact>
</mgrwt>
</event>
<event>
 4    1  0.4656822E-002  0.4030115E+03  0.7818608E-02  0.1042742E+00
         21   -1    0    0  501  502  0.00000000000E+00  0.00000000000E+00  0.58300904752E+03  0.58300904752E+03  0.00000000000E+00 0.  1.
         21   -1    0    0  502  503 -0.00000000000E+00 -0.00000000000E+00 -0.88621442105E+03  0.88621442105E+03  0.00000000000E+00 0.  1.
    9000007    1    1    2  501    0  0.39084947290E+02  0.29843661257E+02  0.45668275380E+03  0.60907915318E+03  0.40000000000E+03 0.  1.
   -9000007    1    1    2    0  503 -0.39084947290E+02 -0.29843661257E+02 -0.75988812733E+03  0.86014431538E+03  0.40000000000E+03 0.  1.
<mgrwt>
<rscale>  2 0.40301151E+03</rscale>
<asrwt>0</asrwt>
<pdfrwt beam="1">  1       21 0.89693700E-01 0.40301151E+03</pdfrwt>
<pdfrwt beam="2">  1       21 0.13634068E+00 0.40301151E+03</pdfrwt>
<totfact> 0.34374131E+02</totfact>
</mgrwt>
</event>
<event>
 4    1  0.4656822E-002  0.5237886E+03  0.7818608E-02  0.1007750E+00
         21   -1    0    0  503  502  0.00000000000E+00  0.00000000000E+00  0.79225402352E+03  0.79225402352E+03  0.00000000000E+00 0. -1.
         21   -1    0    0  501  503 -0.00000000000E+00 -0.00000000000E+00 -0.39117438911E+03  0.39117438911E+03  0.00000000000E+00 0. -1.
    9000007    1    1    2  501    0 -0.33245926511E+03  0.61849424163E+02  0.11812809920E+00  0.52378862929E+03  0.40000000000E+03 0. -1.
   -9000007    1    1    2    0  502  0.33245926511E+03 -0.61849424163E+02  0.40096150631E+03  0.65963978334E+03  0.40000000000E+03 0. -1.
<mgrwt>
<rscale>  2 0.52378862E+03</rscale>
<asrwt>0</asrwt>
<pdfrwt beam="1">  1       21 0.12188523E+00 0.52378862E+03</pdfrwt>
<pdfrwt beam="2">  1       21 0.60180675E-01 0.52378862E+03</pdfrwt>
<totfact> 0.10814066E+03</totfact>
</mgrwt>
</event>
<event>
 4    1  0.4656822E-002  0.4064962E+03  0.7818608E-02  0.1041553E+00
         21   -1    0    0  501  502  0.00000000000E+00  0.00000000000E+00  0.20371436722E+03  0.20371436722E+03  0.00000000000E+00 0.  1.
         21   -1    0    0  502  503 -0.00000000000E+00 -0.00000000000E+00 -0.82728449381E+03  0.82728449381E+03  0.00000000000E+00 0.  1.
    9000007    1    1    2  501    0  0.33644347804E+02 -0.64087848294E+02 -0.23975335979E+03  0.47193311811E+03  0.40000000000E+03 0.  1.
   -9000007    1    1    2    0  503 -0.33644347804E+02  0.64087848294E+02 -0.38381676680E+03  0.55906574292E+03  0.40000000000E+03 0.  1.
<mgrwt>
<rscale>  2 0.40649624E+03</rscale>
<asrwt>0</asrwt>
<pdfrwt beam="1">  1       21 0.31340672E-01 0.40649624E+03</pdfrwt>
<pdfrwt beam="2">  1       21 0.12727454E+00 0.40649624E+03</pdfrwt>
<totfact> 0.39476004E+03</totfact>
</mgrwt>
</event>
<event>
 4    1  0.4656822E-002  0.5499942E+03  0.7818608E-02  0.1001495E+00
         21   -1    0    0  503  502  0.00000000000E+00  0.00000000000E+00  0.28680690146E+03  0.28680690146E+03  0.00000000000E+00 0.  1.
         21   -1    0    0  501  503 -0.00000000000E+00 -0.00000000000E+00 -0.10610049559E+04  0.10610049559E+04  0.00000000000E+00 0. -1.
    9000007    1    1    2  501    0  0.33822797240E+03  0.16761686349E+03 -0.43907246125E+03  0.70376004466E+03  0.40000000000E+03 0.  1.
   -9000007    1    1    2    0  502 -0.33822797240E+03 -0.16761686349E+03 -0.33512559323E+03  0.64405181273E+03  0.40000000000E+03 0.  1.
<mgrwt>
<rscale>  2 0.54999416E+03</rscale>
<asrwt>0</asrwt>
<pdfrwt beam="1">  1       21 0.44124139E-01 0.54999416E+03</pdfrwt>
<pdfrwt beam="2">  1       21 0.16323153E+00 0.54999416E+03</pdfrwt>
<totfact> 0.95261750E+02</totfact>
</mgrwt>
</event>
<event>
 4    1  0.4656822E-002  0.5274275E+03  0.7818608E-02  0.1006858E+00
         21   -1    0    0  501  502  0.00000000000E+00  0.00000000000E+00  0.55187148679E+03  0.55187148679E+03  0.00000000000E+00 0. -1.
         21   -1    0    0  502  503 -0.00000000000E+00 -0.00000000000E+00 -0.63160872835E+03  0.63160872835E+03  0.00000000000E+00 0. -1.
    9000007    1    1    2  501    0  0.54778422537E+02  0.33938043085E+03 -0.30577851008E+03  0.60965584525E+03  0.40000000000E+03 0. -1.
   -9000007    1    1    2    0  503 -0.54778422537E+02 -0.33938043085E+03  0.22604126852E+03  0.57382436990E+03  0.40000000000E+03 0. -1.
<mgrwt>
<rscale>  2 0.52742749E+03</rscale>
<asrwt>0</asrwt>
<pdfrwt beam="1">  1       21 0.84903306E-01 0.52742749E+03</pdfrwt>
<pdfrwt beam="2">  1       21 0.97170574E-01 0.52742749E+03</pdfrwt>
<totfact> 0.86894391E+02</totfact>
</mgrwt>
</event>
<event>
 4    1  0.4656822E-002  0.5021353E+03  0.7818608E-02  0.1013223E+00
         21   -1    0    0  503  502  0.00000000000E+00  0.00000000000E+00  0.88464580564E+03  0.88464580564E+03  0.00000000000E+00 0.  1.
         21   -1    0    0  501  503 -0.00000000000E+00 -0.00000000000E+00 -0.39859225636E+03  0.39859225636E+03  0.00000000000E+00 0.  1.
    9000007    1    1    2  501    0 -0.28939010126E+03  0.91614595097E+02 -0.99467254519E+02  0.51189217562E+03  0.40000000000E+03 0.  1.
   -9000007    1    1    2    0  502  0.28939010126E+03 -0.91614595097E+02  0.58552080381E+03  0.77134588638E+03  0.40000000000E+03 0.  1.
<mgrwt>
<rscale>  2 0.50213531E+03</rscale>
<asrwt>0</asrwt>
<pdfrwt beam="1">  1       21 0.13609935E+00 0.50213531E+03</pdfrwt>
<pdfrwt beam="2">  1       21 0.61321886E-01 0.50213531E+03</pdfrwt>
<totfact> 0.78507544E+02</totfact>
</mgrwt>
</event>
<event>
 4    1  0.4656822E-002  0.4054340E+03  0.7818608E-02  0.1041914E+00
         21   -1    0    0  501  502  0.00000000000E+00  0.00000000000E+00  0.14542191731E+03  0.14542191731E+03  0.00000000000E+00 0. -1.
         21   -1    0    0  502  503 -0.00000000000E+00 -0.00000000000E+00 -0.23634019263E+04  0.23634019263E+04  0.00000000000E+00 0. -1.
    9000007    1    1    2  501    0  0.36393178006E+02  0.55247285631E+02 -0.20291698280E+03  0.45337845988E+03  0.40000000000E+03 0. -1.
   -9000007    1    1    2    0  503 -0.36393178006E+02 -0.55247285631E+02 -0.20150630262E+04  0.20554453837E+04  0.40000000000E+03 0. -1.
<mgrwt>
<rscale>  2 0.40543400E+03</rscale>
<asrwt>0</asrwt>
<pdfrwt beam="1">  1       21 0.22372602E-01 0.40543400E+03</pdfrwt>
<pdfrwt beam="2">  1       21 0.36360031E+00 0.40543400E+03</pdfrwt>
<totfact> 0.21542220E+02</totfact>
</mgrwt>
</event>
<event>
 4    1  0.4656822E-002  0.4322367E+03  0.7818608E-02  0.1033156E+00
         21   -1    0    0  501  502  0.00000000000E+00  0.00000000000E+00  0.37439795486E+03  0.37439795486E+03  0.00000000000E+00 0.  1.
         21   -1    0    0  502  503 -0.00000000000E+00 -0.00000000000E+00 -0.73464304660E+03  0.73464304660E+03  0.00000000000E+00 0.  1.
    9000007    1    1    2  501    0 -0.16374328349E+03 -0.40828141599E+01  0.13392615836E+03  0.45250939012E+03  0.40000000000E+03 0.  1.
   -9000007    1    1    2    0  503  0.16374328349E+03  0.40828141599E+01 -0.49417125010E+03  0.65653161134E+03  0.40000000000E+03 0.  1.
<mgrwt>
<rscale>  2 0.43223666E+03</rscale>
<asrwt>0</asrwt>
<pdfrwt beam="1">  1       21 0.57599686E-01 0.43223666E+03</pdfrwt>
<pdfrwt beam="2">  1       21 0.11302201E+00 0.43223666E+03</pdfrwt>
<totfact> 0.14912492E+03</totfact>
</mgrwt>
</event>
<event>
 4    1  0.4656822E-002  0.6686371E+03  0.7818608E-02  0.9772423E-01
         21   -1    0    0  503  502  0.00000000000E+00  0.00000000000E+00  0.71092013067E+03  0.71092013067E+03  0.00000000000E+00 0. -1.
         21   -1    0    0  501  503 -0.00000000000E+00 -0.00000000000E+00 -0.12648782989E+04  0.12648782989E+04  0.00000000000E+00 0. -1.
    9000007    1    1    2  501    0  0.53572218226E+03  0.87909188242E+01 -0.97749829162E+03  0.11843050481E+04  0.40000000000E+03 0. -1.
   -9000007    1    1    2    0  502 -0.53572218226E+03 -0.87909188242E+01  0.42354012338E+03  0.79149338149E+03  0.40000000000E+03 0. -1.
<mgrwt>
<rscale>  2 0.66863707E+03</rscale>
<asrwt>0</asrwt>
<pdfrwt beam="1">  1       21 0.10937233E+00 0.66863707E+03</pdfrwt>
<pdfrwt beam="2">  1       21 0.19459666E+00 0.66863707E+03</pdfrwt>
<totfact> 0.68817535E+01</totfact>
</mgrwt>
</event>
<event>
 4    1  0.4656822E-002  0.4260119E+03  0.7818608E-02  0.1035127E+00
         21   -1    0    0  501  502  0.00000000000E+00  0.00000000000E+00  0.47401055676E+03  0.47401055676E+03  0.00000000000E+00 0.  1.
         21   -1    0    0  502  503 -0.00000000000E+00 -0.00000000000E+00 -0.38802441774E+03  0.38802441774E+03  0.00000000000E+00 0. -1.
    9000007    1    1    2  501    0 -0.42675068730E+02 -0.14023176564E+03 -0.66667479498E+01  0.42606402701E+03  0.40000000000E+03 0. -1.
   -9000007    1    1    2    0  503  0.42675068730E+02  0.14023176564E+03  0.92652886972E+02  0.43597094748E+03  0.40000000000E+03 0.  1.
<mgrwt>
<rscale>  2 0.42601187E+03</rscale>
<asrwt>0</asrwt>
<pdfrwt beam="1">  1       21 0.72924701E-01 0.42601187E+03</pdfrwt>
<pdfrwt beam="2">  1       21 0.59696064E-01 0.42601187E+03</pdfrwt>
<totfact> 0.39142633E+03</totfact>
</mgrwt>
</event>
<event>
 4    1  0.4656822E-002  0.4258117E+03  0.7818608E-02  0.1035191E+00
         21   -1    0    0  503  502  0.00000000000E+00  0.00000000000E+00  0.98613984462E+03  0.98613984462E+03  0.00000000000E+00 0.  1.
         21   -1    0    0  501  503 -0.00000000000E+00 -0.00000000000E+00 -0.18766986185E+03  0.18766986185E+03  0.00000000000E+00 0.  1.
    9000007    1    1    2  501    0 -0.12838486094E+03 -0.69519334287E+02  0.48281401489E+03  0.64375848215E+03  0.40000000000E+03 0.  1.
   -9000007    1    1    2    0  502  0.12838486094E+03  0.69519334287E+02  0.31565596788E+03  0.53005122433E+03  0.40000000000E+03 0.  1.
<mgrwt>
<rscale>  2 0.42581171E+03</rscale>
<asrwt>0</asrwt>
<pdfrwt beam="1">  1       21 0.15171382E+00 0.42581171E+03</pdfrwt>
<pdfrwt beam="2">  1       21 0.28872287E-01 0.42581171E+03</pdfrwt>
<totfact> 0.28972184E+03</totfact>
</mgrwt>
</event>
<event>
 4    1  0.4656822E-002  0.4253561E+03  0.7818608E-02  0.1035337E+00
         21   -1    0    0  503  502  0.00000000000E+00  0.00000000000E+00  0.89855007941E+03  0.89855007941E+03  0.00000000000E+00 0.  1.
         21   -1    0    0  501  503 -0.00000000000E+00 -0.00000000000E+00 -0.20578919903E+03  0.20578919903E+03  0.00000000000E+00 0.  1.
    9000007    1    1    2  501    0  0.90155044511E+02  0.11313652307E+03  0.26533007030E+03  0.50132609259E+03  0.40000000000E+03 0.  1.
   -9000007    1    1    2    0  502 -0.90155044511E+02 -0.11313652307E+03  0.42743081008E+03  0.60301318585E+03  0.40000000000E+03 0.  1.
<mgrwt>
<rscale>  2 0.42535609E+03</rscale>
<asrwt>0</asrwt>
<pdfrwt beam="1">  1       21 0.13823847E+00 0.42535609E+03</pdfrwt>
<pdfrwt beam="2">  1       21 0.31659877E-01 0.42535609E+03</pdfrwt>
<totfact> 0.30969209E+03</totfact>
</mgrwt>
</event>
<event>
 4    1  0.4656822E-002  0.4247095E+03  0.7818608E-02  0.1035544E+00
         21   -1    0    0  503  502  0.00000000000E+00  0.00000000000E+00  0.92652249745E+03  0.92652249745E+03  0.00000000000E+00 0. -1.
         21   -1    0    0  501  503 -0.00000000000E+00 -0.00000000000E+00 -0.19721886760E+03  0.19721886760E+03  0.00000000000E+00 0. -1.
    9000007    1    1    2  501    0 -0.12381547744E+03  0.71048457630E+02  0.42836474945E+03  0.60322012098E+03  0.40000000000E+03 0. -1.
   -9000007    1    1    2    0  502  0.12381547744E+03 -0.71048457630E+02  0.30093888041E+03  0.52052124407E+03  0.40000000000E+03 0. -1.
<mgrwt>
<rscale>  2 0.42470950E+03</rscale>
<asrwt>0</asrwt>
<pdfrwt beam="1">  1       21 0.14254192E+00 0.42470950E+03</pdfrwt>
<pdfrwt beam="2">  1       21 0.30341365E-01 0.42470950E+03</pdfrwt>
<totfact> 0.31076811E+03</totfact>
</mgrwt>
</event>
<event>
 4    1  0.4656822E-002  0.4219849E+03  0.7818608E-02  0.1036422E+00
         21   -1    0    0  501  502  0.00000000000E+00  0.00000000000E+00  0.20765104004E+03  0.20765104004E+03  0.00000000000E+00 0. -1.
         21   -1    0    0  502  503 -0.00000000000E+00 -0.00000000000E+00 -0.10442802026E+04  0.10442802026E+04  0.00000000000E+00 0.  1.
    9000007    1    1    2  501    0  0.12233699043E+03 -0.55721777013E+02 -0.15361780712E+03  0.44907648160E+03  0.40000000000E+03 0. -1.
   -9000007    1    1    2    0  503 -0.12233699043E+03  0.55721777013E+02 -0.68301135543E+03  0.80285476103E+03  0.40000000000E+03 0.  1.
<mgrwt>
<rscale>  2 0.42198490E+03</rscale>
<asrwt>0</asrwt>
<pdfrwt beam="1">  1       21 0.31946314E-01 0.42198490E+03</pdfrwt>
<pdfrwt beam="2">  1       21 0.16065849E+00 0.42198490E+03</pdfrwt>
<totfact> 0.20270568E+03</totfact>
</mgrwt>
</event>
<event>
 4    1  0.4656822E-002  0.4885774E+03  0.7818608E-02  0.1016804E+00
         21   -1    0    0  503  502  0.00000000000E+00  0.00000000000E+00  0.16682023031E+03  0.16682023031E+03  0.00000000000E+00 0. -1.
         21   -1    0    0  501  503 -0.00000000000E+00 -0.00000000000E+00 -0.19250720129E+04  0.19250720129E+04  0.00000000000E+00 0.  1.
    9000007    1    1    2  501    0 -0.11621382104E+03  0.25534716898E+03 -0.14090483851E+04  0.14913501200E+04  0.40000000000E+03 0.  1.
   -9000007    1    1    2    0  502  0.11621382104E+03 -0.25534716898E+03 -0.34920339745E+03  0.60054212317E+03  0.40000000000E+03 0. -1.
<mgrwt>
<rscale>  2 0.48857735E+03</rscale>
<asrwt>0</asrwt>
<pdfrwt beam="1">  1       21 0.25664650E-01 0.48857735E+03</pdfrwt>
<pdfrwt beam="2">  1       21 0.29616494E+00 0.48857735E+03</pdfrwt>
<totfact> 0.40270453E+02</totfact>
</mgrwt>
</event>
<event>
 4    1  0.4656822E-002  0.4853525E+03  0.7818608E-02  0.1017674E+00
         21   -1    0    0  503  502  0.00000000000E+00  0.00000000000E+00  0.60760437450E+03  0.60760437450E+03  0.00000000000E+00 0. -1.
         21   -1    0    0  501  503 -0.00000000000E+00 -0.00000000000E+00 -0.39480679108E+03  0.39480679108E+03  0.00000000000E+00 0.  1.
    9000007    1    1    2  501    0  0.78840297436E+02 -0.26334619232E+03  0.39144341082E+02  0.48692842282E+03  0.40000000000E+03 0.  1.
   -9000007    1    1    2    0  502 -0.78840297436E+02  0.26334619232E+03  0.17365324235E+03  0.51548274276E+03  0.40000000000E+03 0. -1.
<mgrwt>
<rscale>  2 0.48535246E+03</rscale>
<asrwt>0</asrwt>
<pdfrwt beam="1">  1       21 0.93477595E-01 0.48535246E+03</pdfrwt>
<pdfrwt beam="2">  1       21 0.60739507E-01 0.48535246E+03</pdfrwt>
<totfact> 0.20705416E+03</totfact>
</mgrwt>
</event>
<event>
 4    1  0.4656822E-002  0.4043565E+03  0.7818608E-02  0.1042282E+00
         21   -1    0    0  503  502  0.00000000000E+00  0.00000000000E+00  0.33492041131E+03  0.33492041131E+03  0.00000000000E+00 0. -1.
         21   -1    0    0  501  503 -0.00000000000E+00 -0.00000000000E+00 -0.54776734851E+03  0.54776734851E+03  0.00000000000E+00 0. -1.
    9000007    1    1    2  501    0 -0.33321781968E+02  0.48927108495E+02 -0.25197811426E+03  0.47644220338E+03  0.40000000000E+03 0. -1.
   -9000007    1    1    2    0  502  0.33321781968E+02 -0.48927108495E+02  0.39131177060E+02  0.40624555643E+03  0.40000000000E+03 0. -1.
<mgrwt>
<rscale>  2 0.40435653E+03</rscale>
<asrwt>0</asrwt>
<pdfrwt beam="1">  1       21 0.51526218E-01 0.40435653E+03</pdfrwt>
<pdfrwt beam="2">  1       21 0.84271899E-01 0.40435653E+03</pdfrwt>
<totfact> 0.38890323E+03</totfact>
</mgrwt>
</event>
<event>
 4    1  0.4656822E-002  0.4323610E+03  0.7818608E-02  0.1033117E+00
         21   -1    0    0  503  502  0.00000000000E+00  0.00000000000E+00  0.12672824169E+04  0.12672824169E+04  0.00000000000E+00 0.  1.
         21   -1    0    0  501  503 -0.00000000000E+00 -0.00000000000E+00 -0.17568056517E+03  0.17568056517E+03  0.00000000000E+00 0.  1.
    9000007    1    1    2  501    0  0.13183211223E+03 -0.97756620247E+02  0.25688879483E+03  0.50291939268E+03  0.40000000000E+03 0.  1.
   -9000007    1    1    2    0  502 -0.13183211223E+03  0.97756620247E+02  0.83471305687E+03  0.94004358937E+03  0.40000000000E+03 0.  1.
<mgrwt>
<rscale>  2 0.43236103E+03</rscale>
<asrwt>0</asrwt>
<pdfrwt beam="1">  1       21 0.19496652E+00 0.43236103E+03</pdfrwt>
<pdfrwt beam="2">  1       21 0.27027780E-01 0.43236103E+03</pdfrwt>
<totfact> 0.16039220E+03</totfact>
</mgrwt>
</event>
<event>
 4    1  0.4656822E-002  0.4854359E+03  0.7818608E-02  0.1017652E+00
         21   -1    0    0  503  502  0.00000000000E+00  0.00000000000E+00  0.46365424879E+03  0.46365424879E+03  0.00000000000E+00 0.  1.
         21   -1    0    0  501  503 -0.00000000000E+00 -0.00000000000E+00 -0.60228039438E+03  0.60228039438E+03  0.00000000000E+00 0.  1.
    9000007    1    1    2  501    0  0.16686744313E+03  0.21863961671E+03 -0.27991216567E+03  0.56035599940E+03  0.40000000000E+03 0.  1.
   -9000007    1    1    2    0  502 -0.16686744313E+03 -0.21863961671E+03  0.14128602007E+03  0.50557864377E+03  0.40000000000E+03 0.  1.
<mgrwt>
<rscale>  2 0.48543591E+03</rscale>
<asrwt>0</asrwt>
<pdfrwt beam="1">  1       21 0.71331423E-01 0.48543591E+03</pdfrwt>
<pdfrwt beam="2">  1       21 0.92658522E-01 0.48543591E+03</pdfrwt>
<totfact> 0.14771971E+03</totfact>
</mgrwt>
</event>
<event>
 4    1  0.4656822E-002  0.4508639E+03  0.7818608E-02  0.1027465E+00
         21   -1    0    0  503  502  0.00000000000E+00  0.00000000000E+00  0.17027757041E+04  0.17027757041E+04  0.00000000000E+00 0. -1.
         21   -1    0    0  501  503 -0.00000000000E+00 -0.00000000000E+00 -0.14951001521E+03  0.14951001521E+03  0.00000000000E+00 0.  1.
    9000007    1    1    2  501    0  0.19738245600E+03 -0.65714740702E+02  0.36087666154E+03  0.57750344235E+03  0.40000000000E+03 0. -1.
   -9000007    1    1    2    0  502 -0.19738245600E+03  0.65714740702E+02  0.11923890273E+04  0.12747822769E+04  0.40000000000E+03 0. -1.
<mgrwt>
<rscale>  2 0.45086391E+03</rscale>
<asrwt>0</asrwt>
<pdfrwt beam="1">  1       21 0.26196548E+00 0.45086391E+03</pdfrwt>
<pdfrwt beam="2">  1       21 0.23001542E-01 0.45086391E+03</pdfrwt>
<totfact> 0.81819803E+02</totfact>
</mgrwt>
</event>
<event>
 4    1  0.4656822E-002  0.4202592E+03  0.7818608E-02  0.1036982E+00
         21   -1    0    0  503  502  0.00000000000E+00  0.00000000000E+00  0.17116426569E+03  0.17116426569E+03  0.00000000000E+00 0. -1.
         21   -1    0    0  501  503 -0.00000000000E+00 -0.00000000000E+00 -0.11717972721E+04  0.11717972721E+04  0.00000000000E+00 0. -1.
    9000007    1    1    2  501    0 -0.11460370799E+03  0.59023922768E+02 -0.73236115025E+03  0.84437591613E+03  0.40000000000E+03 0. -1.
   -9000007    1    1    2    0  502  0.11460370799E+03 -0.59023922768E+02 -0.26827185619E+03  0.49858562170E+03  0.40000000000E+03 0. -1.
<mgrwt>
<rscale>  2 0.42025925E+03</rscale>
<asrwt>0</asrwt>
<pdfrwt beam="1">  1       21 0.26332963E-01 0.42025925E+03</pdfrwt>
<pdfrwt beam="2">  1       21 0.18027651E+00 0.42025925E+03</pdfrwt>
<totfact> 0.21411910E+03</totfact>
</mgrwt>
</event>
<event>
 4    1  0.4656822E-002  0.4067335E+03  0.7818608E-02  0.1041473E+00
         21   -1    0    0  501  502  0.00000000000E+00  0.00000000000E+00  0.35601126532E+03  0.35601126532E+03  0.00000000000E+00 0. -1.
         21   -1    0    0  502  503 -0.00000000000E+00 -0.00000000000E+00 -0.58365687544E+03  0.58365687544E+03  0.00000000000E+00 0. -1.
    9000007    1    1    2  501    0 -0.24680076797E+02  0.69448087636E+02  0.98302625655E+02  0.41844420091E+03  0.40000000000E+03 0.  1.
   -9000007    1    1    2    0  503  0.24680076797E+02 -0.69448087636E+02 -0.32594823577E+03  0.52122393985E+03  0.40000000000E+03 0.  1.
<mgrwt>
<rscale>  2 0.40673350E+03</rscale>
<asrwt>0</asrwt>
<pdfrwt beam="1">  1       21 0.54770964E-01 0.40673350E+03</pdfrwt>
<pdfrwt beam="2">  1       21 0.89793365E-01 0.40673350E+03</pdfrwt>
<totfact> 0.29375173E+03</totfact>
</mgrwt>
</event>
<event>
 4    1  0.4656822E-002  0.4770553E+03  0.7818608E-02  0.1019948E+00
         21   -1    0    0  501  502  0.00000000000E+00  0.00000000000E+00  0.96931344130E+03  0.96931344130E+03  0.00000000000E+00 0.  1.
         21   -1    0    0  502  503 -0.00000000000E+00 -0.00000000000E+00 -0.23481883574E+03  0.23481883574E+03  0.00000000000E+00 0.  1.
    9000007    1    1    2  501    0  0.17033089820E+03  0.19639022668E+03  0.37430951514E+03  0.60637393508E+03  0.40000000000E+03 0. -1.
   -9000007    1    1    2    0  503 -0.17033089820E+03 -0.19639022668E+03  0.36018509042E+03  0.59775834196E+03  0.40000000000E+03 0. -1.
<mgrwt>
<rscale>  2 0.47705528E+03</rscale>
<asrwt>0</asrwt>
<pdfrwt beam="1">  1       21 0.14912514E+00 0.47705528E+03</pdfrwt>
<pdfrwt beam="2">  1       21 0.36125975E-01 0.47705528E+03</pdfrwt>
<totfact> 0.18990117E+03</totfact>
</mgrwt>
</event>
<event>
 4    1  0.4656822E-002  0.5048086E+03  0.7818608E-02  0.1012531E+00
         21   -1    0    0  503  502  0.00000000000E+00  0.00000000000E+00  0.21563989295E+03  0.21563989295E+03  0.00000000000E+00 0. -1.
         21   -1    0    0  501  503 -0.00000000000E+00 -0.00000000000E+00 -0.14088536229E+04  0.14088536229E+04  0.00000000000E+00 0. -1.
    9000007    1    1    2  501    0  0.26805533539E+03  0.15158504315E+03 -0.92272160618E+03  0.10517827013E+04  0.40000000000E+03 0. -1.
   -9000007    1    1    2    0  502 -0.26805533539E+03 -0.15158504315E+03 -0.27049212375E+03  0.57271081459E+03  0.40000000000E+03 0. -1.
<mgrwt>
<rscale>  2 0.50480857E+03</rscale>
<asrwt>0</asrwt>
<pdfrwt beam="1">  1       21 0.33175368E-01 0.50480857E+03</pdfrwt>
<pdfrwt beam="2">  1       21 0.21674671E+00 0.50480857E+03</pdfrwt>
<totfact> 0.74244005E+02</totfact>
</mgrwt>
</event>
<event>
 4    1  0.4656822E-002  0.4259083E+03  0.7818608E-02  0.1035160E+00
         21   -1    0    0  503  502  0.00000000000E+00  0.00000000000E+00  0.74578367559E+03  0.74578367559E+03  0.00000000000E+00 0. -1.
         21   -1    0    0  501  503 -0.00000000000E+00 -0.00000000000E+00 -0.44688253674E+03  0.44688253674E+03  0.00000000000E+00 0.  1.
    9000007    1    1    2  501    0  0.14597672689E+03  0.94156411142E+01 -0.25311428830E+03  0.49544394439E+03  0.40000000000E+03 0.  1.
   -9000007    1    1    2    0  502 -0.14597672689E+03 -0.94156411142E+01  0.55201542715E+03  0.69722226793E+03  0.40000000000E+03 0. -1.
<mgrwt>
<rscale>  2 0.42590828E+03</rscale>
<asrwt>0</asrwt>
<pdfrwt beam="1">  1       21 0.11473595E+00 0.42590828E+03</pdfrwt>
<pdfrwt beam="2">  1       21 0.68751160E-01 0.42590828E+03</pdfrwt>
<totfact> 0.97440394E+02</totfact>
</mgrwt>
</event>
<event>
 4    1  0.4656822E-002  0.5741760E+03  0.7818608E-02  0.9960480E-01
         21   -1    0    0  503  502  0.00000000000E+00  0.00000000000E+00  0.28616232087E+03  0.28616232087E+03  0.00000000000E+00 0. -1.
         21   -1    0    0  501  503 -0.00000000000E+00 -0.00000000000E+00 -0.11680680472E+04  0.11680680472E+04  0.00000000000E+00 0. -1.
    9000007    1    1    2  501    0 -0.37541242897E+03  0.16953930842E+03 -0.52605647141E+03  0.77872554860E+03  0.40000000000E+03 0. -1.
   -9000007    1    1    2    0  502  0.37541242897E+03 -0.16953930842E+03 -0.35584925496E+03  0.67550481951E+03  0.40000000000E+03 0. -1.
<mgrwt>
<rscale>  2 0.57417599E+03</rscale>
<asrwt>0</asrwt>
<pdfrwt beam="1">  1       21 0.44024972E-01 0.57417599E+03</pdfrwt>
<pdfrwt beam="2">  1       21 0.17970278E+00 0.57417599E+03</pdfrwt>
<totfact> 0.71922697E+02</totfact>
</mgrwt>
</event>
<event>
 4    1  0.4656822E-002  0.4231902E+03  0.7818608E-02  0.1036033E+00
         21   -1    0    0  501  502  0.00000000000E+00  0.00000000000E+00  0.14399188907E+04  0.14399188907E+04  0.00000000000E+00 0. -1.
         21   -1    0    0  502  503 -0.00000000000E+00 -0.00000000000E+00 -0.27698603988E+03  0.27698603988E+03  0.00000000000E+00 0. -1.
    9000007    1    1    2  501    0 -0.62098955267E+02 -0.12342471647E+03  0.12186730158E+04  0.12900596344E+04  0.40000000000E+03 0. -1.
   -9000007    1    1    2    0  503  0.62098955267E+02  0.12342471647E+03 -0.55740164981E+02  0.42684529618E+03  0.40000000000E+03 0. -1.
<mgrwt>
<rscale>  2 0.42319019E+03</rscale>
<asrwt>0</asrwt>
<pdfrwt beam="1">  1       21 0.22152598E+00 0.42319019E+03</pdfrwt>
<pdfrwt beam="2">  1       21 0.42613238E-01 0.42319019E+03</pdfrwt>
<totfact> 0.43146429E+02</totfact>
</mgrwt>
</event>
<event>
 4    1  0.4656822E-002  0.5554521E+03  0.7818608E-02  0.1000240E+00
         21   -1    0    0  501  502  0.00000000000E+00  0.00000000000E+00  0.69515111567E+03  0.69515111567E+03  0.00000000000E+00 0.  1.
         21   -1    0    0  502  503 -0.00000000000E+00 -0.00000000000E+00 -0.64996491618E+03  0.64996491618E+03  0.00000000000E+00 0. -1.
    9000007    1    1    2  501    0  0.30631857337E+03  0.23387170399E+03  0.40135250084E+03  0.68528160069E+03  0.40000000000E+03 0.  1.
   -9000007    1    1    2    0  503 -0.30631857337E+03 -0.23387170399E+03 -0.35616630135E+03  0.65983443116E+03  0.40000000000E+03 0.  1.
<mgrwt>
<rscale>  2 0.55545211E+03</rscale>
<asrwt>0</asrwt>
<pdfrwt beam="1">  1       21 0.10694633E+00 0.55545211E+03</pdfrwt>
<pdfrwt beam="2">  1       21 0.99994602E-01 0.55545211E+03</pdfrwt>
<totfact> 0.45968159E+02</totfact>
</mgrwt>
</event>
<event>
 4    1  0.4656822E-002  0.5039127E+03  0.7818608E-02  0.1012763E+00
         21   -1    0    0  501  502  0.00000000000E+00  0.00000000000E+00  0.40931019635E+03  0.40931019635E+03  0.00000000000E+00 0. -1.
         21   -1    0    0  502  503 -0.00000000000E+00 -0.00000000000E+00 -0.62823180078E+03  0.62823180078E+03  0.00000000000E+00 0. -1.
    9000007    1    1    2  501    0 -0.48140920872E+02 -0.30267215167E+03 -0.51465574826E+02  0.50653399200E+03  0.40000000000E+03 0.  1.
   -9000007    1    1    2    0  503  0.48140920872E+02  0.30267215167E+03 -0.16745602961E+03  0.53100800513E+03  0.40000000000E+03 0.  1.
<mgrwt>
<rscale>  2 0.50391267E+03</rscale>
<asrwt>0</asrwt>
<pdfrwt beam="1">  1       21 0.62970800E-01 0.50391267E+03</pdfrwt>
<pdfrwt beam="2">  1       21 0.96651046E-01 0.50391267E+03</pdfrwt>
<totfact> 0.17534389E+03</totfact>
</mgrwt>
</event>
<event>
 4    1  0.4656822E-002  0.4527785E+03  0.7818608E-02  0.1026897E+00
         21   -1    0    0  501  502  0.00000000000E+00  0.00000000000E+00  0.86905873139E+03  0.86905873139E+03  0.00000000000E+00 0. -1.
         21   -1    0    0  502  503 -0.00000000000E+00 -0.00000000000E+00 -0.27866893758E+03  0.27866893758E+03  0.00000000000E+00 0. -1.
    9000007    1    1    2  501    0  0.15221550439E+03 -0.14777948892E+03  0.52001963602E+03  0.68951342189E+03  0.40000000000E+03 0.  1.
   -9000007    1    1    2    0  503 -0.15221550439E+03  0.14777948892E+03  0.70370157793E+02  0.45821424708E+03  0.40000000000E+03 0.  1.
<mgrwt>
<rscale>  2 0.45277846E+03</rscale>
<asrwt>0</asrwt>
<pdfrwt beam="1">  1       21 0.13370134E+00 0.45277846E+03</pdfrwt>
<pdfrwt beam="2">  1       21 0.42872145E-01 0.45277846E+03</pdfrwt>
<totfact> 0.18035825E+03</totfact>
</mgrwt>
</event>
<event>
 4    1  0.4656822E-002  0.5167041E+03  0.7818608E-02  0.1009509E+00
         21   -1    0    0  503  502  0.00000000000E+00  0.00000000000E+00  0.32125776306E+03  0.32125776306E+03  0.00000000000E+00 0.  1.
         21   -1    0    0  501  503 -0.00000000000E+00 -0.00000000000E+00 -0.84391893294E+03  0.84391893294E+03  0.00000000000E+00 0. -1.
    9000007    1    1    2  501    0  0.16067062677E+02  0.32668786973E+03 -0.33325651192E+03  0.61485202892E+03  0.40000000000E+03 0. -1.
   -9000007    1    1    2    0  502 -0.16067062677E+02 -0.32668786973E+03 -0.18940465796E+03  0.55032466708E+03  0.40000000000E+03 0. -1.
<mgrwt>
<rscale>  2 0.51670409E+03</rscale>
<asrwt>0</asrwt>
<pdfrwt beam="1">  1       21 0.49424271E-01 0.51670409E+03</pdfrwt>
<pdfrwt beam="2">  1       21 0.12983368E+00 0.51670409E+03</pdfrwt>
<totfact> 0.14096792E+03</totfact>
</mgrwt>
</event>
<event>
 4    1  0.4656822E-002  0.4087508E+03  0.7818608E-02  0.1040791E+00
         21   -1    0    0  503  502  0.00000000000E+00  0.00000000000E+00  0.82650749426E+03  0.82650749426E+03  0.00000000000E+00 0.  1.
         21   -1    0    0  501  503 -0.00000000000E+00 -0.00000000000E+00 -0.26132469552E+03  0.26132469552E+03  0.00000000000E+00 0.  1.
    9000007    1    1    2  501    0 -0.84072022088E+02  0.30144014894E+01  0.23760891512E+02  0.40944080339E+03  0.40000000000E+03 0.  1.
   -9000007    1    1    2    0  502  0.84072022088E+02 -0.30144014894E+01  0.54142190722E+03  0.67839138640E+03  0.40000000000E+03 0.  1.
<mgrwt>
<rscale>  2 0.40875077E+03</rscale>
<asrwt>0</asrwt>
<pdfrwt beam="1">  1       21 0.12715500E+00 0.40875077E+03</pdfrwt>
<pdfrwt beam="2">  1       21 0.40203800E-01 0.40875077E+03</pdfrwt>
<totfact> 0.23883914E+03</totfact>
</mgrwt>
</event>
<event>
 4    1  0.4656822E-002  0.4043633E+03  0.7818608E-02  0.1042279E+00
         21   -1    0    0  501  502  0.00000000000E+00  0.00000000000E+00  0.10290113366E+03  0.10290113366E+03  0.00000000000E+00 0. -1.
         21   -1    0    0  502  503 -0.00000000000E+00 -0.00000000000E+00 -0.24732900443E+04  0.24732900443E+04  0.00000000000E+00 0. -1.
    9000007    1    1    2  501    0 -0.26831029349E+02 -0.52818173896E+02 -0.41498560716E+03  0.57941584185E+03  0.40000000000E+03 0. -1.
   -9000007    1    1    2    0  503  0.26831029349E+02  0.52818173896E+02 -0.19554033035E+04  0.19967753361E+04  0.40000000000E+03 0. -1.
<mgrwt>
<rscale>  2 0.40436328E+03</rscale>
<asrwt>0</asrwt>
<pdfrwt beam="1">  1       21 0.15830944E-01 0.40436328E+03</pdfrwt>
<pdfrwt beam="2">  1       21 0.38050616E+00 0.40436328E+03</pdfrwt>
<totfact> 0.32518143E+02</totfact>
</mgrwt>
</event>
<event>
 4    1  0.4656822E-002  0.5323795E+03  0.7818608E-02  0.1005657E+00
         21   -1    0    0  501  502  0.00000000000E+00  0.00000000000E+00  0.23362341952E+03  0.23362341952E+03  0.00000000000E+00 0. -1.
         21   -1    0    0  502  503 -0.00000000000E+00 -0.00000000000E+00 -0.12321380876E+04  0.12321380876E+04  0.00000000000E+00 0. -1.
    9000007    1    1    2  501    0  0.21172590041E+03  0.28035706496E+03 -0.40835657433E+03  0.67095680381E+03  0.40000000000E+03 0. -1.
   -9000007    1    1    2    0  503 -0.21172590041E+03 -0.28035706496E+03 -0.59015809374E+03  0.79480470330E+03  0.40000000000E+03 0. -1.
<mgrwt>
<rscale>  2 0.53237951E+03</rscale>
<asrwt>0</asrwt>
<pdfrwt beam="1">  1       21 0.35942064E-01 0.53237951E+03</pdfrwt>
<pdfrwt beam="2">  1       21 0.18955971E+00 0.53237951E+03</pdfrwt>
<totfact> 0.94765584E+02</totfact>
</mgrwt>
</event>
<event>
 4    1  0.4656822E-002  0.5074721E+03  0.7818608E-02  0.1011847E+00
         21   -1    0    0  501  502  0.00000000000E+00  0.00000000000E+00  0.63697255747E+03  0.63697255747E+03  0.00000000000E+00 0. -1.
         21   -1    0    0  502  503 -0.00000000000E+00 -0.00000000000E+00 -0.47538338729E+03  0.47538338729E+03  0.00000000000E+00 0.  1.
    9000007    1    1    2  501    0 -0.30928752979E+03  0.43233668807E+02  0.29586279450E+03  0.58742039407E+03  0.40000000000E+03 0. -1.
   -9000007    1    1    2    0  503  0.30928752979E+03 -0.43233668807E+02 -0.13427362431E+03  0.52493555070E+03  0.40000000000E+03 0.  1.
<mgrwt>
<rscale>  2 0.50747209E+03</rscale>
<asrwt>0</asrwt>
<pdfrwt beam="1">  1       21 0.97995778E-01 0.50747209E+03</pdfrwt>
<pdfrwt beam="2">  1       21 0.73135906E-01 0.50747209E+03</pdfrwt>
<totfact> 0.12103460E+03</totfact>
</mgrwt>
</event>
<event>
 4    1  0.4656822E-002  0.5200473E+03  0.7818608E-02  0.1008675E+00
         21   -1    0    0  501  502  0.00000000000E+00  0.00000000000E+00  0.35745768442E+03  0.35745768442E+03  0.00000000000E+00 0. -1.
         21   -1    0    0  502  503 -0.00000000000E+00 -0.00000000000E+00 -0.82932586727E+03  0.82932586727E+03  0.00000000000E+00 0.  1.
    9000007    1    1    2  501    0 -0.86828746912E+02 -0.32079577967E+03 -0.60201988632E+02  0.52352024123E+03  0.40000000000E+03 0.  1.
   -9000007    1    1    2    0  503  0.86828746912E+02  0.32079577967E+03 -0.41166619421E+03  0.66326331046E+03  0.40000000000E+03 0.  1.
<mgrwt>
<rscale>  2 0.52004727E+03</rscale>
<asrwt>0</asrwt>
<pdfrwt beam="1">  1       21 0.54993491E-01 0.52004727E+03</pdfrwt>
<pdfrwt beam="2">  1       21 0.12758859E+00 0.52004727E+03</pdfrwt>
<totfact> 0.11714678E+03</totfact>
</mgrwt>
</event>
<event>
 4    1  0.4656822E-002  0.4353521E+03  0.7818608E-02  0.1032183E+00
         21   -1    0    0  501  502  0.00000000000E+00  0.00000000000E+00  0.10934852223E+04  0.10934852223E+04  0.00000000000E+00 0.  1.
         21   -1    0    0  502  503 -0.00000000000E+00 -0.00000000000E+00 -0.49728526292E+03  0.49728526292E+03  0.00000000000E+00 0.  1.
    9000007    1    1    2  501    0 -0.13980173537E+03 -0.99934506294E+02  0.94007584703E+03  0.10359893962E+04  0.40000000000E+03 0.  1.
   -9000007    1    1    2    0  503  0.13980173537E+03  0.99934506294E+02 -0.34387588761E+03  0.55478108912E+03  0.40000000000E+03 0.  1.
<mgrwt>
<rscale>  2 0.43535208E+03</rscale>
<asrwt>0</asrwt>
<pdfrwt beam="1">  1       21 0.16822850E+00 0.43535208E+03</pdfrwt>
<pdfrwt beam="2">  1       21 0.76505425E-01 0.43535208E+03</pdfrwt>
<totfact> 0.27578574E+02</totfact>
</mgrwt>
</event>
<event>
 4    1  0.4656822E-002  0.6815529E+03  0.7818608E-02  0.9749310E-01
         21   -1    0    0  503  502  0.00000000000E+00  0.00000000000E+00  0.54677645850E+03  0.54677645850E+03  0.00000000000E+00 0.  1.
         21   -1    0    0  501  503 -0.00000000000E+00 -0.00000000000E+00 -0.95458736032E+03  0.95458736032E+03  0.00000000000E+00 0. -1.
    9000007    1    1    2  501    0 -0.29699486518E+01 -0.55182016967E+03 -0.45291647430E+03  0.81832001867E+03  0.40000000000E+03 0.  1.
   -9000007    1    1    2    0  502  0.29699486518E+01  0.55182016967E+03  0.45105572489E+02  0.68304380015E+03  0.40000000000E+03 0.  1.
<mgrwt>
<rscale>  2 0.68155287E+03</rscale>
<asrwt>0</asrwt>
<pdfrwt beam="1">  1       21 0.84119456E-01 0.68155287E+03</pdfrwt>
<pdfrwt beam="2">  1       21 0.14685959E+00 0.68155287E+03</pdfrwt>
<totfact> 0.29267478E+02</totfact>
</mgrwt>
</event>
<event>
 4    1  0.4656822E-002  0.4847588E+03  0.7818608E-02  0.1017835E+00
         21   -1    0    0  503  502  0.00000000000E+00  0.00000000000E+00  0.11134229083E+03  0.11134229083E+03  0.00000000000E+00 0.  1.
         21   -1    0    0  501  503 -0.00000000000E+00 -0.00000000000E+00 -0.23726406551E+04  0.23726406551E+04  0.00000000000E+00 0. -1.
    9000007    1    1    2  501    0  0.13503716445E+03  0.23823524614E+03 -0.15434554508E+04  0.16177904058E+04  0.40000000000E+03 0. -1.
   -9000007    1    1    2    0  502 -0.13503716445E+03 -0.23823524614E+03 -0.71784291347E+03  0.86619254021E+03  0.40000000000E+03 0.  1.
<mgrwt>
<rscale>  2 0.48475877E+03</rscale>
<asrwt>0</asrwt>
<pdfrwt beam="1">  1       21 0.17129583E-01 0.48475877E+03</pdfrwt>
<pdfrwt beam="2">  1       21 0.36502165E+00 0.48475877E+03</pdfrwt>
<totfact> 0.33283902E+02</totfact>
</mgrwt>
</event>
<event>
 4    1  0.4656822E-002  0.6279952E+03  0.7818608E-02  0.9848969E-01
         21   -1    0    0  503  502  0.00000000000E+00  0.00000000000E+00  0.15950658848E+03  0.15950658848E+03  0.00000000000E+00 0.  1.
         21   -1    0    0  501  503 -0.00000000000E+00 -0.00000000000E+00 -0.27898475290E+04  0.27898475290E+04  0.00000000000E+00 0. -1.
    9000007    1    1    2  501    0 -0.13783854534E+03 -0.46408885454E+03 -0.18125447278E+04  0.19182534556E+04  0.40000000000E+03 0. -1.
   -9000007    1    1    2    0  502  0.13783854534E+03  0.46408885454E+03 -0.81779621270E+03  0.10311006619E+04  0.40000000000E+03 0. -1.
<mgrwt>
<rscale>  2 0.62799517E+03</rscale>
<asrwt>0</asrwt>
<pdfrwt beam="1">  1       21 0.24539477E-01 0.62799517E+03</pdfrwt>
<pdfrwt beam="2">  1       21 0.42920728E+00 0.62799517E+03</pdfrwt>
<totfact> 0.59713770E+01</totfact>
</mgrwt>
</event>
<event>
 4    1  0.4656822E-002  0.4361825E+03  0.7818608E-02  0.1031925E+00
         21   -1    0    0  501  502  0.00000000000E+00  0.00000000000E+00  0.53482147179E+03  0.53482147179E+03  0.00000000000E+00 0. -1.
         21   -1    0    0  502  503 -0.00000000000E+00 -0.00000000000E+00 -0.37249600332E+03  0.37249600332E+03  0.00000000000E+00 0. -1.
    9000007    1    1    2  501    0  0.54806316256E+02 -0.16508006634E+03  0.17739211992E+03  0.47087485048E+03  0.40000000000E+03 0. -1.
   -9000007    1    1    2    0  503 -0.54806316256E+02  0.16508006634E+03 -0.15066651455E+02  0.43644262463E+03  0.40000000000E+03 0. -1.
<mgrwt>
<rscale>  2 0.43618249E+03</rscale>
<asrwt>0</asrwt>
<pdfrwt beam="1">  1       21 0.82280226E-01 0.43618249E+03</pdfrwt>
<pdfrwt beam="2">  1       21 0.57307078E-01 0.43618249E+03</pdfrwt>
<totfact> 0.32323301E+03</totfact>
</mgrwt>
</event>
<event>
 4    1  0.4656822E-002  0.4464545E+03  0.7818608E-02  0.1028785E+00
         21   -1    0    0  501  502  0.00000000000E+00  0.00000000000E+00  0.38996897074E+03  0.38996897074E+03  0.00000000000E+00 0. -1.
         21   -1    0    0  502  503 -0.00000000000E+00 -0.00000000000E+00 -0.96363826586E+03  0.96363826586E+03  0.00000000000E+00 0. -1.
    9000007    1    1    2  501    0 -0.19706103630E+03 -0.22104345633E+02  0.17695690253E+03  0.48024514519E+03  0.40000000000E+03 0. -1.
   -9000007    1    1    2    0  503  0.19706103630E+03  0.22104345633E+02 -0.75062619765E+03  0.87336209142E+03  0.40000000000E+03 0. -1.
<mgrwt>
<rscale>  2 0.44645454E+03</rscale>
<asrwt>0</asrwt>
<pdfrwt beam="1">  1       21 0.59995226E-01 0.44645454E+03</pdfrwt>
<pdfrwt beam="2">  1       21 0.14825204E+00 0.44645454E+03</pdfrwt>
<totfact> 0.67068652E+02</totfact>
</mgrwt>
</event>
<event>
 4    1  0.4656822E-002  0.5081696E+03  0.7818608E-02  0.1011668E+00
         21   -1    0    0  503  502  0.00000000000E+00  0.00000000000E+00  0.33297595699E+03  0.33297595699E+03  0.00000000000E+00 0. -1.
         21   -1    0    0  501  503 -0.00000000000E+00 -0.00000000000E+00 -0.78788317547E+03  0.78788317547E+03  0.00000000000E+00 0. -1.
    9000007    1    1    2  501    0 -0.26942384299E+03  0.16014709318E+03 -0.29759865069E+03  0.58889834056E+03  0.40000000000E+03 0. -1.
   -9000007    1    1    2    0  502  0.26942384299E+03 -0.16014709318E+03 -0.15730856779E+03  0.53196079190E+03  0.40000000000E+03 0. -1.
<mgrwt>
<rscale>  2 0.50816956E+03</rscale>
<asrwt>0</asrwt>
<pdfrwt beam="1">  1       21 0.51227071E-01 0.50816956E+03</pdfrwt>
<pdfrwt beam="2">  1       21 0.12121279E+00 0.50816956E+03</pdfrwt>
<totfact> 0.15641218E+03</totfact>
</mgrwt>
</event>
<event>
 4    1  0.4656822E-002  0.4020405E+03  0.7818608E-02  0.1043075E+00
         21   -1    0    0  503  502  0.00000000000E+00  0.00000000000E+00  0.43119697248E+03  0.43119697248E+03  0.00000000000E+00 0. -1.
         21   -1    0    0  501  503 -0.00000000000E+00 -0.00000000000E+00 -0.58504482023E+03  0.58504482023E+03  0.00000000000E+00 0. -1.
    9000007    1    1    2  501    0  0.33071146484E+02 -0.23300045121E+02 -0.38148733119E+03  0.55422845172E+03  0.40000000000E+03 0. -1.
   -9000007    1    1    2    0  502 -0.33071146484E+02  0.23300045121E+02  0.22763948344E+03  0.46201334099E+03  0.40000000000E+03 0. -1.
<mgrwt>
<rscale>  2 0.40204054E+03</rscale>
<asrwt>0</asrwt>
<pdfrwt beam="1">  1       21 0.66337996E-01 0.40204054E+03</pdfrwt>
<pdfrwt beam="2">  1       21 0.90006895E-01 0.40204054E+03</pdfrwt>
<totfact> 0.19244703E+03</totfact>
</mgrwt>
</event>
<event>
 4    1  0.4656822E-002  0.4713522E+03  0.7818608E-02  0.1021539E+00
         21   -1    0    0  503  502  0.00000000000E+00  0.00000000000E+00  0.64011675016E+03  0.64011675016E+03  0.00000000000E+00 0. -1.
         21   -1    0    0  501  503 -0.00000000000E+00 -0.00000000000E+00 -0.52998359922E+03  0.52998359922E+03  0.00000000000E+00 0. -1.
    9000007    1    1    2  501    0 -0.15641831614E+03 -0.19418097848E+03 -0.28862648286E+03  0.55270081295E+03  0.40000000000E+03 0. -1.
   -9000007    1    1    2    0  502  0.15641831614E+03  0.19418097848E+03  0.39875963381E+03  0.61739953643E+03  0.40000000000E+03 0. -1.
<mgrwt>
<rscale>  2 0.47135225E+03</rscale>
<asrwt>0</asrwt>
<pdfrwt beam="1">  1       21 0.98479500E-01 0.47135225E+03</pdfrwt>
<pdfrwt beam="2">  1       21 0.81535939E-01 0.47135225E+03</pdfrwt>
<totfact> 0.94420759E+02</totfact>
</mgrwt>
</event>
<event>
 4    1  0.4656822E-002  0.4701221E+03  0.7818608E-02  0.1021886E+00
         21   -1    0    0  503  502  0.00000000000E+00  0.00000000000E+00  0.27696746302E+04  0.27696746302E+04  0.00000000000E+00 0.  1.
         21   -1    0    0  501  503 -0.00000000000E+00 -0.00000000000E+00 -0.80763730343E+02  0.80763730343E+02  0.00000000000E+00 0. -1.
    9000007    1    1    2  501    0 -0.17058202730E+03 -0.17865219151E+03  0.11886172165E+04  0.12782119234E+04  0.40000000000E+03 0. -1.
   -9000007    1    1    2    0  502  0.17058202730E+03  0.17865219151E+03  0.15002936833E+04  0.15722264372E+04  0.40000000000E+03 0.  1.
<mgrwt>
<rscale>  2 0.47012215E+03</rscale>
<asrwt>0</asrwt>
<pdfrwt beam="1">  1       21 0.42610372E+00 0.47012215E+03</pdfrwt>
<pdfrwt beam="2">  1       21 0.12425191E-01 0.47012215E+03</pdfrwt>
<totfact> 0.24744548E+02</totfact>
</mgrwt>
</event>
