<event>
 4    1  0.4890517E-002  0.4731548E+03  0.7818608E-02  0.1021034E+00
         21   -1    0    0  501  502  0.00000000000E+00  0.00000000000E+00  0.36839186415E+03  0.36839186415E+03  0.00000000000E+00 0. -1.
         21   -1    0    0  502  503 -0.00000000000E+00 -0.00000000000E+00 -0.72059368470E+03  0.72059368470E+03  0.00000000000E+00 0.  1.
    9000007    1    1    2  501    0  0.41941042295E+02 -0.24923155738E+03  0.39406635529E+02  0.47479290554E+03  0.40000000000E+03 0. -1.
   -9000007    1    1    2    0  503 -0.41941042295E+02  0.24923155738E+03 -0.39160845609E+03  0.61419264331E+03  0.40000000000E+03 0.  1.
<mgrwt>
<rscale>  2 0.47315475E+03</rscale>
<asrwt>0</asrwt>
<pdfrwt beam="1">  1       21 0.56675672E-01 0.47315475E+03</pdfrwt>
<pdfrwt beam="2">  1       21 0.11086057E+00 0.47315475E+03</pdfrwt>
<totfact> 0.15948652E+03</totfact>
</mgrwt>
</event>
<event>
 4    1  0.4890517E-002  0.4813576E+03  0.7818608E-02  0.1018763E+00
         21   -1    0    0  501  502  0.00000000000E+00  0.00000000000E+00  0.86099535514E+03  0.86099535514E+03  0.00000000000E+00 0. -1.
         21   -1    0    0  502  503 -0.00000000000E+00 -0.00000000000E+00 -0.31727469798E+03  0.31727469798E+03  0.00000000000E+00 0. -1.
    9000007    1    1    2  501    0  0.76756190074E+02 -0.25654163890E+03  0.50139462664E+03  0.69505517539E+03  0.40000000000E+03 0. -1.
   -9000007    1    1    2    0  503 -0.76756190074E+02  0.25654163890E+03  0.42326030515E+02  0.48321487773E+03  0.40000000000E+03 0. -1.
<mgrwt>
<rscale>  2 0.48135759E+03</rscale>
<asrwt>0</asrwt>
<pdfrwt beam="1">  1       21 0.13246082E+00 0.48135759E+03</pdfrwt>
<pdfrwt beam="2">  1       21 0.48811492E-01 0.48135759E+03</pdfrwt>
<totfact> 0.13915455E+03</totfact>
</mgrwt>
</event>
<event>
 4    1  0.4890517E-002  0.4513656E+03  0.7818608E-02  0.1027316E+00
         21   -1    0    0  503  502  0.00000000000E+00  0.00000000000E+00  0.13323848023E+04  0.13323848023E+04  0.00000000000E+00 0.  1.
         21   -1    0    0  501  503 -0.00000000000E+00 -0.00000000000E+00 -0.24971331598E+03  0.24971331598E+03  0.00000000000E+00 0.  1.
    9000007    1    1    2  501    0  0.19288507872E+03 -0.80785443721E+02  0.48803745330E+02  0.45399641746E+03  0.40000000000E+03 0.  1.
   -9000007    1    1    2    0  502 -0.19288507872E+03  0.80785443721E+02  0.10338677410E+04  0.11281017008E+04  0.40000000000E+03 0.  1.
<mgrwt>
<rscale>  2 0.45136564E+03</rscale>
<asrwt>0</asrwt>
<pdfrwt beam="1">  1       21 0.20498227E+00 0.45136564E+03</pdfrwt>
<pdfrwt beam="2">  1       21 0.38417434E-01 0.45136564E+03</pdfrwt>
<totfact> 0.67389564E+02</totfact>
</mgrwt>
</event>
<event>
 4    1  0.4890517E-002  0.5478653E+03  0.7818608E-02  0.1001989E+00
         21   -1    0    0  503  502  0.00000000000E+00  0.00000000000E+00  0.23837720878E+03  0.23837720878E+03  0.00000000000E+00 0.  1.
         21   -1    0    0  501  503 -0.00000000000E+00 -0.00000000000E+00 -0.14485635486E+04  0.14485635486E+04  0.00000000000E+00 0. -1.
    9000007    1    1    2  501    0  0.16677967204E+03  0.33517301912E+03 -0.91008523968E+03  0.10622671770E+04  0.40000000000E+03 0. -1.
   -9000007    1    1    2    0  502 -0.16677967204E+03 -0.33517301912E+03 -0.30010110009E+03  0.62467358038E+03  0.40000000000E+03 0.  1.
<mgrwt>
<rscale>  2 0.54786532E+03</rscale>
<asrwt>0</asrwt>
<pdfrwt beam="1">  1       21 0.36673418E-01 0.54786532E+03</pdfrwt>
<pdfrwt beam="2">  1       21 0.22285592E+00 0.54786532E+03</pdfrwt>
<totfact> 0.54350792E+02</totfact>
</mgrwt>
</event>
<event>
 4    1  0.4890517E-002  0.6640174E+03  0.7818608E-02  0.9780826E-01
         21   -1    0    0  503  502  0.00000000000E+00  0.00000000000E+00  0.67118235760E+03  0.67118235760E+03  0.00000000000E+00 0.  1.
         21   -1    0    0  501  503 -0.00000000000E+00 -0.00000000000E+00 -0.65793356377E+03  0.65793356377E+03  0.00000000000E+00 0. -1.
    9000007    1    1    2  501    0 -0.52834948498E+03  0.42022870826E+02  0.32592984473E+02  0.66481681882E+03  0.40000000000E+03 0. -1.
   -9000007    1    1    2    0  502  0.52834948498E+03 -0.42022870826E+02 -0.19344190639E+02  0.66429910256E+03  0.40000000000E+03 0.  1.
<mgrwt>
<rscale>  2 0.66401739E+03</rscale>
<asrwt>0</asrwt>
<pdfrwt beam="1">  1       21 0.10325882E+00 0.66401739E+03</pdfrwt>
<pdfrwt beam="2">  1       21 0.10122055E+00 0.66401739E+03</pdfrwt>
<totfact> 0.46966039E+02</totfact>
</mgrwt>
</event>
<event>
 4    1  0.4890517E-002  0.4012813E+03  0.7818608E-02  0.1043337E+00
         21   -1    0    0  501  502  0.00000000000E+00  0.00000000000E+00  0.18829718335E+03  0.18829718335E+03  0.00000000000E+00 0. -1.
         21   -1    0    0  502  503 -0.00000000000E+00 -0.00000000000E+00 -0.12794801794E+04  0.12794801794E+04  0.00000000000E+00 0. -1.
    9000007    1    1    2  501    0  0.24805943521E+02 -0.20281221104E+02 -0.12296802901E+03  0.41969965323E+03  0.40000000000E+03 0. -1.
   -9000007    1    1    2    0  503 -0.24805943521E+02  0.20281221104E+02 -0.96821496702E+03  0.10480777095E+04  0.40000000000E+03 0. -1.
<mgrwt>
<rscale>  2 0.40128128E+03</rscale>
<asrwt>0</asrwt>
<pdfrwt beam="1">  1       21 0.28968798E-01 0.40128128E+03</pdfrwt>
<pdfrwt beam="2">  1       21 0.19684310E+00 0.40128128E+03</pdfrwt>
<totfact> 0.13794191E+03</totfact>
</mgrwt>
</event>
<event>
 4    1  0.4890517E-002  0.4364401E+03  0.7818608E-02  0.1031845E+00
         21   -1    0    0  503  502  0.00000000000E+00  0.00000000000E+00  0.11982119465E+04  0.11982119465E+04  0.00000000000E+00 0. -1.
         21   -1    0    0  501  503 -0.00000000000E+00 -0.00000000000E+00 -0.22187993455E+03  0.22187993455E+03  0.00000000000E+00 0.  1.
    9000007    1    1    2  501    0  0.94590768963E+02 -0.14673977577E+03  0.11008364983E+03  0.45010930376E+03  0.40000000000E+03 0.  1.
   -9000007    1    1    2    0  502 -0.94590768963E+02  0.14673977577E+03  0.86624836207E+03  0.96998257725E+03  0.40000000000E+03 0. -1.
<mgrwt>
<rscale>  2 0.43644012E+03</rscale>
<asrwt>0</asrwt>
<pdfrwt beam="1">  1       21 0.18434030E+00 0.43644012E+03</pdfrwt>
<pdfrwt beam="2">  1       21 0.34135375E-01 0.43644012E+03</pdfrwt>
<totfact> 0.11896882E+03</totfact>
</mgrwt>
</event>
<event>
 4    1  0.4890517E-002  0.5520669E+03  0.7818608E-02  0.1001017E+00
         21   -1    0    0  503  502  0.00000000000E+00  0.00000000000E+00  0.64906982190E+03  0.64906982190E+03  0.00000000000E+00 0.  1.
         21   -1    0    0  501  503 -0.00000000000E+00 -0.00000000000E+00 -0.47179201633E+03  0.47179201633E+03  0.00000000000E+00 0. -1.
    9000007    1    1    2  501    0 -0.37457952140E+03 -0.66843411996E+02  0.12717790151E+03  0.56652632614E+03  0.40000000000E+03 0.  1.
   -9000007    1    1    2    0  502  0.37457952140E+03  0.66843411996E+02  0.50099904059E+02  0.55433551209E+03  0.40000000000E+03 0. -1.
<mgrwt>
<rscale>  2 0.55206690E+03</rscale>
<asrwt>0</asrwt>
<pdfrwt beam="1">  1       21 0.99856895E-01 0.55206690E+03</pdfrwt>
<pdfrwt beam="2">  1       21 0.72583387E-01 0.55206690E+03</pdfrwt>
<totfact> 0.11588571E+03</totfact>
</mgrwt>
</event>
<event>
 4    1  0.4890517E-002  0.4027062E+03  0.7818608E-02  0.1042847E+00
         21   -1    0    0  503  502  0.00000000000E+00  0.00000000000E+00  0.36345462907E+03  0.36345462907E+03  0.00000000000E+00 0.  1.
         21   -1    0    0  501  503 -0.00000000000E+00 -0.00000000000E+00 -0.48885835561E+03  0.48885835561E+03  0.00000000000E+00 0.  1.
    9000007    1    1    2  501    0  0.27585556959E+02 -0.37567263520E+02 -0.18859334769E+03  0.44467933731E+03  0.40000000000E+03 0.  1.
   -9000007    1    1    2    0  502 -0.27585556959E+02  0.37567263520E+02  0.63189621144E+02  0.40763364736E+03  0.40000000000E+03 0.  1.
<mgrwt>
<rscale>  2 0.40270617E+03</rscale>
<asrwt>0</asrwt>
<pdfrwt beam="1">  1       21 0.55916097E-01 0.40270617E+03</pdfrwt>
<pdfrwt beam="2">  1       21 0.75208977E-01 0.40270617E+03</pdfrwt>
<totfact> 0.42432635E+03</totfact>
</mgrwt>
</event>
<event>
 4    1  0.4890517E-002  0.6860941E+03  0.7818608E-02  0.9741313E-01
         21   -1    0    0  503  502  0.00000000000E+00  0.00000000000E+00  0.49916668283E+03  0.49916668283E+03  0.00000000000E+00 0. -1.
         21   -1    0    0  501  503 -0.00000000000E+00 -0.00000000000E+00 -0.12793874431E+04  0.12793874431E+04  0.00000000000E+00 0. -1.
    9000007    1    1    2  501    0  0.16418634377E+03 -0.53269879464E+03  0.65865360651E+02  0.68924843636E+03  0.40000000000E+03 0. -1.
   -9000007    1    1    2    0  502 -0.16418634377E+03  0.53269879464E+03 -0.84608612093E+03  0.10893056896E+04  0.40000000000E+03 0. -1.
<mgrwt>
<rscale>  2 0.68609413E+03</rscale>
<asrwt>0</asrwt>
<pdfrwt beam="1">  1       21 0.76794875E-01 0.68609413E+03</pdfrwt>
<pdfrwt beam="2">  1       21 0.19682883E+00 0.68609413E+03</pdfrwt>
<totfact> 0.15459123E+02</totfact>
</mgrwt>
</event>
<event>
 4    1  0.4890517E-002  0.4661501E+03  0.7818608E-02  0.1023012E+00
         21   -1    0    0  501  502  0.00000000000E+00  0.00000000000E+00  0.10098006708E+04  0.10098006708E+04  0.00000000000E+00 0. -1.
         21   -1    0    0  502  503 -0.00000000000E+00 -0.00000000000E+00 -0.43285824954E+03  0.43285824954E+03  0.00000000000E+00 0. -1.
    9000007    1    1    2  501    0  0.20186850859E+03 -0.12862750444E+03  0.79998977757E+03  0.92589393230E+03  0.40000000000E+03 0. -1.
   -9000007    1    1    2    0  503 -0.20186850859E+03  0.12862750444E+03 -0.22304735634E+03  0.51676498801E+03  0.40000000000E+03 0. -1.
<mgrwt>
<rscale>  2 0.46615011E+03</rscale>
<asrwt>0</asrwt>
<pdfrwt beam="1">  1       21 0.15535395E+00 0.46615011E+03</pdfrwt>
<pdfrwt beam="2">  1       21 0.66593577E-01 0.46615011E+03</pdfrwt>
<totfact> 0.46449822E+02</totfact>
</mgrwt>
</event>
<event>
 4    1  0.4890517E-002  0.4105148E+03  0.7818608E-02  0.1040198E+00
         21   -1    0    0  503  502  0.00000000000E+00  0.00000000000E+00  0.83977676760E+03  0.83977676760E+03  0.00000000000E+00 0. -1.
         21   -1    0    0  501  503 -0.00000000000E+00 -0.00000000000E+00 -0.28007809606E+03  0.28007809606E+03  0.00000000000E+00 0. -1.
    9000007    1    1    2  501    0  0.38536057863E+02 -0.83888985570E+02 -0.18283823359E+02  0.41092175393E+03  0.40000000000E+03 0. -1.
   -9000007    1    1    2    0  502 -0.38536057863E+02  0.83888985570E+02  0.57798249490E+03  0.70893310973E+03  0.40000000000E+03 0. -1.
<mgrwt>
<rscale>  2 0.41051479E+03</rscale>
<asrwt>0</asrwt>
<pdfrwt beam="1">  1       21 0.12919642E+00 0.41051479E+03</pdfrwt>
<pdfrwt beam="2">  1       21 0.43088938E-01 0.41051479E+03</pdfrwt>
<totfact> 0.19847332E+03</totfact>
</mgrwt>
</event>
<event>
 4    1  0.4890517E-002  0.5891577E+03  0.7818608E-02  0.9928159E-01
         21   -1    0    0  501  502  0.00000000000E+00  0.00000000000E+00  0.20981011393E+03  0.20981011393E+03  0.00000000000E+00 0.  1.
         21   -1    0    0  502  503 -0.00000000000E+00 -0.00000000000E+00 -0.17851154799E+04  0.17851154799E+04  0.00000000000E+00 0. -1.
    9000007    1    1    2  501    0 -0.13936589040E+03  0.40949225975E+03 -0.51772245228E+03  0.78431071636E+03  0.40000000000E+03 0.  1.
   -9000007    1    1    2    0  503  0.13936589040E+03 -0.40949225975E+03 -0.10575829137E+04  0.12106148775E+04  0.40000000000E+03 0. -1.
<mgrwt>
<rscale>  2 0.58915767E+03</rscale>
<asrwt>0</asrwt>
<pdfrwt beam="1">  1       21 0.32278480E-01 0.58915767E+03</pdfrwt>
<pdfrwt beam="2">  1       21 0.27463314E+00 0.58915767E+03</pdfrwt>
<totfact> 0.32924583E+02</totfact>
</mgrwt>
</event>
<event>
 4    1  0.4890517E-002  0.4136867E+03  0.7818608E-02  0.1039141E+00
         21   -1    0    0  501  502  0.00000000000E+00  0.00000000000E+00  0.28090323709E+03  0.28090323709E+03  0.00000000000E+00 0.  1.
         21   -1    0    0  502  503 -0.00000000000E+00 -0.00000000000E+00 -0.21747983359E+04  0.21747983359E+04  0.00000000000E+00 0.  1.
    9000007    1    1    2  501    0 -0.91131498523E+02 -0.53214008466E+02  0.94820714081E+02  0.42441447730E+03  0.40000000000E+03 0.  1.
   -9000007    1    1    2    0  503  0.91131498523E+02  0.53214008466E+02 -0.19887158129E+04  0.20312870957E+04  0.40000000000E+03 0.  1.
<mgrwt>
<rscale>  2 0.41368669E+03</rscale>
<asrwt>0</asrwt>
<pdfrwt beam="1">  1       21 0.43215882E-01 0.41368669E+03</pdfrwt>
<pdfrwt beam="2">  1       21 0.33458436E+00 0.41368669E+03</pdfrwt>
<totfact> 0.86684305E+01</totfact>
</mgrwt>
</event>
<event>
 4    1  0.4890517E-002  0.4685251E+03  0.7818608E-02  0.1022337E+00
         21   -1    0    0  503  502  0.00000000000E+00  0.00000000000E+00  0.17589827978E+03  0.17589827978E+03  0.00000000000E+00 0.  1.
         21   -1    0    0  501  503 -0.00000000000E+00 -0.00000000000E+00 -0.13152503876E+04  0.13152503876E+04  0.00000000000E+00 0.  1.
    9000007    1    1    2  501    0 -0.22207275821E+03 -0.10099252441E+03 -0.40104772465E+03  0.61672933883E+03  0.40000000000E+03 0.  1.
   -9000007    1    1    2    0  502  0.22207275821E+03  0.10099252441E+03 -0.73830438315E+03  0.87441932853E+03  0.40000000000E+03 0.  1.
<mgrwt>
<rscale>  2 0.46852513E+03</rscale>
<asrwt>0</asrwt>
<pdfrwt beam="1">  1       21 0.27061273E-01 0.46852513E+03</pdfrwt>
<pdfrwt beam="2">  1       21 0.20234622E+00 0.46852513E+03</pdfrwt>
<totfact> 0.14054551E+03</totfact>
</mgrwt>
</event>
<event>
 4    1  0.4890517E-002  0.6477169E+03  0.7818608E-02  0.9811073E-01
         21   -1    0    0  503  502  0.00000000000E+00  0.00000000000E+00  0.29957621051E+03  0.29957621051E+03  0.00000000000E+00 0. -1.
         21   -1    0    0  501  503 -0.00000000000E+00 -0.00000000000E+00 -0.17352490707E+04  0.17352490707E+04  0.00000000000E+00 0. -1.
    9000007    1    1    2  501    0  0.45502007718E+03  0.22911547407E+03 -0.27092884941E+03  0.70209658349E+03  0.40000000000E+03 0. -1.
   -9000007    1    1    2    0  502 -0.45502007718E+03 -0.22911547407E+03 -0.11647440108E+04  0.13327286977E+04  0.40000000000E+03 0. -1.
<mgrwt>
<rscale>  2 0.64771689E+03</rscale>
<asrwt>0</asrwt>
<pdfrwt beam="1">  1       21 0.46088647E-01 0.64771689E+03</pdfrwt>
<pdfrwt beam="2">  1       21 0.26696140E+00 0.64771689E+03</pdfrwt>
<totfact> 0.17179164E+02</totfact>
</mgrwt>
</event>
<event>
 4    1  0.4890517E-002  0.6895065E+03  0.7818608E-02  0.9735348E-01
         21   -1    0    0  501  502  0.00000000000E+00  0.00000000000E+00  0.10776799893E+04  0.10776799893E+04  0.00000000000E+00 0.  1.
         21   -1    0    0  502  503 -0.00000000000E+00 -0.00000000000E+00 -0.45373136087E+03  0.45373136087E+03  0.00000000000E+00 0.  1.
    9000007    1    1    2  501    0 -0.35992338323E+03 -0.43113142805E+03  0.43947611023E+03  0.81765420656E+03  0.40000000000E+03 0.  1.
   -9000007    1    1    2    0  503  0.35992338323E+03  0.43113142805E+03  0.18447251818E+03  0.71375714358E+03  0.40000000000E+03 0.  1.
<mgrwt>
<rscale>  2 0.68950645E+03</rscale>
<asrwt>0</asrwt>
<pdfrwt beam="1">  1       21 0.16579692E+00 0.68950645E+03</pdfrwt>
<pdfrwt beam="2">  1       21 0.69804825E-01 0.68950645E+03</pdfrwt>
<totfact> 0.32016965E+02</totfact>
</mgrwt>
</event>
<event>
 4    1  0.4890517E-002  0.4071440E+03  0.7818608E-02  0.1041334E+00
         21   -1    0    0  501  502  0.00000000000E+00  0.00000000000E+00  0.16214963119E+03  0.16214963119E+03  0.00000000000E+00 0. -1.
         21   -1    0    0  502  503 -0.00000000000E+00 -0.00000000000E+00 -0.10329030136E+04  0.10329030136E+04  0.00000000000E+00 0. -1.
    9000007    1    1    2  501    0 -0.74824876326E+02  0.12939922695E+02 -0.37484795344E+03  0.55342315809E+03  0.40000000000E+03 0.  1.
   -9000007    1    1    2    0  503  0.74824876326E+02 -0.12939922695E+02 -0.49590542899E+03  0.64162948671E+03  0.40000000000E+03 0.  1.
<mgrwt>
<rscale>  2 0.40714396E+03</rscale>
<asrwt>0</asrwt>
<pdfrwt beam="1">  1       21 0.24946098E-01 0.40714396E+03</pdfrwt>
<pdfrwt beam="2">  1       21 0.15890815E+00 0.40714396E+03</pdfrwt>
<totfact> 0.34226973E+03</totfact>
</mgrwt>
</event>
<event>
 4    1  0.4890517E-002  0.6517775E+03  0.7818608E-02  0.9803449E-01
         21   -1    0    0  503  502  0.00000000000E+00  0.00000000000E+00  0.15472412232E+04  0.15472412232E+04  0.00000000000E+00 0. -1.
         21   -1    0    0  501  503 -0.00000000000E+00 -0.00000000000E+00 -0.30337802231E+03  0.30337802231E+03  0.00000000000E+00 0.  1.
    9000007    1    1    2  501    0  0.42397849597E+03 -0.29164395990E+03  0.90710596310E+03  0.11169848668E+04  0.40000000000E+03 0. -1.
   -9000007    1    1    2    0  502 -0.42397849597E+03  0.29164395990E+03  0.33675723776E+03  0.73363437867E+03  0.40000000000E+03 0.  1.
<mgrwt>
<rscale>  2 0.65177754E+03</rscale>
<asrwt>0</asrwt>
<pdfrwt beam="1">  1       21 0.23803711E+00 0.65177754E+03</pdfrwt>
<pdfrwt beam="2">  1       21 0.46673543E-01 0.65177754E+03</pdfrwt>
<totfact> 0.25293991E+02</totfact>
</mgrwt>
</event>
<event>
 4    1  0.4890517E-002  0.4947890E+03  0.7818608E-02  0.1015148E+00
         21   -1    0    0  503  502  0.00000000000E+00  0.00000000000E+00  0.69647047754E+03  0.69647047754E+03  0.00000000000E+00 0.  1.
         21   -1    0    0  501  503 -0.00000000000E+00 -0.00000000000E+00 -0.35176652108E+03  0.35176652108E+03  0.00000000000E+00 0. -1.
    9000007    1    1    2  501    0  0.68424485745E+02 -0.28307986356E+03  0.15818984216E+03  0.51946139950E+03  0.40000000000E+03 0. -1.
   -9000007    1    1    2    0  502 -0.68424485745E+02  0.28307986356E+03  0.18651411430E+03  0.52877559913E+03  0.40000000000E+03 0. -1.
<mgrwt>
<rscale>  2 0.49478896E+03</rscale>
<asrwt>0</asrwt>
<pdfrwt beam="1">  1       21 0.10714930E+00 0.49478896E+03</pdfrwt>
<pdfrwt beam="2">  1       21 0.54117927E-01 0.49478896E+03</pdfrwt>
<totfact> 0.19030510E+03</totfact>
</mgrwt>
</event>
<event>
 4    1  0.4890517E-002  0.5058857E+03  0.7818608E-02  0.1012254E+00
         21   -1    0    0  501  502  0.00000000000E+00  0.00000000000E+00  0.26498538237E+03  0.26498538237E+03  0.00000000000E+00 0.  1.
         21   -1    0    0  502  503 -0.00000000000E+00 -0.00000000000E+00 -0.10381406216E+04  0.10381406216E+04  0.00000000000E+00 0. -1.
    9000007    1    1    2  501    0 -0.23544291720E+03  0.20121369329E+03 -0.21456968084E+03  0.54950929524E+03  0.40000000000E+03 0.  1.
   -9000007    1    1    2    0  503  0.23544291720E+03 -0.20121369329E+03 -0.55858555841E+03  0.75361670874E+03  0.40000000000E+03 0.  1.
<mgrwt>
<rscale>  2 0.50588568E+03</rscale>
<asrwt>0</asrwt>
<pdfrwt beam="1">  1       21 0.40766982E-01 0.50588568E+03</pdfrwt>
<pdfrwt beam="2">  1       21 0.15971394E+00 0.50588568E+03</pdfrwt>
<totfact> 0.12136091E+03</totfact>
</mgrwt>
</event>
<event>
 4    1  0.4890517E-002  0.4303130E+03  0.7818608E-02  0.1033761E+00
         21   -1    0    0  501  502  0.00000000000E+00  0.00000000000E+00  0.10246338779E+03  0.10246338779E+03  0.00000000000E+00 0. -1.
         21   -1    0    0  502  503 -0.00000000000E+00 -0.00000000000E+00 -0.21917718379E+04  0.21917718379E+04  0.00000000000E+00 0.  1.
    9000007    1    1    2  501    0  0.14745917519E+03 -0.58524055335E+02 -0.56413238854E+03  0.70951717753E+03  0.40000000000E+03 0. -1.
   -9000007    1    1    2    0  503 -0.14745917519E+03  0.58524055335E+02 -0.15251760616E+04  0.15847180482E+04  0.40000000000E+03 0.  1.
<mgrwt>
<rscale>  2 0.43031299E+03</rscale>
<asrwt>0</asrwt>
<pdfrwt beam="1">  1       21 0.15763598E-01 0.43031299E+03</pdfrwt>
<pdfrwt beam="2">  1       21 0.33719567E+00 0.43031299E+03</pdfrwt>
<totfact> 0.59573539E+02</totfact>
</mgrwt>
</event>
<event>
 4    1  0.4890517E-002  0.4172169E+03  0.7818608E-02  0.1037976E+00
         21   -1    0    0  503  502  0.00000000000E+00  0.00000000000E+00  0.27701482772E+03  0.27701482772E+03  0.00000000000E+00 0.  1.
         21   -1    0    0  501  503 -0.00000000000E+00 -0.00000000000E+00 -0.74168539967E+03  0.74168539967E+03  0.00000000000E+00 0.  1.
    9000007    1    1    2  501    0 -0.76404190168E+02  0.90732062717E+02 -0.43141934234E+03  0.60016044224E+03  0.40000000000E+03 0.  1.
   -9000007    1    1    2    0  502  0.76404190168E+02 -0.90732062717E+02 -0.33251229609E+02  0.41853978515E+03  0.40000000000E+03 0.  1.
<mgrwt>
<rscale>  2 0.41721686E+03</rscale>
<asrwt>0</asrwt>
<pdfrwt beam="1">  1       21 0.42617666E-01 0.41721686E+03</pdfrwt>
<pdfrwt beam="2">  1       21 0.11410545E+00 0.41721686E+03</pdfrwt>
<totfact> 0.27767667E+03</totfact>
</mgrwt>
</event>
<event>
 4    1  0.4890517E-002  0.4364457E+03  0.7818608E-02  0.1031843E+00
         21   -1    0    0  501  502  0.00000000000E+00  0.00000000000E+00  0.89333814753E+03  0.89333814753E+03  0.00000000000E+00 0. -1.
         21   -1    0    0  502  503 -0.00000000000E+00 -0.00000000000E+00 -0.31954927364E+03  0.31954927364E+03  0.00000000000E+00 0. -1.
    9000007    1    1    2  501    0 -0.16189253713E+03  0.65388577505E+02  0.63670370694E+03  0.77193035313E+03  0.40000000000E+03 0. -1.
   -9000007    1    1    2    0  503  0.16189253713E+03 -0.65388577505E+02 -0.62914833047E+02  0.44095706805E+03  0.40000000000E+03 0. -1.
<mgrwt>
<rscale>  2 0.43644571E+03</rscale>
<asrwt>0</asrwt>
<pdfrwt beam="1">  1       21 0.13743664E+00 0.43644571E+03</pdfrwt>
<pdfrwt beam="2">  1       21 0.49161427E-01 0.43644571E+03</pdfrwt>
<totfact> 0.12669965E+03</totfact>
</mgrwt>
</event>
<event>
 4    1  0.4890517E-002  0.6026457E+03  0.7818608E-02  0.9899932E-01
         21   -1    0    0  503  502  0.00000000000E+00  0.00000000000E+00  0.69945196223E+03  0.69945196223E+03  0.00000000000E+00 0.  1.
         21   -1    0    0  501  503 -0.00000000000E+00 -0.00000000000E+00 -0.16924983397E+04  0.16924983397E+04  0.00000000000E+00 0. -1.
    9000007    1    1    2  501    0 -0.44609669727E+03 -0.64650028257E+02 -0.14922845381E+04  0.16093772188E+04  0.40000000000E+03 0. -1.
   -9000007    1    1    2    0  502  0.44609669727E+03  0.64650028257E+02  0.49923816066E+03  0.78257308318E+03  0.40000000000E+03 0.  1.
<mgrwt>
<rscale>  2 0.60264574E+03</rscale>
<asrwt>0</asrwt>
<pdfrwt beam="1">  1       21 0.10760800E+00 0.60264574E+03</pdfrwt>
<pdfrwt beam="2">  1       21 0.26038436E+00 0.60264574E+03</pdfrwt>
<totfact> 0.27771412E+01</totfact>
</mgrwt>
</event>
<event>
 4    1  0.4890517E-002  0.4984169E+03  0.7818608E-02  0.1014193E+00
         21   -1    0    0  503  502  0.00000000000E+00  0.00000000000E+00  0.12508465891E+04  0.12508465891E+04  0.00000000000E+00 0. -1.
         21   -1    0    0  501  503 -0.00000000000E+00 -0.00000000000E+00 -0.28444622986E+03  0.28444622986E+03  0.00000000000E+00 0.  1.
    9000007    1    1    2  501    0  0.39870473445E+02  0.29466895904E+03  0.61485148108E+02  0.50219505524E+03  0.40000000000E+03 0.  1.
   -9000007    1    1    2    0  502 -0.39870473445E+02 -0.29466895904E+03  0.90491521115E+03  0.10330977637E+04  0.40000000000E+03 0. -1.
<mgrwt>
<rscale>  2 0.49841694E+03</rscale>
<asrwt>0</asrwt>
<pdfrwt beam="1">  1       21 0.19243793E+00 0.49841694E+03</pdfrwt>
<pdfrwt beam="2">  1       21 0.43760959E-01 0.49841694E+03</pdfrwt>
<totfact> 0.61145658E+02</totfact>
</mgrwt>
</event>
<event>
 4    1  0.4890517E-002  0.5460393E+03  0.7818608E-02  0.1002415E+00
         21   -1    0    0  503  502  0.00000000000E+00  0.00000000000E+00  0.10941532771E+04  0.10941532771E+04  0.00000000000E+00 0. -1.
         21   -1    0    0  501  503 -0.00000000000E+00 -0.00000000000E+00 -0.41548077317E+03  0.41548077317E+03  0.00000000000E+00 0.  1.
    9000007    1    1    2  501    0  0.34586306738E+03 -0.13615293232E+03 -0.10345813555E+03  0.55575396370E+03  0.40000000000E+03 0.  1.
   -9000007    1    1    2    0  502 -0.34586306738E+03  0.13615293232E+03  0.78213063952E+03  0.95388008661E+03  0.40000000000E+03 0. -1.
<mgrwt>
<rscale>  2 0.54603927E+03</rscale>
<asrwt>0</asrwt>
<pdfrwt beam="1">  1       21 0.16833127E+00 0.54603927E+03</pdfrwt>
<pdfrwt beam="2">  1       21 0.63920119E-01 0.54603927E+03</pdfrwt>
<totfact> 0.39283417E+02</totfact>
</mgrwt>
</event>
<event>
 4    1  0.4890517E-002  0.4169158E+03  0.7818608E-02  0.1038075E+00
         21   -1    0    0  503  502  0.00000000000E+00  0.00000000000E+00  0.32543224303E+03  0.32543224303E+03  0.00000000000E+00 0.  1.
         21   -1    0    0  501  503 -0.00000000000E+00 -0.00000000000E+00 -0.58190782163E+03  0.58190782163E+03  0.00000000000E+00 0.  1.
    9000007    1    1    2  501    0 -0.69865846556E+02 -0.94538783188E+02 -0.25825064425E+03  0.49042044543E+03  0.40000000000E+03 0.  1.
   -9000007    1    1    2    0  502  0.69865846556E+02  0.94538783188E+02  0.17750656552E+01  0.41691961923E+03  0.40000000000E+03 0.  1.
<mgrwt>
<rscale>  2 0.41691584E+03</rscale>
<asrwt>0</asrwt>
<pdfrwt beam="1">  1       21 0.50066500E-01 0.41691584E+03</pdfrwt>
<pdfrwt beam="2">  1       21 0.89524279E-01 0.41691584E+03</pdfrwt>
<totfact> 0.35706557E+03</totfact>
</mgrwt>
</event>
<event>
 4    1  0.4890517E-002  0.4308749E+03  0.7818608E-02  0.1033584E+00
         21   -1    0    0  503  502  0.00000000000E+00  0.00000000000E+00  0.31693207961E+03  0.31693207961E+03  0.00000000000E+00 0.  1.
         21   -1    0    0  501  503 -0.00000000000E+00 -0.00000000000E+00 -0.68340551600E+03  0.68340551600E+03  0.00000000000E+00 0.  1.
    9000007    1    1    2  501    0 -0.45086281269E+02 -0.15368945394E+03 -0.37227674978E+03  0.56942356769E+03  0.40000000000E+03 0.  1.
   -9000007    1    1    2    0  502  0.45086281269E+02  0.15368945394E+03  0.58033133979E+01  0.43091402792E+03  0.40000000000E+03 0.  1.
<mgrwt>
<rscale>  2 0.43087495E+03</rscale>
<asrwt>0</asrwt>
<pdfrwt beam="1">  1       21 0.48758781E-01 0.43087495E+03</pdfrwt>
<pdfrwt beam="2">  1       21 0.10513931E+00 0.43087495E+03</pdfrwt>
<totfact> 0.25508289E+03</totfact>
</mgrwt>
</event>
<event>
 4    1  0.4890517E-002  0.4243787E+03  0.7818608E-02  0.1035651E+00
         21   -1    0    0  501  502  0.00000000000E+00  0.00000000000E+00  0.75328549079E+03  0.75328549079E+03  0.00000000000E+00 0.  1.
         21   -1    0    0  502  503 -0.00000000000E+00 -0.00000000000E+00 -0.41552409856E+03  0.41552409856E+03  0.00000000000E+00 0.  1.
    9000007    1    1    2  501    0 -0.13732035544E+03  0.35219765553E+02  0.54969763951E+03  0.69445288305E+03  0.40000000000E+03 0.  1.
   -9000007    1    1    2    0  503  0.13732035544E+03 -0.35219765553E+02 -0.21193624727E+03  0.47435670630E+03  0.40000000000E+03 0.  1.
<mgrwt>
<rscale>  2 0.42437874E+03</rscale>
<asrwt>0</asrwt>
<pdfrwt beam="1">  1       21 0.11589008E+00 0.42437874E+03</pdfrwt>
<pdfrwt beam="2">  1       21 0.63926785E-01 0.42437874E+03</pdfrwt>
<totfact> 0.11182575E+03</totfact>
</mgrwt>
</event>
<event>
 4    1  0.4890517E-002  0.4229568E+03  0.7818608E-02  0.1036108E+00
         21   -1    0    0  501  502  0.00000000000E+00  0.00000000000E+00  0.10984145922E+03  0.10984145922E+03  0.00000000000E+00 0.  1.
         21   -1    0    0  502  503 -0.00000000000E+00 -0.00000000000E+00 -0.20688689557E+04  0.20688689557E+04  0.00000000000E+00 0. -1.
    9000007    1    1    2  501    0  0.10323491463E+03  0.90746813841E+02 -0.47700774174E+03  0.63751769975E+03  0.40000000000E+03 0.  1.
   -9000007    1    1    2    0  503 -0.10323491463E+03 -0.90746813841E+02 -0.14820197547E+04  0.15411927151E+04  0.40000000000E+03 0. -1.
<mgrwt>
<rscale>  2 0.42295677E+03</rscale>
<asrwt>0</asrwt>
<pdfrwt beam="1">  1       21 0.16898685E-01 0.42295677E+03</pdfrwt>
<pdfrwt beam="2">  1       21 0.31828755E+00 0.42295677E+03</pdfrwt>
<totfact> 0.68374343E+02</totfact>
</mgrwt>
</event>
<event>
 4    1  0.4890517E-002  0.4036395E+03  0.7818608E-02  0.1042527E+00
         21   -1    0    0  501  502  0.00000000000E+00  0.00000000000E+00  0.13728458578E+04  0.13728458578E+04  0.00000000000E+00 0.  1.
         21   -1    0    0  502  503 -0.00000000000E+00 -0.00000000000E+00 -0.14727586940E+03  0.14727586940E+03  0.00000000000E+00 0.  1.
    9000007    1    1    2  501    0 -0.47921360772E+02  0.25067665630E+02  0.94771890828E+03  0.10300951285E+04  0.40000000000E+03 0.  1.
   -9000007    1    1    2    0  503  0.47921360772E+02 -0.25067665630E+02  0.27785108008E+03  0.49002659865E+03  0.40000000000E+03 0.  1.
<mgrwt>
<rscale>  2 0.40363950E+03</rscale>
<asrwt>0</asrwt>
<pdfrwt beam="1">  1       21 0.21120705E+00 0.40363950E+03</pdfrwt>
<pdfrwt beam="2">  1       21 0.22657827E-01 0.40363950E+03</pdfrwt>
<totfact> 0.17885296E+03</totfact>
</mgrwt>
</event>
<event>
 4    1  0.4890517E-002  0.5946923E+03  0.7818608E-02  0.9916480E-01
         21   -1    0    0  503  502  0.00000000000E+00  0.00000000000E+00  0.36043673394E+03  0.36043673394E+03  0.00000000000E+00 0. -1.
         21   -1    0    0  501  503 -0.00000000000E+00 -0.00000000000E+00 -0.12356641810E+04  0.12356641810E+04  0.00000000000E+00 0. -1.
    9000007    1    1    2  501    0  0.48682238211E+02  0.43736588943E+03 -0.79977110243E+03  0.99664070649E+03  0.40000000000E+03 0. -1.
   -9000007    1    1    2    0  502 -0.48682238211E+02 -0.43736588943E+03 -0.75456344616E+02  0.59946020844E+03  0.40000000000E+03 0. -1.
<mgrwt>
<rscale>  2 0.59469226E+03</rscale>
<asrwt>0</asrwt>
<pdfrwt beam="1">  1       21 0.55451806E-01 0.59469226E+03</pdfrwt>
<pdfrwt beam="2">  1       21 0.19010218E+00 0.59469226E+03</pdfrwt>
<totfact> 0.36865395E+02</totfact>
</mgrwt>
</event>
<event>
 4    1  0.4890517E-002  0.4398989E+03  0.7818608E-02  0.1030778E+00
         21   -1    0    0  503  502  0.00000000000E+00  0.00000000000E+00  0.15284715649E+04  0.15284715649E+04  0.00000000000E+00 0. -1.
         21   -1    0    0  501  503 -0.00000000000E+00 -0.00000000000E+00 -0.14525455623E+03  0.14525455623E+03  0.00000000000E+00 0. -1.
    9000007    1    1    2  501    0 -0.15306399987E+03 -0.10041133883E+03  0.39173901513E+03  0.58904200275E+03  0.40000000000E+03 0. -1.
   -9000007    1    1    2    0  502  0.15306399987E+03  0.10041133883E+03  0.99147799350E+03  0.10846841184E+04  0.40000000000E+03 0. -1.
<mgrwt>
<rscale>  2 0.43989888E+03</rscale>
<asrwt>0</asrwt>
<pdfrwt beam="1">  1       21 0.23514946E+00 0.43989888E+03</pdfrwt>
<pdfrwt beam="2">  1       21 0.22346856E-01 0.43989888E+03</pdfrwt>
<totfact> 0.12716473E+03</totfact>
</mgrwt>
</event>
<event>
 4    1  0.4890517E-002  0.4844690E+03  0.7818608E-02  0.1017914E+00
         21   -1    0    0  501  502  0.00000000000E+00  0.00000000000E+00  0.26294553474E+03  0.26294553474E+03  0.00000000000E+00 0. -1.
         21   -1    0    0  502  503 -0.00000000000E+00 -0.00000000000E+00 -0.10492941523E+04  0.10492941523E+04  0.00000000000E+00 0. -1.
    9000007    1    1    2  501    0  0.21922043937E+03 -0.16325637109E+03 -0.13964143763E+03  0.50419239864E+03  0.40000000000E+03 0. -1.
   -9000007    1    1    2    0  503 -0.21922043937E+03  0.16325637109E+03 -0.64670717992E+03  0.80804728840E+03  0.40000000000E+03 0. -1.
<mgrwt>
<rscale>  2 0.48446903E+03</rscale>
<asrwt>0</asrwt>
<pdfrwt beam="1">  1       21 0.40453159E-01 0.48446903E+03</pdfrwt>
<pdfrwt beam="2">  1       21 0.16142987E+00 0.48446903E+03</pdfrwt>
<totfact> 0.12066940E+03</totfact>
</mgrwt>
</event>
<event>
 4    1  0.4890517E-002  0.4579109E+03  0.7818608E-02  0.1025389E+00
         21   -1    0    0  503  502  0.00000000000E+00  0.00000000000E+00  0.20361029942E+03  0.20361029942E+03  0.00000000000E+00 0. -1.
         21   -1    0    0  501  503 -0.00000000000E+00 -0.00000000000E+00 -0.11301018415E+04  0.11301018415E+04  0.00000000000E+00 0.  1.
    9000007    1    1    2  501    0  0.21265531297E+03  0.66784197642E+02 -0.66189169315E+03  0.80484969072E+03  0.40000000000E+03 0.  1.
   -9000007    1    1    2    0  502 -0.21265531297E+03 -0.66784197642E+02 -0.26459984893E+03  0.52886245021E+03  0.40000000000E+03 0.  1.
<mgrwt>
<rscale>  2 0.45791092E+03</rscale>
<asrwt>0</asrwt>
<pdfrwt beam="1">  1       21 0.31324662E-01 0.45791092E+03</pdfrwt>
<pdfrwt beam="2">  1       21 0.17386182E+00 0.45791092E+03</pdfrwt>
<totfact> 0.16610956E+03</totfact>
</mgrwt>
</event>
<event>
 4    1  0.4890517E-002  0.5992294E+03  0.7818608E-02  0.9907006E-01
         21   -1    0    0  503  502  0.00000000000E+00  0.00000000000E+00  0.58497839914E+03  0.58497839914E+03  0.00000000000E+00 0. -1.
         21   -1    0    0  501  503 -0.00000000000E+00 -0.00000000000E+00 -0.69634749297E+03  0.69634749297E+03  0.00000000000E+00 0. -1.
    9000007    1    1    2  501    0  0.19584112379E+03 -0.40090163665E+03  0.16485984086E+03  0.62149387379E+03  0.40000000000E+03 0. -1.
   -9000007    1    1    2    0  502 -0.19584112379E+03  0.40090163665E+03 -0.27622893469E+03  0.65983201832E+03  0.40000000000E+03 0. -1.
<mgrwt>
<rscale>  2 0.59922940E+03</rscale>
<asrwt>0</asrwt>
<pdfrwt beam="1">  1       21 0.89996677E-01 0.59922940E+03</pdfrwt>
<pdfrwt beam="2">  1       21 0.10713038E+00 0.59922940E+03</pdfrwt>
<totfact> 0.58123813E+02</totfact>
</mgrwt>
</event>
<event>
 4    1  0.4890517E-002  0.5620797E+03  0.7818608E-02  0.9987360E-01
         21   -1    0    0  501  502  0.00000000000E+00  0.00000000000E+00  0.11745226125E+04  0.11745226125E+04  0.00000000000E+00 0. -1.
         21   -1    0    0  502  503 -0.00000000000E+00 -0.00000000000E+00 -0.34680885558E+03  0.34680885558E+03  0.00000000000E+00 0. -1.
    9000007    1    1    2  501    0 -0.24490497163E+03 -0.30976619579E+03  0.77418176897E+03  0.95670839475E+03  0.40000000000E+03 0. -1.
   -9000007    1    1    2    0  503  0.24490497163E+03  0.30976619579E+03  0.53531987951E+02  0.56462307332E+03  0.40000000000E+03 0. -1.
<mgrwt>
<rscale>  2 0.56207966E+03</rscale>
<asrwt>0</asrwt>
<pdfrwt beam="1">  1       21 0.18069578E+00 0.56207966E+03</pdfrwt>
<pdfrwt beam="2">  1       21 0.53355209E-01 0.56207966E+03</pdfrwt>
<totfact> 0.47214745E+02</totfact>
</mgrwt>
</event>
<event>
 4    1  0.4890517E-002  0.4768487E+03  0.7818608E-02  0.1020005E+00
         21   -1    0    0  503  502  0.00000000000E+00  0.00000000000E+00  0.79028494674E+03  0.79028494674E+03  0.00000000000E+00 0.  1.
         21   -1    0    0  501  503 -0.00000000000E+00 -0.00000000000E+00 -0.59573657141E+03  0.59573657141E+03  0.00000000000E+00 0.  1.
    9000007    1    1    2  501    0 -0.13810282114E+03  0.21980050396E+03 -0.40103218226E+03  0.62306617783E+03  0.40000000000E+03 0.  1.
   -9000007    1    1    2    0  502  0.13810282114E+03 -0.21980050396E+03  0.59558055759E+03  0.76295534032E+03  0.40000000000E+03 0.  1.
<mgrwt>
<rscale>  2 0.47684867E+03</rscale>
<asrwt>0</asrwt>
<pdfrwt beam="1">  1       21 0.12158230E+00 0.47684867E+03</pdfrwt>
<pdfrwt beam="2">  1       21 0.91651780E-01 0.47684867E+03</pdfrwt>
<totfact> 0.42383608E+02</totfact>
</mgrwt>
</event>
<event>
 4    1  0.4890517E-002  0.5601287E+03  0.7818608E-02  0.9991764E-01
         21   -1    0    0  501  502  0.00000000000E+00  0.00000000000E+00  0.90244520752E+03  0.90244520752E+03  0.00000000000E+00 0. -1.
         21   -1    0    0  502  503 -0.00000000000E+00 -0.00000000000E+00 -0.55769759995E+03  0.55769759995E+03  0.00000000000E+00 0.  1.
    9000007    1    1    2  501    0  0.37387838022E+03  0.11814859063E+03  0.62041137797E+03  0.83585549623E+03  0.40000000000E+03 0. -1.
   -9000007    1    1    2    0  503 -0.37387838022E+03 -0.11814859063E+03 -0.27566377040E+03  0.62428731124E+03  0.40000000000E+03 0.  1.
<mgrwt>
<rscale>  2 0.56012868E+03</rscale>
<asrwt>0</asrwt>
<pdfrwt beam="1">  1       21 0.13883772E+00 0.56012868E+03</pdfrwt>
<pdfrwt beam="2">  1       21 0.85799631E-01 0.56012868E+03</pdfrwt>
<totfact> 0.33896295E+02</totfact>
</mgrwt>
</event>
<event>
 4    1  0.4890517E-002  0.4096648E+03  0.7818608E-02  0.1040484E+00
         21   -1    0    0  501  502  0.00000000000E+00  0.00000000000E+00  0.22582728171E+03  0.22582728171E+03  0.00000000000E+00 0. -1.
         21   -1    0    0  502  503 -0.00000000000E+00 -0.00000000000E+00 -0.11680254681E+04  0.11680254681E+04  0.00000000000E+00 0. -1.
    9000007    1    1    2  501    0 -0.75902002059E+02 -0.45432364952E+02 -0.50771603151E+02  0.41279894548E+03  0.40000000000E+03 0. -1.
   -9000007    1    1    2    0  503  0.75902002059E+02  0.45432364952E+02 -0.89142658325E+03  0.98105380435E+03  0.40000000000E+03 0. -1.
<mgrwt>
<rscale>  2 0.40966476E+03</rscale>
<asrwt>0</asrwt>
<pdfrwt beam="1">  1       21 0.34742659E-01 0.40966476E+03</pdfrwt>
<pdfrwt beam="2">  1       21 0.17969623E+00 0.40966476E+03</pdfrwt>
<totfact> 0.12526528E+03</totfact>
</mgrwt>
</event>
<event>
 4    1  0.4890517E-002  0.4052362E+03  0.7818608E-02  0.1041982E+00
         21   -1    0    0  501  502  0.00000000000E+00  0.00000000000E+00  0.11065889457E+03  0.11065889457E+03  0.00000000000E+00 0.  1.
         21   -1    0    0  502  503 -0.00000000000E+00 -0.00000000000E+00 -0.16658004331E+04  0.16658004331E+04  0.00000000000E+00 0.  1.
    9000007    1    1    2  501    0  0.64852405949E+02  0.32434950537E+01 -0.48412568550E+03  0.63134304001E+03  0.40000000000E+03 0.  1.
   -9000007    1    1    2    0  503 -0.64852405949E+02 -0.32434950537E+01 -0.10710158530E+04  0.11451162876E+04  0.40000000000E+03 0.  1.
<mgrwt>
<rscale>  2 0.40523617E+03</rscale>
<asrwt>0</asrwt>
<pdfrwt beam="1">  1       21 0.17024446E-01 0.40523617E+03</pdfrwt>
<pdfrwt beam="2">  1       21 0.25627698E+00 0.40523617E+03</pdfrwt>
<totfact> 0.16071576E+03</totfact>
</mgrwt>
</event>
<event>
 4    1  0.4890517E-002  0.4462387E+03  0.7818608E-02  0.1028850E+00
         21   -1    0    0  503  502  0.00000000000E+00  0.00000000000E+00  0.44585563348E+03  0.44585563348E+03  0.00000000000E+00 0. -1.
         21   -1    0    0  501  503 -0.00000000000E+00 -0.00000000000E+00 -0.60394868744E+03  0.60394868744E+03  0.00000000000E+00 0. -1.
    9000007    1    1    2  501    0  0.42827943208E+01  0.19776403206E+03 -0.34695069902E+03  0.56524662074E+03  0.40000000000E+03 0. -1.
   -9000007    1    1    2    0  502 -0.42827943208E+01 -0.19776403206E+03  0.18885764507E+03  0.48455770018E+03  0.40000000000E+03 0. -1.
<mgrwt>
<rscale>  2 0.44623867E+03</rscale>
<asrwt>0</asrwt>
<pdfrwt beam="1">  1       21 0.68593175E-01 0.44623867E+03</pdfrwt>
<pdfrwt beam="2">  1       21 0.92915182E-01 0.44623867E+03</pdfrwt>
<totfact> 0.16266759E+03</totfact>
</mgrwt>
</event>
<event>
 4    1  0.4890517E-002  0.4150908E+03  0.7818608E-02  0.1038676E+00
         21   -1    0    0  503  502  0.00000000000E+00  0.00000000000E+00  0.10198523783E+03  0.10198523783E+03  0.00000000000E+00 0.  1.
         21   -1    0    0  501  503 -0.00000000000E+00 -0.00000000000E+00 -0.16925080825E+04  0.16925080825E+04  0.00000000000E+00 0.  1.
    9000007    1    1    2  501    0  0.35052402508E+02  0.10522209301E+03 -0.75720794799E+03  0.86351852110E+03  0.40000000000E+03 0. -1.
   -9000007    1    1    2    0  502 -0.35052402508E+02 -0.10522209301E+03 -0.83331489663E+03  0.93097479919E+03  0.40000000000E+03 0. -1.
<mgrwt>
<rscale>  2 0.41509078E+03</rscale>
<asrwt>0</asrwt>
<pdfrwt beam="1">  1       21 0.15690036E-01 0.41509078E+03</pdfrwt>
<pdfrwt beam="2">  1       21 0.26038586E+00 0.41509078E+03</pdfrwt>
<totfact> 0.17576823E+03</totfact>
</mgrwt>
</event>
<event>
 4    1  0.4890517E-002  0.4841787E+03  0.7818608E-02  0.1017993E+00
         21   -1    0    0  503  502  0.00000000000E+00  0.00000000000E+00  0.59998949480E+03  0.59998949480E+03  0.00000000000E+00 0.  1.
         21   -1    0    0  501  503 -0.00000000000E+00 -0.00000000000E+00 -0.39513840629E+03  0.39513840629E+03  0.00000000000E+00 0.  1.
    9000007    1    1    2  501    0 -0.18906703176E+03 -0.19667903537E+03  0.49821661151E+02  0.48673522923E+03  0.40000000000E+03 0.  1.
   -9000007    1    1    2    0  502  0.18906703176E+03  0.19667903537E+03  0.15502942736E+03  0.50839267186E+03  0.40000000000E+03 0.  1.
<mgrwt>
<rscale>  2 0.48417867E+03</rscale>
<asrwt>0</asrwt>
<pdfrwt beam="1">  1       21 0.92306076E-01 0.48417867E+03</pdfrwt>
<pdfrwt beam="2">  1       21 0.60790524E-01 0.48417867E+03</pdfrwt>
<totfact> 0.21308231E+03</totfact>
</mgrwt>
</event>
<event>
 4    1  0.4890517E-002  0.4388531E+03  0.7818608E-02  0.1031099E+00
         21   -1    0    0  503  502  0.00000000000E+00  0.00000000000E+00  0.52094966992E+03  0.52094966992E+03  0.00000000000E+00 0. -1.
         21   -1    0    0  501  503 -0.00000000000E+00 -0.00000000000E+00 -0.13512479029E+04  0.13512479029E+04  0.00000000000E+00 0. -1.
    9000007    1    1    2  501    0 -0.18831228383E+01  0.18052274104E+03 -0.12129807032E+04  0.12899279796E+04  0.40000000000E+03 0. -1.
   -9000007    1    1    2    0  502  0.18831228383E+01 -0.18052274104E+03  0.38268247023E+03  0.58226959323E+03  0.40000000000E+03 0. -1.
<mgrwt>
<rscale>  2 0.43885306E+03</rscale>
<asrwt>0</asrwt>
<pdfrwt beam="1">  1       21 0.80146104E-01 0.43885306E+03</pdfrwt>
<pdfrwt beam="2">  1       21 0.20788429E+00 0.43885306E+03</pdfrwt>
<totfact> 0.13183679E+02</totfact>
</mgrwt>
</event>
<event>
 4    1  0.4890517E-002  0.4678821E+03  0.7818608E-02  0.1022520E+00
         21   -1    0    0  501  502  0.00000000000E+00  0.00000000000E+00  0.43053381982E+03  0.43053381982E+03  0.00000000000E+00 0. -1.
         21   -1    0    0  502  503 -0.00000000000E+00 -0.00000000000E+00 -0.51238768674E+03  0.51238768674E+03  0.00000000000E+00 0. -1.
    9000007    1    1    2  501    0  0.24263538650E+03 -0.64628351322E+01  0.29605491558E+00  0.46788223590E+03  0.40000000000E+03 0. -1.
   -9000007    1    1    2    0  503 -0.24263538650E+03  0.64628351322E+01 -0.82149921827E+02  0.47503927066E+03  0.40000000000E+03 0. -1.
<mgrwt>
<rscale>  2 0.46788214E+03</rscale>
<asrwt>0</asrwt>
<pdfrwt beam="1">  1       21 0.66235972E-01 0.46788214E+03</pdfrwt>
<pdfrwt beam="2">  1       21 0.78828875E-01 0.46788214E+03</pdfrwt>
<totfact> 0.25656678E+03</totfact>
</mgrwt>
</event>
<event>
 4    1  0.4890517E-002  0.5135116E+03  0.7818608E-02  0.1010311E+00
         21   -1    0    0  501  502  0.00000000000E+00  0.00000000000E+00  0.38904422184E+03  0.38904422184E+03  0.00000000000E+00 0.  1.
         21   -1    0    0  502  503 -0.00000000000E+00 -0.00000000000E+00 -0.69461287609E+03  0.69461287609E+03  0.00000000000E+00 0. -1.
    9000007    1    1    2  501    0 -0.29192068892E+03  0.13592826074E+03 -0.23708115634E+03  0.56559849309E+03  0.40000000000E+03 0. -1.
   -9000007    1    1    2    0  503  0.29192068892E+03 -0.13592826074E+03 -0.68487497907E+02  0.51805860485E+03  0.40000000000E+03 0.  1.
<mgrwt>
<rscale>  2 0.51351162E+03</rscale>
<asrwt>0</asrwt>
<pdfrwt beam="1">  1       21 0.59852957E-01 0.51351162E+03</pdfrwt>
<pdfrwt beam="2">  1       21 0.10686352E+00 0.51351162E+03</pdfrwt>
<totfact> 0.15287359E+03</totfact>
</mgrwt>
</event>
<event>
 4    1  0.4890517E-002  0.5126546E+03  0.7818608E-02  0.1010528E+00
         21   -1    0    0  503  502  0.00000000000E+00  0.00000000000E+00  0.25701962518E+03  0.25701962518E+03  0.00000000000E+00 0.  1.
         21   -1    0    0  501  503 -0.00000000000E+00 -0.00000000000E+00 -0.31363103646E+04  0.31363103646E+04  0.00000000000E+00 0. -1.
    9000007    1    1    2  501    0 -0.26904586828E+03  0.17443937767E+03 -0.28325286161E+04  0.28785470531E+04  0.40000000000E+03 0. -1.
   -9000007    1    1    2    0  502  0.26904586828E+03 -0.17443937767E+03 -0.46762123289E+02  0.51478293668E+03  0.40000000000E+03 0.  1.
<mgrwt>
<rscale>  2 0.51265464E+03</rscale>
<asrwt>0</asrwt>
<pdfrwt beam="1">  1       21 0.39541484E-01 0.51265464E+03</pdfrwt>
<pdfrwt beam="2">  1       21 0.48250925E+00 0.51265464E+03</pdfrwt>
<totfact> 0.10600011E+01</totfact>
</mgrwt>
</event>
<event>
 4    1  0.4890517E-002  0.4124762E+03  0.7818608E-02  0.1039543E+00
         21   -1    0    0  503  502  0.00000000000E+00  0.00000000000E+00  0.48917781430E+03  0.48917781430E+03  0.00000000000E+00 0. -1.
         21   -1    0    0  501  503 -0.00000000000E+00 -0.00000000000E+00 -0.34821020574E+03  0.34821020574E+03  0.00000000000E+00 0. -1.
    9000007    1    1    2  501    0 -0.10044600150E+03  0.68686426858E+01  0.84835347508E+02  0.42110997810E+03  0.40000000000E+03 0. -1.
   -9000007    1    1    2    0  502  0.10044600150E+03 -0.68686426858E+01  0.56132261057E+02  0.41627804194E+03  0.40000000000E+03 0. -1.
<mgrwt>
<rscale>  2 0.41247615E+03</rscale>
<asrwt>0</asrwt>
<pdfrwt beam="1">  1       21 0.75258125E-01 0.41247615E+03</pdfrwt>
<pdfrwt beam="2">  1       21 0.53570801E-01 0.41247615E+03</pdfrwt>
<totfact> 0.46293581E+03</totfact>
</mgrwt>
</event>
<event>
 4    1  0.4890517E-002  0.4369499E+03  0.7818608E-02  0.1031687E+00
         21   -1    0    0  503  502  0.00000000000E+00  0.00000000000E+00  0.13229995686E+03  0.13229995686E+03  0.00000000000E+00 0.  1.
         21   -1    0    0  501  503 -0.00000000000E+00 -0.00000000000E+00 -0.14577421030E+04  0.14577421030E+04  0.00000000000E+00 0.  1.
    9000007    1    1    2  501    0  0.17584823337E+03 -0.16247449135E+01 -0.74233407491E+03  0.86138558135E+03  0.40000000000E+03 0.  1.
   -9000007    1    1    2    0  502 -0.17584823337E+03  0.16247449135E+01 -0.58310807127E+03  0.72865647857E+03  0.40000000000E+03 0.  1.
<mgrwt>
<rscale>  2 0.43694993E+03</rscale>
<asrwt>0</asrwt>
<pdfrwt beam="1">  1       21 0.20353839E-01 0.43694993E+03</pdfrwt>
<pdfrwt beam="2">  1       21 0.22426802E+00 0.43694993E+03</pdfrwt>
<totfact> 0.17826379E+03</totfact>
</mgrwt>
</event>
<event>
 4    1  0.4890517E-002  0.5454089E+03  0.7818608E-02  0.1002562E+00
         21   -1    0    0  501  502  0.00000000000E+00  0.00000000000E+00  0.10632529252E+04  0.10632529252E+04  0.00000000000E+00 0. -1.
         21   -1    0    0  502  503 -0.00000000000E+00 -0.00000000000E+00 -0.27992872362E+03  0.27992872362E+03  0.00000000000E+00 0. -1.
    9000007    1    1    2  501    0 -0.48071023371E+02  0.36764115759E+03  0.37588830115E+03  0.66239177152E+03  0.40000000000E+03 0. -1.
   -9000007    1    1    2    0  503  0.48071023371E+02 -0.36764115759E+03  0.40743590038E+03  0.68078987725E+03  0.40000000000E+03 0. -1.
<mgrwt>
<rscale>  2 0.54540888E+03</rscale>
<asrwt>0</asrwt>
<pdfrwt beam="1">  1       21 0.16357737E+00 0.54540888E+03</pdfrwt>
<pdfrwt beam="2">  1       21 0.43065958E-01 0.54540888E+03</pdfrwt>
<totfact> 0.99793412E+02</totfact>
</mgrwt>
</event>
<event>
 4    1  0.4890517E-002  0.5571410E+03  0.7818608E-02  0.9998544E-01
         21   -1    0    0  503  502  0.00000000000E+00  0.00000000000E+00  0.10494888657E+04  0.10494888657E+04  0.00000000000E+00 0.  1.
         21   -1    0    0  501  503 -0.00000000000E+00 -0.00000000000E+00 -0.49993937022E+03  0.49993937022E+03  0.00000000000E+00 0. -1.
    9000007    1    1    2  501    0  0.38080015966E+03 -0.73466722153E+02 -0.22030973274E+03  0.59911810121E+03  0.40000000000E+03 0. -1.
   -9000007    1    1    2    0  502 -0.38080015966E+03  0.73466722153E+02  0.76985922820E+03  0.95031013469E+03  0.40000000000E+03 0.  1.
<mgrwt>
<rscale>  2 0.55714102E+03</rscale>
<asrwt>0</asrwt>
<pdfrwt beam="1">  1       21 0.16145983E+00 0.55714102E+03</pdfrwt>
<pdfrwt beam="2">  1       21 0.76913749E-01 0.55714102E+03</pdfrwt>
<totfact> 0.28955453E+02</totfact>
</mgrwt>
</event>
<event>
 4    1  0.4890517E-002  0.4412479E+03  0.7818608E-02  0.1030365E+00
         21   -1    0    0  501  502  0.00000000000E+00  0.00000000000E+00  0.74729769489E+03  0.74729769489E+03  0.00000000000E+00 0. -1.
         21   -1    0    0  502  503 -0.00000000000E+00 -0.00000000000E+00 -0.42290859567E+03  0.42290859567E+03  0.00000000000E+00 0.  1.
    9000007    1    1    2  501    0 -0.83329232777E+02  0.16660119323E+03  0.52473993540E+03  0.68560317854E+03  0.40000000000E+03 0. -1.
   -9000007    1    1    2    0  503  0.83329232777E+02 -0.16660119323E+03 -0.20035083617E+03  0.48460311202E+03  0.40000000000E+03 0.  1.
<mgrwt>
<rscale>  2 0.44124791E+03</rscale>
<asrwt>0</asrwt>
<pdfrwt beam="1">  1       21 0.11496888E+00 0.44124791E+03</pdfrwt>
<pdfrwt beam="2">  1       21 0.65062861E-01 0.44124791E+03</pdfrwt>
<totfact> 0.10892264E+03</totfact>
</mgrwt>
</event>
<event>
 4    1  0.4890517E-002  0.5719441E+03  0.7818608E-02  0.9965386E-01
         21   -1    0    0  503  502  0.00000000000E+00  0.00000000000E+00  0.65355838756E+03  0.65355838756E+03  0.00000000000E+00 0. -1.
         21   -1    0    0  501  503 -0.00000000000E+00 -0.00000000000E+00 -0.68068166470E+03  0.68068166470E+03  0.00000000000E+00 0.  1.
    9000007    1    1    2  501    0  0.34380349475E+03 -0.22117695459E+03 -0.35677265480E+03  0.67409703712E+03  0.40000000000E+03 0.  1.
   -9000007    1    1    2    0  502 -0.34380349475E+03  0.22117695459E+03  0.32964937766E+03  0.66014301514E+03  0.40000000000E+03 0. -1.
<mgrwt>
<rscale>  2 0.57194413E+03</rscale>
<asrwt>0</asrwt>
<pdfrwt beam="1">  1       21 0.10054744E+00 0.57194413E+03</pdfrwt>
<pdfrwt beam="2">  1       21 0.10472026E+00 0.57194413E+03</pdfrwt>
<totfact> 0.47497031E+02</totfact>
</mgrwt>
</event>
<event>
 4    1  0.4890517E-002  0.4382096E+03  0.7818608E-02  0.1031298E+00
         21   -1    0    0  501  502  0.00000000000E+00  0.00000000000E+00  0.57759388195E+03  0.57759388195E+03  0.00000000000E+00 0.  1.
         21   -1    0    0  502  503 -0.00000000000E+00 -0.00000000000E+00 -0.41550103890E+03  0.41550103890E+03  0.00000000000E+00 0.  1.
    9000007    1    1    2  501    0 -0.11390476690E+03  0.13803378629E+03  0.30302836726E+03  0.53277932903E+03  0.40000000000E+03 0.  1.
   -9000007    1    1    2    0  503  0.11390476690E+03 -0.13803378629E+03 -0.14093552422E+03  0.46031559181E+03  0.40000000000E+03 0.  1.
<mgrwt>
<rscale>  2 0.43820956E+03</rscale>
<asrwt>0</asrwt>
<pdfrwt beam="1">  1       21 0.88860598E-01 0.43820956E+03</pdfrwt>
<pdfrwt beam="2">  1       21 0.63923237E-01 0.43820956E+03</pdfrwt>
<totfact> 0.21225859E+03</totfact>
</mgrwt>
</event>
<event>
 4    1  0.4890517E-002  0.5091908E+03  0.7818608E-02  0.1011407E+00
         21   -1    0    0  503  502  0.00000000000E+00  0.00000000000E+00  0.72178340913E+03  0.72178340913E+03  0.00000000000E+00 0. -1.
         21   -1    0    0  501  503 -0.00000000000E+00 -0.00000000000E+00 -0.59314673289E+03  0.59314673289E+03  0.00000000000E+00 0. -1.
    9000007    1    1    2  501    0 -0.14526971342E+02  0.31474479537E+03 -0.34857352276E+03  0.61707278329E+03  0.40000000000E+03 0. -1.
   -9000007    1    1    2    0  502  0.14526971342E+02 -0.31474479537E+03  0.47721019899E+03  0.69785735873E+03  0.40000000000E+03 0. -1.
<mgrwt>
<rscale>  2 0.50919085E+03</rscale>
<asrwt>0</asrwt>
<pdfrwt beam="1">  1       21 0.11104360E+00 0.50919085E+03</pdfrwt>
<pdfrwt beam="2">  1       21 0.91253343E-01 0.50919085E+03</pdfrwt>
<totfact> 0.53104814E+02</totfact>
</mgrwt>
</event>
<event>
 4    1  0.4890517E-002  0.4997417E+03  0.7818608E-02  0.1013846E+00
         21   -1    0    0  503  502  0.00000000000E+00  0.00000000000E+00  0.47008199634E+03  0.47008199634E+03  0.00000000000E+00 0. -1.
         21   -1    0    0  501  503 -0.00000000000E+00 -0.00000000000E+00 -0.55588332726E+03  0.55588332726E+03  0.00000000000E+00 0.  1.
    9000007    1    1    2  501    0  0.27943490791E+03 -0.10797162497E+03 -0.15083808998E+03  0.52200945293E+03  0.40000000000E+03 0. -1.
   -9000007    1    1    2    0  502 -0.27943490791E+03  0.10797162497E+03  0.65036759059E+02  0.50395587067E+03  0.40000000000E+03 0. -1.
<mgrwt>
<rscale>  2 0.49974167E+03</rscale>
<asrwt>0</asrwt>
<pdfrwt beam="1">  1       21 0.72320307E-01 0.49974167E+03</pdfrwt>
<pdfrwt beam="2">  1       21 0.85520512E-01 0.49974167E+03</pdfrwt>
<totfact> 0.17224667E+03</totfact>
</mgrwt>
</event>
<event>
 4    1  0.4890517E-002  0.4254162E+03  0.7818608E-02  0.1035318E+00
         21   -1    0    0  503  502  0.00000000000E+00  0.00000000000E+00  0.52735211281E+03  0.52735211281E+03  0.00000000000E+00 0.  1.
         21   -1    0    0  501  503 -0.00000000000E+00 -0.00000000000E+00 -0.34668658803E+03  0.34668658803E+03  0.00000000000E+00 0. -1.
    9000007    1    1    2  501    0 -0.38015584129E+02 -0.13976323186E+03  0.46407897256E+02  0.42793999409E+03  0.40000000000E+03 0. -1.
   -9000007    1    1    2    0  502  0.38015584129E+02  0.13976323186E+03  0.13425762753E+03  0.44609870675E+03  0.40000000000E+03 0. -1.
<mgrwt>
<rscale>  2 0.42541620E+03</rscale>
<asrwt>0</asrwt>
<pdfrwt beam="1">  1       21 0.81131094E-01 0.42541620E+03</pdfrwt>
<pdfrwt beam="2">  1       21 0.53336398E-01 0.42541620E+03</pdfrwt>
<totfact> 0.39144312E+03</totfact>
</mgrwt>
</event>
<event>
 4    1  0.4890517E-002  0.5471466E+03  0.7818608E-02  0.1002157E+00
         21   -1    0    0  501  502  0.00000000000E+00  0.00000000000E+00  0.55122819093E+03  0.55122819093E+03  0.00000000000E+00 0.  1.
         21   -1    0    0  502  503 -0.00000000000E+00 -0.00000000000E+00 -0.54350647263E+03  0.54350647263E+03  0.00000000000E+00 0.  1.
    9000007    1    1    2  501    0 -0.34026010951E+03  0.15359822665E+03 -0.11197148600E+02  0.54726112002E+03  0.40000000000E+03 0.  1.
   -9000007    1    1    2    0  503  0.34026010951E+03 -0.15359822665E+03  0.18918866895E+02  0.54747354354E+03  0.40000000000E+03 0.  1.
<mgrwt>
<rscale>  2 0.54714656E+03</rscale>
<asrwt>0</asrwt>
<pdfrwt beam="1">  1       21 0.84804338E-01 0.54714656E+03</pdfrwt>
<pdfrwt beam="2">  1       21 0.83616380E-01 0.54714656E+03</pdfrwt>
<totfact> 0.12376224E+03</totfact>
</mgrwt>
</event>
<event>
 4    1  0.4890517E-002  0.5990998E+03  0.7818608E-02  0.9907275E-01
         21   -1    0    0  503  502  0.00000000000E+00  0.00000000000E+00  0.10266929965E+04  0.10266929965E+04  0.00000000000E+00 0.  1.
         21   -1    0    0  501  503 -0.00000000000E+00 -0.00000000000E+00 -0.36303974851E+03  0.36303974851E+03  0.00000000000E+00 0.  1.
    9000007    1    1    2  501    0 -0.29496175857E+03 -0.33454168114E+03  0.19807549027E+03  0.63099482984E+03  0.40000000000E+03 0.  1.
   -9000007    1    1    2    0  502  0.29496175857E+03  0.33454168114E+03  0.46557775772E+03  0.75873791517E+03  0.40000000000E+03 0.  1.
<mgrwt>
<rscale>  2 0.59909980E+03</rscale>
<asrwt>0</asrwt>
<pdfrwt beam="1">  1       21 0.15795277E+00 0.59909980E+03</pdfrwt>
<pdfrwt beam="2">  1       21 0.55852269E-01 0.59909980E+03</pdfrwt>
<totfact> 0.62087642E+02</totfact>
</mgrwt>
</event>
<event>
 4    1  0.4890517E-002  0.5283009E+03  0.7818608E-02  0.1006645E+00
         21   -1    0    0  503  502  0.00000000000E+00  0.00000000000E+00  0.53497478789E+03  0.53497478789E+03  0.00000000000E+00 0.  1.
         21   -1    0    0  501  503 -0.00000000000E+00 -0.00000000000E+00 -0.62629121117E+03  0.62629121117E+03  0.00000000000E+00 0. -1.
    9000007    1    1    2  501    0  0.24071275463E+03 -0.24730388942E+03 -0.28292656580E+03  0.59929065202E+03  0.40000000000E+03 0. -1.
   -9000007    1    1    2    0  502 -0.24071275463E+03  0.24730388942E+03  0.19161014252E+03  0.56197534704E+03  0.40000000000E+03 0.  1.
<mgrwt>
<rscale>  2 0.52830090E+03</rscale>
<asrwt>0</asrwt>
<pdfrwt beam="1">  1       21 0.82303813E-01 0.52830090E+03</pdfrwt>
<pdfrwt beam="2">  1       21 0.96352494E-01 0.52830090E+03</pdfrwt>
<totfact> 0.95355134E+02</totfact>
</mgrwt>
</event>
<event>
 4    1  0.4890517E-002  0.6053344E+03  0.7818608E-02  0.9894400E-01
         21   -1    0    0  501  502  0.00000000000E+00  0.00000000000E+00  0.74442967040E+03  0.74442967040E+03  0.00000000000E+00 0.  1.
         21   -1    0    0  502  503 -0.00000000000E+00 -0.00000000000E+00 -0.94272251400E+03  0.94272251400E+03  0.00000000000E+00 0.  1.
    9000007    1    1    2  501    0 -0.27465257359E+03  0.36193328150E+03 -0.68229159149E+03  0.91211378252E+03  0.40000000000E+03 0.  1.
   -9000007    1    1    2    0  503  0.27465257359E+03 -0.36193328150E+03  0.48399874788E+03  0.77503840188E+03  0.40000000000E+03 0.  1.
<mgrwt>
<rscale>  2 0.60533440E+03</rscale>
<asrwt>0</asrwt>
<pdfrwt beam="1">  1       21 0.11452764E+00 0.60533440E+03</pdfrwt>
<pdfrwt beam="2">  1       21 0.14503423E+00 0.60533440E+03</pdfrwt>
<totfact> 0.14637559E+02</totfact>
</mgrwt>
</event>
<event>
 4    1  0.4890517E-002  0.4156897E+03  0.7818608E-02  0.1038478E+00
         21   -1    0    0  501  502  0.00000000000E+00  0.00000000000E+00  0.71388107439E+03  0.71388107439E+03  0.00000000000E+00 0.  1.
         21   -1    0    0  502  503 -0.00000000000E+00 -0.00000000000E+00 -0.34046993521E+03  0.34046993521E+03  0.00000000000E+00 0. -1.
    9000007    1    1    2  501    0  0.10678669232E+03 -0.37343338369E+02  0.47013704502E+03  0.62755618368E+03  0.40000000000E+03 0.  1.
   -9000007    1    1    2    0  503 -0.10678669232E+03  0.37343338369E+02 -0.96725905838E+02  0.42679482593E+03  0.40000000000E+03 0. -1.
<mgrwt>
<rscale>  2 0.41568970E+03</rscale>
<asrwt>0</asrwt>
<pdfrwt beam="1">  1       21 0.10982786E+00 0.41568970E+03</pdfrwt>
<pdfrwt beam="2">  1       21 0.52379990E-01 0.41568970E+03</pdfrwt>
<totfact> 0.19785335E+03</totfact>
</mgrwt>
</event>
<event>
 4    1  0.4890517E-002  0.4067327E+03  0.7818608E-02  0.1041473E+00
         21   -1    0    0  503  502  0.00000000000E+00  0.00000000000E+00  0.49828286620E+03  0.49828286620E+03  0.00000000000E+00 0. -1.
         21   -1    0    0  501  503 -0.00000000000E+00 -0.00000000000E+00 -0.50800576118E+03  0.50800576118E+03  0.00000000000E+00 0. -1.
    9000007    1    1    2  501    0  0.18200587319E+02 -0.71416012535E+02 -0.30101554010E+03  0.50600579405E+03  0.40000000000E+03 0.  1.
   -9000007    1    1    2    0  502 -0.18200587319E+02  0.71416012535E+02  0.29129264512E+03  0.50028283333E+03  0.40000000000E+03 0.  1.
<mgrwt>
<rscale>  2 0.40673272E+03</rscale>
<asrwt>0</asrwt>
<pdfrwt beam="1">  1       21 0.76658903E-01 0.40673272E+03</pdfrwt>
<pdfrwt beam="2">  1       21 0.78154732E-01 0.40673272E+03</pdfrwt>
<totfact> 0.19256373E+03</totfact>
</mgrwt>
</event>
<event>
 4    1  0.4890517E-002  0.4288761E+03  0.7818608E-02  0.1034216E+00
         21   -1    0    0  503  502  0.00000000000E+00  0.00000000000E+00  0.18961451351E+03  0.18961451351E+03  0.00000000000E+00 0. -1.
         21   -1    0    0  501  503 -0.00000000000E+00 -0.00000000000E+00 -0.16838417637E+04  0.16838417637E+04  0.00000000000E+00 0. -1.
    9000007    1    1    2  501    0 -0.90954321255E+00 -0.15470577301E+03 -0.13570015942E+04  0.14231612804E+04  0.40000000000E+03 0. -1.
   -9000007    1    1    2    0  502  0.90954321255E+00  0.15470577301E+03 -0.13722565602E+03  0.45029499680E+03  0.40000000000E+03 0. -1.
<mgrwt>
<rscale>  2 0.42887609E+03</rscale>
<asrwt>0</asrwt>
<pdfrwt beam="1">  1       21 0.29171464E-01 0.42887609E+03</pdfrwt>
<pdfrwt beam="2">  1       21 0.25905257E+00 0.42887609E+03</pdfrwt>
<totfact> 0.54216393E+02</totfact>
</mgrwt>
</event>
<event>
 4    1  0.4890517E-002  0.4455474E+03  0.7818608E-02  0.1029058E+00
         21   -1    0    0  501  502  0.00000000000E+00  0.00000000000E+00  0.48119127841E+03  0.48119127841E+03  0.00000000000E+00 0. -1.
         21   -1    0    0  502  503 -0.00000000000E+00 -0.00000000000E+00 -0.42659815020E+03  0.42659815020E+03  0.00000000000E+00 0. -1.
    9000007    1    1    2  501    0  0.18215622287E+03  0.73018038070E+02 -0.55088708949E+02  0.44894018451E+03  0.40000000000E+03 0. -1.
   -9000007    1    1    2    0  503 -0.18215622287E+03 -0.73018038070E+02  0.10968183716E+03  0.45884924410E+03  0.40000000000E+03 0. -1.
<mgrwt>
<rscale>  2 0.44554744E+03</rscale>
<asrwt>0</asrwt>
<pdfrwt beam="1">  1       21 0.74029427E-01 0.44554744E+03</pdfrwt>
<pdfrwt beam="2">  1       21 0.65630485E-01 0.44554744E+03</pdfrwt>
<totfact> 0.30477923E+03</totfact>
</mgrwt>
</event>
<event>
 4    1  0.4890517E-002  0.7386544E+03  0.7818608E-02  0.9653320E-01
         21   -1    0    0  501  502  0.00000000000E+00  0.00000000000E+00  0.28829116489E+03  0.28829116489E+03  0.00000000000E+00 0.  1.
         21   -1    0    0  502  503 -0.00000000000E+00 -0.00000000000E+00 -0.20665819526E+04  0.20665819526E+04  0.00000000000E+00 0.  1.
    9000007    1    1    2  501    0  0.51083945483E+02 -0.61887053907E+03 -0.54747714635E+03  0.91942456971E+03  0.40000000000E+03 0.  1.
   -9000007    1    1    2    0  503 -0.51083945483E+02  0.61887053907E+03 -0.12308136414E+04  0.14354485478E+04  0.40000000000E+03 0.  1.
<mgrwt>
<rscale>  2 0.73865439E+03</rscale>
<asrwt>0</asrwt>
<pdfrwt beam="1">  1       21 0.44352486E-01 0.73865439E+03</pdfrwt>
<pdfrwt beam="2">  1       21 0.31793569E+00 0.73865439E+03</pdfrwt>
<totfact> 0.87481352E+01</totfact>
</mgrwt>
</event>
<event>
 4    1  0.4890517E-002  0.4830811E+03  0.7818608E-02  0.1018292E+00
         21   -1    0    0  501  502  0.00000000000E+00  0.00000000000E+00  0.13981719616E+04  0.13981719616E+04  0.00000000000E+00 0.  1.
         21   -1    0    0  502  503 -0.00000000000E+00 -0.00000000000E+00 -0.21911916789E+03  0.21911916789E+03  0.00000000000E+00 0.  1.
    9000007    1    1    2  501    0 -0.59283804057E+02  0.26429680622E+03  0.98425255182E+03  0.10964125396E+04  0.40000000000E+03 0.  1.
   -9000007    1    1    2    0  503  0.59283804057E+02 -0.26429680622E+03  0.19480024193E+03  0.52087858994E+03  0.40000000000E+03 0.  1.
<mgrwt>
<rscale>  2 0.48308112E+03</rscale>
<asrwt>0</asrwt>
<pdfrwt beam="1">  1       21 0.21510337E+00 0.48308112E+03</pdfrwt>
<pdfrwt beam="2">  1       21 0.33710642E-01 0.48308112E+03</pdfrwt>
<totfact> 0.74373597E+02</totfact>
</mgrwt>
</event>
<event>
 4    1  0.4890517E-002  0.4441875E+03  0.7818608E-02  0.1029470E+00
         21   -1    0    0  501  502  0.00000000000E+00  0.00000000000E+00  0.89990766412E+03  0.89990766412E+03  0.00000000000E+00 0.  1.
         21   -1    0    0  502  503 -0.00000000000E+00 -0.00000000000E+00 -0.43550506643E+03  0.43550506643E+03  0.00000000000E+00 0.  1.
    9000007    1    1    2  501    0  0.15983396593E+03 -0.10842357544E+03  0.70271740714E+03  0.83133285913E+03  0.40000000000E+03 0.  1.
   -9000007    1    1    2    0  503 -0.15983396593E+03  0.10842357544E+03 -0.23831480944E+03  0.50407987142E+03  0.40000000000E+03 0.  1.
<mgrwt>
<rscale>  2 0.44418754E+03</rscale>
<asrwt>0</asrwt>
<pdfrwt beam="1">  1       21 0.13844733E+00 0.44418754E+03</pdfrwt>
<pdfrwt beam="2">  1       21 0.67000780E-01 0.44418754E+03</pdfrwt>
<totfact> 0.63163033E+02</totfact>
</mgrwt>
</event>
<event>
 4    1  0.4890517E-002  0.5369781E+03  0.7818608E-02  0.1004554E+00
         21   -1    0    0  503  502  0.00000000000E+00  0.00000000000E+00  0.16240563735E+04  0.16240563735E+04  0.00000000000E+00 0.  1.
         21   -1    0    0  501  503 -0.00000000000E+00 -0.00000000000E+00 -0.79410820491E+03  0.79410820491E+03  0.00000000000E+00 0. -1.
    9000007    1    1    2  501    0  0.32263497764E+03 -0.15573108603E+03 -0.65040532000E+03  0.84342906058E+03  0.40000000000E+03 0. -1.
   -9000007    1    1    2    0  502 -0.32263497764E+03  0.15573108603E+03  0.14803534886E+04  0.15747355178E+04  0.40000000000E+03 0.  1.
<mgrwt>
<rscale>  2 0.53697812E+03</rscale>
<asrwt>0</asrwt>
<pdfrwt beam="1">  1       21 0.24985483E+00 0.53697812E+03</pdfrwt>
<pdfrwt beam="2">  1       21 0.12217049E+00 0.53697812E+03</pdfrwt>
<totfact> 0.24254554E+01</totfact>
</mgrwt>
</event>
<event>
 4    1  0.4890517E-002  0.4685957E+03  0.7818608E-02  0.1022317E+00
         21   -1    0    0  501  502  0.00000000000E+00  0.00000000000E+00  0.72065212447E+03  0.72065212447E+03  0.00000000000E+00 0.  1.
         21   -1    0    0  502  503 -0.00000000000E+00 -0.00000000000E+00 -0.41210642237E+03  0.41210642237E+03  0.00000000000E+00 0. -1.
    9000007    1    1    2  501    0 -0.35533341484E+02  0.24149384793E+03  0.44342075303E+03  0.64513863717E+03  0.40000000000E+03 0.  1.
   -9000007    1    1    2    0  503  0.35533341484E+02 -0.24149384793E+03 -0.13487505093E+03  0.48761990967E+03  0.40000000000E+03 0. -1.
<mgrwt>
<rscale>  2 0.46859566E+03</rscale>
<asrwt>0</asrwt>
<pdfrwt beam="1">  1       21 0.11086956E+00 0.46859566E+03</pdfrwt>
<pdfrwt beam="2">  1       21 0.63400988E-01 0.46859566E+03</pdfrwt>
<totfact> 0.12489929E+03</totfact>
</mgrwt>
</event>
<event>
 4    1  0.4890517E-002  0.4062748E+03  0.7818608E-02  0.1041628E+00
         21   -1    0    0  503  502  0.00000000000E+00  0.00000000000E+00  0.31295640043E+03  0.31295640043E+03  0.00000000000E+00 0.  1.
         21   -1    0    0  501  503 -0.00000000000E+00 -0.00000000000E+00 -0.77964035951E+03  0.77964035951E+03  0.00000000000E+00 0.  1.
    9000007    1    1    2  501    0  0.55578768564E+02  0.44387287100E+02 -0.54406502858E+03  0.67901839894E+03  0.40000000000E+03 0.  1.
   -9000007    1    1    2    0  502 -0.55578768564E+02 -0.44387287100E+02  0.77381069499E+02  0.41357836100E+03  0.40000000000E+03 0.  1.
<mgrwt>
<rscale>  2 0.40627482E+03</rscale>
<asrwt>0</asrwt>
<pdfrwt beam="1">  1       21 0.48147139E-01 0.40627482E+03</pdfrwt>
<pdfrwt beam="2">  1       21 0.11994467E+00 0.40627482E+03</pdfrwt>
<totfact> 0.19064449E+03</totfact>
</mgrwt>
</event>
<event>
 4    1  0.4890517E-002  0.4639391E+03  0.7818608E-02  0.1023645E+00
         21   -1    0    0  501  502  0.00000000000E+00  0.00000000000E+00  0.16642068245E+03  0.16642068245E+03  0.00000000000E+00 0.  1.
         21   -1    0    0  502  503 -0.00000000000E+00 -0.00000000000E+00 -0.13021100164E+04  0.13021100164E+04  0.00000000000E+00 0.  1.
    9000007    1    1    2  501    0 -0.86844054463E+02  0.21839781425E+03 -0.62808468414E+03  0.78085201256E+03  0.40000000000E+03 0.  1.
   -9000007    1    1    2    0  503  0.86844054463E+02 -0.21839781425E+03 -0.50760464979E+03  0.68767868627E+03  0.40000000000E+03 0.  1.
<mgrwt>
<rscale>  2 0.46393911E+03</rscale>
<asrwt>0</asrwt>
<pdfrwt beam="1">  1       21 0.25603183E-01 0.46393911E+03</pdfrwt>
<pdfrwt beam="2">  1       21 0.20032461E+00 0.46393911E+03</pdfrwt>
<totfact> 0.16189150E+03</totfact>
</mgrwt>
</event>
<event>
 4    1  0.4890517E-002  0.4590222E+03  0.7818608E-02  0.1025065E+00
         21   -1    0    0  503  502  0.00000000000E+00  0.00000000000E+00  0.39214262488E+03  0.39214262488E+03  0.00000000000E+00 0. -1.
         21   -1    0    0  501  503 -0.00000000000E+00 -0.00000000000E+00 -0.64451763280E+03  0.64451763280E+03  0.00000000000E+00 0.  1.
    9000007    1    1    2  501    0 -0.82703137777E+01  0.22501764237E+03 -0.33758805824E+03  0.56979560768E+03  0.40000000000E+03 0. -1.
   -9000007    1    1    2    0  502  0.82703137777E+01 -0.22501764237E+03  0.85213050326E+02  0.46686464999E+03  0.40000000000E+03 0. -1.
<mgrwt>
<rscale>  2 0.45902215E+03</rscale>
<asrwt>0</asrwt>
<pdfrwt beam="1">  1       21 0.60329635E-01 0.45902215E+03</pdfrwt>
<pdfrwt beam="2">  1       21 0.99156559E-01 0.45902215E+03</pdfrwt>
<totfact> 0.18408747E+03</totfact>
</mgrwt>
</event>
<event>
 4    1  0.4890517E-002  0.4378807E+03  0.7818608E-02  0.1031399E+00
         21   -1    0    0  503  502  0.00000000000E+00  0.00000000000E+00  0.11962572549E+04  0.11962572549E+04  0.00000000000E+00 0.  1.
         21   -1    0    0  501  503 -0.00000000000E+00 -0.00000000000E+00 -0.21556497253E+03  0.21556497253E+03  0.00000000000E+00 0. -1.
    9000007    1    1    2  501    0  0.13652398354E+03  0.11445842779E+03  0.13286490390E+03  0.45759437547E+03  0.40000000000E+03 0. -1.
   -9000007    1    1    2    0  502 -0.13652398354E+03 -0.11445842779E+03  0.84782737848E+03  0.95422785197E+03  0.40000000000E+03 0.  1.
<mgrwt>
<rscale>  2 0.43788073E+03</rscale>
<asrwt>0</asrwt>
<pdfrwt beam="1">  1       21 0.18403957E+00 0.43788073E+03</pdfrwt>
<pdfrwt beam="2">  1       21 0.33163843E-01 0.43788073E+03</pdfrwt>
<totfact> 0.12661363E+03</totfact>
</mgrwt>
</event>
<event>
 4    1  0.4890517E-002  0.4545192E+03  0.7818608E-02  0.1026383E+00
         21   -1    0    0  503  502  0.00000000000E+00  0.00000000000E+00  0.89628095778E+03  0.89628095778E+03  0.00000000000E+00 0.  1.
         21   -1    0    0  501  503 -0.00000000000E+00 -0.00000000000E+00 -0.31901985617E+03  0.31901985617E+03  0.00000000000E+00 0.  1.
    9000007    1    1    2  501    0  0.65961157468E+02 -0.20551597388E+03 -0.31464650905E+02  0.45560697325E+03  0.40000000000E+03 0.  1.
   -9000007    1    1    2    0  502 -0.65961157468E+02  0.20551597388E+03  0.60872575252E+03  0.75969384070E+03  0.40000000000E+03 0.  1.
<mgrwt>
<rscale>  2 0.45451919E+03</rscale>
<asrwt>0</asrwt>
<pdfrwt beam="1">  1       21 0.13788938E+00 0.45451919E+03</pdfrwt>
<pdfrwt beam="2">  1       21 0.49079978E-01 0.45451919E+03</pdfrwt>
<totfact> 0.12509764E+03</totfact>
</mgrwt>
</event>
<event>
 4    1  0.4890517E-002  0.4305485E+03  0.7818608E-02  0.1033687E+00
         21   -1    0    0  501  502  0.00000000000E+00  0.00000000000E+00  0.40822344323E+03  0.40822344323E+03  0.00000000000E+00 0.  1.
         21   -1    0    0  502  503 -0.00000000000E+00 -0.00000000000E+00 -0.51162999639E+03  0.51162999639E+03  0.00000000000E+00 0.  1.
    9000007    1    1    2  501    0  0.65014042200E+02 -0.14541388733E+03  0.10253016055E+03  0.44258836195E+03  0.40000000000E+03 0.  1.
   -9000007    1    1    2    0  503 -0.65014042200E+02  0.14541388733E+03 -0.20593671371E+03  0.47726507767E+03  0.40000000000E+03 0.  1.
<mgrwt>
<rscale>  2 0.43054852E+03</rscale>
<asrwt>0</asrwt>
<pdfrwt beam="1">  1       21 0.62803607E-01 0.43054852E+03</pdfrwt>
<pdfrwt beam="2">  1       21 0.78712306E-01 0.43054852E+03</pdfrwt>
<totfact> 0.29362260E+03</totfact>
</mgrwt>
</event>
<event>
 4    1  0.4890517E-002  0.4494344E+03  0.7818608E-02  0.1027891E+00
         21   -1    0    0  503  502  0.00000000000E+00  0.00000000000E+00  0.29131251191E+04  0.29131251191E+04  0.00000000000E+00 0.  1.
         21   -1    0    0  501  503 -0.00000000000E+00 -0.00000000000E+00 -0.92357055689E+02  0.92357055689E+02  0.00000000000E+00 0.  1.
    9000007    1    1    2  501    0  0.15260789079E+03  0.13675571171E+03  0.66016244091E+03  0.79862741087E+03  0.40000000000E+03 0.  1.
   -9000007    1    1    2    0  502 -0.15260789079E+03 -0.13675571171E+03  0.21606056225E+04  0.22068547639E+04  0.40000000000E+03 0.  1.
<mgrwt>
<rscale>  2 0.44943441E+03</rscale>
<asrwt>0</asrwt>
<pdfrwt beam="1">  1       21 0.44817302E+00 0.44943441E+03</pdfrwt>
<pdfrwt beam="2">  1       21 0.14208780E-01 0.44943441E+03</pdfrwt>
<totfact> 0.13966720E+02</totfact>
</mgrwt>
</event>
<event>
 4    1  0.4890517E-002  0.4960773E+03  0.7818608E-02  0.1014808E+00
         21   -1    0    0  503  502  0.00000000000E+00  0.00000000000E+00  0.10531535246E+03  0.10531535246E+03  0.00000000000E+00 0. -1.
         21   -1    0    0  501  503 -0.00000000000E+00 -0.00000000000E+00 -0.24043248792E+04  0.24043248792E+04  0.00000000000E+00 0. -1.
    9000007    1    1    2  501    0 -0.28116457303E+03 -0.83899860183E+02 -0.13599152656E+04  0.14475711496E+04  0.40000000000E+03 0. -1.
   -9000007    1    1    2    0  502  0.28116457303E+03  0.83899860183E+02 -0.93909426110E+03  0.10620690820E+04  0.40000000000E+03 0. -1.
<mgrwt>
<rscale>  2 0.49607732E+03</rscale>
<asrwt>0</asrwt>
<pdfrwt beam="1">  1       21 0.16202362E-01 0.49607732E+03</pdfrwt>
<pdfrwt beam="2">  1       21 0.36989614E+00 0.49607732E+03</pdfrwt>
<totfact> 0.34215908E+02</totfact>
</mgrwt>
</event>
<event>
 4    1  0.4890517E-002  0.4774311E+03  0.7818608E-02  0.1019844E+00
         21   -1    0    0  501  502  0.00000000000E+00  0.00000000000E+00  0.20566354126E+03  0.20566354126E+03  0.00000000000E+00 0. -1.
         21   -1    0    0  502  503 -0.00000000000E+00 -0.00000000000E+00 -0.12306829196E+04  0.12306829196E+04  0.00000000000E+00 0. -1.
    9000007    1    1    2  501    0  0.11576358744E+03 -0.23353634099E+03 -0.73896686785E+03  0.87977978070E+03  0.40000000000E+03 0. -1.
   -9000007    1    1    2    0  503 -0.11576358744E+03  0.23353634099E+03 -0.28605251053E+03  0.55656668021E+03  0.40000000000E+03 0. -1.
<mgrwt>
<rscale>  2 0.47743107E+03</rscale>
<asrwt>0</asrwt>
<pdfrwt beam="1">  1       21 0.31640545E-01 0.47743107E+03</pdfrwt>
<pdfrwt beam="2">  1       21 0.18933583E+00 0.47743107E+03</pdfrwt>
<totfact> 0.12572008E+03</totfact>
</mgrwt>
</event>
<event>
 4    1  0.4890517E-002  0.6296242E+03  0.7818608E-02  0.9845782E-01
         21   -1    0    0  503  502  0.00000000000E+00  0.00000000000E+00  0.86325094044E+03  0.86325094044E+03  0.00000000000E+00 0. -1.
         21   -1    0    0  501  503 -0.00000000000E+00 -0.00000000000E+00 -0.13081560044E+04  0.13081560044E+04  0.00000000000E+00 0.  1.
    9000007    1    1    2  501    0  0.36964775540E+03  0.31589105137E+03 -0.10970688860E+04  0.12649058305E+04  0.40000000000E+03 0.  1.
   -9000007    1    1    2    0  502 -0.36964775540E+03 -0.31589105137E+03  0.65216382207E+03  0.90650111430E+03  0.40000000000E+03 0. -1.
<mgrwt>
<rscale>  2 0.62962419E+03</rscale>
<asrwt>0</asrwt>
<pdfrwt beam="1">  1       21 0.13280784E+00 0.62962419E+03</pdfrwt>
<pdfrwt beam="2">  1       21 0.20125477E+00 0.62962419E+03</pdfrwt>
<totfact> 0.38258520E+01</totfact>
</mgrwt>
</event>
<event>
 4    1  0.4890517E-002  0.4790361E+03  0.7818608E-02  0.1019400E+00
         21   -1    0    0  503  502  0.00000000000E+00  0.00000000000E+00  0.43409937355E+03  0.43409937355E+03  0.00000000000E+00 0.  1.
         21   -1    0    0  501  503 -0.00000000000E+00 -0.00000000000E+00 -0.53568983424E+03  0.53568983424E+03  0.00000000000E+00 0.  1.
    9000007    1    1    2  501    0 -0.19103768810E+03  0.18160450174E+03 -0.10648237488E+03  0.49072812176E+03  0.40000000000E+03 0.  1.
   -9000007    1    1    2    0  502  0.19103768810E+03 -0.18160450174E+03  0.48919141900E+01  0.47906108603E+03  0.40000000000E+03 0.  1.
<mgrwt>
<rscale>  2 0.47903611E+03</rscale>
<asrwt>0</asrwt>
<pdfrwt beam="1">  1       21 0.66784519E-01 0.47903611E+03</pdfrwt>
<pdfrwt beam="2">  1       21 0.82413820E-01 0.47903611E+03</pdfrwt>
<totfact> 0.22634384E+03</totfact>
</mgrwt>
</event>
<event>
 4    1  0.4890517E-002  0.4659343E+03  0.7818608E-02  0.1023074E+00
         21   -1    0    0  503  502  0.00000000000E+00  0.00000000000E+00  0.23682441018E+03  0.23682441018E+03  0.00000000000E+00 0. -1.
         21   -1    0    0  501  503 -0.00000000000E+00 -0.00000000000E+00 -0.10071929242E+04  0.10071929242E+04  0.00000000000E+00 0. -1.
    9000007    1    1    2  501    0  0.18406475219E+03  0.15236447224E+03 -0.57163727393E+03  0.73747131358E+03  0.40000000000E+03 0. -1.
   -9000007    1    1    2    0  502 -0.18406475219E+03 -0.15236447224E+03 -0.19873124009E+03  0.50654602080E+03  0.40000000000E+03 0. -1.
<mgrwt>
<rscale>  2 0.46593429E+03</rscale>
<asrwt>0</asrwt>
<pdfrwt beam="1">  1       21 0.36434525E-01 0.46593429E+03</pdfrwt>
<pdfrwt beam="2">  1       21 0.15495276E+00 0.46593429E+03</pdfrwt>
<totfact> 0.16881907E+03</totfact>
</mgrwt>
</event>
<event>
 4    1  0.4890517E-002  0.4860774E+03  0.7818608E-02  0.1017478E+00
         21   -1    0    0  501  502  0.00000000000E+00  0.00000000000E+00  0.12126851691E+03  0.12126851691E+03  0.00000000000E+00 0.  1.
         21   -1    0    0  502  503 -0.00000000000E+00 -0.00000000000E+00 -0.20457429137E+04  0.20457429137E+04  0.00000000000E+00 0.  1.
    9000007    1    1    2  501    0  0.25376875422E+03 -0.10896176168E+03 -0.72580257895E+03  0.87353341650E+03  0.40000000000E+03 0.  1.
   -9000007    1    1    2    0  503 -0.25376875422E+03  0.10896176168E+03 -0.11986718178E+04  0.12934780141E+04  0.40000000000E+03 0.  1.
<mgrwt>
<rscale>  2 0.48607741E+03</rscale>
<asrwt>0</asrwt>
<pdfrwt beam="1">  1       21 0.18656695E-01 0.48607741E+03</pdfrwt>
<pdfrwt beam="2">  1       21 0.31472968E+00 0.48607741E+03</pdfrwt>
<totfact> 0.57527734E+02</totfact>
</mgrwt>
</event>
<event>
 4    1  0.4890517E-002  0.4769138E+03  0.7818608E-02  0.1019987E+00
         21   -1    0    0  503  502  0.00000000000E+00  0.00000000000E+00  0.45846848419E+03  0.45846848419E+03  0.00000000000E+00 0. -1.
         21   -1    0    0  501  503 -0.00000000000E+00 -0.00000000000E+00 -0.60199887612E+03  0.60199887612E+03  0.00000000000E+00 0.  1.
    9000007    1    1    2  501    0 -0.17009503671E+03 -0.19625096276E+03 -0.29415388756E+03  0.56033317898E+03  0.40000000000E+03 0.  1.
   -9000007    1    1    2    0  502  0.17009503671E+03  0.19625096276E+03  0.15062349562E+03  0.50013418133E+03  0.40000000000E+03 0. -1.
<mgrwt>
<rscale>  2 0.47691379E+03</rscale>
<asrwt>0</asrwt>
<pdfrwt beam="1">  1       21 0.70533613E-01 0.47691379E+03</pdfrwt>
<pdfrwt beam="2">  1       21 0.92615211E-01 0.47691379E+03</pdfrwt>
<totfact> 0.15216932E+03</totfact>
</mgrwt>
</event>
<event>
 4    1  0.4890517E-002  0.4176544E+03  0.7818608E-02  0.1037832E+00
         21   -1    0    0  501  502  0.00000000000E+00  0.00000000000E+00  0.35533800787E+03  0.35533800787E+03  0.00000000000E+00 0.  1.
         21   -1    0    0  502  503 -0.00000000000E+00 -0.00000000000E+00 -0.49415764657E+03  0.49415764657E+03  0.00000000000E+00 0. -1.
    9000007    1    1    2  501    0 -0.11333205990E+03 -0.39887917712E+02 -0.10389979063E+03  0.43038397771E+03  0.40000000000E+03 0. -1.
   -9000007    1    1    2    0  503  0.11333205990E+03  0.39887917712E+02 -0.34919848063E+02  0.41911167673E+03  0.40000000000E+03 0. -1.
<mgrwt>
<rscale>  2 0.41765440E+03</rscale>
<asrwt>0</asrwt>
<pdfrwt beam="1">  1       21 0.54667386E-01 0.41765440E+03</pdfrwt>
<pdfrwt beam="2">  1       21 0.76024253E-01 0.41765440E+03</pdfrwt>
<totfact> 0.43227851E+03</totfact>
</mgrwt>
</event>
<event>
 4    1  0.4890517E-002  0.4904317E+03  0.7818608E-02  0.1016307E+00
         21   -1    0    0  503  502  0.00000000000E+00  0.00000000000E+00  0.41839942476E+03  0.41839942476E+03  0.00000000000E+00 0. -1.
         21   -1    0    0  501  503 -0.00000000000E+00 -0.00000000000E+00 -0.70379153556E+03  0.70379153556E+03  0.00000000000E+00 0. -1.
    9000007    1    1    2  501    0  0.25919229652E+03  0.11551006847E+03 -0.38284780629E+03  0.62217012567E+03  0.40000000000E+03 0. -1.
   -9000007    1    1    2    0  502 -0.25919229652E+03 -0.11551006847E+03  0.97455695501E+02  0.50002083465E+03  0.40000000000E+03 0. -1.
<mgrwt>
<rscale>  2 0.49043167E+03</rscale>
<asrwt>0</asrwt>
<pdfrwt beam="1">  1       21 0.64369143E-01 0.49043167E+03</pdfrwt>
<pdfrwt beam="2">  1       21 0.10827562E+00 0.49043167E+03</pdfrwt>
<totfact> 0.12702573E+03</totfact>
</mgrwt>
</event>
<event>
 4    1  0.4890517E-002  0.4463613E+03  0.7818608E-02  0.1028813E+00
         21   -1    0    0  503  502  0.00000000000E+00  0.00000000000E+00  0.25775094542E+03  0.25775094542E+03  0.00000000000E+00 0. -1.
         21   -1    0    0  501  503 -0.00000000000E+00 -0.00000000000E+00 -0.87601349022E+03  0.87601349022E+03  0.00000000000E+00 0. -1.
    9000007    1    1    2  501    0 -0.18594711100E+03 -0.68279523814E+02 -0.50353720168E+03  0.67289533729E+03  0.40000000000E+03 0. -1.
   -9000007    1    1    2    0  502  0.18594711100E+03  0.68279523814E+02 -0.11472534312E+03  0.46086909835E+03  0.40000000000E+03 0. -1.
<mgrwt>
<rscale>  2 0.44636131E+03</rscale>
<asrwt>0</asrwt>
<pdfrwt beam="1">  1       21 0.39653993E-01 0.44636131E+03</pdfrwt>
<pdfrwt beam="2">  1       21 0.13477130E+00 0.44636131E+03</pdfrwt>
<totfact> 0.20811564E+03</totfact>
</mgrwt>
</event>
<event>
 4    1  0.4890517E-002  0.4789111E+03  0.7818608E-02  0.1019435E+00
         21   -1    0    0  503  502  0.00000000000E+00  0.00000000000E+00  0.73726762243E+03  0.73726762243E+03  0.00000000000E+00 0. -1.
         21   -1    0    0  501  503 -0.00000000000E+00 -0.00000000000E+00 -0.31548543448E+03  0.31548543448E+03  0.00000000000E+00 0. -1.
    9000007    1    1    2  501    0  0.11851275256E+03 -0.23518206617E+03  0.14875339116E+03  0.50148125404E+03  0.40000000000E+03 0. -1.
   -9000007    1    1    2    0  502 -0.11851275256E+03  0.23518206617E+03  0.27302879679E+03  0.55127180287E+03  0.40000000000E+03 0. -1.
<mgrwt>
<rscale>  2 0.47891114E+03</rscale>
<asrwt>0</asrwt>
<pdfrwt beam="1">  1       21 0.11342579E+00 0.47891114E+03</pdfrwt>
<pdfrwt beam="2">  1       21 0.48536221E-01 0.47891114E+03</pdfrwt>
<totfact> 0.20965388E+03</totfact>
</mgrwt>
</event>
<event>
 4    1  0.4890517E-002  0.4602944E+03  0.7818608E-02  0.1024696E+00
         21   -1    0    0  501  502  0.00000000000E+00  0.00000000000E+00  0.73516027787E+02  0.73516027787E+02  0.00000000000E+00 0. -1.
         21   -1    0    0  502  503 -0.00000000000E+00 -0.00000000000E+00 -0.29854836360E+04  0.29854836360E+04  0.00000000000E+00 0.  1.
    9000007    1    1    2  501    0  0.40639333642E+02  0.22409676079E+03 -0.17407857485E+04  0.18006126557E+04  0.40000000000E+03 0. -1.
   -9000007    1    1    2    0  503 -0.40639333642E+02 -0.22409676079E+03 -0.11711818597E+04  0.12583870081E+04  0.40000000000E+03 0. -1.
<mgrwt>
<rscale>  2 0.46029438E+03</rscale>
<asrwt>0</asrwt>
<pdfrwt beam="1">  1       21 0.11310158E-01 0.46029438E+03</pdfrwt>
<pdfrwt beam="2">  1       21 0.45930517E+00 0.46029438E+03</pdfrwt>
<totfact> 0.17683092E+02</totfact>
</mgrwt>
</event>
<event>
 4    1  0.4890517E-002  0.4897183E+03  0.7818608E-02  0.1016498E+00
         21   -1    0    0  501  502  0.00000000000E+00  0.00000000000E+00  0.28834879377E+03  0.28834879377E+03  0.00000000000E+00 0.  1.
         21   -1    0    0  502  503 -0.00000000000E+00 -0.00000000000E+00 -0.20213765792E+04  0.20213765792E+04  0.00000000000E+00 0.  1.
    9000007    1    1    2  501    0 -0.19172282384E+03 -0.20752431107E+03  0.19455004312E+02  0.49010455829E+03  0.40000000000E+03 0.  1.
   -9000007    1    1    2    0  503  0.19172282384E+03  0.20752431107E+03 -0.17524827898E+04  0.18196208147E+04  0.40000000000E+03 0.  1.
<mgrwt>
<rscale>  2 0.48971827E+03</rscale>
<asrwt>0</asrwt>
<pdfrwt beam="1">  1       21 0.44361352E-01 0.48971827E+03</pdfrwt>
<pdfrwt beam="2">  1       21 0.31098102E+00 0.48971827E+03</pdfrwt>
<totfact> 0.10840028E+02</totfact>
</mgrwt>
</event>
<event>
 4    1  0.4890517E-002  0.4303718E+03  0.7818608E-02  0.1033743E+00
         21   -1    0    0  503  502  0.00000000000E+00  0.00000000000E+00  0.34516997115E+03  0.34516997115E+03  0.00000000000E+00 0. -1.
         21   -1    0    0  501  503 -0.00000000000E+00 -0.00000000000E+00 -0.60892105940E+03  0.60892105940E+03  0.00000000000E+00 0.  1.
    9000007    1    1    2  501    0 -0.15852968467E+03  0.93906399252E+01  0.32522806610E+02  0.43159886236E+03  0.40000000000E+03 0. -1.
   -9000007    1    1    2    0  502  0.15852968467E+03 -0.93906399252E+01 -0.29627389486E+03  0.52249216819E+03  0.40000000000E+03 0.  1.
<mgrwt>
<rscale>  2 0.43037175E+03</rscale>
<asrwt>0</asrwt>
<pdfrwt beam="1">  1       21 0.53103073E-01 0.43037175E+03</pdfrwt>
<pdfrwt beam="2">  1       21 0.93680163E-01 0.43037175E+03</pdfrwt>
<totfact> 0.28131995E+03</totfact>
</mgrwt>
</event>
<event>
 4    1  0.4890517E-002  0.4466120E+03  0.7818608E-02  0.1028737E+00
         21   -1    0    0  503  502  0.00000000000E+00  0.00000000000E+00  0.74042680561E+03  0.74042680561E+03  0.00000000000E+00 0. -1.
         21   -1    0    0  501  503 -0.00000000000E+00 -0.00000000000E+00 -0.52309998580E+03  0.52309998580E+03  0.00000000000E+00 0.  1.
    9000007    1    1    2  501    0  0.16622699186E+03  0.10876975813E+03 -0.33131604073E+03  0.55608685648E+03  0.40000000000E+03 0.  1.
   -9000007    1    1    2    0  502 -0.16622699186E+03 -0.10876975813E+03  0.54864286054E+03  0.70743993492E+03  0.40000000000E+03 0. -1.
<mgrwt>
<rscale>  2 0.44661199E+03</rscale>
<asrwt>0</asrwt>
<pdfrwt beam="1">  1       21 0.11391182E+00 0.44661199E+03</pdfrwt>
<pdfrwt beam="2">  1       21 0.80476921E-01 0.44661199E+03</pdfrwt>
<totfact> 0.68695024E+02</totfact>
</mgrwt>
</event>
<event>
 4    1  0.4890517E-002  0.4372078E+03  0.7818608E-02  0.1031607E+00
         21   -1    0    0  503  502  0.00000000000E+00  0.00000000000E+00  0.86316765160E+03  0.86316765160E+03  0.00000000000E+00 0.  1.
         21   -1    0    0  501  503 -0.00000000000E+00 -0.00000000000E+00 -0.23314231523E+03  0.23314231523E+03  0.00000000000E+00 0.  1.
    9000007    1    1    2  501    0  0.12091403750E+02 -0.17608084658E+03  0.19226989127E+03  0.47761739674E+03  0.40000000000E+03 0.  1.
   -9000007    1    1    2    0  502 -0.12091403750E+02  0.17608084658E+03  0.43775544510E+03  0.61869257010E+03  0.40000000000E+03 0.  1.
<mgrwt>
<rscale>  2 0.43720781E+03</rscale>
<asrwt>0</asrwt>
<pdfrwt beam="1">  1       21 0.13279502E+00 0.43720781E+03</pdfrwt>
<pdfrwt beam="2">  1       21 0.35868049E-01 0.43720781E+03</pdfrwt>
<totfact> 0.26643622E+03</totfact>
</mgrwt>
</event>
<event>
 4    1  0.4890517E-002  0.8176383E+03  0.7818608E-02  0.9534832E-01
         21   -1    0    0  501  502  0.00000000000E+00  0.00000000000E+00  0.86866865255E+03  0.86866865255E+03  0.00000000000E+00 0.  1.
         21   -1    0    0  502  503 -0.00000000000E+00 -0.00000000000E+00 -0.88522808801E+03  0.88522808801E+03  0.00000000000E+00 0. -1.
    9000007    1    1    2  501    0 -0.98208669368E+02 -0.70631968247E+03  0.30865309506E+03  0.87395604562E+03  0.40000000000E+03 0.  1.
   -9000007    1    1    2    0  503  0.98208669368E+02  0.70631968247E+03 -0.32521253052E+03  0.87994069493E+03  0.40000000000E+03 0. -1.
<mgrwt>
<rscale>  2 0.81763833E+03</rscale>
<asrwt>0</asrwt>
<pdfrwt beam="1">  1       21 0.13364133E+00 0.81763833E+03</pdfrwt>
<pdfrwt beam="2">  1       21 0.13618894E+00 0.81763833E+03</pdfrwt>
<totfact> 0.10845003E+02</totfact>
</mgrwt>
</event>
<event>
 4    1  0.4890517E-002  0.4534721E+03  0.7818608E-02  0.1026692E+00
         21   -1    0    0  501  502  0.00000000000E+00  0.00000000000E+00  0.75937484202E+02  0.75937484202E+02  0.00000000000E+00 0. -1.
         21   -1    0    0  502  503 -0.00000000000E+00 -0.00000000000E+00 -0.27923587735E+04  0.27923587735E+04  0.00000000000E+00 0. -1.
    9000007    1    1    2  501    0  0.19069267635E+03  0.96297551463E+02 -0.16075175259E+04  0.16702543254E+04  0.40000000000E+03 0. -1.
   -9000007    1    1    2    0  503 -0.19069267635E+03 -0.96297551463E+02 -0.11089037634E+04  0.11980419324E+04  0.40000000000E+03 0. -1.
<mgrwt>
<rscale>  2 0.45347207E+03</rscale>
<asrwt>0</asrwt>
<pdfrwt beam="1">  1       21 0.11682693E-01 0.45347207E+03</pdfrwt>
<pdfrwt beam="2">  1       21 0.42959353E+00 0.45347207E+03</pdfrwt>
<totfact> 0.26543870E+02</totfact>
</mgrwt>
</event>
<event>
 4    1  0.4890517E-002  0.4003618E+03  0.7818608E-02  0.1043654E+00
         21   -1    0    0  503  502  0.00000000000E+00  0.00000000000E+00  0.16623516111E+04  0.16623516111E+04  0.00000000000E+00 0.  1.
         21   -1    0    0  501  503 -0.00000000000E+00 -0.00000000000E+00 -0.14449029369E+03  0.14449029369E+03  0.00000000000E+00 0.  1.
    9000007    1    1    2  501    0 -0.16475660955E+02 -0.42542008392E+01  0.23786316313E+03  0.46569134628E+03  0.40000000000E+03 0.  1.
   -9000007    1    1    2    0  502  0.16475660955E+02  0.42542008392E+01  0.12799981543E+04  0.13411505585E+04  0.40000000000E+03 0.  1.
<mgrwt>
<rscale>  2 0.40036177E+03</rscale>
<asrwt>0</asrwt>
<pdfrwt beam="1">  1       21 0.25574639E+00 0.40036177E+03</pdfrwt>
<pdfrwt beam="2">  1       21 0.22229277E-01 0.40036177E+03</pdfrwt>
<totfact> 0.97960881E+02</totfact>
</mgrwt>
</event>
<event>
 4    1  0.4890517E-002  0.4020876E+03  0.7818608E-02  0.1043059E+00
         21   -1    0    0  501  502  0.00000000000E+00  0.00000000000E+00  0.41301749482E+03  0.41301749482E+03  0.00000000000E+00 0.  1.
         21   -1    0    0  502  503 -0.00000000000E+00 -0.00000000000E+00 -0.44257924628E+03  0.44257924628E+03  0.00000000000E+00 0.  1.
    9000007    1    1    2  501    0  0.33239682478E+02 -0.23865128523E+02  0.13062817356E+03  0.42277433765E+03  0.40000000000E+03 0. -1.
   -9000007    1    1    2    0  503 -0.33239682478E+02  0.23865128523E+02 -0.16018992502E+03  0.43282240345E+03  0.40000000000E+03 0. -1.
<mgrwt>
<rscale>  2 0.40208758E+03</rscale>
<asrwt>0</asrwt>
<pdfrwt beam="1">  1       21 0.63541153E-01 0.40208758E+03</pdfrwt>
<pdfrwt beam="2">  1       21 0.68089115E-01 0.40208758E+03</pdfrwt>
<totfact> 0.40177262E+03</totfact>
</mgrwt>
</event>
<event>
 4    1  0.4890517E-002  0.5175074E+03  0.7818608E-02  0.1009308E+00
         21   -1    0    0  501  502  0.00000000000E+00  0.00000000000E+00  0.72046328495E+03  0.72046328495E+03  0.00000000000E+00 0. -1.
         21   -1    0    0  502  503 -0.00000000000E+00 -0.00000000000E+00 -0.52776664547E+03  0.52776664547E+03  0.00000000000E+00 0. -1.
    9000007    1    1    2  501    0  0.27208266411E+03  0.18380667122E+03  0.43571137079E+03  0.67650444724E+03  0.40000000000E+03 0. -1.
   -9000007    1    1    2    0  503 -0.27208266411E+03 -0.18380667122E+03 -0.24301473131E+03  0.57172548319E+03  0.40000000000E+03 0. -1.
<mgrwt>
<rscale>  2 0.51750736E+03</rscale>
<asrwt>0</asrwt>
<pdfrwt beam="1">  1       21 0.11084051E+00 0.51750736E+03</pdfrwt>
<pdfrwt beam="2">  1       21 0.81194868E-01 0.51750736E+03</pdfrwt>
<totfact> 0.70006296E+02</totfact>
</mgrwt>
</event>
<event>
 4    1  0.4890517E-002  0.4564069E+03  0.7818608E-02  0.1025828E+00
         21   -1    0    0  503  502  0.00000000000E+00  0.00000000000E+00  0.48112214600E+03  0.48112214600E+03  0.00000000000E+00 0.  1.
         21   -1    0    0  501  503 -0.00000000000E+00 -0.00000000000E+00 -0.46250433491E+03  0.46250433491E+03  0.00000000000E+00 0. -1.
    9000007    1    1    2  501    0 -0.59737260778E+02  0.21151522852E+03  0.12855395231E+03  0.47416595289E+03  0.40000000000E+03 0.  1.
   -9000007    1    1    2    0  502  0.59737260778E+02 -0.21151522852E+03 -0.10993614123E+03  0.46946052802E+03  0.40000000000E+03 0. -1.
<mgrwt>
<rscale>  2 0.45640687E+03</rscale>
<asrwt>0</asrwt>
<pdfrwt beam="1">  1       21 0.74018792E-01 0.45640687E+03</pdfrwt>
<pdfrwt beam="2">  1       21 0.71154513E-01 0.45640687E+03</pdfrwt>
<totfact> 0.25336457E+03</totfact>
</mgrwt>
</event>
<event>
 4    1  0.4890517E-002  0.6040687E+03  0.7818608E-02  0.9897001E-01
         21   -1    0    0  503  502  0.00000000000E+00  0.00000000000E+00  0.45042638331E+03  0.45042638331E+03  0.00000000000E+00 0. -1.
         21   -1    0    0  501  503 -0.00000000000E+00 -0.00000000000E+00 -0.26106406286E+04  0.26106406286E+04  0.00000000000E+00 0. -1.
    9000007    1    1    2  501    0  0.34673857620E+03 -0.29098342771E+03 -0.23511741711E+04  0.24275335174E+04  0.40000000000E+03 0. -1.
   -9000007    1    1    2    0  502 -0.34673857620E+03  0.29098342771E+03  0.19095992577E+03  0.63353349452E+03  0.40000000000E+03 0. -1.
<mgrwt>
<rscale>  2 0.60406870E+03</rscale>
<asrwt>0</asrwt>
<pdfrwt beam="1">  1       21 0.69296365E-01 0.60406870E+03</pdfrwt>
<pdfrwt beam="2">  1       21 0.40163703E+00 0.60406870E+03</pdfrwt>
<totfact> 0.10472295E+01</totfact>
</mgrwt>
</event>
<event>
 4    1  0.4890517E-002  0.4519661E+03  0.7818608E-02  0.1027137E+00
         21   -1    0    0  501  502  0.00000000000E+00  0.00000000000E+00  0.20608045751E+03  0.20608045751E+03  0.00000000000E+00 0. -1.
         21   -1    0    0  502  503 -0.00000000000E+00 -0.00000000000E+00 -0.15214154547E+04  0.15214154547E+04  0.00000000000E+00 0. -1.
    9000007    1    1    2  501    0  0.20258839535E+03 -0.56844304024E+02 -0.11675576530E+04  0.12519841077E+04  0.40000000000E+03 0. -1.
   -9000007    1    1    2    0  503 -0.20258839535E+03  0.56844304024E+02 -0.14777734427E+03  0.47551180460E+03  0.40000000000E+03 0. -1.
<mgrwt>
<rscale>  2 0.45196607E+03</rscale>
<asrwt>0</asrwt>
<pdfrwt beam="1">  1       21 0.31704686E-01 0.45196607E+03</pdfrwt>
<pdfrwt beam="2">  1       21 0.23406391E+00 0.45196607E+03</pdfrwt>
<totfact> 0.64689636E+02</totfact>
</mgrwt>
</event>
<event>
 4    1  0.4890517E-002  0.4409690E+03  0.7818608E-02  0.1030450E+00
         21   -1    0    0  501  502  0.00000000000E+00  0.00000000000E+00  0.37385552681E+04  0.37385552681E+04  0.00000000000E+00 0.  1.
         21   -1    0    0  502  503 -0.00000000000E+00 -0.00000000000E+00 -0.63621734810E+02  0.63621734810E+02  0.00000000000E+00 0.  1.
    9000007    1    1    2  501    0 -0.16369402338E+03 -0.87509521652E+02  0.26495324412E+04  0.26859776258E+04  0.40000000000E+03 0.  1.
   -9000007    1    1    2    0  503  0.16369402338E+03  0.87509521652E+02  0.10254010922E+04  0.11161993771E+04  0.40000000000E+03 0.  1.
<mgrwt>
<rscale>  2 0.44096899E+03</rscale>
<asrwt>0</asrwt>
<pdfrwt beam="1">  1       21 0.57516218E+00 0.44096899E+03</pdfrwt>
<pdfrwt beam="2">  1       21 0.97879621E-02 0.44096899E+03</pdfrwt>
<totfact> 0.33567847E+01</totfact>
</mgrwt>
</event>
<event>
 4    1  0.4890517E-002  0.4733700E+03  0.7818608E-02  0.1020973E+00
         21   -1    0    0  501  502  0.00000000000E+00  0.00000000000E+00  0.78979933025E+03  0.78979933025E+03  0.00000000000E+00 0.  1.
         21   -1    0    0  502  503 -0.00000000000E+00 -0.00000000000E+00 -0.29898048477E+03  0.29898048477E+03  0.00000000000E+00 0. -1.
    9000007    1    1    2  501    0  0.11969776180E+02 -0.25285549881E+03  0.36841398417E+03  0.59984001413E+03  0.40000000000E+03 0.  1.
   -9000007    1    1    2    0  503 -0.11969776180E+02  0.25285549881E+03  0.12240486131E+03  0.48893980089E+03  0.40000000000E+03 0. -1.
<mgrwt>
<rscale>  2 0.47337002E+03</rscale>
<asrwt>0</asrwt>
<pdfrwt beam="1">  1       21 0.12150759E+00 0.47337002E+03</pdfrwt>
<pdfrwt beam="2">  1       21 0.45996998E-01 0.47337002E+03</pdfrwt>
<totfact> 0.19778569E+03</totfact>
</mgrwt>
</event>
<event>
 4    1  0.4890517E-002  0.4870408E+03  0.7818608E-02  0.1017218E+00
         21   -1    0    0  501  502  0.00000000000E+00  0.00000000000E+00  0.25573773531E+03  0.25573773531E+03  0.00000000000E+00 0.  1.
         21   -1    0    0  502  503 -0.00000000000E+00 -0.00000000000E+00 -0.95896822683E+03  0.95896822683E+03  0.00000000000E+00 0. -1.
    9000007    1    1    2  501    0 -0.17242408938E+02 -0.27732920210E+03 -0.46155383144E+03  0.67099979607E+03  0.40000000000E+03 0.  1.
   -9000007    1    1    2    0  503  0.17242408938E+02  0.27732920210E+03 -0.24167666008E+03  0.54370616608E+03  0.40000000000E+03 0. -1.
<mgrwt>
<rscale>  2 0.48704085E+03</rscale>
<asrwt>0</asrwt>
<pdfrwt beam="1">  1       21 0.39344266E-01 0.48704085E+03</pdfrwt>
<pdfrwt beam="2">  1       21 0.14753358E+00 0.48704085E+03</pdfrwt>
<totfact> 0.16357191E+03</totfact>
</mgrwt>
</event>
<event>
 4    1  0.4890517E-002  0.9550910E+03  0.7818608E-02  0.9359220E-01
         21   -1    0    0  503  502  0.00000000000E+00  0.00000000000E+00  0.10292960298E+04  0.10292960298E+04  0.00000000000E+00 0. -1.
         21   -1    0    0  501  503 -0.00000000000E+00 -0.00000000000E+00 -0.90809750760E+03  0.90809750760E+03  0.00000000000E+00 0. -1.
    9000007    1    1    2  501    0 -0.36067505167E+03 -0.78874101199E+03  0.21090125610E+03  0.97809928776E+03  0.40000000000E+03 0. -1.
   -9000007    1    1    2    0  502  0.36067505167E+03  0.78874101199E+03 -0.89702733914E+02  0.95929424963E+03  0.40000000000E+03 0. -1.
<mgrwt>
<rscale>  2 0.95509103E+03</rscale>
<asrwt>0</asrwt>
<pdfrwt beam="1">  1       21 0.15835324E+00 0.95509103E+03</pdfrwt>
<pdfrwt beam="2">  1       21 0.13970731E+00 0.95509103E+03</pdfrwt>
<totfact> 0.61180709E+01</totfact>
</mgrwt>
</event>
<event>
 4    1  0.4890517E-002  0.5494286E+03  0.7818608E-02  0.1001626E+00
         21   -1    0    0  503  502  0.00000000000E+00  0.00000000000E+00  0.61828563107E+03  0.61828563107E+03  0.00000000000E+00 0. -1.
         21   -1    0    0  501  503 -0.00000000000E+00 -0.00000000000E+00 -0.95867165950E+03  0.95867165950E+03  0.00000000000E+00 0.  1.
    9000007    1    1    2  501    0  0.35834700289E+03 -0.11601389648E+03 -0.72252888067E+03  0.90770027105E+03  0.40000000000E+03 0.  1.
   -9000007    1    1    2    0  502 -0.35834700289E+03  0.11601389648E+03  0.38214285224E+03  0.66925701952E+03  0.40000000000E+03 0. -1.
<mgrwt>
<rscale>  2 0.54942861E+03</rscale>
<asrwt>0</asrwt>
<pdfrwt beam="1">  1       21 0.95120866E-01 0.54942861E+03</pdfrwt>
<pdfrwt beam="2">  1       21 0.14748795E+00 0.54942861E+03</pdfrwt>
<totfact> 0.22617463E+02</totfact>
</mgrwt>
</event>
<event>
 4    1  0.4890517E-002  0.4940815E+03  0.7818608E-02  0.1015335E+00
         21   -1    0    0  501  502  0.00000000000E+00  0.00000000000E+00  0.45392674203E+03  0.45392674203E+03  0.00000000000E+00 0. -1.
         21   -1    0    0  502  503 -0.00000000000E+00 -0.00000000000E+00 -0.63448368113E+03  0.63448368113E+03  0.00000000000E+00 0. -1.
    9000007    1    1    2  501    0  0.59530570490E+02  0.28385317906E+03  0.12217078350E+03  0.50896190076E+03  0.40000000000E+03 0. -1.
   -9000007    1    1    2    0  503 -0.59530570490E+02 -0.28385317906E+03 -0.30272772260E+03  0.57944852240E+03  0.40000000000E+03 0. -1.
<mgrwt>
<rscale>  2 0.49408149E+03</rscale>
<asrwt>0</asrwt>
<pdfrwt beam="1">  1       21 0.69834883E-01 0.49408149E+03</pdfrwt>
<pdfrwt beam="2">  1       21 0.97612874E-01 0.49408149E+03</pdfrwt>
<totfact> 0.13630867E+03</totfact>
</mgrwt>
</event>
<event>
 4    1  0.4890517E-002  0.4534023E+03  0.7818608E-02  0.1026712E+00
         21   -1    0    0  503  502  0.00000000000E+00  0.00000000000E+00  0.25578759113E+03  0.25578759113E+03  0.00000000000E+00 0.  1.
         21   -1    0    0  501  503 -0.00000000000E+00 -0.00000000000E+00 -0.87428332935E+03  0.87428332935E+03  0.00000000000E+00 0.  1.
    9000007    1    1    2  501    0 -0.91232157715E+02  0.19300341000E+03 -0.46980704131E+03  0.65291062094E+03  0.40000000000E+03 0. -1.
   -9000007    1    1    2    0  502  0.91232157715E+02 -0.19300341000E+03 -0.14868869691E+03  0.47716029955E+03  0.40000000000E+03 0. -1.
<mgrwt>
<rscale>  2 0.45340227E+03</rscale>
<asrwt>0</asrwt>
<pdfrwt beam="1">  1       21 0.39351937E-01 0.45340227E+03</pdfrwt>
<pdfrwt beam="2">  1       21 0.13450513E+00 0.45340227E+03</pdfrwt>
<totfact> 0.21193236E+03</totfact>
</mgrwt>
</event>
<event>
 4    1  0.4890517E-002  0.4109597E+03  0.7818608E-02  0.1040049E+00
         21   -1    0    0  501  502  0.00000000000E+00  0.00000000000E+00  0.23843759887E+03  0.23843759887E+03  0.00000000000E+00 0. -1.
         21   -1    0    0  502  503 -0.00000000000E+00 -0.00000000000E+00 -0.70850671465E+03  0.70850671465E+03  0.00000000000E+00 0. -1.
    9000007    1    1    2  501    0  0.10558399246E+02 -0.93682585865E+02 -0.22715961249E+03  0.46956298431E+03  0.40000000000E+03 0. -1.
   -9000007    1    1    2    0  503 -0.10558399246E+02  0.93682585865E+02 -0.24290950329E+03  0.47738132921E+03  0.40000000000E+03 0. -1.
<mgrwt>
<rscale>  2 0.41095974E+03</rscale>
<asrwt>0</asrwt>
<pdfrwt beam="1">  1       21 0.36682708E-01 0.41095974E+03</pdfrwt>
<pdfrwt beam="2">  1       21 0.10900103E+00 0.41095974E+03</pdfrwt>
<totfact> 0.42425786E+03</totfact>
</mgrwt>
</event>
<event>
 4    1  0.4890517E-002  0.4523683E+03  0.7818608E-02  0.1027018E+00
         21   -1    0    0  503  502  0.00000000000E+00  0.00000000000E+00  0.24924667667E+03  0.24924667667E+03  0.00000000000E+00 0.  1.
         21   -1    0    0  501  503 -0.00000000000E+00 -0.00000000000E+00 -0.93351923740E+03  0.93351923740E+03  0.00000000000E+00 0.  1.
    9000007    1    1    2  501    0 -0.16343571858E+03 -0.13388735602E+03 -0.54743095553E+03  0.71015329985E+03  0.40000000000E+03 0.  1.
   -9000007    1    1    2    0  502  0.16343571858E+03  0.13388735602E+03 -0.13684160519E+03  0.47261261422E+03  0.40000000000E+03 0.  1.
<mgrwt>
<rscale>  2 0.45236828E+03</rscale>
<asrwt>0</asrwt>
<pdfrwt beam="1">  1       21 0.38345642E-01 0.45236828E+03</pdfrwt>
<pdfrwt beam="2">  1       21 0.14361835E+00 0.45236828E+03</pdfrwt>
<totfact> 0.18789532E+03</totfact>
</mgrwt>
</event>
<event>
 4    1  0.4890517E-002  0.4434825E+03  0.7818608E-02  0.1029684E+00
         21   -1    0    0  503  502  0.00000000000E+00  0.00000000000E+00  0.20025945452E+03  0.20025945452E+03  0.00000000000E+00 0.  1.
         21   -1    0    0  501  503 -0.00000000000E+00 -0.00000000000E+00 -0.14992421881E+04  0.14992421881E+04  0.00000000000E+00 0.  1.
    9000007    1    1    2  501    0 -0.31810503016E+02 -0.18885123384E+03 -0.11485559202E+04  0.12312016076E+04  0.40000000000E+03 0.  1.
   -9000007    1    1    2    0  502  0.31810503016E+02  0.18885123384E+03 -0.15042681334E+03  0.46830003502E+03  0.40000000000E+03 0.  1.
<mgrwt>
<rscale>  2 0.44348246E+03</rscale>
<asrwt>0</asrwt>
<pdfrwt beam="1">  1       21 0.30809145E-01 0.44348246E+03</pdfrwt>
<pdfrwt beam="2">  1       21 0.23065266E+00 0.44348246E+03</pdfrwt>
<totfact> 0.72265570E+02</totfact>
</mgrwt>
</event>
<event>
 4    1  0.4890517E-002  0.5058894E+03  0.7818608E-02  0.1012253E+00
         21   -1    0    0  503  502  0.00000000000E+00  0.00000000000E+00  0.22084606687E+04  0.22084606687E+04  0.00000000000E+00 0. -1.
         21   -1    0    0  501  503 -0.00000000000E+00 -0.00000000000E+00 -0.26261467554E+03  0.26261467554E+03  0.00000000000E+00 0. -1.
    9000007    1    1    2  501    0 -0.72694854173E+02 -0.30106408427E+03  0.49378738434E+02  0.50829360066E+03  0.40000000000E+03 0. -1.
   -9000007    1    1    2    0  502  0.72694854173E+02  0.30106408427E+03  0.18964672547E+04  0.19627817436E+04  0.40000000000E+03 0. -1.
<mgrwt>
<rscale>  2 0.50588944E+03</rscale>
<asrwt>0</asrwt>
<pdfrwt beam="1">  1       21 0.33976317E+00 0.50588944E+03</pdfrwt>
<pdfrwt beam="2">  1       21 0.40402259E-01 0.50588944E+03</pdfrwt>
<totfact> 0.87188069E+01</totfact>
</mgrwt>
</event>
<event>
 4    1  0.4890517E-002  0.4582707E+03  0.7818608E-02  0.1025284E+00
         21   -1    0    0  503  502  0.00000000000E+00  0.00000000000E+00  0.22683030232E+04  0.22683030232E+04  0.00000000000E+00 0.  1.
         21   -1    0    0  501  503 -0.00000000000E+00 -0.00000000000E+00 -0.22101602371E+03  0.22101602371E+03  0.00000000000E+00 0.  1.
    9000007    1    1    2  501    0  0.15544743505E+03 -0.16077349159E+03  0.74847654032E+02  0.46434275269E+03  0.40000000000E+03 0.  1.
   -9000007    1    1    2    0  502 -0.15544743505E+03  0.16077349159E+03  0.19724393455E+04  0.20249762943E+04  0.40000000000E+03 0.  1.
<mgrwt>
<rscale>  2 0.45827068E+03</rscale>
<asrwt>0</asrwt>
<pdfrwt beam="1">  1       21 0.34896968E+00 0.45827068E+03</pdfrwt>
<pdfrwt beam="2">  1       21 0.34002467E-01 0.45827068E+03</pdfrwt>
<totfact> 0.11220246E+02</totfact>
</mgrwt>
</event>
<event>
 4    1  0.4890517E-002  0.4197405E+03  0.7818608E-02  0.1037151E+00
         21   -1    0    0  503  502  0.00000000000E+00  0.00000000000E+00  0.75692537970E+03  0.75692537970E+03  0.00000000000E+00 0.  1.
         21   -1    0    0  501  503 -0.00000000000E+00 -0.00000000000E+00 -0.34264914874E+03  0.34264914874E+03  0.00000000000E+00 0. -1.
    9000007    1    1    2  501    0 -0.91665088712E+02 -0.88202258046E+02 -0.10421039560E+03  0.43248344866E+03  0.40000000000E+03 0. -1.
   -9000007    1    1    2    0  502  0.91665088712E+02  0.88202258046E+02  0.51848662655E+03  0.66709107978E+03  0.40000000000E+03 0.  1.
<mgrwt>
<rscale>  2 0.41974055E+03</rscale>
<asrwt>0</asrwt>
<pdfrwt beam="1">  1       21 0.11645006E+00 0.41974055E+03</pdfrwt>
<pdfrwt beam="2">  1       21 0.52715254E-01 0.41974055E+03</pdfrwt>
<totfact> 0.16842810E+03</totfact>
</mgrwt>
</event>
<event>
 4    1  0.4890517E-002  0.4300114E+03  0.7818608E-02  0.1033856E+00
         21   -1    0    0  503  502  0.00000000000E+00  0.00000000000E+00  0.42725196153E+03  0.42725196153E+03  0.00000000000E+00 0. -1.
         21   -1    0    0  501  503 -0.00000000000E+00 -0.00000000000E+00 -0.44957053463E+03  0.44957053463E+03  0.00000000000E+00 0.  1.
    9000007    1    1    2  501    0  0.14226750175E+03  0.68335655044E+02 -0.95863108723E+02  0.44056729273E+03  0.40000000000E+03 0.  1.
   -9000007    1    1    2    0  502 -0.14226750175E+03 -0.68335655044E+02  0.73544535619E+02  0.43625520344E+03  0.40000000000E+03 0. -1.
<mgrwt>
<rscale>  2 0.43001140E+03</rscale>
<asrwt>0</asrwt>
<pdfrwt beam="1">  1       21 0.65731071E-01 0.43001140E+03</pdfrwt>
<pdfrwt beam="2">  1       21 0.69164698E-01 0.43001140E+03</pdfrwt>
<totfact> 0.35614576E+03</totfact>
</mgrwt>
</event>
<event>
 4    1  0.4890517E-002  0.5311079E+03  0.7818608E-02  0.1005964E+00
         21   -1    0    0  501  502  0.00000000000E+00  0.00000000000E+00  0.87491174808E+03  0.87491174808E+03  0.00000000000E+00 0.  1.
         21   -1    0    0  502  503 -0.00000000000E+00 -0.00000000000E+00 -0.35810178070E+03  0.35810178070E+03  0.00000000000E+00 0. -1.
    9000007    1    1    2  501    0 -0.28791384366E+03  0.19794237570E+03  0.45305373017E+03  0.69809257831E+03  0.40000000000E+03 0.  1.
   -9000007    1    1    2    0  503  0.28791384366E+03 -0.19794237570E+03  0.63756237205E+02  0.53492095047E+03  0.40000000000E+03 0. -1.
<mgrwt>
<rscale>  2 0.53110787E+03</rscale>
<asrwt>0</asrwt>
<pdfrwt beam="1">  1       21 0.13460181E+00 0.53110787E+03</pdfrwt>
<pdfrwt beam="2">  1       21 0.55092582E-01 0.53110787E+03</pdfrwt>
<totfact> 0.10107926E+03</totfact>
</mgrwt>
</event>
<event>
 4    1  0.4890517E-002  0.4762114E+03  0.7818608E-02  0.1020182E+00
         21   -1    0    0  503  502  0.00000000000E+00  0.00000000000E+00  0.23604680338E+03  0.23604680338E+03  0.00000000000E+00 0. -1.
         21   -1    0    0  501  503 -0.00000000000E+00 -0.00000000000E+00 -0.12249412117E+04  0.12249412117E+04  0.00000000000E+00 0. -1.
    9000007    1    1    2  501    0  0.16463314725E+03  0.19918129410E+03 -0.15518568586E+03  0.50085912010E+03  0.40000000000E+03 0. -1.
   -9000007    1    1    2    0  502 -0.16463314725E+03 -0.19918129410E+03 -0.83370872250E+03  0.96012889502E+03  0.40000000000E+03 0. -1.
<mgrwt>
<rscale>  2 0.47621136E+03</rscale>
<asrwt>0</asrwt>
<pdfrwt beam="1">  1       21 0.36314893E-01 0.47621136E+03</pdfrwt>
<pdfrwt beam="2">  1       21 0.18845249E+00 0.47621136E+03</pdfrwt>
<totfact> 0.96586778E+02</totfact>
</mgrwt>
</event>
<event>
 4    1  0.4890517E-002  0.6642988E+03  0.7818608E-02  0.9780312E-01
         21   -1    0    0  503  502  0.00000000000E+00  0.00000000000E+00  0.19612999982E+04  0.19612999982E+04  0.00000000000E+00 0.  1.
         21   -1    0    0  501  503 -0.00000000000E+00 -0.00000000000E+00 -0.38689800935E+03  0.38689800935E+03  0.00000000000E+00 0.  1.
    9000007    1    1    2  501    0  0.25519231772E+03  0.46494064414E+03  0.27702464173E+02  0.66487619006E+03  0.40000000000E+03 0.  1.
   -9000007    1    1    2    0  502 -0.25519231772E+03 -0.46494064414E+03  0.15466995247E+04  0.16833218175E+04  0.40000000000E+03 0.  1.
<mgrwt>
<rscale>  2 0.66429882E+03</rscale>
<asrwt>0</asrwt>
<pdfrwt beam="1">  1       21 0.30173846E+00 0.66429882E+03</pdfrwt>
<pdfrwt beam="2">  1       21 0.59522772E-01 0.66429882E+03</pdfrwt>
<totfact> 0.60099087E+01</totfact>
</mgrwt>
</event>
<event>
 4    1  0.4890517E-002  0.4716345E+03  0.7818608E-02  0.1021460E+00
         21   -1    0    0  503  502  0.00000000000E+00  0.00000000000E+00  0.74783718509E+03  0.74783718509E+03  0.00000000000E+00 0.  1.
         21   -1    0    0  501  503 -0.00000000000E+00 -0.00000000000E+00 -0.30383596183E+03  0.30383596183E+03  0.00000000000E+00 0.  1.
    9000007    1    1    2  501    0 -0.24985790662E+03 -0.31842781940E+01  0.14572701866E+03  0.49363496340E+03  0.40000000000E+03 0.  1.
   -9000007    1    1    2    0  502  0.24985790662E+03  0.31842781940E+01  0.29827420461E+03  0.55803818351E+03  0.40000000000E+03 0.  1.
<mgrwt>
<rscale>  2 0.47163451E+03</rscale>
<asrwt>0</asrwt>
<pdfrwt beam="1">  1       21 0.11505187E+00 0.47163451E+03</pdfrwt>
<pdfrwt beam="2">  1       21 0.46743995E-01 0.47163451E+03</pdfrwt>
<totfact> 0.21964757E+03</totfact>
</mgrwt>
</event>
<event>
 4    1  0.4890517E-002  0.5743684E+03  0.7818608E-02  0.9960058E-01
         21   -1    0    0  503  502  0.00000000000E+00  0.00000000000E+00  0.11716172303E+04  0.11716172303E+04  0.00000000000E+00 0.  1.
         21   -1    0    0  501  503 -0.00000000000E+00 -0.00000000000E+00 -0.92593585244E+03  0.92593585244E+03  0.00000000000E+00 0. -1.
    9000007    1    1    2  501    0 -0.30657010915E+03 -0.27552468841E+03 -0.75205607635E+03  0.94630197491E+03  0.40000000000E+03 0. -1.
   -9000007    1    1    2    0  502  0.30657010915E+03  0.27552468841E+03  0.99773745425E+03  0.11512511079E+04  0.40000000000E+03 0.  1.
<mgrwt>
<rscale>  2 0.57436842E+03</rscale>
<asrwt>0</asrwt>
<pdfrwt beam="1">  1       21 0.18024881E+00 0.57436842E+03</pdfrwt>
<pdfrwt beam="2">  1       21 0.14245167E+00 0.57436842E+03</pdfrwt>
<totfact> 0.45462142E+01</totfact>
</mgrwt>
</event>
<event>
 4    1  0.4890517E-002  0.4786705E+03  0.7818608E-02  0.1019501E+00
         21   -1    0    0  503  502  0.00000000000E+00  0.00000000000E+00  0.10492844652E+04  0.10492844652E+04  0.00000000000E+00 0.  1.
         21   -1    0    0  501  503 -0.00000000000E+00 -0.00000000000E+00 -0.23966996505E+03  0.23966996505E+03  0.00000000000E+00 0.  1.
    9000007    1    1    2  501    0  0.15424062971E+03 -0.21292087797E+03  0.21265032653E+03  0.52378013852E+03  0.40000000000E+03 0.  1.
   -9000007    1    1    2    0  502 -0.15424062971E+03  0.21292087797E+03  0.59696417357E+03  0.76517429169E+03  0.40000000000E+03 0.  1.
<mgrwt>
<rscale>  2 0.47867053E+03</rscale>
<asrwt>0</asrwt>
<pdfrwt beam="1">  1       21 0.16142838E+00 0.47867053E+03</pdfrwt>
<pdfrwt beam="2">  1       21 0.36872303E-01 0.47867053E+03</pdfrwt>
<totfact> 0.14629802E+03</totfact>
</mgrwt>
</event>
<event>
 4    1  0.4890517E-002  0.4179590E+03  0.7818608E-02  0.1037733E+00
         21   -1    0    0  503  502  0.00000000000E+00  0.00000000000E+00  0.23791714460E+03  0.23791714460E+03  0.00000000000E+00 0.  1.
         21   -1    0    0  501  503 -0.00000000000E+00 -0.00000000000E+00 -0.17487568626E+04  0.17487568626E+04  0.00000000000E+00 0.  1.
    9000007    1    1    2  501    0  0.52133825912E+02 -0.10941556216E+03 -0.15120092696E+04  0.15687134004E+04  0.40000000000E+03 0.  1.
   -9000007    1    1    2    0  502 -0.52133825912E+02  0.10941556216E+03  0.11695515970E+01  0.41796060687E+03  0.40000000000E+03 0.  1.
<mgrwt>
<rscale>  2 0.41795897E+03</rscale>
<asrwt>0</asrwt>
<pdfrwt beam="1">  1       21 0.36602637E-01 0.41795897E+03</pdfrwt>
<pdfrwt beam="2">  1       21 0.26903952E+00 0.41795897E+03</pdfrwt>
<totfact> 0.30118374E+02</totfact>
</mgrwt>
</event>
<event>
 4    1  0.4890517E-002  0.4476361E+03  0.7818608E-02  0.1028429E+00
         21   -1    0    0  503  502  0.00000000000E+00  0.00000000000E+00  0.17733766792E+04  0.17733766792E+04  0.00000000000E+00 0. -1.
         21   -1    0    0  501  503 -0.00000000000E+00 -0.00000000000E+00 -0.17935278939E+03  0.17935278939E+03  0.00000000000E+00 0. -1.
    9000007    1    1    2  501    0  0.17382858969E+02  0.20018979851E+03  0.20311318227E+03  0.49156188219E+03  0.40000000000E+03 0. -1.
   -9000007    1    1    2    0  502 -0.17382858969E+02 -0.20018979851E+03  0.13909107075E+04  0.14611675864E+04  0.40000000000E+03 0. -1.
<mgrwt>
<rscale>  2 0.44763615E+03</rscale>
<asrwt>0</asrwt>
<pdfrwt beam="1">  1       21 0.27282717E+00 0.44763615E+03</pdfrwt>
<pdfrwt beam="2">  1       21 0.27592738E-01 0.44763615E+03</pdfrwt>
<totfact> 0.49411319E+02</totfact>
</mgrwt>
</event>
<event>
 4    1  0.4890517E-002  0.4606139E+03  0.7818608E-02  0.1024603E+00
         21   -1    0    0  501  502  0.00000000000E+00  0.00000000000E+00  0.21191166272E+04  0.21191166272E+04  0.00000000000E+00 0. -1.
         21   -1    0    0  502  503 -0.00000000000E+00 -0.00000000000E+00 -0.11639579814E+03  0.11639579814E+03  0.00000000000E+00 0. -1.
    9000007    1    1    2  501    0 -0.10873030077E+03  0.20085545548E+03  0.58338147374E+03  0.74330285632E+03  0.40000000000E+03 0. -1.
   -9000007    1    1    2    0  503  0.10873030077E+03 -0.20085545548E+03  0.14193393553E+04  0.14922095690E+04  0.40000000000E+03 0. -1.
<mgrwt>
<rscale>  2 0.46061393E+03</rscale>
<asrwt>0</asrwt>
<pdfrwt beam="1">  1       21 0.32601791E+00 0.46061393E+03</pdfrwt>
<pdfrwt beam="2">  1       21 0.17907047E-01 0.46061393E+03</pdfrwt>
<totfact> 0.53872809E+02</totfact>
</mgrwt>
</event>
<event>
 4    1  0.4890517E-002  0.5082957E+03  0.7818608E-02  0.1011636E+00
         21   -1    0    0  501  502  0.00000000000E+00  0.00000000000E+00  0.56256138093E+03  0.56256138093E+03  0.00000000000E+00 0. -1.
         21   -1    0    0  502  503 -0.00000000000E+00 -0.00000000000E+00 -0.64112358492E+03  0.64112358492E+03  0.00000000000E+00 0. -1.
    9000007    1    1    2  501    0 -0.74443942202E+02 -0.30466797716E+03  0.28125684634E+03  0.58092158718E+03  0.40000000000E+03 0. -1.
   -9000007    1    1    2    0  503  0.74443942202E+02  0.30466797716E+03 -0.35981905033E+03  0.62276337867E+03  0.40000000000E+03 0. -1.
<mgrwt>
<rscale>  2 0.50829566E+03</rscale>
<asrwt>0</asrwt>
<pdfrwt beam="1">  1       21 0.86547905E-01 0.50829566E+03</pdfrwt>
<pdfrwt beam="2">  1       21 0.98634397E-01 0.50829566E+03</pdfrwt>
<totfact> 0.80658936E+02</totfact>
</mgrwt>
</event>
<event>
 4    1  0.4890517E-002  0.4302578E+03  0.7818608E-02  0.1033779E+00
         21   -1    0    0  503  502  0.00000000000E+00  0.00000000000E+00  0.39608962991E+03  0.39608962991E+03  0.00000000000E+00 0. -1.
         21   -1    0    0  501  503 -0.00000000000E+00 -0.00000000000E+00 -0.46755633832E+03  0.46755633832E+03  0.00000000000E+00 0. -1.
    9000007    1    1    2  501    0 -0.14768531520E+03  0.57539697541E+02 -0.27192429259E+02  0.43111622253E+03  0.40000000000E+03 0. -1.
   -9000007    1    1    2    0  502  0.14768531520E+03 -0.57539697541E+02 -0.44274279152E+02  0.43252974570E+03  0.40000000000E+03 0. -1.
<mgrwt>
<rscale>  2 0.43025779E+03</rscale>
<asrwt>0</asrwt>
<pdfrwt beam="1">  1       21 0.60936866E-01 0.43025779E+03</pdfrwt>
<pdfrwt beam="2">  1       21 0.71931744E-01 0.43025779E+03</pdfrwt>
<totfact> 0.38538121E+03</totfact>
</mgrwt>
</event>
<event>
 4    1  0.4890517E-002  0.4010944E+03  0.7818608E-02  0.1043401E+00
         21   -1    0    0  501  502  0.00000000000E+00  0.00000000000E+00  0.93084912468E+03  0.93084912468E+03  0.00000000000E+00 0. -1.
         21   -1    0    0  502  503 -0.00000000000E+00 -0.00000000000E+00 -0.19428232756E+03  0.19428232756E+03  0.00000000000E+00 0. -1.
    9000007    1    1    2  501    0  0.29591544049E+02 -0.10155001532E+01  0.55522896981E+03  0.68494955992E+03  0.40000000000E+03 0. -1.
   -9000007    1    1    2    0  503 -0.29591544049E+02  0.10155001532E+01  0.18133782732E+03  0.44018189233E+03  0.40000000000E+03 0. -1.
<mgrwt>
<rscale>  2 0.40109437E+03</rscale>
<asrwt>0</asrwt>
<pdfrwt beam="1">  1       21 0.14320756E+00 0.40109437E+03</pdfrwt>
<pdfrwt beam="2">  1       21 0.29889589E-01 0.40109437E+03</pdfrwt>
<totfact> 0.31925263E+03</totfact>
</mgrwt>
</event>
<event>
 4    1  0.4890517E-002  0.4472835E+03  0.7818608E-02  0.1028535E+00
         21   -1    0    0  503  502  0.00000000000E+00  0.00000000000E+00  0.53660341047E+03  0.53660341047E+03  0.00000000000E+00 0. -1.
         21   -1    0    0  501  503 -0.00000000000E+00 -0.00000000000E+00 -0.37765993194E+03  0.37765993194E+03  0.00000000000E+00 0.  1.
    9000007    1    1    2  501    0 -0.19599143289E+03  0.40619204085E+02  0.13116116423E+03  0.46611780969E+03  0.40000000000E+03 0. -1.
   -9000007    1    1    2    0  502  0.19599143289E+03 -0.40619204085E+02  0.27782314305E+02  0.44814553272E+03  0.40000000000E+03 0.  1.
<mgrwt>
<rscale>  2 0.44728354E+03</rscale>
<asrwt>0</asrwt>
<pdfrwt beam="1">  1       21 0.82554371E-01 0.44728354E+03</pdfrwt>
<pdfrwt beam="2">  1       21 0.58101528E-01 0.44728354E+03</pdfrwt>
<totfact> 0.31004071E+03</totfact>
</mgrwt>
</event>
<event>
 4    1  0.4890517E-002  0.4749638E+03  0.7818608E-02  0.1020529E+00
         21   -1    0    0  501  502  0.00000000000E+00  0.00000000000E+00  0.47293594475E+03  0.47293594475E+03  0.00000000000E+00 0.  1.
         21   -1    0    0  502  503 -0.00000000000E+00 -0.00000000000E+00 -0.80220605111E+03  0.80220605111E+03  0.00000000000E+00 0.  1.
    9000007    1    1    2  501    0 -0.11345787628E+03 -0.22960374937E+03  0.24130763010E+03  0.53274754224E+03  0.40000000000E+03 0.  1.
   -9000007    1    1    2    0  503  0.11345787628E+03  0.22960374937E+03 -0.57057773646E+03  0.74239445362E+03  0.40000000000E+03 0.  1.
<mgrwt>
<rscale>  2 0.47496376E+03</rscale>
<asrwt>0</asrwt>
<pdfrwt beam="1">  1       21 0.72759377E-01 0.47496376E+03</pdfrwt>
<pdfrwt beam="2">  1       21 0.12341631E+00 0.47496376E+03</pdfrwt>
<totfact> 0.69805461E+02</totfact>
</mgrwt>
</event>
<event>
 4    1  0.4890517E-002  0.4626032E+03  0.7818608E-02  0.1024029E+00
         21   -1    0    0  503  502  0.00000000000E+00  0.00000000000E+00  0.14842215350E+04  0.14842215350E+04  0.00000000000E+00 0.  1.
         21   -1    0    0  501  503 -0.00000000000E+00 -0.00000000000E+00 -0.15351386943E+03  0.15351386943E+03  0.00000000000E+00 0.  1.
    9000007    1    1    2  501    0  0.16334008916E+03  0.16529297239E+03  0.46348656864E+03  0.65484467682E+03  0.40000000000E+03 0.  1.
   -9000007    1    1    2    0  502 -0.16334008916E+03 -0.16529297239E+03  0.86722109692E+03  0.98289072760E+03  0.40000000000E+03 0.  1.
<mgrwt>
<rscale>  2 0.46260323E+03</rscale>
<asrwt>0</asrwt>
<pdfrwt beam="1">  1       21 0.22834177E+00 0.46260323E+03</pdfrwt>
<pdfrwt beam="2">  1       21 0.23617519E-01 0.46260323E+03</pdfrwt>
<totfact> 0.12477710E+03</totfact>
</mgrwt>
</event>
<event>
 4    1  0.4890517E-002  0.4341096E+03  0.7818608E-02  0.1032570E+00
         21   -1    0    0  501  502  0.00000000000E+00  0.00000000000E+00  0.41405476963E+03  0.41405476963E+03  0.00000000000E+00 0.  1.
         21   -1    0    0  502  503 -0.00000000000E+00 -0.00000000000E+00 -0.46749819591E+03  0.46749819591E+03  0.00000000000E+00 0.  1.
    9000007    1    1    2  501    0  0.16837341631E+03  0.10075446936E+02 -0.98398892916E+02  0.44512185307E+03  0.40000000000E+03 0.  1.
   -9000007    1    1    2    0  503 -0.16837341631E+03 -0.10075446936E+02  0.44955466632E+02  0.43643111247E+03  0.40000000000E+03 0.  1.
<mgrwt>
<rscale>  2 0.43410957E+03</rscale>
<asrwt>0</asrwt>
<pdfrwt beam="1">  1       21 0.63700734E-01 0.43410957E+03</pdfrwt>
<pdfrwt beam="2">  1       21 0.71922799E-01 0.43410957E+03</pdfrwt>
<totfact> 0.34910656E+03</totfact>
</mgrwt>
</event>
<event>
 4    1  0.4890517E-002  0.4198741E+03  0.7818608E-02  0.1037107E+00
         21   -1    0    0  501  502  0.00000000000E+00  0.00000000000E+00  0.98836255224E+02  0.98836255224E+02  0.00000000000E+00 0. -1.
         21   -1    0    0  502  503 -0.00000000000E+00 -0.00000000000E+00 -0.22943705905E+04  0.22943705905E+04  0.00000000000E+00 0. -1.
    9000007    1    1    2  501    0 -0.12670997705E+03  0.15454535831E+02 -0.53323493817E+03  0.67870005176E+03  0.40000000000E+03 0.  1.
   -9000007    1    1    2    0  503  0.12670997705E+03 -0.15454535831E+02 -0.16622993971E+04  0.17145067940E+04  0.40000000000E+03 0.  1.
<mgrwt>
<rscale>  2 0.41987410E+03</rscale>
<asrwt>0</asrwt>
<pdfrwt beam="1">  1       21 0.15205579E-01 0.41987410E+03</pdfrwt>
<pdfrwt beam="2">  1       21 0.35298007E+00 0.41987410E+03</pdfrwt>
<totfact> 0.51362278E+02</totfact>
</mgrwt>
</event>
<event>
 4    1  0.4890517E-002  0.4274677E+03  0.7818608E-02  0.1034663E+00
         21   -1    0    0  503  502  0.00000000000E+00  0.00000000000E+00  0.53085788680E+03  0.53085788680E+03  0.00000000000E+00 0.  1.
         21   -1    0    0  501  503 -0.00000000000E+00 -0.00000000000E+00 -0.67794155268E+03  0.67794155268E+03  0.00000000000E+00 0. -1.
    9000007    1    1    2  501    0 -0.24715943839E+02  0.14872040117E+03 -0.49759885443E+03  0.65599790818E+03  0.40000000000E+03 0. -1.
   -9000007    1    1    2    0  502  0.24715943839E+02 -0.14872040117E+03  0.35051518855E+03  0.55280153130E+03  0.40000000000E+03 0.  1.
<mgrwt>
<rscale>  2 0.42746770E+03</rscale>
<asrwt>0</asrwt>
<pdfrwt beam="1">  1       21 0.81670445E-01 0.42746770E+03</pdfrwt>
<pdfrwt beam="2">  1       21 0.10429870E+00 0.42746770E+03</pdfrwt>
<totfact> 0.83288104E+02</totfact>
</mgrwt>
</event>
<event>
 4    1  0.4890517E-002  0.4293871E+03  0.7818608E-02  0.1034054E+00
         21   -1    0    0  501  502  0.00000000000E+00  0.00000000000E+00  0.15083840589E+04  0.15083840589E+04  0.00000000000E+00 0.  1.
         21   -1    0    0  502  503 -0.00000000000E+00 -0.00000000000E+00 -0.13046462256E+03  0.13046462256E+03  0.00000000000E+00 0.  1.
    9000007    1    1    2  501    0 -0.42664811932E+02 -0.15017644803E+03  0.89479683383E+03  0.99248910602E+03  0.40000000000E+03 0.  1.
   -9000007    1    1    2    0  503  0.42664811932E+02  0.15017644803E+03  0.48312260251E+03  0.64635957545E+03  0.40000000000E+03 0.  1.
<mgrwt>
<rscale>  2 0.42938707E+03</rscale>
<asrwt>0</asrwt>
<pdfrwt beam="1">  1       21 0.23205907E+00 0.42938707E+03</pdfrwt>
<pdfrwt beam="2">  1       21 0.20071481E-01 0.42938707E+03</pdfrwt>
<totfact> 0.16409369E+03</totfact>
</mgrwt>
</event>
<event>
 4    1  0.4890517E-002  0.4173619E+03  0.7818608E-02  0.1037928E+00
         21   -1    0    0  503  502  0.00000000000E+00  0.00000000000E+00  0.41545869837E+03  0.41545869837E+03  0.00000000000E+00 0.  1.
         21   -1    0    0  501  503 -0.00000000000E+00 -0.00000000000E+00 -0.98250657570E+03  0.98250657570E+03  0.00000000000E+00 0. -1.
    9000007    1    1    2  501    0 -0.41952863303E+02  0.11149406214E+03 -0.81275167224E+03  0.91364995997E+03  0.40000000000E+03 0. -1.
   -9000007    1    1    2    0  502  0.41952863303E+02 -0.11149406214E+03  0.24570379492E+03  0.48431531410E+03  0.40000000000E+03 0.  1.
<mgrwt>
<rscale>  2 0.41736192E+03</rscale>
<asrwt>0</asrwt>
<pdfrwt beam="1">  1       21 0.63916723E-01 0.41736192E+03</pdfrwt>
<pdfrwt beam="2">  1       21 0.15115486E+00 0.41736192E+03</pdfrwt>
<totfact> 0.56119629E+02</totfact>
</mgrwt>
</event>
<event>
 4    1  0.4890517E-002  0.4298764E+03  0.7818608E-02  0.1033899E+00
         21   -1    0    0  501  502  0.00000000000E+00  0.00000000000E+00  0.26555036114E+03  0.26555036114E+03  0.00000000000E+00 0. -1.
         21   -1    0    0  502  503 -0.00000000000E+00 -0.00000000000E+00 -0.69692016805E+03  0.69692016805E+03  0.00000000000E+00 0.  1.
    9000007    1    1    2  501    0  0.27388239558E+02  0.15506000151E+03 -0.19717875433E+03  0.47294099092E+03  0.40000000000E+03 0. -1.
   -9000007    1    1    2    0  503 -0.27388239558E+02 -0.15506000151E+03 -0.23419105258E+03  0.48952953827E+03  0.40000000000E+03 0.  1.
<mgrwt>
<rscale>  2 0.42987640E+03</rscale>
<asrwt>0</asrwt>
<pdfrwt beam="1">  1       21 0.40853902E-01 0.42987640E+03</pdfrwt>
<pdfrwt beam="2">  1       21 0.10721849E+00 0.42987640E+03</pdfrwt>
<totfact> 0.35195838E+03</totfact>
</mgrwt>
</event>
<event>
 4    1  0.4890517E-002  0.5623908E+03  0.7818608E-02  0.9986660E-01
         21   -1    0    0  503  502  0.00000000000E+00  0.00000000000E+00  0.90994993437E+03  0.90994993437E+03  0.00000000000E+00 0.  1.
         21   -1    0    0  501  503 -0.00000000000E+00 -0.00000000000E+00 -0.39054222470E+03  0.39054222470E+03  0.00000000000E+00 0.  1.
    9000007    1    1    2  501    0 -0.18243594419E+03 -0.35071426187E+03  0.44043342145E+02  0.56411273980E+03  0.40000000000E+03 0.  1.
   -9000007    1    1    2    0  502  0.18243594419E+03  0.35071426187E+03  0.47536436753E+03  0.73637941927E+03  0.40000000000E+03 0.  1.
<mgrwt>
<rscale>  2 0.56239076E+03</rscale>
<asrwt>0</asrwt>
<pdfrwt beam="1">  1       21 0.13999230E+00 0.56239076E+03</pdfrwt>
<pdfrwt beam="2">  1       21 0.60083420E-01 0.56239076E+03</pdfrwt>
<totfact> 0.74529849E+02</totfact>
</mgrwt>
</event>
<event>
 4    1  0.4890517E-002  0.4235385E+03  0.7818608E-02  0.1035921E+00
         21   -1    0    0  503  502  0.00000000000E+00  0.00000000000E+00  0.81106021311E+03  0.81106021311E+03  0.00000000000E+00 0.  1.
         21   -1    0    0  501  503 -0.00000000000E+00 -0.00000000000E+00 -0.32671387213E+03  0.32671387213E+03  0.00000000000E+00 0.  1.
    9000007    1    1    2  501    0 -0.22796065380E+02  0.13735050780E+03 -0.81161355392E+02  0.43124469643E+03  0.40000000000E+03 0.  1.
   -9000007    1    1    2    0  502  0.22796065380E+02 -0.13735050780E+03  0.56550769637E+03  0.70652938881E+03  0.40000000000E+03 0.  1.
<mgrwt>
<rscale>  2 0.42353845E+03</rscale>
<asrwt>0</asrwt>
<pdfrwt beam="1">  1       21 0.12477849E+00 0.42353845E+03</pdfrwt>
<pdfrwt beam="2">  1       21 0.50263673E-01 0.42353845E+03</pdfrwt>
<totfact> 0.15619100E+03</totfact>
</mgrwt>
</event>
<event>
 4    1  0.4890517E-002  0.4312811E+03  0.7818608E-02  0.1033456E+00
         21   -1    0    0  501  502  0.00000000000E+00  0.00000000000E+00  0.17834596322E+04  0.17834596322E+04  0.00000000000E+00 0. -1.
         21   -1    0    0  502  503 -0.00000000000E+00 -0.00000000000E+00 -0.12064468222E+03  0.12064468222E+03  0.00000000000E+00 0. -1.
    9000007    1    1    2  501    0  0.12535463572E+03  0.10143751193E+03  0.11819013530E+04  0.12581312180E+04  0.40000000000E+03 0. -1.
   -9000007    1    1    2    0  503 -0.12535463572E+03 -0.10143751193E+03  0.48091359702E+03  0.64597309644E+03  0.40000000000E+03 0. -1.
<mgrwt>
<rscale>  2 0.43128106E+03</rscale>
<asrwt>0</asrwt>
<pdfrwt beam="1">  1       21 0.27437839E+00 0.43128106E+03</pdfrwt>
<pdfrwt beam="2">  1       21 0.18560722E-01 0.43128106E+03</pdfrwt>
<totfact> 0.10471183E+03</totfact>
</mgrwt>
</event>
<event>
 4    1  0.4890517E-002  0.4232963E+03  0.7818608E-02  0.1035999E+00
         21   -1    0    0  503  502  0.00000000000E+00  0.00000000000E+00  0.24406012034E+03  0.24406012034E+03  0.00000000000E+00 0.  1.
         21   -1    0    0  501  503 -0.00000000000E+00 -0.00000000000E+00 -0.17026464209E+04  0.17026464209E+04  0.00000000000E+00 0.  1.
    9000007    1    1    2  501    0 -0.60847573466E+02  0.12440787450E+03 -0.14633919319E+04  0.15233829764E+04  0.40000000000E+03 0.  1.
   -9000007    1    1    2    0  502  0.60847573466E+02 -0.12440787450E+03  0.48056313599E+01  0.42332356481E+03  0.40000000000E+03 0.  1.
<mgrwt>
<rscale>  2 0.42329629E+03</rscale>
<asrwt>0</asrwt>
<pdfrwt beam="1">  1       21 0.37547709E-01 0.42329629E+03</pdfrwt>
<pdfrwt beam="2">  1       21 0.26194561E+00 0.42329629E+03</pdfrwt>
<totfact> 0.31464603E+02</totfact>
</mgrwt>
</event>
<event>
 4    1  0.4890517E-002  0.4028118E+03  0.7818608E-02  0.1042810E+00
         21   -1    0    0  501  502  0.00000000000E+00  0.00000000000E+00  0.17454157686E+03  0.17454157686E+03  0.00000000000E+00 0.  1.
         21   -1    0    0  502  503 -0.00000000000E+00 -0.00000000000E+00 -0.94994786966E+03  0.94994786966E+03  0.00000000000E+00 0.  1.
    9000007    1    1    2  501    0 -0.18243466798E+02 -0.43869746688E+02 -0.30545632832E+03  0.50553036236E+03  0.40000000000E+03 0. -1.
   -9000007    1    1    2    0  503  0.18243466798E+02  0.43869746688E+02 -0.46994996448E+03  0.61895908416E+03  0.40000000000E+03 0. -1.
<mgrwt>
<rscale>  2 0.40281184E+03</rscale>
<asrwt>0</asrwt>
<pdfrwt beam="1">  1       21 0.26852551E-01 0.40281184E+03</pdfrwt>
<pdfrwt beam="2">  1       21 0.14614582E+00 0.40281184E+03</pdfrwt>
<totfact> 0.37311661E+03</totfact>
</mgrwt>
</event>
<event>
 4    1  0.4890517E-002  0.5250527E+03  0.7818608E-02  0.1007439E+00
         21   -1    0    0  501  502  0.00000000000E+00  0.00000000000E+00  0.99751984839E+03  0.99751984839E+03  0.00000000000E+00 0. -1.
         21   -1    0    0  502  503 -0.00000000000E+00 -0.00000000000E+00 -0.71476877219E+03  0.71476877219E+03  0.00000000000E+00 0. -1.
    9000007    1    1    2  501    0 -0.20002238225E+02  0.33952942416E+03  0.81187890073E+03  0.96686486587E+03  0.40000000000E+03 0. -1.
   -9000007    1    1    2    0  503  0.20002238225E+02 -0.33952942416E+03 -0.52912782453E+03  0.74542375472E+03  0.40000000000E+03 0. -1.
<mgrwt>
<rscale>  2 0.52505268E+03</rscale>
<asrwt>0</asrwt>
<pdfrwt beam="1">  1       21 0.15346459E+00 0.52505268E+03</pdfrwt>
<pdfrwt beam="2">  1       21 0.10996443E+00 0.52505268E+03</pdfrwt>
<totfact> 0.14362094E+02</totfact>
</mgrwt>
</event>
<event>
 4    1  0.4890517E-002  0.4238741E+03  0.7818608E-02  0.1035813E+00
         21   -1    0    0  501  502  0.00000000000E+00  0.00000000000E+00  0.27192495721E+03  0.27192495721E+03  0.00000000000E+00 0. -1.
         21   -1    0    0  502  503 -0.00000000000E+00 -0.00000000000E+00 -0.98190455289E+03  0.98190455289E+03  0.00000000000E+00 0. -1.
    9000007    1    1    2  501    0 -0.13430155153E+03 -0.40402144947E+02  0.35552798309E+01  0.42388899499E+03  0.40000000000E+03 0. -1.
   -9000007    1    1    2    0  503  0.13430155153E+03  0.40402144947E+02 -0.71353487551E+03  0.82994051511E+03  0.40000000000E+03 0. -1.
<mgrwt>
<rscale>  2 0.42387409E+03</rscale>
<asrwt>0</asrwt>
<pdfrwt beam="1">  1       21 0.41834608E-01 0.42387409E+03</pdfrwt>
<pdfrwt beam="2">  1       21 0.15106224E+00 0.42387409E+03</pdfrwt>
<totfact> 0.13866096E+03</totfact>
</mgrwt>
</event>
<event>
 4    1  0.4890517E-002  0.4213944E+03  0.7818608E-02  0.1036613E+00
         21   -1    0    0  503  502  0.00000000000E+00  0.00000000000E+00  0.26971492414E+03  0.26971492414E+03  0.00000000000E+00 0. -1.
         21   -1    0    0  501  503 -0.00000000000E+00 -0.00000000000E+00 -0.74830816904E+03  0.74830816904E+03  0.00000000000E+00 0. -1.
    9000007    1    1    2  501    0 -0.10350008401E+02  0.13215953046E+03 -0.62835102197E+02  0.42605341711E+03  0.40000000000E+03 0.  1.
   -9000007    1    1    2    0  502  0.10350008401E+02 -0.13215953046E+03 -0.41575814270E+03  0.59196967607E+03  0.40000000000E+03 0.  1.
<mgrwt>
<rscale>  2 0.42139443E+03</rscale>
<asrwt>0</asrwt>
<pdfrwt beam="1">  1       21 0.41494604E-01 0.42139443E+03</pdfrwt>
<pdfrwt beam="2">  1       21 0.11512433E+00 0.42139443E+03</pdfrwt>
<totfact> 0.28657003E+03</totfact>
</mgrwt>
</event>
<event>
 4    1  0.4890517E-002  0.5594525E+03  0.7818608E-02  0.9993294E-01
         21   -1    0    0  501  502  0.00000000000E+00  0.00000000000E+00  0.14559193243E+04  0.14559193243E+04  0.00000000000E+00 0.  1.
         21   -1    0    0  502  503 -0.00000000000E+00 -0.00000000000E+00 -0.44609775778E+03  0.44609775778E+03  0.00000000000E+00 0.  1.
    9000007    1    1    2  501    0  0.38406429735E+03  0.74038465788E+02  0.11894372147E+04  0.13144382704E+04  0.40000000000E+03 0.  1.
   -9000007    1    1    2    0  503 -0.38406429735E+03 -0.74038465788E+02 -0.17961564817E+03  0.58757881172E+03  0.40000000000E+03 0.  1.
<mgrwt>
<rscale>  2 0.55945248E+03</rscale>
<asrwt>0</asrwt>
<pdfrwt beam="1">  1       21 0.22398759E+00 0.55945248E+03</pdfrwt>
<pdfrwt beam="2">  1       21 0.68630425E-01 0.55945248E+03</pdfrwt>
<totfact> 0.13892991E+02</totfact>
</mgrwt>
</event>
<event>
 4    1  0.4890517E-002  0.4363914E+03  0.7818608E-02  0.1031860E+00
         21   -1    0    0  501  502  0.00000000000E+00  0.00000000000E+00  0.29739686671E+03  0.29739686671E+03  0.00000000000E+00 0.  1.
         21   -1    0    0  502  503 -0.00000000000E+00 -0.00000000000E+00 -0.96949048648E+03  0.96949048648E+03  0.00000000000E+00 0.  1.
    9000007    1    1    2  501    0 -0.17192532779E+03 -0.29649859953E+02  0.33039831628E+02  0.43764033521E+03  0.40000000000E+03 0.  1.
   -9000007    1    1    2    0  503  0.17192532779E+03  0.29649859953E+02 -0.70513345140E+03  0.82924701797E+03  0.40000000000E+03 0.  1.
<mgrwt>
<rscale>  2 0.43639138E+03</rscale>
<asrwt>0</asrwt>
<pdfrwt beam="1">  1       21 0.45753365E-01 0.43639138E+03</pdfrwt>
<pdfrwt beam="2">  1       21 0.14915238E+00 0.43639138E+03</pdfrwt>
<totfact> 0.11844294E+03</totfact>
</mgrwt>
</event>
<event>
 4    1  0.4890517E-002  0.4061871E+03  0.7818608E-02  0.1041658E+00
         21   -1    0    0  503  502  0.00000000000E+00  0.00000000000E+00  0.83238686908E+03  0.83238686908E+03  0.00000000000E+00 0. -1.
         21   -1    0    0  501  503 -0.00000000000E+00 -0.00000000000E+00 -0.23789151108E+03  0.23789151108E+03  0.00000000000E+00 0. -1.
    9000007    1    1    2  501    0 -0.43151384793E+02  0.55909794893E+02  0.78689130933E+02  0.41373895937E+03  0.40000000000E+03 0. -1.
   -9000007    1    1    2    0  502  0.43151384793E+02 -0.55909794893E+02  0.51580622707E+03  0.65653942079E+03  0.40000000000E+03 0. -1.
<mgrwt>
<rscale>  2 0.40618708E+03</rscale>
<asrwt>0</asrwt>
<pdfrwt beam="1">  1       21 0.12805952E+00 0.40618708E+03</pdfrwt>
<pdfrwt beam="2">  1       21 0.36598694E-01 0.40618708E+03</pdfrwt>
<totfact> 0.28446315E+03</totfact>
</mgrwt>
</event>
<event>
 4    1  0.4890517E-002  0.4350188E+03  0.7818608E-02  0.1032286E+00
         21   -1    0    0  501  502  0.00000000000E+00  0.00000000000E+00  0.37060332992E+03  0.37060332992E+03  0.00000000000E+00 0. -1.
         21   -1    0    0  502  503 -0.00000000000E+00 -0.00000000000E+00 -0.51283461010E+03  0.51283461010E+03  0.00000000000E+00 0. -1.
    9000007    1    1    2  501    0 -0.87802582656E+02 -0.14673805239E+03 -0.42157025347E+02  0.43705670608E+03  0.40000000000E+03 0. -1.
   -9000007    1    1    2    0  503  0.87802582656E+02  0.14673805239E+03 -0.10007425484E+03  0.44638123395E+03  0.40000000000E+03 0. -1.
<mgrwt>
<rscale>  2 0.43501879E+03</rscale>
<asrwt>0</asrwt>
<pdfrwt beam="1">  1       21 0.57015898E-01 0.43501879E+03</pdfrwt>
<pdfrwt beam="2">  1       21 0.78897631E-01 0.43501879E+03</pdfrwt>
<totfact> 0.36028456E+03</totfact>
</mgrwt>
</event>
<event>
 4    1  0.4890517E-002  0.4117103E+03  0.7818608E-02  0.1039799E+00
         21   -1    0    0  501  502  0.00000000000E+00  0.00000000000E+00  0.85200266190E+03  0.85200266190E+03  0.00000000000E+00 0.  1.
         21   -1    0    0  502  503 -0.00000000000E+00 -0.00000000000E+00 -0.35185851632E+03  0.35185851632E+03  0.00000000000E+00 0.  1.
    9000007    1    1    2  501    0  0.33752680230E+02  0.91466364596E+02  0.64687896014E+03  0.76678401675E+03  0.40000000000E+03 0.  1.
   -9000007    1    1    2    0  503 -0.33752680230E+02 -0.91466364596E+02 -0.14673481455E+03  0.43707716147E+03  0.40000000000E+03 0.  1.
<mgrwt>
<rscale>  2 0.41171026E+03</rscale>
<asrwt>0</asrwt>
<pdfrwt beam="1">  1       21 0.13107733E+00 0.41171026E+03</pdfrwt>
<pdfrwt beam="2">  1       21 0.54132080E-01 0.41171026E+03</pdfrwt>
<totfact> 0.11800382E+03</totfact>
</mgrwt>
</event>
<event>
 4    1  0.4890517E-002  0.4191217E+03  0.7818608E-02  0.1037353E+00
         21   -1    0    0  501  502  0.00000000000E+00  0.00000000000E+00  0.66739397073E+03  0.66739397073E+03  0.00000000000E+00 0. -1.
         21   -1    0    0  502  503 -0.00000000000E+00 -0.00000000000E+00 -0.29717957975E+03  0.29717957975E+03  0.00000000000E+00 0. -1.
    9000007    1    1    2  501    0 -0.44385822369E+02  0.11701666434E+03  0.22043277396E+02  0.41970097336E+03  0.40000000000E+03 0. -1.
   -9000007    1    1    2    0  503  0.44385822369E+02 -0.11701666434E+03  0.34817111359E+03  0.54487257712E+03  0.40000000000E+03 0. -1.
<mgrwt>
<rscale>  2 0.41912170E+03</rscale>
<asrwt>0</asrwt>
<pdfrwt beam="1">  1       21 0.10267600E+00 0.41912170E+03</pdfrwt>
<pdfrwt beam="2">  1       21 0.45719935E-01 0.41912170E+03</pdfrwt>
<totfact> 0.31099841E+03</totfact>
</mgrwt>
</event>
<event>
 4    1  0.4890517E-002  0.4815785E+03  0.7818608E-02  0.1018702E+00
         21   -1    0    0  501  502  0.00000000000E+00  0.00000000000E+00  0.89803635383E+03  0.89803635383E+03  0.00000000000E+00 0.  1.
         21   -1    0    0  502  503 -0.00000000000E+00 -0.00000000000E+00 -0.29920755284E+03  0.29920755284E+03  0.00000000000E+00 0.  1.
    9000007    1    1    2  501    0  0.26806284142E+03  0.77586728029E+01  0.52089382678E+03  0.70939993144E+03  0.40000000000E+03 0.  1.
   -9000007    1    1    2    0  503 -0.26806284142E+03 -0.77586728029E+01  0.77934974210E+02  0.48784397522E+03  0.40000000000E+03 0.  1.
<mgrwt>
<rscale>  2 0.48157853E+03</rscale>
<asrwt>0</asrwt>
<pdfrwt beam="1">  1       21 0.13815944E+00 0.48157853E+03</pdfrwt>
<pdfrwt beam="2">  1       21 0.46031932E-01 0.48157853E+03</pdfrwt>
<totfact> 0.14098811E+03</totfact>
</mgrwt>
</event>
<event>
 4    1  0.4890517E-002  0.4277547E+03  0.7818608E-02  0.1034572E+00
         21   -1    0    0  503  502  0.00000000000E+00  0.00000000000E+00  0.12655730989E+03  0.12655730989E+03  0.00000000000E+00 0.  1.
         21   -1    0    0  501  503 -0.00000000000E+00 -0.00000000000E+00 -0.19241762090E+04  0.19241762090E+04  0.00000000000E+00 0. -1.
    9000007    1    1    2  501    0 -0.22363256819E+02 -0.14991324509E+03 -0.38753930627E+03  0.57720084044E+03  0.40000000000E+03 0.  1.
   -9000007    1    1    2    0  502  0.22363256819E+02  0.14991324509E+03 -0.14100795928E+04  0.14735326784E+04  0.40000000000E+03 0. -1.
<mgrwt>
<rscale>  2 0.42775472E+03</rscale>
<asrwt>0</asrwt>
<pdfrwt beam="1">  1       21 0.19470356E-01 0.42775472E+03</pdfrwt>
<pdfrwt beam="2">  1       21 0.29602710E+00 0.42775472E+03</pdfrwt>
<totfact> 0.71028683E+02</totfact>
</mgrwt>
</event>
<event>
 4    1  0.4890517E-002  0.4426023E+03  0.7818608E-02  0.1029951E+00
         21   -1    0    0  503  502  0.00000000000E+00  0.00000000000E+00  0.13661817039E+04  0.13661817039E+04  0.00000000000E+00 0. -1.
         21   -1    0    0  501  503 -0.00000000000E+00 -0.00000000000E+00 -0.14837635543E+03  0.14837635543E+03  0.00000000000E+00 0. -1.
    9000007    1    1    2  501    0 -0.18835442506E+03 -0.20478593675E+02  0.47007813961E+03  0.64565487652E+03  0.40000000000E+03 0. -1.
   -9000007    1    1    2    0  502  0.18835442506E+03  0.20478593675E+02  0.74772720886E+03  0.86890318282E+03  0.40000000000E+03 0. -1.
<mgrwt>
<rscale>  2 0.44260226E+03</rscale>
<asrwt>0</asrwt>
<pdfrwt beam="1">  1       21 0.21018179E+00 0.44260226E+03</pdfrwt>
<pdfrwt beam="2">  1       21 0.22827132E-01 0.44260226E+03</pdfrwt>
<totfact> 0.17579523E+03</totfact>
</mgrwt>
</event>
<event>
 4    1  0.4890517E-002  0.4496492E+03  0.7818608E-02  0.1027827E+00
         21   -1    0    0  503  502  0.00000000000E+00  0.00000000000E+00  0.53476872763E+03  0.53476872763E+03  0.00000000000E+00 0.  1.
         21   -1    0    0  501  503 -0.00000000000E+00 -0.00000000000E+00 -0.75639349205E+03  0.75639349205E+03  0.00000000000E+00 0.  1.
    9000007    1    1    2  501    0 -0.12798366010E+03  0.16063802789E+03 -0.56737870679E+03  0.72394957709E+03  0.40000000000E+03 0.  1.
   -9000007    1    1    2    0  502  0.12798366010E+03 -0.16063802789E+03  0.34575394236E+03  0.56721264259E+03  0.40000000000E+03 0.  1.
<mgrwt>
<rscale>  2 0.44964919E+03</rscale>
<asrwt>0</asrwt>
<pdfrwt beam="1">  1       21 0.82272113E-01 0.44964919E+03</pdfrwt>
<pdfrwt beam="2">  1       21 0.11636823E+00 0.44964919E+03</pdfrwt>
<totfact> 0.61796181E+02</totfact>
</mgrwt>
</event>
<event>
 4    1  0.4890517E-002  0.4951946E+03  0.7818608E-02  0.1015041E+00
         21   -1    0    0  503  502  0.00000000000E+00  0.00000000000E+00  0.16391685362E+04  0.16391685362E+04  0.00000000000E+00 0.  1.
         21   -1    0    0  501  503 -0.00000000000E+00 -0.00000000000E+00 -0.46431837858E+03  0.46431837858E+03  0.00000000000E+00 0. -1.
    9000007    1    1    2  501    0 -0.18946454703E+02 -0.29130512728E+03 -0.27846699213E+03  0.56812103555E+03  0.40000000000E+03 0. -1.
   -9000007    1    1    2    0  502  0.18946454703E+02  0.29130512728E+03  0.14533171497E+04  0.15353658792E+04  0.40000000000E+03 0.  1.
<mgrwt>
<rscale>  2 0.49519455E+03</rscale>
<asrwt>0</asrwt>
<pdfrwt beam="1">  1       21 0.25217977E+00 0.49519455E+03</pdfrwt>
<pdfrwt beam="2">  1       21 0.71433597E-01 0.49519455E+03</pdfrwt>
<totfact> 0.87192209E+01</totfact>
</mgrwt>
</event>
<event>
 4    1  0.4890517E-002  0.5024482E+03  0.7818608E-02  0.1013142E+00
         21   -1    0    0  501  502  0.00000000000E+00  0.00000000000E+00  0.43925217830E+03  0.43925217830E+03  0.00000000000E+00 0.  1.
         21   -1    0    0  502  503 -0.00000000000E+00 -0.00000000000E+00 -0.57804292557E+03  0.57804292557E+03  0.00000000000E+00 0. -1.
    9000007    1    1    2  501    0 -0.28330684024E+03  0.11041501336E+03 -0.10786509851E+03  0.51389602098E+03  0.40000000000E+03 0. -1.
   -9000007    1    1    2    0  503  0.28330684024E+03 -0.11041501336E+03 -0.30925648760E+02  0.50339908289E+03  0.40000000000E+03 0.  1.
<mgrwt>
<rscale>  2 0.50244825E+03</rscale>
<asrwt>0</asrwt>
<pdfrwt beam="1">  1       21 0.67577258E-01 0.50244825E+03</pdfrwt>
<pdfrwt beam="2">  1       21 0.88929681E-01 0.50244825E+03</pdfrwt>
<totfact> 0.18289506E+03</totfact>
</mgrwt>
</event>
<event>
 4    1  0.4890517E-002  0.4077022E+03  0.7818608E-02  0.1041145E+00
         21   -1    0    0  501  502  0.00000000000E+00  0.00000000000E+00  0.10098366850E+04  0.10098366850E+04  0.00000000000E+00 0.  1.
         21   -1    0    0  502  503 -0.00000000000E+00 -0.00000000000E+00 -0.23197758458E+03  0.23197758458E+03  0.00000000000E+00 0.  1.
    9000007    1    1    2  501    0 -0.71040378498E+02 -0.34268306888E+02  0.72355208622E+03  0.83051109186E+03  0.40000000000E+03 0.  1.
   -9000007    1    1    2    0  503  0.71040378498E+02  0.34268306888E+02  0.54307014232E+02  0.41130317775E+03  0.40000000000E+03 0.  1.
<mgrwt>
<rscale>  2 0.40770216E+03</rscale>
<asrwt>0</asrwt>
<pdfrwt beam="1">  1       21 0.15535949E+00 0.40770216E+03</pdfrwt>
<pdfrwt beam="2">  1       21 0.35688860E-01 0.40770216E+03</pdfrwt>
<totfact> 0.17909898E+03</totfact>
</mgrwt>
</event>
<event>
 4    1  0.4890517E-002  0.6600062E+03  0.7818608E-02  0.9788182E-01
         21   -1    0    0  501  502  0.00000000000E+00  0.00000000000E+00  0.61011364578E+03  0.61011364578E+03  0.00000000000E+00 0.  1.
         21   -1    0    0  502  503 -0.00000000000E+00 -0.00000000000E+00 -0.12478049056E+04  0.12478049056E+04  0.00000000000E+00 0.  1.
    9000007    1    1    2  501    0  0.29990704528E+03  0.43088744487E+03  0.28876200696E+03  0.72041080129E+03  0.40000000000E+03 0.  1.
   -9000007    1    1    2    0  503 -0.29990704528E+03 -0.43088744487E+03 -0.92645326674E+03  0.11375077500E+04  0.40000000000E+03 0.  1.
<mgrwt>
<rscale>  2 0.66000623E+03</rscale>
<asrwt>0</asrwt>
<pdfrwt beam="1">  1       21 0.93863639E-01 0.66000623E+03</pdfrwt>
<pdfrwt beam="2">  1       21 0.19196998E+00 0.66000623E+03</pdfrwt>
<totfact> 0.10489603E+02</totfact>
</mgrwt>
</event>
<event>
 4    1  0.4890517E-002  0.4222839E+03  0.7818608E-02  0.1036326E+00
         21   -1    0    0  501  502  0.00000000000E+00  0.00000000000E+00  0.41529901831E+03  0.41529901831E+03  0.00000000000E+00 0. -1.
         21   -1    0    0  502  503 -0.00000000000E+00 -0.00000000000E+00 -0.43408886714E+03  0.43408886714E+03  0.00000000000E+00 0. -1.
    9000007    1    1    2  501    0  0.11117638244E+03 -0.77223715444E+02  0.34808540833E+02  0.42371608980E+03  0.40000000000E+03 0. -1.
   -9000007    1    1    2    0  503 -0.11117638244E+03  0.77223715444E+02 -0.53598389668E+02  0.42567179565E+03  0.40000000000E+03 0. -1.
<mgrwt>
<rscale>  2 0.42228390E+03</rscale>
<asrwt>0</asrwt>
<pdfrwt beam="1">  1       21 0.63892157E-01 0.42228390E+03</pdfrwt>
<pdfrwt beam="2">  1       21 0.66782902E-01 0.42228390E+03</pdfrwt>
<totfact> 0.41135543E+03</totfact>
</mgrwt>
</event>
<event>
 4    1  0.4890517E-002  0.5054571E+03  0.7818608E-02  0.1012364E+00
         21   -1    0    0  503  502  0.00000000000E+00  0.00000000000E+00  0.18215502315E+04  0.18215502315E+04  0.00000000000E+00 0.  1.
         21   -1    0    0  501  503 -0.00000000000E+00 -0.00000000000E+00 -0.22491791157E+03  0.22491791157E+03  0.00000000000E+00 0.  1.
    9000007    1    1    2  501    0  0.22791561130E+03 -0.20866556167E+03  0.17054394802E+03  0.53345297891E+03  0.40000000000E+03 0.  1.
   -9000007    1    1    2    0  502 -0.22791561130E+03  0.20866556167E+03  0.14260883719E+04  0.15130151641E+04  0.40000000000E+03 0.  1.
<mgrwt>
<rscale>  2 0.50545706E+03</rscale>
<asrwt>0</asrwt>
<pdfrwt beam="1">  1       21 0.28023849E+00 0.50545706E+03</pdfrwt>
<pdfrwt beam="2">  1       21 0.34602757E-01 0.50545706E+03</pdfrwt>
<totfact> 0.27496948E+02</totfact>
</mgrwt>
</event>
<event>
 4    1  0.4890517E-002  0.4742723E+03  0.7818608E-02  0.1020721E+00
         21   -1    0    0  503  502  0.00000000000E+00  0.00000000000E+00  0.70898535095E+03  0.70898535095E+03  0.00000000000E+00 0. -1.
         21   -1    0    0  501  503 -0.00000000000E+00 -0.00000000000E+00 -0.41228682194E+03  0.41228682194E+03  0.00000000000E+00 0.  1.
    9000007    1    1    2  501    0  0.23063382826E+03 -0.10836184932E+03  0.41750236936E+03  0.63185637731E+03  0.40000000000E+03 0. -1.
   -9000007    1    1    2    0  502 -0.23063382826E+03  0.10836184932E+03 -0.12080384035E+03  0.48941579559E+03  0.40000000000E+03 0.  1.
<mgrwt>
<rscale>  2 0.47427234E+03</rscale>
<asrwt>0</asrwt>
<pdfrwt beam="1">  1       21 0.10907467E+00 0.47427234E+03</pdfrwt>
<pdfrwt beam="2">  1       21 0.63428742E-01 0.47427234E+03</pdfrwt>
<totfact> 0.12965796E+03</totfact>
</mgrwt>
</event>
<event>
 4    1  0.4890517E-002  0.4632376E+03  0.7818608E-02  0.1023846E+00
         21   -1    0    0  503  502  0.00000000000E+00  0.00000000000E+00  0.27972711754E+03  0.27972711754E+03  0.00000000000E+00 0. -1.
         21   -1    0    0  501  503 -0.00000000000E+00 -0.00000000000E+00 -0.88404895869E+03  0.88404895869E+03  0.00000000000E+00 0.  1.
    9000007    1    1    2  501    0 -0.14192582682E+03 -0.18559678803E+03 -0.51376798698E+03  0.69177066467E+03  0.40000000000E+03 0. -1.
   -9000007    1    1    2    0  502  0.14192582682E+03  0.18559678803E+03 -0.90553854168E+02  0.47200541157E+03  0.40000000000E+03 0. -1.
<mgrwt>
<rscale>  2 0.46323764E+03</rscale>
<asrwt>0</asrwt>
<pdfrwt beam="1">  1       21 0.43034941E-01 0.46323764E+03</pdfrwt>
<pdfrwt beam="2">  1       21 0.13600753E+00 0.46323764E+03</pdfrwt>
<totfact> 0.17040933E+03</totfact>
</mgrwt>
</event>
<event>
 4    1  0.4890517E-002  0.4055298E+03  0.7818608E-02  0.1041882E+00
         21   -1    0    0  503  502  0.00000000000E+00  0.00000000000E+00  0.85043225786E+02  0.85043225786E+02  0.00000000000E+00 0. -1.
         21   -1    0    0  501  503 -0.00000000000E+00 -0.00000000000E+00 -0.21793266709E+04  0.21793266709E+04  0.00000000000E+00 0. -1.
    9000007    1    1    2  501    0  0.59967180530E+02  0.29297273689E+02 -0.14271809221E+04  0.14836777876E+04  0.40000000000E+03 0. -1.
   -9000007    1    1    2    0  502 -0.59967180530E+02 -0.29297273689E+02 -0.66710252298E+03  0.78069210907E+03  0.40000000000E+03 0. -1.
<mgrwt>
<rscale>  2 0.40552977E+03</rscale>
<asrwt>0</asrwt>
<pdfrwt beam="1">  1       21 0.13083572E-01 0.40552977E+03</pdfrwt>
<pdfrwt beam="2">  1       21 0.33528106E+00 0.40552977E+03</pdfrwt>
<totfact> 0.87648028E+02</totfact>
</mgrwt>
</event>
<event>
 4    1  0.4890517E-002  0.7076983E+03  0.7818608E-02  0.9704157E-01
         21   -1    0    0  503  502  0.00000000000E+00  0.00000000000E+00  0.56068628298E+03  0.56068628298E+03  0.00000000000E+00 0. -1.
         21   -1    0    0  501  503 -0.00000000000E+00 -0.00000000000E+00 -0.89350013981E+03  0.89350013981E+03  0.00000000000E+00 0.  1.
    9000007    1    1    2  501    0  0.29376237093E+03 -0.50452010397E+03 -0.15440917026E+03  0.72434733226E+03  0.40000000000E+03 0.  1.
   -9000007    1    1    2    0  502 -0.29376237093E+03  0.50452010397E+03 -0.17840468657E+03  0.72983909054E+03  0.40000000000E+03 0. -1.
<mgrwt>
<rscale>  2 0.70769829E+03</rscale>
<asrwt>0</asrwt>
<pdfrwt beam="1">  1       21 0.86259428E-01 0.70769829E+03</pdfrwt>
<pdfrwt beam="2">  1       21 0.13746156E+00 0.70769829E+03</pdfrwt>
<totfact> 0.32731144E+02</totfact>
</mgrwt>
</event>
<event>
 4    1  0.4890517E-002  0.4179194E+03  0.7818608E-02  0.1037746E+00
         21   -1    0    0  501  502  0.00000000000E+00  0.00000000000E+00  0.48873352119E+03  0.48873352119E+03  0.00000000000E+00 0. -1.
         21   -1    0    0  502  503 -0.00000000000E+00 -0.00000000000E+00 -0.38815490429E+03  0.38815490429E+03  0.00000000000E+00 0. -1.
    9000007    1    1    2  501    0  0.54574931492E+02  0.10806558583E+03  0.17377341899E+03  0.45260777185E+03  0.40000000000E+03 0. -1.
   -9000007    1    1    2    0  503 -0.54574931492E+02 -0.10806558583E+03 -0.73194802091E+02  0.42428065363E+03  0.40000000000E+03 0. -1.
<mgrwt>
<rscale>  2 0.41791936E+03</rscale>
<asrwt>0</asrwt>
<pdfrwt beam="1">  1       21 0.75189772E-01 0.41791936E+03</pdfrwt>
<pdfrwt beam="2">  1       21 0.59716139E-01 0.41791936E+03</pdfrwt>
<totfact> 0.36595180E+03</totfact>
</mgrwt>
</event>
<event>
 4    1  0.4890517E-002  0.4789837E+03  0.7818608E-02  0.1019415E+00
         21   -1    0    0  501  502  0.00000000000E+00  0.00000000000E+00  0.59227472069E+03  0.59227472069E+03  0.00000000000E+00 0.  1.
         21   -1    0    0  502  503 -0.00000000000E+00 -0.00000000000E+00 -0.72408688950E+03  0.72408688950E+03  0.00000000000E+00 0.  1.
    9000007    1    1    2  501    0  0.21466602903E+03 -0.15278719709E+03  0.38292890516E+03  0.61323729341E+03  0.40000000000E+03 0.  1.
   -9000007    1    1    2    0  503 -0.21466602903E+03  0.15278719709E+03 -0.51474107397E+03  0.70312431678E+03  0.40000000000E+03 0.  1.
<mgrwt>
<rscale>  2 0.47898375E+03</rscale>
<asrwt>0</asrwt>
<pdfrwt beam="1">  1       21 0.91119188E-01 0.47898375E+03</pdfrwt>
<pdfrwt beam="2">  1       21 0.11139798E+00 0.47898375E+03</pdfrwt>
<totfact> 0.53521703E+02</totfact>
</mgrwt>
</event>
<event>
 4    1  0.4890517E-002  0.4658064E+03  0.7818608E-02  0.1023111E+00
         21   -1    0    0  503  502  0.00000000000E+00  0.00000000000E+00  0.94701050552E+03  0.94701050552E+03  0.00000000000E+00 0. -1.
         21   -1    0    0  501  503 -0.00000000000E+00 -0.00000000000E+00 -0.34765457624E+03  0.34765457624E+03  0.00000000000E+00 0. -1.
    9000007    1    1    2  501    0  0.23603642356E+03  0.35530646382E+02 -0.78314044488E+02  0.47234384683E+03  0.40000000000E+03 0. -1.
   -9000007    1    1    2    0  502 -0.23603642356E+03 -0.35530646382E+02  0.67766997376E+03  0.82232123493E+03  0.40000000000E+03 0. -1.
<mgrwt>
<rscale>  2 0.46580642E+03</rscale>
<asrwt>0</asrwt>
<pdfrwt beam="1">  1       21 0.14569392E+00 0.46580642E+03</pdfrwt>
<pdfrwt beam="2">  1       21 0.53485320E-01 0.46580642E+03</pdfrwt>
<totfact> 0.89443031E+02</totfact>
</mgrwt>
</event>
<event>
 4    1  0.4890517E-002  0.4927876E+03  0.7818608E-02  0.1015679E+00
         21   -1    0    0  501  502  0.00000000000E+00  0.00000000000E+00  0.16503102924E+04  0.16503102924E+04  0.00000000000E+00 0. -1.
         21   -1    0    0  502  503 -0.00000000000E+00 -0.00000000000E+00 -0.14805410690E+03  0.14805410690E+03  0.00000000000E+00 0.  1.
    9000007    1    1    2  501    0  0.26804471462E+03  0.10484100085E+03  0.82147809732E+03  0.95794878197E+03  0.40000000000E+03 0.  1.
   -9000007    1    1    2    0  503 -0.26804471462E+03 -0.10484100085E+03  0.68077808813E+03  0.84041561728E+03  0.40000000000E+03 0.  1.
<mgrwt>
<rscale>  2 0.49278759E+03</rscale>
<asrwt>0</asrwt>
<pdfrwt beam="1">  1       21 0.25389388E+00 0.49278759E+03</pdfrwt>
<pdfrwt beam="2">  1       21 0.22777556E-01 0.49278759E+03</pdfrwt>
<totfact> 0.91506989E+02</totfact>
</mgrwt>
</event>
<event>
 4    1  0.4890517E-002  0.4154419E+03  0.7818608E-02  0.1038560E+00
         21   -1    0    0  503  502  0.00000000000E+00  0.00000000000E+00  0.17162454359E+03  0.17162454359E+03  0.00000000000E+00 0. -1.
         21   -1    0    0  501  503 -0.00000000000E+00 -0.00000000000E+00 -0.11114942923E+04  0.11114942923E+04  0.00000000000E+00 0. -1.
    9000007    1    1    2  501    0 -0.49082491877E+02  0.10091005915E+03 -0.27194436402E+03  0.49653365260E+03  0.40000000000E+03 0. -1.
   -9000007    1    1    2    0  502  0.49082491877E+02 -0.10091005915E+03 -0.66792538466E+03  0.78658518326E+03  0.40000000000E+03 0. -1.
<mgrwt>
<rscale>  2 0.41544185E+03</rscale>
<asrwt>0</asrwt>
<pdfrwt beam="1">  1       21 0.26403776E-01 0.41544185E+03</pdfrwt>
<pdfrwt beam="2">  1       21 0.17099912E+00 0.41544185E+03</pdfrwt>
<totfact> 0.24855318E+03</totfact>
</mgrwt>
</event>
<event>
 4    1  0.4890517E-002  0.4125113E+03  0.7818608E-02  0.1039532E+00
         21   -1    0    0  501  502  0.00000000000E+00  0.00000000000E+00  0.47593484623E+03  0.47593484623E+03  0.00000000000E+00 0.  1.
         21   -1    0    0  502  503 -0.00000000000E+00 -0.00000000000E+00 -0.39995704212E+03  0.39995704212E+03  0.00000000000E+00 0.  1.
    9000007    1    1    2  501    0  0.89654401951E+02  0.46126314597E+02  0.18061077509E+03  0.45031744444E+03  0.40000000000E+03 0.  1.
   -9000007    1    1    2    0  503 -0.89654401951E+02 -0.46126314597E+02 -0.10463297098E+03  0.42557444390E+03  0.40000000000E+03 0.  1.
<mgrwt>
<rscale>  2 0.41251127E+03</rscale>
<asrwt>0</asrwt>
<pdfrwt beam="1">  1       21 0.73220745E-01 0.41251127E+03</pdfrwt>
<pdfrwt beam="2">  1       21 0.61531853E-01 0.41251127E+03</pdfrwt>
<totfact> 0.36473031E+03</totfact>
</mgrwt>
</event>
<event>
 4    1  0.4890517E-002  0.4747554E+03  0.7818608E-02  0.1020587E+00
         21   -1    0    0  501  502  0.00000000000E+00  0.00000000000E+00  0.12582345146E+04  0.12582345146E+04  0.00000000000E+00 0. -1.
         21   -1    0    0  502  503 -0.00000000000E+00 -0.00000000000E+00 -0.18035935244E+03  0.18035935244E+03  0.00000000000E+00 0.  1.
    9000007    1    1    2  501    0  0.24544158965E+03  0.71770985922E+02  0.47965051285E+03  0.67487573880E+03  0.40000000000E+03 0. -1.
   -9000007    1    1    2    0  503 -0.24544158965E+03 -0.71770985922E+02  0.59822464932E+03  0.76371812824E+03  0.40000000000E+03 0. -1.
<mgrwt>
<rscale>  2 0.47475536E+03</rscale>
<asrwt>0</asrwt>
<pdfrwt beam="1">  1       21 0.19357453E+00 0.47475536E+03</pdfrwt>
<pdfrwt beam="2">  1       21 0.27747594E-01 0.47475536E+03</pdfrwt>
<totfact> 0.15283084E+03</totfact>
</mgrwt>
</event>
<event>
 4    1  0.4890517E-002  0.4614031E+03  0.7818608E-02  0.1024375E+00
         21   -1    0    0  503  502  0.00000000000E+00  0.00000000000E+00  0.27076476004E+04  0.27076476004E+04  0.00000000000E+00 0.  1.
         21   -1    0    0  501  503 -0.00000000000E+00 -0.00000000000E+00 -0.16839294720E+03  0.16839294720E+03  0.00000000000E+00 0.  1.
    9000007    1    1    2  501    0  0.39842681870E+02  0.22650681991E+03  0.21969780881E+03  0.51103806704E+03  0.40000000000E+03 0.  1.
   -9000007    1    1    2    0  502 -0.39842681870E+02 -0.22650681991E+03  0.23195568444E+04  0.23650024806E+04  0.40000000000E+03 0.  1.
<mgrwt>
<rscale>  2 0.46140305E+03</rscale>
<asrwt>0</asrwt>
<pdfrwt beam="1">  1       21 0.41656114E+00 0.46140305E+03</pdfrwt>
<pdfrwt beam="2">  1       21 0.25906609E-01 0.46140305E+03</pdfrwt>
<totfact> 0.71847075E+01</totfact>
</mgrwt>
</event>
<event>
 4    1  0.4890517E-002  0.4541411E+03  0.7818608E-02  0.1026494E+00
         21   -1    0    0  501  502  0.00000000000E+00  0.00000000000E+00  0.83378035024E+03  0.83378035024E+03  0.00000000000E+00 0. -1.
         21   -1    0    0  502  503 -0.00000000000E+00 -0.00000000000E+00 -0.27286951594E+03  0.27286951594E+03  0.00000000000E+00 0. -1.
    9000007    1    1    2  501    0 -0.18844859602E+03 -0.10359192929E+03  0.11127454932E+03  0.46757479240E+03  0.40000000000E+03 0. -1.
   -9000007    1    1    2    0  503  0.18844859602E+03  0.10359192929E+03  0.44963628498E+03  0.63907507378E+03  0.40000000000E+03 0. -1.
<mgrwt>
<rscale>  2 0.45414112E+03</rscale>
<asrwt>0</asrwt>
<pdfrwt beam="1">  1       21 0.12827390E+00 0.45414112E+03</pdfrwt>
<pdfrwt beam="2">  1       21 0.41979926E-01 0.45414112E+03</pdfrwt>
<totfact> 0.20973426E+03</totfact>
</mgrwt>
</event>
<event>
 4    1  0.4890517E-002  0.5584996E+03  0.7818608E-02  0.9995455E-01
         21   -1    0    0  501  502  0.00000000000E+00  0.00000000000E+00  0.40265421663E+03  0.40265421663E+03  0.00000000000E+00 0.  1.
         21   -1    0    0  502  503 -0.00000000000E+00 -0.00000000000E+00 -0.90430229069E+03  0.90430229069E+03  0.00000000000E+00 0. -1.
    9000007    1    1    2  501    0  0.37775177228E+03 -0.96049084327E+02 -0.49824731032E+03  0.74844653136E+03  0.40000000000E+03 0. -1.
   -9000007    1    1    2    0  503 -0.37775177228E+03  0.96049084327E+02 -0.34007637437E+01  0.55850997597E+03  0.40000000000E+03 0.  1.
<mgrwt>
<rscale>  2 0.55849962E+03</rscale>
<asrwt>0</asrwt>
<pdfrwt beam="1">  1       21 0.61946803E-01 0.55849962E+03</pdfrwt>
<pdfrwt beam="2">  1       21 0.13912343E+00 0.55849962E+03</pdfrwt>
<totfact> 0.70935452E+02</totfact>
</mgrwt>
</event>
<event>
 4    1  0.4890517E-002  0.4833057E+03  0.7818608E-02  0.1018231E+00
         21   -1    0    0  503  502  0.00000000000E+00  0.00000000000E+00  0.50636995610E+03  0.50636995610E+03  0.00000000000E+00 0. -1.
         21   -1    0    0  501  503 -0.00000000000E+00 -0.00000000000E+00 -0.75344274770E+03  0.75344274770E+03  0.00000000000E+00 0. -1.
    9000007    1    1    2  501    0 -0.11728747327E+02 -0.27101082615E+03 -0.51577860712E+03  0.70683237261E+03  0.40000000000E+03 0. -1.
   -9000007    1    1    2    0  502  0.11728747327E+02  0.27101082615E+03  0.26870581552E+03  0.55298033120E+03  0.40000000000E+03 0. -1.
<mgrwt>
<rscale>  2 0.48330573E+03</rscale>
<asrwt>0</asrwt>
<pdfrwt beam="1">  1       21 0.77903070E-01 0.48330573E+03</pdfrwt>
<pdfrwt beam="2">  1       21 0.11591427E+00 0.48330573E+03</pdfrwt>
<totfact> 0.69793846E+02</totfact>
</mgrwt>
</event>
<event>
 4    1  0.4890517E-002  0.4694564E+03  0.7818608E-02  0.1022074E+00
         21   -1    0    0  501  502  0.00000000000E+00  0.00000000000E+00  0.17732534006E+03  0.17732534006E+03  0.00000000000E+00 0. -1.
         21   -1    0    0  502  503 -0.00000000000E+00 -0.00000000000E+00 -0.13493626838E+04  0.13493626838E+04  0.00000000000E+00 0. -1.
    9000007    1    1    2  501    0 -0.43607760188E+02 -0.24184234780E+03 -0.37155675092E+03  0.59870174302E+03  0.40000000000E+03 0. -1.
   -9000007    1    1    2    0  503  0.43607760188E+02  0.24184234780E+03 -0.80048059277E+03  0.92798628079E+03  0.40000000000E+03 0. -1.
<mgrwt>
<rscale>  2 0.46945645E+03</rscale>
<asrwt>0</asrwt>
<pdfrwt beam="1">  1       21 0.27280821E-01 0.46945645E+03</pdfrwt>
<pdfrwt beam="2">  1       21 0.20759426E+00 0.46945645E+03</pdfrwt>
<totfact> 0.12767486E+03</totfact>
</mgrwt>
</event>
<event>
 4    1  0.4890517E-002  0.4169234E+03  0.7818608E-02  0.1038072E+00
         21   -1    0    0  503  502  0.00000000000E+00  0.00000000000E+00  0.27233304534E+03  0.27233304534E+03  0.00000000000E+00 0.  1.
         21   -1    0    0  501  503 -0.00000000000E+00 -0.00000000000E+00 -0.69919740156E+03  0.69919740156E+03  0.00000000000E+00 0.  1.
    9000007    1    1    2  501    0 -0.10413679271E+03 -0.54595456827E+02 -0.35681330034E+03  0.54876303338E+03  0.40000000000E+03 0.  1.
   -9000007    1    1    2    0  502  0.10413679271E+03  0.54595456827E+02 -0.70051055883E+02  0.42276741352E+03  0.40000000000E+03 0.  1.
<mgrwt>
<rscale>  2 0.41692342E+03</rscale>
<asrwt>0</asrwt>
<pdfrwt beam="1">  1       21 0.41897392E-01 0.41692342E+03</pdfrwt>
<pdfrwt beam="2">  1       21 0.10756883E+00 0.41692342E+03</pdfrwt>
<totfact> 0.33300835E+03</totfact>
</mgrwt>
</event>
<event>
 4    1  0.4890517E-002  0.4934471E+03  0.7818608E-02  0.1015504E+00
         21   -1    0    0  501  502  0.00000000000E+00  0.00000000000E+00  0.19135922225E+04  0.19135922225E+04  0.00000000000E+00 0.  1.
         21   -1    0    0  502  503 -0.00000000000E+00 -0.00000000000E+00 -0.33688049043E+03  0.33688049043E+03  0.00000000000E+00 0. -1.
    9000007    1    1    2  501    0 -0.25188712987E+03  0.14157285324E+03  0.16760042360E+04  0.17471348540E+04  0.40000000000E+03 0.  1.
   -9000007    1    1    2    0  503  0.25188712987E+03 -0.14157285324E+03 -0.99292503868E+02  0.50333785899E+03  0.40000000000E+03 0. -1.
<mgrwt>
<rscale>  2 0.49344706E+03</rscale>
<asrwt>0</asrwt>
<pdfrwt beam="1">  1       21 0.29439880E+00 0.49344706E+03</pdfrwt>
<pdfrwt beam="2">  1       21 0.51827769E-01 0.49344706E+03</pdfrwt>
<totfact> 0.97969453E+01</totfact>
</mgrwt>
</event>
<event>
 4    1  0.4890517E-002  0.4293062E+03  0.7818608E-02  0.1034079E+00
         21   -1    0    0  503  502  0.00000000000E+00  0.00000000000E+00  0.15455381694E+04  0.15455381694E+04  0.00000000000E+00 0. -1.
         21   -1    0    0  501  503 -0.00000000000E+00 -0.00000000000E+00 -0.12465424696E+04  0.12465424696E+04  0.00000000000E+00 0. -1.
    9000007    1    1    2  501    0 -0.70543320890E+02  0.13902327751E+03 -0.11780889435E+04  0.12538729563E+04  0.40000000000E+03 0. -1.
   -9000007    1    1    2    0  502  0.70543320890E+02 -0.13902327751E+03  0.14770846432E+04  0.15382076827E+04  0.40000000000E+03 0. -1.
<mgrwt>
<rscale>  2 0.42930622E+03</rscale>
<asrwt>0</asrwt>
<pdfrwt beam="1">  1       21 0.23777510E+00 0.42930622E+03</pdfrwt>
<pdfrwt beam="2">  1       21 0.19177577E+00 0.42930622E+03</pdfrwt>
<totfact> 0.89356887E+00</totfact>
</mgrwt>
</event>
<event>
 4    1  0.4890517E-002  0.4840662E+03  0.7818608E-02  0.1018024E+00
         21   -1    0    0  503  502  0.00000000000E+00  0.00000000000E+00  0.10385375142E+04  0.10385375142E+04  0.00000000000E+00 0.  1.
         21   -1    0    0  501  503 -0.00000000000E+00 -0.00000000000E+00 -0.28409546432E+03  0.28409546432E+03  0.00000000000E+00 0. -1.
    9000007    1    1    2  501    0 -0.26426644905E+03  0.66957968654E+02  0.77204539858E+02  0.49018431904E+03  0.40000000000E+03 0. -1.
   -9000007    1    1    2    0  502  0.26426644905E+03 -0.66957968654E+02  0.67723750998E+03  0.83244865943E+03  0.40000000000E+03 0.  1.
<mgrwt>
<rscale>  2 0.48406624E+03</rscale>
<asrwt>0</asrwt>
<pdfrwt beam="1">  1       21 0.15977500E+00 0.48406624E+03</pdfrwt>
<pdfrwt beam="2">  1       21 0.43706995E-01 0.48406624E+03</pdfrwt>
<totfact> 0.10576921E+03</totfact>
</mgrwt>
</event>
<event>
 4    1  0.4890517E-002  0.4949014E+03  0.7818608E-02  0.1015118E+00
         21   -1    0    0  501  502  0.00000000000E+00  0.00000000000E+00  0.66884605153E+03  0.66884605153E+03  0.00000000000E+00 0.  1.
         21   -1    0    0  502  503 -0.00000000000E+00 -0.00000000000E+00 -0.43048725279E+03  0.43048725279E+03  0.00000000000E+00 0. -1.
    9000007    1    1    2  501    0 -0.14454818875E+03  0.25304789521E+03  0.33160258365E+03  0.59572450816E+03  0.40000000000E+03 0.  1.
   -9000007    1    1    2    0  503  0.14454818875E+03 -0.25304789521E+03 -0.93243784908E+02  0.50360879616E+03  0.40000000000E+03 0. -1.
<mgrwt>
<rscale>  2 0.49490142E+03</rscale>
<asrwt>0</asrwt>
<pdfrwt beam="1">  1       21 0.10289939E+00 0.49490142E+03</pdfrwt>
<pdfrwt beam="2">  1       21 0.66228808E-01 0.49490142E+03</pdfrwt>
<totfact> 0.13496905E+03</totfact>
</mgrwt>
</event>
<event>
 4    1  0.4890517E-002  0.6516615E+03  0.7818608E-02  0.9803666E-01
         21   -1    0    0  503  502  0.00000000000E+00  0.00000000000E+00  0.94452556086E+03  0.94452556086E+03  0.00000000000E+00 0. -1.
         21   -1    0    0  501  503 -0.00000000000E+00 -0.00000000000E+00 -0.77145776909E+03  0.77145776909E+03  0.00000000000E+00 0. -1.
    9000007    1    1    2  501    0 -0.11426578176E+03 -0.50160350845E+03 -0.46765279436E+03  0.80209842579E+03  0.40000000000E+03 0. -1.
   -9000007    1    1    2    0  502  0.11426578176E+03  0.50160350845E+03  0.64072058614E+03  0.91388490417E+03  0.40000000000E+03 0. -1.
<mgrwt>
<rscale>  2 0.65166153E+03</rscale>
<asrwt>0</asrwt>
<pdfrwt beam="1">  1       21 0.14531163E+00 0.65166153E+03</pdfrwt>
<pdfrwt beam="2">  1       21 0.11868581E+00 0.65166153E+03</pdfrwt>
<totfact> 0.13080100E+02</totfact>
</mgrwt>
</event>
<event>
 4    1  0.4890517E-002  0.4456403E+03  0.7818608E-02  0.1029030E+00
         21   -1    0    0  503  502  0.00000000000E+00  0.00000000000E+00  0.22186394259E+03  0.22186394259E+03  0.00000000000E+00 0.  1.
         21   -1    0    0  501  503 -0.00000000000E+00 -0.00000000000E+00 -0.90408954667E+03  0.90408954667E+03  0.00000000000E+00 0.  1.
    9000007    1    1    2  501    0  0.17265043655E+03 -0.93739596934E+02 -0.39718179127E+03  0.59694946234E+03  0.40000000000E+03 0.  1.
   -9000007    1    1    2    0  502 -0.17265043655E+03  0.93739596934E+02 -0.28504381282E+03  0.52900402692E+03  0.40000000000E+03 0.  1.
<mgrwt>
<rscale>  2 0.44564031E+03</rscale>
<asrwt>0</asrwt>
<pdfrwt beam="1">  1       21 0.34132914E-01 0.44564031E+03</pdfrwt>
<pdfrwt beam="2">  1       21 0.13909070E+00 0.44564031E+03</pdfrwt>
<totfact> 0.25995182E+03</totfact>
</mgrwt>
</event>
<event>
 4    1  0.4890517E-002  0.5933076E+03  0.7818608E-02  0.9919389E-01
         21   -1    0    0  503  502  0.00000000000E+00  0.00000000000E+00  0.26072666535E+03  0.26072666535E+03  0.00000000000E+00 0.  1.
         21   -1    0    0  501  503 -0.00000000000E+00 -0.00000000000E+00 -0.14131972489E+04  0.14131972489E+04  0.00000000000E+00 0.  1.
    9000007    1    1    2  501    0  0.36659533651E+02 -0.43665771924E+03 -0.75305048272E+03  0.95869646641E+03  0.40000000000E+03 0.  1.
   -9000007    1    1    2    0  502 -0.36659533651E+02  0.43665771924E+03 -0.39942010081E+03  0.71522744782E+03  0.40000000000E+03 0.  1.
<mgrwt>
<rscale>  2 0.59330758E+03</rscale>
<asrwt>0</asrwt>
<pdfrwt beam="1">  1       21 0.40111796E-01 0.59330758E+03</pdfrwt>
<pdfrwt beam="2">  1       21 0.21741496E+00 0.59330758E+03</pdfrwt>
<totfact> 0.48137218E+02</totfact>
</mgrwt>
</event>
<event>
 4    1  0.4890517E-002  0.4432369E+03  0.7818608E-02  0.1029758E+00
         21   -1    0    0  503  502  0.00000000000E+00  0.00000000000E+00  0.68128718728E+03  0.68128718728E+03  0.00000000000E+00 0.  1.
         21   -1    0    0  501  503 -0.00000000000E+00 -0.00000000000E+00 -0.10306830495E+04  0.10306830495E+04  0.00000000000E+00 0.  1.
    9000007    1    1    2  501    0  0.17906325430E+03  0.66297041694E+02 -0.90113641557E+03  0.10042438878E+04  0.40000000000E+03 0.  1.
   -9000007    1    1    2    0  502 -0.17906325430E+03 -0.66297041694E+02  0.55174055336E+03  0.70772634895E+03  0.40000000000E+03 0.  1.
<mgrwt>
<rscale>  2 0.44323690E+03</rscale>
<asrwt>0</asrwt>
<pdfrwt beam="1">  1       21 0.10481341E+00 0.44323690E+03</pdfrwt>
<pdfrwt beam="2">  1       21 0.15856662E+00 0.44323690E+03</pdfrwt>
<totfact> 0.15384375E+02</totfact>
</mgrwt>
</event>
<event>
 4    1  0.4890517E-002  0.5291026E+03  0.7818608E-02  0.1006450E+00
         21   -1    0    0  501  502  0.00000000000E+00  0.00000000000E+00  0.12423423108E+04  0.12423423108E+04  0.00000000000E+00 0. -1.
         21   -1    0    0  502  503 -0.00000000000E+00 -0.00000000000E+00 -0.37202989942E+03  0.37202989942E+03  0.00000000000E+00 0. -1.
    9000007    1    1    2  501    0  0.30757407433E+03  0.15920973125E+03  0.94201233348E+03  0.10804336102E+04  0.40000000000E+03 0. -1.
   -9000007    1    1    2    0  503 -0.30757407433E+03 -0.15920973125E+03 -0.71699922091E+02  0.53393859999E+03  0.40000000000E+03 0. -1.
<mgrwt>
<rscale>  2 0.52910259E+03</rscale>
<asrwt>0</asrwt>
<pdfrwt beam="1">  1       21 0.19112958E+00 0.52910259E+03</pdfrwt>
<pdfrwt beam="2">  1       21 0.57235370E-01 0.52910259E+03</pdfrwt>
<totfact> 0.34746712E+02</totfact>
</mgrwt>
</event>
<event>
 4    1  0.4890517E-002  0.4706888E+03  0.7818608E-02  0.1021726E+00
         21   -1    0    0  503  502  0.00000000000E+00  0.00000000000E+00  0.85854024375E+03  0.85854024375E+03  0.00000000000E+00 0.  1.
         21   -1    0    0  501  503 -0.00000000000E+00 -0.00000000000E+00 -0.48179072795E+03  0.48179072795E+03  0.00000000000E+00 0. -1.
    9000007    1    1    2  501    0  0.36172634294E+02  0.24543735280E+03 -0.26831734708E+03  0.54179530486E+03  0.40000000000E+03 0. -1.
   -9000007    1    1    2    0  502 -0.36172634294E+02 -0.24543735280E+03  0.64506686288E+03  0.79853566683E+03  0.40000000000E+03 0.  1.
<mgrwt>
<rscale>  2 0.47068881E+03</rscale>
<asrwt>0</asrwt>
<pdfrwt beam="1">  1       21 0.13208311E+00 0.47068881E+03</pdfrwt>
<pdfrwt beam="2">  1       21 0.74121650E-01 0.47068881E+03</pdfrwt>
<totfact> 0.56243614E+02</totfact>
</mgrwt>
</event>
<event>
 4    1  0.4890517E-002  0.6511172E+03  0.7818608E-02  0.9804685E-01
         21   -1    0    0  501  502  0.00000000000E+00  0.00000000000E+00  0.11061666993E+04  0.11061666993E+04  0.00000000000E+00 0. -1.
         21   -1    0    0  502  503 -0.00000000000E+00 -0.00000000000E+00 -0.38385363501E+03  0.38385363501E+03  0.00000000000E+00 0. -1.
    9000007    1    1    2  501    0  0.30684924759E+03  0.41206445907E+03  0.33195073337E+03  0.73085215232E+03  0.40000000000E+03 0. -1.
   -9000007    1    1    2    0  503 -0.30684924759E+03 -0.41206445907E+03  0.39036233095E+03  0.75916818202E+03  0.40000000000E+03 0. -1.
<mgrwt>
<rscale>  2 0.65111718E+03</rscale>
<asrwt>0</asrwt>
<pdfrwt beam="1">  1       21 0.17017949E+00 0.65111718E+03</pdfrwt>
<pdfrwt beam="2">  1       21 0.59054406E-01 0.65111718E+03</pdfrwt>
<totfact> 0.43710299E+02</totfact>
</mgrwt>
</event>
<event>
 4    1  0.4890517E-002  0.4755415E+03  0.7818608E-02  0.1020368E+00
         21   -1    0    0  501  502  0.00000000000E+00  0.00000000000E+00  0.43035558477E+03  0.43035558477E+03  0.00000000000E+00 0.  1.
         21   -1    0    0  502  503 -0.00000000000E+00 -0.00000000000E+00 -0.57527255301E+03  0.57527255301E+03  0.00000000000E+00 0. -1.
    9000007    1    1    2  501    0 -0.22237390128E+02  0.25621314077E+03 -0.22039965195E+03  0.52413326703E+03  0.40000000000E+03 0. -1.
   -9000007    1    1    2    0  503  0.22237390128E+02 -0.25621314077E+03  0.75482683718E+02  0.48149487076E+03  0.40000000000E+03 0. -1.
<mgrwt>
<rscale>  2 0.47554145E+03</rscale>
<asrwt>0</asrwt>
<pdfrwt beam="1">  1       21 0.66208551E-01 0.47554145E+03</pdfrwt>
<pdfrwt beam="2">  1       21 0.88503470E-01 0.47554145E+03</pdfrwt>
<totfact> 0.19547189E+03</totfact>
</mgrwt>
</event>
<event>
 4    1  0.4890517E-002  0.4288444E+03  0.7818608E-02  0.1034226E+00
         21   -1    0    0  503  502  0.00000000000E+00  0.00000000000E+00  0.40124785301E+03  0.40124785301E+03  0.00000000000E+00 0.  1.
         21   -1    0    0  501  503 -0.00000000000E+00 -0.00000000000E+00 -0.60235030957E+03  0.60235030957E+03  0.00000000000E+00 0.  1.
    9000007    1    1    2  501    0  0.13236110561E+03 -0.79925327010E+02 -0.34591117357E+03  0.55096466327E+03  0.40000000000E+03 0.  1.
   -9000007    1    1    2    0  502 -0.13236110561E+03  0.79925327010E+02  0.14480871700E+03  0.45263349931E+03  0.40000000000E+03 0.  1.
<mgrwt>
<rscale>  2 0.42884440E+03</rscale>
<asrwt>0</asrwt>
<pdfrwt beam="1">  1       21 0.61730439E-01 0.42884440E+03</pdfrwt>
<pdfrwt beam="2">  1       21 0.92669279E-01 0.42884440E+03</pdfrwt>
<totfact> 0.20830151E+03</totfact>
</mgrwt>
</event>
<event>
 4    1  0.4890517E-002  0.4483537E+03  0.7818608E-02  0.1028214E+00
         21   -1    0    0  503  502  0.00000000000E+00  0.00000000000E+00  0.77687838977E+03  0.77687838977E+03  0.00000000000E+00 0. -1.
         21   -1    0    0  501  503 -0.00000000000E+00 -0.00000000000E+00 -0.26161082373E+03  0.26161082373E+03  0.00000000000E+00 0. -1.
    9000007    1    1    2  501    0 -0.15052935317E+03  0.13550635889E+03  0.20338119797E+03  0.49232608214E+03  0.40000000000E+03 0. -1.
   -9000007    1    1    2    0  502  0.15052935317E+03 -0.13550635889E+03  0.31188636808E+03  0.54616313136E+03  0.40000000000E+03 0. -1.
<mgrwt>
<rscale>  2 0.44835372E+03</rscale>
<asrwt>0</asrwt>
<pdfrwt beam="1">  1       21 0.11951975E+00 0.44835372E+03</pdfrwt>
<pdfrwt beam="2">  1       21 0.40247819E-01 0.44835372E+03</pdfrwt>
<totfact> 0.27494790E+03</totfact>
</mgrwt>
</event>
<event>
 4    1  0.4890517E-002  0.4925897E+03  0.7818608E-02  0.1015731E+00
         21   -1    0    0  503  502  0.00000000000E+00  0.00000000000E+00  0.23436322796E+03  0.23436322796E+03  0.00000000000E+00 0. -1.
         21   -1    0    0  501  503 -0.00000000000E+00 -0.00000000000E+00 -0.10885799514E+04  0.10885799514E+04  0.00000000000E+00 0. -1.
    9000007    1    1    2  501    0  0.19362898970E+03  0.21249108304E+03 -0.28081760650E+03  0.56701249911E+03  0.40000000000E+03 0. -1.
   -9000007    1    1    2    0  502 -0.19362898970E+03 -0.21249108304E+03 -0.57339911691E+03  0.75593068022E+03  0.40000000000E+03 0. -1.
<mgrwt>
<rscale>  2 0.49258973E+03</rscale>
<asrwt>0</asrwt>
<pdfrwt beam="1">  1       21 0.36055882E-01 0.49258973E+03</pdfrwt>
<pdfrwt beam="2">  1       21 0.16747383E+00 0.49258973E+03</pdfrwt>
<totfact> 0.13728835E+03</totfact>
</mgrwt>
</event>
<event>
 4    1  0.4890517E-002  0.4116541E+03  0.7818608E-02  0.1039817E+00
         21   -1    0    0  501  502  0.00000000000E+00  0.00000000000E+00  0.42147918901E+03  0.42147918901E+03  0.00000000000E+00 0. -1.
         21   -1    0    0  502  503 -0.00000000000E+00 -0.00000000000E+00 -0.43886490939E+03  0.43886490939E+03  0.00000000000E+00 0. -1.
    9000007    1    1    2  501    0  0.60378465742E+02 -0.76246644794E+02 -0.13327076233E+03  0.43268950306E+03  0.40000000000E+03 0. -1.
   -9000007    1    1    2    0  503 -0.60378465742E+02  0.76246644794E+02  0.11588504194E+03  0.42765459534E+03  0.40000000000E+03 0. -1.
<mgrwt>
<rscale>  2 0.41165411E+03</rscale>
<asrwt>0</asrwt>
<pdfrwt beam="1">  1       21 0.64842952E-01 0.41165411E+03</pdfrwt>
<pdfrwt beam="2">  1       21 0.67517679E-01 0.41165411E+03</pdfrwt>
<totfact> 0.39002194E+03</totfact>
</mgrwt>
</event>
<event>
 4    1  0.4890517E-002  0.4658878E+03  0.7818608E-02  0.1023087E+00
         21   -1    0    0  501  502  0.00000000000E+00  0.00000000000E+00  0.27960679835E+03  0.27960679835E+03  0.00000000000E+00 0. -1.
         21   -1    0    0  502  503 -0.00000000000E+00 -0.00000000000E+00 -0.77633413660E+03  0.77633413660E+03  0.00000000000E+00 0. -1.
    9000007    1    1    2  501    0  0.17812520509E+03  0.15913155626E+03 -0.25301695290E+03  0.53015942823E+03  0.40000000000E+03 0. -1.
   -9000007    1    1    2    0  503 -0.17812520509E+03 -0.15913155626E+03 -0.24371038536E+03  0.52578150673E+03  0.40000000000E+03 0. -1.
<mgrwt>
<rscale>  2 0.46588780E+03</rscale>
<asrwt>0</asrwt>
<pdfrwt beam="1">  1       21 0.43016431E-01 0.46588780E+03</pdfrwt>
<pdfrwt beam="2">  1       21 0.11943602E+00 0.46588780E+03</pdfrwt>
<totfact> 0.23842561E+03</totfact>
</mgrwt>
</event>
<event>
 4    1  0.4890517E-002  0.5987775E+03  0.7818608E-02  0.9907946E-01
         21   -1    0    0  503  502  0.00000000000E+00  0.00000000000E+00  0.16989828517E+04  0.16989828517E+04  0.00000000000E+00 0. -1.
         21   -1    0    0  501  503 -0.00000000000E+00 -0.00000000000E+00 -0.32343039872E+03  0.32343039872E+03  0.00000000000E+00 0.  1.
    9000007    1    1    2  501    0  0.30981031810E+03 -0.32023746184E+03  0.91653665188E+02  0.60575148329E+03  0.40000000000E+03 0.  1.
   -9000007    1    1    2    0  502 -0.30981031810E+03  0.32023746184E+03  0.12838987878E+04  0.14166617671E+04  0.40000000000E+03 0. -1.
<mgrwt>
<rscale>  2 0.59877748E+03</rscale>
<asrwt>0</asrwt>
<pdfrwt beam="1">  1       21 0.26138197E+00 0.59877748E+03</pdfrwt>
<pdfrwt beam="2">  1       21 0.49758524E-01 0.59877748E+03</pdfrwt>
<totfact> 0.16114877E+02</totfact>
</mgrwt>
</event>
<event>
 4    1  0.4890517E-002  0.5415758E+03  0.7818608E-02  0.1003463E+00
         21   -1    0    0  501  502  0.00000000000E+00  0.00000000000E+00  0.52632828310E+03  0.52632828310E+03  0.00000000000E+00 0. -1.
         21   -1    0    0  502  503 -0.00000000000E+00 -0.00000000000E+00 -0.69798278939E+03  0.69798278939E+03  0.00000000000E+00 0. -1.
    9000007    1    1    2  501    0  0.54845046199E+02 -0.36096589449E+03  0.18903420874E+03  0.57361859118E+03  0.40000000000E+03 0. -1.
   -9000007    1    1    2    0  503 -0.54845046199E+02  0.36096589449E+03 -0.36068871503E+03  0.65069248130E+03  0.40000000000E+03 0. -1.
<mgrwt>
<rscale>  2 0.54157581E+03</rscale>
<asrwt>0</asrwt>
<pdfrwt beam="1">  1       21 0.80973582E-01 0.54157581E+03</pdfrwt>
<pdfrwt beam="2">  1       21 0.10738197E+00 0.54157581E+03</pdfrwt>
<totfact> 0.75578447E+02</totfact>
</mgrwt>
</event>
<event>
 4    1  0.4890517E-002  0.4219471E+03  0.7818608E-02  0.1036434E+00
         21   -1    0    0  501  502  0.00000000000E+00  0.00000000000E+00  0.88236563593E+03  0.88236563593E+03  0.00000000000E+00 0.  1.
         21   -1    0    0  502  503 -0.00000000000E+00 -0.00000000000E+00 -0.26000098785E+03  0.26000098785E+03  0.00000000000E+00 0. -1.
    9000007    1    1    2  501    0 -0.10906130343E+03  0.78389966952E+02  0.58148249660E+03  0.71844362944E+03  0.40000000000E+03 0.  1.
   -9000007    1    1    2    0  503  0.10906130343E+03 -0.78389966952E+02  0.40882151474E+02  0.42392299434E+03  0.40000000000E+03 0. -1.
<mgrwt>
<rscale>  2 0.42194710E+03</rscale>
<asrwt>0</asrwt>
<pdfrwt beam="1">  1       21 0.13574856E+00 0.42194710E+03</pdfrwt>
<pdfrwt beam="2">  1       21 0.40000152E-01 0.42194710E+03</pdfrwt>
<totfact> 0.20257391E+03</totfact>
</mgrwt>
</event>
<event>
 4    1  0.4890517E-002  0.4017684E+03  0.7818608E-02  0.1043169E+00
         21   -1    0    0  503  502  0.00000000000E+00  0.00000000000E+00  0.23301164542E+03  0.23301164542E+03  0.00000000000E+00 0.  1.
         21   -1    0    0  501  503 -0.00000000000E+00 -0.00000000000E+00 -0.72805529560E+03  0.72805529560E+03  0.00000000000E+00 0.  1.
    9000007    1    1    2  501    0  0.30198779712E+02 -0.22491272363E+02 -0.35334666383E+03  0.53504363230E+03  0.40000000000E+03 0.  1.
   -9000007    1    1    2    0  502 -0.30198779712E+02  0.22491272363E+02 -0.14169698635E+03  0.42602330872E+03  0.40000000000E+03 0.  1.
<mgrwt>
<rscale>  2 0.40176837E+03</rscale>
<asrwt>0</asrwt>
<pdfrwt beam="1">  1       21 0.35847947E-01 0.40176837E+03</pdfrwt>
<pdfrwt beam="2">  1       21 0.11200850E+00 0.40176837E+03</pdfrwt>
<totfact> 0.41704654E+03</totfact>
</mgrwt>
</event>
<event>
 4    1  0.4890517E-002  0.4325074E+03  0.7818608E-02  0.1033071E+00
         21   -1    0    0  503  502  0.00000000000E+00  0.00000000000E+00  0.21223851772E+04  0.21223851772E+04  0.00000000000E+00 0. -1.
         21   -1    0    0  501  503 -0.00000000000E+00 -0.00000000000E+00 -0.12847126219E+03  0.12847126219E+03  0.00000000000E+00 0. -1.
    9000007    1    1    2  501    0  0.42371832159E+02 -0.15895678095E+03  0.36636725910E+03  0.56682236980E+03  0.40000000000E+03 0. -1.
   -9000007    1    1    2    0  502 -0.42371832159E+02  0.15895678095E+03  0.16275466559E+04  0.16840340696E+04  0.40000000000E+03 0. -1.
<mgrwt>
<rscale>  2 0.43250738E+03</rscale>
<asrwt>0</asrwt>
<pdfrwt beam="1">  1       21 0.32652077E+00 0.43250738E+03</pdfrwt>
<pdfrwt beam="2">  1       21 0.19764811E-01 0.43250738E+03</pdfrwt>
<totfact> 0.45131413E+02</totfact>
</mgrwt>
</event>
<event>
 4    1  0.4890517E-002  0.4179899E+03  0.7818608E-02  0.1037722E+00
         21   -1    0    0  503  502  0.00000000000E+00  0.00000000000E+00  0.31849726004E+03  0.31849726004E+03  0.00000000000E+00 0. -1.
         21   -1    0    0  501  503 -0.00000000000E+00 -0.00000000000E+00 -0.73654751002E+03  0.73654751002E+03  0.00000000000E+00 0. -1.
    9000007    1    1    2  501    0  0.58226035395E+02  0.10642049395E+03 -0.47552827078E+03  0.63312141730E+03  0.40000000000E+03 0. -1.
   -9000007    1    1    2    0  502 -0.58226035395E+02 -0.10642049395E+03  0.57478020798E+02  0.42192335276E+03  0.40000000000E+03 0. -1.
<mgrwt>
<rscale>  2 0.41798994E+03</rscale>
<asrwt>0</asrwt>
<pdfrwt beam="1">  1       21 0.48999579E-01 0.41798994E+03</pdfrwt>
<pdfrwt beam="2">  1       21 0.11331500E+00 0.41798994E+03</pdfrwt>
<totfact> 0.21081053E+03</totfact>
</mgrwt>
</event>
<event>
 4    1  0.4890517E-002  0.4739055E+03  0.7818608E-02  0.1020824E+00
         21   -1    0    0  501  502  0.00000000000E+00  0.00000000000E+00  0.14818495021E+04  0.14818495021E+04  0.00000000000E+00 0.  1.
         21   -1    0    0  502  503 -0.00000000000E+00 -0.00000000000E+00 -0.15825051944E+03  0.15825051944E+03  0.00000000000E+00 0.  1.
    9000007    1    1    2  501    0 -0.20242705368E+03  0.15365447333E+03  0.83043803445E+03  0.95614524958E+03  0.40000000000E+03 0.  1.
   -9000007    1    1    2    0  503  0.20242705368E+03 -0.15365447333E+03  0.49316094821E+03  0.68395477195E+03  0.40000000000E+03 0.  1.
<mgrwt>
<rscale>  2 0.47390549E+03</rscale>
<asrwt>0</asrwt>
<pdfrwt beam="1">  1       21 0.22797684E+00 0.47390549E+03</pdfrwt>
<pdfrwt beam="2">  1       21 0.24346235E-01 0.47390549E+03</pdfrwt>
<totfact> 0.11765476E+03</totfact>
</mgrwt>
</event>
<event>
 4    1  0.4890517E-002  0.5206680E+03  0.7818608E-02  0.1008521E+00
         21   -1    0    0  501  502  0.00000000000E+00  0.00000000000E+00  0.29585563444E+03  0.29585563444E+03  0.00000000000E+00 0. -1.
         21   -1    0    0  502  503 -0.00000000000E+00 -0.00000000000E+00 -0.95978010965E+03  0.95978010965E+03  0.00000000000E+00 0. -1.
    9000007    1    1    2  501    0 -0.28490798986E+03 -0.17298145982E+03 -0.19834923858E+03  0.55716924590E+03  0.40000000000E+03 0. -1.
   -9000007    1    1    2    0  503  0.28490798986E+03  0.17298145982E+03 -0.46557523664E+03  0.69846649819E+03  0.40000000000E+03 0. -1.
<mgrwt>
<rscale>  2 0.52066798E+03</rscale>
<asrwt>0</asrwt>
<pdfrwt beam="1">  1       21 0.45516251E-01 0.52066798E+03</pdfrwt>
<pdfrwt beam="2">  1       21 0.14765848E+00 0.52066798E+03</pdfrwt>
<totfact> 0.11903072E+03</totfact>
</mgrwt>
</event>
<event>
 4    1  0.4890517E-002  0.4053207E+03  0.7818608E-02  0.1041953E+00
         21   -1    0    0  503  502  0.00000000000E+00  0.00000000000E+00  0.10247791433E+04  0.10247791433E+04  0.00000000000E+00 0. -1.
         21   -1    0    0  501  503 -0.00000000000E+00 -0.00000000000E+00 -0.16133735620E+03  0.16133735620E+03  0.00000000000E+00 0. -1.
    9000007    1    1    2  501    0 -0.95580465715E+01  0.64757376795E+02  0.38445280612E+03  0.55864911549E+03  0.40000000000E+03 0.  1.
   -9000007    1    1    2    0  502  0.95580465715E+01 -0.64757376795E+02  0.47898898097E+03  0.62746738401E+03  0.40000000000E+03 0.  1.
<mgrwt>
<rscale>  2 0.40532071E+03</rscale>
<asrwt>0</asrwt>
<pdfrwt beam="1">  1       21 0.15765833E+00 0.40532071E+03</pdfrwt>
<pdfrwt beam="2">  1       21 0.24821132E-01 0.40532071E+03</pdfrwt>
<totfact> 0.35352892E+03</totfact>
</mgrwt>
</event>
<event>
 4    1  0.4890517E-002  0.5191868E+03  0.7818608E-02  0.1008889E+00
         21   -1    0    0  501  502  0.00000000000E+00  0.00000000000E+00  0.55819687713E+03  0.55819687713E+03  0.00000000000E+00 0.  1.
         21   -1    0    0  502  503 -0.00000000000E+00 -0.00000000000E+00 -0.50536479894E+03  0.50536479894E+03  0.00000000000E+00 0. -1.
    9000007    1    1    2  501    0  0.13583106576E+03  0.30183582974E+03 -0.85696053309E+02  0.52621170654E+03  0.40000000000E+03 0. -1.
   -9000007    1    1    2    0  503 -0.13583106576E+03 -0.30183582974E+03  0.13852813150E+03  0.53734996954E+03  0.40000000000E+03 0. -1.
<mgrwt>
<rscale>  2 0.51918681E+03</rscale>
<asrwt>0</asrwt>
<pdfrwt beam="1">  1       21 0.85876443E-01 0.51918681E+03</pdfrwt>
<pdfrwt beam="2">  1       21 0.77748430E-01 0.51918681E+03</pdfrwt>
<totfact> 0.14360406E+03</totfact>
</mgrwt>
</event>
<event>
 4    1  0.4890517E-002  0.4002258E+03  0.7818608E-02  0.1043702E+00
         21   -1    0    0  503  502  0.00000000000E+00  0.00000000000E+00  0.99485734713E+02  0.99485734713E+02  0.00000000000E+00 0.  1.
         21   -1    0    0  501  503 -0.00000000000E+00 -0.00000000000E+00 -0.17031502605E+04  0.17031502605E+04  0.00000000000E+00 0.  1.
    9000007    1    1    2  501    0  0.26095761730E+01  0.13185267192E+02 -0.10125210027E+04  0.10887513224E+04  0.40000000000E+03 0.  1.
   -9000007    1    1    2    0  502 -0.26095761730E+01 -0.13185267192E+02 -0.59114352307E+03  0.71388467278E+03  0.40000000000E+03 0.  1.
<mgrwt>
<rscale>  2 0.40022576E+03</rscale>
<asrwt>0</asrwt>
<pdfrwt beam="1">  1       21 0.15305498E-01 0.40022576E+03</pdfrwt>
<pdfrwt beam="2">  1       21 0.26202312E+00 0.40022576E+03</pdfrwt>
<totfact> 0.18134873E+03</totfact>
</mgrwt>
</event>
<event>
 4    1  0.4890517E-002  0.4327209E+03  0.7818608E-02  0.1033004E+00
         21   -1    0    0  503  502  0.00000000000E+00  0.00000000000E+00  0.39207930543E+03  0.39207930543E+03  0.00000000000E+00 0.  1.
         21   -1    0    0  501  503 -0.00000000000E+00 -0.00000000000E+00 -0.48869886554E+03  0.48869886554E+03  0.00000000000E+00 0.  1.
    9000007    1    1    2  501    0  0.19268466138E+02 -0.16393920518E+03 -0.11475146471E+03  0.44767760212E+03  0.40000000000E+03 0.  1.
   -9000007    1    1    2    0  502 -0.19268466138E+02  0.16393920518E+03  0.18131904599E+02  0.43310056886E+03  0.40000000000E+03 0.  1.
<mgrwt>
<rscale>  2 0.43272085E+03</rscale>
<asrwt>0</asrwt>
<pdfrwt beam="1">  1       21 0.60319894E-01 0.43272085E+03</pdfrwt>
<pdfrwt beam="2">  1       21 0.75184440E-01 0.43272085E+03</pdfrwt>
<totfact> 0.35611794E+03</totfact>
</mgrwt>
</event>
<event>
 4    1  0.4890517E-002  0.5159628E+03  0.7818608E-02  0.1009694E+00
         21   -1    0    0  503  502  0.00000000000E+00  0.00000000000E+00  0.17646337365E+04  0.17646337365E+04  0.00000000000E+00 0.  1.
         21   -1    0    0  501  503 -0.00000000000E+00 -0.00000000000E+00 -0.34587802426E+03  0.34587802426E+03  0.00000000000E+00 0. -1.
    9000007    1    1    2  501    0 -0.66280508245E+02  0.31909954844E+03 -0.82996712964E+02  0.52259552423E+03  0.40000000000E+03 0. -1.
   -9000007    1    1    2    0  502  0.66280508245E+02 -0.31909954844E+03  0.15017524252E+04  0.15879162365E+04  0.40000000000E+03 0.  1.
<mgrwt>
<rscale>  2 0.51596282E+03</rscale>
<asrwt>0</asrwt>
<pdfrwt beam="1">  1       21 0.27148211E+00 0.51596282E+03</pdfrwt>
<pdfrwt beam="2">  1       21 0.53212005E-01 0.51596282E+03</pdfrwt>
<totfact> 0.12589860E+02</totfact>
</mgrwt>
</event>
<event>
 4    1  0.4890517E-002  0.4278010E+03  0.7818608E-02  0.1034557E+00
         21   -1    0    0  503  502  0.00000000000E+00  0.00000000000E+00  0.13543785700E+04  0.13543785700E+04  0.00000000000E+00 0.  1.
         21   -1    0    0  501  503 -0.00000000000E+00 -0.00000000000E+00 -0.19739871886E+03  0.19739871886E+03  0.00000000000E+00 0.  1.
    9000007    1    1    2  501    0 -0.14826040813E+03  0.32133534146E+02  0.14270609317E+03  0.45097532268E+03  0.40000000000E+03 0.  1.
   -9000007    1    1    2    0  502  0.14826040813E+03 -0.32133534146E+02  0.10142737580E+04  0.11008019662E+04  0.40000000000E+03 0.  1.
<mgrwt>
<rscale>  2 0.42780102E+03</rscale>
<asrwt>0</asrwt>
<pdfrwt beam="1">  1       21 0.20836593E+00 0.42780102E+03</pdfrwt>
<pdfrwt beam="2">  1       21 0.30369035E-01 0.42780102E+03</pdfrwt>
<totfact> 0.10406083E+03</totfact>
</mgrwt>
</event>
<event>
 4    1  0.4890517E-002  0.4063447E+03  0.7818608E-02  0.1041605E+00
         21   -1    0    0  501  502  0.00000000000E+00  0.00000000000E+00  0.39447119176E+03  0.39447119176E+03  0.00000000000E+00 0. -1.
         21   -1    0    0  502  503 -0.00000000000E+00 -0.00000000000E+00 -0.45706270206E+03  0.45706270206E+03  0.00000000000E+00 0. -1.
    9000007    1    1    2  501    0 -0.13408109084E+02  0.70258420240E+02 -0.15484541507E+03  0.43484839378E+03  0.40000000000E+03 0. -1.
   -9000007    1    1    2    0  503  0.13408109084E+02 -0.70258420240E+02  0.92253904768E+02  0.41668550005E+03  0.40000000000E+03 0. -1.
<mgrwt>
<rscale>  2 0.40634471E+03</rscale>
<asrwt>0</asrwt>
<pdfrwt beam="1">  1       21 0.60687876E-01 0.40634471E+03</pdfrwt>
<pdfrwt beam="2">  1       21 0.70317339E-01 0.40634471E+03</pdfrwt>
<totfact> 0.41286365E+03</totfact>
</mgrwt>
</event>
<event>
 4    1  0.4890517E-002  0.4467219E+03  0.7818608E-02  0.1028704E+00
         21   -1    0    0  501  502  0.00000000000E+00  0.00000000000E+00  0.25945802246E+03  0.25945802246E+03  0.00000000000E+00 0. -1.
         21   -1    0    0  502  503 -0.00000000000E+00 -0.00000000000E+00 -0.30686512786E+04  0.30686512786E+04  0.00000000000E+00 0. -1.
    9000007    1    1    2  501    0  0.19887158223E+03  0.32441087506E+01  0.35896747232E+02  0.44816180886E+03  0.40000000000E+03 0. -1.
   -9000007    1    1    2    0  503 -0.19887158223E+03 -0.32441087506E+01 -0.28450900034E+04  0.28799474922E+04  0.40000000000E+03 0. -1.
<mgrwt>
<rscale>  2 0.44672187E+03</rscale>
<asrwt>0</asrwt>
<pdfrwt beam="1">  1       21 0.39916618E-01 0.44672187E+03</pdfrwt>
<pdfrwt beam="2">  1       21 0.47210020E+00 0.44672187E+03</pdfrwt>
<totfact> 0.12917841E+01</totfact>
</mgrwt>
</event>
<event>
 4    1  0.4890517E-002  0.4231771E+03  0.7818608E-02  0.1036037E+00
         21   -1    0    0  501  502  0.00000000000E+00  0.00000000000E+00  0.29285937405E+03  0.29285937405E+03  0.00000000000E+00 0. -1.
         21   -1    0    0  502  503 -0.00000000000E+00 -0.00000000000E+00 -0.83873026716E+03  0.83873026716E+03  0.00000000000E+00 0. -1.
    9000007    1    1    2  501    0 -0.13166871146E+03 -0.41739332988E+02  0.21571937865E+02  0.42372652737E+03  0.40000000000E+03 0. -1.
   -9000007    1    1    2    0  503  0.13166871146E+03  0.41739332988E+02 -0.56744283098E+03  0.70786311383E+03  0.40000000000E+03 0. -1.
<mgrwt>
<rscale>  2 0.42317706E+03</rscale>
<asrwt>0</asrwt>
<pdfrwt beam="1">  1       21 0.45055289E-01 0.42317706E+03</pdfrwt>
<pdfrwt beam="2">  1       21 0.12903542E+00 0.42317706E+03</pdfrwt>
<totfact> 0.18046478E+03</totfact>
</mgrwt>
</event>
<event>
 4    1  0.4890517E-002  0.5031434E+03  0.7818608E-02  0.1012962E+00
         21   -1    0    0  501  502  0.00000000000E+00  0.00000000000E+00  0.74177863856E+03  0.74177863856E+03  0.00000000000E+00 0. -1.
         21   -1    0    0  502  503 -0.00000000000E+00 -0.00000000000E+00 -0.37522426894E+03  0.37522426894E+03  0.00000000000E+00 0.  1.
    9000007    1    1    2  501    0  0.29045823232E+03  0.93740573606E+02  0.15292328719E+02  0.50337573956E+03  0.40000000000E+03 0.  1.
   -9000007    1    1    2    0  503 -0.29045823232E+03 -0.93740573606E+02  0.35126204090E+03  0.61362716794E+03  0.40000000000E+03 0. -1.
<mgrwt>
<rscale>  2 0.50314340E+03</rscale>
<asrwt>0</asrwt>
<pdfrwt beam="1">  1       21 0.11411979E+00 0.50314340E+03</pdfrwt>
<pdfrwt beam="2">  1       21 0.57726811E-01 0.50314340E+03</pdfrwt>
<totfact> 0.14099261E+03</totfact>
</mgrwt>
</event>
<event>
 4    1  0.4890517E-002  0.4465564E+03  0.7818608E-02  0.1028754E+00
         21   -1    0    0  503  502  0.00000000000E+00  0.00000000000E+00  0.66330349331E+03  0.66330349331E+03  0.00000000000E+00 0. -1.
         21   -1    0    0  501  503 -0.00000000000E+00 -0.00000000000E+00 -0.11998591526E+04  0.11998591526E+04  0.00000000000E+00 0. -1.
    9000007    1    1    2  501    0 -0.16431552014E+03 -0.11141388841E+03 -0.10747501663E+04  0.11638301270E+04  0.40000000000E+03 0. -1.
   -9000007    1    1    2    0  502  0.16431552014E+03  0.11141388841E+03  0.53819450695E+03  0.69933251890E+03  0.40000000000E+03 0. -1.
<mgrwt>
<rscale>  2 0.44655643E+03</rscale>
<asrwt>0</asrwt>
<pdfrwt beam="1">  1       21 0.10204669E+00 0.44655643E+03</pdfrwt>
<pdfrwt beam="2">  1       21 0.18459371E+00 0.44655643E+03</pdfrwt>
<totfact> 0.10618439E+02</totfact>
</mgrwt>
</event>
<event>
 4    1  0.4890517E-002  0.4393594E+03  0.7818608E-02  0.1030944E+00
         21   -1    0    0  501  502  0.00000000000E+00  0.00000000000E+00  0.75601251459E+03  0.75601251459E+03  0.00000000000E+00 0.  1.
         21   -1    0    0  502  503 -0.00000000000E+00 -0.00000000000E+00 -0.81184802679E+03  0.81184802679E+03  0.00000000000E+00 0.  1.
    9000007    1    1    2  501    0  0.48349199796E+02 -0.17521129831E+03  0.62113146761E+03  0.76081597265E+03  0.40000000000E+03 0.  1.
   -9000007    1    1    2    0  503 -0.48349199796E+02  0.17521129831E+03 -0.67696697981E+03  0.80704456874E+03  0.40000000000E+03 0.  1.
<mgrwt>
<rscale>  2 0.43935936E+03</rscale>
<asrwt>0</asrwt>
<pdfrwt beam="1">  1       21 0.11630962E+00 0.43935936E+03</pdfrwt>
<pdfrwt beam="2">  1       21 0.12489970E+00 0.43935936E+03</pdfrwt>
<totfact> 0.22475048E+02</totfact>
</mgrwt>
</event>
<event>
 4    1  0.4890517E-002  0.4679843E+03  0.7818608E-02  0.1022491E+00
         21   -1    0    0  501  502  0.00000000000E+00  0.00000000000E+00  0.12523805361E+04  0.12523805361E+04  0.00000000000E+00 0.  1.
         21   -1    0    0  502  503 -0.00000000000E+00 -0.00000000000E+00 -0.85449674130E+03  0.85449674130E+03  0.00000000000E+00 0.  1.
    9000007    1    1    2  501    0 -0.76303622843E+01  0.24279848385E+03  0.11384225781E+04  0.12308595746E+04  0.40000000000E+03 0.  1.
   -9000007    1    1    2    0  503  0.76303622843E+01 -0.24279848385E+03 -0.74053878323E+03  0.87601770282E+03  0.40000000000E+03 0.  1.
<mgrwt>
<rscale>  2 0.46798432E+03</rscale>
<asrwt>0</asrwt>
<pdfrwt beam="1">  1       21 0.19267393E+00 0.46798432E+03</pdfrwt>
<pdfrwt beam="2">  1       21 0.13146104E+00 0.46798432E+03</pdfrwt>
<totfact> 0.48755156E+01</totfact>
</mgrwt>
</event>
<event>
 4    1  0.4890517E-002  0.4715390E+03  0.7818608E-02  0.1021487E+00
         21   -1    0    0  501  502  0.00000000000E+00  0.00000000000E+00  0.13263481514E+04  0.13263481514E+04  0.00000000000E+00 0. -1.
         21   -1    0    0  502  503 -0.00000000000E+00 -0.00000000000E+00 -0.41317404071E+03  0.41317404071E+03  0.00000000000E+00 0. -1.
    9000007    1    1    2  501    0 -0.16160048105E+03  0.19035316850E+03  0.11270724053E+04  0.12217369812E+04  0.40000000000E+03 0. -1.
   -9000007    1    1    2    0  503  0.16160048105E+03 -0.19035316850E+03 -0.21389829465E+03  0.51778521096E+03  0.40000000000E+03 0. -1.
<mgrwt>
<rscale>  2 0.47153902E+03</rscale>
<asrwt>0</asrwt>
<pdfrwt beam="1">  1       21 0.20405356E+00 0.47153902E+03</pdfrwt>
<pdfrwt beam="2">  1       21 0.63565238E-01 0.47153902E+03</pdfrwt>
<totfact> 0.23181469E+02</totfact>
</mgrwt>
</event>
<event>
 4    1  0.4890517E-002  0.5361125E+03  0.7818608E-02  0.1004760E+00
         21   -1    0    0  503  502  0.00000000000E+00  0.00000000000E+00  0.14197789024E+04  0.14197789024E+04  0.00000000000E+00 0. -1.
         21   -1    0    0  501  503 -0.00000000000E+00 -0.00000000000E+00 -0.20247296965E+03  0.20247296965E+03  0.00000000000E+00 0.  1.
    9000007    1    1    2  501    0  0.10861128455E+03  0.34002964026E+03  0.59792528213E+03  0.80307609254E+03  0.40000000000E+03 0.  1.
   -9000007    1    1    2    0  502 -0.10861128455E+03 -0.34002964026E+03  0.61938065062E+03  0.81917577952E+03  0.40000000000E+03 0. -1.
<mgrwt>
<rscale>  2 0.53611246E+03</rscale>
<asrwt>0</asrwt>
<pdfrwt beam="1">  1       21 0.21842752E+00 0.53611246E+03</pdfrwt>
<pdfrwt beam="2">  1       21 0.31149689E-01 0.53611246E+03</pdfrwt>
<totfact> 0.81134787E+02</totfact>
</mgrwt>
</event>
<event>
 4    1  0.4890517E-002  0.4431495E+03  0.7818608E-02  0.1029785E+00
         21   -1    0    0  503  502  0.00000000000E+00  0.00000000000E+00  0.33439598621E+03  0.33439598621E+03  0.00000000000E+00 0. -1.
         21   -1    0    0  501  503 -0.00000000000E+00 -0.00000000000E+00 -0.59002329741E+03  0.59002329741E+03  0.00000000000E+00 0.  1.
    9000007    1    1    2  501    0 -0.99923936861E+02 -0.16247049004E+03 -0.15937536525E+03  0.47093732103E+03  0.40000000000E+03 0. -1.
   -9000007    1    1    2    0  502  0.99923936861E+02  0.16247049004E+03 -0.96251945957E+02  0.45348196259E+03  0.40000000000E+03 0.  1.
<mgrwt>
<rscale>  2 0.44314947E+03</rscale>
<asrwt>0</asrwt>
<pdfrwt beam="1">  1       21 0.51445537E-01 0.44314947E+03</pdfrwt>
<pdfrwt beam="2">  1       21 0.90772814E-01 0.44314947E+03</pdfrwt>
<totfact> 0.32301308E+03</totfact>
</mgrwt>
</event>
<event>
 4    1  0.4890517E-002  0.4875722E+03  0.7818608E-02  0.1017075E+00
         21   -1    0    0  501  502  0.00000000000E+00  0.00000000000E+00  0.17767622223E+03  0.17767622223E+03  0.00000000000E+00 0.  1.
         21   -1    0    0  502  503 -0.00000000000E+00 -0.00000000000E+00 -0.14311549533E+04  0.14311549533E+04  0.00000000000E+00 0. -1.
    9000007    1    1    2  501    0  0.83945386828E+01  0.27866860272E+03 -0.42148412156E+03  0.64449633292E+03  0.40000000000E+03 0. -1.
   -9000007    1    1    2    0  503 -0.83945386828E+01 -0.27866860272E+03 -0.83199460949E+03  0.96433484260E+03  0.40000000000E+03 0. -1.
<mgrwt>
<rscale>  2 0.48757221E+03</rscale>
<asrwt>0</asrwt>
<pdfrwt beam="1">  1       21 0.27334804E-01 0.48757221E+03</pdfrwt>
<pdfrwt beam="2">  1       21 0.22017768E+00 0.48757221E+03</pdfrwt>
<totfact> 0.10454503E+03</totfact>
</mgrwt>
</event>
<event>
 4    1  0.4890517E-002  0.4370800E+03  0.7818608E-02  0.1031646E+00
         21   -1    0    0  503  502  0.00000000000E+00  0.00000000000E+00  0.14578570645E+03  0.14578570645E+03  0.00000000000E+00 0. -1.
         21   -1    0    0  501  503 -0.00000000000E+00 -0.00000000000E+00 -0.15237028655E+04  0.15237028655E+04  0.00000000000E+00 0. -1.
    9000007    1    1    2  501    0 -0.49091982348E+02  0.16920084153E+03 -0.10012730998E+04  0.10925139669E+04  0.40000000000E+03 0. -1.
   -9000007    1    1    2    0  502  0.49091982348E+02 -0.16920084153E+03 -0.37664405927E+03  0.57697460506E+03  0.40000000000E+03 0. -1.
<mgrwt>
<rscale>  2 0.43708002E+03</rscale>
<asrwt>0</asrwt>
<pdfrwt beam="1">  1       21 0.22428570E-01 0.43708002E+03</pdfrwt>
<pdfrwt beam="2">  1       21 0.23441583E+00 0.43708002E+03</pdfrwt>
<totfact> 0.12778909E+03</totfact>
</mgrwt>
</event>
<event>
 4    1  0.4890517E-002  0.5017684E+03  0.7818608E-02  0.1013318E+00
         21   -1    0    0  501  502  0.00000000000E+00  0.00000000000E+00  0.51234721661E+03  0.51234721661E+03  0.00000000000E+00 0. -1.
         21   -1    0    0  502  503 -0.00000000000E+00 -0.00000000000E+00 -0.58135069079E+03  0.58135069079E+03  0.00000000000E+00 0. -1.
    9000007    1    1    2  501    0 -0.30287564326E+03  0.61504532139E+01  0.18059380252E+03  0.53327816837E+03  0.40000000000E+03 0. -1.
   -9000007    1    1    2    0  503  0.30287564326E+03 -0.61504532139E+01 -0.24959727669E+03  0.56041973902E+03  0.40000000000E+03 0. -1.
<mgrwt>
<rscale>  2 0.50176836E+03</rscale>
<asrwt>0</asrwt>
<pdfrwt beam="1">  1       21 0.78822649E-01 0.50176836E+03</pdfrwt>
<pdfrwt beam="2">  1       21 0.89438568E-01 0.50176836E+03</pdfrwt>
<totfact> 0.12714611E+03</totfact>
</mgrwt>
</event>
<event>
 4    1  0.4890517E-002  0.4890061E+03  0.7818608E-02  0.1016689E+00
         21   -1    0    0  501  502  0.00000000000E+00  0.00000000000E+00  0.95235574414E+03  0.95235574414E+03  0.00000000000E+00 0.  1.
         21   -1    0    0  502  503 -0.00000000000E+00 -0.00000000000E+00 -0.25832989942E+03  0.25832989942E+03  0.00000000000E+00 0. -1.
    9000007    1    1    2  501    0  0.25840859918E+03 -0.11113921290E+03  0.24567250504E+03  0.54724940248E+03  0.40000000000E+03 0. -1.
   -9000007    1    1    2    0  503 -0.25840859918E+03  0.11113921290E+03  0.44835333968E+03  0.66343624108E+03  0.40000000000E+03 0.  1.
<mgrwt>
<rscale>  2 0.48900606E+03</rscale>
<asrwt>0</asrwt>
<pdfrwt beam="1">  1       21 0.14651627E+00 0.48900606E+03</pdfrwt>
<pdfrwt beam="2">  1       21 0.39743062E-01 0.48900606E+03</pdfrwt>
<totfact> 0.16311579E+03</totfact>
</mgrwt>
</event>
<event>
 4    1  0.4890517E-002  0.4534557E+03  0.7818608E-02  0.1026697E+00
         21   -1    0    0  503  502  0.00000000000E+00  0.00000000000E+00  0.79898444812E+03  0.79898444812E+03  0.00000000000E+00 0.  1.
         21   -1    0    0  501  503 -0.00000000000E+00 -0.00000000000E+00 -0.26468834456E+03  0.26468834456E+03  0.00000000000E+00 0. -1.
    9000007    1    1    2  501    0 -0.13992672075E+03 -0.16137711350E+03  0.17861951503E+03  0.48736740873E+03  0.40000000000E+03 0. -1.
   -9000007    1    1    2    0  502  0.13992672075E+03  0.16137711350E+03  0.35567658854E+03  0.57630538396E+03  0.40000000000E+03 0.  1.
<mgrwt>
<rscale>  2 0.45345569E+03</rscale>
<asrwt>0</asrwt>
<pdfrwt beam="1">  1       21 0.12292068E+00 0.45345569E+03</pdfrwt>
<pdfrwt beam="2">  1       21 0.40721284E-01 0.45345569E+03</pdfrwt>
<totfact> 0.24936024E+03</totfact>
</mgrwt>
</event>
<event>
 4    1  0.4890517E-002  0.6467279E+03  0.7818608E-02  0.9812938E-01
         21   -1    0    0  503  502  0.00000000000E+00  0.00000000000E+00  0.20379423598E+03  0.20379423598E+03  0.00000000000E+00 0.  1.
         21   -1    0    0  501  503 -0.00000000000E+00 -0.00000000000E+00 -0.29378063795E+04  0.29378063795E+04  0.00000000000E+00 0.  1.
    9000007    1    1    2  501    0 -0.26829799187E+03 -0.43159382026E+03 -0.22293749068E+04  0.23212861765E+04  0.40000000000E+03 0.  1.
   -9000007    1    1    2    0  502  0.26829799187E+03  0.43159382026E+03 -0.50463723675E+03  0.82031443901E+03  0.40000000000E+03 0.  1.
<mgrwt>
<rscale>  2 0.64672795E+03</rscale>
<asrwt>0</asrwt>
<pdfrwt beam="1">  1       21 0.31352959E-01 0.64672795E+03</pdfrwt>
<pdfrwt beam="2">  1       21 0.45197022E+00 0.64672795E+03</pdfrwt>
<totfact> 0.25545101E+01</totfact>
</mgrwt>
</event>
<event>
 4    1  0.4890517E-002  0.4379498E+03  0.7818608E-02  0.1031378E+00
         21   -1    0    0  501  502  0.00000000000E+00  0.00000000000E+00  0.40038944623E+03  0.40038944623E+03  0.00000000000E+00 0.  1.
         21   -1    0    0  502  503 -0.00000000000E+00 -0.00000000000E+00 -0.78732295977E+03  0.78732295977E+03  0.00000000000E+00 0.  1.
    9000007    1    1    2  501    0  0.15874469314E+03 -0.81241282349E+02  0.17814039327E+03  0.47279384860E+03  0.40000000000E+03 0.  1.
   -9000007    1    1    2    0  503 -0.15874469314E+03  0.81241282349E+02 -0.56507390682E+03  0.71491855741E+03  0.40000000000E+03 0.  1.
<mgrwt>
<rscale>  2 0.43794980E+03</rscale>
<asrwt>0</asrwt>
<pdfrwt beam="1">  1       21 0.61598376E-01 0.43794980E+03</pdfrwt>
<pdfrwt beam="2">  1       21 0.12112661E+00 0.43794980E+03</pdfrwt>
<totfact> 0.10791775E+03</totfact>
</mgrwt>
</event>
<event>
 4    1  0.4890517E-002  0.4435415E+03  0.7818608E-02  0.1029666E+00
         21   -1    0    0  503  502  0.00000000000E+00  0.00000000000E+00  0.85830243133E+03  0.85830243133E+03  0.00000000000E+00 0.  1.
         21   -1    0    0  501  503 -0.00000000000E+00 -0.00000000000E+00 -0.31559615531E+03  0.31559615531E+03  0.00000000000E+00 0.  1.
    9000007    1    1    2  501    0 -0.58704910761E+02 -0.18243583996E+03 -0.35735556361E+02  0.44497879976E+03  0.40000000000E+03 0.  1.
   -9000007    1    1    2    0  502  0.58704910761E+02  0.18243583996E+03  0.57844183239E+03  0.72891978688E+03  0.40000000000E+03 0.  1.
<mgrwt>
<rscale>  2 0.44354155E+03</rscale>
<asrwt>0</asrwt>
<pdfrwt beam="1">  1       21 0.13204653E+00 0.44354155E+03</pdfrwt>
<pdfrwt beam="2">  1       21 0.48553255E-01 0.44354155E+03</pdfrwt>
<totfact> 0.14401784E+03</totfact>
</mgrwt>
</event>
<event>
 4    1  0.4890517E-002  0.4834614E+03  0.7818608E-02  0.1018188E+00
         21   -1    0    0  501  502  0.00000000000E+00  0.00000000000E+00  0.37370877183E+03  0.37370877183E+03  0.00000000000E+00 0. -1.
         21   -1    0    0  502  503 -0.00000000000E+00 -0.00000000000E+00 -0.74052404300E+03  0.74052404300E+03  0.00000000000E+00 0. -1.
    9000007    1    1    2  501    0  0.21848734863E+03 -0.16123948074E+03 -0.40302739608E+03  0.62941716981E+03  0.40000000000E+03 0. -1.
   -9000007    1    1    2    0  503 -0.21848734863E+03  0.16123948074E+03  0.36212124901E+02  0.48481564502E+03  0.40000000000E+03 0. -1.
<mgrwt>
<rscale>  2 0.48346137E+03</rscale>
<asrwt>0</asrwt>
<pdfrwt beam="1">  1       21 0.57493658E-01 0.48346137E+03</pdfrwt>
<pdfrwt beam="2">  1       21 0.11392677E+00 0.48346137E+03</pdfrwt>
<totfact> 0.14386520E+03</totfact>
</mgrwt>
</event>
<event>
 4    1  0.4890517E-002  0.4132851E+03  0.7818608E-02  0.1039274E+00
         21   -1    0    0  501  502  0.00000000000E+00  0.00000000000E+00  0.97815263774E+02  0.97815263774E+02  0.00000000000E+00 0.  1.
         21   -1    0    0  502  503 -0.00000000000E+00 -0.00000000000E+00 -0.21077221881E+04  0.21077221881E+04  0.00000000000E+00 0. -1.
    9000007    1    1    2  501    0  0.10393848813E+03 -0.11573196757E+01 -0.54823550161E+03  0.68656151503E+03  0.40000000000E+03 0.  1.
   -9000007    1    1    2    0  503 -0.10393848813E+03  0.11573196757E+01 -0.14616714227E+04  0.15189759368E+04  0.40000000000E+03 0. -1.
<mgrwt>
<rscale>  2 0.41328507E+03</rscale>
<asrwt>0</asrwt>
<pdfrwt beam="1">  1       21 0.15048502E-01 0.41328507E+03</pdfrwt>
<pdfrwt beam="2">  1       21 0.32426495E+00 0.41328507E+03</pdfrwt>
<totfact> 0.78558621E+02</totfact>
</mgrwt>
</event>
<event>
 4    1  0.4890517E-002  0.6158999E+03  0.7818608E-02  0.9872957E-01
         21   -1    0    0  501  502  0.00000000000E+00  0.00000000000E+00  0.16498754189E+04  0.16498754189E+04  0.00000000000E+00 0.  1.
         21   -1    0    0  502  503 -0.00000000000E+00 -0.00000000000E+00 -0.23379311438E+03  0.23379311438E+03  0.00000000000E+00 0. -1.
    9000007    1    1    2  501    0 -0.43350165356E+03  0.17722590471E+03  0.82932827596E+03  0.10330140823E+04  0.40000000000E+03 0.  1.
   -9000007    1    1    2    0  503  0.43350165356E+03 -0.17722590471E+03  0.58675402860E+03  0.85065445101E+03  0.40000000000E+03 0. -1.
<mgrwt>
<rscale>  2 0.61589991E+03</rscale>
<asrwt>0</asrwt>
<pdfrwt beam="1">  1       21 0.25382698E+00 0.61589991E+03</pdfrwt>
<pdfrwt beam="2">  1       21 0.35968172E-01 0.61589991E+03</pdfrwt>
<totfact> 0.35120532E+02</totfact>
</mgrwt>
</event>
<event>
 4    1  0.4890517E-002  0.6914262E+03  0.7818608E-02  0.9732008E-01
         21   -1    0    0  503  502  0.00000000000E+00  0.00000000000E+00  0.11126604507E+04  0.11126604507E+04  0.00000000000E+00 0.  1.
         21   -1    0    0  501  503 -0.00000000000E+00 -0.00000000000E+00 -0.43194505141E+03  0.43194505141E+03  0.00000000000E+00 0. -1.
    9000007    1    1    2  501    0  0.36551156749E+03  0.42950146563E+03  0.28423553099E+03  0.74756942956E+03  0.40000000000E+03 0. -1.
   -9000007    1    1    2    0  502 -0.36551156749E+03 -0.42950146563E+03  0.39647986829E+03  0.79703607252E+03  0.40000000000E+03 0.  1.
<mgrwt>
<rscale>  2 0.69142622E+03</rscale>
<asrwt>0</asrwt>
<pdfrwt beam="1">  1       21 0.17117853E+00 0.69142622E+03</pdfrwt>
<pdfrwt beam="2">  1       21 0.66453085E-01 0.69142622E+03</pdfrwt>
<totfact> 0.32621321E+02</totfact>
</mgrwt>
</event>
<event>
 4    1  0.4890517E-002  0.4519466E+03  0.7818608E-02  0.1027143E+00
         21   -1    0    0  501  502  0.00000000000E+00  0.00000000000E+00  0.12978162765E+03  0.12978162765E+03  0.00000000000E+00 0.  1.
         21   -1    0    0  502  503 -0.00000000000E+00 -0.00000000000E+00 -0.16493017706E+04  0.16493017706E+04  0.00000000000E+00 0.  1.
    9000007    1    1    2  501    0 -0.20994273439E+03 -0.13409482595E+02 -0.56948836151E+03  0.72703009555E+03  0.40000000000E+03 0.  1.
   -9000007    1    1    2    0  503  0.20994273439E+03  0.13409482595E+02 -0.95003178143E+03  0.10520533027E+04  0.40000000000E+03 0.  1.
<mgrwt>
<rscale>  2 0.45194664E+03</rscale>
<asrwt>0</asrwt>
<pdfrwt beam="1">  1       21 0.19966405E-01 0.45194664E+03</pdfrwt>
<pdfrwt beam="2">  1       21 0.25373872E+00 0.45194664E+03</pdfrwt>
<totfact> 0.12038825E+03</totfact>
</mgrwt>
</event>
<event>
 4    1  0.4890517E-002  0.4646221E+03  0.7818608E-02  0.1023449E+00
         21   -1    0    0  501  502  0.00000000000E+00  0.00000000000E+00  0.64806644240E+03  0.64806644240E+03  0.00000000000E+00 0.  1.
         21   -1    0    0  502  503 -0.00000000000E+00 -0.00000000000E+00 -0.40126286712E+03  0.40126286712E+03  0.00000000000E+00 0.  1.
    9000007    1    1    2  501    0 -0.23172876808E+03 -0.46641947483E+02  0.33963762522E+03  0.57552359612E+03  0.40000000000E+03 0.  1.
   -9000007    1    1    2    0  503  0.23172876808E+03  0.46641947483E+02 -0.92834049938E+02  0.47380571340E+03  0.40000000000E+03 0.  1.
<mgrwt>
<rscale>  2 0.46462210E+03</rscale>
<asrwt>0</asrwt>
<pdfrwt beam="1">  1       21 0.99702529E-01 0.46462210E+03</pdfrwt>
<pdfrwt beam="2">  1       21 0.61732749E-01 0.46462210E+03</pdfrwt>
<totfact> 0.17233468E+03</totfact>
</mgrwt>
</event>
<event>
 4    1  0.4890517E-002  0.4031218E+03  0.7818608E-02  0.1042704E+00
         21   -1    0    0  503  502  0.00000000000E+00  0.00000000000E+00  0.37806673169E+03  0.37806673169E+03  0.00000000000E+00 0.  1.
         21   -1    0    0  501  503 -0.00000000000E+00 -0.00000000000E+00 -0.44904456054E+03  0.44904456054E+03  0.00000000000E+00 0.  1.
    9000007    1    1    2  501    0 -0.41165043473E+02  0.28505878969E+02 -0.12101981827E+03  0.42089540548E+03  0.40000000000E+03 0.  1.
   -9000007    1    1    2    0  502  0.41165043473E+02 -0.28505878969E+02  0.50041989422E+02  0.40621588675E+03  0.40000000000E+03 0.  1.
<mgrwt>
<rscale>  2 0.40312175E+03</rscale>
<asrwt>0</asrwt>
<pdfrwt beam="1">  1       21 0.58164113E-01 0.40312175E+03</pdfrwt>
<pdfrwt beam="2">  1       21 0.69083778E-01 0.40312175E+03</pdfrwt>
<totfact> 0.47191049E+03</totfact>
</mgrwt>
</event>
<event>
 4    1  0.4890517E-002  0.4028445E+03  0.7818608E-02  0.1042799E+00
         21   -1    0    0  503  502  0.00000000000E+00  0.00000000000E+00  0.44645124723E+03  0.44645124723E+03  0.00000000000E+00 0. -1.
         21   -1    0    0  501  503 -0.00000000000E+00 -0.00000000000E+00 -0.55099992255E+03  0.55099992255E+03  0.00000000000E+00 0. -1.
    9000007    1    1    2  501    0 -0.21029475984E+02 -0.42912189482E+02 -0.34320526075E+03  0.52921975197E+03  0.40000000000E+03 0. -1.
   -9000007    1    1    2    0  502  0.21029475984E+02  0.42912189482E+02  0.23865658543E+03  0.46823141782E+03  0.40000000000E+03 0. -1.
<mgrwt>
<rscale>  2 0.40284450E+03</rscale>
<asrwt>0</asrwt>
<pdfrwt beam="1">  1       21 0.68684807E-01 0.40284450E+03</pdfrwt>
<pdfrwt beam="2">  1       21 0.84769219E-01 0.40284450E+03</pdfrwt>
<totfact> 0.20491654E+03</totfact>
</mgrwt>
</event>
<event>
 4    1  0.4890517E-002  0.4509601E+03  0.7818608E-02  0.1027436E+00
         21   -1    0    0  503  502  0.00000000000E+00  0.00000000000E+00  0.76014372503E+03  0.76014372503E+03  0.00000000000E+00 0.  1.
         21   -1    0    0  501  503 -0.00000000000E+00 -0.00000000000E+00 -0.28661359665E+03  0.28661359665E+03  0.00000000000E+00 0.  1.
    9000007    1    1    2  501    0  0.64312393892E+02 -0.19806285836E+03  0.37179868172E+03  0.58446491734E+03  0.40000000000E+03 0.  1.
   -9000007    1    1    2    0  502 -0.64312393892E+02  0.19806285836E+03  0.10173144666E+03  0.46229240434E+03  0.40000000000E+03 0.  1.
<mgrwt>
<rscale>  2 0.45096006E+03</rscale>
<asrwt>0</asrwt>
<pdfrwt beam="1">  1       21 0.11694519E+00 0.45096006E+03</pdfrwt>
<pdfrwt beam="2">  1       21 0.44094400E-01 0.45096006E+03</pdfrwt>
<totfact> 0.24012445E+03</totfact>
</mgrwt>
</event>
<event>
 4    1  0.4890517E-002  0.4099908E+03  0.7818608E-02  0.1040374E+00
         21   -1    0    0  503  502  0.00000000000E+00  0.00000000000E+00  0.43881703164E+03  0.43881703164E+03  0.00000000000E+00 0.  1.
         21   -1    0    0  501  503 -0.00000000000E+00 -0.00000000000E+00 -0.43396160534E+03  0.43396160534E+03  0.00000000000E+00 0.  1.
    9000007    1    1    2  501    0  0.88880304386E+02  0.13884167567E+02 -0.14703116488E+03  0.43555785157E+03  0.40000000000E+03 0.  1.
   -9000007    1    1    2    0  502 -0.88880304386E+02 -0.13884167567E+02  0.15188659118E+03  0.43722078541E+03  0.40000000000E+03 0.  1.
<mgrwt>
<rscale>  2 0.40999083E+03</rscale>
<asrwt>0</asrwt>
<pdfrwt beam="1">  1       21 0.67510313E-01 0.40999083E+03</pdfrwt>
<pdfrwt beam="2">  1       21 0.66763324E-01 0.40999083E+03</pdfrwt>
<totfact> 0.36584308E+03</totfact>
</mgrwt>
</event>
<event>
 4    1  0.4890517E-002  0.4408049E+03  0.7818608E-02  0.1030500E+00
         21   -1    0    0  501  502  0.00000000000E+00  0.00000000000E+00  0.12866009937E+04  0.12866009937E+04  0.00000000000E+00 0.  1.
         21   -1    0    0  502  503 -0.00000000000E+00 -0.00000000000E+00 -0.15576524000E+03  0.15576524000E+03  0.00000000000E+00 0.  1.
    9000007    1    1    2  501    0  0.18504008792E+03 -0.83137974434E+01  0.43960963912E+03  0.62254765936E+03  0.40000000000E+03 0.  1.
   -9000007    1    1    2    0  503 -0.18504008792E+03  0.83137974434E+01  0.69122611455E+03  0.81981857432E+03  0.40000000000E+03 0.  1.
<mgrwt>
<rscale>  2 0.44080489E+03</rscale>
<asrwt>0</asrwt>
<pdfrwt beam="1">  1       21 0.19793861E+00 0.44080489E+03</pdfrwt>
<pdfrwt beam="2">  1       21 0.23963884E-01 0.44080489E+03</pdfrwt>
<totfact> 0.19291982E+03</totfact>
</mgrwt>
</event>
<event>
 4    1  0.4890517E-002  0.4056330E+03  0.7818608E-02  0.1041846E+00
         21   -1    0    0  503  502  0.00000000000E+00  0.00000000000E+00  0.42624530530E+03  0.42624530530E+03  0.00000000000E+00 0. -1.
         21   -1    0    0  501  503 -0.00000000000E+00 -0.00000000000E+00 -0.38864156429E+03  0.38864156429E+03  0.00000000000E+00 0. -1.
    9000007    1    1    2  501    0 -0.65209773092E+02 -0.16907264733E+02 -0.14677360795E+02  0.40589850336E+03  0.40000000000E+03 0.  1.
   -9000007    1    1    2    0  502  0.65209773092E+02  0.16907264733E+02  0.52281101802E+02  0.40898836623E+03  0.40000000000E+03 0.  1.
<mgrwt>
<rscale>  2 0.40563305E+03</rscale>
<asrwt>0</asrwt>
<pdfrwt beam="1">  1       21 0.65576201E-01 0.40563305E+03</pdfrwt>
<pdfrwt beam="2">  1       21 0.59791010E-01 0.40563305E+03</pdfrwt>
<totfact> 0.49866401E+03</totfact>
</mgrwt>
</event>
<event>
 4    1  0.4890517E-002  0.4274595E+03  0.7818608E-02  0.1034666E+00
         21   -1    0    0  501  502  0.00000000000E+00  0.00000000000E+00  0.21322200548E+03  0.21322200548E+03  0.00000000000E+00 0.  1.
         21   -1    0    0  502  503 -0.00000000000E+00 -0.00000000000E+00 -0.88500501787E+03  0.88500501787E+03  0.00000000000E+00 0.  1.
    9000007    1    1    2  501    0 -0.15028372742E+03  0.11680014258E+02 -0.43365064533E+03  0.60891255830E+03  0.40000000000E+03 0.  1.
   -9000007    1    1    2    0  503  0.15028372742E+03 -0.11680014258E+02 -0.23813236706E+03  0.48931446505E+03  0.40000000000E+03 0.  1.
<mgrwt>
<rscale>  2 0.42745950E+03</rscale>
<asrwt>0</asrwt>
<pdfrwt beam="1">  1       21 0.32803386E-01 0.42745950E+03</pdfrwt>
<pdfrwt beam="2">  1       21 0.13615462E+00 0.42745950E+03</pdfrwt>
<totfact> 0.30000677E+03</totfact>
</mgrwt>
</event>
<event>
 4    1  0.4890517E-002  0.4833632E+03  0.7818608E-02  0.1018215E+00
         21   -1    0    0  503  502  0.00000000000E+00  0.00000000000E+00  0.60085411549E+03  0.60085411549E+03  0.00000000000E+00 0.  1.
         21   -1    0    0  501  503 -0.00000000000E+00 -0.00000000000E+00 -0.38942489979E+03  0.38942489979E+03  0.00000000000E+00 0. -1.
    9000007    1    1    2  501    0  0.15783032206E+03 -0.22074774332E+03  0.12479804941E+03  0.49921391195E+03  0.40000000000E+03 0.  1.
   -9000007    1    1    2    0  502 -0.15783032206E+03  0.22074774332E+03  0.86631166291E+02  0.49106510334E+03  0.40000000000E+03 0. -1.
<mgrwt>
<rscale>  2 0.48336319E+03</rscale>
<asrwt>0</asrwt>
<pdfrwt beam="1">  1       21 0.92439095E-01 0.48336319E+03</pdfrwt>
<pdfrwt beam="2">  1       21 0.59911523E-01 0.48336319E+03</pdfrwt>
<totfact> 0.21932050E+03</totfact>
</mgrwt>
</event>
<event>
 4    1  0.4890517E-002  0.4003184E+03  0.7818608E-02  0.1043669E+00
         21   -1    0    0  503  502  0.00000000000E+00  0.00000000000E+00  0.23417667271E+03  0.23417667271E+03  0.00000000000E+00 0.  1.
         21   -1    0    0  501  503 -0.00000000000E+00 -0.00000000000E+00 -0.77768108586E+03  0.77768108586E+03  0.00000000000E+00 0.  1.
    9000007    1    1    2  501    0 -0.73696104569E+01 -0.14161107546E+02 -0.96468648438E+02  0.41177791133E+03  0.40000000000E+03 0.  1.
   -9000007    1    1    2    0  502  0.73696104569E+01  0.14161107546E+02 -0.44703576472E+03  0.60007984724E+03  0.40000000000E+03 0.  1.
<mgrwt>
<rscale>  2 0.40031843E+03</rscale>
<asrwt>0</asrwt>
<pdfrwt beam="1">  1       21 0.36027180E-01 0.40031843E+03</pdfrwt>
<pdfrwt beam="2">  1       21 0.11964324E+00 0.40031843E+03</pdfrwt>
<totfact> 0.35031121E+03</totfact>
</mgrwt>
</event>
<event>
 4    1  0.4890517E-002  0.6321210E+03  0.7818608E-02  0.9840918E-01
         21   -1    0    0  503  502  0.00000000000E+00  0.00000000000E+00  0.41557952356E+03  0.41557952356E+03  0.00000000000E+00 0.  1.
         21   -1    0    0  501  503 -0.00000000000E+00 -0.00000000000E+00 -0.19881342085E+04  0.19881342085E+04  0.00000000000E+00 0.  1.
    9000007    1    1    2  501    0 -0.48858727186E+03 -0.29316882882E+02 -0.16499300619E+04  0.17668747015E+04  0.40000000000E+03 0.  1.
   -9000007    1    1    2    0  502  0.48858727186E+03  0.29316882882E+02  0.77375376940E+02  0.63683903053E+03  0.40000000000E+03 0.  1.
<mgrwt>
<rscale>  2 0.63212103E+03</rscale>
<asrwt>0</asrwt>
<pdfrwt beam="1">  1       21 0.63935310E-01 0.63212103E+03</pdfrwt>
<pdfrwt beam="2">  1       21 0.30586681E+00 0.63212103E+03</pdfrwt>
<totfact> 0.49085387E+01</totfact>
</mgrwt>
</event>
<event>
 4    1  0.4890517E-002  0.4484816E+03  0.7818608E-02  0.1028176E+00
         21   -1    0    0  503  502  0.00000000000E+00  0.00000000000E+00  0.52582300292E+03  0.52582300292E+03  0.00000000000E+00 0.  1.
         21   -1    0    0  501  503 -0.00000000000E+00 -0.00000000000E+00 -0.40763263463E+03  0.40763263463E+03  0.00000000000E+00 0.  1.
    9000007    1    1    2  501    0 -0.18218941776E+03 -0.89122263284E+02 -0.56758304666E+02  0.45205891973E+03  0.40000000000E+03 0.  1.
   -9000007    1    1    2    0  502  0.18218941776E+03  0.89122263284E+02  0.17494867295E+03  0.48139671782E+03  0.40000000000E+03 0.  1.
<mgrwt>
<rscale>  2 0.44848162E+03</rscale>
<asrwt>0</asrwt>
<pdfrwt beam="1">  1       21 0.80895847E-01 0.44848162E+03</pdfrwt>
<pdfrwt beam="2">  1       21 0.62712713E-01 0.44848162E+03</pdfrwt>
<totfact> 0.27473359E+03</totfact>
</mgrwt>
</event>
<event>
 4    1  0.4890517E-002  0.5595856E+03  0.7818608E-02  0.9992993E-01
         21   -1    0    0  501  502  0.00000000000E+00  0.00000000000E+00  0.25294394470E+04  0.25294394470E+04  0.00000000000E+00 0.  1.
         21   -1    0    0  502  503 -0.00000000000E+00 -0.00000000000E+00 -0.14109642782E+03  0.14109642782E+03  0.00000000000E+00 0.  1.
    9000007    1    1    2  501    0  0.16768271298E+03 -0.35357970437E+03  0.16617244846E+04  0.17534150571E+04  0.40000000000E+03 0.  1.
   -9000007    1    1    2    0  503 -0.16768271298E+03  0.35357970437E+03  0.72661853457E+03  0.91712081775E+03  0.40000000000E+03 0.  1.
<mgrwt>
<rscale>  2 0.55958565E+03</rscale>
<asrwt>0</asrwt>
<pdfrwt beam="1">  1       21 0.38914450E+00 0.55958565E+03</pdfrwt>
<pdfrwt beam="2">  1       21 0.21707145E-01 0.55958565E+03</pdfrwt>
<totfact> 0.14335051E+02</totfact>
</mgrwt>
</event>
<event>
 4    1  0.4890517E-002  0.5521001E+03  0.7818608E-02  0.1001009E+00
         21   -1    0    0  503  502  0.00000000000E+00  0.00000000000E+00  0.19641652802E+04  0.19641652802E+04  0.00000000000E+00 0.  1.
         21   -1    0    0  501  503 -0.00000000000E+00 -0.00000000000E+00 -0.15518782362E+03  0.15518782362E+03  0.00000000000E+00 0. -1.
    9000007    1    1    2  501    0 -0.28113235163E+03  0.25647436736E+03  0.90484684478E+03  0.10599822228E+04  0.40000000000E+03 0. -1.
   -9000007    1    1    2    0  502  0.28113235163E+03 -0.25647436736E+03  0.90413061181E+03  0.10593708810E+04  0.40000000000E+03 0. -1.
<mgrwt>
<rscale>  2 0.55210008E+03</rscale>
<asrwt>0</asrwt>
<pdfrwt beam="1">  1       21 0.30217926E+00 0.55210008E+03</pdfrwt>
<pdfrwt beam="2">  1       21 0.23875051E-01 0.55210008E+03</pdfrwt>
<totfact> 0.41334553E+02</totfact>
</mgrwt>
</event>
<event>
 4    1  0.4890517E-002  0.4374882E+03  0.7818608E-02  0.1031520E+00
         21   -1    0    0  501  502  0.00000000000E+00  0.00000000000E+00  0.75248689630E+03  0.75248689630E+03  0.00000000000E+00 0. -1.
         21   -1    0    0  502  503 -0.00000000000E+00 -0.00000000000E+00 -0.48676647053E+03  0.48676647053E+03  0.00000000000E+00 0. -1.
    9000007    1    1    2  501    0 -0.71197419241E+02 -0.16225543995E+03  0.56101634589E+03  0.71143182432E+03  0.40000000000E+03 0. -1.
   -9000007    1    1    2    0  503  0.71197419241E+02  0.16225543995E+03 -0.29529592012E+03  0.52782154251E+03  0.40000000000E+03 0. -1.
<mgrwt>
<rscale>  2 0.43748817E+03</rscale>
<asrwt>0</asrwt>
<pdfrwt beam="1">  1       21 0.11576721E+00 0.43748817E+03</pdfrwt>
<pdfrwt beam="2">  1       21 0.74887150E-01 0.43748817E+03</pdfrwt>
<totfact> 0.78145088E+02</totfact>
</mgrwt>
</event>
<event>
 4    1  0.4890517E-002  0.5144446E+03  0.7818608E-02  0.1010076E+00
         21   -1    0    0  503  502  0.00000000000E+00  0.00000000000E+00  0.12096156089E+04  0.12096156089E+04  0.00000000000E+00 0.  1.
         21   -1    0    0  501  503 -0.00000000000E+00 -0.00000000000E+00 -0.35189586014E+03  0.35189586014E+03  0.00000000000E+00 0.  1.
    9000007    1    1    2  501    0  0.31564775778E+03  0.70849857090E+02 -0.51320924866E+02  0.51699811080E+03  0.40000000000E+03 0.  1.
   -9000007    1    1    2    0  502 -0.31564775778E+03 -0.70849857090E+02  0.90904067361E+03  0.10445133582E+04  0.40000000000E+03 0.  1.
<mgrwt>
<rscale>  2 0.51444456E+03</rscale>
<asrwt>0</asrwt>
<pdfrwt beam="1">  1       21 0.18609471E+00 0.51444456E+03</pdfrwt>
<pdfrwt beam="2">  1       21 0.54137825E-01 0.51444456E+03</pdfrwt>
<totfact> 0.42733948E+02</totfact>
</mgrwt>
</event>
<event>
 4    1  0.4890517E-002  0.4058169E+03  0.7818608E-02  0.1041784E+00
         21   -1    0    0  501  502  0.00000000000E+00  0.00000000000E+00  0.17676360418E+04  0.17676360418E+04  0.00000000000E+00 0. -1.
         21   -1    0    0  502  503 -0.00000000000E+00 -0.00000000000E+00 -0.96227407784E+02  0.96227407784E+02  0.00000000000E+00 0.  1.
    9000007    1    1    2  501    0  0.21358501101E+02  0.65047328472E+02  0.10018711417E+04  0.10809408518E+04  0.40000000000E+03 0.  1.
   -9000007    1    1    2    0  503 -0.21358501101E+02 -0.65047328472E+02  0.66953749230E+03  0.78292259778E+03  0.40000000000E+03 0.  1.
<mgrwt>
<rscale>  2 0.40581688E+03</rscale>
<asrwt>0</asrwt>
<pdfrwt beam="1">  1       21 0.27194398E+00 0.40581688E+03</pdfrwt>
<pdfrwt beam="2">  1       21 0.14804218E-01 0.40581688E+03</pdfrwt>
<totfact> 0.16752376E+03</totfact>
</mgrwt>
</event>
<event>
 4    1  0.4890517E-002  0.4901470E+03  0.7818608E-02  0.1016383E+00
         21   -1    0    0  501  502  0.00000000000E+00  0.00000000000E+00  0.33004102738E+03  0.33004102738E+03  0.00000000000E+00 0. -1.
         21   -1    0    0  502  503 -0.00000000000E+00 -0.00000000000E+00 -0.20588141238E+04  0.20588141238E+04  0.00000000000E+00 0. -1.
    9000007    1    1    2  501    0 -0.25446850581E+03 -0.12445831240E+03  0.95948315225E+02  0.49944986853E+03  0.40000000000E+03 0. -1.
   -9000007    1    1    2    0  503  0.25446850581E+03  0.12445831240E+03 -0.18247214117E+04  0.18894052827E+04  0.40000000000E+03 0. -1.
<mgrwt>
<rscale>  2 0.49014701E+03</rscale>
<asrwt>0</asrwt>
<pdfrwt beam="1">  1       21 0.50775543E-01 0.49014701E+03</pdfrwt>
<pdfrwt beam="2">  1       21 0.31674063E+00 0.49014701E+03</pdfrwt>
<totfact> 0.75168928E+01</totfact>
</mgrwt>
</event>
<event>
 4    1  0.4890517E-002  0.5780979E+03  0.7818608E-02  0.9951917E-01
         21   -1    0    0  501  502  0.00000000000E+00  0.00000000000E+00  0.21695036286E+03  0.21695036286E+03  0.00000000000E+00 0.  1.
         21   -1    0    0  502  503 -0.00000000000E+00 -0.00000000000E+00 -0.15440978222E+04  0.15440978222E+04  0.00000000000E+00 0.  1.
    9000007    1    1    2  501    0 -0.37870849464E+03 -0.17543399098E+03 -0.70647886356E+03  0.91285792638E+03  0.40000000000E+03 0.  1.
   -9000007    1    1    2    0  503  0.37870849464E+03  0.17543399098E+03 -0.62066859573E+03  0.84819025863E+03  0.40000000000E+03 0.  1.
<mgrwt>
<rscale>  2 0.57809792E+03</rscale>
<asrwt>0</asrwt>
<pdfrwt beam="1">  1       21 0.33376979E-01 0.57809792E+03</pdfrwt>
<pdfrwt beam="2">  1       21 0.23755351E+00 0.57809792E+03</pdfrwt>
<totfact> 0.52442155E+02</totfact>
</mgrwt>
</event>
<event>
 4    1  0.4890517E-002  0.5024355E+03  0.7818608E-02  0.1013145E+00
         21   -1    0    0  501  502  0.00000000000E+00  0.00000000000E+00  0.69536420749E+03  0.69536420749E+03  0.00000000000E+00 0. -1.
         21   -1    0    0  502  503 -0.00000000000E+00 -0.00000000000E+00 -0.77818238300E+03  0.77818238300E+03  0.00000000000E+00 0. -1.
    9000007    1    1    2  501    0  0.21008553433E+03  0.21978517697E+03  0.49672982670E+03  0.70652811443E+03  0.40000000000E+03 0. -1.
   -9000007    1    1    2    0  503 -0.21008553433E+03 -0.21978517697E+03 -0.57954800221E+03  0.76701847606E+03  0.40000000000E+03 0. -1.
<mgrwt>
<rscale>  2 0.50243552E+03</rscale>
<asrwt>0</asrwt>
<pdfrwt beam="1">  1       21 0.10697911E+00 0.50243552E+03</pdfrwt>
<pdfrwt beam="2">  1       21 0.11972037E+00 0.50243552E+03</pdfrwt>
<totfact> 0.29946875E+02</totfact>
</mgrwt>
</event>
<event>
 4    1  0.4890517E-002  0.5234308E+03  0.7818608E-02  0.1007838E+00
         21   -1    0    0  501  502  0.00000000000E+00  0.00000000000E+00  0.40034851623E+03  0.40034851623E+03  0.00000000000E+00 0. -1.
         21   -1    0    0  502  503 -0.00000000000E+00 -0.00000000000E+00 -0.16130015970E+04  0.16130015970E+04  0.00000000000E+00 0. -1.
    9000007    1    1    2  501    0 -0.14114318256E+03  0.30668934130E+03  0.15750500116E+03  0.54661464986E+03  0.40000000000E+03 0. -1.
   -9000007    1    1    2    0  503  0.14114318256E+03 -0.30668934130E+03 -0.13701580819E+04  0.14667354634E+04  0.40000000000E+03 0. -1.
<mgrwt>
<rscale>  2 0.52343075E+03</rscale>
<asrwt>0</asrwt>
<pdfrwt beam="1">  1       21 0.61592079E-01 0.52343075E+03</pdfrwt>
<pdfrwt beam="2">  1       21 0.24815409E+00 0.52343075E+03</pdfrwt>
<totfact> 0.12675976E+02</totfact>
</mgrwt>
</event>
<event>
 4    1  0.4890517E-002  0.4547028E+03  0.7818608E-02  0.1026329E+00
         21   -1    0    0  503  502  0.00000000000E+00  0.00000000000E+00  0.62436555434E+03  0.62436555434E+03  0.00000000000E+00 0.  1.
         21   -1    0    0  501  503 -0.00000000000E+00 -0.00000000000E+00 -0.33157810893E+03  0.33157810893E+03  0.00000000000E+00 0.  1.
    9000007    1    1    2  501    0  0.19515990546E+03 -0.93097817618E+02  0.12908915390E+03  0.47267176983E+03  0.40000000000E+03 0. -1.
   -9000007    1    1    2    0  502 -0.19515990546E+03  0.93097817618E+02  0.16369829151E+03  0.48327189344E+03  0.40000000000E+03 0. -1.
<mgrwt>
<rscale>  2 0.45470275E+03</rscale>
<asrwt>0</asrwt>
<pdfrwt beam="1">  1       21 0.96056239E-01 0.45470275E+03</pdfrwt>
<pdfrwt beam="2">  1       21 0.51012017E-01 0.45470275E+03</pdfrwt>
<totfact> 0.28616362E+03</totfact>
</mgrwt>
</event>
<event>
 4    1  0.4890517E-002  0.5547869E+03  0.7818608E-02  0.1000392E+00
         21   -1    0    0  501  502  0.00000000000E+00  0.00000000000E+00  0.30512170473E+03  0.30512170473E+03  0.00000000000E+00 0. -1.
         21   -1    0    0  502  503 -0.00000000000E+00 -0.00000000000E+00 -0.13140819049E+04  0.13140819049E+04  0.00000000000E+00 0.  1.
    9000007    1    1    2  501    0 -0.12753386952E+03  0.36266184515E+03 -0.89473950472E+03  0.10527807384E+04  0.40000000000E+03 0.  1.
   -9000007    1    1    2    0  503  0.12753386952E+03 -0.36266184515E+03 -0.11422069545E+03  0.56642287125E+03  0.40000000000E+03 0. -1.
<mgrwt>
<rscale>  2 0.55478690E+03</rscale>
<asrwt>0</asrwt>
<pdfrwt beam="1">  1       21 0.46941800E-01 0.55478690E+03</pdfrwt>
<pdfrwt beam="2">  1       21 0.20216645E+00 0.55478690E+03</pdfrwt>
<totfact> 0.44305579E+02</totfact>
</mgrwt>
</event>
<event>
 4    1  0.4890517E-002  0.4775520E+03  0.7818608E-02  0.1019810E+00
         21   -1    0    0  501  502  0.00000000000E+00  0.00000000000E+00  0.75329550090E+03  0.75329550090E+03  0.00000000000E+00 0.  1.
         21   -1    0    0  502  503 -0.00000000000E+00 -0.00000000000E+00 -0.41593519126E+03  0.41593519126E+03  0.00000000000E+00 0.  1.
    9000007    1    1    2  501    0 -0.55220724291E+02  0.25496394990E+03 -0.13629401244E+03  0.49662058150E+03  0.40000000000E+03 0.  1.
   -9000007    1    1    2    0  503  0.55220724291E+02 -0.25496394990E+03  0.47365432208E+03  0.67261011066E+03  0.40000000000E+03 0.  1.
<mgrwt>
<rscale>  2 0.47755203E+03</rscale>
<asrwt>0</asrwt>
<pdfrwt beam="1">  1       21 0.11589161E+00 0.47755203E+03</pdfrwt>
<pdfrwt beam="2">  1       21 0.63990030E-01 0.47755203E+03</pdfrwt>
<totfact> 0.10916443E+03</totfact>
</mgrwt>
</event>
<event>
 4    1  0.4890517E-002  0.4101783E+03  0.7818608E-02  0.1040311E+00
         21   -1    0    0  503  502  0.00000000000E+00  0.00000000000E+00  0.10220690678E+04  0.10220690678E+04  0.00000000000E+00 0.  1.
         21   -1    0    0  501  503 -0.00000000000E+00 -0.00000000000E+00 -0.24300531354E+03  0.24300531354E+03  0.00000000000E+00 0.  1.
    9000007    1    1    2  501    0 -0.77436102946E+02 -0.47432767455E+02  0.30267679281E+02  0.41129350819E+03  0.40000000000E+03 0.  1.
   -9000007    1    1    2    0  502  0.77436102946E+02  0.47432767455E+02  0.74879607502E+03  0.85378087319E+03  0.40000000000E+03 0.  1.
<mgrwt>
<rscale>  2 0.41017828E+03</rscale>
<asrwt>0</asrwt>
<pdfrwt beam="1">  1       21 0.15724139E+00 0.41017828E+03</pdfrwt>
<pdfrwt beam="2">  1       21 0.37385433E-01 0.41017828E+03</pdfrwt>
<totfact> 0.15748600E+03</totfact>
</mgrwt>
</event>
<event>
 4    1  0.4890517E-002  0.4671843E+03  0.7818608E-02  0.1022718E+00
         21   -1    0    0  501  502  0.00000000000E+00  0.00000000000E+00  0.56272856902E+03  0.56272856902E+03  0.00000000000E+00 0. -1.
         21   -1    0    0  502  503 -0.00000000000E+00 -0.00000000000E+00 -0.73569261596E+03  0.73569261596E+03  0.00000000000E+00 0. -1.
    9000007    1    1    2  501    0  0.13137910629E+03  0.20248620948E+03  0.35991489042E+03  0.58974559171E+03  0.40000000000E+03 0. -1.
   -9000007    1    1    2    0  503 -0.13137910629E+03 -0.20248620948E+03 -0.53287893737E+03  0.70867559326E+03  0.40000000000E+03 0. -1.
<mgrwt>
<rscale>  2 0.46718426E+03</rscale>
<asrwt>0</asrwt>
<pdfrwt beam="1">  1       21 0.86573626E-01 0.46718426E+03</pdfrwt>
<pdfrwt beam="2">  1       21 0.11318348E+00 0.46718426E+03</pdfrwt>
<totfact> 0.58351495E+02</totfact>
</mgrwt>
</event>
<event>
 4    1  0.4890517E-002  0.5345802E+03  0.7818608E-02  0.1005127E+00
         21   -1    0    0  503  502  0.00000000000E+00  0.00000000000E+00  0.34661860657E+03  0.34661860657E+03  0.00000000000E+00 0.  1.
         21   -1    0    0  501  503 -0.00000000000E+00 -0.00000000000E+00 -0.83956786901E+03  0.83956786901E+03  0.00000000000E+00 0.  1.
    9000007    1    1    2  501    0  0.22078176749E+03  0.27754539333E+03 -0.32601326660E+03  0.62614749398E+03  0.40000000000E+03 0.  1.
   -9000007    1    1    2    0  502 -0.22078176749E+03 -0.27754539333E+03 -0.16693599584E+03  0.56003898161E+03  0.40000000000E+03 0.  1.
<mgrwt>
<rscale>  2 0.53458024E+03</rscale>
<asrwt>0</asrwt>
<pdfrwt beam="1">  1       21 0.53325939E-01 0.53458024E+03</pdfrwt>
<pdfrwt beam="2">  1       21 0.12916429E+00 0.53458024E+03</pdfrwt>
<totfact> 0.12066836E+03</totfact>
</mgrwt>
</event>
<event>
 4    1  0.4890517E-002  0.5118134E+03  0.7818608E-02  0.1010741E+00
         21   -1    0    0  503  502  0.00000000000E+00  0.00000000000E+00  0.50099555815E+03  0.50099555815E+03  0.00000000000E+00 0.  1.
         21   -1    0    0  501  503 -0.00000000000E+00 -0.00000000000E+00 -0.13138995316E+04  0.13138995316E+04  0.00000000000E+00 0. -1.
    9000007    1    1    2  501    0  0.20997304759E+02  0.31860963085E+03 -0.11105582452E+04  0.12228215731E+04  0.40000000000E+03 0. -1.
   -9000007    1    1    2    0  502 -0.20997304759E+02 -0.31860963085E+03  0.29765427172E+03  0.59207351668E+03  0.40000000000E+03 0.  1.
<mgrwt>
<rscale>  2 0.51181343E+03</rscale>
<asrwt>0</asrwt>
<pdfrwt beam="1">  1       21 0.77076240E-01 0.51181343E+03</pdfrwt>
<pdfrwt beam="2">  1       21 0.20213839E+00 0.51181343E+03</pdfrwt>
<totfact> 0.15146458E+02</totfact>
</mgrwt>
</event>
<event>
 4    1  0.4890517E-002  0.4418687E+03  0.7818608E-02  0.1030175E+00
         21   -1    0    0  503  502  0.00000000000E+00  0.00000000000E+00  0.84529014649E+03  0.84529014649E+03  0.00000000000E+00 0. -1.
         21   -1    0    0  501  503 -0.00000000000E+00 -0.00000000000E+00 -0.24363337828E+03  0.24363337828E+03  0.00000000000E+00 0. -1.
    9000007    1    1    2  501    0  0.17620403659E+03 -0.64808388005E+02  0.17676491276E+03  0.47591367290E+03  0.40000000000E+03 0. -1.
   -9000007    1    1    2    0  502 -0.17620403659E+03  0.64808388005E+02  0.42489185545E+03  0.61300985188E+03  0.40000000000E+03 0. -1.
<mgrwt>
<rscale>  2 0.44186875E+03</rscale>
<asrwt>0</asrwt>
<pdfrwt beam="1">  1       21 0.13004464E+00 0.44186875E+03</pdfrwt>
<pdfrwt beam="2">  1       21 0.37482059E-01 0.44186875E+03</pdfrwt>
<totfact> 0.25677238E+03</totfact>
</mgrwt>
</event>
<event>
 4    1  0.4890517E-002  0.4101931E+03  0.7818608E-02  0.1040306E+00
         21   -1    0    0  503  502  0.00000000000E+00  0.00000000000E+00  0.43350223014E+03  0.43350223014E+03  0.00000000000E+00 0.  1.
         21   -1    0    0  501  503 -0.00000000000E+00 -0.00000000000E+00 -0.63842203052E+03  0.63842203052E+03  0.00000000000E+00 0.  1.
    9000007    1    1    2  501    0  0.44489269854E+02 -0.79240830266E+02 -0.43804085945E+03  0.60011515467E+03  0.40000000000E+03 0.  1.
   -9000007    1    1    2    0  502 -0.44489269854E+02  0.79240830266E+02  0.23312105908E+03  0.47180910599E+03  0.40000000000E+03 0.  1.
<mgrwt>
<rscale>  2 0.41019313E+03</rscale>
<asrwt>0</asrwt>
<pdfrwt beam="1">  1       21 0.66692651E-01 0.41019313E+03</pdfrwt>
<pdfrwt beam="2">  1       21 0.98218773E-01 0.41019313E+03</pdfrwt>
<totfact> 0.15387768E+03</totfact>
</mgrwt>
</event>
<event>
 4    1  0.4890517E-002  0.4055083E+03  0.7818608E-02  0.1041889E+00
         21   -1    0    0  501  502  0.00000000000E+00  0.00000000000E+00  0.16382361335E+03  0.16382361335E+03  0.00000000000E+00 0.  1.
         21   -1    0    0  502  503 -0.00000000000E+00 -0.00000000000E+00 -0.10287308562E+04  0.10287308562E+04  0.00000000000E+00 0.  1.
    9000007    1    1    2  501    0  0.25970627894E+01  0.66559940438E+02 -0.33952423326E+03  0.52887964167E+03  0.40000000000E+03 0.  1.
   -9000007    1    1    2    0  503 -0.25970627894E+01 -0.66559940438E+02 -0.52538300963E+03  0.66367482792E+03  0.40000000000E+03 0.  1.
<mgrwt>
<rscale>  2 0.40550829E+03</rscale>
<asrwt>0</asrwt>
<pdfrwt beam="1">  1       21 0.25203633E-01 0.40550829E+03</pdfrwt>
<pdfrwt beam="2">  1       21 0.15826629E+00 0.40550829E+03</pdfrwt>
<totfact> 0.33952670E+03</totfact>
</mgrwt>
</event>
<event>
 4    1  0.4890517E-002  0.4285328E+03  0.7818608E-02  0.1034324E+00
         21   -1    0    0  503  502  0.00000000000E+00  0.00000000000E+00  0.18363529066E+04  0.18363529066E+04  0.00000000000E+00 0. -1.
         21   -1    0    0  501  503 -0.00000000000E+00 -0.00000000000E+00 -0.10199474793E+03  0.10199474793E+03  0.00000000000E+00 0. -1.
    9000007    1    1    2  501    0 -0.12562096785E+03 -0.88655188518E+02  0.73173642076E+03  0.84798499956E+03  0.40000000000E+03 0. -1.
   -9000007    1    1    2    0  502  0.12562096785E+03  0.88655188518E+02  0.10026217379E+04  0.10903626550E+04  0.40000000000E+03 0. -1.
<mgrwt>
<rscale>  2 0.42853281E+03</rscale>
<asrwt>0</asrwt>
<pdfrwt beam="1">  1       21 0.28251581E+00 0.42853281E+03</pdfrwt>
<pdfrwt beam="2">  1       21 0.15691501E-01 0.42853281E+03</pdfrwt>
<totfact> 0.12832326E+03</totfact>
</mgrwt>
</event>
<event>
 4    1  0.4890517E-002  0.4674347E+03  0.7818608E-02  0.1022647E+00
         21   -1    0    0  501  502  0.00000000000E+00  0.00000000000E+00  0.47637552387E+03  0.47637552387E+03  0.00000000000E+00 0. -1.
         21   -1    0    0  502  503 -0.00000000000E+00 -0.00000000000E+00 -0.48519874578E+03  0.48519874578E+03  0.00000000000E+00 0.  1.
    9000007    1    1    2  501    0  0.22823530607E+03  0.80024169717E+02 -0.11685114352E+03  0.48181885851E+03  0.40000000000E+03 0. -1.
   -9000007    1    1    2    0  503 -0.22823530607E+03 -0.80024169717E+02  0.10802792160E+03  0.47975541114E+03  0.40000000000E+03 0. -1.
<mgrwt>
<rscale>  2 0.46743473E+03</rscale>
<asrwt>0</asrwt>
<pdfrwt beam="1">  1       21 0.73288543E-01 0.46743473E+03</pdfrwt>
<pdfrwt beam="2">  1       21 0.74645960E-01 0.46743473E+03</pdfrwt>
<totfact> 0.23152939E+03</totfact>
</mgrwt>
</event>
<event>
 4    1  0.4890517E-002  0.4414584E+03  0.7818608E-02  0.1030300E+00
         21   -1    0    0  503  502  0.00000000000E+00  0.00000000000E+00  0.16649420495E+04  0.16649420495E+04  0.00000000000E+00 0. -1.
         21   -1    0    0  501  503 -0.00000000000E+00 -0.00000000000E+00 -0.11852114408E+03  0.11852114408E+03  0.00000000000E+00 0. -1.
    9000007    1    1    2  501    0 -0.12568257769E+03  0.13816432209E+03  0.67394300368E+03  0.80565790659E+03  0.40000000000E+03 0. -1.
   -9000007    1    1    2    0  502  0.12568257769E+03 -0.13816432209E+03  0.87247790174E+03  0.97780528699E+03  0.40000000000E+03 0. -1.
<mgrwt>
<rscale>  2 0.44145837E+03</rscale>
<asrwt>0</asrwt>
<pdfrwt beam="1">  1       21 0.25614491E+00 0.44145837E+03</pdfrwt>
<pdfrwt beam="2">  1       21 0.18234023E-01 0.44145837E+03</pdfrwt>
<totfact> 0.13893123E+03</totfact>
</mgrwt>
</event>
<event>
 4    1  0.4890517E-002  0.4047347E+03  0.7818608E-02  0.1042152E+00
         21   -1    0    0  503  502  0.00000000000E+00  0.00000000000E+00  0.77699315731E+03  0.77699315731E+03  0.00000000000E+00 0. -1.
         21   -1    0    0  501  503 -0.00000000000E+00 -0.00000000000E+00 -0.38028164370E+03  0.38028164370E+03  0.00000000000E+00 0.  1.
    9000007    1    1    2  501    0 -0.60393456196E+02  0.12758553506E+02  0.58461793351E+03  0.71104731096E+03  0.40000000000E+03 0. -1.
   -9000007    1    1    2    0  502  0.60393456196E+02 -0.12758553506E+02 -0.18790641989E+03  0.44622749005E+03  0.40000000000E+03 0.  1.
<mgrwt>
<rscale>  2 0.40473467E+03</rscale>
<asrwt>0</asrwt>
<pdfrwt beam="1">  1       21 0.11953741E+00 0.40473467E+03</pdfrwt>
<pdfrwt beam="2">  1       21 0.58504868E-01 0.40473467E+03</pdfrwt>
<totfact> 0.12675994E+03</totfact>
</mgrwt>
</event>
<event>
 4    1  0.4890517E-002  0.5298713E+03  0.7818608E-02  0.1006263E+00
         21   -1    0    0  503  502  0.00000000000E+00  0.00000000000E+00  0.20043523954E+03  0.20043523954E+03  0.00000000000E+00 0.  1.
         21   -1    0    0  501  503 -0.00000000000E+00 -0.00000000000E+00 -0.14256326204E+04  0.14256326204E+04  0.00000000000E+00 0.  1.
    9000007    1    1    2  501    0  0.12811293334E+03 -0.32303361398E+03 -0.71996787626E+03  0.89393365654E+03  0.40000000000E+03 0.  1.
   -9000007    1    1    2    0  502 -0.12811293334E+03  0.32303361398E+03 -0.50522950459E+03  0.73213420338E+03  0.40000000000E+03 0.  1.
<mgrwt>
<rscale>  2 0.52987134E+03</rscale>
<asrwt>0</asrwt>
<pdfrwt beam="1">  1       21 0.30836191E-01 0.52987134E+03</pdfrwt>
<pdfrwt beam="2">  1       21 0.21932809E+00 0.52987134E+03</pdfrwt>
<totfact> 0.81896927E+02</totfact>
</mgrwt>
</event>
<event>
 4    1  0.4890517E-002  0.8448722E+03  0.7818608E-02  0.9497245E-01
         21   -1    0    0  501  502  0.00000000000E+00  0.00000000000E+00  0.13905499153E+04  0.13905499153E+04  0.00000000000E+00 0.  1.
         21   -1    0    0  502  503 -0.00000000000E+00 -0.00000000000E+00 -0.51399388744E+03  0.51399388744E+03  0.00000000000E+00 0. -1.
    9000007    1    1    2  501    0  0.14205176189E+02 -0.74404786095E+03  0.47253860347E+03  0.96804015319E+03  0.40000000000E+03 0. -1.
   -9000007    1    1    2    0  503 -0.14205176189E+02  0.74404786095E+03  0.40401742438E+03  0.93650364955E+03  0.40000000000E+03 0.  1.
<mgrwt>
<rscale>  2 0.84487218E+03</rscale>
<asrwt>0</asrwt>
<pdfrwt beam="1">  1       21 0.21393075E+00 0.84487218E+03</pdfrwt>
<pdfrwt beam="2">  1       21 0.79075983E-01 0.84487218E+03</pdfrwt>
<totfact> 0.10539101E+02</totfact>
</mgrwt>
</event>
<event>
 4    1  0.4890517E-002  0.4735501E+03  0.7818608E-02  0.1020923E+00
         21   -1    0    0  503  502  0.00000000000E+00  0.00000000000E+00  0.33810513102E+03  0.33810513102E+03  0.00000000000E+00 0. -1.
         21   -1    0    0  501  503 -0.00000000000E+00 -0.00000000000E+00 -0.79025933778E+03  0.79025933778E+03  0.00000000000E+00 0. -1.
    9000007    1    1    2  501    0 -0.10096718319E+03  0.23249809335E+03 -0.45225220382E+03  0.65481431823E+03  0.40000000000E+03 0. -1.
   -9000007    1    1    2    0  502  0.10096718319E+03 -0.23249809335E+03  0.97997065891E-01  0.47355015056E+03  0.40000000000E+03 0. -1.
<mgrwt>
<rscale>  2 0.47355014E+03</rscale>
<asrwt>0</asrwt>
<pdfrwt beam="1">  1       21 0.52016175E-01 0.47355014E+03</pdfrwt>
<pdfrwt beam="2">  1       21 0.12157836E+00 0.47355014E+03</pdfrwt>
<totfact> 0.15210491E+03</totfact>
</mgrwt>
</event>
<event>
 4    1  0.4890517E-002  0.4435414E+03  0.7818608E-02  0.1029666E+00
         21   -1    0    0  501  502  0.00000000000E+00  0.00000000000E+00  0.52853041312E+03  0.52853041312E+03  0.00000000000E+00 0.  1.
         21   -1    0    0  502  503 -0.00000000000E+00 -0.00000000000E+00 -0.42035980949E+03  0.42035980949E+03  0.00000000000E+00 0.  1.
    9000007    1    1    2  501    0 -0.17018756323E+03  0.88120073925E+02  0.21464368882E+03  0.49274827981E+03  0.40000000000E+03 0.  1.
   -9000007    1    1    2    0  503  0.17018756323E+03 -0.88120073925E+02 -0.10647308518E+03  0.45614194279E+03  0.40000000000E+03 0.  1.
<mgrwt>
<rscale>  2 0.44354138E+03</rscale>
<asrwt>0</asrwt>
<pdfrwt beam="1">  1       21 0.81312371E-01 0.44354138E+03</pdfrwt>
<pdfrwt beam="2">  1       21 0.64670740E-01 0.44354138E+03</pdfrwt>
<totfact> 0.25407758E+03</totfact>
</mgrwt>
</event>
<event>
 4    1  0.4890517E-002  0.4166255E+03  0.7818608E-02  0.1038170E+00
         21   -1    0    0  503  502  0.00000000000E+00  0.00000000000E+00  0.13545814208E+04  0.13545814208E+04  0.00000000000E+00 0. -1.
         21   -1    0    0  501  503 -0.00000000000E+00 -0.00000000000E+00 -0.15665362260E+03  0.15665362260E+03  0.00000000000E+00 0. -1.
    9000007    1    1    2  501    0  0.50903346973E+02 -0.10481238591E+03  0.27659441174E+03  0.50008124898E+03  0.40000000000E+03 0. -1.
   -9000007    1    1    2    0  502 -0.50903346973E+02  0.10481238591E+03  0.92133338646E+03  0.10111537944E+04  0.40000000000E+03 0. -1.
<mgrwt>
<rscale>  2 0.41662548E+03</rscale>
<asrwt>0</asrwt>
<pdfrwt beam="1">  1       21 0.20839713E+00 0.41662548E+03</pdfrwt>
<pdfrwt beam="2">  1       21 0.24100558E-01 0.41662548E+03</pdfrwt>
<totfact> 0.16454449E+03</totfact>
</mgrwt>
</event>
<event>
 4    1  0.4890517E-002  0.4928298E+03  0.7818608E-02  0.1015668E+00
         21   -1    0    0  501  502  0.00000000000E+00  0.00000000000E+00  0.12242394717E+04  0.12242394717E+04  0.00000000000E+00 0.  1.
         21   -1    0    0  502  503 -0.00000000000E+00 -0.00000000000E+00 -0.28464007592E+03  0.28464007592E+03  0.00000000000E+00 0.  1.
    9000007    1    1    2  501    0  0.15610511991E+03  0.24189334596E+03  0.88508579310E+03  0.10130439578E+04  0.40000000000E+03 0.  1.
   -9000007    1    1    2    0  503 -0.15610511991E+03 -0.24189334596E+03  0.54513602694E+02  0.49583558985E+03  0.40000000000E+03 0.  1.
<mgrwt>
<rscale>  2 0.49282979E+03</rscale>
<asrwt>0</asrwt>
<pdfrwt beam="1">  1       21 0.18834453E+00 0.49282979E+03</pdfrwt>
<pdfrwt beam="2">  1       21 0.43790782E-01 0.49282979E+03</pdfrwt>
<totfact> 0.65289250E+02</totfact>
</mgrwt>
</event>
<event>
 4    1  0.4890517E-002  0.4253519E+03  0.7818608E-02  0.1035338E+00
         21   -1    0    0  503  502  0.00000000000E+00  0.00000000000E+00  0.14836756170E+03  0.14836756170E+03  0.00000000000E+00 0.  1.
         21   -1    0    0  501  503 -0.00000000000E+00 -0.00000000000E+00 -0.17475200536E+04  0.17475200536E+04  0.00000000000E+00 0.  1.
    9000007    1    1    2  501    0  0.56140967751E+02 -0.13331321517E+03 -0.13206803456E+04  0.13874872240E+04  0.40000000000E+03 0.  1.
   -9000007    1    1    2    0  502 -0.56140967751E+02  0.13331321517E+03 -0.27847214636E+03  0.50840039132E+03  0.40000000000E+03 0.  1.
<mgrwt>
<rscale>  2 0.42535188E+03</rscale>
<asrwt>0</asrwt>
<pdfrwt beam="1">  1       21 0.22825778E-01 0.42535188E+03</pdfrwt>
<pdfrwt beam="2">  1       21 0.26884924E+00 0.42535188E+03</pdfrwt>
<totfact> 0.76466022E+02</totfact>
</mgrwt>
</event>
<event>
 4    1  0.4890517E-002  0.5403008E+03  0.7818608E-02  0.1003764E+00
         21   -1    0    0  503  502  0.00000000000E+00  0.00000000000E+00  0.99088953115E+03  0.99088953115E+03  0.00000000000E+00 0.  1.
         21   -1    0    0  501  503 -0.00000000000E+00 -0.00000000000E+00 -0.46403421247E+03  0.46403421247E+03  0.00000000000E+00 0.  1.
    9000007    1    1    2  501    0 -0.21057879559E+02  0.36260385474E+03 -0.17613848347E+03  0.56828668392E+03  0.40000000000E+03 0.  1.
   -9000007    1    1    2    0  502  0.21057879559E+02 -0.36260385474E+03  0.70299380215E+03  0.88663705969E+03  0.40000000000E+03 0.  1.
<mgrwt>
<rscale>  2 0.54030083E+03</rscale>
<asrwt>0</asrwt>
<pdfrwt beam="1">  1       21 0.15244454E+00 0.54030083E+03</pdfrwt>
<pdfrwt beam="2">  1       21 0.71389879E-01 0.54030083E+03</pdfrwt>
<totfact> 0.40555314E+02</totfact>
</mgrwt>
</event>
<event>
 4    1  0.4890517E-002  0.4673431E+03  0.7818608E-02  0.1022673E+00
         21   -1    0    0  501  502  0.00000000000E+00  0.00000000000E+00  0.23465638799E+03  0.23465638799E+03  0.00000000000E+00 0.  1.
         21   -1    0    0  502  503 -0.00000000000E+00 -0.00000000000E+00 -0.94904115824E+03  0.94904115824E+03  0.00000000000E+00 0.  1.
    9000007    1    1    2  501    0  0.21093377644E+03  0.11796808683E+03 -0.27505663614E+03  0.54227823176E+03  0.40000000000E+03 0.  1.
   -9000007    1    1    2    0  503 -0.21093377644E+03 -0.11796808683E+03 -0.43932813410E+03  0.64141931447E+03  0.40000000000E+03 0.  1.
<mgrwt>
<rscale>  2 0.46734305E+03</rscale>
<asrwt>0</asrwt>
<pdfrwt beam="1">  1       21 0.36100983E-01 0.46734305E+03</pdfrwt>
<pdfrwt beam="2">  1       21 0.14600633E+00 0.46734305E+03</pdfrwt>
<totfact> 0.20210745E+03</totfact>
</mgrwt>
</event>
<event>
 4    1  0.4890517E-002  0.4164783E+03  0.7818608E-02  0.1038219E+00
         21   -1    0    0  503  502  0.00000000000E+00  0.00000000000E+00  0.33839094137E+03  0.33839094137E+03  0.00000000000E+00 0. -1.
         21   -1    0    0  501  503 -0.00000000000E+00 -0.00000000000E+00 -0.51451223224E+03  0.51451223224E+03  0.00000000000E+00 0. -1.
    9000007    1    1    2  501    0 -0.11445755648E+03 -0.18804507818E+02 -0.61961163131E+02  0.42106214207E+03  0.40000000000E+03 0. -1.
   -9000007    1    1    2    0  502  0.11445755648E+03  0.18804507818E+02 -0.11416012774E+03  0.43184103153E+03  0.40000000000E+03 0. -1.
<mgrwt>
<rscale>  2 0.41647826E+03</rscale>
<asrwt>0</asrwt>
<pdfrwt beam="1">  1       21 0.52060145E-01 0.41647826E+03</pdfrwt>
<pdfrwt beam="2">  1       21 0.79155728E-01 0.41647826E+03</pdfrwt>
<totfact> 0.43781219E+03</totfact>
</mgrwt>
</event>
<event>
 4    1  0.4890517E-002  0.4105062E+03  0.7818608E-02  0.1040201E+00
         21   -1    0    0  503  502  0.00000000000E+00  0.00000000000E+00  0.24208528607E+03  0.24208528607E+03  0.00000000000E+00 0.  1.
         21   -1    0    0  501  503 -0.00000000000E+00 -0.00000000000E+00 -0.70082656260E+03  0.70082656260E+03  0.00000000000E+00 0.  1.
    9000007    1    1    2  501    0 -0.81279063566E+02  0.43693139406E+02 -0.19064979770E+03  0.45261763330E+03  0.40000000000E+03 0.  1.
   -9000007    1    1    2    0  502  0.81279063566E+02 -0.43693139406E+02 -0.26809147883E+03  0.49029421537E+03  0.40000000000E+03 0.  1.
<mgrwt>
<rscale>  2 0.41050624E+03</rscale>
<asrwt>0</asrwt>
<pdfrwt beam="1">  1       21 0.37243891E-01 0.41050624E+03</pdfrwt>
<pdfrwt beam="2">  1       21 0.10781947E+00 0.41050624E+03</pdfrwt>
<totfact> 0.42265054E+03</totfact>
</mgrwt>
</event>
<event>
 4    1  0.4890517E-002  0.5426220E+03  0.7818608E-02  0.1003216E+00
         21   -1    0    0  501  502  0.00000000000E+00  0.00000000000E+00  0.44721815958E+03  0.44721815958E+03  0.00000000000E+00 0.  1.
         21   -1    0    0  502  503 -0.00000000000E+00 -0.00000000000E+00 -0.97922961039E+03  0.97922961039E+03  0.00000000000E+00 0. -1.
    9000007    1    1    2  501    0 -0.28565552734E+03  0.22986860315E+03 -0.67426460056E+03  0.86548911407E+03  0.40000000000E+03 0. -1.
   -9000007    1    1    2    0  503  0.28565552734E+03 -0.22986860315E+03  0.14225314974E+03  0.56095865590E+03  0.40000000000E+03 0.  1.
<mgrwt>
<rscale>  2 0.54262202E+03</rscale>
<asrwt>0</asrwt>
<pdfrwt beam="1">  1       21 0.68802795E-01 0.54262202E+03</pdfrwt>
<pdfrwt beam="2">  1       21 0.15065071E+00 0.54262202E+03</pdfrwt>
<totfact> 0.45499540E+02</totfact>
</mgrwt>
</event>
<event>
 4    1  0.4890517E-002  0.4837333E+03  0.7818608E-02  0.1018114E+00
         21   -1    0    0  501  502  0.00000000000E+00  0.00000000000E+00  0.39044233494E+03  0.39044233494E+03  0.00000000000E+00 0.  1.
         21   -1    0    0  502  503 -0.00000000000E+00 -0.00000000000E+00 -0.60387642830E+03  0.60387642830E+03  0.00000000000E+00 0.  1.
    9000007    1    1    2  501    0  0.23059448553E+03 -0.14430541219E+03 -0.14992678990E+03  0.50643450818E+03  0.40000000000E+03 0.  1.
   -9000007    1    1    2    0  503 -0.23059448553E+03  0.14430541219E+03 -0.63507303468E+02  0.48788425506E+03  0.40000000000E+03 0.  1.
<mgrwt>
<rscale>  2 0.48373326E+03</rscale>
<asrwt>0</asrwt>
<pdfrwt beam="1">  1       21 0.60068051E-01 0.48373326E+03</pdfrwt>
<pdfrwt beam="2">  1       21 0.92904066E-01 0.48373326E+03</pdfrwt>
<totfact> 0.21544270E+03</totfact>
</mgrwt>
</event>
<event>
 4    1  0.4890517E-002  0.4926221E+03  0.7818608E-02  0.1015723E+00
         21   -1    0    0  503  502  0.00000000000E+00  0.00000000000E+00  0.49037624895E+03  0.49037624895E+03  0.00000000000E+00 0. -1.
         21   -1    0    0  501  503 -0.00000000000E+00 -0.00000000000E+00 -0.51435880261E+03  0.51435880261E+03  0.00000000000E+00 0. -1.
    9000007    1    1    2  501    0 -0.30995127431E+02 -0.28585978369E+03 -0.10975769363E+03  0.50470116422E+03  0.40000000000E+03 0. -1.
   -9000007    1    1    2    0  502  0.30995127431E+02  0.28585978369E+03  0.85775139975E+02  0.50003388734E+03  0.40000000000E+03 0. -1.
<mgrwt>
<rscale>  2 0.49262208E+03</rscale>
<asrwt>0</asrwt>
<pdfrwt beam="1">  1       21 0.75442499E-01 0.49262208E+03</pdfrwt>
<pdfrwt beam="2">  1       21 0.79132124E-01 0.49262208E+03</pdfrwt>
<totfact> 0.18788465E+03</totfact>
</mgrwt>
</event>
<event>
 4    1  0.4890517E-002  0.4298017E+03  0.7818608E-02  0.1033923E+00
         21   -1    0    0  501  502  0.00000000000E+00  0.00000000000E+00  0.85859304946E+03  0.85859304946E+03  0.00000000000E+00 0.  1.
         21   -1    0    0  502  503 -0.00000000000E+00 -0.00000000000E+00 -0.22509924821E+03  0.22509924821E+03  0.00000000000E+00 0.  1.
    9000007    1    1    2  501    0 -0.11063049017E+03 -0.11176028941E+03  0.43064157762E+03  0.60842553860E+03  0.40000000000E+03 0.  1.
   -9000007    1    1    2    0  503  0.11063049017E+03  0.11176028941E+03  0.20285222363E+03  0.47526675907E+03  0.40000000000E+03 0.  1.
<mgrwt>
<rscale>  2 0.42980166E+03</rscale>
<asrwt>0</asrwt>
<pdfrwt beam="1">  1       21 0.13209124E+00 0.42980166E+03</pdfrwt>
<pdfrwt beam="2">  1       21 0.34630654E-01 0.42980166E+03</pdfrwt>
<totfact> 0.29086963E+03</totfact>
</mgrwt>
</event>
<event>
 4    1  0.4890517E-002  0.4493438E+03  0.7818608E-02  0.1027918E+00
         21   -1    0    0  503  502  0.00000000000E+00  0.00000000000E+00  0.13858375974E+04  0.13858375974E+04  0.00000000000E+00 0. -1.
         21   -1    0    0  501  503 -0.00000000000E+00 -0.00000000000E+00 -0.40949437615E+03  0.40949437615E+03  0.00000000000E+00 0. -1.
    9000007    1    1    2  501    0 -0.10624938790E+03 -0.17498846190E+03 -0.23231764947E+03  0.50584719480E+03  0.40000000000E+03 0. -1.
   -9000007    1    1    2    0  502  0.10624938790E+03  0.17498846190E+03  0.12086608707E+04  0.12894847787E+04  0.40000000000E+03 0. -1.
<mgrwt>
<rscale>  2 0.44934385E+03</rscale>
<asrwt>0</asrwt>
<pdfrwt beam="1">  1       21 0.21320578E+00 0.44934385E+03</pdfrwt>
<pdfrwt beam="2">  1       21 0.62999135E-01 0.44934385E+03</pdfrwt>
<totfact> 0.20841725E+02</totfact>
</mgrwt>
</event>
<event>
 4    1  0.4890517E-002  0.4242433E+03  0.7818608E-02  0.1035694E+00
         21   -1    0    0  501  502  0.00000000000E+00  0.00000000000E+00  0.82532487880E+03  0.82532487880E+03  0.00000000000E+00 0. -1.
         21   -1    0    0  502  503 -0.00000000000E+00 -0.00000000000E+00 -0.21983358751E+03  0.21983358751E+03  0.00000000000E+00 0. -1.
    9000007    1    1    2  501    0 -0.11608513683E+03 -0.80663523704E+02  0.34949126886E+03  0.54966035882E+03  0.40000000000E+03 0. -1.
   -9000007    1    1    2    0  503  0.11608513683E+03  0.80663523704E+02  0.25600002243E+03  0.49549810750E+03  0.40000000000E+03 0. -1.
<mgrwt>
<rscale>  2 0.42424328E+03</rscale>
<asrwt>0</asrwt>
<pdfrwt beam="1">  1       21 0.12697306E+00 0.42424328E+03</pdfrwt>
<pdfrwt beam="2">  1       21 0.33820552E-01 0.42424328E+03</pdfrwt>
<totfact> 0.33866300E+03</totfact>
</mgrwt>
</event>
<event>
 4    1  0.4890517E-002  0.4347499E+03  0.7818608E-02  0.1032370E+00
         21   -1    0    0  503  502  0.00000000000E+00  0.00000000000E+00  0.48020258896E+03  0.48020258896E+03  0.00000000000E+00 0. -1.
         21   -1    0    0  501  503 -0.00000000000E+00 -0.00000000000E+00 -0.45103719799E+03  0.45103719799E+03  0.00000000000E+00 0.  1.
    9000007    1    1    2  501    0 -0.54410299429E+02 -0.16139083401E+03 -0.15157635166E+03  0.46041597753E+03  0.40000000000E+03 0.  1.
   -9000007    1    1    2    0  502  0.54410299429E+02  0.16139083401E+03  0.18074174262E+03  0.47082380942E+03  0.40000000000E+03 0. -1.
<mgrwt>
<rscale>  2 0.43474991E+03</rscale>
<asrwt>0</asrwt>
<pdfrwt beam="1">  1       21 0.73877321E-01 0.43474991E+03</pdfrwt>
<pdfrwt beam="2">  1       21 0.69390338E-01 0.43474991E+03</pdfrwt>
<totfact> 0.27140994E+03</totfact>
</mgrwt>
</event>
<event>
 4    1  0.4890517E-002  0.4322757E+03  0.7818608E-02  0.1033143E+00
         21   -1    0    0  501  502  0.00000000000E+00  0.00000000000E+00  0.78214548446E+03  0.78214548446E+03  0.00000000000E+00 0. -1.
         21   -1    0    0  502  503 -0.00000000000E+00 -0.00000000000E+00 -0.29234578038E+03  0.29234578038E+03  0.00000000000E+00 0. -1.
    9000007    1    1    2  501    0  0.63276842121E+02  0.15118970962E+03  0.47458929143E+03  0.64194803729E+03  0.40000000000E+03 0. -1.
   -9000007    1    1    2    0  503 -0.63276842121E+02 -0.15118970962E+03  0.15210412648E+02  0.43254322755E+03  0.40000000000E+03 0. -1.
<mgrwt>
<rscale>  2 0.43227571E+03</rscale>
<asrwt>0</asrwt>
<pdfrwt beam="1">  1       21 0.12033007E+00 0.43227571E+03</pdfrwt>
<pdfrwt beam="2">  1       21 0.44976274E-01 0.43227571E+03</pdfrwt>
<totfact> 0.21588741E+03</totfact>
</mgrwt>
</event>
<event>
 4    1  0.4890517E-002  0.4349510E+03  0.7818608E-02  0.1032307E+00
         21   -1    0    0  503  502  0.00000000000E+00  0.00000000000E+00  0.16665340276E+04  0.16665340276E+04  0.00000000000E+00 0. -1.
         21   -1    0    0  501  503 -0.00000000000E+00 -0.00000000000E+00 -0.14106127464E+03  0.14106127464E+03  0.00000000000E+00 0. -1.
    9000007    1    1    2  501    0 -0.16698977107E+03  0.36010580366E+02  0.36336989523E+03  0.56676276015E+03  0.40000000000E+03 0. -1.
   -9000007    1    1    2    0  502  0.16698977107E+03 -0.36010580366E+02  0.11621028578E+04  0.12408325421E+04  0.40000000000E+03 0. -1.
<mgrwt>
<rscale>  2 0.43495097E+03</rscale>
<asrwt>0</asrwt>
<pdfrwt beam="1">  1       21 0.25638984E+00 0.43495097E+03</pdfrwt>
<pdfrwt beam="2">  1       21 0.21701736E-01 0.43495097E+03</pdfrwt>
<totfact> 0.99762250E+02</totfact>
</mgrwt>
</event>
<event>
 4    1  0.4890517E-002  0.5113137E+03  0.7818608E-02  0.1010867E+00
         21   -1    0    0  503  502  0.00000000000E+00  0.00000000000E+00  0.76407276081E+03  0.76407276081E+03  0.00000000000E+00 0.  1.
         21   -1    0    0  501  503 -0.00000000000E+00 -0.00000000000E+00 -0.55435528897E+03  0.55435528897E+03  0.00000000000E+00 0. -1.
    9000007    1    1    2  501    0  0.85644097753E+02  0.30676837858E+03 -0.30298270411E+03  0.59434019599E+03  0.40000000000E+03 0. -1.
   -9000007    1    1    2    0  502 -0.85644097753E+02 -0.30676837858E+03  0.51270017596E+03  0.72408785379E+03  0.40000000000E+03 0.  1.
<mgrwt>
<rscale>  2 0.51131375E+03</rscale>
<asrwt>0</asrwt>
<pdfrwt beam="1">  1       21 0.11754966E+00 0.51131375E+03</pdfrwt>
<pdfrwt beam="2">  1       21 0.85285429E-01 0.51131375E+03</pdfrwt>
<totfact> 0.53986399E+02</totfact>
</mgrwt>
</event>
<event>
 4    1  0.4890517E-002  0.4278008E+03  0.7818608E-02  0.1034557E+00
         21   -1    0    0  501  502  0.00000000000E+00  0.00000000000E+00  0.25692261395E+04  0.25692261395E+04  0.00000000000E+00 0.  1.
         21   -1    0    0  502  503 -0.00000000000E+00 -0.00000000000E+00 -0.72999169718E+02  0.72999169718E+02  0.00000000000E+00 0.  1.
    9000007    1    1    2  501    0  0.15170033555E+03  0.70602507649E+00  0.14536109438E+04  0.15152551819E+04  0.40000000000E+03 0.  1.
   -9000007    1    1    2    0  503 -0.15170033555E+03 -0.70602507649E+00  0.10426160260E+04  0.11269701273E+04  0.40000000000E+03 0.  1.
<mgrwt>
<rscale>  2 0.42780076E+03</rscale>
<asrwt>0</asrwt>
<pdfrwt beam="1">  1       21 0.39526549E+00 0.42780076E+03</pdfrwt>
<pdfrwt beam="2">  1       21 0.11230643E-01 0.42780076E+03</pdfrwt>
<totfact> 0.48463024E+02</totfact>
</mgrwt>
</event>
<event>
 4    1  0.4890517E-002  0.4041580E+03  0.7818608E-02  0.1042349E+00
         21   -1    0    0  503  502  0.00000000000E+00  0.00000000000E+00  0.21351943312E+04  0.21351943312E+04  0.00000000000E+00 0. -1.
         21   -1    0    0  501  503 -0.00000000000E+00 -0.00000000000E+00 -0.77826352071E+02  0.77826352071E+02  0.00000000000E+00 0. -1.
    9000007    1    1    2  501    0 -0.46080191773E+02  0.34932544557E+02  0.11731021528E+04  0.12407708603E+04  0.40000000000E+03 0. -1.
   -9000007    1    1    2    0  502  0.46080191773E+02 -0.34932544557E+02  0.88426582626E+03  0.97224982296E+03  0.40000000000E+03 0. -1.
<mgrwt>
<rscale>  2 0.40415797E+03</rscale>
<asrwt>0</asrwt>
<pdfrwt beam="1">  1       21 0.32849139E+00 0.40415797E+03</pdfrwt>
<pdfrwt beam="2">  1       21 0.11973287E-01 0.40415797E+03</pdfrwt>
<totfact> 0.11334297E+03</totfact>
</mgrwt>
</event>
<event>
 4    1  0.4890517E-002  0.5595509E+03  0.7818608E-02  0.9993071E-01
         21   -1    0    0  503  502  0.00000000000E+00  0.00000000000E+00  0.28837208048E+03  0.28837208048E+03  0.00000000000E+00 0.  1.
         21   -1    0    0  501  503 -0.00000000000E+00 -0.00000000000E+00 -0.14865515626E+04  0.14865515626E+04  0.00000000000E+00 0.  1.
    9000007    1    1    2  501    0 -0.30333038236E+03 -0.24715960641E+03 -0.10599079622E+04  0.11985416472E+04  0.40000000000E+03 0.  1.
   -9000007    1    1    2    0  502  0.30333038236E+03  0.24715960641E+03 -0.13827151995E+03  0.57638199584E+03  0.40000000000E+03 0.  1.
<mgrwt>
<rscale>  2 0.55955088E+03</rscale>
<asrwt>0</asrwt>
<pdfrwt beam="1">  1       21 0.44364935E-01 0.55955088E+03</pdfrwt>
<pdfrwt beam="2">  1       21 0.22870024E+00 0.55955088E+03</pdfrwt>
<totfact> 0.33455611E+02</totfact>
</mgrwt>
</event>
<event>
 4    1  0.4890517E-002  0.4307904E+03  0.7818608E-02  0.1033611E+00
         21   -1    0    0  503  502  0.00000000000E+00  0.00000000000E+00  0.18623794418E+04  0.18623794418E+04  0.00000000000E+00 0. -1.
         21   -1    0    0  501  503 -0.00000000000E+00 -0.00000000000E+00 -0.12636726801E+03  0.12636726801E+03  0.00000000000E+00 0. -1.
    9000007    1    1    2  501    0 -0.53674091398E+02 -0.15066350086E+03  0.13252554756E+04  0.13935144327E+04  0.40000000000E+03 0. -1.
   -9000007    1    1    2    0  502  0.53674091398E+02  0.15066350086E+03  0.41075669820E+03  0.59523227709E+03  0.40000000000E+03 0. -1.
<mgrwt>
<rscale>  2 0.43079043E+03</rscale>
<asrwt>0</asrwt>
<pdfrwt beam="1">  1       21 0.28651989E+00 0.43079043E+03</pdfrwt>
<pdfrwt beam="2">  1       21 0.19441120E-01 0.43079043E+03</pdfrwt>
<totfact> 0.81094386E+02</totfact>
</mgrwt>
</event>
<event>
 4    1  0.4890517E-002  0.4736462E+03  0.7818608E-02  0.1020896E+00
         21   -1    0    0  501  502  0.00000000000E+00  0.00000000000E+00  0.15894017322E+04  0.15894017322E+04  0.00000000000E+00 0. -1.
         21   -1    0    0  502  503 -0.00000000000E+00 -0.00000000000E+00 -0.14242814570E+03  0.14242814570E+03  0.00000000000E+00 0. -1.
    9000007    1    1    2  501    0 -0.89392763138E+02 -0.23738085578E+03  0.80558276471E+03  0.93450753212E+03  0.40000000000E+03 0. -1.
   -9000007    1    1    2    0  503  0.89392763138E+02  0.23738085578E+03  0.64139082179E+03  0.79732234578E+03  0.40000000000E+03 0. -1.
<mgrwt>
<rscale>  2 0.47364621E+03</rscale>
<asrwt>0</asrwt>
<pdfrwt beam="1">  1       21 0.24452333E+00 0.47364621E+03</pdfrwt>
<pdfrwt beam="2">  1       21 0.21912024E-01 0.47364621E+03</pdfrwt>
<totfact> 0.11364813E+03</totfact>
</mgrwt>
</event>
<event>
 4    1  0.4890517E-002  0.4674305E+03  0.7818608E-02  0.1022648E+00
         21   -1    0    0  503  502  0.00000000000E+00  0.00000000000E+00  0.12866892548E+04  0.12866892548E+04  0.00000000000E+00 0. -1.
         21   -1    0    0  501  503 -0.00000000000E+00 -0.00000000000E+00 -0.34723931628E+03  0.34723931628E+03  0.00000000000E+00 0. -1.
    9000007    1    1    2  501    0 -0.20031486801E+03 -0.13551837664E+03 -0.11426134641E+03  0.48119323773E+03  0.40000000000E+03 0. -1.
   -9000007    1    1    2    0  502  0.20031486801E+03  0.13551837664E+03  0.10537112849E+04  0.11527353333E+04  0.40000000000E+03 0. -1.
<mgrwt>
<rscale>  2 0.46743050E+03</rscale>
<asrwt>0</asrwt>
<pdfrwt beam="1">  1       21 0.19795219E+00 0.46743050E+03</pdfrwt>
<pdfrwt beam="2">  1       21 0.53421434E-01 0.46743050E+03</pdfrwt>
<totfact> 0.37283195E+02</totfact>
</mgrwt>
</event>
<event>
 4    1  0.4890517E-002  0.4047112E+03  0.7818608E-02  0.1042160E+00
         21   -1    0    0  501  502  0.00000000000E+00  0.00000000000E+00  0.51020892377E+03  0.51020892377E+03  0.00000000000E+00 0.  1.
         21   -1    0    0  502  503 -0.00000000000E+00 -0.00000000000E+00 -0.13909714714E+04  0.13909714714E+04  0.00000000000E+00 0.  1.
    9000007    1    1    2  501    0  0.61565780618E+02 -0.91776088604E+00  0.39332813255E+03  0.56435645428E+03  0.40000000000E+03 0.  1.
   -9000007    1    1    2    0  503 -0.61565780618E+02  0.91776088604E+00 -0.12740906802E+04  0.13368239409E+04  0.40000000000E+03 0.  1.
<mgrwt>
<rscale>  2 0.40471124E+03</rscale>
<asrwt>0</asrwt>
<pdfrwt beam="1">  1       21 0.78493682E-01 0.40471124E+03</pdfrwt>
<pdfrwt beam="2">  1       21 0.21399561E+00 0.40471124E+03</pdfrwt>
<totfact> 0.12887762E+02</totfact>
</mgrwt>
</event>
<event>
 4    1  0.4890517E-002  0.5504922E+03  0.7818608E-02  0.1001380E+00
         21   -1    0    0  501  502  0.00000000000E+00  0.00000000000E+00  0.37464072210E+03  0.37464072210E+03  0.00000000000E+00 0. -1.
         21   -1    0    0  502  503 -0.00000000000E+00 -0.00000000000E+00 -0.88704599983E+03  0.88704599983E+03  0.00000000000E+00 0. -1.
    9000007    1    1    2  501    0 -0.20789760354E+03  0.31594338592E+03 -0.68944488412E+02  0.55479273531E+03  0.40000000000E+03 0. -1.
   -9000007    1    1    2    0  503  0.20789760354E+03 -0.31594338592E+03 -0.44346078932E+03  0.70689398662E+03  0.40000000000E+03 0. -1.
<mgrwt>
<rscale>  2 0.55049218E+03</rscale>
<asrwt>0</asrwt>
<pdfrwt beam="1">  1       21 0.57637035E-01 0.55049218E+03</pdfrwt>
<pdfrwt beam="2">  1       21 0.13646861E+00 0.55049218E+03</pdfrwt>
<totfact> 0.87759618E+02</totfact>
</mgrwt>
</event>
<event>
 4    1  0.4890517E-002  0.4523510E+03  0.7818608E-02  0.1027023E+00
         21   -1    0    0  503  502  0.00000000000E+00  0.00000000000E+00  0.14235821493E+04  0.14235821493E+04  0.00000000000E+00 0.  1.
         21   -1    0    0  501  503 -0.00000000000E+00 -0.00000000000E+00 -0.18926399367E+03  0.18926399367E+03  0.00000000000E+00 0. -1.
    9000007    1    1    2  501    0  0.20869883003E+03 -0.32653726503E+02  0.10126743853E+04  0.11091126535E+04  0.40000000000E+03 0.  1.
   -9000007    1    1    2    0  502 -0.20869883003E+03  0.32653726503E+02  0.22164377035E+03  0.50373348950E+03  0.40000000000E+03 0. -1.
<mgrwt>
<rscale>  2 0.45235104E+03</rscale>
<asrwt>0</asrwt>
<pdfrwt beam="1">  1       21 0.21901263E+00 0.45235104E+03</pdfrwt>
<pdfrwt beam="2">  1       21 0.29117538E-01 0.45235104E+03</pdfrwt>
<totfact> 0.95405118E+02</totfact>
</mgrwt>
</event>
<event>
 4    1  0.4890517E-002  0.4557014E+03  0.7818608E-02  0.1026035E+00
         21   -1    0    0  503  502  0.00000000000E+00  0.00000000000E+00  0.22091954035E+03  0.22091954035E+03  0.00000000000E+00 0. -1.
         21   -1    0    0  501  503 -0.00000000000E+00 -0.00000000000E+00 -0.94003447728E+03  0.94003447728E+03  0.00000000000E+00 0.  1.
    9000007    1    1    2  501    0 -0.19168954309E+03 -0.10449345535E+03 -0.36320981123E+03  0.58273933291E+03  0.40000000000E+03 0. -1.
   -9000007    1    1    2    0  502  0.19168954309E+03  0.10449345535E+03 -0.35590512569E+03  0.57821468473E+03  0.40000000000E+03 0.  1.
<mgrwt>
<rscale>  2 0.45570140E+03</rscale>
<asrwt>0</asrwt>
<pdfrwt beam="1">  1       21 0.33987621E-01 0.45570140E+03</pdfrwt>
<pdfrwt beam="2">  1       21 0.14462069E+00 0.45570140E+03</pdfrwt>
<totfact> 0.23534970E+03</totfact>
</mgrwt>
</event>
<event>
 4    1  0.4890517E-002  0.5414030E+03  0.7818608E-02  0.1003504E+00
         21   -1    0    0  501  502  0.00000000000E+00  0.00000000000E+00  0.61140899636E+03  0.61140899636E+03  0.00000000000E+00 0.  1.
         21   -1    0    0  502  503 -0.00000000000E+00 -0.00000000000E+00 -0.71714518242E+03  0.71714518242E+03  0.00000000000E+00 0. -1.
    9000007    1    1    2  501    0 -0.10414969928E+03 -0.34967138897E+03  0.32959540303E+03  0.63383781034E+03  0.40000000000E+03 0.  1.
   -9000007    1    1    2    0  503  0.10414969928E+03  0.34967138897E+03 -0.43533158908E+03  0.69471636844E+03  0.40000000000E+03 0. -1.
<mgrwt>
<rscale>  2 0.54140303E+03</rscale>
<asrwt>0</asrwt>
<pdfrwt beam="1">  1       21 0.94062922E-01 0.54140303E+03</pdfrwt>
<pdfrwt beam="2">  1       21 0.11033003E+00 0.54140303E+03</pdfrwt>
<totfact> 0.49579848E+02</totfact>
</mgrwt>
</event>
<event>
 4    1  0.4890517E-002  0.4409449E+03  0.7818608E-02  0.1030457E+00
         21   -1    0    0  503  502  0.00000000000E+00  0.00000000000E+00  0.33244385765E+03  0.33244385765E+03  0.00000000000E+00 0.  1.
         21   -1    0    0  501  503 -0.00000000000E+00 -0.00000000000E+00 -0.67299872027E+03  0.67299872027E+03  0.00000000000E+00 0. -1.
    9000007    1    1    2  501    0  0.23550668646E+02 -0.18405926046E+03  0.11654314693E+02  0.44109893267E+03  0.40000000000E+03 0.  1.
   -9000007    1    1    2    0  502 -0.23550668646E+02  0.18405926046E+03 -0.35220917731E+03  0.56434364525E+03  0.40000000000E+03 0. -1.
<mgrwt>
<rscale>  2 0.44094495E+03</rscale>
<asrwt>0</asrwt>
<pdfrwt beam="1">  1       21 0.51145209E-01 0.44094495E+03</pdfrwt>
<pdfrwt beam="2">  1       21 0.10353826E+00 0.44094495E+03</pdfrwt>
<totfact> 0.23838633E+03</totfact>
</mgrwt>
</event>
<event>
 4    1  0.4890517E-002  0.4627135E+03  0.7818608E-02  0.1023997E+00
         21   -1    0    0  501  502  0.00000000000E+00  0.00000000000E+00  0.43155313452E+03  0.43155313452E+03  0.00000000000E+00 0. -1.
         21   -1    0    0  502  503 -0.00000000000E+00 -0.00000000000E+00 -0.64482941528E+03  0.64482941528E+03  0.00000000000E+00 0.  1.
    9000007    1    1    2  501    0  0.52778346247E+02 -0.22653523697E+03  0.15181270826E+03  0.48698138138E+03  0.40000000000E+03 0. -1.
   -9000007    1    1    2    0  503 -0.52778346247E+02  0.22653523697E+03 -0.36508898902E+03  0.58940116841E+03  0.40000000000E+03 0.  1.
<mgrwt>
<rscale>  2 0.46271348E+03</rscale>
<asrwt>0</asrwt>
<pdfrwt beam="1">  1       21 0.66392790E-01 0.46271348E+03</pdfrwt>
<pdfrwt beam="2">  1       21 0.99204525E-01 0.46271348E+03</pdfrwt>
<totfact> 0.14854566E+03</totfact>
</mgrwt>
</event>
<event>
 4    1  0.4890517E-002  0.6110045E+03  0.7818608E-02  0.9882835E-01
         21   -1    0    0  501  502  0.00000000000E+00  0.00000000000E+00  0.18800713263E+03  0.18800713263E+03  0.00000000000E+00 0.  1.
         21   -1    0    0  502  503 -0.00000000000E+00 -0.00000000000E+00 -0.20132135025E+04  0.20132135025E+04  0.00000000000E+00 0. -1.
    9000007    1    1    2  501    0 -0.38661548584E+03 -0.25269539753E+03 -0.10412593980E+04  0.12072893736E+04  0.40000000000E+03 0.  1.
   -9000007    1    1    2    0  503  0.38661548584E+03  0.25269539753E+03 -0.78394697191E+03  0.99393126151E+03  0.40000000000E+03 0.  1.
<mgrwt>
<rscale>  2 0.61100450E+03</rscale>
<asrwt>0</asrwt>
<pdfrwt beam="1">  1       21 0.28924174E-01 0.61100450E+03</pdfrwt>
<pdfrwt beam="2">  1       21 0.30972515E+00 0.61100450E+03</pdfrwt>
<totfact> 0.24830547E+02</totfact>
</mgrwt>
</event>
<event>
 4    1  0.4890517E-002  0.4288402E+03  0.7818608E-02  0.1034227E+00
         21   -1    0    0  503  502  0.00000000000E+00  0.00000000000E+00  0.13328289584E+04  0.13328289584E+04  0.00000000000E+00 0.  1.
         21   -1    0    0  501  503 -0.00000000000E+00 -0.00000000000E+00 -0.15511074687E+03  0.15511074687E+03  0.00000000000E+00 0.  1.
    9000007    1    1    2  501    0  0.70949906576E+02 -0.13736834156E+03  0.34161808004E+03  0.54827626532E+03  0.40000000000E+03 0.  1.
   -9000007    1    1    2    0  502 -0.70949906576E+02  0.13736834156E+03  0.83610013150E+03  0.93966343996E+03  0.40000000000E+03 0.  1.
<mgrwt>
<rscale>  2 0.42884024E+03</rscale>
<asrwt>0</asrwt>
<pdfrwt beam="1">  1       21 0.20505060E+00 0.42884024E+03</pdfrwt>
<pdfrwt beam="2">  1       21 0.23863193E-01 0.42884024E+03</pdfrwt>
<totfact> 0.17540203E+03</totfact>
</mgrwt>
</event>
<event>
 4    1  0.4890517E-002  0.4030655E+03  0.7818608E-02  0.1042723E+00
         21   -1    0    0  501  502  0.00000000000E+00  0.00000000000E+00  0.12399759439E+04  0.12399759439E+04  0.00000000000E+00 0. -1.
         21   -1    0    0  502  503 -0.00000000000E+00 -0.00000000000E+00 -0.23515606567E+03  0.23515606567E+03  0.00000000000E+00 0. -1.
    9000007    1    1    2  501    0  0.34154280112E+01  0.49498800015E+02  0.99323093503E+03  0.10718999425E+04  0.40000000000E+03 0. -1.
   -9000007    1    1    2    0  503 -0.34154280112E+01 -0.49498800015E+02  0.11588943217E+02  0.40323206712E+03  0.40000000000E+03 0. -1.
<mgrwt>
<rscale>  2 0.40306550E+03</rscale>
<asrwt>0</asrwt>
<pdfrwt beam="1">  1       21 0.19076553E+00 0.40306550E+03</pdfrwt>
<pdfrwt beam="2">  1       21 0.36177857E-01 0.40306550E+03</pdfrwt>
<totfact> 0.97108525E+02</totfact>
</mgrwt>
</event>
<event>
 4    1  0.4890517E-002  0.4809350E+03  0.7818608E-02  0.1018879E+00
         21   -1    0    0  503  502  0.00000000000E+00  0.00000000000E+00  0.48501317234E+03  0.48501317234E+03  0.00000000000E+00 0. -1.
         21   -1    0    0  501  503 -0.00000000000E+00 -0.00000000000E+00 -0.51974053688E+03  0.51974053688E+03  0.00000000000E+00 0. -1.
    9000007    1    1    2  501    0  0.26694419690E+03 -0.62628140503E+01 -0.16161151122E+03  0.50736250123E+03  0.40000000000E+03 0. -1.
   -9000007    1    1    2    0  502 -0.26694419690E+03  0.62628140503E+01  0.12688414668E+03  0.49739120798E+03  0.40000000000E+03 0. -1.
<mgrwt>
<rscale>  2 0.48093495E+03</rscale>
<asrwt>0</asrwt>
<pdfrwt beam="1">  1       21 0.74617411E-01 0.48093495E+03</pdfrwt>
<pdfrwt beam="2">  1       21 0.79960083E-01 0.48093495E+03</pdfrwt>
<totfact> 0.18885948E+03</totfact>
</mgrwt>
</event>
<event>
 4    1  0.4890517E-002  0.4003606E+03  0.7818608E-02  0.1043655E+00
         21   -1    0    0  501  502  0.00000000000E+00  0.00000000000E+00  0.87810121305E+03  0.87810121305E+03  0.00000000000E+00 0. -1.
         21   -1    0    0  502  503 -0.00000000000E+00 -0.00000000000E+00 -0.21307829019E+03  0.21307829019E+03  0.00000000000E+00 0. -1.
    9000007    1    1    2  501    0 -0.60600273826E+01  0.15871290291E+02  0.53905839308E+03  0.67147045575E+03  0.40000000000E+03 0.  1.
   -9000007    1    1    2    0  503  0.60600273826E+01 -0.15871290291E+02  0.12596452977E+03  0.41970904749E+03  0.40000000000E+03 0.  1.
<mgrwt>
<rscale>  2 0.40036061E+03</rscale>
<asrwt>0</asrwt>
<pdfrwt beam="1">  1       21 0.13509249E+00 0.40036061E+03</pdfrwt>
<pdfrwt beam="2">  1       21 0.32781276E-01 0.40036061E+03</pdfrwt>
<totfact> 0.30999814E+03</totfact>
</mgrwt>
</event>
<event>
 4    1  0.4890517E-002  0.4129736E+03  0.7818608E-02  0.1039378E+00
         21   -1    0    0  501  502  0.00000000000E+00  0.00000000000E+00  0.32581098420E+03  0.32581098420E+03  0.00000000000E+00 0. -1.
         21   -1    0    0  502  503 -0.00000000000E+00 -0.00000000000E+00 -0.22015332285E+04  0.22015332285E+04  0.00000000000E+00 0. -1.
    9000007    1    1    2  501    0  0.39856403595E+02  0.94650419119E+02  0.16539904752E+03  0.44486411371E+03  0.40000000000E+03 0. -1.
   -9000007    1    1    2    0  503 -0.39856403595E+02 -0.94650419119E+02 -0.20411212919E+04  0.20824800990E+04  0.40000000000E+03 0. -1.
<mgrwt>
<rscale>  2 0.41297365E+03</rscale>
<asrwt>0</asrwt>
<pdfrwt beam="1">  1       21 0.50124770E-01 0.41297365E+03</pdfrwt>
<pdfrwt beam="2">  1       21 0.33869740E+00 0.41297365E+03</pdfrwt>
<totfact> 0.59966040E+01</totfact>
</mgrwt>
</event>
<event>
 4    1  0.4890517E-002  0.4323269E+03  0.7818608E-02  0.1033127E+00
         21   -1    0    0  501  502  0.00000000000E+00  0.00000000000E+00  0.85099736469E+03  0.85099736469E+03  0.00000000000E+00 0.  1.
         21   -1    0    0  502  503 -0.00000000000E+00 -0.00000000000E+00 -0.22429732284E+03  0.22429732284E+03  0.00000000000E+00 0.  1.
    9000007    1    1    2  501    0  0.87449027789E+02  0.13877742458E+03  0.39088764362E+03  0.58283758970E+03  0.40000000000E+03 0.  1.
   -9000007    1    1    2    0  503 -0.87449027789E+02 -0.13877742458E+03  0.23581239823E+03  0.49245709782E+03  0.40000000000E+03 0.  1.
<mgrwt>
<rscale>  2 0.43232685E+03</rscale>
<asrwt>0</asrwt>
<pdfrwt beam="1">  1       21 0.13092267E+00 0.43232685E+03</pdfrwt>
<pdfrwt beam="2">  1       21 0.34507281E-01 0.43232685E+03</pdfrwt>
<totfact> 0.29952365E+03</totfact>
</mgrwt>
</event>
<event>
 4    1  0.4890517E-002  0.4027934E+03  0.7818608E-02  0.1042817E+00
         21   -1    0    0  503  502  0.00000000000E+00  0.00000000000E+00  0.83864258942E+02  0.83864258942E+02  0.00000000000E+00 0. -1.
         21   -1    0    0  501  503 -0.00000000000E+00 -0.00000000000E+00 -0.19685271355E+04  0.19685271355E+04  0.00000000000E+00 0. -1.
    9000007    1    1    2  501    0  0.41891066028E+02  0.22083790926E+02 -0.80758176952E+03  0.90245823709E+03  0.40000000000E+03 0.  1.
   -9000007    1    1    2    0  502 -0.41891066028E+02 -0.22083790926E+02 -0.10770811070E+04  0.11499331574E+04  0.40000000000E+03 0.  1.
<mgrwt>
<rscale>  2 0.40279344E+03</rscale>
<asrwt>0</asrwt>
<pdfrwt beam="1">  1       21 0.12902194E-01 0.40279344E+03</pdfrwt>
<pdfrwt beam="2">  1       21 0.30285031E+00 0.40279344E+03</pdfrwt>
<totfact> 0.14109298E+03</totfact>
</mgrwt>
</event>
<event>
 4    1  0.4890517E-002  0.4986800E+03  0.7818608E-02  0.1014124E+00
         21   -1    0    0  503  502  0.00000000000E+00  0.00000000000E+00  0.14559417511E+03  0.14559417511E+03  0.00000000000E+00 0. -1.
         21   -1    0    0  501  503 -0.00000000000E+00 -0.00000000000E+00 -0.18716563004E+04  0.18716563004E+04  0.00000000000E+00 0. -1.
    9000007    1    1    2  501    0  0.49126695426E+02 -0.29371468582E+03 -0.11612397386E+04  0.12637877509E+04  0.40000000000E+03 0.  1.
   -9000007    1    1    2    0  502 -0.49126695426E+02  0.29371468582E+03 -0.56482238674E+03  0.75346272465E+03  0.40000000000E+03 0.  1.
<mgrwt>
<rscale>  2 0.49868001E+03</rscale>
<asrwt>0</asrwt>
<pdfrwt beam="1">  1       21 0.22399105E-01 0.49868001E+03</pdfrwt>
<pdfrwt beam="2">  1       21 0.28794711E+00 0.49868001E+03</pdfrwt>
<totfact> 0.58495400E+02</totfact>
</mgrwt>
</event>
<event>
 4    1  0.4890517E-002  0.5861312E+03  0.7818608E-02  0.9934605E-01
         21   -1    0    0  503  502  0.00000000000E+00  0.00000000000E+00  0.25827617960E+03  0.25827617960E+03  0.00000000000E+00 0. -1.
         21   -1    0    0  501  503 -0.00000000000E+00 -0.00000000000E+00 -0.26177462923E+04  0.26177462923E+04  0.00000000000E+00 0. -1.
    9000007    1    1    2  501    0  0.40520134793E+03  0.13914630922E+03 -0.21882582759E+04  0.22653971196E+04  0.40000000000E+03 0. -1.
   -9000007    1    1    2    0  502 -0.40520134793E+03 -0.13914630922E+03 -0.17121183680E+03  0.61062535224E+03  0.40000000000E+03 0. -1.
<mgrwt>
<rscale>  2 0.58613124E+03</rscale>
<asrwt>0</asrwt>
<pdfrwt beam="1">  1       21 0.39734796E-01 0.58613124E+03</pdfrwt>
<pdfrwt beam="2">  1       21 0.40273021E+00 0.58613124E+03</pdfrwt>
<totfact> 0.34602504E+01</totfact>
</mgrwt>
</event>
<event>
 4    1  0.4890517E-002  0.4372682E+03  0.7818608E-02  0.1031588E+00
         21   -1    0    0  501  502  0.00000000000E+00  0.00000000000E+00  0.22425069027E+04  0.22425069027E+04  0.00000000000E+00 0.  1.
         21   -1    0    0  502  503 -0.00000000000E+00 -0.00000000000E+00 -0.22115006361E+03  0.22115006361E+03  0.00000000000E+00 0.  1.
    9000007    1    1    2  501    0 -0.86318589792E+02  0.15411863432E+03  0.19762741723E+04  0.20240709119E+04  0.40000000000E+03 0.  1.
   -9000007    1    1    2    0  503  0.86318589792E+02 -0.15411863432E+03  0.45082666818E+02  0.43958605442E+03  0.40000000000E+03 0.  1.
<mgrwt>
<rscale>  2 0.43726817E+03</rscale>
<asrwt>0</asrwt>
<pdfrwt beam="1">  1       21 0.34500105E+00 0.43726817E+03</pdfrwt>
<pdfrwt beam="2">  1       21 0.34023088E-01 0.43726817E+03</pdfrwt>
<totfact> 0.12020353E+02</totfact>
</mgrwt>
</event>
<event>
 4    1  0.4890517E-002  0.4109183E+03  0.7818608E-02  0.1040063E+00
         21   -1    0    0  503  502  0.00000000000E+00  0.00000000000E+00  0.76498424198E+02  0.76498424198E+02  0.00000000000E+00 0. -1.
         21   -1    0    0  501  503 -0.00000000000E+00 -0.00000000000E+00 -0.23283689398E+04  0.23283689398E+04  0.00000000000E+00 0. -1.
    9000007    1    1    2  501    0  0.38359894530E+02 -0.85920568693E+02 -0.85172829791E+03  0.94567167616E+03  0.40000000000E+03 0.  1.
   -9000007    1    1    2    0  502 -0.38359894530E+02  0.85920568693E+02 -0.14001422177E+04  0.14591956878E+04  0.40000000000E+03 0.  1.
<mgrwt>
<rscale>  2 0.41091827E+03</rscale>
<asrwt>0</asrwt>
<pdfrwt beam="1">  1       21 0.11768987E-01 0.41091827E+03</pdfrwt>
<pdfrwt beam="2">  1       21 0.35821065E+00 0.41091827E+03</pdfrwt>
<totfact> 0.76769396E+02</totfact>
</mgrwt>
</event>
<event>
 4    1  0.4890517E-002  0.5875480E+03  0.7818608E-02  0.9931582E-01
         21   -1    0    0  501  502  0.00000000000E+00  0.00000000000E+00  0.99398060367E+03  0.99398060367E+03  0.00000000000E+00 0. -1.
         21   -1    0    0  502  503 -0.00000000000E+00 -0.00000000000E+00 -0.68175638797E+03  0.68175638797E+03  0.00000000000E+00 0. -1.
    9000007    1    1    2  501    0  0.41646069886E+03  0.10850388020E+03  0.74296459346E+03  0.94721116592E+03  0.40000000000E+03 0. -1.
   -9000007    1    1    2    0  503 -0.41646069886E+03 -0.10850388020E+03 -0.43074037775E+03  0.72852582572E+03  0.40000000000E+03 0. -1.
<mgrwt>
<rscale>  2 0.58754796E+03</rscale>
<asrwt>0</asrwt>
<pdfrwt beam="1">  1       21 0.15292009E+00 0.58754796E+03</pdfrwt>
<pdfrwt beam="2">  1       21 0.10488560E+00 0.58754796E+03</pdfrwt>
<totfact> 0.15886354E+02</totfact>
</mgrwt>
</event>
<event>
 4    1  0.4890517E-002  0.4831045E+03  0.7818608E-02  0.1018285E+00
         21   -1    0    0  503  502  0.00000000000E+00  0.00000000000E+00  0.13387043349E+04  0.13387043349E+04  0.00000000000E+00 0.  1.
         21   -1    0    0  501  503 -0.00000000000E+00 -0.00000000000E+00 -0.28857355726E+03  0.28857355726E+03  0.00000000000E+00 0. -1.
    9000007    1    1    2  501    0 -0.87392152680E+02 -0.25642257694E+03  0.13147848162E+02  0.48328334570E+03  0.40000000000E+03 0. -1.
   -9000007    1    1    2    0  502  0.87392152680E+02  0.25642257694E+03  0.10369829295E+04  0.11439945465E+04  0.40000000000E+03 0.  1.
<mgrwt>
<rscale>  2 0.48310447E+03</rscale>
<asrwt>0</asrwt>
<pdfrwt beam="1">  1       21 0.20595451E+00 0.48310447E+03</pdfrwt>
<pdfrwt beam="2">  1       21 0.44395933E-01 0.48310447E+03</pdfrwt>
<totfact> 0.48477673E+02</totfact>
</mgrwt>
</event>
<event>
 4    1  0.4890517E-002  0.5376066E+03  0.7818608E-02  0.1004404E+00
         21   -1    0    0  501  502  0.00000000000E+00  0.00000000000E+00  0.19501227070E+04  0.19501227070E+04  0.00000000000E+00 0.  1.
         21   -1    0    0  502  503 -0.00000000000E+00 -0.00000000000E+00 -0.16230833591E+03  0.16230833591E+03  0.00000000000E+00 0. -1.
    9000007    1    1    2  501    0  0.25039324963E+03 -0.25753455010E+03  0.58257770041E+03  0.79272794890E+03  0.40000000000E+03 0. -1.
   -9000007    1    1    2    0  503 -0.25039324963E+03  0.25753455010E+03  0.12052366706E+04  0.13197030940E+04  0.40000000000E+03 0.  1.
<mgrwt>
<rscale>  2 0.53760657E+03</rscale>
<asrwt>0</asrwt>
<pdfrwt beam="1">  1       21 0.30001886E+00 0.53760657E+03</pdfrwt>
<pdfrwt beam="2">  1       21 0.24970515E-01 0.53760657E+03</pdfrwt>
<totfact> 0.39300502E+02</totfact>
</mgrwt>
</event>
<event>
 4    1  0.4890517E-002  0.4286503E+03  0.7818608E-02  0.1034287E+00
         21   -1    0    0  501  502  0.00000000000E+00  0.00000000000E+00  0.28024094147E+03  0.28024094147E+03  0.00000000000E+00 0. -1.
         21   -1    0    0  502  503 -0.00000000000E+00 -0.00000000000E+00 -0.12389043829E+04  0.12389043829E+04  0.00000000000E+00 0. -1.
    9000007    1    1    2  501    0  0.10061547683E+03 -0.11669458600E+03  0.41836515550E+02  0.43068711916E+03  0.40000000000E+03 0. -1.
   -9000007    1    1    2    0  503 -0.10061547683E+03  0.11669458600E+03 -0.10004999570E+04  0.10884582053E+04  0.40000000000E+03 0. -1.
<mgrwt>
<rscale>  2 0.42865032E+03</rscale>
<asrwt>0</asrwt>
<pdfrwt beam="1">  1       21 0.43113992E-01 0.42865032E+03</pdfrwt>
<pdfrwt beam="2">  1       21 0.19060067E+00 0.42865032E+03</pdfrwt>
<totfact> 0.67049725E+02</totfact>
</mgrwt>
</event>
<event>
 4    1  0.4890517E-002  0.5650795E+03  0.7818608E-02  0.9980626E-01
         21   -1    0    0  503  502  0.00000000000E+00  0.00000000000E+00  0.50978712738E+03  0.50978712738E+03  0.00000000000E+00 0.  1.
         21   -1    0    0  501  503 -0.00000000000E+00 -0.00000000000E+00 -0.62966646649E+03  0.62966646649E+03  0.00000000000E+00 0. -1.
    9000007    1    1    2  501    0 -0.25556719105E+03  0.30659464253E+03 -0.10116841948E+03  0.57406438060E+03  0.40000000000E+03 0.  1.
   -9000007    1    1    2    0  502  0.25556719105E+03 -0.30659464253E+03 -0.18710919630E+02  0.56538921327E+03  0.40000000000E+03 0. -1.
<mgrwt>
<rscale>  2 0.56507952E+03</rscale>
<asrwt>0</asrwt>
<pdfrwt beam="1">  1       21 0.78428789E-01 0.56507952E+03</pdfrwt>
<pdfrwt beam="2">  1       21 0.96871764E-01 0.56507952E+03</pdfrwt>
<totfact> 0.10399429E+03</totfact>
</mgrwt>
</event>
<event>
 4    1  0.4890517E-002  0.4791018E+03  0.7818608E-02  0.1019382E+00
         21   -1    0    0  501  502  0.00000000000E+00  0.00000000000E+00  0.18116310122E+04  0.18116310122E+04  0.00000000000E+00 0. -1.
         21   -1    0    0  502  503 -0.00000000000E+00 -0.00000000000E+00 -0.51718327729E+03  0.51718327729E+03  0.00000000000E+00 0. -1.
    9000007    1    1    2  501    0  0.24368182275E+03 -0.10078554560E+03  0.16589951255E+04  0.17267899071E+04  0.40000000000E+03 0. -1.
   -9000007    1    1    2    0  503 -0.24368182275E+03  0.10078554560E+03 -0.36454739061E+03  0.60202438235E+03  0.40000000000E+03 0. -1.
<mgrwt>
<rscale>  2 0.47910182E+03</rscale>
<asrwt>0</asrwt>
<pdfrwt beam="1">  1       21 0.27871246E+00 0.47910182E+03</pdfrwt>
<pdfrwt beam="2">  1       21 0.79566659E-01 0.47910182E+03</pdfrwt>
<totfact> 0.47402898E+01</totfact>
</mgrwt>
</event>
<event>
 4    1  0.4890517E-002  0.5502568E+03  0.7818608E-02  0.1001435E+00
         21   -1    0    0  501  502  0.00000000000E+00  0.00000000000E+00  0.18625453047E+04  0.18625453047E+04  0.00000000000E+00 0. -1.
         21   -1    0    0  502  503 -0.00000000000E+00 -0.00000000000E+00 -0.21919289530E+03  0.21919289530E+03  0.00000000000E+00 0. -1.
    9000007    1    1    2  501    0 -0.33824887255E+03  0.16843463012E+03  0.13507332744E+04  0.14585139365E+04  0.40000000000E+03 0. -1.
   -9000007    1    1    2    0  503  0.33824887255E+03 -0.16843463012E+03  0.29261913496E+03  0.62322426345E+03  0.40000000000E+03 0. -1.
<mgrwt>
<rscale>  2 0.55025678E+03</rscale>
<asrwt>0</asrwt>
<pdfrwt beam="1">  1       21 0.28654542E+00 0.55025678E+03</pdfrwt>
<pdfrwt beam="2">  1       21 0.33721985E-01 0.55025678E+03</pdfrwt>
<totfact> 0.25955080E+02</totfact>
</mgrwt>
</event>
<event>
 4    1  0.4890517E-002  0.4616250E+03  0.7818608E-02  0.1024311E+00
         21   -1    0    0  503  502  0.00000000000E+00  0.00000000000E+00  0.13491798768E+04  0.13491798768E+04  0.00000000000E+00 0. -1.
         21   -1    0    0  501  503 -0.00000000000E+00 -0.00000000000E+00 -0.33182171410E+03  0.33182171410E+03  0.00000000000E+00 0. -1.
    9000007    1    1    2  501    0  0.20418800665E+01  0.23042029084E+03 -0.99743164061E+02  0.47227786152E+03  0.40000000000E+03 0. -1.
   -9000007    1    1    2    0  502 -0.20418800665E+01 -0.23042029084E+03  0.11171013268E+04  0.12087237294E+04  0.40000000000E+03 0. -1.
<mgrwt>
<rscale>  2 0.46162504E+03</rscale>
<asrwt>0</asrwt>
<pdfrwt beam="1">  1       21 0.20756613E+00 0.46162504E+03</pdfrwt>
<pdfrwt beam="2">  1       21 0.51049495E-01 0.46162504E+03</pdfrwt>
<totfact> 0.35583443E+02</totfact>
</mgrwt>
</event>
<event>
 4    1  0.4890517E-002  0.4291618E+03  0.7818608E-02  0.1034125E+00
         21   -1    0    0  501  502  0.00000000000E+00  0.00000000000E+00  0.91632341999E+03  0.91632341999E+03  0.00000000000E+00 0. -1.
         21   -1    0    0  502  503 -0.00000000000E+00 -0.00000000000E+00 -0.24890146730E+03  0.24890146730E+03  0.00000000000E+00 0. -1.
    9000007    1    1    2  501    0 -0.27468923888E+02  0.15305340799E+03  0.58930222321E+03  0.72901097232E+03  0.40000000000E+03 0. -1.
   -9000007    1    1    2    0  503  0.27468923888E+02 -0.15305340799E+03  0.78119729479E+02  0.43621391497E+03  0.40000000000E+03 0. -1.
<mgrwt>
<rscale>  2 0.42916184E+03</rscale>
<asrwt>0</asrwt>
<pdfrwt beam="1">  1       21 0.14097283E+00 0.42916184E+03</pdfrwt>
<pdfrwt beam="2">  1       21 0.38292534E-01 0.42916184E+03</pdfrwt>
<totfact> 0.19988439E+03</totfact>
</mgrwt>
</event>
<event>
 4    1  0.4890517E-002  0.4020480E+03  0.7818608E-02  0.1043073E+00
         21   -1    0    0  503  502  0.00000000000E+00  0.00000000000E+00  0.13052816432E+03  0.13052816432E+03  0.00000000000E+00 0. -1.
         21   -1    0    0  501  503 -0.00000000000E+00 -0.00000000000E+00 -0.18404225180E+04  0.18404225180E+04  0.00000000000E+00 0. -1.
    9000007    1    1    2  501    0  0.11369400675E+02  0.38901154218E+02 -0.14185888237E+04  0.14744615335E+04  0.40000000000E+03 0. -1.
   -9000007    1    1    2    0  502 -0.11369400675E+02 -0.38901154218E+02 -0.29130552995E+03  0.49648914877E+03  0.40000000000E+03 0. -1.
<mgrwt>
<rscale>  2 0.40204796E+03</rscale>
<asrwt>0</asrwt>
<pdfrwt beam="1">  1       21 0.20081257E-01 0.40204796E+03</pdfrwt>
<pdfrwt beam="2">  1       21 0.28314191E+00 0.40204796E+03</pdfrwt>
<totfact> 0.81243946E+02</totfact>
</mgrwt>
</event>
<event>
 4    1  0.4890517E-002  0.5125477E+03  0.7818608E-02  0.1010555E+00
         21   -1    0    0  501  502  0.00000000000E+00  0.00000000000E+00  0.19438948524E+04  0.19438948524E+04  0.00000000000E+00 0.  1.
         21   -1    0    0  502  503 -0.00000000000E+00 -0.00000000000E+00 -0.13765944700E+03  0.13765944700E+03  0.00000000000E+00 0.  1.
    9000007    1    1    2  501    0 -0.13892683678E+03 -0.28879839446E+03  0.10438152827E+04  0.11628652213E+04  0.40000000000E+03 0.  1.
   -9000007    1    1    2    0  503  0.13892683678E+03  0.28879839446E+03  0.76242012268E+03  0.91868907803E+03  0.40000000000E+03 0.  1.
<mgrwt>
<rscale>  2 0.51254773E+03</rscale>
<asrwt>0</asrwt>
<pdfrwt beam="1">  1       21 0.29906073E+00 0.51254773E+03</pdfrwt>
<pdfrwt beam="2">  1       21 0.21178378E-01 0.51254773E+03</pdfrwt>
<totfact> 0.55443971E+02</totfact>
</mgrwt>
</event>
<event>
 4    1  0.4890517E-002  0.4079645E+03  0.7818608E-02  0.1041056E+00
         21   -1    0    0  503  502  0.00000000000E+00  0.00000000000E+00  0.68487572024E+03  0.68487572024E+03  0.00000000000E+00 0.  1.
         21   -1    0    0  501  503 -0.00000000000E+00 -0.00000000000E+00 -0.37483831247E+03  0.37483831247E+03  0.00000000000E+00 0.  1.
    9000007    1    1    2  501    0  0.49558611330E+02  0.63078964444E+02 -0.15920067124E+03  0.43792678091E+03  0.40000000000E+03 0. -1.
   -9000007    1    1    2    0  502 -0.49558611330E+02 -0.63078964444E+02  0.46923807901E+03  0.62178725181E+03  0.40000000000E+03 0. -1.
<mgrwt>
<rscale>  2 0.40796447E+03</rscale>
<asrwt>0</asrwt>
<pdfrwt beam="1">  1       21 0.10536550E+00 0.40796447E+03</pdfrwt>
<pdfrwt beam="2">  1       21 0.57667433E-01 0.40796447E+03</pdfrwt>
<totfact> 0.17872451E+03</totfact>
</mgrwt>
</event>
<event>
 4    1  0.4890517E-002  0.4083614E+03  0.7818608E-02  0.1040922E+00
         21   -1    0    0  501  502  0.00000000000E+00  0.00000000000E+00  0.10312455371E+03  0.10312455371E+03  0.00000000000E+00 0.  1.
         21   -1    0    0  502  503 -0.00000000000E+00 -0.00000000000E+00 -0.18154812344E+04  0.18154812344E+04  0.00000000000E+00 0.  1.
    9000007    1    1    2  501    0 -0.81746253420E+02  0.87521247638E+01 -0.53903976051E+03  0.67625654381E+03  0.40000000000E+03 0.  1.
   -9000007    1    1    2    0  503  0.81746253420E+02 -0.87521247638E+01 -0.11733169201E+04  0.12423492443E+04  0.40000000000E+03 0.  1.
<mgrwt>
<rscale>  2 0.40836142E+03</rscale>
<asrwt>0</asrwt>
<pdfrwt beam="1">  1       21 0.15865315E-01 0.40836142E+03</pdfrwt>
<pdfrwt beam="2">  1       21 0.27930483E+00 0.40836142E+03</pdfrwt>
<totfact> 0.13287799E+03</totfact>
</mgrwt>
</event>
<event>
 4    1  0.4890517E-002  0.4841588E+03  0.7818608E-02  0.1017998E+00
         21   -1    0    0  503  502  0.00000000000E+00  0.00000000000E+00  0.37028575500E+03  0.37028575500E+03  0.00000000000E+00 0. -1.
         21   -1    0    0  501  503 -0.00000000000E+00 -0.00000000000E+00 -0.13452148509E+04  0.13452148509E+04  0.00000000000E+00 0.  1.
    9000007    1    1    2  501    0  0.23146513154E+03  0.14433863487E+03 -0.11115657682E+04  0.12124307013E+04  0.40000000000E+03 0.  1.
   -9000007    1    1    2    0  502 -0.23146513154E+03 -0.14433863487E+03  0.13663667227E+03  0.50306990453E+03  0.40000000000E+03 0.  1.
<mgrwt>
<rscale>  2 0.48415881E+03</rscale>
<asrwt>0</asrwt>
<pdfrwt beam="1">  1       21 0.56967040E-01 0.48415881E+03</pdfrwt>
<pdfrwt beam="2">  1       21 0.20695613E+00 0.48415881E+03</pdfrwt>
<totfact> 0.28038814E+02</totfact>
</mgrwt>
</event>
<event>
 4    1  0.4890517E-002  0.4566836E+03  0.7818608E-02  0.1025747E+00
         21   -1    0    0  503  502  0.00000000000E+00  0.00000000000E+00  0.80180895142E+03  0.80180895142E+03  0.00000000000E+00 0. -1.
         21   -1    0    0  501  503 -0.00000000000E+00 -0.00000000000E+00 -0.26133134161E+03  0.26133134161E+03  0.00000000000E+00 0. -1.
    9000007    1    1    2  501    0  0.17296432140E+03  0.13654020476E+03  0.23392413025E+03  0.51310854866E+03  0.40000000000E+03 0.  1.
   -9000007    1    1    2    0  502 -0.17296432140E+03 -0.13654020476E+03  0.30655347955E+03  0.55003174437E+03  0.40000000000E+03 0.  1.
<mgrwt>
<rscale>  2 0.45668357E+03</rscale>
<asrwt>0</asrwt>
<pdfrwt beam="1">  1       21 0.12335522E+00 0.45668357E+03</pdfrwt>
<pdfrwt beam="2">  1       21 0.40204822E-01 0.45668357E+03</pdfrwt>
<totfact> 0.25341007E+03</totfact>
</mgrwt>
</event>
<event>
 4    1  0.4890517E-002  0.7972730E+03  0.7818608E-02  0.9563973E-01
         21   -1    0    0  503  502  0.00000000000E+00  0.00000000000E+00  0.16339186162E+04  0.16339186162E+04  0.00000000000E+00 0.  1.
         21   -1    0    0  501  503 -0.00000000000E+00 -0.00000000000E+00 -0.40993363877E+03  0.40993363877E+03  0.00000000000E+00 0. -1.
    9000007    1    1    2  501    0  0.31659259020E+02  0.68894265662E+03  0.38122866060E+03  0.88373049312E+03  0.40000000000E+03 0.  1.
   -9000007    1    1    2    0  502 -0.31659259020E+02 -0.68894265662E+03  0.84275631682E+03  0.11601217619E+04  0.40000000000E+03 0. -1.
<mgrwt>
<rscale>  2 0.79727304E+03</rscale>
<asrwt>0</asrwt>
<pdfrwt beam="1">  1       21 0.25137209E+00 0.79727304E+03</pdfrwt>
<pdfrwt beam="2">  1       21 0.63066715E-01 0.79727304E+03</pdfrwt>
<totfact> 0.10294596E+02</totfact>
</mgrwt>
</event>
<event>
 4    1  0.4890517E-002  0.4345888E+03  0.7818608E-02  0.1032420E+00
         21   -1    0    0  503  502  0.00000000000E+00  0.00000000000E+00  0.11113198364E+04  0.11113198364E+04  0.00000000000E+00 0.  1.
         21   -1    0    0  501  503 -0.00000000000E+00 -0.00000000000E+00 -0.27965112766E+03  0.27965112766E+03  0.00000000000E+00 0. -1.
    9000007    1    1    2  501    0 -0.15361861039E+03  0.72585899210E+02 -0.19765623741E+02  0.43503800995E+03  0.40000000000E+03 0. -1.
   -9000007    1    1    2    0  502  0.15361861039E+03 -0.72585899210E+02  0.85143433253E+03  0.95593295415E+03  0.40000000000E+03 0.  1.
<mgrwt>
<rscale>  2 0.43458876E+03</rscale>
<asrwt>0</asrwt>
<pdfrwt beam="1">  1       21 0.17097228E+00 0.43458876E+03</pdfrwt>
<pdfrwt beam="2">  1       21 0.43023251E-01 0.43458876E+03</pdfrwt>
<totfact> 0.92241026E+02</totfact>
</mgrwt>
</event>
<event>
 4    1  0.4890517E-002  0.4242595E+03  0.7818608E-02  0.1035689E+00
         21   -1    0    0  501  502  0.00000000000E+00  0.00000000000E+00  0.59749630046E+03  0.59749630046E+03  0.00000000000E+00 0. -1.
         21   -1    0    0  502  503 -0.00000000000E+00 -0.00000000000E+00 -0.61359772229E+03  0.61359772229E+03  0.00000000000E+00 0. -1.
    9000007    1    1    2  501    0 -0.10987959472E+03  0.89008796727E+02  0.42399010989E+03  0.59980305477E+03  0.40000000000E+03 0. -1.
   -9000007    1    1    2    0  503  0.10987959472E+03 -0.89008796727E+02 -0.44009153173E+03  0.61129096798E+03  0.40000000000E+03 0. -1.
<mgrwt>
<rscale>  2 0.42425946E+03</rscale>
<asrwt>0</asrwt>
<pdfrwt beam="1">  1       21 0.91922508E-01 0.42425946E+03</pdfrwt>
<pdfrwt beam="2">  1       21 0.94399650E-01 0.42425946E+03</pdfrwt>
<totfact> 0.80463078E+02</totfact>
</mgrwt>
</event>
<event>
 4    1  0.4890517E-002  0.5548346E+03  0.7818608E-02  0.1000381E+00
         21   -1    0    0  501  502  0.00000000000E+00  0.00000000000E+00  0.26527123415E+03  0.26527123415E+03  0.00000000000E+00 0.  1.
         21   -1    0    0  502  503 -0.00000000000E+00 -0.00000000000E+00 -0.11732423924E+04  0.11732423924E+04  0.00000000000E+00 0.  1.
    9000007    1    1    2  501    0 -0.34936545248E+03  0.16057777604E+03 -0.37896342588E+03  0.67190380242E+03  0.40000000000E+03 0.  1.
   -9000007    1    1    2    0  503  0.34936545248E+03 -0.16057777604E+03 -0.52900773236E+03  0.76660982412E+03  0.40000000000E+03 0.  1.
<mgrwt>
<rscale>  2 0.55483461E+03</rscale>
<asrwt>0</asrwt>
<pdfrwt beam="1">  1       21 0.40810960E-01 0.55483461E+03</pdfrwt>
<pdfrwt beam="2">  1       21 0.18049883E+00 0.55483461E+03</pdfrwt>
<totfact> 0.83743993E+02</totfact>
</mgrwt>
</event>
<event>
 4    1  0.4890517E-002  0.4423033E+03  0.7818608E-02  0.1030042E+00
         21   -1    0    0  501  502  0.00000000000E+00  0.00000000000E+00  0.24924982759E+03  0.24924982759E+03  0.00000000000E+00 0.  1.
         21   -1    0    0  502  503 -0.00000000000E+00 -0.00000000000E+00 -0.78699964786E+03  0.78699964786E+03  0.00000000000E+00 0.  1.
    9000007    1    1    2  501    0  0.17586629102E+03 -0.68580500427E+02 -0.24201193822E+03  0.50418450551E+03  0.40000000000E+03 0.  1.
   -9000007    1    1    2    0  503 -0.17586629102E+03  0.68580500427E+02 -0.29573788205E+03  0.53206496994E+03  0.40000000000E+03 0.  1.
<mgrwt>
<rscale>  2 0.44230333E+03</rscale>
<asrwt>0</asrwt>
<pdfrwt beam="1">  1       21 0.38346128E-01 0.44230333E+03</pdfrwt>
<pdfrwt beam="2">  1       21 0.12107687E+00 0.44230333E+03</pdfrwt>
<totfact> 0.29449687E+03</totfact>
</mgrwt>
</event>
<event>
 4    1  0.4890517E-002  0.4197881E+03  0.7818608E-02  0.1037135E+00
         21   -1    0    0  503  502  0.00000000000E+00  0.00000000000E+00  0.81506688540E+03  0.81506688540E+03  0.00000000000E+00 0.  1.
         21   -1    0    0  501  503 -0.00000000000E+00 -0.00000000000E+00 -0.32184941161E+03  0.32184941161E+03  0.00000000000E+00 0.  1.
    9000007    1    1    2  501    0 -0.69363512116E+02 -0.10682092726E+03  0.57229107865E+03  0.70974578972E+03  0.40000000000E+03 0.  1.
   -9000007    1    1    2    0  502  0.69363512116E+02  0.10682092726E+03 -0.79073604860E+02  0.42717050729E+03  0.40000000000E+03 0.  1.
<mgrwt>
<rscale>  2 0.41978805E+03</rscale>
<asrwt>0</asrwt>
<pdfrwt beam="1">  1       21 0.12539490E+00 0.41978805E+03</pdfrwt>
<pdfrwt beam="2">  1       21 0.49515294E-01 0.41978805E+03</pdfrwt>
<totfact> 0.15947134E+03</totfact>
</mgrwt>
</event>
<event>
 4    1  0.4890517E-002  0.6610624E+03  0.7818608E-02  0.9786240E-01
         21   -1    0    0  501  502  0.00000000000E+00  0.00000000000E+00  0.76273582122E+03  0.76273582122E+03  0.00000000000E+00 0. -1.
         21   -1    0    0  502  503 -0.00000000000E+00 -0.00000000000E+00 -0.57446723308E+03  0.57446723308E+03  0.00000000000E+00 0. -1.
    9000007    1    1    2  501    0 -0.52509457784E+03  0.35766522294E+02  0.12858281375E+03  0.67345163136E+03  0.40000000000E+03 0. -1.
   -9000007    1    1    2    0  503  0.52509457784E+03 -0.35766522294E+02  0.59685774394E+02  0.66375142294E+03  0.40000000000E+03 0. -1.
<mgrwt>
<rscale>  2 0.66106245E+03</rscale>
<asrwt>0</asrwt>
<pdfrwt beam="1">  1       21 0.11734397E+00 0.66106245E+03</pdfrwt>
<pdfrwt beam="2">  1       21 0.88379574E-01 0.66106245E+03</pdfrwt>
<totfact> 0.47364289E+02</totfact>
</mgrwt>
</event>
<event>
 4    1  0.4890517E-002  0.4855187E+03  0.7818608E-02  0.1017629E+00
         21   -1    0    0  503  502  0.00000000000E+00  0.00000000000E+00  0.37181939350E+03  0.37181939350E+03  0.00000000000E+00 0. -1.
         21   -1    0    0  501  503 -0.00000000000E+00 -0.00000000000E+00 -0.71426464192E+03  0.71426464192E+03  0.00000000000E+00 0. -1.
    9000007    1    1    2  501    0 -0.13441100958E+03 -0.24012924518E+03  0.10832646407E+02  0.48563949604E+03  0.40000000000E+03 0. -1.
   -9000007    1    1    2    0  502  0.13441100958E+03  0.24012924518E+03 -0.35327789483E+03  0.60044453938E+03  0.40000000000E+03 0. -1.
<mgrwt>
<rscale>  2 0.48551866E+03</rscale>
<asrwt>0</asrwt>
<pdfrwt beam="1">  1       21 0.57202983E-01 0.48551866E+03</pdfrwt>
<pdfrwt beam="2">  1       21 0.10988687E+00 0.48551866E+03</pdfrwt>
<totfact> 0.15904752E+03</totfact>
</mgrwt>
</event>
<event>
 4    1  0.4890517E-002  0.4897034E+03  0.7818608E-02  0.1016502E+00
         21   -1    0    0  503  502  0.00000000000E+00  0.00000000000E+00  0.11822686982E+04  0.11822686982E+04  0.00000000000E+00 0. -1.
         21   -1    0    0  501  503 -0.00000000000E+00 -0.00000000000E+00 -0.20312685269E+03  0.20312685269E+03  0.00000000000E+00 0. -1.
    9000007    1    1    2  501    0 -0.28194496753E+03 -0.17789509506E+02  0.46346521554E+03  0.67424731173E+03  0.40000000000E+03 0. -1.
   -9000007    1    1    2    0  502  0.28194496753E+03  0.17789509506E+02  0.51567662999E+03  0.71114823918E+03  0.40000000000E+03 0. -1.
<mgrwt>
<rscale>  2 0.48970341E+03</rscale>
<asrwt>0</asrwt>
<pdfrwt beam="1">  1       21 0.18188749E+00 0.48970341E+03</pdfrwt>
<pdfrwt beam="2">  1       21 0.31250286E-01 0.48970341E+03</pdfrwt>
<totfact> 0.14446021E+03</totfact>
</mgrwt>
</event>
<event>
 4    1  0.4890517E-002  0.4063869E+03  0.7818608E-02  0.1041590E+00
         21   -1    0    0  501  502  0.00000000000E+00  0.00000000000E+00  0.52066201821E+03  0.52066201821E+03  0.00000000000E+00 0. -1.
         21   -1    0    0  502  503 -0.00000000000E+00 -0.00000000000E+00 -0.59043201784E+03  0.59043201784E+03  0.00000000000E+00 0. -1.
    9000007    1    1    2  501    0 -0.60217092956E+02  0.39041266171E+02  0.34304143659E+03  0.53181551874E+03  0.40000000000E+03 0. -1.
   -9000007    1    1    2    0  503  0.60217092956E+02 -0.39041266171E+02 -0.41281143622E+03  0.57927851732E+03  0.40000000000E+03 0. -1.
<mgrwt>
<rscale>  2 0.40638691E+03</rscale>
<asrwt>0</asrwt>
<pdfrwt beam="1">  1       21 0.80101849E-01 0.40638691E+03</pdfrwt>
<pdfrwt beam="2">  1       21 0.90835695E-01 0.40638691E+03</pdfrwt>
<totfact> 0.12266115E+03</totfact>
</mgrwt>
</event>
<event>
 4    1  0.4890517E-002  0.4049287E+03  0.7818608E-02  0.1042086E+00
         21   -1    0    0  503  502  0.00000000000E+00  0.00000000000E+00  0.10306135556E+04  0.10306135556E+04  0.00000000000E+00 0. -1.
         21   -1    0    0  501  503 -0.00000000000E+00 -0.00000000000E+00 -0.17640927119E+03  0.17640927119E+03  0.00000000000E+00 0. -1.
    9000007    1    1    2  501    0  0.52217775972E+02 -0.35221227954E+02  0.23803964753E+03  0.46971278971E+03  0.40000000000E+03 0. -1.
   -9000007    1    1    2    0  502 -0.52217775972E+02  0.35221227954E+02  0.61616463685E+03  0.73731003705E+03  0.40000000000E+03 0. -1.
<mgrwt>
<rscale>  2 0.40492867E+03</rscale>
<asrwt>0</asrwt>
<pdfrwt beam="1">  1       21 0.15855593E+00 0.40492867E+03</pdfrwt>
<pdfrwt beam="2">  1       21 0.27139888E-01 0.40492867E+03</pdfrwt>
<totfact> 0.29246654E+03</totfact>
</mgrwt>
</event>
<event>
 4    1  0.4890517E-002  0.4152036E+03  0.7818608E-02  0.1038639E+00
         21   -1    0    0  503  502  0.00000000000E+00  0.00000000000E+00  0.40241470715E+03  0.40241470715E+03  0.00000000000E+00 0.  1.
         21   -1    0    0  501  503 -0.00000000000E+00 -0.00000000000E+00 -0.47695892117E+03  0.47695892117E+03  0.00000000000E+00 0.  1.
    9000007    1    1    2  501    0 -0.74556201312E+02  0.82676265264E+02 -0.17756726256E+03  0.45157958847E+03  0.40000000000E+03 0.  1.
   -9000007    1    1    2    0  502  0.74556201312E+02 -0.82676265264E+02  0.10302304854E+03  0.42779403984E+03  0.40000000000E+03 0.  1.
<mgrwt>
<rscale>  2 0.41520355E+03</rscale>
<asrwt>0</asrwt>
<pdfrwt beam="1">  1       21 0.61909955E-01 0.41520355E+03</pdfrwt>
<pdfrwt beam="2">  1       21 0.73378295E-01 0.41520355E+03</pdfrwt>
<totfact> 0.35774338E+03</totfact>
</mgrwt>
</event>
<event>
 4    1  0.4890517E-002  0.4593497E+03  0.7818608E-02  0.1024970E+00
         21   -1    0    0  503  502  0.00000000000E+00  0.00000000000E+00  0.66658225891E+03  0.66658225891E+03  0.00000000000E+00 0. -1.
         21   -1    0    0  501  503 -0.00000000000E+00 -0.00000000000E+00 -0.10870998115E+04  0.10870998115E+04  0.00000000000E+00 0. -1.
    9000007    1    1    2  501    0  0.13804198795E+03  0.17873604394E+03 -0.94848317808E+03  0.10538607607E+04  0.40000000000E+03 0. -1.
   -9000007    1    1    2    0  502 -0.13804198795E+03 -0.17873604394E+03  0.52796562549E+03  0.69982130972E+03  0.40000000000E+03 0. -1.
<mgrwt>
<rscale>  2 0.45934972E+03</rscale>
<asrwt>0</asrwt>
<pdfrwt beam="1">  1       21 0.10255112E+00 0.45934972E+03</pdfrwt>
<pdfrwt beam="2">  1       21 0.16724613E+00 0.45934972E+03</pdfrwt>
<totfact> 0.13857953E+02</totfact>
</mgrwt>
</event>
<event>
 4    1  0.4890517E-002  0.4332305E+03  0.7818608E-02  0.1032844E+00
         21   -1    0    0  503  502  0.00000000000E+00  0.00000000000E+00  0.48872089410E+03  0.48872089410E+03  0.00000000000E+00 0. -1.
         21   -1    0    0  501  503 -0.00000000000E+00 -0.00000000000E+00 -0.60658577050E+03  0.60658577050E+03  0.00000000000E+00 0.  1.
    9000007    1    1    2  501    0  0.40605743561E+02  0.16136854525E+03 -0.39065023752E+03  0.58334915949E+03  0.40000000000E+03 0.  1.
   -9000007    1    1    2    0  502 -0.40605743561E+02 -0.16136854525E+03  0.27278536111E+03  0.51195750511E+03  0.40000000000E+03 0. -1.
<mgrwt>
<rscale>  2 0.43323046E+03</rscale>
<asrwt>0</asrwt>
<pdfrwt beam="1">  1       21 0.75187829E-01 0.43323046E+03</pdfrwt>
<pdfrwt beam="2">  1       21 0.93320888E-01 0.43323046E+03</pdfrwt>
<totfact> 0.13149117E+03</totfact>
</mgrwt>
</event>
<event>
 4    1  0.4890517E-002  0.4159659E+03  0.7818608E-02  0.1038387E+00
         21   -1    0    0  503  502  0.00000000000E+00  0.00000000000E+00  0.47979750808E+03  0.47979750808E+03  0.00000000000E+00 0. -1.
         21   -1    0    0  501  503 -0.00000000000E+00 -0.00000000000E+00 -0.43063662642E+03  0.43063662642E+03  0.00000000000E+00 0. -1.
    9000007    1    1    2  501    0 -0.51489147099E+02 -0.10186492819E+03 -0.15896522461E+03  0.44530611774E+03  0.40000000000E+03 0. -1.
   -9000007    1    1    2    0  502  0.51489147099E+02  0.10186492819E+03  0.20812610627E+03  0.46512801676E+03  0.40000000000E+03 0. -1.
<mgrwt>
<rscale>  2 0.41596586E+03</rscale>
<asrwt>0</asrwt>
<pdfrwt beam="1">  1       21 0.73815001E-01 0.41596586E+03</pdfrwt>
<pdfrwt beam="2">  1       21 0.66251789E-01 0.41596586E+03</pdfrwt>
<totfact> 0.30371744E+03</totfact>
</mgrwt>
</event>
<event>
 4    1  0.4890517E-002  0.4161902E+03  0.7818608E-02  0.1038313E+00
         21   -1    0    0  503  502  0.00000000000E+00  0.00000000000E+00  0.43997357356E+03  0.43997357356E+03  0.00000000000E+00 0. -1.
         21   -1    0    0  501  503 -0.00000000000E+00 -0.00000000000E+00 -0.39370718798E+03  0.39370718798E+03  0.00000000000E+00 0. -1.
    9000007    1    1    2  501    0  0.85797922189E+02 -0.76504763816E+02  0.20580515899E+02  0.41669871607E+03  0.40000000000E+03 0. -1.
   -9000007    1    1    2    0  502 -0.85797922189E+02  0.76504763816E+02  0.25685869681E+02  0.41698204546E+03  0.40000000000E+03 0. -1.
<mgrwt>
<rscale>  2 0.41619018E+03</rscale>
<asrwt>0</asrwt>
<pdfrwt beam="1">  1       21 0.67688242E-01 0.41619018E+03</pdfrwt>
<pdfrwt beam="2">  1       21 0.60570337E-01 0.41619018E+03</pdfrwt>
<totfact> 0.44995605E+03</totfact>
</mgrwt>
</event>
<event>
 4    1  0.4890517E-002  0.4294475E+03  0.7818608E-02  0.1034035E+00
         21   -1    0    0  503  502  0.00000000000E+00  0.00000000000E+00  0.16447623753E+04  0.16447623753E+04  0.00000000000E+00 0. -1.
         21   -1    0    0  501  503 -0.00000000000E+00 -0.00000000000E+00 -0.11597642042E+03  0.11597642042E+03  0.00000000000E+00 0. -1.
    9000007    1    1    2  501    0 -0.40832981041E+02 -0.15085697338E+03  0.92474656898E+03  0.10195986346E+04  0.40000000000E+03 0.  1.
   -9000007    1    1    2    0  502  0.40832981041E+02  0.15085697338E+03  0.60403938589E+03  0.74114016114E+03  0.40000000000E+03 0.  1.
<mgrwt>
<rscale>  2 0.42944750E+03</rscale>
<asrwt>0</asrwt>
<pdfrwt beam="1">  1       21 0.25304035E+00 0.42944750E+03</pdfrwt>
<pdfrwt beam="2">  1       21 0.17842527E-01 0.42944750E+03</pdfrwt>
<totfact> 0.15209402E+03</totfact>
</mgrwt>
</event>
<event>
 4    1  0.4890517E-002  0.4730125E+03  0.7818608E-02  0.1021073E+00
         21   -1    0    0  501  502  0.00000000000E+00  0.00000000000E+00  0.42412353408E+03  0.42412353408E+03  0.00000000000E+00 0. -1.
         21   -1    0    0  502  503 -0.00000000000E+00 -0.00000000000E+00 -0.78293477231E+03  0.78293477231E+03  0.00000000000E+00 0. -1.
    9000007    1    1    2  501    0 -0.20135087073E+03 -0.15231095433E+03  0.16529663933E+03  0.50106264970E+03  0.40000000000E+03 0. -1.
   -9000007    1    1    2    0  503  0.20135087073E+03  0.15231095433E+03 -0.52410787755E+03  0.70599565669E+03  0.40000000000E+03 0. -1.
<mgrwt>
<rscale>  2 0.47301247E+03</rscale>
<asrwt>0</asrwt>
<pdfrwt beam="1">  1       21 0.65249775E-01 0.47301247E+03</pdfrwt>
<pdfrwt beam="2">  1       21 0.12045150E+00 0.47301247E+03</pdfrwt>
<totfact> 0.94983830E+02</totfact>
</mgrwt>
</event>
<event>
 4    1  0.4890517E-002  0.4529425E+03  0.7818608E-02  0.1026848E+00
         21   -1    0    0  501  502  0.00000000000E+00  0.00000000000E+00  0.44953875208E+03  0.44953875208E+03  0.00000000000E+00 0. -1.
         21   -1    0    0  502  503 -0.00000000000E+00 -0.00000000000E+00 -0.90339834495E+03  0.90339834495E+03  0.00000000000E+00 0. -1.
    9000007    1    1    2  501    0 -0.69085375451E+02 -0.20095789417E+03  0.24892512063E+03  0.51683709233E+03  0.40000000000E+03 0. -1.
   -9000007    1    1    2    0  503  0.69085375451E+02  0.20095789417E+03 -0.70278471350E+03  0.83610000470E+03  0.40000000000E+03 0. -1.
<mgrwt>
<rscale>  2 0.45294245E+03</rscale>
<asrwt>0</asrwt>
<pdfrwt beam="1">  1       21 0.69159809E-01 0.45294245E+03</pdfrwt>
<pdfrwt beam="2">  1       21 0.13898436E+00 0.45294245E+03</pdfrwt>
<totfact> 0.57999646E+02</totfact>
</mgrwt>
</event>
<event>
 4    1  0.4890517E-002  0.4683258E+03  0.7818608E-02  0.1022394E+00
         21   -1    0    0  501  502  0.00000000000E+00  0.00000000000E+00  0.24818775336E+03  0.24818775336E+03  0.00000000000E+00 0.  1.
         21   -1    0    0  502  503 -0.00000000000E+00 -0.00000000000E+00 -0.11904900525E+04  0.11904900525E+04  0.00000000000E+00 0. -1.
    9000007    1    1    2  501    0 -0.38389608940E+00 -0.24357531042E+03 -0.83630462471E+03  0.95850639253E+03  0.40000000000E+03 0. -1.
   -9000007    1    1    2    0  503  0.38389608940E+00  0.24357531042E+03 -0.10599767447E+03  0.48017141337E+03  0.40000000000E+03 0.  1.
<mgrwt>
<rscale>  2 0.46832583E+03</rscale>
<asrwt>0</asrwt>
<pdfrwt beam="1">  1       21 0.38182731E-01 0.46832583E+03</pdfrwt>
<pdfrwt beam="2">  1       21 0.18315232E+00 0.46832583E+03</pdfrwt>
<totfact> 0.95211058E+02</totfact>
</mgrwt>
</event>
<event>
 4    1  0.4890517E-002  0.4883600E+03  0.7818608E-02  0.1016863E+00
         21   -1    0    0  501  502  0.00000000000E+00  0.00000000000E+00  0.37990517942E+03  0.37990517942E+03  0.00000000000E+00 0. -1.
         21   -1    0    0  502  503 -0.00000000000E+00 -0.00000000000E+00 -0.65731464088E+03  0.65731464088E+03  0.00000000000E+00 0.  1.
    9000007    1    1    2  501    0 -0.20442566556E+03 -0.19158706155E+03 -0.28766825148E+02  0.48920648516E+03  0.40000000000E+03 0. -1.
   -9000007    1    1    2    0  503  0.20442566556E+03  0.19158706155E+03 -0.24864263631E+03  0.54801333514E+03  0.40000000000E+03 0.  1.
<mgrwt>
<rscale>  2 0.48835996E+03</rscale>
<asrwt>0</asrwt>
<pdfrwt beam="1">  1       21 0.58446951E-01 0.48835996E+03</pdfrwt>
<pdfrwt beam="2">  1       21 0.10112533E+00 0.48835996E+03</pdfrwt>
<totfact> 0.18610174E+03</totfact>
</mgrwt>
</event>
<event>
 4    1  0.4890517E-002  0.8378284E+03  0.7818608E-02  0.9506820E-01
         21   -1    0    0  501  502  0.00000000000E+00  0.00000000000E+00  0.11998289101E+04  0.11998289101E+04  0.00000000000E+00 0. -1.
         21   -1    0    0  502  503 -0.00000000000E+00 -0.00000000000E+00 -0.72173858546E+03  0.72173858546E+03  0.00000000000E+00 0.  1.
    9000007    1    1    2  501    0 -0.73471565000E+03  0.46360786353E+02 -0.17908012941E+03  0.85675323263E+03  0.40000000000E+03 0. -1.
   -9000007    1    1    2    0  503  0.73471565000E+03 -0.46360786353E+02  0.65717045407E+03  0.10648142629E+04  0.40000000000E+03 0.  1.
<mgrwt>
<rscale>  2 0.83782839E+03</rscale>
<asrwt>0</asrwt>
<pdfrwt beam="1">  1       21 0.18458906E+00 0.83782839E+03</pdfrwt>
<pdfrwt beam="2">  1       21 0.11103671E+00 0.83782839E+03</pdfrwt>
<totfact> 0.73529554E+01</totfact>
</mgrwt>
</event>
<event>
 4    1  0.4890517E-002  0.4061124E+03  0.7818608E-02  0.1041683E+00
         21   -1    0    0  501  502  0.00000000000E+00  0.00000000000E+00  0.53667338239E+03  0.53667338239E+03  0.00000000000E+00 0. -1.
         21   -1    0    0  502  503 -0.00000000000E+00 -0.00000000000E+00 -0.36920243495E+03  0.36920243495E+03  0.00000000000E+00 0. -1.
    9000007    1    1    2  501    0 -0.42110400129E+02 -0.56160191591E+02 -0.10170779892E+03  0.41865466590E+03  0.40000000000E+03 0. -1.
   -9000007    1    1    2    0  503  0.42110400129E+02  0.56160191591E+02  0.26917874636E+03  0.48722115144E+03  0.40000000000E+03 0. -1.
<mgrwt>
<rscale>  2 0.40611236E+03</rscale>
<asrwt>0</asrwt>
<pdfrwt beam="1">  1       21 0.82565135E-01 0.40611236E+03</pdfrwt>
<pdfrwt beam="2">  1       21 0.56800375E-01 0.40611236E+03</pdfrwt>
<totfact> 0.33058343E+03</totfact>
</mgrwt>
</event>
<event>
 4    1  0.4890517E-002  0.4302584E+03  0.7818608E-02  0.1033778E+00
         21   -1    0    0  501  502  0.00000000000E+00  0.00000000000E+00  0.13010829760E+04  0.13010829760E+04  0.00000000000E+00 0. -1.
         21   -1    0    0  502  503 -0.00000000000E+00 -0.00000000000E+00 -0.14300754942E+03  0.14300754942E+03  0.00000000000E+00 0.  1.
    9000007    1    1    2  501    0 -0.31025173164E+02  0.15543394988E+03  0.63042471387E+03  0.76325460627E+03  0.40000000000E+03 0. -1.
   -9000007    1    1    2    0  503  0.31025173164E+02 -0.15543394988E+03  0.52765071267E+03  0.68083591909E+03  0.40000000000E+03 0. -1.
<mgrwt>
<rscale>  2 0.43025838E+03</rscale>
<asrwt>0</asrwt>
<pdfrwt beam="1">  1       21 0.20016660E+00 0.43025838E+03</pdfrwt>
<pdfrwt beam="2">  1       21 0.22001162E-01 0.43025838E+03</pdfrwt>
<totfact> 0.22082478E+03</totfact>
</mgrwt>
</event>
<event>
 4    1  0.4890517E-002  0.9137574E+03  0.7818608E-02  0.9408546E-01
         21   -1    0    0  501  502  0.00000000000E+00  0.00000000000E+00  0.22074243321E+04  0.22074243321E+04  0.00000000000E+00 0.  1.
         21   -1    0    0  502  503 -0.00000000000E+00 -0.00000000000E+00 -0.63697770420E+03  0.63697770420E+03  0.00000000000E+00 0. -1.
    9000007    1    1    2  501    0 -0.56251831363E+03 -0.59877011125E+03  0.16916287988E+04  0.19226441408E+04  0.40000000000E+03 0.  1.
   -9000007    1    1    2    0  503  0.56251831363E+03  0.59877011125E+03 -0.12118217092E+03  0.92175789547E+03  0.40000000000E+03 0. -1.
<mgrwt>
<rscale>  2 0.91375735E+03</rscale>
<asrwt>0</asrwt>
<pdfrwt beam="1">  1       21 0.33960374E+00 0.91375735E+03</pdfrwt>
<pdfrwt beam="2">  1       21 0.97996571E-01 0.91375735E+03</pdfrwt>
<totfact> 0.99881016E+00</totfact>
</mgrwt>
</event>
<event>
 4    1  0.4890517E-002  0.4786317E+03  0.7818608E-02  0.1019512E+00
         21   -1    0    0  501  502  0.00000000000E+00  0.00000000000E+00  0.11959783628E+04  0.11959783628E+04  0.00000000000E+00 0. -1.
         21   -1    0    0  502  503 -0.00000000000E+00 -0.00000000000E+00 -0.62517943047E+03  0.62517943047E+03  0.00000000000E+00 0. -1.
    9000007    1    1    2  501    0  0.19044003336E+03  0.18116536838E+03  0.10437590587E+04  0.11482688142E+04  0.40000000000E+03 0. -1.
   -9000007    1    1    2    0  503 -0.19044003336E+03 -0.18116536838E+03 -0.47296012639E+03  0.67288897907E+03  0.40000000000E+03 0. -1.
<mgrwt>
<rscale>  2 0.47863169E+03</rscale>
<asrwt>0</asrwt>
<pdfrwt beam="1">  1       21 0.18399667E+00 0.47863169E+03</pdfrwt>
<pdfrwt beam="2">  1       21 0.96181451E-01 0.47863169E+03</pdfrwt>
<totfact> 0.12160489E+02</totfact>
</mgrwt>
</event>
<event>
 4    1  0.4890517E-002  0.4342832E+03  0.7818608E-02  0.1032515E+00
         21   -1    0    0  503  502  0.00000000000E+00  0.00000000000E+00  0.24675633986E+03  0.24675633986E+03  0.00000000000E+00 0. -1.
         21   -1    0    0  501  503 -0.00000000000E+00 -0.00000000000E+00 -0.76435091319E+03  0.76435091319E+03  0.00000000000E+00 0. -1.
    9000007    1    1    2  501    0 -0.39372044489E+02  0.16447409741E+03 -0.25581869335E+03  0.50402885877E+03  0.40000000000E+03 0.  1.
   -9000007    1    1    2    0  502  0.39372044489E+02 -0.16447409741E+03 -0.26177587998E+03  0.50707839428E+03  0.40000000000E+03 0.  1.
<mgrwt>
<rscale>  2 0.43428319E+03</rscale>
<asrwt>0</asrwt>
<pdfrwt beam="1">  1       21 0.37962513E-01 0.43428319E+03</pdfrwt>
<pdfrwt beam="2">  1       21 0.11759245E+00 0.43428319E+03</pdfrwt>
<totfact> 0.32469302E+03</totfact>
</mgrwt>
</event>
<event>
 4    1  0.4890517E-002  0.4723576E+03  0.7818608E-02  0.1021257E+00
         21   -1    0    0  501  502  0.00000000000E+00  0.00000000000E+00  0.25209273224E+03  0.25209273224E+03  0.00000000000E+00 0. -1.
         21   -1    0    0  502  503 -0.00000000000E+00 -0.00000000000E+00 -0.88543922112E+03  0.88543922112E+03  0.00000000000E+00 0.  1.
    9000007    1    1    2  501    0  0.24317528272E+03  0.63146877540E+02 -0.30518628709E+03  0.56237035493E+03  0.40000000000E+03 0.  1.
   -9000007    1    1    2    0  503 -0.24317528272E+03 -0.63146877540E+02 -0.32816020179E+03  0.57516159843E+03  0.40000000000E+03 0.  1.
<mgrwt>
<rscale>  2 0.47235765E+03</rscale>
<asrwt>0</asrwt>
<pdfrwt beam="1">  1       21 0.38783497E-01 0.47235765E+03</pdfrwt>
<pdfrwt beam="2">  1       21 0.13622142E+00 0.47235765E+03</pdfrwt>
<totfact> 0.20971610E+03</totfact>
</mgrwt>
</event>
<event>
 4    1  0.4890517E-002  0.4087750E+03  0.7818608E-02  0.1040783E+00
         21   -1    0    0  501  502  0.00000000000E+00  0.00000000000E+00  0.19184175445E+04  0.19184175445E+04  0.00000000000E+00 0.  1.
         21   -1    0    0  502  503 -0.00000000000E+00 -0.00000000000E+00 -0.11106346321E+03  0.11106346321E+03  0.00000000000E+00 0.  1.
    9000007    1    1    2  501    0 -0.25411328843E+02 -0.80319570704E+02  0.13750134084E+04  0.14344890527E+04  0.40000000000E+03 0.  1.
   -9000007    1    1    2    0  503  0.25411328843E+02  0.80319570704E+02  0.43234067284E+03  0.59499195495E+03  0.40000000000E+03 0.  1.
<mgrwt>
<rscale>  2 0.40877496E+03</rscale>
<asrwt>0</asrwt>
<pdfrwt beam="1">  1       21 0.29514114E+00 0.40877496E+03</pdfrwt>
<pdfrwt beam="2">  1       21 0.17086688E-01 0.40877496E+03</pdfrwt>
<totfact> 0.92972653E+02</totfact>
</mgrwt>
</event>
<event>
 4    1  0.4890517E-002  0.4211032E+03  0.7818608E-02  0.1036708E+00
         21   -1    0    0  501  502  0.00000000000E+00  0.00000000000E+00  0.29240381408E+03  0.29240381408E+03  0.00000000000E+00 0. -1.
         21   -1    0    0  502  503 -0.00000000000E+00 -0.00000000000E+00 -0.72010694478E+03  0.72010694478E+03  0.00000000000E+00 0. -1.
    9000007    1    1    2  501    0 -0.25646822743E+02 -0.12911290396E+03 -0.12723952713E+02  0.42129538386E+03  0.40000000000E+03 0. -1.
   -9000007    1    1    2    0  503  0.25646822743E+02  0.12911290396E+03 -0.41497917798E+03  0.59121537501E+03  0.40000000000E+03 0. -1.
<mgrwt>
<rscale>  2 0.42110320E+03</rscale>
<asrwt>0</asrwt>
<pdfrwt beam="1">  1       21 0.44985202E-01 0.42110320E+03</pdfrwt>
<pdfrwt beam="2">  1       21 0.11078568E+00 0.42110320E+03</pdfrwt>
<totfact> 0.26658417E+03</totfact>
</mgrwt>
</event>
<event>
 4    1  0.4890517E-002  0.4362188E+03  0.7818608E-02  0.1031913E+00
         21   -1    0    0  503  502  0.00000000000E+00  0.00000000000E+00  0.14199474660E+03  0.14199474660E+03  0.00000000000E+00 0. -1.
         21   -1    0    0  501  503 -0.00000000000E+00 -0.00000000000E+00 -0.13452966805E+04  0.13452966805E+04  0.00000000000E+00 0.  1.
    9000007    1    1    2  501    0  0.24420535964E+01 -0.17401395436E+03 -0.64788056071E+03  0.78104804007E+03  0.40000000000E+03 0.  1.
   -9000007    1    1    2    0  502 -0.24420535964E+01  0.17401395436E+03 -0.55542137319E+03  0.70624338703E+03  0.40000000000E+03 0.  1.
<mgrwt>
<rscale>  2 0.43621878E+03</rscale>
<asrwt>0</asrwt>
<pdfrwt beam="1">  1       21 0.21845345E-01 0.43621878E+03</pdfrwt>
<pdfrwt beam="2">  1       21 0.20696872E+00 0.43621878E+03</pdfrwt>
<totfact> 0.20133770E+03</totfact>
</mgrwt>
</event>
<event>
 4    1  0.4890517E-002  0.5373096E+03  0.7818608E-02  0.1004475E+00
         21   -1    0    0  501  502  0.00000000000E+00  0.00000000000E+00  0.33605215343E+03  0.33605215343E+03  0.00000000000E+00 0.  1.
         21   -1    0    0  502  503 -0.00000000000E+00 -0.00000000000E+00 -0.13059339483E+04  0.13059339483E+04  0.00000000000E+00 0. -1.
    9000007    1    1    2  501    0  0.34748725418E+03 -0.89186460222E+02 -0.96517510956E+03  0.11046558779E+04  0.40000000000E+03 0. -1.
   -9000007    1    1    2    0  503 -0.34748725418E+03  0.89186460222E+02 -0.47066852845E+01  0.53733022378E+03  0.40000000000E+03 0.  1.
<mgrwt>
<rscale>  2 0.53730961E+03</rscale>
<asrwt>0</asrwt>
<pdfrwt beam="1">  1       21 0.51700331E-01 0.53730961E+03</pdfrwt>
<pdfrwt beam="2">  1       21 0.20091292E+00 0.53730961E+03</pdfrwt>
<totfact> 0.37031273E+02</totfact>
</mgrwt>
</event>
<event>
 4    1  0.4890517E-002  0.5147674E+03  0.7818608E-02  0.1009995E+00
         21   -1    0    0  503  502  0.00000000000E+00  0.00000000000E+00  0.32638662067E+03  0.32638662067E+03  0.00000000000E+00 0. -1.
         21   -1    0    0  501  503 -0.00000000000E+00 -0.00000000000E+00 -0.91586762143E+03  0.91586762143E+03  0.00000000000E+00 0. -1.
    9000007    1    1    2  501    0  0.29127949752E+03  0.14192163036E+03 -0.50403755553E+03  0.72044385779E+03  0.40000000000E+03 0. -1.
   -9000007    1    1    2    0  502 -0.29127949752E+03 -0.14192163036E+03 -0.85443445230E+02  0.52181038431E+03  0.40000000000E+03 0. -1.
<mgrwt>
<rscale>  2 0.51476742E+03</rscale>
<asrwt>0</asrwt>
<pdfrwt beam="1">  1       21 0.50213326E-01 0.51476742E+03</pdfrwt>
<pdfrwt beam="2">  1       21 0.14090271E+00 0.51476742E+03</pdfrwt>
<totfact> 0.10990753E+03</totfact>
</mgrwt>
</event>
<event>
 4    1  0.4890517E-002  0.5169104E+03  0.7818608E-02  0.1009457E+00
         21   -1    0    0  501  502  0.00000000000E+00  0.00000000000E+00  0.14434102819E+04  0.14434102819E+04  0.00000000000E+00 0.  1.
         21   -1    0    0  502  503 -0.00000000000E+00 -0.00000000000E+00 -0.22529844784E+03  0.22529844784E+03  0.00000000000E+00 0.  1.
    9000007    1    1    2  501    0  0.20757676436E+03 -0.25319602292E+03  0.96142445116E+03  0.10915737787E+04  0.40000000000E+03 0.  1.
   -9000007    1    1    2    0  503 -0.20757676436E+03  0.25319602292E+03  0.25668738287E+03  0.57713495099E+03  0.40000000000E+03 0.  1.
<mgrwt>
<rscale>  2 0.51691038E+03</rscale>
<asrwt>0</asrwt>
<pdfrwt beam="1">  1       21 0.22206311E+00 0.51691038E+03</pdfrwt>
<pdfrwt beam="2">  1       21 0.34661301E-01 0.51691038E+03</pdfrwt>
<totfact> 0.62481409E+02</totfact>
</mgrwt>
</event>
<event>
 4    1  0.4890517E-002  0.4458534E+03  0.7818608E-02  0.1028966E+00
         21   -1    0    0  501  502  0.00000000000E+00  0.00000000000E+00  0.31603107483E+03  0.31603107483E+03  0.00000000000E+00 0.  1.
         21   -1    0    0  502  503 -0.00000000000E+00 -0.00000000000E+00 -0.12418185652E+04  0.12418185652E+04  0.00000000000E+00 0.  1.
    9000007    1    1    2  501    0 -0.18964062352E+03  0.53119764895E+02  0.84286596433E+02  0.45375048854E+03  0.40000000000E+03 0.  1.
   -9000007    1    1    2    0  503  0.18964062352E+03 -0.53119764895E+02 -0.10100740868E+04  0.11040991515E+04  0.40000000000E+03 0.  1.
<mgrwt>
<rscale>  2 0.44585342E+03</rscale>
<asrwt>0</asrwt>
<pdfrwt beam="1">  1       21 0.48620166E-01 0.44585342E+03</pdfrwt>
<pdfrwt beam="2">  1       21 0.19104901E+00 0.44585342E+03</pdfrwt>
<totfact> 0.51300413E+02</totfact>
</mgrwt>
</event>
<event>
 4    1  0.4890517E-002  0.6318871E+03  0.7818608E-02  0.9841373E-01
         21   -1    0    0  503  502  0.00000000000E+00  0.00000000000E+00  0.11589907924E+04  0.11589907924E+04  0.00000000000E+00 0.  1.
         21   -1    0    0  501  503 -0.00000000000E+00 -0.00000000000E+00 -0.60032938291E+03  0.60032938291E+03  0.00000000000E+00 0. -1.
    9000007    1    1    2  501    0 -0.48048908409E+03 -0.91714709838E+02 -0.29490301727E+03  0.69731566563E+03  0.40000000000E+03 0. -1.
   -9000007    1    1    2    0  502  0.48048908409E+03  0.91714709838E+02  0.85356442674E+03  0.10620045097E+04  0.40000000000E+03 0.  1.
<mgrwt>
<rscale>  2 0.63188713E+03</rscale>
<asrwt>0</asrwt>
<pdfrwt beam="1">  1       21 0.17830628E+00 0.63188713E+03</pdfrwt>
<pdfrwt beam="2">  1       21 0.92358367E-01 0.63188713E+03</pdfrwt>
<totfact> 0.13750948E+02</totfact>
</mgrwt>
</event>
<event>
 4    1  0.4890517E-002  0.4049439E+03  0.7818608E-02  0.1042081E+00
         21   -1    0    0  503  502  0.00000000000E+00  0.00000000000E+00  0.17879420851E+04  0.17879420851E+04  0.00000000000E+00 0. -1.
         21   -1    0    0  501  503 -0.00000000000E+00 -0.00000000000E+00 -0.11036577715E+03  0.11036577715E+03  0.00000000000E+00 0. -1.
    9000007    1    1    2  501    0  0.48240726062E+02 -0.40649485038E+02  0.44859642165E+03  0.60433293622E+03  0.40000000000E+03 0. -1.
   -9000007    1    1    2    0  502 -0.48240726062E+02  0.40649485038E+02  0.12289798863E+04  0.12939749260E+04  0.40000000000E+03 0. -1.
<mgrwt>
<rscale>  2 0.40494388E+03</rscale>
<asrwt>0</asrwt>
<pdfrwt beam="1">  1       21 0.27506799E+00 0.40494388E+03</pdfrwt>
<pdfrwt beam="2">  1       21 0.16979352E-01 0.40494388E+03</pdfrwt>
<totfact> 0.12439171E+03</totfact>
</mgrwt>
</event>
<event>
 4    1  0.4890517E-002  0.4109921E+03  0.7818608E-02  0.1040039E+00
         21   -1    0    0  503  502  0.00000000000E+00  0.00000000000E+00  0.86409495944E+03  0.86409495944E+03  0.00000000000E+00 0. -1.
         21   -1    0    0  501  503 -0.00000000000E+00 -0.00000000000E+00 -0.25773697638E+03  0.25773697638E+03  0.00000000000E+00 0. -1.
    9000007    1    1    2  501    0 -0.47216003003E+02 -0.81762584194E+02  0.27503184939E+02  0.41191127236E+03  0.40000000000E+03 0. -1.
   -9000007    1    1    2    0  502  0.47216003003E+02  0.81762584194E+02  0.57885479812E+03  0.70992066347E+03  0.40000000000E+03 0. -1.
<mgrwt>
<rscale>  2 0.41099206E+03</rscale>
<asrwt>0</asrwt>
<pdfrwt beam="1">  1       21 0.13293769E+00 0.41099206E+03</pdfrwt>
<pdfrwt beam="2">  1       21 0.39651843E-01 0.41099206E+03</pdfrwt>
<totfact> 0.21881180E+03</totfact>
</mgrwt>
</event>
<event>
 4    1  0.4890517E-002  0.4183135E+03  0.7818608E-02  0.1037617E+00
         21   -1    0    0  501  502  0.00000000000E+00  0.00000000000E+00  0.24667227538E+03  0.24667227538E+03  0.00000000000E+00 0. -1.
         21   -1    0    0  502  503 -0.00000000000E+00 -0.00000000000E+00 -0.95193460801E+03  0.95193460801E+03  0.00000000000E+00 0. -1.
    9000007    1    1    2  501    0 -0.93928294625E+02 -0.78509086770E+02 -0.50120032065E+02  0.42130537482E+03  0.40000000000E+03 0. -1.
   -9000007    1    1    2    0  503  0.93928294625E+02  0.78509086770E+02 -0.65514230056E+03  0.77730150857E+03  0.40000000000E+03 0. -1.
<mgrwt>
<rscale>  2 0.41831352E+03</rscale>
<asrwt>0</asrwt>
<pdfrwt beam="1">  1       21 0.37949581E-01 0.41831352E+03</pdfrwt>
<pdfrwt beam="2">  1       21 0.14645148E+00 0.41831352E+03</pdfrwt>
<totfact> 0.18467565E+03</totfact>
</mgrwt>
</event>
<event>
 4    1  0.4890517E-002  0.4729575E+03  0.7818608E-02  0.1021089E+00
         21   -1    0    0  503  502  0.00000000000E+00  0.00000000000E+00  0.20426813766E+03  0.20426813766E+03  0.00000000000E+00 0. -1.
         21   -1    0    0  501  503 -0.00000000000E+00 -0.00000000000E+00 -0.16230386078E+04  0.16230386078E+04  0.00000000000E+00 0. -1.
    9000007    1    1    2  501    0 -0.15899147098E+03 -0.19598598892E+03 -0.12304831106E+04  0.13182478830E+04  0.40000000000E+03 0. -1.
   -9000007    1    1    2    0  502  0.15899147098E+03  0.19598598892E+03 -0.18828735963E+03  0.50905886250E+03  0.40000000000E+03 0. -1.
<mgrwt>
<rscale>  2 0.47295750E+03</rscale>
<asrwt>0</asrwt>
<pdfrwt beam="1">  1       21 0.31425867E-01 0.47295750E+03</pdfrwt>
<pdfrwt beam="2">  1       21 0.24969825E+00 0.47295750E+03</pdfrwt>
<totfact> 0.52109328E+02</totfact>
</mgrwt>
</event>
<event>
 4    1  0.4890517E-002  0.4252548E+03  0.7818608E-02  0.1035370E+00
         21   -1    0    0  501  502  0.00000000000E+00  0.00000000000E+00  0.22935534443E+04  0.22935534443E+04  0.00000000000E+00 0. -1.
         21   -1    0    0  502  503 -0.00000000000E+00 -0.00000000000E+00 -0.25485312559E+03  0.25485312559E+03  0.00000000000E+00 0. -1.
    9000007    1    1    2  501    0  0.14210417585E+03 -0.25456422571E+02  0.20782543130E+04  0.21213162461E+04  0.40000000000E+03 0. -1.
   -9000007    1    1    2    0  503 -0.14210417585E+03  0.25456422571E+02 -0.39553994294E+02  0.42709032383E+03  0.40000000000E+03 0. -1.
<mgrwt>
<rscale>  2 0.42525478E+03</rscale>
<asrwt>0</asrwt>
<pdfrwt beam="1">  1       21 0.35285436E+00 0.42525478E+03</pdfrwt>
<pdfrwt beam="2">  1       21 0.39208175E-01 0.42525478E+03</pdfrwt>
<totfact> 0.81336610E+01</totfact>
</mgrwt>
</event>
<event>
 4    1  0.4890517E-002  0.4147667E+03  0.7818608E-02  0.1038783E+00
         21   -1    0    0  501  502  0.00000000000E+00  0.00000000000E+00  0.12928068944E+04  0.12928068944E+04  0.00000000000E+00 0.  1.
         21   -1    0    0  502  503 -0.00000000000E+00 -0.00000000000E+00 -0.15136530726E+03  0.15136530726E+03  0.00000000000E+00 0.  1.
    9000007    1    1    2  501    0  0.48634349244E+02 -0.98316275760E+02  0.82177523784E+03  0.92051394967E+03  0.40000000000E+03 0.  1.
   -9000007    1    1    2    0  503 -0.48634349244E+02  0.98316275760E+02  0.31966634933E+03  0.52365825201E+03  0.40000000000E+03 0.  1.
<mgrwt>
<rscale>  2 0.41476667E+03</rscale>
<asrwt>0</asrwt>
<pdfrwt beam="1">  1       21 0.19889336E+00 0.41476667E+03</pdfrwt>
<pdfrwt beam="2">  1       21 0.23286971E-01 0.41476667E+03</pdfrwt>
<totfact> 0.20327917E+03</totfact>
</mgrwt>
</event>
<event>
 4    1  0.4890517E-002  0.4516528E+03  0.7818608E-02  0.1027230E+00
         21   -1    0    0  503  502  0.00000000000E+00  0.00000000000E+00  0.11539760700E+04  0.11539760700E+04  0.00000000000E+00 0.  1.
         21   -1    0    0  501  503 -0.00000000000E+00 -0.00000000000E+00 -0.17850437676E+03  0.17850437676E+03  0.00000000000E+00 0.  1.
    9000007    1    1    2  501    0 -0.16681228429E+03  0.12713726111E+03  0.42209487556E+03  0.61818630309E+03  0.40000000000E+03 0.  1.
   -9000007    1    1    2    0  502  0.16681228429E+03 -0.12713726111E+03  0.55337681770E+03  0.71429414369E+03  0.40000000000E+03 0.  1.
<mgrwt>
<rscale>  2 0.45165277E+03</rscale>
<asrwt>0</asrwt>
<pdfrwt beam="1">  1       21 0.17753478E+00 0.45165277E+03</pdfrwt>
<pdfrwt beam="2">  1       21 0.27462212E-01 0.45165277E+03</pdfrwt>
<totfact> 0.20347958E+03</totfact>
</mgrwt>
</event>
<event>
 4    1  0.4890517E-002  0.4770438E+03  0.7818608E-02  0.1019951E+00
         21   -1    0    0  501  502  0.00000000000E+00  0.00000000000E+00  0.27727422407E+03  0.27727422407E+03  0.00000000000E+00 0.  1.
         21   -1    0    0  502  503 -0.00000000000E+00 -0.00000000000E+00 -0.82080020826E+03  0.82080020826E+03  0.00000000000E+00 0.  1.
    9000007    1    1    2  501    0 -0.19135561688E+03  0.17593687015E+03 -0.26716143675E+03  0.54675953369E+03  0.40000000000E+03 0.  1.
   -9000007    1    1    2    0  503  0.19135561688E+03 -0.17593687015E+03 -0.27636454744E+03  0.55131489865E+03  0.40000000000E+03 0.  1.
<mgrwt>
<rscale>  2 0.47704377E+03</rscale>
<asrwt>0</asrwt>
<pdfrwt beam="1">  1       21 0.42657573E-01 0.47704377E+03</pdfrwt>
<pdfrwt beam="2">  1       21 0.12627695E+00 0.47704377E+03</pdfrwt>
<totfact> 0.20947260E+03</totfact>
</mgrwt>
</event>
<event>
 4    1  0.4890517E-002  0.4139053E+03  0.7818608E-02  0.1039068E+00
         21   -1    0    0  501  502  0.00000000000E+00  0.00000000000E+00  0.23241647556E+04  0.23241647556E+04  0.00000000000E+00 0. -1.
         21   -1    0    0  502  503 -0.00000000000E+00 -0.00000000000E+00 -0.10615829203E+03  0.10615829203E+03  0.00000000000E+00 0. -1.
    9000007    1    1    2  501    0  0.10163885932E+03 -0.31418830082E+02  0.43719838620E+03  0.60204653434E+03  0.40000000000E+03 0. -1.
   -9000007    1    1    2    0  503 -0.10163885932E+03  0.31418830082E+02  0.17808080773E+04  0.18282765132E+04  0.40000000000E+03 0. -1.
<mgrwt>
<rscale>  2 0.41390530E+03</rscale>
<asrwt>0</asrwt>
<pdfrwt beam="1">  1       21 0.35756377E+00 0.41390530E+03</pdfrwt>
<pdfrwt beam="2">  1       21 0.16332047E-01 0.41390530E+03</pdfrwt>
<totfact> 0.42311638E+02</totfact>
</mgrwt>
</event>
<event>
 4    1  0.4890517E-002  0.4692277E+03  0.7818608E-02  0.1022138E+00
         21   -1    0    0  501  502  0.00000000000E+00  0.00000000000E+00  0.52894235014E+03  0.52894235014E+03  0.00000000000E+00 0. -1.
         21   -1    0    0  502  503 -0.00000000000E+00 -0.00000000000E+00 -0.50956848864E+03  0.50956848864E+03  0.00000000000E+00 0. -1.
    9000007    1    1    2  501    0  0.24517006032E+03  0.81394087790E+01  0.23189163185E+03  0.52340074262E+03  0.40000000000E+03 0. -1.
   -9000007    1    1    2    0  503 -0.24517006032E+03 -0.81394087790E+01 -0.21251777035E+03  0.51511009616E+03  0.40000000000E+03 0. -1.
<mgrwt>
<rscale>  2 0.46922767E+03</rscale>
<asrwt>0</asrwt>
<pdfrwt beam="1">  1       21 0.81375747E-01 0.46922767E+03</pdfrwt>
<pdfrwt beam="2">  1       21 0.78395152E-01 0.46922767E+03</pdfrwt>
<totfact> 0.16260962E+03</totfact>
</mgrwt>
</event>
<event>
 4    1  0.4890517E-002  0.5208527E+03  0.7818608E-02  0.1008475E+00
         21   -1    0    0  503  502  0.00000000000E+00  0.00000000000E+00  0.43152104539E+03  0.43152104539E+03  0.00000000000E+00 0.  1.
         21   -1    0    0  501  503 -0.00000000000E+00 -0.00000000000E+00 -0.67249495533E+03  0.67249495533E+03  0.00000000000E+00 0.  1.
    9000007    1    1    2  501    0 -0.26448076473E+02  0.33254775342E+03 -0.26139154997E+03  0.58276328938E+03  0.40000000000E+03 0.  1.
   -9000007    1    1    2    0  502  0.26448076473E+02 -0.33254775342E+03  0.20417640024E+02  0.52125271134E+03  0.40000000000E+03 0.  1.
<mgrwt>
<rscale>  2 0.52085268E+03</rscale>
<asrwt>0</asrwt>
<pdfrwt beam="1">  1       21 0.66387854E-01 0.52085268E+03</pdfrwt>
<pdfrwt beam="2">  1       21 0.10346076E+00 0.52085268E+03</pdfrwt>
<totfact> 0.13127714E+03</totfact>
</mgrwt>
</event>
<event>
 4    1  0.4890517E-002  0.4410719E+03  0.7818608E-02  0.1030418E+00
         21   -1    0    0  503  502  0.00000000000E+00  0.00000000000E+00  0.22204553894E+03  0.22204553894E+03  0.00000000000E+00 0. -1.
         21   -1    0    0  501  503 -0.00000000000E+00 -0.00000000000E+00 -0.10881021542E+04  0.10881021542E+04  0.00000000000E+00 0.  1.
    9000007    1    1    2  501    0  0.18586125132E+03 -0.65659661357E-02 -0.14390839270E+03  0.46395477180E+03  0.40000000000E+03 0. -1.
   -9000007    1    1    2    0  502 -0.18586125132E+03  0.65659661357E-02 -0.72214822254E+03  0.84619292133E+03  0.40000000000E+03 0. -1.
<mgrwt>
<rscale>  2 0.44107188E+03</rscale>
<asrwt>0</asrwt>
<pdfrwt beam="1">  1       21 0.34160852E-01 0.44107188E+03</pdfrwt>
<pdfrwt beam="2">  1       21 0.16740033E+00 0.44107188E+03</pdfrwt>
<totfact> 0.15660103E+03</totfact>
</mgrwt>
</event>
<event>
 4    1  0.4890517E-002  0.4077362E+03  0.7818608E-02  0.1041133E+00
         21   -1    0    0  503  502  0.00000000000E+00  0.00000000000E+00  0.21502897215E+03  0.21502897215E+03  0.00000000000E+00 0.  1.
         21   -1    0    0  501  503 -0.00000000000E+00 -0.00000000000E+00 -0.11184290265E+04  0.11184290265E+04  0.00000000000E+00 0.  1.
    9000007    1    1    2  501    0 -0.16890718212E+02  0.77224030542E+02 -0.81247487240E+02  0.41575233185E+03  0.40000000000E+03 0.  1.
   -9000007    1    1    2    0  502  0.16890718212E+02 -0.77224030542E+02 -0.82215256710E+03  0.91770566678E+03  0.40000000000E+03 0.  1.
<mgrwt>
<rscale>  2 0.40773625E+03</rscale>
<asrwt>0</asrwt>
<pdfrwt beam="1">  1       21 0.33081381E-01 0.40773625E+03</pdfrwt>
<pdfrwt beam="2">  1       21 0.17206600E+00 0.40773625E+03</pdfrwt>
<totfact> 0.15680600E+03</totfact>
</mgrwt>
</event>
<event>
 4    1  0.4890517E-002  0.4440497E+03  0.7818608E-02  0.1029511E+00
         21   -1    0    0  501  502  0.00000000000E+00  0.00000000000E+00  0.27949873911E+03  0.27949873911E+03  0.00000000000E+00 0.  1.
         21   -1    0    0  502  503 -0.00000000000E+00 -0.00000000000E+00 -0.83145705127E+03  0.83145705127E+03  0.00000000000E+00 0.  1.
    9000007    1    1    2  501    0  0.18705424086E+03 -0.46806883715E+02 -0.59758952257E+02  0.44805279350E+03  0.40000000000E+03 0.  1.
   -9000007    1    1    2    0  503 -0.18705424086E+03  0.46806883715E+02 -0.49219935990E+03  0.66290299688E+03  0.40000000000E+03 0.  1.
<mgrwt>
<rscale>  2 0.44404974E+03</rscale>
<asrwt>0</asrwt>
<pdfrwt beam="1">  1       21 0.42999806E-01 0.44404974E+03</pdfrwt>
<pdfrwt beam="2">  1       21 0.12791647E+00 0.44404974E+03</pdfrwt>
<totfact> 0.20175908E+03</totfact>
</mgrwt>
</event>
<event>
 4    1  0.4890517E-002  0.4732502E+03  0.7818608E-02  0.1021007E+00
         21   -1    0    0  501  502  0.00000000000E+00  0.00000000000E+00  0.84795067595E+03  0.84795067595E+03  0.00000000000E+00 0. -1.
         21   -1    0    0  502  503 -0.00000000000E+00 -0.00000000000E+00 -0.29520595515E+03  0.29520595515E+03  0.00000000000E+00 0. -1.
    9000007    1    1    2  501    0  0.14930550814E+03 -0.20414114573E+03  0.46183396900E+03  0.66125362537E+03  0.40000000000E+03 0. -1.
   -9000007    1    1    2    0  503 -0.14930550814E+03  0.20414114573E+03  0.90910751792E+02  0.48190300573E+03  0.40000000000E+03 0. -1.
<mgrwt>
<rscale>  2 0.47325019E+03</rscale>
<asrwt>0</asrwt>
<pdfrwt beam="1">  1       21 0.13045395E+00 0.47325019E+03</pdfrwt>
<pdfrwt beam="2">  1       21 0.45416301E-01 0.47325019E+03</pdfrwt>
<totfact> 0.16912715E+03</totfact>
</mgrwt>
</event>
<event>
 4    1  0.4890517E-002  0.5282204E+03  0.7818608E-02  0.1006665E+00
         21   -1    0    0  503  502  0.00000000000E+00  0.00000000000E+00  0.12444722443E+04  0.12444722443E+04  0.00000000000E+00 0.  1.
         21   -1    0    0  501  503 -0.00000000000E+00 -0.00000000000E+00 -0.27569757229E+03  0.27569757229E+03  0.00000000000E+00 0. -1.
    9000007    1    1    2  501    0 -0.68694641715E+02  0.33807966050E+03  0.15590030069E+03  0.55074650648E+03  0.40000000000E+03 0. -1.
   -9000007    1    1    2    0  502  0.68694641715E+02 -0.33807966050E+03  0.81287437129E+03  0.96942331009E+03  0.40000000000E+03 0.  1.
<mgrwt>
<rscale>  2 0.52822042E+03</rscale>
<asrwt>0</asrwt>
<pdfrwt beam="1">  1       21 0.19145727E+00 0.52822042E+03</pdfrwt>
<pdfrwt beam="2">  1       21 0.42415012E-01 0.52822042E+03</pdfrwt>
<totfact> 0.65483793E+02</totfact>
</mgrwt>
</event>
<event>
 4    1  0.4890517E-002  0.4171967E+03  0.7818608E-02  0.1037983E+00
         21   -1    0    0  503  502  0.00000000000E+00  0.00000000000E+00  0.12352369055E+04  0.12352369055E+04  0.00000000000E+00 0. -1.
         21   -1    0    0  501  503 -0.00000000000E+00 -0.00000000000E+00 -0.14208702636E+03  0.14208702636E+03  0.00000000000E+00 0. -1.
    9000007    1    1    2  501    0 -0.68327663980E+02  0.96873130571E+02  0.48380636064E+03  0.63884400888E+03  0.40000000000E+03 0. -1.
   -9000007    1    1    2    0  502  0.68327663980E+02 -0.96873130571E+02  0.60934351848E+03  0.73847992295E+03  0.40000000000E+03 0. -1.
<mgrwt>
<rscale>  2 0.41719668E+03</rscale>
<asrwt>0</asrwt>
<pdfrwt beam="1">  1       21 0.19003644E+00 0.41719668E+03</pdfrwt>
<pdfrwt beam="2">  1       21 0.21859543E-01 0.41719668E+03</pdfrwt>
<totfact> 0.26313341E+03</totfact>
</mgrwt>
</event>
<event>
 4    1  0.4890517E-002  0.4413657E+03  0.7818608E-02  0.1030329E+00
         21   -1    0    0  503  502  0.00000000000E+00  0.00000000000E+00  0.22431962632E+03  0.22431962632E+03  0.00000000000E+00 0.  1.
         21   -1    0    0  501  503 -0.00000000000E+00 -0.00000000000E+00 -0.87505055640E+03  0.87505055640E+03  0.00000000000E+00 0.  1.
    9000007    1    1    2  501    0  0.11874776413E+03 -0.14388406122E+03 -0.37321433555E+03  0.57800743492E+03  0.40000000000E+03 0.  1.
   -9000007    1    1    2    0  502 -0.11874776413E+03  0.14388406122E+03 -0.27751659453E+03  0.52136274780E+03  0.40000000000E+03 0.  1.
<mgrwt>
<rscale>  2 0.44136567E+03</rscale>
<asrwt>0</asrwt>
<pdfrwt beam="1">  1       21 0.34510711E-01 0.44136567E+03</pdfrwt>
<pdfrwt beam="2">  1       21 0.13462317E+00 0.44136567E+03</pdfrwt>
<totfact> 0.27753448E+03</totfact>
</mgrwt>
</event>
<event>
 4    1  0.4890517E-002  0.4743237E+03  0.7818608E-02  0.1020707E+00
         21   -1    0    0  503  502  0.00000000000E+00  0.00000000000E+00  0.20052838118E+04  0.20052838118E+04  0.00000000000E+00 0. -1.
         21   -1    0    0  501  503 -0.00000000000E+00 -0.00000000000E+00 -0.11431874034E+03  0.11431874034E+03  0.00000000000E+00 0. -1.
    9000007    1    1    2  501    0  0.22762453220E+03 -0.11476089927E+03  0.80103586439E+03  0.93093579140E+03  0.40000000000E+03 0. -1.
   -9000007    1    1    2    0  502 -0.22762453220E+03  0.11476089927E+03  0.10899292070E+04  0.11886667607E+04  0.40000000000E+03 0. -1.
<mgrwt>
<rscale>  2 0.47432372E+03</rscale>
<asrwt>0</asrwt>
<pdfrwt beam="1">  1       21 0.30850518E+00 0.47432372E+03</pdfrwt>
<pdfrwt beam="2">  1       21 0.17587500E-01 0.47432372E+03</pdfrwt>
<totfact> 0.70566680E+02</totfact>
</mgrwt>
</event>
<event>
 4    1  0.4890517E-002  0.4005733E+03  0.7818608E-02  0.1043581E+00
         21   -1    0    0  503  502  0.00000000000E+00  0.00000000000E+00  0.13576333472E+03  0.13576333472E+03  0.00000000000E+00 0.  1.
         21   -1    0    0  501  503 -0.00000000000E+00 -0.00000000000E+00 -0.17083993237E+04  0.17083993237E+04  0.00000000000E+00 0.  1.
    9000007    1    1    2  501    0  0.34267902265E+01 -0.21147361312E+02 -0.12982032569E+04  0.13585987818E+04  0.40000000000E+03 0.  1.
   -9000007    1    1    2    0  502 -0.34267902265E+01  0.21147361312E+02 -0.27443273203E+03  0.48556387653E+03  0.40000000000E+03 0.  1.
<mgrwt>
<rscale>  2 0.40057328E+03</rscale>
<asrwt>0</asrwt>
<pdfrwt beam="1">  1       21 0.20886666E-01 0.40057328E+03</pdfrwt>
<pdfrwt beam="2">  1       21 0.26283067E+00 0.40057328E+03</pdfrwt>
<totfact> 0.99958021E+02</totfact>
</mgrwt>
</event>
<event>
 4    1  0.4890517E-002  0.4616115E+03  0.7818608E-02  0.1024315E+00
         21   -1    0    0  501  502  0.00000000000E+00  0.00000000000E+00  0.68490762639E+03  0.68490762639E+03  0.00000000000E+00 0. -1.
         21   -1    0    0  502  503 -0.00000000000E+00 -0.00000000000E+00 -0.79601999942E+03  0.79601999942E+03  0.00000000000E+00 0. -1.
    9000007    1    1    2  501    0  0.15213934475E+03  0.17302829078E+03  0.52236696563E+03  0.69710287362E+03  0.40000000000E+03 0. -1.
   -9000007    1    1    2    0  503 -0.15213934475E+03 -0.17302829078E+03 -0.63347933866E+03  0.78382475219E+03  0.40000000000E+03 0. -1.
<mgrwt>
<rscale>  2 0.46161149E+03</rscale>
<asrwt>0</asrwt>
<pdfrwt beam="1">  1       21 0.10537041E+00 0.46161149E+03</pdfrwt>
<pdfrwt beam="2">  1       21 0.12246461E+00 0.46161149E+03</pdfrwt>
<totfact> 0.29884332E+02</totfact>
</mgrwt>
</event>
<event>
 4    1  0.4890517E-002  0.4561773E+03  0.7818608E-02  0.1025896E+00
         21   -1    0    0  503  502  0.00000000000E+00  0.00000000000E+00  0.12516651913E+04  0.12516651913E+04  0.00000000000E+00 0.  1.
         21   -1    0    0  501  503 -0.00000000000E+00 -0.00000000000E+00 -0.85730401806E+03  0.85730401806E+03  0.00000000000E+00 0.  1.
    9000007    1    1    2  501    0  0.13081839456E+03 -0.17602346650E+03 -0.74955065662E+03  0.87745307564E+03  0.40000000000E+03 0.  1.
   -9000007    1    1    2    0  502 -0.13081839456E+03  0.17602346650E+03  0.11439118298E+04  0.12315161337E+04  0.40000000000E+03 0.  1.
<mgrwt>
<rscale>  2 0.45617728E+03</rscale>
<asrwt>0</asrwt>
<pdfrwt beam="1">  1       21 0.19256387E+00 0.45617728E+03</pdfrwt>
<pdfrwt beam="2">  1       21 0.13189293E+00 0.45617728E+03</pdfrwt>
<totfact> 0.48770069E+01</totfact>
</mgrwt>
</event>
<event>
 4    1  0.4890517E-002  0.4215944E+03  0.7818608E-02  0.1036549E+00
         21   -1    0    0  503  502  0.00000000000E+00  0.00000000000E+00  0.55493251247E+03  0.55493251247E+03  0.00000000000E+00 0. -1.
         21   -1    0    0  501  503 -0.00000000000E+00 -0.00000000000E+00 -0.86653212132E+03  0.86653212132E+03  0.00000000000E+00 0. -1.
    9000007    1    1    2  501    0 -0.10651750391E+03 -0.79974014248E+02 -0.72009264656E+03  0.83443108837E+03  0.40000000000E+03 0. -1.
   -9000007    1    1    2    0  502  0.10651750391E+03  0.79974014248E+02  0.40849303772E+03  0.58703354543E+03  0.40000000000E+03 0. -1.
<mgrwt>
<rscale>  2 0.42159438E+03</rscale>
<asrwt>0</asrwt>
<pdfrwt beam="1">  1       21 0.85374233E-01 0.42159438E+03</pdfrwt>
<pdfrwt beam="2">  1       21 0.13331263E+00 0.42159438E+03</pdfrwt>
<totfact> 0.40536205E+02</totfact>
</mgrwt>
</event>
<event>
 4    1  0.4890517E-002  0.4659721E+03  0.7818608E-02  0.1023063E+00
         21   -1    0    0  501  502  0.00000000000E+00  0.00000000000E+00  0.43808372099E+03  0.43808372099E+03  0.00000000000E+00 0. -1.
         21   -1    0    0  502  503 -0.00000000000E+00 -0.00000000000E+00 -0.62655188820E+03  0.62655188820E+03  0.00000000000E+00 0. -1.
    9000007    1    1    2  501    0 -0.18414998878E+03 -0.15237716617E+03  0.14909208382E+03  0.48924275017E+03  0.40000000000E+03 0. -1.
   -9000007    1    1    2    0  503  0.18414998878E+03  0.15237716617E+03 -0.33756025102E+03  0.57539285902E+03  0.40000000000E+03 0. -1.
<mgrwt>
<rscale>  2 0.46597212E+03</rscale>
<asrwt>0</asrwt>
<pdfrwt beam="1">  1       21 0.67397496E-01 0.46597212E+03</pdfrwt>
<pdfrwt beam="2">  1       21 0.96392598E-01 0.46597212E+03</pdfrwt>
<totfact> 0.15377887E+03</totfact>
</mgrwt>
</event>
<event>
 4    1  0.4890517E-002  0.5029482E+03  0.7818608E-02  0.1013012E+00
         21   -1    0    0  501  502  0.00000000000E+00  0.00000000000E+00  0.55196674461E+03  0.55196674461E+03  0.00000000000E+00 0.  1.
         21   -1    0    0  502  503 -0.00000000000E+00 -0.00000000000E+00 -0.52336943819E+03  0.52336943819E+03  0.00000000000E+00 0. -1.
    9000007    1    1    2  501    0  0.28071121668E+03  0.11898773064E+03  0.20390636288E+03  0.54271048639E+03  0.40000000000E+03 0.  1.
   -9000007    1    1    2    0  503 -0.28071121668E+03 -0.11898773064E+03 -0.17530905645E+03  0.53262569642E+03  0.40000000000E+03 0. -1.
<mgrwt>
<rscale>  2 0.50294818E+03</rscale>
<asrwt>0</asrwt>
<pdfrwt beam="1">  1       21 0.84917961E-01 0.50294818E+03</pdfrwt>
<pdfrwt beam="2">  1       21 0.80518375E-01 0.50294818E+03</pdfrwt>
<totfact> 0.13673006E+03</totfact>
</mgrwt>
</event>
<event>
 4    1  0.4890517E-002  0.4234701E+03  0.7818608E-02  0.1035943E+00
         21   -1    0    0  503  502  0.00000000000E+00  0.00000000000E+00  0.78417176106E+03  0.78417176106E+03  0.00000000000E+00 0.  1.
         21   -1    0    0  501  503 -0.00000000000E+00 -0.00000000000E+00 -0.27417925114E+03  0.27417925114E+03  0.00000000000E+00 0.  1.
    9000007    1    1    2  501    0  0.31879619515E+02  0.13531682985E+03  0.39435841948E+02  0.42530241031E+03  0.40000000000E+03 0.  1.
   -9000007    1    1    2    0  502 -0.31879619515E+02 -0.13531682985E+03  0.47055666798E+03  0.63304860190E+03  0.40000000000E+03 0.  1.
<mgrwt>
<rscale>  2 0.42347013E+03</rscale>
<asrwt>0</asrwt>
<pdfrwt beam="1">  1       21 0.12064181E+00 0.42347013E+03</pdfrwt>
<pdfrwt beam="2">  1       21 0.42181424E-01 0.42347013E+03</pdfrwt>
<totfact> 0.24598669E+03</totfact>
</mgrwt>
</event>
<event>
 4    1  0.4890517E-002  0.4650161E+03  0.7818608E-02  0.1023336E+00
         21   -1    0    0  503  502  0.00000000000E+00  0.00000000000E+00  0.42374334018E+03  0.42374334018E+03  0.00000000000E+00 0.  1.
         21   -1    0    0  501  503 -0.00000000000E+00 -0.00000000000E+00 -0.69147191926E+03  0.69147191926E+03  0.00000000000E+00 0.  1.
    9000007    1    1    2  501    0  0.15981672844E+03 -0.17521009106E+03 -0.41927897022E+03  0.62612683824E+03  0.40000000000E+03 0.  1.
   -9000007    1    1    2    0  502 -0.15981672844E+03  0.17521009106E+03  0.15155039113E+03  0.48908842120E+03  0.40000000000E+03 0.  1.
<mgrwt>
<rscale>  2 0.46501609E+03</rscale>
<asrwt>0</asrwt>
<pdfrwt beam="1">  1       21 0.65191283E-01 0.46501609E+03</pdfrwt>
<pdfrwt beam="2">  1       21 0.10638029E+00 0.46501609E+03</pdfrwt>
<totfact> 0.13025991E+03</totfact>
</mgrwt>
</event>
<event>
 4    1  0.4890517E-002  0.4198072E+03  0.7818608E-02  0.1037129E+00
         21   -1    0    0  501  502  0.00000000000E+00  0.00000000000E+00  0.16065782258E+03  0.16065782258E+03  0.00000000000E+00 0. -1.
         21   -1    0    0  502  503 -0.00000000000E+00 -0.00000000000E+00 -0.12994350666E+04  0.12994350666E+04  0.00000000000E+00 0. -1.
    9000007    1    1    2  501    0 -0.11489290786E+03  0.55115560522E+02 -0.28122469559E+03  0.50529737254E+03  0.40000000000E+03 0.  1.
   -9000007    1    1    2    0  503  0.11489290786E+03 -0.55115560522E+02 -0.85755254841E+03  0.95479551663E+03  0.40000000000E+03 0.  1.
<mgrwt>
<rscale>  2 0.41980722E+03</rscale>
<asrwt>0</asrwt>
<pdfrwt beam="1">  1       21 0.24716589E-01 0.41980722E+03</pdfrwt>
<pdfrwt beam="2">  1       21 0.19991308E+00 0.41980722E+03</pdfrwt>
<totfact> 0.17792523E+03</totfact>
</mgrwt>
</event>
<event>
 4    1  0.4890517E-002  0.6844987E+03  0.7818608E-02  0.9744115E-01
         21   -1    0    0  503  502  0.00000000000E+00  0.00000000000E+00  0.10377762608E+04  0.10377762608E+04  0.00000000000E+00 0. -1.
         21   -1    0    0  501  503 -0.00000000000E+00 -0.00000000000E+00 -0.45615791925E+03  0.45615791925E+03  0.00000000000E+00 0. -1.
    9000007    1    1    2  501    0 -0.86808832725E+02  0.54863716201E+03  0.21519149372E+03  0.71752762173E+03  0.40000000000E+03 0. -1.
   -9000007    1    1    2    0  502  0.86808832725E+02 -0.54863716201E+03  0.36642684781E+03  0.77640655831E+03  0.40000000000E+03 0. -1.
<mgrwt>
<rscale>  2 0.68449873E+03</rscale>
<asrwt>0</asrwt>
<pdfrwt beam="1">  1       21 0.15965789E+00 0.68449873E+03</pdfrwt>
<pdfrwt beam="2">  1       21 0.70178142E-01 0.68449873E+03</pdfrwt>
<totfact> 0.35269418E+02</totfact>
</mgrwt>
</event>
<event>
 4    1  0.4890517E-002  0.4430390E+03  0.7818608E-02  0.1029818E+00
         21   -1    0    0  503  502  0.00000000000E+00  0.00000000000E+00  0.35696716492E+03  0.35696716492E+03  0.00000000000E+00 0. -1.
         21   -1    0    0  501  503 -0.00000000000E+00 -0.00000000000E+00 -0.91616238646E+03  0.91616238646E+03  0.00000000000E+00 0. -1.
    9000007    1    1    2  501    0  0.78453294029E+02  0.17357602648E+03 -0.68210476716E+03  0.81335752883E+03  0.40000000000E+03 0. -1.
   -9000007    1    1    2    0  502 -0.78453294029E+02 -0.17357602648E+03  0.12290954563E+03  0.45977202255E+03  0.40000000000E+03 0. -1.
<mgrwt>
<rscale>  2 0.44303900E+03</rscale>
<asrwt>0</asrwt>
<pdfrwt beam="1">  1       21 0.54918026E-01 0.44303900E+03</pdfrwt>
<pdfrwt beam="2">  1       21 0.14094806E+00 0.44303900E+03</pdfrwt>
<totfact> 0.93238734E+02</totfact>
</mgrwt>
</event>
<event>
 4    1  0.4890517E-002  0.4046148E+03  0.7818608E-02  0.1042193E+00
         21   -1    0    0  501  502  0.00000000000E+00  0.00000000000E+00  0.17933331297E+03  0.17933331297E+03  0.00000000000E+00 0. -1.
         21   -1    0    0  502  503 -0.00000000000E+00 -0.00000000000E+00 -0.91944294936E+03  0.91944294936E+03  0.00000000000E+00 0. -1.
    9000007    1    1    2  501    0  0.57133742993E+02  0.21185783199E+02 -0.32370421801E+03  0.51816746594E+03  0.40000000000E+03 0.  1.
   -9000007    1    1    2    0  503 -0.57133742993E+02 -0.21185783199E+02 -0.41640541838E+03  0.58060879640E+03  0.40000000000E+03 0.  1.
<mgrwt>
<rscale>  2 0.40461476E+03</rscale>
<asrwt>0</asrwt>
<pdfrwt beam="1">  1       21 0.27589740E-01 0.40461476E+03</pdfrwt>
<pdfrwt beam="2">  1       21 0.14145276E+00 0.40461476E+03</pdfrwt>
<totfact> 0.38579242E+03</totfact>
</mgrwt>
</event>
<event>
 4    1  0.4890517E-002  0.4706131E+03  0.7818608E-02  0.1021747E+00
         21   -1    0    0  501  502  0.00000000000E+00  0.00000000000E+00  0.24858777621E+03  0.24858777621E+03  0.00000000000E+00 0.  1.
         21   -1    0    0  502  503 -0.00000000000E+00 -0.00000000000E+00 -0.13469796611E+04  0.13469796611E+04  0.00000000000E+00 0.  1.
    9000007    1    1    2  501    0 -0.10473112215E+03  0.22474010472E+03 -0.84994920278E+02  0.47822678626E+03  0.40000000000E+03 0.  1.
   -9000007    1    1    2    0  503  0.10473112215E+03 -0.22474010472E+03 -0.10133969646E+04  0.11173406510E+04  0.40000000000E+03 0.  1.
<mgrwt>
<rscale>  2 0.47061313E+03</rscale>
<asrwt>0</asrwt>
<pdfrwt beam="1">  1       21 0.38244273E-01 0.47061313E+03</pdfrwt>
<pdfrwt beam="2">  1       21 0.20722764E+00 0.47061313E+03</pdfrwt>
<totfact> 0.65145756E+02</totfact>
</mgrwt>
</event>
<event>
 4    1  0.4890517E-002  0.4164678E+03  0.7818608E-02  0.1038222E+00
         21   -1    0    0  503  502  0.00000000000E+00  0.00000000000E+00  0.47284356319E+03  0.47284356319E+03  0.00000000000E+00 0. -1.
         21   -1    0    0  501  503 -0.00000000000E+00 -0.00000000000E+00 -0.56307279859E+03  0.56307279859E+03  0.00000000000E+00 0. -1.
    9000007    1    1    2  501    0  0.56833906964E+02  0.10107080653E+03 -0.35090762341E+03  0.54459302335E+03  0.40000000000E+03 0. -1.
   -9000007    1    1    2    0  502 -0.56833906964E+02 -0.10107080653E+03  0.26067838801E+03  0.49132333843E+03  0.40000000000E+03 0. -1.
<mgrwt>
<rscale>  2 0.41646777E+03</rscale>
<asrwt>0</asrwt>
<pdfrwt beam="1">  1       21 0.72745164E-01 0.41646777E+03</pdfrwt>
<pdfrwt beam="2">  1       21 0.86626584E-01 0.41646777E+03</pdfrwt>
<totfact> 0.17018931E+03</totfact>
</mgrwt>
</event>
<event>
 4    1  0.4890517E-002  0.4951808E+03  0.7818608E-02  0.1015045E+00
         21   -1    0    0  503  502  0.00000000000E+00  0.00000000000E+00  0.10315673766E+04  0.10315673766E+04  0.00000000000E+00 0. -1.
         21   -1    0    0  501  503 -0.00000000000E+00 -0.00000000000E+00 -0.24801890435E+03  0.24801890435E+03  0.00000000000E+00 0.  1.
    9000007    1    1    2  501    0 -0.24372847407E+03  0.16062516425E+03  0.26127593413E+03  0.55988313622E+03  0.40000000000E+03 0.  1.
   -9000007    1    1    2    0  502  0.24372847407E+03 -0.16062516425E+03  0.52227253812E+03  0.71970314473E+03  0.40000000000E+03 0. -1.
<mgrwt>
<rscale>  2 0.49518079E+03</rscale>
<asrwt>0</asrwt>
<pdfrwt beam="1">  1       21 0.15870267E+00 0.49518079E+03</pdfrwt>
<pdfrwt beam="2">  1       21 0.38156755E-01 0.49518079E+03</pdfrwt>
<totfact> 0.14214067E+03</totfact>
</mgrwt>
</event>
<event>
 4    1  0.4890517E-002  0.5450928E+03  0.7818608E-02  0.1002636E+00
         21   -1    0    0  501  502  0.00000000000E+00  0.00000000000E+00  0.70786677727E+03  0.70786677727E+03  0.00000000000E+00 0. -1.
         21   -1    0    0  502  503 -0.00000000000E+00 -0.00000000000E+00 -0.53958160661E+03  0.53958160661E+03  0.00000000000E+00 0.  1.
    9000007    1    1    2  501    0  0.30938501785E+03  0.20348727102E+03  0.37807810448E+03  0.66337712639E+03  0.40000000000E+03 0. -1.
   -9000007    1    1    2    0  503 -0.30938501785E+03 -0.20348727102E+03 -0.20979293382E+03  0.58407125748E+03  0.40000000000E+03 0.  1.
<mgrwt>
<rscale>  2 0.54509280E+03</rscale>
<asrwt>0</asrwt>
<pdfrwt beam="1">  1       21 0.10890258E+00 0.54509280E+03</pdfrwt>
<pdfrwt beam="2">  1       21 0.83012555E-01 0.54509280E+03</pdfrwt>
<totfact> 0.68783792E+02</totfact>
</mgrwt>
</event>
<event>
 4    1  0.4890517E-002  0.6341494E+03  0.7818608E-02  0.9836985E-01
         21   -1    0    0  501  502  0.00000000000E+00  0.00000000000E+00  0.72548558393E+03  0.72548558393E+03  0.00000000000E+00 0.  1.
         21   -1    0    0  502  503 -0.00000000000E+00 -0.00000000000E+00 -0.55455566304E+03  0.55455566304E+03  0.00000000000E+00 0. -1.
    9000007    1    1    2  501    0 -0.29406471663E+03  0.39455221928E+03  0.72054724360E+02  0.63822989166E+03  0.40000000000E+03 0. -1.
   -9000007    1    1    2    0  503  0.29406471663E+03 -0.39455221928E+03  0.98875196528E+02  0.64181135531E+03  0.40000000000E+03 0. -1.
<mgrwt>
<rscale>  2 0.63414944E+03</rscale>
<asrwt>0</asrwt>
<pdfrwt beam="1">  1       21 0.11161317E+00 0.63414944E+03</pdfrwt>
<pdfrwt beam="2">  1       21 0.85316255E-01 0.63414944E+03</pdfrwt>
<totfact> 0.58908821E+02</totfact>
</mgrwt>
</event>
<event>
 4    1  0.4890517E-002  0.4315633E+03  0.7818608E-02  0.1033367E+00
         21   -1    0    0  501  502  0.00000000000E+00  0.00000000000E+00  0.17127421555E+03  0.17127421555E+03  0.00000000000E+00 0.  1.
         21   -1    0    0  502  503 -0.00000000000E+00 -0.00000000000E+00 -0.12101589735E+04  0.12101589735E+04  0.00000000000E+00 0.  1.
    9000007    1    1    2  501    0 -0.22348376397E+02 -0.16045999148E+03 -0.29946832608E+03  0.52528862268E+03  0.40000000000E+03 0. -1.
   -9000007    1    1    2    0  503  0.22348376397E+02  0.16045999148E+03 -0.73941643184E+03  0.85614456634E+03  0.40000000000E+03 0. -1.
<mgrwt>
<rscale>  2 0.43156327E+03</rscale>
<asrwt>0</asrwt>
<pdfrwt beam="1">  1       21 0.26349880E-01 0.43156327E+03</pdfrwt>
<pdfrwt beam="2">  1       21 0.18617830E+00 0.43156327E+03</pdfrwt>
<totfact> 0.19358494E+03</totfact>
</mgrwt>
</event>
<event>
 4    1  0.4890517E-002  0.5006724E+03  0.7818608E-02  0.1013604E+00
         21   -1    0    0  501  502  0.00000000000E+00  0.00000000000E+00  0.47868226998E+03  0.47868226998E+03  0.00000000000E+00 0.  1.
         21   -1    0    0  502  503 -0.00000000000E+00 -0.00000000000E+00 -0.55116305318E+03  0.55116305318E+03  0.00000000000E+00 0.  1.
    9000007    1    1    2  501    0 -0.28444879480E+03 -0.98801490112E+02  0.78758029185E+02  0.50682904265E+03  0.40000000000E+03 0.  1.
   -9000007    1    1    2    0  503  0.28444879480E+03  0.98801490112E+02 -0.15123881238E+03  0.52301628051E+03  0.40000000000E+03 0.  1.
<mgrwt>
<rscale>  2 0.50067240E+03</rscale>
<asrwt>0</asrwt>
<pdfrwt beam="1">  1       21 0.73643426E-01 0.50067240E+03</pdfrwt>
<pdfrwt beam="2">  1       21 0.84794316E-01 0.50067240E+03</pdfrwt>
<totfact> 0.16857525E+03</totfact>
</mgrwt>
</event>
<event>
 4    1  0.4890517E-002  0.4625775E+03  0.7818608E-02  0.1024036E+00
         21   -1    0    0  501  502  0.00000000000E+00  0.00000000000E+00  0.17219425886E+03  0.17219425886E+03  0.00000000000E+00 0.  1.
         21   -1    0    0  502  503 -0.00000000000E+00 -0.00000000000E+00 -0.12810309075E+04  0.12810309075E+04  0.00000000000E+00 0.  1.
    9000007    1    1    2  501    0 -0.37044167277E+02 -0.22935920664E+03 -0.42865411499E+03  0.63065225465E+03  0.40000000000E+03 0.  1.
   -9000007    1    1    2    0  503  0.37044167277E+02  0.22935920664E+03 -0.68018253365E+03  0.82257291171E+03  0.40000000000E+03 0.  1.
<mgrwt>
<rscale>  2 0.46257747E+03</rscale>
<asrwt>0</asrwt>
<pdfrwt beam="1">  1       21 0.26491425E-01 0.46257747E+03</pdfrwt>
<pdfrwt beam="2">  1       21 0.19708168E+00 0.46257747E+03</pdfrwt>
<totfact> 0.15931146E+03</totfact>
</mgrwt>
</event>
<event>
 4    1  0.4890517E-002  0.5236879E+03  0.7818608E-02  0.1007775E+00
         21   -1    0    0  501  502  0.00000000000E+00  0.00000000000E+00  0.18931903082E+04  0.18931903082E+04  0.00000000000E+00 0. -1.
         21   -1    0    0  502  503 -0.00000000000E+00 -0.00000000000E+00 -0.14556000400E+03  0.14556000400E+03  0.00000000000E+00 0. -1.
    9000007    1    1    2  501    0 -0.14408697986E+03  0.30575805432E+03  0.94446606255E+03  0.10799375856E+04  0.40000000000E+03 0. -1.
   -9000007    1    1    2    0  503  0.14408697986E+03 -0.30575805432E+03  0.80316424160E+03  0.95881272652E+03  0.40000000000E+03 0. -1.
<mgrwt>
<rscale>  2 0.52368793E+03</rscale>
<asrwt>0</asrwt>
<pdfrwt beam="1">  1       21 0.29126003E+00 0.52368793E+03</pdfrwt>
<pdfrwt beam="2">  1       21 0.22393848E-01 0.52368793E+03</pdfrwt>
<totfact> 0.55222768E+02</totfact>
</mgrwt>
</event>
<event>
 4    1  0.4890517E-002  0.4102213E+03  0.7818608E-02  0.1040297E+00
         21   -1    0    0  503  502  0.00000000000E+00  0.00000000000E+00  0.10403334565E+04  0.10403334565E+04  0.00000000000E+00 0.  1.
         21   -1    0    0  501  503 -0.00000000000E+00 -0.00000000000E+00 -0.16448430572E+03  0.16448430572E+03  0.00000000000E+00 0.  1.
    9000007    1    1    2  501    0  0.83746100201E+02 -0.35610672098E+02  0.36035841535E+03  0.54602171823E+03  0.40000000000E+03 0.  1.
   -9000007    1    1    2    0  502 -0.83746100201E+02  0.35610672098E+02  0.51549073543E+03  0.65879604399E+03  0.40000000000E+03 0.  1.
<mgrwt>
<rscale>  2 0.41022132E+03</rscale>
<asrwt>0</asrwt>
<pdfrwt beam="1">  1       21 0.16005130E+00 0.41022132E+03</pdfrwt>
<pdfrwt beam="2">  1       21 0.25305278E-01 0.41022132E+03</pdfrwt>
<totfact> 0.32591516E+03</totfact>
</mgrwt>
</event>
<event>
 4    1  0.4890517E-002  0.4260409E+03  0.7818608E-02  0.1035118E+00
         21   -1    0    0  501  502  0.00000000000E+00  0.00000000000E+00  0.12019978932E+03  0.12019978932E+03  0.00000000000E+00 0. -1.
         21   -1    0    0  502  503 -0.00000000000E+00 -0.00000000000E+00 -0.15702117743E+04  0.15702117743E+04  0.00000000000E+00 0. -1.
    9000007    1    1    2  501    0  0.12073988948E+03  0.83262797691E+02 -0.55960051858E+03  0.70332322213E+03  0.40000000000E+03 0. -1.
   -9000007    1    1    2    0  503 -0.12073988948E+03 -0.83262797691E+02 -0.89041146638E+03  0.98708834146E+03  0.40000000000E+03 0. -1.
<mgrwt>
<rscale>  2 0.42604086E+03</rscale>
<asrwt>0</asrwt>
<pdfrwt beam="1">  1       21 0.18492277E-01 0.42604086E+03</pdfrwt>
<pdfrwt beam="2">  1       21 0.24157102E+00 0.42604086E+03</pdfrwt>
<totfact> 0.16751806E+03</totfact>
</mgrwt>
</event>
<event>
 4    1  0.4890517E-002  0.4447066E+03  0.7818608E-02  0.1029312E+00
         21   -1    0    0  503  502  0.00000000000E+00  0.00000000000E+00  0.61153261767E+03  0.61153261767E+03  0.00000000000E+00 0. -1.
         21   -1    0    0  501  503 -0.00000000000E+00 -0.00000000000E+00 -0.32346824349E+03  0.32346824349E+03  0.00000000000E+00 0. -1.
    9000007    1    1    2  501    0 -0.14554330902E+03  0.12876760007E+03  0.13679295853E+03  0.46527009697E+03  0.40000000000E+03 0. -1.
   -9000007    1    1    2    0  502  0.14554330902E+03 -0.12876760007E+03  0.15127141565E+03  0.46973076419E+03  0.40000000000E+03 0. -1.
<mgrwt>
<rscale>  2 0.44470659E+03</rscale>
<asrwt>0</asrwt>
<pdfrwt beam="1">  1       21 0.94081941E-01 0.44470659E+03</pdfrwt>
<pdfrwt beam="2">  1       21 0.49764345E-01 0.44470659E+03</pdfrwt>
<totfact> 0.31819043E+03</totfact>
</mgrwt>
</event>
<event>
 4    1  0.4890517E-002  0.5180458E+03  0.7818608E-02  0.1009173E+00
         21   -1    0    0  501  502  0.00000000000E+00  0.00000000000E+00  0.61394102583E+03  0.61394102583E+03  0.00000000000E+00 0.  1.
         21   -1    0    0  502  503 -0.00000000000E+00 -0.00000000000E+00 -0.90976147718E+03  0.90976147718E+03  0.00000000000E+00 0.  1.
    9000007    1    1    2  501    0  0.12933008847E+03 -0.30272956065E+03  0.40121092301E+03  0.65524168321E+03  0.40000000000E+03 0.  1.
   -9000007    1    1    2    0  503 -0.12933008847E+03  0.30272956065E+03 -0.69703137437E+03  0.86846081980E+03  0.40000000000E+03 0.  1.
<mgrwt>
<rscale>  2 0.51804581E+03</rscale>
<asrwt>0</asrwt>
<pdfrwt beam="1">  1       21 0.94452466E-01 0.51804581E+03</pdfrwt>
<pdfrwt beam="2">  1       21 0.13996330E+00 0.51804581E+03</pdfrwt>
<totfact> 0.26839359E+02</totfact>
</mgrwt>
</event>
<event>
 4    1  0.4890517E-002  0.4405138E+03  0.7818608E-02  0.1030589E+00
         21   -1    0    0  501  502  0.00000000000E+00  0.00000000000E+00  0.22256511646E+03  0.22256511646E+03  0.00000000000E+00 0.  1.
         21   -1    0    0  502  503 -0.00000000000E+00 -0.00000000000E+00 -0.97107495216E+03  0.97107495216E+03  0.00000000000E+00 0.  1.
    9000007    1    1    2  501    0 -0.15295815955E+03  0.10322897925E+03 -0.56499357365E+03  0.71642875361E+03  0.40000000000E+03 0.  1.
   -9000007    1    1    2    0  503  0.15295815955E+03 -0.10322897925E+03 -0.18351626205E+03  0.47721131500E+03  0.40000000000E+03 0.  1.
<mgrwt>
<rscale>  2 0.44051381E+03</rscale>
<asrwt>0</asrwt>
<pdfrwt beam="1">  1       21 0.34240787E-01 0.44051381E+03</pdfrwt>
<pdfrwt beam="2">  1       21 0.14939615E+00 0.44051381E+03</pdfrwt>
<totfact> 0.21365652E+03</totfact>
</mgrwt>
</event>
<event>
 4    1  0.4890517E-002  0.4286346E+03  0.7818608E-02  0.1034292E+00
         21   -1    0    0  501  502  0.00000000000E+00  0.00000000000E+00  0.84010896900E+03  0.84010896900E+03  0.00000000000E+00 0.  1.
         21   -1    0    0  502  503 -0.00000000000E+00 -0.00000000000E+00 -0.36809031119E+03  0.36809031119E+03  0.00000000000E+00 0. -1.
    9000007    1    1    2  501    0 -0.11498234560E+03  0.10250228649E+03  0.62086670968E+03  0.75445551871E+03  0.40000000000E+03 0.  1.
   -9000007    1    1    2    0  503  0.11498234560E+03 -0.10250228649E+03 -0.14884805187E+03  0.45374376148E+03  0.40000000000E+03 0. -1.
<mgrwt>
<rscale>  2 0.42863464E+03</rscale>
<asrwt>0</asrwt>
<pdfrwt beam="1">  1       21 0.12924753E+00 0.42863464E+03</pdfrwt>
<pdfrwt beam="2">  1       21 0.56629279E-01 0.42863464E+03</pdfrwt>
<totfact> 0.11020423E+03</totfact>
</mgrwt>
</event>
<event>
 4    1  0.4890517E-002  0.4270742E+03  0.7818608E-02  0.1034788E+00
         21   -1    0    0  501  502  0.00000000000E+00  0.00000000000E+00  0.96168065480E+03  0.96168065480E+03  0.00000000000E+00 0. -1.
         21   -1    0    0  502  503 -0.00000000000E+00 -0.00000000000E+00 -0.54912625093E+03  0.54912625093E+03  0.00000000000E+00 0. -1.
    9000007    1    1    2  501    0 -0.14668297169E+03  0.29604965079E+02  0.81746113226E+03  0.92229878613E+03  0.40000000000E+03 0. -1.
   -9000007    1    1    2    0  503  0.14668297169E+03 -0.29604965079E+02 -0.40490672839E+03  0.58850811960E+03  0.40000000000E+03 0. -1.
<mgrwt>
<rscale>  2 0.42707417E+03</rscale>
<asrwt>0</asrwt>
<pdfrwt beam="1">  1       21 0.14795087E+00 0.42707417E+03</pdfrwt>
<pdfrwt beam="2">  1       21 0.84480961E-01 0.42707417E+03</pdfrwt>
<totfact> 0.31417019E+02</totfact>
</mgrwt>
</event>
<event>
 4    1  0.4890517E-002  0.4273748E+03  0.7818608E-02  0.1034692E+00
         21   -1    0    0  501  502  0.00000000000E+00  0.00000000000E+00  0.80626733862E+03  0.80626733862E+03  0.00000000000E+00 0.  1.
         21   -1    0    0  502  503 -0.00000000000E+00 -0.00000000000E+00 -0.79699320842E+03  0.79699320842E+03  0.00000000000E+00 0.  1.
    9000007    1    1    2  501    0 -0.56251227901E+02 -0.13958866577E+03  0.68283746863E+03  0.80555335318E+03  0.40000000000E+03 0.  1.
   -9000007    1    1    2    0  503  0.56251227901E+02  0.13958866577E+03 -0.67356333843E+03  0.79770719386E+03  0.40000000000E+03 0.  1.
<mgrwt>
<rscale>  2 0.42737477E+03</rscale>
<asrwt>0</asrwt>
<pdfrwt beam="1">  1       21 0.12404113E+00 0.42737477E+03</pdfrwt>
<pdfrwt beam="2">  1       21 0.12261434E+00 0.42737477E+03</pdfrwt>
<totfact> 0.20138170E+02</totfact>
</mgrwt>
</event>
<event>
 4    1  0.4890517E-002  0.7053015E+03  0.7818608E-02  0.9708209E-01
         21   -1    0    0  503  502  0.00000000000E+00  0.00000000000E+00  0.61634043555E+03  0.61634043555E+03  0.00000000000E+00 0.  1.
         21   -1    0    0  501  503 -0.00000000000E+00 -0.00000000000E+00 -0.91922587288E+03  0.91922587288E+03  0.00000000000E+00 0.  1.
    9000007    1    1    2  501    0  0.10854302343E+03 -0.57067378500E+03  0.11670539685E+03  0.71489181452E+03  0.40000000000E+03 0.  1.
   -9000007    1    1    2    0  502 -0.10854302343E+03  0.57067378500E+03 -0.41959083419E+03  0.82067449391E+03  0.40000000000E+03 0.  1.
<mgrwt>
<rscale>  2 0.70530147E+03</rscale>
<asrwt>0</asrwt>
<pdfrwt beam="1">  1       21 0.94821606E-01 0.70530147E+03</pdfrwt>
<pdfrwt beam="2">  1       21 0.14141936E+00 0.70530147E+03</pdfrwt>
<totfact> 0.24181441E+02</totfact>
</mgrwt>
</event>
<event>
 4    1  0.4890517E-002  0.4352532E+03  0.7818608E-02  0.1032213E+00
         21   -1    0    0  503  502  0.00000000000E+00  0.00000000000E+00  0.91947729042E+03  0.91947729042E+03  0.00000000000E+00 0.  1.
         21   -1    0    0  501  503 -0.00000000000E+00 -0.00000000000E+00 -0.29530440423E+03  0.29530440423E+03  0.00000000000E+00 0.  1.
    9000007    1    1    2  501    0  0.10280355250E+03 -0.13739278909E+03 -0.21864260616E+02  0.43580201330E+03  0.40000000000E+03 0.  1.
   -9000007    1    1    2    0  502 -0.10280355250E+03  0.13739278909E+03  0.64603714681E+03  0.77897968135E+03  0.40000000000E+03 0.  1.
<mgrwt>
<rscale>  2 0.43525320E+03</rscale>
<asrwt>0</asrwt>
<pdfrwt beam="1">  1       21 0.14145804E+00 0.43525320E+03</pdfrwt>
<pdfrwt beam="2">  1       21 0.45431447E-01 0.43525320E+03</pdfrwt>
<totfact> 0.13866491E+03</totfact>
</mgrwt>
</event>
<event>
 4    1  0.4890517E-002  0.4180316E+03  0.7818608E-02  0.1037709E+00
         21   -1    0    0  503  502  0.00000000000E+00  0.00000000000E+00  0.54971891354E+03  0.54971891354E+03  0.00000000000E+00 0.  1.
         21   -1    0    0  501  503 -0.00000000000E+00 -0.00000000000E+00 -0.32588748355E+03  0.32588748355E+03  0.00000000000E+00 0. -1.
    9000007    1    1    2  501    0 -0.35849191772E+02  0.11604005219E+03  0.18049711003E+03  0.45533467361E+03  0.40000000000E+03 0.  1.
   -9000007    1    1    2    0  502  0.35849191772E+02 -0.11604005219E+03  0.43334319953E+02  0.42027172347E+03  0.40000000000E+03 0. -1.
<mgrwt>
<rscale>  2 0.41803165E+03</rscale>
<asrwt>0</asrwt>
<pdfrwt beam="1">  1       21 0.84572141E-01 0.41803165E+03</pdfrwt>
<pdfrwt beam="2">  1       21 0.50136536E-01 0.41803165E+03</pdfrwt>
<totfact> 0.40671064E+03</totfact>
</mgrwt>
</event>
<event>
 4    1  0.4890517E-002  0.4279684E+03  0.7818608E-02  0.1034504E+00
         21   -1    0    0  503  502  0.00000000000E+00  0.00000000000E+00  0.13613347698E+04  0.13613347698E+04  0.00000000000E+00 0. -1.
         21   -1    0    0  501  503 -0.00000000000E+00 -0.00000000000E+00 -0.13815222380E+03  0.13815222380E+03  0.00000000000E+00 0. -1.
    9000007    1    1    2  501    0 -0.88602719293E+02  0.12371951063E+03  0.49039493613E+03  0.65087952230E+03  0.40000000000E+03 0. -1.
   -9000007    1    1    2    0  502  0.88602719293E+02 -0.12371951063E+03  0.73278760991E+03  0.84860747134E+03  0.40000000000E+03 0. -1.
<mgrwt>
<rscale>  2 0.42796841E+03</rscale>
<asrwt>0</asrwt>
<pdfrwt beam="1">  1       21 0.20943611E+00 0.42796841E+03</pdfrwt>
<pdfrwt beam="2">  1       21 0.21254189E-01 0.42796841E+03</pdfrwt>
<totfact> 0.20523375E+03</totfact>
</mgrwt>
</event>
<event>
 4    1  0.4890517E-002  0.4289389E+03  0.7818608E-02  0.1034196E+00
         21   -1    0    0  503  502  0.00000000000E+00  0.00000000000E+00  0.98273112118E+03  0.98273112118E+03  0.00000000000E+00 0.  1.
         21   -1    0    0  501  503 -0.00000000000E+00 -0.00000000000E+00 -0.39728219118E+03  0.39728219118E+03  0.00000000000E+00 0.  1.
    9000007    1    1    2  501    0  0.10156350503E+03 -0.11693353614E+03 -0.20901228594E+03  0.47715273561E+03  0.40000000000E+03 0.  1.
   -9000007    1    1    2    0  502 -0.10156350503E+03  0.11693353614E+03  0.79446121593E+03  0.90286057675E+03  0.40000000000E+03 0.  1.
<mgrwt>
<rscale>  2 0.42893892E+03</rscale>
<asrwt>0</asrwt>
<pdfrwt beam="1">  1       21 0.15118940E+00 0.42893892E+03</pdfrwt>
<pdfrwt beam="2">  1       21 0.61120337E-01 0.42893892E+03</pdfrwt>
<totfact> 0.61551755E+02</totfact>
</mgrwt>
</event>
<event>
 4    1  0.4890517E-002  0.5305538E+03  0.7818608E-02  0.1006098E+00
         21   -1    0    0  503  502  0.00000000000E+00  0.00000000000E+00  0.22370458416E+04  0.22370458416E+04  0.00000000000E+00 0.  1.
         21   -1    0    0  501  503 -0.00000000000E+00 -0.00000000000E+00 -0.93291747736E+03  0.93291747736E+03  0.00000000000E+00 0. -1.
    9000007    1    1    2  501    0 -0.23770886946E+03  0.25491539419E+03 -0.82215801034E+03  0.97848411269E+03  0.40000000000E+03 0. -1.
   -9000007    1    1    2    0  502  0.23770886946E+03 -0.25491539419E+03  0.21262863746E+04  0.21914792063E+04  0.40000000000E+03 0.  1.
<mgrwt>
<rscale>  2 0.53055383E+03</rscale>
<asrwt>0</asrwt>
<pdfrwt beam="1">  1       21 0.34416090E+00 0.53055383E+03</pdfrwt>
<pdfrwt beam="2">  1       21 0.14352577E+00 0.53055383E+03</pdfrwt>
<totfact> 0.42449337E+00</totfact>
</mgrwt>
</event>
<event>
 4    1  0.4890517E-002  0.4700300E+03  0.7818608E-02  0.1021912E+00
         21   -1    0    0  501  502  0.00000000000E+00  0.00000000000E+00  0.10734670511E+04  0.10734670511E+04  0.00000000000E+00 0.  1.
         21   -1    0    0  502  503 -0.00000000000E+00 -0.00000000000E+00 -0.21332270317E+03  0.21332270317E+03  0.00000000000E+00 0.  1.
    9000007    1    1    2  501    0 -0.18230091215E+02 -0.24616236327E+03  0.55082887704E+03  0.72411373215E+03  0.40000000000E+03 0.  1.
   -9000007    1    1    2    0  503  0.18230091215E+02  0.24616236327E+03  0.30931547087E+03  0.56267602209E+03  0.40000000000E+03 0.  1.
<mgrwt>
<rscale>  2 0.47003005E+03</rscale>
<asrwt>0</asrwt>
<pdfrwt beam="1">  1       21 0.16514877E+00 0.47003005E+03</pdfrwt>
<pdfrwt beam="2">  1       21 0.32818878E-01 0.47003005E+03</pdfrwt>
<totfact> 0.17429859E+03</totfact>
</mgrwt>
</event>
<event>
 4    1  0.4890517E-002  0.4667514E+03  0.7818608E-02  0.1022841E+00
         21   -1    0    0  503  502  0.00000000000E+00  0.00000000000E+00  0.98968683774E+03  0.98968683774E+03  0.00000000000E+00 0. -1.
         21   -1    0    0  501  503 -0.00000000000E+00 -0.00000000000E+00 -0.29844855850E+03  0.29844855850E+03  0.00000000000E+00 0. -1.
    9000007    1    1    2  501    0  0.76332268117E+02 -0.22810136507E+03  0.15677379660E+02  0.46701459092E+03  0.40000000000E+03 0. -1.
   -9000007    1    1    2    0  502 -0.76332268117E+02  0.22810136507E+03  0.67556089958E+03  0.82112080533E+03  0.40000000000E+03 0. -1.
<mgrwt>
<rscale>  2 0.46675138E+03</rscale>
<asrwt>0</asrwt>
<pdfrwt beam="1">  1       21 0.15225951E+00 0.46675138E+03</pdfrwt>
<pdfrwt beam="2">  1       21 0.45915163E-01 0.46675138E+03</pdfrwt>
<totfact> 0.10974158E+03</totfact>
</mgrwt>
</event>
<event>
 4    1  0.4890517E-002  0.4506412E+03  0.7818608E-02  0.1027531E+00
         21   -1    0    0  501  502  0.00000000000E+00  0.00000000000E+00  0.10915221637E+03  0.10915221637E+03  0.00000000000E+00 0.  1.
         21   -1    0    0  502  503 -0.00000000000E+00 -0.00000000000E+00 -0.20818823661E+04  0.20818823661E+04  0.00000000000E+00 0.  1.
    9000007    1    1    2  501    0  0.13154278382E+03  0.16054268240E+03 -0.62912116992E+03  0.77386749724E+03  0.40000000000E+03 0.  1.
   -9000007    1    1    2    0  503 -0.13154278382E+03 -0.16054268240E+03 -0.13436089798E+04  0.14171670852E+04  0.40000000000E+03 0.  1.
<mgrwt>
<rscale>  2 0.45064116E+03</rscale>
<asrwt>0</asrwt>
<pdfrwt beam="1">  1       21 0.16792649E-01 0.45064116E+03</pdfrwt>
<pdfrwt beam="2">  1       21 0.32028958E+00 0.45064116E+03</pdfrwt>
<totfact> 0.66208584E+02</totfact>
</mgrwt>
</event>
<event>
 4    1  0.4890517E-002  0.4135991E+03  0.7818608E-02  0.1039170E+00
         21   -1    0    0  501  502  0.00000000000E+00  0.00000000000E+00  0.35033116522E+03  0.35033116522E+03  0.00000000000E+00 0.  1.
         21   -1    0    0  502  503 -0.00000000000E+00 -0.00000000000E+00 -0.15941172621E+04  0.15941172621E+04  0.00000000000E+00 0.  1.
    9000007    1    1    2  501    0  0.99676706932E+02 -0.33596634497E+02  0.18785405008E+03  0.45426129473E+03  0.40000000000E+03 0.  1.
   -9000007    1    1    2    0  503 -0.99676706932E+02  0.33596634497E+02 -0.14316401469E+04  0.14901871326E+04  0.40000000000E+03 0.  1.
<mgrwt>
<rscale>  2 0.41359906E+03</rscale>
<asrwt>0</asrwt>
<pdfrwt beam="1">  1       21 0.53897104E-01 0.41359906E+03</pdfrwt>
<pdfrwt beam="2">  1       21 0.24524880E+00 0.41359906E+03</pdfrwt>
<totfact> 0.18786621E+02</totfact>
</mgrwt>
</event>
<event>
 4    1  0.4890517E-002  0.5370601E+03  0.7818608E-02  0.1004534E+00
         21   -1    0    0  503  502  0.00000000000E+00  0.00000000000E+00  0.50278054005E+03  0.50278054005E+03  0.00000000000E+00 0.  1.
         21   -1    0    0  501  503 -0.00000000000E+00 -0.00000000000E+00 -0.83892226820E+03  0.83892226820E+03  0.00000000000E+00 0.  1.
    9000007    1    1    2  501    0 -0.30072933784E+03 -0.19492421042E+03  0.20914450141E+03  0.57634625436E+03  0.40000000000E+03 0.  1.
   -9000007    1    1    2    0  502  0.30072933784E+03  0.19492421042E+03 -0.54528622955E+03  0.76535655389E+03  0.40000000000E+03 0.  1.
<mgrwt>
<rscale>  2 0.53706013E+03</rscale>
<asrwt>0</asrwt>
<pdfrwt beam="1">  1       21 0.77350853E-01 0.53706013E+03</pdfrwt>
<pdfrwt beam="2">  1       21 0.12906496E+00 0.53706013E+03</pdfrwt>
<totfact> 0.52756402E+02</totfact>
</mgrwt>
</event>
<event>
 4    1  0.4890517E-002  0.6847677E+03  0.7818608E-02  0.9743642E-01
         21   -1    0    0  503  502  0.00000000000E+00  0.00000000000E+00  0.52929811436E+03  0.52929811436E+03  0.00000000000E+00 0.  1.
         21   -1    0    0  501  503 -0.00000000000E+00 -0.00000000000E+00 -0.16774334969E+04  0.16774334969E+04  0.00000000000E+00 0. -1.
    9000007    1    1    2  501    0 -0.21724066782E+03 -0.51157926598E+03 -0.13320004133E+04  0.14977089017E+04  0.40000000000E+03 0. -1.
   -9000007    1    1    2    0  502  0.21724066782E+03  0.51157926598E+03  0.18386503077E+03  0.70902270957E+03  0.40000000000E+03 0.  1.
<mgrwt>
<rscale>  2 0.68476774E+03</rscale>
<asrwt>0</asrwt>
<pdfrwt beam="1">  1       21 0.81430480E-01 0.68476774E+03</pdfrwt>
<pdfrwt beam="2">  1       21 0.25806669E+00 0.68476774E+03</pdfrwt>
<totfact> 0.54246895E+01</totfact>
</mgrwt>
</event>
<event>
 4    1  0.4890517E-002  0.4024447E+03  0.7818608E-02  0.1042936E+00
         21   -1    0    0  501  502  0.00000000000E+00  0.00000000000E+00  0.13760930446E+04  0.13760930446E+04  0.00000000000E+00 0. -1.
         21   -1    0    0  502  503 -0.00000000000E+00 -0.00000000000E+00 -0.16498952679E+03  0.16498952679E+03  0.00000000000E+00 0. -1.
    9000007    1    1    2  501    0  0.25147885203E+02 -0.36459973942E+02  0.10180906616E+04  0.10947467018E+04  0.40000000000E+03 0. -1.
   -9000007    1    1    2    0  503 -0.25147885203E+02  0.36459973942E+02  0.19301285619E+03  0.44633586959E+03  0.40000000000E+03 0. -1.
<mgrwt>
<rscale>  2 0.40244471E+03</rscale>
<asrwt>0</asrwt>
<pdfrwt beam="1">  1       21 0.21170662E+00 0.40244471E+03</pdfrwt>
<pdfrwt beam="2">  1       21 0.25383005E-01 0.40244471E+03</pdfrwt>
<totfact> 0.14261802E+03</totfact>
</mgrwt>
</event>
<event>
 4    1  0.4890517E-002  0.4010220E+03  0.7818608E-02  0.1043426E+00
         21   -1    0    0  503  502  0.00000000000E+00  0.00000000000E+00  0.83896303808E+02  0.83896303808E+02  0.00000000000E+00 0. -1.
         21   -1    0    0  501  503 -0.00000000000E+00 -0.00000000000E+00 -0.20306721306E+04  0.20306721306E+04  0.00000000000E+00 0. -1.
    9000007    1    1    2  501    0 -0.13792078411E+02 -0.25068970229E+02 -0.12236751473E+04  0.12877109695E+04  0.40000000000E+03 0.  1.
   -9000007    1    1    2    0  502  0.13792078411E+02  0.25068970229E+02 -0.72310067949E+03  0.82685746497E+03  0.40000000000E+03 0.  1.
<mgrwt>
<rscale>  2 0.40102204E+03</rscale>
<asrwt>0</asrwt>
<pdfrwt beam="1">  1       21 0.12907125E-01 0.40102204E+03</pdfrwt>
<pdfrwt beam="2">  1       21 0.31241108E+00 0.40102204E+03</pdfrwt>
<totfact> 0.12371664E+03</totfact>
</mgrwt>
</event>
<event>
 4    1  0.4890517E-002  0.5442381E+03  0.7818608E-02  0.1002836E+00
         21   -1    0    0  501  502  0.00000000000E+00  0.00000000000E+00  0.99564395345E+03  0.99564395345E+03  0.00000000000E+00 0.  1.
         21   -1    0    0  502  503 -0.00000000000E+00 -0.00000000000E+00 -0.43427754680E+03  0.43427754680E+03  0.00000000000E+00 0. -1.
    9000007    1    1    2  501    0  0.29921926414E+03 -0.21601604142E+03  0.68193799619E+03  0.87248755225E+03  0.40000000000E+03 0.  1.
   -9000007    1    1    2    0  503 -0.29921926414E+03  0.21601604142E+03 -0.12057158954E+03  0.55743394801E+03  0.40000000000E+03 0. -1.
<mgrwt>
<rscale>  2 0.54423809E+03</rscale>
<asrwt>0</asrwt>
<pdfrwt beam="1">  1       21 0.15317599E+00 0.54423809E+03</pdfrwt>
<pdfrwt beam="2">  1       21 0.66811930E-01 0.54423809E+03</pdfrwt>
<totfact> 0.46410129E+02</totfact>
</mgrwt>
</event>
<event>
 4    1  0.4890517E-002  0.4562126E+03  0.7818608E-02  0.1025885E+00
         21   -1    0    0  503  502  0.00000000000E+00  0.00000000000E+00  0.31000356863E+04  0.31000356863E+04  0.00000000000E+00 0.  1.
         21   -1    0    0  501  503 -0.00000000000E+00 -0.00000000000E+00 -0.82229965919E+02  0.82229965919E+02  0.00000000000E+00 0.  1.
    9000007    1    1    2  501    0 -0.94470839449E+02 -0.19800293508E+03  0.82724624552E+03  0.94470432016E+03  0.40000000000E+03 0.  1.
   -9000007    1    1    2    0  502  0.94470839449E+02  0.19800293508E+03  0.21905594749E+04  0.22375613321E+04  0.40000000000E+03 0.  1.
<mgrwt>
<rscale>  2 0.45621256E+03</rscale>
<asrwt>0</asrwt>
<pdfrwt beam="1">  1       21 0.47692848E+00 0.45621256E+03</pdfrwt>
<pdfrwt beam="2">  1       21 0.12650766E-01 0.45621256E+03</pdfrwt>
<totfact> 0.10925157E+02</totfact>
</mgrwt>
</event>
<event>
 4    1  0.4890517E-002  0.4131727E+03  0.7818608E-02  0.1039312E+00
         21   -1    0    0  503  502  0.00000000000E+00  0.00000000000E+00  0.19236537640E+03  0.19236537640E+03  0.00000000000E+00 0. -1.
         21   -1    0    0  501  503 -0.00000000000E+00 -0.00000000000E+00 -0.12985041522E+04  0.12985041522E+04  0.00000000000E+00 0. -1.
    9000007    1    1    2  501    0 -0.10349383363E+03 -0.84495570129E+00 -0.97248600736E+03  0.10566175855E+04  0.40000000000E+03 0. -1.
   -9000007    1    1    2    0  502  0.10349383363E+03  0.84495570129E+00 -0.13365276846E+03  0.43425194308E+03  0.40000000000E+03 0. -1.
<mgrwt>
<rscale>  2 0.41317271E+03</rscale>
<asrwt>0</asrwt>
<pdfrwt beam="1">  1       21 0.29594672E-01 0.41317271E+03</pdfrwt>
<pdfrwt beam="2">  1       21 0.19976988E+00 0.41317271E+03</pdfrwt>
<totfact> 0.12566834E+03</totfact>
</mgrwt>
</event>
<event>
 4    1  0.4890517E-002  0.5629495E+03  0.7818608E-02  0.9985403E-01
         21   -1    0    0  503  502  0.00000000000E+00  0.00000000000E+00  0.15106642662E+04  0.15106642662E+04  0.00000000000E+00 0. -1.
         21   -1    0    0  501  503 -0.00000000000E+00 -0.00000000000E+00 -0.26328079839E+03  0.26328079839E+03  0.00000000000E+00 0.  1.
    9000007    1    1    2  501    0 -0.23211287941E+03 -0.32099190120E+03  0.22386929086E+03  0.60582971932E+03  0.40000000000E+03 0.  1.
   -9000007    1    1    2    0  502  0.23211287941E+03  0.32099190120E+03  0.10235141769E+04  0.11681153452E+04  0.40000000000E+03 0.  1.
<mgrwt>
<rscale>  2 0.56294954E+03</rscale>
<asrwt>0</asrwt>
<pdfrwt beam="1">  1       21 0.23240988E+00 0.56294954E+03</pdfrwt>
<pdfrwt beam="2">  1       21 0.40504739E-01 0.56294954E+03</pdfrwt>
<totfact> 0.38264185E+02</totfact>
</mgrwt>
</event>
<event>
 4    1  0.4890517E-002  0.5619948E+03  0.7818608E-02  0.9987551E-01
         21   -1    0    0  503  502  0.00000000000E+00  0.00000000000E+00  0.26787034506E+03  0.26787034506E+03  0.00000000000E+00 0.  1.
         21   -1    0    0  501  503 -0.00000000000E+00 -0.00000000000E+00 -0.11802057412E+04  0.11802057412E+04  0.00000000000E+00 0.  1.
    9000007    1    1    2  501    0 -0.23442617460E+03  0.31762008214E+03 -0.43371665938E+03  0.70989315290E+03  0.40000000000E+03 0.  1.
   -9000007    1    1    2    0  502  0.23442617460E+03 -0.31762008214E+03 -0.47861873674E+03  0.73818293334E+03  0.40000000000E+03 0.  1.
<mgrwt>
<rscale>  2 0.56199479E+03</rscale>
<asrwt>0</asrwt>
<pdfrwt beam="1">  1       21 0.41210823E-01 0.56199479E+03</pdfrwt>
<pdfrwt beam="2">  1       21 0.18157011E+00 0.56199479E+03</pdfrwt>
<totfact> 0.80434000E+02</totfact>
</mgrwt>
</event>
<event>
 4    1  0.4890517E-002  0.4545801E+03  0.7818608E-02  0.1026365E+00
         21   -1    0    0  503  502  0.00000000000E+00  0.00000000000E+00  0.12027007949E+04  0.12027007949E+04  0.00000000000E+00 0.  1.
         21   -1    0    0  501  503 -0.00000000000E+00 -0.00000000000E+00 -0.20068753414E+03  0.20068753414E+03  0.00000000000E+00 0.  1.
    9000007    1    1    2  501    0  0.13272470749E+03  0.17037368114E+03  0.23485823538E+03  0.51166534955E+03  0.40000000000E+03 0.  1.
   -9000007    1    1    2    0  502 -0.13272470749E+03 -0.17037368114E+03  0.76715502540E+03  0.89172297952E+03  0.40000000000E+03 0.  1.
<mgrwt>
<rscale>  2 0.45458007E+03</rscale>
<asrwt>0</asrwt>
<pdfrwt beam="1">  1       21 0.18503089E+00 0.45458007E+03</pdfrwt>
<pdfrwt beam="2">  1       21 0.30875006E-01 0.45458007E+03</pdfrwt>
<totfact> 0.14275044E+03</totfact>
</mgrwt>
</event>
<event>
 4    1  0.4890517E-002  0.4734696E+03  0.7818608E-02  0.1020945E+00
         21   -1    0    0  503  502  0.00000000000E+00  0.00000000000E+00  0.93325911599E+03  0.93325911599E+03  0.00000000000E+00 0. -1.
         21   -1    0    0  501  503 -0.00000000000E+00 -0.00000000000E+00 -0.10486831053E+04  0.10486831053E+04  0.00000000000E+00 0.  1.
    9000007    1    1    2  501    0 -0.24596112607E+03  0.60635221929E+02 -0.92781965029E+03  0.10416442815E+04  0.40000000000E+03 0.  1.
   -9000007    1    1    2    0  502  0.24596112607E+03 -0.60635221929E+02  0.81239566096E+03  0.94029793982E+03  0.40000000000E+03 0. -1.
<mgrwt>
<rscale>  2 0.47346965E+03</rscale>
<asrwt>0</asrwt>
<pdfrwt beam="1">  1       21 0.14357833E+00 0.47346965E+03</pdfrwt>
<pdfrwt beam="2">  1       21 0.16133586E+00 0.47346965E+03</pdfrwt>
<totfact> 0.64428945E+01</totfact>
</mgrwt>
</event>
<event>
 4    1  0.4890517E-002  0.4230990E+03  0.7818608E-02  0.1036062E+00
         21   -1    0    0  501  502  0.00000000000E+00  0.00000000000E+00  0.56378551311E+03  0.56378551311E+03  0.00000000000E+00 0. -1.
         21   -1    0    0  502  503 -0.00000000000E+00 -0.00000000000E+00 -0.10332629712E+04  0.10332629712E+04  0.00000000000E+00 0. -1.
    9000007    1    1    2  501    0  0.13750497111E+03  0.10253878411E+02  0.42986296298E+03  0.60315414783E+03  0.40000000000E+03 0. -1.
   -9000007    1    1    2    0  503 -0.13750497111E+03 -0.10253878411E+02 -0.89934042105E+03  0.99389433645E+03  0.40000000000E+03 0. -1.
<mgrwt>
<rscale>  2 0.42309899E+03</rscale>
<asrwt>0</asrwt>
<pdfrwt beam="1">  1       21 0.86736233E-01 0.42309899E+03</pdfrwt>
<pdfrwt beam="2">  1       21 0.15896353E+00 0.42309899E+03</pdfrwt>
<totfact> 0.24325763E+02</totfact>
</mgrwt>
</event>
<event>
 4    1  0.4890517E-002  0.4209669E+03  0.7818608E-02  0.1036752E+00
         21   -1    0    0  503  502  0.00000000000E+00  0.00000000000E+00  0.24385617930E+03  0.24385617930E+03  0.00000000000E+00 0.  1.
         21   -1    0    0  501  503 -0.00000000000E+00 -0.00000000000E+00 -0.75422055512E+03  0.75422055512E+03  0.00000000000E+00 0.  1.
    9000007    1    1    2  501    0  0.78212013613E+02 -0.10533765448E+03 -0.35048834326E+03  0.54777296327E+03  0.40000000000E+03 0.  1.
   -9000007    1    1    2    0  502 -0.78212013613E+02  0.10533765448E+03 -0.15987603256E+03  0.45030377115E+03  0.40000000000E+03 0.  1.
<mgrwt>
<rscale>  2 0.42096691E+03</rscale>
<asrwt>0</asrwt>
<pdfrwt beam="1">  1       21 0.37516336E-01 0.42096691E+03</pdfrwt>
<pdfrwt beam="2">  1       21 0.11603393E+00 0.42096691E+03</pdfrwt>
<totfact> 0.34564884E+03</totfact>
</mgrwt>
</event>
<event>
 4    1  0.4890517E-002  0.4168483E+03  0.7818608E-02  0.1038097E+00
         21   -1    0    0  503  502  0.00000000000E+00  0.00000000000E+00  0.17724651635E+04  0.17724651635E+04  0.00000000000E+00 0. -1.
         21   -1    0    0  501  503 -0.00000000000E+00 -0.00000000000E+00 -0.27115585328E+03  0.27115585328E+03  0.00000000000E+00 0. -1.
    9000007    1    1    2  501    0  0.12174052723E+01  0.11730722503E+03 -0.65808107807E+02  0.42201086973E+03  0.40000000000E+03 0. -1.
   -9000007    1    1    2    0  502 -0.12174052723E+01 -0.11730722503E+03  0.15671174181E+04  0.16216101471E+04  0.40000000000E+03 0. -1.
<mgrwt>
<rscale>  2 0.41684825E+03</rscale>
<asrwt>0</asrwt>
<pdfrwt beam="1">  1       21 0.27268694E+00 0.41684825E+03</pdfrwt>
<pdfrwt beam="2">  1       21 0.41716286E-01 0.41684825E+03</pdfrwt>
<totfact> 0.21912758E+02</totfact>
</mgrwt>
</event>
<event>
 4    1  0.4890517E-002  0.5031249E+03  0.7818608E-02  0.1012966E+00
         21   -1    0    0  501  502  0.00000000000E+00  0.00000000000E+00  0.19234747385E+03  0.19234747385E+03  0.00000000000E+00 0. -1.
         21   -1    0    0  502  503 -0.00000000000E+00 -0.00000000000E+00 -0.15366779039E+04  0.15366779039E+04  0.00000000000E+00 0.  1.
    9000007    1    1    2  501    0 -0.27078024532E+03  0.14075774720E+03 -0.34457441195E+03  0.60980833876E+03  0.40000000000E+03 0. -1.
   -9000007    1    1    2    0  503  0.27078024532E+03 -0.14075774720E+03 -0.99975601814E+03  0.11192170390E+04  0.40000000000E+03 0.  1.
<mgrwt>
<rscale>  2 0.50312492E+03</rscale>
<asrwt>0</asrwt>
<pdfrwt beam="1">  1       21 0.29591918E-01 0.50312492E+03</pdfrwt>
<pdfrwt beam="2">  1       21 0.23641199E+00 0.50312492E+03</pdfrwt>
<totfact> 0.70027334E+02</totfact>
</mgrwt>
</event>
<event>
 4    1  0.4890517E-002  0.4054957E+03  0.7818608E-02  0.1041893E+00
         21   -1    0    0  503  502  0.00000000000E+00  0.00000000000E+00  0.48505924101E+03  0.48505924101E+03  0.00000000000E+00 0. -1.
         21   -1    0    0  501  503 -0.00000000000E+00 -0.00000000000E+00 -0.37604874088E+03  0.37604874088E+03  0.00000000000E+00 0. -1.
    9000007    1    1    2  501    0  0.64872216505E+02  0.14777676530E+02  0.18967905120E+03  0.44766608835E+03  0.40000000000E+03 0. -1.
   -9000007    1    1    2    0  502 -0.64872216505E+02 -0.14777676530E+02 -0.80668551074E+02  0.41344189354E+03  0.40000000000E+03 0. -1.
<mgrwt>
<rscale>  2 0.40549573E+03</rscale>
<asrwt>0</asrwt>
<pdfrwt beam="1">  1       21 0.74624499E-01 0.40549573E+03</pdfrwt>
<pdfrwt beam="2">  1       21 0.57853652E-01 0.40549573E+03</pdfrwt>
<totfact> 0.40077630E+03</totfact>
</mgrwt>
</event>
<event>
 4    1  0.4890517E-002  0.4195323E+03  0.7818608E-02  0.1037219E+00
         21   -1    0    0  501  502  0.00000000000E+00  0.00000000000E+00  0.62532349922E+03  0.62532349922E+03  0.00000000000E+00 0.  1.
         21   -1    0    0  502  503 -0.00000000000E+00 -0.00000000000E+00 -0.52670805475E+03  0.52670805475E+03  0.00000000000E+00 0.  1.
    9000007    1    1    2  501    0  0.10449876916E+03  0.71325811243E+02  0.44235680481E+03  0.60966130505E+03  0.40000000000E+03 0.  1.
   -9000007    1    1    2    0  503 -0.10449876916E+03 -0.71325811243E+02 -0.34374136035E+03  0.54237024893E+03  0.40000000000E+03 0.  1.
<mgrwt>
<rscale>  2 0.41953232E+03</rscale>
<asrwt>0</asrwt>
<pdfrwt beam="1">  1       21 0.96203615E-01 0.41953232E+03</pdfrwt>
<pdfrwt beam="2">  1       21 0.81032009E-01 0.41953232E+03</pdfrwt>
<totfact> 0.10355682E+03</totfact>
</mgrwt>
</event>
<event>
 4    1  0.4890517E-002  0.4322858E+03  0.7818608E-02  0.1033140E+00
         21   -1    0    0  501  502  0.00000000000E+00  0.00000000000E+00  0.37851061700E+03  0.37851061700E+03  0.00000000000E+00 0. -1.
         21   -1    0    0  502  503 -0.00000000000E+00 -0.00000000000E+00 -0.96134941163E+03  0.96134941163E+03  0.00000000000E+00 0. -1.
    9000007    1    1    2  501    0 -0.15711388977E+03  0.46756953872E+02  0.17582987835E+03  0.46667669024E+03  0.40000000000E+03 0. -1.
   -9000007    1    1    2    0  503  0.15711388977E+03 -0.46756953872E+02 -0.75866867297E+03  0.87318333839E+03  0.40000000000E+03 0. -1.
<mgrwt>
<rscale>  2 0.43228577E+03</rscale>
<asrwt>0</asrwt>
<pdfrwt beam="1">  1       21 0.58232402E-01 0.43228577E+03</pdfrwt>
<pdfrwt beam="2">  1       21 0.14789991E+00 0.43228577E+03</pdfrwt>
<totfact> 0.72513960E+02</totfact>
</mgrwt>
</event>
<event>
 4    1  0.4890517E-002  0.7286621E+03  0.7818608E-02  0.9669434E-01
         21   -1    0    0  503  502  0.00000000000E+00  0.00000000000E+00  0.36118900013E+03  0.36118900013E+03  0.00000000000E+00 0.  1.
         21   -1    0    0  501  503 -0.00000000000E+00 -0.00000000000E+00 -0.16971638228E+04  0.16971638228E+04  0.00000000000E+00 0. -1.
    9000007    1    1    2  501    0 -0.52110540339E+03 -0.31527392421E+03 -0.10445141150E+04  0.12735612373E+04  0.40000000000E+03 0.  1.
   -9000007    1    1    2    0  502  0.52110540339E+03  0.31527392421E+03 -0.29146070767E+03  0.78479158561E+03  0.40000000000E+03 0.  1.
<mgrwt>
<rscale>  2 0.72866212E+03</rscale>
<asrwt>0</asrwt>
<pdfrwt beam="1">  1       21 0.55567537E-01 0.72866212E+03</pdfrwt>
<pdfrwt beam="2">  1       21 0.26110213E+00 0.72866212E+03</pdfrwt>
<totfact> 0.12114876E+02</totfact>
</mgrwt>
</event>
<event>
 4    1  0.4890517E-002  0.5497286E+03  0.7818608E-02  0.1001557E+00
         21   -1    0    0  503  502  0.00000000000E+00  0.00000000000E+00  0.30337408126E+03  0.30337408126E+03  0.00000000000E+00 0. -1.
         21   -1    0    0  501  503 -0.00000000000E+00 -0.00000000000E+00 -0.13056983274E+04  0.13056983274E+04  0.00000000000E+00 0.  1.
    9000007    1    1    2  501    0  0.99511120322E+02 -0.36372945537E+03 -0.89290294526E+03  0.10485596070E+04  0.40000000000E+03 0.  1.
   -9000007    1    1    2    0  502 -0.99511120322E+02  0.36372945537E+03 -0.10942130093E+03  0.56051280170E+03  0.40000000000E+03 0. -1.
<mgrwt>
<rscale>  2 0.54972864E+03</rscale>
<asrwt>0</asrwt>
<pdfrwt beam="1">  1       21 0.46672936E-01 0.54972864E+03</pdfrwt>
<pdfrwt beam="2">  1       21 0.20087666E+00 0.54972864E+03</pdfrwt>
<totfact> 0.45841321E+02</totfact>
</mgrwt>
</event>
<event>
 4    1  0.4890517E-002  0.4806158E+03  0.7818608E-02  0.1018966E+00
         21   -1    0    0  503  502  0.00000000000E+00  0.00000000000E+00  0.49744286448E+03  0.49744286448E+03  0.00000000000E+00 0. -1.
         21   -1    0    0  501  503 -0.00000000000E+00 -0.00000000000E+00 -0.63876991053E+03  0.63876991053E+03  0.00000000000E+00 0. -1.
    9000007    1    1    2  501    0 -0.11644930977E+03 -0.23964791923E+03 -0.36751931962E+03  0.60503059198E+03  0.40000000000E+03 0. -1.
   -9000007    1    1    2    0  502  0.11644930977E+03  0.23964791923E+03  0.22619227358E+03  0.53118218302E+03  0.40000000000E+03 0. -1.
<mgrwt>
<rscale>  2 0.48061582E+03</rscale>
<asrwt>0</asrwt>
<pdfrwt beam="1">  1       21 0.76529672E-01 0.48061582E+03</pdfrwt>
<pdfrwt beam="2">  1       21 0.98272293E-01 0.48061582E+03</pdfrwt>
<totfact> 0.10944796E+03</totfact>
</mgrwt>
</event>
<event>
 4    1  0.4890517E-002  0.7814430E+03  0.7818608E-02  0.9587273E-01
         21   -1    0    0  503  502  0.00000000000E+00  0.00000000000E+00  0.17449437382E+03  0.17449437382E+03  0.00000000000E+00 0. -1.
         21   -1    0    0  501  503 -0.00000000000E+00 -0.00000000000E+00 -0.35119259484E+04  0.35119259484E+04  0.00000000000E+00 0.  1.
    9000007    1    1    2  501    0 -0.67098664792E+03 -0.20739367046E+02 -0.15593330256E+04  0.17441825270E+04  0.40000000000E+03 0.  1.
   -9000007    1    1    2    0  502  0.67098664792E+03  0.20739367046E+02 -0.17780985490E+04  0.19422377952E+04  0.40000000000E+03 0. -1.
<mgrwt>
<rscale>  2 0.78144303E+03</rscale>
<asrwt>0</asrwt>
<pdfrwt beam="1">  1       21 0.26845288E-01 0.78144303E+03</pdfrwt>
<pdfrwt beam="2">  1       21 0.54029630E+00 0.78144303E+03</pdfrwt>
<totfact> 0.76520872E+00</totfact>
</mgrwt>
</event>
<event>
 4    1  0.4890517E-002  0.4303459E+03  0.7818608E-02  0.1033751E+00
         21   -1    0    0  503  502  0.00000000000E+00  0.00000000000E+00  0.69689235033E+03  0.69689235033E+03  0.00000000000E+00 0. -1.
         21   -1    0    0  501  503 -0.00000000000E+00 -0.00000000000E+00 -0.49454129825E+03  0.49454129825E+03  0.00000000000E+00 0. -1.
    9000007    1    1    2  501    0 -0.22525106974E+02 -0.15713127212E+03 -0.30401605354E+03  0.52689977978E+03  0.40000000000E+03 0. -1.
   -9000007    1    1    2    0  502  0.22525106974E+02  0.15713127212E+03  0.50636710562E+03  0.66453386880E+03  0.40000000000E+03 0. -1.
<mgrwt>
<rscale>  2 0.43034593E+03</rscale>
<asrwt>0</asrwt>
<pdfrwt beam="1">  1       21 0.10721421E+00 0.43034593E+03</pdfrwt>
<pdfrwt beam="2">  1       21 0.76083276E-01 0.43034593E+03</pdfrwt>
<totfact> 0.91490111E+02</totfact>
</mgrwt>
</event>
<event>
 4    1  0.4890517E-002  0.5168561E+03  0.7818608E-02  0.1009471E+00
         21   -1    0    0  501  502  0.00000000000E+00  0.00000000000E+00  0.61831053249E+03  0.61831053249E+03  0.00000000000E+00 0.  1.
         21   -1    0    0  502  503 -0.00000000000E+00 -0.00000000000E+00 -0.70832070396E+03  0.70832070396E+03  0.00000000000E+00 0. -1.
    9000007    1    1    2  501    0 -0.31472252520E+03 -0.89944037216E+02  0.36925565312E+03  0.63520857603E+03  0.40000000000E+03 0.  1.
   -9000007    1    1    2    0  503  0.31472252520E+03  0.89944037216E+02 -0.45926582459E+03  0.69142266042E+03  0.40000000000E+03 0. -1.
<mgrwt>
<rscale>  2 0.51685607E+03</rscale>
<asrwt>0</asrwt>
<pdfrwt beam="1">  1       21 0.95124698E-01 0.51685607E+03</pdfrwt>
<pdfrwt beam="2">  1       21 0.10897242E+00 0.51685607E+03</pdfrwt>
<totfact> 0.50234520E+02</totfact>
</mgrwt>
</event>
<event>
 4    1  0.4890517E-002  0.6082844E+03  0.7818608E-02  0.9888366E-01
         21   -1    0    0  503  502  0.00000000000E+00  0.00000000000E+00  0.32137484240E+03  0.32137484240E+03  0.00000000000E+00 0. -1.
         21   -1    0    0  501  503 -0.00000000000E+00 -0.00000000000E+00 -0.12447830517E+04  0.12447830517E+04  0.00000000000E+00 0.  1.
    9000007    1    1    2  501    0 -0.10217669809E+03 -0.44673242041E+03 -0.67626228512E+03  0.90958265779E+03  0.40000000000E+03 0.  1.
   -9000007    1    1    2    0  502  0.10217669809E+03  0.44673242041E+03 -0.24714592415E+03  0.65657523629E+03  0.40000000000E+03 0. -1.
<mgrwt>
<rscale>  2 0.60828442E+03</rscale>
<asrwt>0</asrwt>
<pdfrwt beam="1">  1       21 0.49442283E-01 0.60828442E+03</pdfrwt>
<pdfrwt beam="2">  1       21 0.19150509E+00 0.60828442E+03</pdfrwt>
<totfact> 0.45944605E+02</totfact>
</mgrwt>
</event>
<event>
 4    1  0.4890517E-002  0.5783779E+03  0.7818608E-02  0.9951309E-01
         21   -1    0    0  503  502  0.00000000000E+00  0.00000000000E+00  0.19655569245E+04  0.19655569245E+04  0.00000000000E+00 0. -1.
         21   -1    0    0  501  503 -0.00000000000E+00 -0.00000000000E+00 -0.21428311811E+03  0.21428311811E+03  0.00000000000E+00 0.  1.
    9000007    1    1    2  501    0  0.38177968343E+03 -0.16960313662E+03  0.38123629333E+03  0.69272076769E+03  0.40000000000E+03 0.  1.
   -9000007    1    1    2    0  502 -0.38177968343E+03  0.16960313662E+03  0.13700375131E+04  0.14871192749E+04  0.40000000000E+03 0. -1.
<mgrwt>
<rscale>  2 0.57837786E+03</rscale>
<asrwt>0</asrwt>
<pdfrwt beam="1">  1       21 0.30239336E+00 0.57837786E+03</pdfrwt>
<pdfrwt beam="2">  1       21 0.32966635E-01 0.57837786E+03</pdfrwt>
<totfact> 0.21482141E+02</totfact>
</mgrwt>
</event>
<event>
 4    1  0.4890517E-002  0.5116301E+03  0.7818608E-02  0.1010787E+00
         21   -1    0    0  503  502  0.00000000000E+00  0.00000000000E+00  0.38274372866E+03  0.38274372866E+03  0.00000000000E+00 0.  1.
         21   -1    0    0  501  503 -0.00000000000E+00 -0.00000000000E+00 -0.12569048533E+04  0.12569048533E+04  0.00000000000E+00 0.  1.
    9000007    1    1    2  501    0 -0.28521905282E+03  0.14288258825E+03 -0.99061149165E+03  0.11149333924E+04  0.40000000000E+03 0.  1.
   -9000007    1    1    2    0  502  0.28521905282E+03 -0.14288258825E+03  0.11645036704E+03  0.52471518951E+03  0.40000000000E+03 0.  1.
<mgrwt>
<rscale>  2 0.51163008E+03</rscale>
<asrwt>0</asrwt>
<pdfrwt beam="1">  1       21 0.58883651E-01 0.51163008E+03</pdfrwt>
<pdfrwt beam="2">  1       21 0.19336998E+00 0.51163008E+03</pdfrwt>
<totfact> 0.31759086E+02</totfact>
</mgrwt>
</event>
<event>
 4    1  0.4890517E-002  0.4695525E+03  0.7818608E-02  0.1022047E+00
         21   -1    0    0  503  502  0.00000000000E+00  0.00000000000E+00  0.73013201672E+03  0.73013201672E+03  0.00000000000E+00 0. -1.
         21   -1    0    0  501  503 -0.00000000000E+00 -0.00000000000E+00 -0.36877186938E+03  0.36877186938E+03  0.00000000000E+00 0. -1.
    9000007    1    1    2  501    0  0.13309714669E+03 -0.20679616338E+03 -0.53170413602E+02  0.47255327375E+03  0.40000000000E+03 0. -1.
   -9000007    1    1    2    0  502 -0.13309714669E+03  0.20679616338E+03  0.41453056093E+03  0.62635061235E+03  0.40000000000E+03 0. -1.
<mgrwt>
<rscale>  2 0.46955245E+03</rscale>
<asrwt>0</asrwt>
<pdfrwt beam="1">  1       21 0.11232800E+00 0.46955245E+03</pdfrwt>
<pdfrwt beam="2">  1       21 0.56734134E-01 0.46955245E+03</pdfrwt>
<totfact> 0.15421107E+03</totfact>
</mgrwt>
</event>
<event>
 4    1  0.4890517E-002  0.5292648E+03  0.7818608E-02  0.1006411E+00
         21   -1    0    0  503  502  0.00000000000E+00  0.00000000000E+00  0.24316067506E+03  0.24316067506E+03  0.00000000000E+00 0. -1.
         21   -1    0    0  501  503 -0.00000000000E+00 -0.00000000000E+00 -0.11890561016E+04  0.11890561016E+04  0.00000000000E+00 0. -1.
    9000007    1    1    2  501    0  0.31754097265E+03  0.13888482693E+03 -0.59936411723E+03  0.79959903044E+03  0.40000000000E+03 0. -1.
   -9000007    1    1    2    0  502 -0.31754097265E+03 -0.13888482693E+03 -0.34653130927E+03  0.63261774617E+03  0.40000000000E+03 0. -1.
<mgrwt>
<rscale>  2 0.52926483E+03</rscale>
<asrwt>0</asrwt>
<pdfrwt beam="1">  1       21 0.37409334E-01 0.52926483E+03</pdfrwt>
<pdfrwt beam="2">  1       21 0.18293171E+00 0.52926483E+03</pdfrwt>
<totfact> 0.97225103E+02</totfact>
</mgrwt>
</event>
<event>
 4    1  0.4890517E-002  0.4288364E+03  0.7818608E-02  0.1034228E+00
         21   -1    0    0  501  502  0.00000000000E+00  0.00000000000E+00  0.17053843482E+04  0.17053843482E+04  0.00000000000E+00 0. -1.
         21   -1    0    0  502  503 -0.00000000000E+00 -0.00000000000E+00 -0.37521752959E+03  0.37521752959E+03  0.00000000000E+00 0. -1.
    9000007    1    1    2  501    0  0.61032925973E+02 -0.14204090264E+03  0.15432637270E+04  0.16017376711E+04  0.40000000000E+03 0. -1.
   -9000007    1    1    2    0  503 -0.61032925973E+02  0.14204090264E+03 -0.21309690836E+03  0.47886420667E+03  0.40000000000E+03 0. -1.
<mgrwt>
<rscale>  2 0.42883637E+03</rscale>
<asrwt>0</asrwt>
<pdfrwt beam="1">  1       21 0.26236682E+00 0.42883637E+03</pdfrwt>
<pdfrwt beam="2">  1       21 0.57725775E-01 0.42883637E+03</pdfrwt>
<totfact> 0.12613332E+02</totfact>
</mgrwt>
</event>
<event>
 4    1  0.4890517E-002  0.5207409E+03  0.7818608E-02  0.1008503E+00
         21   -1    0    0  503  502  0.00000000000E+00  0.00000000000E+00  0.29551066889E+04  0.29551066889E+04  0.00000000000E+00 0.  1.
         21   -1    0    0  501  503 -0.00000000000E+00 -0.00000000000E+00 -0.19717546920E+03  0.19717546920E+03  0.00000000000E+00 0.  1.
    9000007    1    1    2  501    0  0.13047575410E+03  0.30683412450E+03  0.22653843223E+03  0.56788270236E+03  0.40000000000E+03 0.  1.
   -9000007    1    1    2    0  502 -0.13047575410E+03 -0.30683412450E+03  0.25313927875E+04  0.25843994557E+04  0.40000000000E+03 0.  1.
<mgrwt>
<rscale>  2 0.52074092E+03</rscale>
<asrwt>0</asrwt>
<pdfrwt beam="1">  1       21 0.45463176E+00 0.52074092E+03</pdfrwt>
<pdfrwt beam="2">  1       21 0.30334690E-01 0.52074092E+03</pdfrwt>
<totfact> 0.28141567E+01</totfact>
</mgrwt>
</event>
<event>
 4    1  0.4890517E-002  0.4281314E+03  0.7818608E-02  0.1034452E+00
         21   -1    0    0  501  502  0.00000000000E+00  0.00000000000E+00  0.18133990581E+03  0.18133990581E+03  0.00000000000E+00 0. -1.
         21   -1    0    0  502  503 -0.00000000000E+00 -0.00000000000E+00 -0.14215581136E+04  0.14215581136E+04  0.00000000000E+00 0. -1.
    9000007    1    1    2  501    0  0.11358974090E+03 -0.10195032100E+03 -0.18929278838E+03  0.46811137235E+03  0.40000000000E+03 0. -1.
   -9000007    1    1    2    0  503 -0.11358974090E+03  0.10195032100E+03 -0.10509254194E+04  0.11347866470E+04  0.40000000000E+03 0. -1.
<mgrwt>
<rscale>  2 0.42813140E+03</rscale>
<asrwt>0</asrwt>
<pdfrwt beam="1">  1       21 0.27898447E-01 0.42813140E+03</pdfrwt>
<pdfrwt beam="2">  1       21 0.21870125E+00 0.42813140E+03</pdfrwt>
<totfact> 0.10551575E+03</totfact>
</mgrwt>
</event>
<event>
 4    1  0.4890517E-002  0.4169812E+03  0.7818608E-02  0.1038053E+00
         21   -1    0    0  503  502  0.00000000000E+00  0.00000000000E+00  0.13989212258E+04  0.13989212258E+04  0.00000000000E+00 0.  1.
         21   -1    0    0  501  503 -0.00000000000E+00 -0.00000000000E+00 -0.12872765846E+03  0.12872765846E+03  0.00000000000E+00 0. -1.
    9000007    1    1    2  501    0  0.11750717333E+03  0.80867130463E+01  0.49329386391E+03  0.64591962881E+03  0.40000000000E+03 0. -1.
   -9000007    1    1    2    0  502 -0.11750717333E+03 -0.80867130463E+01  0.77689970345E+03  0.88172925546E+03  0.40000000000E+03 0.  1.
<mgrwt>
<rscale>  2 0.41698121E+03</rscale>
<asrwt>0</asrwt>
<pdfrwt beam="1">  1       21 0.21521864E+00 0.41698121E+03</pdfrwt>
<pdfrwt beam="2">  1       21 0.19804256E-01 0.41698121E+03</pdfrwt>
<totfact> 0.21650658E+03</totfact>
</mgrwt>
</event>
<event>
 4    1  0.4890517E-002  0.6322818E+03  0.7818608E-02  0.9840606E-01
         21   -1    0    0  503  502  0.00000000000E+00  0.00000000000E+00  0.45853080567E+03  0.45853080567E+03  0.00000000000E+00 0. -1.
         21   -1    0    0  501  503 -0.00000000000E+00 -0.00000000000E+00 -0.94426654434E+03  0.94426654434E+03  0.00000000000E+00 0.  1.
    9000007    1    1    2  501    0  0.48868628330E+03  0.31080077395E+02 -0.43707716316E+03  0.76864601817E+03  0.40000000000E+03 0.  1.
   -9000007    1    1    2    0  502 -0.48868628330E+03 -0.31080077395E+02 -0.48658575508E+02  0.63415133183E+03  0.40000000000E+03 0. -1.
<mgrwt>
<rscale>  2 0.63228178E+03</rscale>
<asrwt>0</asrwt>
<pdfrwt beam="1">  1       21 0.70543201E-01 0.63228178E+03</pdfrwt>
<pdfrwt beam="2">  1       21 0.14527178E+00 0.63228178E+03</pdfrwt>
<totfact> 0.46013684E+02</totfact>
</mgrwt>
</event>
<event>
 4    1  0.4890517E-002  0.5989430E+03  0.7818608E-02  0.9907601E-01
         21   -1    0    0  501  502  0.00000000000E+00  0.00000000000E+00  0.74586139944E+03  0.74586139944E+03  0.00000000000E+00 0. -1.
         21   -1    0    0  502  503 -0.00000000000E+00 -0.00000000000E+00 -0.66497758477E+03  0.66497758477E+03  0.00000000000E+00 0. -1.
    9000007    1    1    2  501    0  0.83206925955E+02 -0.43796037889E+03  0.41152278334E+03  0.72669366807E+03  0.40000000000E+03 0. -1.
   -9000007    1    1    2    0  503 -0.83206925955E+02  0.43796037889E+03 -0.33063896866E+03  0.68414531614E+03  0.40000000000E+03 0. -1.
<mgrwt>
<rscale>  2 0.59894297E+03</rscale>
<asrwt>0</asrwt>
<pdfrwt beam="1">  1       21 0.11474791E+00 0.59894297E+03</pdfrwt>
<pdfrwt beam="2">  1       21 0.10230424E+00 0.59894297E+03</pdfrwt>
<totfact> 0.35879127E+02</totfact>
</mgrwt>
</event>
<event>
 4    1  0.4890517E-002  0.5982821E+03  0.7818608E-02  0.9908977E-01
         21   -1    0    0  501  502  0.00000000000E+00  0.00000000000E+00  0.82200712728E+03  0.82200712728E+03  0.00000000000E+00 0. -1.
         21   -1    0    0  502  503 -0.00000000000E+00 -0.00000000000E+00 -0.49128821809E+03  0.49128821809E+03  0.00000000000E+00 0. -1.
    9000007    1    1    2  501    0 -0.43155464239E+03  0.10817602568E+03  0.38673890428E+03  0.71239626753E+03  0.40000000000E+03 0. -1.
   -9000007    1    1    2    0  503  0.43155464239E+03 -0.10817602568E+03 -0.56019995094E+02  0.60089907784E+03  0.40000000000E+03 0. -1.
<mgrwt>
<rscale>  2 0.59828209E+03</rscale>
<asrwt>0</asrwt>
<pdfrwt beam="1">  1       21 0.12646263E+00 0.59828209E+03</pdfrwt>
<pdfrwt beam="2">  1       21 0.75582803E-01 0.59828209E+03</pdfrwt>
<totfact> 0.57418139E+02</totfact>
</mgrwt>
</event>
<event>
 4    1  0.4890517E-002  0.5272172E+03  0.7818608E-02  0.1006909E+00
         21   -1    0    0  501  502  0.00000000000E+00  0.00000000000E+00  0.16695671008E+03  0.16695671008E+03  0.00000000000E+00 0. -1.
         21   -1    0    0  502  503 -0.00000000000E+00 -0.00000000000E+00 -0.16784315474E+04  0.16784315474E+04  0.00000000000E+00 0. -1.
    9000007    1    1    2  501    0 -0.47614142103E+02 -0.34013363364E+03 -0.67273907758E+03  0.85471390639E+03  0.40000000000E+03 0. -1.
   -9000007    1    1    2    0  503  0.47614142103E+02  0.34013363364E+03 -0.83873575972E+03  0.99067435108E+03  0.40000000000E+03 0. -1.
<mgrwt>
<rscale>  2 0.52721722E+03</rscale>
<asrwt>0</asrwt>
<pdfrwt beam="1">  1       21 0.25685649E-01 0.52721722E+03</pdfrwt>
<pdfrwt beam="2">  1       21 0.25822023E+00 0.52721722E+03</pdfrwt>
<totfact> 0.67113063E+02</totfact>
</mgrwt>
</event>
<event>
 4    1  0.4890517E-002  0.4372813E+03  0.7818608E-02  0.1031584E+00
         21   -1    0    0  501  502  0.00000000000E+00  0.00000000000E+00  0.23499595796E+03  0.23499595796E+03  0.00000000000E+00 0. -1.
         21   -1    0    0  502  503 -0.00000000000E+00 -0.00000000000E+00 -0.98283255609E+03  0.98283255609E+03  0.00000000000E+00 0. -1.
    9000007    1    1    2  501    0 -0.49953732688E+02  0.16946834387E+03 -0.12131607401E+03  0.45379784574E+03  0.40000000000E+03 0. -1.
   -9000007    1    1    2    0  503  0.49953732688E+02 -0.16946834387E+03 -0.62652052411E+03  0.76403066831E+03  0.40000000000E+03 0. -1.
<mgrwt>
<rscale>  2 0.43728125E+03</rscale>
<asrwt>0</asrwt>
<pdfrwt beam="1">  1       21 0.36153224E-01 0.43728125E+03</pdfrwt>
<pdfrwt beam="2">  1       21 0.15120501E+00 0.43728125E+03</pdfrwt>
<totfact> 0.18549265E+03</totfact>
</mgrwt>
</event>
<event>
 4    1  0.4890517E-002  0.5539595E+03  0.7818608E-02  0.1000582E+00
         21   -1    0    0  503  502  0.00000000000E+00  0.00000000000E+00  0.55800216476E+03  0.55800216476E+03  0.00000000000E+00 0.  1.
         21   -1    0    0  501  503 -0.00000000000E+00 -0.00000000000E+00 -0.66334695215E+03  0.66334695215E+03  0.00000000000E+00 0.  1.
    9000007    1    1    2  501    0  0.36013055806E+03 -0.13106131009E+03 -0.30516444734E+03  0.63245270635E+03  0.40000000000E+03 0.  1.
   -9000007    1    1    2    0  502 -0.36013055806E+03  0.13106131009E+03  0.19981965995E+03  0.58889641055E+03  0.40000000000E+03 0.  1.
<mgrwt>
<rscale>  2 0.55395946E+03</rscale>
<asrwt>0</asrwt>
<pdfrwt beam="1">  1       21 0.85846488E-01 0.55395946E+03</pdfrwt>
<pdfrwt beam="2">  1       21 0.10205338E+00 0.55395946E+03</pdfrwt>
<totfact> 0.74432540E+02</totfact>
</mgrwt>
</event>
<event>
 4    1  0.4890517E-002  0.5177299E+03  0.7818608E-02  0.1009252E+00
         21   -1    0    0  501  502  0.00000000000E+00  0.00000000000E+00  0.60476765676E+03  0.60476765676E+03  0.00000000000E+00 0.  1.
         21   -1    0    0  502  503 -0.00000000000E+00 -0.00000000000E+00 -0.76514221491E+03  0.76514221491E+03  0.00000000000E+00 0. -1.
    9000007    1    1    2  501    0 -0.13953841830E+02 -0.32840449187E+03  0.36410359833E+03  0.63294205920E+03  0.40000000000E+03 0.  1.
   -9000007    1    1    2    0  503  0.13953841830E+02  0.32840449187E+03 -0.52447815649E+03  0.73696781247E+03  0.40000000000E+03 0. -1.
<mgrwt>
<rscale>  2 0.51772987E+03</rscale>
<asrwt>0</asrwt>
<pdfrwt beam="1">  1       21 0.93041178E-01 0.51772987E+03</pdfrwt>
<pdfrwt beam="2">  1       21 0.11771419E+00 0.51772987E+03</pdfrwt>
<totfact> 0.43654482E+02</totfact>
</mgrwt>
</event>
<event>
 4    1  0.4890517E-002  0.4124350E+03  0.7818608E-02  0.1039557E+00
         21   -1    0    0  503  502  0.00000000000E+00  0.00000000000E+00  0.44983169284E+03  0.44983169284E+03  0.00000000000E+00 0. -1.
         21   -1    0    0  501  503 -0.00000000000E+00 -0.00000000000E+00 -0.38356710738E+03  0.38356710738E+03  0.00000000000E+00 0. -1.
    9000007    1    1    2  501    0  0.98535966347E+02 -0.19830976392E+02 -0.16401012979E+02  0.41276094476E+03  0.40000000000E+03 0. -1.
   -9000007    1    1    2    0  502 -0.98535966347E+02  0.19830976392E+02  0.82665598437E+02  0.42063785547E+03  0.40000000000E+03 0. -1.
<mgrwt>
<rscale>  2 0.41243497E+03</rscale>
<asrwt>0</asrwt>
<pdfrwt beam="1">  1       21 0.69204876E-01 0.41243497E+03</pdfrwt>
<pdfrwt beam="2">  1       21 0.59010324E-01 0.41243497E+03</pdfrwt>
<totfact> 0.45393368E+03</totfact>
</mgrwt>
</event>
<event>
 4    1  0.4890517E-002  0.4692150E+03  0.7818608E-02  0.1022142E+00
         21   -1    0    0  503  502  0.00000000000E+00  0.00000000000E+00  0.67995637423E+03  0.67995637423E+03  0.00000000000E+00 0.  1.
         21   -1    0    0  501  503 -0.00000000000E+00 -0.00000000000E+00 -0.37853653598E+03  0.37853653598E+03  0.00000000000E+00 0.  1.
    9000007    1    1    2  501    0 -0.89790952617E+02 -0.22825488455E+03 -0.50562616963E+02  0.47193144176E+03  0.40000000000E+03 0.  1.
   -9000007    1    1    2    0  502  0.89790952617E+02  0.22825488455E+03  0.35198245521E+03  0.58656146845E+03  0.40000000000E+03 0.  1.
<mgrwt>
<rscale>  2 0.46921499E+03</rscale>
<asrwt>0</asrwt>
<pdfrwt beam="1">  1       21 0.10460867E+00 0.46921499E+03</pdfrwt>
<pdfrwt beam="2">  1       21 0.58236390E-01 0.46921499E+03</pdfrwt>
<totfact> 0.17381007E+03</totfact>
</mgrwt>
</event>
<event>
 4    1  0.4890517E-002  0.5960021E+03  0.7818608E-02  0.9913735E-01
         21   -1    0    0  503  502  0.00000000000E+00  0.00000000000E+00  0.63955836029E+03  0.63955836029E+03  0.00000000000E+00 0.  1.
         21   -1    0    0  501  503 -0.00000000000E+00 -0.00000000000E+00 -0.56554958261E+03  0.56554958261E+03  0.00000000000E+00 0. -1.
    9000007    1    1    2  501    0  0.21454529427E+03  0.38624973950E+03  0.11767634166E+03  0.60750824352E+03  0.40000000000E+03 0.  1.
   -9000007    1    1    2    0  502 -0.21454529427E+03 -0.38624973950E+03 -0.43667563971E+02  0.59759969938E+03  0.40000000000E+03 0. -1.
<mgrwt>
<rscale>  2 0.59600213E+03</rscale>
<asrwt>0</asrwt>
<pdfrwt beam="1">  1       21 0.98393594E-01 0.59600213E+03</pdfrwt>
<pdfrwt beam="2">  1       21 0.87007628E-01 0.59600213E+03</pdfrwt>
<totfact> 0.77763019E+02</totfact>
</mgrwt>
</event>
<event>
 4    1  0.4890517E-002  0.4190645E+03  0.7818608E-02  0.1037371E+00
         21   -1    0    0  503  502  0.00000000000E+00  0.00000000000E+00  0.99765293394E+03  0.99765293394E+03  0.00000000000E+00 0. -1.
         21   -1    0    0  501  503 -0.00000000000E+00 -0.00000000000E+00 -0.50999253055E+03  0.50999253055E+03  0.00000000000E+00 0.  1.
    9000007    1    1    2  501    0  0.50089700388E+02 -0.11448171011E+03 -0.36618038296E+03  0.55650975993E+03  0.40000000000E+03 0.  1.
   -9000007    1    1    2    0  502 -0.50089700388E+02  0.11448171011E+03  0.85384078635E+03  0.95113570455E+03  0.40000000000E+03 0. -1.
<mgrwt>
<rscale>  2 0.41906448E+03</rscale>
<asrwt>0</asrwt>
<pdfrwt beam="1">  1       21 0.15348507E+00 0.41906448E+03</pdfrwt>
<pdfrwt beam="2">  1       21 0.78460389E-01 0.41906448E+03</pdfrwt>
<totfact> 0.33886317E+02</totfact>
</mgrwt>
</event>
<event>
 4    1  0.4890517E-002  0.5189608E+03  0.7818608E-02  0.1008945E+00
         21   -1    0    0  501  502  0.00000000000E+00  0.00000000000E+00  0.12204048288E+03  0.12204048288E+03  0.00000000000E+00 0.  1.
         21   -1    0    0  502  503 -0.00000000000E+00 -0.00000000000E+00 -0.22854500226E+04  0.22854500226E+04  0.00000000000E+00 0. -1.
    9000007    1    1    2  501    0 -0.30096314687E+03  0.13689951600E+03 -0.85841569307E+03  0.10030941109E+04  0.40000000000E+03 0. -1.
   -9000007    1    1    2    0  503  0.30096314687E+03 -0.13689951600E+03 -0.13049938466E+04  0.14043963945E+04  0.40000000000E+03 0.  1.
<mgrwt>
<rscale>  2 0.51896078E+03</rscale>
<asrwt>0</asrwt>
<pdfrwt beam="1">  1       21 0.18775460E-01 0.51896078E+03</pdfrwt>
<pdfrwt beam="2">  1       21 0.35160768E+00 0.51896078E+03</pdfrwt>
<totfact> 0.33267792E+02</totfact>
</mgrwt>
</event>
<event>
 4    1  0.4890517E-002  0.4491709E+03  0.7818608E-02  0.1027970E+00
         21   -1    0    0  503  502  0.00000000000E+00  0.00000000000E+00  0.75730607264E+03  0.75730607264E+03  0.00000000000E+00 0.  1.
         21   -1    0    0  501  503 -0.00000000000E+00 -0.00000000000E+00 -0.28017730691E+03  0.28017730691E+03  0.00000000000E+00 0.  1.
    9000007    1    1    2  501    0 -0.14407116503E+03  0.14490694267E+03  0.35355076991E+03  0.57162283853E+03  0.40000000000E+03 0.  1.
   -9000007    1    1    2    0  502  0.14407116503E+03 -0.14490694267E+03  0.12357799582E+03  0.46586054102E+03  0.40000000000E+03 0.  1.
<mgrwt>
<rscale>  2 0.44917093E+03</rscale>
<asrwt>0</asrwt>
<pdfrwt beam="1">  1       21 0.11650863E+00 0.44917093E+03</pdfrwt>
<pdfrwt beam="2">  1       21 0.43104201E-01 0.44917093E+03</pdfrwt>
<totfact> 0.25431369E+03</totfact>
</mgrwt>
</event>
<event>
 4    1  0.4890517E-002  0.4330588E+03  0.7818608E-02  0.1032898E+00
         21   -1    0    0  503  502  0.00000000000E+00  0.00000000000E+00  0.24178537270E+03  0.24178537270E+03  0.00000000000E+00 0. -1.
         21   -1    0    0  501  503 -0.00000000000E+00 -0.00000000000E+00 -0.79985277376E+03  0.79985277376E+03  0.00000000000E+00 0.  1.
    9000007    1    1    2  501    0 -0.10385583258E+03  0.12943689279E+03 -0.36963764771E+03  0.56936098723E+03  0.40000000000E+03 0. -1.
   -9000007    1    1    2    0  502  0.10385583258E+03 -0.12943689279E+03 -0.18842975335E+03  0.47227715923E+03  0.40000000000E+03 0. -1.
<mgrwt>
<rscale>  2 0.43305882E+03</rscale>
<asrwt>0</asrwt>
<pdfrwt beam="1">  1       21 0.37197750E-01 0.43305882E+03</pdfrwt>
<pdfrwt beam="2">  1       21 0.12305427E+00 0.43305882E+03</pdfrwt>
<totfact> 0.30169598E+03</totfact>
</mgrwt>
</event>
<event>
 4    1  0.4890517E-002  0.5208229E+03  0.7818608E-02  0.1008482E+00
         21   -1    0    0  501  502  0.00000000000E+00  0.00000000000E+00  0.17878545445E+04  0.17878545445E+04  0.00000000000E+00 0.  1.
         21   -1    0    0  502  503 -0.00000000000E+00 -0.00000000000E+00 -0.15345108897E+03  0.15345108897E+03  0.00000000000E+00 0.  1.
    9000007    1    1    2  501    0 -0.18587150943E+03 -0.27696252524E+03  0.71415924466E+03  0.88390038191E+03  0.40000000000E+03 0.  1.
   -9000007    1    1    2    0  503  0.18587150943E+03  0.27696252524E+03  0.92024421092E+03  0.10574052516E+04  0.40000000000E+03 0.  1.
<mgrwt>
<rscale>  2 0.52082287E+03</rscale>
<asrwt>0</asrwt>
<pdfrwt beam="1">  1       21 0.27505453E+00 0.52082287E+03</pdfrwt>
<pdfrwt beam="2">  1       21 0.23607861E-01 0.52082287E+03</pdfrwt>
<totfact> 0.62604896E+02</totfact>
</mgrwt>
</event>
<event>
 4    1  0.4890517E-002  0.4344504E+03  0.7818608E-02  0.1032463E+00
         21   -1    0    0  501  502  0.00000000000E+00  0.00000000000E+00  0.76543928774E+03  0.76543928774E+03  0.00000000000E+00 0.  1.
         21   -1    0    0  502  503 -0.00000000000E+00 -0.00000000000E+00 -0.25839981944E+03  0.25839981944E+03  0.00000000000E+00 0.  1.
    9000007    1    1    2  501    0 -0.16623481221E+03  0.33363472291E+02  0.36297540014E+03  0.56612567084E+03  0.40000000000E+03 0.  1.
   -9000007    1    1    2    0  503  0.16623481221E+03 -0.33363472291E+02  0.14406406816E+03  0.45771343634E+03  0.40000000000E+03 0.  1.
<mgrwt>
<rscale>  2 0.43445038E+03</rscale>
<asrwt>0</asrwt>
<pdfrwt beam="1">  1       21 0.11775989E+00 0.43445038E+03</pdfrwt>
<pdfrwt beam="2">  1       21 0.39753819E-01 0.43445038E+03</pdfrwt>
<totfact> 0.29434313E+03</totfact>
</mgrwt>
</event>
<event>
 4    1  0.4890517E-002  0.4488511E+03  0.7818608E-02  0.1028065E+00
         21   -1    0    0  503  502  0.00000000000E+00  0.00000000000E+00  0.13956893859E+03  0.13956893859E+03  0.00000000000E+00 0. -1.
         21   -1    0    0  501  503 -0.00000000000E+00 -0.00000000000E+00 -0.17920329409E+04  0.17920329409E+04  0.00000000000E+00 0.  1.
    9000007    1    1    2  501    0 -0.42457902517E+02 -0.19915976900E+03 -0.40030157120E+03  0.60142217700E+03  0.40000000000E+03 0. -1.
   -9000007    1    1    2    0  502  0.42457902517E+02  0.19915976900E+03 -0.12521624311E+04  0.13301797025E+04  0.40000000000E+03 0.  1.
<mgrwt>
<rscale>  2 0.44885107E+03</rscale>
<asrwt>0</asrwt>
<pdfrwt beam="1">  1       21 0.21472146E-01 0.44885107E+03</pdfrwt>
<pdfrwt beam="2">  1       21 0.27569735E+00 0.44885107E+03</pdfrwt>
<totfact> 0.77194938E+02</totfact>
</mgrwt>
</event>
<event>
 4    1  0.4890517E-002  0.4625421E+03  0.7818608E-02  0.1024047E+00
         21   -1    0    0  501  502  0.00000000000E+00  0.00000000000E+00  0.26823821404E+03  0.26823821404E+03  0.00000000000E+00 0. -1.
         21   -1    0    0  502  503 -0.00000000000E+00 -0.00000000000E+00 -0.88362685250E+03  0.88362685250E+03  0.00000000000E+00 0. -1.
    9000007    1    1    2  501    0  0.15344270629E+03 -0.17435736288E+03 -0.12798538898E+03  0.47992229985E+03  0.40000000000E+03 0. -1.
   -9000007    1    1    2    0  503 -0.15344270629E+03  0.17435736288E+03 -0.48740324948E+03  0.67194276670E+03  0.40000000000E+03 0. -1.
<mgrwt>
<rscale>  2 0.46254206E+03</rscale>
<asrwt>0</asrwt>
<pdfrwt beam="1">  1       21 0.41267419E-01 0.46254206E+03</pdfrwt>
<pdfrwt beam="2">  1       21 0.13594259E+00 0.46254206E+03</pdfrwt>
<totfact> 0.18620117E+03</totfact>
</mgrwt>
</event>
<event>
 4    1  0.4890517E-002  0.5203546E+03  0.7818608E-02  0.1008599E+00
         21   -1    0    0  501  502  0.00000000000E+00  0.00000000000E+00  0.60807750701E+03  0.60807750701E+03  0.00000000000E+00 0. -1.
         21   -1    0    0  502  503 -0.00000000000E+00 -0.00000000000E+00 -0.52142684460E+03  0.52142684460E+03  0.00000000000E+00 0.  1.
    9000007    1    1    2  501    0  0.29854817447E+03 -0.14709820932E+03  0.25913343244E+03  0.58130803493E+03  0.40000000000E+03 0. -1.
   -9000007    1    1    2    0  503 -0.29854817447E+03  0.14709820932E+03 -0.17248277004E+03  0.54819631668E+03  0.40000000000E+03 0.  1.
<mgrwt>
<rscale>  2 0.52035459E+03</rscale>
<asrwt>0</asrwt>
<pdfrwt beam="1">  1       21 0.93550387E-01 0.52035459E+03</pdfrwt>
<pdfrwt beam="2">  1       21 0.80219514E-01 0.52035459E+03</pdfrwt>
<totfact> 0.10896539E+03</totfact>
</mgrwt>
</event>
<event>
 4    1  0.4890517E-002  0.4025628E+03  0.7818608E-02  0.1042896E+00
         21   -1    0    0  503  502  0.00000000000E+00  0.00000000000E+00  0.16666574145E+03  0.16666574145E+03  0.00000000000E+00 0.  1.
         21   -1    0    0  501  503 -0.00000000000E+00 -0.00000000000E+00 -0.97670808087E+03  0.97670808087E+03  0.00000000000E+00 0.  1.
    9000007    1    1    2  501    0 -0.12237992103E+02  0.43669784049E+02 -0.44322503875E+03  0.59875308221E+03  0.40000000000E+03 0.  1.
   -9000007    1    1    2    0  502  0.12237992103E+02 -0.43669784049E+02 -0.36681730067E+03  0.54462074011E+03  0.40000000000E+03 0.  1.
<mgrwt>
<rscale>  2 0.40256281E+03</rscale>
<asrwt>0</asrwt>
<pdfrwt beam="1">  1       21 0.25640884E-01 0.40256281E+03</pdfrwt>
<pdfrwt beam="2">  1       21 0.15026278E+00 0.40256281E+03</pdfrwt>
<totfact> 0.37887650E+03</totfact>
</mgrwt>
</event>
<event>
 4    1  0.4890517E-002  0.4236250E+03  0.7818608E-02  0.1035893E+00
         21   -1    0    0  503  502  0.00000000000E+00  0.00000000000E+00  0.60914061946E+03  0.60914061946E+03  0.00000000000E+00 0.  1.
         21   -1    0    0  501  503 -0.00000000000E+00 -0.00000000000E+00 -0.30034131516E+03  0.30034131516E+03  0.00000000000E+00 0.  1.
    9000007    1    1    2  501    0  0.12595799402E+03  0.59939645269E+02  0.21722425403E+03  0.47607200492E+03  0.40000000000E+03 0. -1.
   -9000007    1    1    2    0  502 -0.12595799402E+03 -0.59939645269E+02  0.91575050268E+02  0.43340992970E+03  0.40000000000E+03 0. -1.
<mgrwt>
<rscale>  2 0.42362504E+03</rscale>
<asrwt>0</asrwt>
<pdfrwt beam="1">  1       21 0.93713941E-01 0.42362504E+03</pdfrwt>
<pdfrwt beam="2">  1       21 0.46206356E-01 0.42362504E+03</pdfrwt>
<totfact> 0.37854629E+03</totfact>
</mgrwt>
</event>
<event>
 4    1  0.4890517E-002  0.4027383E+03  0.7818608E-02  0.1042836E+00
         21   -1    0    0  501  502  0.00000000000E+00  0.00000000000E+00  0.35445005706E+03  0.35445005706E+03  0.00000000000E+00 0.  1.
         21   -1    0    0  502  503 -0.00000000000E+00 -0.00000000000E+00 -0.59195972857E+03  0.59195972857E+03  0.00000000000E+00 0.  1.
    9000007    1    1    2  501    0  0.38449462004E+02 -0.26828342893E+02  0.10668445564E+03  0.41662896465E+03  0.40000000000E+03 0.  1.
   -9000007    1    1    2    0  503 -0.38449462004E+02  0.26828342893E+02 -0.34419412715E+03  0.52978082097E+03  0.40000000000E+03 0.  1.
<mgrwt>
<rscale>  2 0.40273828E+03</rscale>
<asrwt>0</asrwt>
<pdfrwt beam="1">  1       21 0.54530778E-01 0.40273828E+03</pdfrwt>
<pdfrwt beam="2">  1       21 0.91070727E-01 0.40273828E+03</pdfrwt>
<totfact> 0.28726658E+03</totfact>
</mgrwt>
</event>
<event>
 4    1  0.4890517E-002  0.4676721E+03  0.7818608E-02  0.1022579E+00
         21   -1    0    0  501  502  0.00000000000E+00  0.00000000000E+00  0.19984531770E+04  0.19984531770E+04  0.00000000000E+00 0. -1.
         21   -1    0    0  502  503 -0.00000000000E+00 -0.00000000000E+00 -0.11799337201E+03  0.11799337201E+03  0.00000000000E+00 0. -1.
    9000007    1    1    2  501    0  0.23632092398E+03 -0.53569119441E+02  0.12250918357E+04  0.13113227046E+04  0.40000000000E+03 0. -1.
   -9000007    1    1    2    0  503 -0.23632092398E+03  0.53569119441E+02  0.65536796925E+03  0.80512384438E+03  0.40000000000E+03 0. -1.
<mgrwt>
<rscale>  2 0.46767214E+03</rscale>
<asrwt>0</asrwt>
<pdfrwt beam="1">  1       21 0.30745431E+00 0.46767214E+03</pdfrwt>
<pdfrwt beam="2">  1       21 0.18152828E-01 0.46767214E+03</pdfrwt>
<totfact> 0.67703325E+02</totfact>
</mgrwt>
</event>
<event>
 4    1  0.4890517E-002  0.4340291E+03  0.7818608E-02  0.1032595E+00
         21   -1    0    0  503  502  0.00000000000E+00  0.00000000000E+00  0.44508626434E+03  0.44508626434E+03  0.00000000000E+00 0. -1.
         21   -1    0    0  501  503 -0.00000000000E+00 -0.00000000000E+00 -0.86561891729E+03  0.86561891729E+03  0.00000000000E+00 0. -1.
    9000007    1    1    2  501    0 -0.12468070600E+03 -0.11329599577E+03 -0.67876202502E+03  0.80566689625E+03  0.40000000000E+03 0. -1.
   -9000007    1    1    2    0  502  0.12468070600E+03  0.11329599577E+03  0.25822937207E+03  0.50503828539E+03  0.40000000000E+03 0. -1.
<mgrwt>
<rscale>  2 0.43402910E+03</rscale>
<asrwt>0</asrwt>
<pdfrwt beam="1">  1       21 0.68474810E-01 0.43402910E+03</pdfrwt>
<pdfrwt beam="2">  1       21 0.13317214E+00 0.43402910E+03</pdfrwt>
<totfact> 0.66930141E+02</totfact>
</mgrwt>
</event>
<event>
 4    1  0.4890517E-002  0.4507780E+03  0.7818608E-02  0.1027490E+00
         21   -1    0    0  501  502  0.00000000000E+00  0.00000000000E+00  0.91455732286E+03  0.91455732286E+03  0.00000000000E+00 0.  1.
         21   -1    0    0  502  503 -0.00000000000E+00 -0.00000000000E+00 -0.31151835870E+03  0.31151835870E+03  0.00000000000E+00 0.  1.
    9000007    1    1    2  501    0 -0.68422656722E+02  0.19626302158E+03  0.62980559947E+03  0.77450366476E+03  0.40000000000E+03 0.  1.
   -9000007    1    1    2    0  503  0.68422656722E+02 -0.19626302158E+03 -0.26766635310E+02  0.45157201680E+03  0.40000000000E+03 0.  1.
<mgrwt>
<rscale>  2 0.45077803E+03</rscale>
<asrwt>0</asrwt>
<pdfrwt beam="1">  1       21 0.14070112E+00 0.45077803E+03</pdfrwt>
<pdfrwt beam="2">  1       21 0.47925902E-01 0.45077803E+03</pdfrwt>
<totfact> 0.12488064E+03</totfact>
</mgrwt>
</event>
<event>
 4    1  0.4890517E-002  0.4901113E+03  0.7818608E-02  0.1016393E+00
         21   -1    0    0  503  502  0.00000000000E+00  0.00000000000E+00  0.57074972701E+03  0.57074972701E+03  0.00000000000E+00 0. -1.
         21   -1    0    0  501  503 -0.00000000000E+00 -0.00000000000E+00 -0.45788466461E+03  0.45788466461E+03  0.00000000000E+00 0. -1.
    9000007    1    1    2  501    0 -0.28035792794E+03  0.40106376375E+02 -0.89806749463E+02  0.49827135321E+03  0.40000000000E+03 0. -1.
   -9000007    1    1    2    0  502  0.28035792794E+03 -0.40106376375E+02  0.20267181187E+03  0.53036303841E+03  0.40000000000E+03 0. -1.
<mgrwt>
<rscale>  2 0.49011130E+03</rscale>
<asrwt>0</asrwt>
<pdfrwt beam="1">  1       21 0.87807650E-01 0.49011130E+03</pdfrwt>
<pdfrwt beam="2">  1       21 0.70443795E-01 0.49011130E+03</pdfrwt>
<totfact> 0.17236942E+03</totfact>
</mgrwt>
</event>
<event>
 4    1  0.4890517E-002  0.4614645E+03  0.7818608E-02  0.1024357E+00
         21   -1    0    0  501  502  0.00000000000E+00  0.00000000000E+00  0.26836944790E+03  0.26836944790E+03  0.00000000000E+00 0. -1.
         21   -1    0    0  502  503 -0.00000000000E+00 -0.00000000000E+00 -0.79973769265E+03  0.79973769265E+03  0.00000000000E+00 0. -1.
    9000007    1    1    2  501    0  0.12713029453E+01 -0.23010410729E+03 -0.31287257368E+03  0.55752915956E+03  0.40000000000E+03 0. -1.
   -9000007    1    1    2    0  503 -0.12713029453E+01  0.23010410729E+03 -0.21849567107E+03  0.51057798100E+03  0.40000000000E+03 0. -1.
<mgrwt>
<rscale>  2 0.46146453E+03</rscale>
<asrwt>0</asrwt>
<pdfrwt beam="1">  1       21 0.41287607E-01 0.46146453E+03</pdfrwt>
<pdfrwt beam="2">  1       21 0.12303657E+00 0.46146453E+03</pdfrwt>
<totfact> 0.24103846E+03</totfact>
</mgrwt>
</event>
<event>
 4    1  0.4890517E-002  0.4422768E+03  0.7818608E-02  0.1030051E+00
         21   -1    0    0  501  502  0.00000000000E+00  0.00000000000E+00  0.35294798714E+03  0.35294798714E+03  0.00000000000E+00 0. -1.
         21   -1    0    0  502  503 -0.00000000000E+00 -0.00000000000E+00 -0.15001011111E+04  0.15001011111E+04  0.00000000000E+00 0.  1.
    9000007    1    1    2  501    0  0.17895504632E+03  0.59865295626E+02  0.16214974996E+03  0.47106401225E+03  0.40000000000E+03 0. -1.
   -9000007    1    1    2    0  503 -0.17895504632E+03 -0.59865295626E+02 -0.13093028739E+04  0.13819850860E+04  0.40000000000E+03 0.  1.
<mgrwt>
<rscale>  2 0.44227679E+03</rscale>
<asrwt>0</asrwt>
<pdfrwt beam="1">  1       21 0.54299690E-01 0.44227679E+03</pdfrwt>
<pdfrwt beam="2">  1       21 0.23078479E+00 0.44227679E+03</pdfrwt>
<totfact> 0.22356087E+02</totfact>
</mgrwt>
</event>
<event>
 4    1  0.4890517E-002  0.4051208E+03  0.7818608E-02  0.1042021E+00
         21   -1    0    0  501  502  0.00000000000E+00  0.00000000000E+00  0.59257440766E+03  0.59257440766E+03  0.00000000000E+00 0.  1.
         21   -1    0    0  502  503 -0.00000000000E+00 -0.00000000000E+00 -0.30886892778E+03  0.30886892778E+03  0.00000000000E+00 0.  1.
    9000007    1    1    2  501    0  0.53835171345E+02  0.34995252083E+02  0.28670904440E+03  0.49631136344E+03  0.40000000000E+03 0. -1.
   -9000007    1    1    2    0  503 -0.53835171345E+02 -0.34995252083E+02 -0.30035645131E+01  0.40513197201E+03  0.40000000000E+03 0. -1.
<mgrwt>
<rscale>  2 0.40512084E+03</rscale>
<asrwt>0</asrwt>
<pdfrwt beam="1">  1       21 0.91165293E-01 0.40512084E+03</pdfrwt>
<pdfrwt beam="2">  1       21 0.47518297E-01 0.40512084E+03</pdfrwt>
<totfact> 0.38372941E+03</totfact>
</mgrwt>
</event>
<event>
 4    1  0.4890517E-002  0.4210241E+03  0.7818608E-02  0.1036734E+00
         21   -1    0    0  501  502  0.00000000000E+00  0.00000000000E+00  0.10444543695E+04  0.10444543695E+04  0.00000000000E+00 0.  1.
         21   -1    0    0  502  503 -0.00000000000E+00 -0.00000000000E+00 -0.47170914060E+03  0.47170914060E+03  0.00000000000E+00 0.  1.
    9000007    1    1    2  501    0  0.12111187981E+03  0.50923719933E+02  0.89293707311E+03  0.98721726546E+03  0.40000000000E+03 0.  1.
   -9000007    1    1    2    0  503 -0.12111187981E+03 -0.50923719933E+02 -0.32019184418E+03  0.52894624468E+03  0.40000000000E+03 0.  1.
<mgrwt>
<rscale>  2 0.42102412E+03</rscale>
<asrwt>0</asrwt>
<pdfrwt beam="1">  1       21 0.16068529E+00 0.42102412E+03</pdfrwt>
<pdfrwt beam="2">  1       21 0.72570637E-01 0.42102412E+03</pdfrwt>
<totfact> 0.35638986E+02</totfact>
</mgrwt>
</event>
<event>
 4    1  0.4890517E-002  0.4983278E+03  0.7818608E-02  0.1014216E+00
         21   -1    0    0  501  502  0.00000000000E+00  0.00000000000E+00  0.72597420453E+03  0.72597420453E+03  0.00000000000E+00 0. -1.
         21   -1    0    0  502  503 -0.00000000000E+00 -0.00000000000E+00 -0.61961908837E+03  0.61961908837E+03  0.00000000000E+00 0.  1.
    9000007    1    1    2  501    0  0.44904621631E+02 -0.29379269120E+03  0.50347037406E+03  0.70838759730E+03  0.40000000000E+03 0. -1.
   -9000007    1    1    2    0  503 -0.44904621631E+02  0.29379269120E+03 -0.39711525790E+03  0.63720569560E+03  0.40000000000E+03 0.  1.
<mgrwt>
<rscale>  2 0.49832777E+03</rscale>
<asrwt>0</asrwt>
<pdfrwt beam="1">  1       21 0.11168834E+00 0.49832777E+03</pdfrwt>
<pdfrwt beam="2">  1       21 0.95326014E-01 0.49832777E+03</pdfrwt>
<totfact> 0.47350822E+02</totfact>
</mgrwt>
</event>
<event>
 4    1  0.4890517E-002  0.4558086E+03  0.7818608E-02  0.1026004E+00
         21   -1    0    0  501  502  0.00000000000E+00  0.00000000000E+00  0.72325059276E+03  0.72325059276E+03  0.00000000000E+00 0. -1.
         21   -1    0    0  502  503 -0.00000000000E+00 -0.00000000000E+00 -0.30870017100E+03  0.30870017100E+03  0.00000000000E+00 0. -1.
    9000007    1    1    2  501    0 -0.23784427169E+02  0.21724591610E+03  0.71297613921E+02  0.46135109926E+03  0.40000000000E+03 0. -1.
   -9000007    1    1    2    0  503  0.23784427169E+02 -0.21724591610E+03  0.34325280784E+03  0.57059966450E+03  0.40000000000E+03 0. -1.
<mgrwt>
<rscale>  2 0.45580861E+03</rscale>
<asrwt>0</asrwt>
<pdfrwt beam="1">  1       21 0.11126932E+00 0.45580861E+03</pdfrwt>
<pdfrwt beam="2">  1       21 0.47492334E-01 0.45580861E+03</pdfrwt>
<totfact> 0.23222819E+03</totfact>
</mgrwt>
</event>
<event>
 4    1  0.4890517E-002  0.4154054E+03  0.7818608E-02  0.1038572E+00
         21   -1    0    0  501  502  0.00000000000E+00  0.00000000000E+00  0.59136598146E+03  0.59136598146E+03  0.00000000000E+00 0.  1.
         21   -1    0    0  502  503 -0.00000000000E+00 -0.00000000000E+00 -0.30755422072E+03  0.30755422072E+03  0.00000000000E+00 0.  1.
    9000007    1    1    2  501    0  0.45331057086E+02 -0.10250234295E+03  0.24362544255E+03  0.48157553022E+03  0.40000000000E+03 0.  1.
   -9000007    1    1    2    0  503 -0.45331057086E+02  0.10250234295E+03  0.40186318190E+02  0.41734467196E+03  0.40000000000E+03 0.  1.
<mgrwt>
<rscale>  2 0.41540539E+03</rscale>
<asrwt>0</asrwt>
<pdfrwt beam="1">  1       21 0.90979382E-01 0.41540539E+03</pdfrwt>
<pdfrwt beam="2">  1       21 0.47316034E-01 0.41540539E+03</pdfrwt>
<totfact> 0.38755536E+03</totfact>
</mgrwt>
</event>
<event>
 4    1  0.4890517E-002  0.4643243E+03  0.7818608E-02  0.1023534E+00
         21   -1    0    0  501  502  0.00000000000E+00  0.00000000000E+00  0.25682104706E+03  0.25682104706E+03  0.00000000000E+00 0.  1.
         21   -1    0    0  502  503 -0.00000000000E+00 -0.00000000000E+00 -0.10175122830E+04  0.10175122830E+04  0.00000000000E+00 0. -1.
    9000007    1    1    2  501    0  0.22556039766E+03 -0.68699140300E+02 -0.11382662164E+03  0.47807276085E+03  0.40000000000E+03 0.  1.
   -9000007    1    1    2    0  503 -0.22556039766E+03  0.68699140300E+02 -0.64686461431E+03  0.79626056924E+03  0.40000000000E+03 0.  1.
<mgrwt>
<rscale>  2 0.46432431E+03</rscale>
<asrwt>0</asrwt>
<pdfrwt beam="1">  1       21 0.39510930E-01 0.46432431E+03</pdfrwt>
<pdfrwt beam="2">  1       21 0.15654035E+00 0.46432431E+03</pdfrwt>
<totfact> 0.13913698E+03</totfact>
</mgrwt>
</event>
<event>
 4    1  0.4890517E-002  0.4161151E+03  0.7818608E-02  0.1038338E+00
         21   -1    0    0  503  502  0.00000000000E+00  0.00000000000E+00  0.23767810688E+03  0.23767810688E+03  0.00000000000E+00 0. -1.
         21   -1    0    0  501  503 -0.00000000000E+00 -0.00000000000E+00 -0.97718007921E+03  0.97718007921E+03  0.00000000000E+00 0. -1.
    9000007    1    1    2  501    0  0.10806881388E+03 -0.38378426140E+02 -0.67617074493E+03  0.79395128845E+03  0.40000000000E+03 0. -1.
   -9000007    1    1    2    0  502 -0.10806881388E+03  0.38378426140E+02 -0.63331227397E+02  0.42090689765E+03  0.40000000000E+03 0. -1.
<mgrwt>
<rscale>  2 0.41611509E+03</rscale>
<asrwt>0</asrwt>
<pdfrwt beam="1">  1       21 0.36565862E-01 0.41611509E+03</pdfrwt>
<pdfrwt beam="2">  1       21 0.15033540E+00 0.41611509E+03</pdfrwt>
<totfact> 0.18577196E+03</totfact>
</mgrwt>
</event>
<event>
 4    1  0.4890517E-002  0.4038282E+03  0.7818608E-02  0.1042462E+00
         21   -1    0    0  501  502  0.00000000000E+00  0.00000000000E+00  0.10710227078E+04  0.10710227078E+04  0.00000000000E+00 0.  1.
         21   -1    0    0  502  503 -0.00000000000E+00 -0.00000000000E+00 -0.19092960821E+03  0.19092960821E+03  0.00000000000E+00 0.  1.
    9000007    1    1    2  501    0 -0.44944530347E+02 -0.32515127743E+02  0.72399777765E+03  0.82900544412E+03  0.40000000000E+03 0.  1.
   -9000007    1    1    2    0  503  0.44944530347E+02  0.32515127743E+02  0.15609532194E+03  0.43294687188E+03  0.40000000000E+03 0.  1.
<mgrwt>
<rscale>  2 0.40382824E+03</rscale>
<asrwt>0</asrwt>
<pdfrwt beam="1">  1       21 0.16477272E+00 0.40382824E+03</pdfrwt>
<pdfrwt beam="2">  1       21 0.29373787E-01 0.40382824E+03</pdfrwt>
<totfact> 0.22496930E+03</totfact>
</mgrwt>
</event>
<event>
 4    1  0.4890517E-002  0.4308978E+03  0.7818608E-02  0.1033577E+00
         21   -1    0    0  503  502  0.00000000000E+00  0.00000000000E+00  0.51216404585E+03  0.51216404585E+03  0.00000000000E+00 0. -1.
         21   -1    0    0  501  503 -0.00000000000E+00 -0.00000000000E+00 -0.36254170622E+03  0.36254170622E+03  0.00000000000E+00 0. -1.
    9000007    1    1    2  501    0  0.13388464701E+03 -0.88021719831E+02  0.77664843305E+02  0.43784100967E+03  0.40000000000E+03 0. -1.
   -9000007    1    1    2    0  502 -0.13388464701E+03  0.88021719831E+02  0.71957496328E+02  0.43686474239E+03  0.40000000000E+03 0. -1.
<mgrwt>
<rscale>  2 0.43089781E+03</rscale>
<asrwt>0</asrwt>
<pdfrwt beam="1">  1       21 0.78794469E-01 0.43089781E+03</pdfrwt>
<pdfrwt beam="2">  1       21 0.55775647E-01 0.43089781E+03</pdfrwt>
<totfact> 0.37955480E+03</totfact>
</mgrwt>
</event>
<event>
 4    1  0.4890517E-002  0.4443913E+03  0.7818608E-02  0.1029408E+00
         21   -1    0    0  503  502  0.00000000000E+00  0.00000000000E+00  0.26874749690E+03  0.26874749690E+03  0.00000000000E+00 0. -1.
         21   -1    0    0  501  503 -0.00000000000E+00 -0.00000000000E+00 -0.10777942767E+04  0.10777942767E+04  0.00000000000E+00 0. -1.
    9000007    1    1    2  501    0  0.43353457471E+02  0.18869052566E+03 -0.78431603093E+03  0.90146285177E+03  0.40000000000E+03 0. -1.
   -9000007    1    1    2    0  502 -0.43353457471E+02 -0.18869052566E+03 -0.24730748914E+02  0.44507892187E+03  0.40000000000E+03 0. -1.
<mgrwt>
<rscale>  2 0.44439131E+03</rscale>
<asrwt>0</asrwt>
<pdfrwt beam="1">  1       21 0.41345769E-01 0.44439131E+03</pdfrwt>
<pdfrwt beam="2">  1       21 0.16581450E+00 0.44439131E+03</pdfrwt>
<totfact> 0.10878119E+03</totfact>
</mgrwt>
</event>
<event>
 4    1  0.4890517E-002  0.6200247E+03  0.7818608E-02  0.9864711E-01
         21   -1    0    0  503  502  0.00000000000E+00  0.00000000000E+00  0.10962877577E+04  0.10962877577E+04  0.00000000000E+00 0. -1.
         21   -1    0    0  501  503 -0.00000000000E+00 -0.00000000000E+00 -0.58452910183E+03  0.58452910183E+03  0.00000000000E+00 0.  1.
    9000007    1    1    2  501    0  0.34293866140E+03  0.32683894370E+03 -0.27570035273E+03  0.67855825475E+03  0.40000000000E+03 0.  1.
   -9000007    1    1    2    0  502 -0.34293866140E+03 -0.32683894370E+03  0.78745900856E+03  0.10022586047E+04  0.40000000000E+03 0. -1.
<mgrwt>
<rscale>  2 0.62002469E+03</rscale>
<asrwt>0</asrwt>
<pdfrwt beam="1">  1       21 0.16865965E+00 0.62002469E+03</pdfrwt>
<pdfrwt beam="2">  1       21 0.89927554E-01 0.62002469E+03</pdfrwt>
<totfact> 0.17307672E+02</totfact>
</mgrwt>
</event>
<event>
 4    1  0.4890517E-002  0.4243770E+03  0.7818608E-02  0.1035651E+00
         21   -1    0    0  501  502  0.00000000000E+00  0.00000000000E+00  0.19641719578E+03  0.19641719578E+03  0.00000000000E+00 0.  1.
         21   -1    0    0  502  503 -0.00000000000E+00 -0.00000000000E+00 -0.91886892830E+03  0.91886892830E+03  0.00000000000E+00 0.  1.
    9000007    1    1    2  501    0 -0.14144817476E+03  0.93935853073E+01 -0.38700920931E+03  0.57434480382E+03  0.40000000000E+03 0. -1.
   -9000007    1    1    2    0  503  0.14144817476E+03 -0.93935853073E+01 -0.33544252321E+03  0.54094132026E+03  0.40000000000E+03 0. -1.
<mgrwt>
<rscale>  2 0.42437699E+03</rscale>
<asrwt>0</asrwt>
<pdfrwt beam="1">  1       21 0.30218030E-01 0.42437699E+03</pdfrwt>
<pdfrwt beam="2">  1       21 0.14136445E+00 0.42437699E+03</pdfrwt>
<totfact> 0.32034455E+03</totfact>
</mgrwt>
</event>
<event>
 4    1  0.4890517E-002  0.5533914E+03  0.7818608E-02  0.1000712E+00
         21   -1    0    0  503  502  0.00000000000E+00  0.00000000000E+00  0.84158455428E+03  0.84158455428E+03  0.00000000000E+00 0.  1.
         21   -1    0    0  501  503 -0.00000000000E+00 -0.00000000000E+00 -0.36393157403E+03  0.36393157403E+03  0.00000000000E+00 0. -1.
    9000007    1    1    2  501    0  0.33087932406E+03  0.19173121676E+03  0.24546980197E+03  0.60539029580E+03  0.40000000000E+03 0. -1.
   -9000007    1    1    2    0  502 -0.33087932406E+03 -0.19173121676E+03  0.23218317828E+03  0.60012583251E+03  0.40000000000E+03 0. -1.
<mgrwt>
<rscale>  2 0.55339135E+03</rscale>
<asrwt>0</asrwt>
<pdfrwt beam="1">  1       21 0.12947455E+00 0.55339135E+03</pdfrwt>
<pdfrwt beam="2">  1       21 0.55989473E-01 0.55339135E+03</pdfrwt>
<totfact> 0.10722290E+03</totfact>
</mgrwt>
</event>
<event>
 4    1  0.4890517E-002  0.5020603E+03  0.7818608E-02  0.1013243E+00
         21   -1    0    0  501  502  0.00000000000E+00  0.00000000000E+00  0.57050745824E+03  0.57050745824E+03  0.00000000000E+00 0.  1.
         21   -1    0    0  502  503 -0.00000000000E+00 -0.00000000000E+00 -0.47800977562E+03  0.47800977562E+03  0.00000000000E+00 0.  1.
    9000007    1    1    2  501    0 -0.10348969012E+03  0.28522696852E+03 -0.97992339769E+02  0.51153400492E+03  0.40000000000E+03 0.  1.
   -9000007    1    1    2    0  503  0.10348969012E+03 -0.28522696852E+03  0.19049002239E+03  0.53698322894E+03  0.40000000000E+03 0.  1.
<mgrwt>
<rscale>  2 0.50206029E+03</rscale>
<asrwt>0</asrwt>
<pdfrwt beam="1">  1       21 0.87770378E-01 0.50206029E+03</pdfrwt>
<pdfrwt beam="2">  1       21 0.73539966E-01 0.50206029E+03</pdfrwt>
<totfact> 0.15585492E+03</totfact>
</mgrwt>
</event>
<event>
 4    1  0.4890517E-002  0.5067443E+03  0.7818608E-02  0.1012033E+00
         21   -1    0    0  503  502  0.00000000000E+00  0.00000000000E+00  0.42366216028E+03  0.42366216028E+03  0.00000000000E+00 0. -1.
         21   -1    0    0  501  503 -0.00000000000E+00 -0.00000000000E+00 -0.90139087597E+03  0.90139087597E+03  0.00000000000E+00 0. -1.
    9000007    1    1    2  501    0 -0.28249163928E+02  0.30982535038E+03 -0.61805498436E+03  0.79923821649E+03  0.40000000000E+03 0. -1.
   -9000007    1    1    2    0  502  0.28249163928E+02 -0.30982535038E+03  0.14032626867E+03  0.52581481976E+03  0.40000000000E+03 0. -1.
<mgrwt>
<rscale>  2 0.50674428E+03</rscale>
<asrwt>0</asrwt>
<pdfrwt beam="1">  1       21 0.65178795E-01 0.50674428E+03</pdfrwt>
<pdfrwt beam="2">  1       21 0.13867552E+00 0.50674428E+03</pdfrwt>
<totfact> 0.65132792E+02</totfact>
</mgrwt>
</event>
<event>
 4    1  0.4890517E-002  0.8027850E+03  0.7818608E-02  0.9555995E-01
         21   -1    0    0  501  502  0.00000000000E+00  0.00000000000E+00  0.47496016009E+03  0.47496016009E+03  0.00000000000E+00 0. -1.
         21   -1    0    0  502  503 -0.00000000000E+00 -0.00000000000E+00 -0.13569414195E+04  0.13569414195E+04  0.00000000000E+00 0.  1.
    9000007    1    1    2  501    0 -0.18244275553E+03 -0.67169810280E+03 -0.43480282974E+03  0.91297163215E+03  0.40000000000E+03 0.  1.
   -9000007    1    1    2    0  503  0.18244275553E+03  0.67169810280E+03 -0.44717842969E+03  0.91892994746E+03  0.40000000000E+03 0.  1.
<mgrwt>
<rscale>  2 0.80278497E+03</rscale>
<asrwt>0</asrwt>
<pdfrwt beam="1">  1       21 0.73070794E-01 0.80278497E+03</pdfrwt>
<pdfrwt beam="2">  1       21 0.20876022E+00 0.80278497E+03</pdfrwt>
<totfact> 0.13873688E+02</totfact>
</mgrwt>
</event>
<event>
 4    1  0.4890517E-002  0.4242558E+03  0.7818608E-02  0.1035690E+00
         21   -1    0    0  503  502  0.00000000000E+00  0.00000000000E+00  0.21902173440E+03  0.21902173440E+03  0.00000000000E+00 0.  1.
         21   -1    0    0  501  503 -0.00000000000E+00 -0.00000000000E+00 -0.21355643084E+04  0.21355643084E+04  0.00000000000E+00 0.  1.
    9000007    1    1    2  501    0 -0.71949813705E+02  0.12172179938E+03 -0.18816636638E+04  0.19288989388E+04  0.40000000000E+03 0.  1.
   -9000007    1    1    2    0  502  0.71949813705E+02 -0.12172179938E+03 -0.34878910110E+02  0.42568710399E+03  0.40000000000E+03 0.  1.
<mgrwt>
<rscale>  2 0.42425579E+03</rscale>
<asrwt>0</asrwt>
<pdfrwt beam="1">  1       21 0.33695653E-01 0.42425579E+03</pdfrwt>
<pdfrwt beam="2">  1       21 0.32854834E+00 0.42425579E+03</pdfrwt>
<totfact> 0.15564845E+02</totfact>
</mgrwt>
</event>
<event>
 4    1  0.4890517E-002  0.4065674E+03  0.7818608E-02  0.1041529E+00
         21   -1    0    0  501  502  0.00000000000E+00  0.00000000000E+00  0.79319956507E+03  0.79319956507E+03  0.00000000000E+00 0. -1.
         21   -1    0    0  502  503 -0.00000000000E+00 -0.00000000000E+00 -0.20888492095E+03  0.20888492095E+03  0.00000000000E+00 0. -1.
    9000007    1    1    2  501    0  0.68166754362E+02 -0.25502213435E+02  0.26783742407E+03  0.48686133039E+03  0.40000000000E+03 0. -1.
   -9000007    1    1    2    0  503 -0.68166754362E+02  0.25502213435E+02  0.31647722005E+03  0.51522315563E+03  0.40000000000E+03 0. -1.
<mgrwt>
<rscale>  2 0.40656742E+03</rscale>
<asrwt>0</asrwt>
<pdfrwt beam="1">  1       21 0.12203070E+00 0.40656742E+03</pdfrwt>
<pdfrwt beam="2">  1       21 0.32136142E-01 0.40656742E+03</pdfrwt>
<totfact> 0.41822990E+03</totfact>
</mgrwt>
</event>
<event>
 4    1  0.4890517E-002  0.6658394E+03  0.7818608E-02  0.9777503E-01
         21   -1    0    0  503  502  0.00000000000E+00  0.00000000000E+00  0.40004777438E+03  0.40004777438E+03  0.00000000000E+00 0. -1.
         21   -1    0    0  501  503 -0.00000000000E+00 -0.00000000000E+00 -0.16063233715E+04  0.16063233715E+04  0.00000000000E+00 0.  1.
    9000007    1    1    2  501    0  0.52612908106E+03 -0.80810445246E+02 -0.11617664788E+04  0.13390457383E+04  0.40000000000E+03 0.  1.
   -9000007    1    1    2    0  502 -0.52612908106E+03  0.80810445246E+02 -0.44509118333E+02  0.66732540759E+03  0.40000000000E+03 0. -1.
<mgrwt>
<rscale>  2 0.66583942E+03</rscale>
<asrwt>0</asrwt>
<pdfrwt beam="1">  1       21 0.61545810E-01 0.66583942E+03</pdfrwt>
<pdfrwt beam="2">  1       21 0.24712668E+00 0.66583942E+03</pdfrwt>
<totfact> 0.12105046E+02</totfact>
</mgrwt>
</event>
<event>
 4    1  0.4890517E-002  0.4246122E+03  0.7818608E-02  0.1035576E+00
         21   -1    0    0  503  502  0.00000000000E+00  0.00000000000E+00  0.52744468932E+03  0.52744468932E+03  0.00000000000E+00 0.  1.
         21   -1    0    0  501  503 -0.00000000000E+00 -0.00000000000E+00 -0.12374980480E+04  0.12374980480E+04  0.00000000000E+00 0.  1.
    9000007    1    1    2  501    0 -0.14223537702E+03  0.80409282287E+01 -0.11057887063E+04  0.11845101190E+04  0.40000000000E+03 0.  1.
   -9000007    1    1    2    0  502  0.14223537702E+03 -0.80409282287E+01  0.39573534765E+03  0.58043261830E+03  0.40000000000E+03 0.  1.
<mgrwt>
<rscale>  2 0.42461225E+03</rscale>
<asrwt>0</asrwt>
<pdfrwt beam="1">  1       21 0.81145337E-01 0.42461225E+03</pdfrwt>
<pdfrwt beam="2">  1       21 0.19038432E+00 0.42461225E+03</pdfrwt>
<totfact> 0.16903266E+02</totfact>
</mgrwt>
</event>
<event>
 4    1  0.4890517E-002  0.5105624E+03  0.7818608E-02  0.1011058E+00
         21   -1    0    0  501  502  0.00000000000E+00  0.00000000000E+00  0.36939544101E+03  0.36939544101E+03  0.00000000000E+00 0.  1.
         21   -1    0    0  502  503 -0.00000000000E+00 -0.00000000000E+00 -0.97988273590E+03  0.97988273590E+03  0.00000000000E+00 0. -1.
    9000007    1    1    2  501    0  0.86327255491E+02  0.30532210637E+03  0.51636561201E+02  0.51316694957E+03  0.40000000000E+03 0.  1.
   -9000007    1    1    2    0  503 -0.86327255491E+02 -0.30532210637E+03 -0.66212385608E+03  0.83611122734E+03  0.40000000000E+03 0. -1.
<mgrwt>
<rscale>  2 0.51056242E+03</rscale>
<asrwt>0</asrwt>
<pdfrwt beam="1">  1       21 0.56830069E-01 0.51056242E+03</pdfrwt>
<pdfrwt beam="2">  1       21 0.15075119E+00 0.51056242E+03</pdfrwt>
<totfact> 0.70226172E+02</totfact>
</mgrwt>
</event>
<event>
 4    1  0.4890517E-002  0.4489808E+03  0.7818608E-02  0.1028026E+00
         21   -1    0    0  501  502  0.00000000000E+00  0.00000000000E+00  0.32138948769E+03  0.32138948769E+03  0.00000000000E+00 0.  1.
         21   -1    0    0  502  503 -0.00000000000E+00 -0.00000000000E+00 -0.63410264883E+03  0.63410264883E+03  0.00000000000E+00 0. -1.
    9000007    1    1    2  501    0 -0.13517039643E+03  0.15268514253E+03 -0.10660452079E+03  0.46146323003E+03  0.40000000000E+03 0.  1.
   -9000007    1    1    2    0  503  0.13517039643E+03 -0.15268514253E+03 -0.20610864035E+03  0.49402890649E+03  0.40000000000E+03 0. -1.
<mgrwt>
<rscale>  2 0.44898083E+03</rscale>
<asrwt>0</asrwt>
<pdfrwt beam="1">  1       21 0.49444537E-01 0.44898083E+03</pdfrwt>
<pdfrwt beam="2">  1       21 0.97554252E-01 0.44898083E+03</pdfrwt>
<totfact> 0.29524213E+03</totfact>
</mgrwt>
</event>
<event>
 4    1  0.4890517E-002  0.6539579E+03  0.7818608E-02  0.9799381E-01
         21   -1    0    0  501  502  0.00000000000E+00  0.00000000000E+00  0.78671643334E+03  0.78671643334E+03  0.00000000000E+00 0.  1.
         21   -1    0    0  502  503 -0.00000000000E+00 -0.00000000000E+00 -0.60671789719E+03  0.60671789719E+03  0.00000000000E+00 0.  1.
    9000007    1    1    2  501    0  0.36227202016E+03 -0.36935060882E+03  0.31471389431E+03  0.72574494425E+03  0.40000000000E+03 0.  1.
   -9000007    1    1    2    0  503 -0.36227202016E+03  0.36935060882E+03 -0.13471535816E+03  0.66768938628E+03  0.40000000000E+03 0.  1.
<mgrwt>
<rscale>  2 0.65395786E+03</rscale>
<asrwt>0</asrwt>
<pdfrwt beam="1">  1       21 0.12103330E+00 0.65395786E+03</pdfrwt>
<pdfrwt beam="2">  1       21 0.93341215E-01 0.65395786E+03</pdfrwt>
<totfact> 0.38467598E+02</totfact>
</mgrwt>
</event>
<event>
 4    1  0.4890517E-002  0.6043380E+03  0.7818608E-02  0.9896447E-01
         21   -1    0    0  501  502  0.00000000000E+00  0.00000000000E+00  0.14788644859E+04  0.14788644859E+04  0.00000000000E+00 0. -1.
         21   -1    0    0  502  503 -0.00000000000E+00 -0.00000000000E+00 -0.30485635380E+03  0.30485635380E+03  0.00000000000E+00 0. -1.
    9000007    1    1    2  501    0  0.39736221139E+03  0.21754932984E+03  0.97565933834E+03  0.11476652746E+04  0.40000000000E+03 0. -1.
   -9000007    1    1    2    0  503 -0.39736221139E+03 -0.21754932984E+03  0.19834879377E+03  0.63605556514E+03  0.40000000000E+03 0. -1.
<mgrwt>
<rscale>  2 0.60433802E+03</rscale>
<asrwt>0</asrwt>
<pdfrwt beam="1">  1       21 0.22751761E+00 0.60433802E+03</pdfrwt>
<pdfrwt beam="2">  1       21 0.46900978E-01 0.60433802E+03</pdfrwt>
<totfact> 0.29727579E+02</totfact>
</mgrwt>
</event>
<event>
 4    1  0.4890517E-002  0.4484614E+03  0.7818608E-02  0.1028182E+00
         21   -1    0    0  503  502  0.00000000000E+00  0.00000000000E+00  0.28834611295E+03  0.28834611295E+03  0.00000000000E+00 0. -1.
         21   -1    0    0  501  503 -0.00000000000E+00 -0.00000000000E+00 -0.11257334290E+04  0.11257334290E+04  0.00000000000E+00 0. -1.
    9000007    1    1    2  501    0 -0.15162739139E+03 -0.13463578535E+03  0.17393146494E+02  0.44879859855E+03  0.40000000000E+03 0. -1.
   -9000007    1    1    2    0  502  0.15162739139E+03  0.13463578535E+03 -0.85478046250E+03  0.96528094335E+03  0.40000000000E+03 0. -1.
<mgrwt>
<rscale>  2 0.44846144E+03</rscale>
<asrwt>0</asrwt>
<pdfrwt beam="1">  1       21 0.44360940E-01 0.44846144E+03</pdfrwt>
<pdfrwt beam="2">  1       21 0.17318976E+00 0.44846144E+03</pdfrwt>
<totfact> 0.82881440E+02</totfact>
</mgrwt>
</event>
<event>
 4    1  0.4890517E-002  0.4304333E+03  0.7818608E-02  0.1033723E+00
         21   -1    0    0  503  502  0.00000000000E+00  0.00000000000E+00  0.16755338774E+03  0.16755338774E+03  0.00000000000E+00 0.  1.
         21   -1    0    0  501  503 -0.00000000000E+00 -0.00000000000E+00 -0.11782993784E+04  0.11782993784E+04  0.00000000000E+00 0.  1.
    9000007    1    1    2  501    0  0.10534710185E+03  0.11905801176E+03 -0.67234540924E+03  0.79832397644E+03  0.40000000000E+03 0. -1.
   -9000007    1    1    2    0  502 -0.10534710185E+03 -0.11905801176E+03 -0.33840058138E+03  0.54752878966E+03  0.40000000000E+03 0. -1.
<mgrwt>
<rscale>  2 0.43043330E+03</rscale>
<asrwt>0</asrwt>
<pdfrwt beam="1">  1       21 0.25777444E-01 0.43043330E+03</pdfrwt>
<pdfrwt beam="2">  1       21 0.18127683E+00 0.43043330E+03</pdfrwt>
<totfact> 0.21867581E+03</totfact>
</mgrwt>
</event>
<event>
 4    1  0.4890517E-002  0.5217216E+03  0.7818608E-02  0.1008260E+00
         21   -1    0    0  503  502  0.00000000000E+00  0.00000000000E+00  0.17372039046E+03  0.17372039046E+03  0.00000000000E+00 0.  1.
         21   -1    0    0  501  503 -0.00000000000E+00 -0.00000000000E+00 -0.17106761964E+04  0.17106761964E+04  0.00000000000E+00 0.  1.
    9000007    1    1    2  501    0  0.31926146378E+03 -0.10131898902E+03 -0.49527792799E+03  0.71937031197E+03  0.40000000000E+03 0.  1.
   -9000007    1    1    2    0  502 -0.31926146378E+03  0.10131898902E+03 -0.10416778780E+04  0.11650262749E+04  0.40000000000E+03 0.  1.
<mgrwt>
<rscale>  2 0.52172159E+03</rscale>
<asrwt>0</asrwt>
<pdfrwt beam="1">  1       21 0.26726215E-01 0.52172159E+03</pdfrwt>
<pdfrwt beam="2">  1       21 0.26318095E+00 0.52172159E+03</pdfrwt>
<totfact> 0.58026957E+02</totfact>
</mgrwt>
</event>
<event>
 4    1  0.4890517E-002  0.5280951E+03  0.7818608E-02  0.1006695E+00
         21   -1    0    0  501  502  0.00000000000E+00  0.00000000000E+00  0.16330574890E+03  0.16330574890E+03  0.00000000000E+00 0.  1.
         21   -1    0    0  502  503 -0.00000000000E+00 -0.00000000000E+00 -0.17683802612E+04  0.17683802612E+04  0.00000000000E+00 0.  1.
    9000007    1    1    2  501    0 -0.24121148149E+03  0.24637675063E+03 -0.62368953968E+03  0.81723504817E+03  0.40000000000E+03 0.  1.
   -9000007    1    1    2    0  503  0.24121148149E+03 -0.24637675063E+03 -0.98138497262E+03  0.11144509619E+04  0.40000000000E+03 0.  1.
<mgrwt>
<rscale>  2 0.52809514E+03</rscale>
<asrwt>0</asrwt>
<pdfrwt beam="1">  1       21 0.25123963E-01 0.52809514E+03</pdfrwt>
<pdfrwt beam="2">  1       21 0.27205848E+00 0.52809514E+03</pdfrwt>
<totfact> 0.57649305E+02</totfact>
</mgrwt>
</event>
<event>
 4    1  0.4890517E-002  0.4028454E+03  0.7818608E-02  0.1042799E+00
         21   -1    0    0  503  502  0.00000000000E+00  0.00000000000E+00  0.52791717491E+03  0.52791717491E+03  0.00000000000E+00 0. -1.
         21   -1    0    0  501  503 -0.00000000000E+00 -0.00000000000E+00 -0.37612966151E+03  0.37612966151E+03  0.00000000000E+00 0. -1.
    9000007    1    1    2  501    0  0.44576795241E+02 -0.17243405731E+02 -0.11732450454E+03  0.41958248901E+03  0.40000000000E+03 0. -1.
   -9000007    1    1    2    0  502 -0.44576795241E+02  0.17243405731E+02  0.26911201794E+03  0.48446434742E+03  0.40000000000E+03 0. -1.
<mgrwt>
<rscale>  2 0.40284541E+03</rscale>
<asrwt>0</asrwt>
<pdfrwt beam="1">  1       21 0.81218027E-01 0.40284541E+03</pdfrwt>
<pdfrwt beam="2">  1       21 0.57866102E-01 0.40284541E+03</pdfrwt>
<totfact> 0.33027146E+03</totfact>
</mgrwt>
</event>
<event>
 4    1  0.4890517E-002  0.5403638E+03  0.7818608E-02  0.1003749E+00
         21   -1    0    0  503  502  0.00000000000E+00  0.00000000000E+00  0.56948798996E+03  0.56948798996E+03  0.00000000000E+00 0. -1.
         21   -1    0    0  501  503 -0.00000000000E+00 -0.00000000000E+00 -0.90029407798E+03  0.90029407798E+03  0.00000000000E+00 0. -1.
    9000007    1    1    2  501    0 -0.14571234408E+03 -0.33280772831E+03 -0.64757617779E+03  0.84341447538E+03  0.40000000000E+03 0. -1.
   -9000007    1    1    2    0  502  0.14571234408E+03  0.33280772831E+03  0.31677008977E+03  0.62636759256E+03  0.40000000000E+03 0. -1.
<mgrwt>
<rscale>  2 0.54036383E+03</rscale>
<asrwt>0</asrwt>
<pdfrwt beam="1">  1       21 0.87613538E-01 0.54036383E+03</pdfrwt>
<pdfrwt beam="2">  1       21 0.13850678E+00 0.54036383E+03</pdfrwt>
<totfact> 0.32717917E+02</totfact>
</mgrwt>
</event>
<event>
 4    1  0.4890517E-002  0.4480144E+03  0.7818608E-02  0.1028316E+00
         21   -1    0    0  503  502  0.00000000000E+00  0.00000000000E+00  0.76548106779E+03  0.76548106779E+03  0.00000000000E+00 0.  1.
         21   -1    0    0  501  503 -0.00000000000E+00 -0.00000000000E+00 -0.28572630003E+03  0.28572630003E+03  0.00000000000E+00 0.  1.
    9000007    1    1    2  501    0  0.93233573514E+02  0.17895360495E+03  0.89089457949E+02  0.45678640903E+03  0.40000000000E+03 0.  1.
   -9000007    1    1    2    0  502 -0.93233573514E+02 -0.17895360495E+03  0.39066530981E+03  0.59442095879E+03  0.40000000000E+03 0.  1.
<mgrwt>
<rscale>  2 0.44801439E+03</rscale>
<asrwt>0</asrwt>
<pdfrwt beam="1">  1       21 0.11776632E+00 0.44801439E+03</pdfrwt>
<pdfrwt beam="2">  1       21 0.43957893E-01 0.44801439E+03</pdfrwt>
<totfact> 0.23773786E+03</totfact>
</mgrwt>
</event>
<event>
 4    1  0.4890517E-002  0.6105534E+03  0.7818608E-02  0.9883750E-01
         21   -1    0    0  501  502  0.00000000000E+00  0.00000000000E+00  0.38798901751E+03  0.38798901751E+03  0.00000000000E+00 0.  1.
         21   -1    0    0  502  503 -0.00000000000E+00 -0.00000000000E+00 -0.96414946057E+03  0.96414946057E+03  0.00000000000E+00 0.  1.
    9000007    1    1    2  501    0  0.43463232020E+03 -0.15449993662E+03 -0.32799506026E+03  0.69307737211E+03  0.40000000000E+03 0.  1.
   -9000007    1    1    2    0  503 -0.43463232020E+03  0.15449993662E+03 -0.24816538281E+03  0.65906110597E+03  0.40000000000E+03 0.  1.
<mgrwt>
<rscale>  2 0.61055342E+03</rscale>
<asrwt>0</asrwt>
<pdfrwt beam="1">  1       21 0.59690619E-01 0.61055342E+03</pdfrwt>
<pdfrwt beam="2">  1       21 0.14833068E+00 0.61055342E+03</pdfrwt>
<totfact> 0.63618156E+02</totfact>
</mgrwt>
</event>
<event>
 4    1  0.4890517E-002  0.5762936E+03  0.7818608E-02  0.9955848E-01
         21   -1    0    0  503  502  0.00000000000E+00  0.00000000000E+00  0.26740337495E+03  0.26740337495E+03  0.00000000000E+00 0.  1.
         21   -1    0    0  501  503 -0.00000000000E+00 -0.00000000000E+00 -0.14453897530E+04  0.14453897530E+04  0.00000000000E+00 0.  1.
    9000007    1    1    2  501    0  0.24368195699E+03 -0.33575801711E+03 -0.91024793917E+03  0.10773419387E+04  0.40000000000E+03 0.  1.
   -9000007    1    1    2    0  502 -0.24368195699E+03  0.33575801711E+03 -0.26773843889E+03  0.63545118921E+03  0.40000000000E+03 0.  1.
<mgrwt>
<rscale>  2 0.57629363E+03</rscale>
<asrwt>0</asrwt>
<pdfrwt beam="1">  1       21 0.41138981E-01 0.57629363E+03</pdfrwt>
<pdfrwt beam="2">  1       21 0.22236765E+00 0.57629363E+03</pdfrwt>
<totfact> 0.42708379E+02</totfact>
</mgrwt>
</event>
<event>
 4    1  0.4890517E-002  0.4039469E+03  0.7818608E-02  0.1042422E+00
         21   -1    0    0  501  502  0.00000000000E+00  0.00000000000E+00  0.11663032232E+04  0.11663032232E+04  0.00000000000E+00 0.  1.
         21   -1    0    0  502  503 -0.00000000000E+00 -0.00000000000E+00 -0.14256518432E+03  0.14256518432E+03  0.00000000000E+00 0.  1.
    9000007    1    1    2  501    0  0.54690023676E+02  0.13494128450E+02  0.60124369208E+03  0.72433905559E+03  0.40000000000E+03 0. -1.
   -9000007    1    1    2    0  503 -0.54690023676E+02 -0.13494128450E+02  0.42249434684E+03  0.58452935196E+03  0.40000000000E+03 0. -1.
<mgrwt>
<rscale>  2 0.40394689E+03</rscale>
<asrwt>0</asrwt>
<pdfrwt beam="1">  1       21 0.17943126E+00 0.40394689E+03</pdfrwt>
<pdfrwt beam="2">  1       21 0.21933106E-01 0.40394689E+03</pdfrwt>
<totfact> 0.31140363E+03</totfact>
</mgrwt>
</event>
<event>
 4    1  0.4890517E-002  0.5247243E+03  0.7818608E-02  0.1007520E+00
         21   -1    0    0  503  502  0.00000000000E+00  0.00000000000E+00  0.23768996904E+03  0.23768996904E+03  0.00000000000E+00 0. -1.
         21   -1    0    0  501  503 -0.00000000000E+00 -0.00000000000E+00 -0.14142149450E+04  0.14142149450E+04  0.00000000000E+00 0.  1.
    9000007    1    1    2  501    0  0.30580665899E+03 -0.14770886524E+03 -0.93956086655E+03  0.10761553064E+04  0.40000000000E+03 0. -1.
   -9000007    1    1    2    0  502 -0.30580665899E+03  0.14770886524E+03 -0.23696410942E+03  0.57574960765E+03  0.40000000000E+03 0. -1.
<mgrwt>
<rscale>  2 0.52472433E+03</rscale>
<asrwt>0</asrwt>
<pdfrwt beam="1">  1       21 0.36567687E-01 0.52472433E+03</pdfrwt>
<pdfrwt beam="2">  1       21 0.21757153E+00 0.52472433E+03</pdfrwt>
<totfact> 0.59695978E+02</totfact>
</mgrwt>
</event>
<event>
 4    1  0.4890517E-002  0.4090132E+03  0.7818608E-02  0.1040703E+00
         21   -1    0    0  503  502  0.00000000000E+00  0.00000000000E+00  0.78714404114E+03  0.78714404114E+03  0.00000000000E+00 0.  1.
         21   -1    0    0  501  503 -0.00000000000E+00 -0.00000000000E+00 -0.63682768915E+03  0.63682768915E+03  0.00000000000E+00 0.  1.
    9000007    1    1    2  501    0 -0.79652435755E+02  0.30777589210E+02 -0.50600181061E+03  0.65063784309E+03  0.40000000000E+03 0.  1.
   -9000007    1    1    2    0  502  0.79652435755E+02 -0.30777589210E+02  0.65631816260E+03  0.77333388719E+03  0.40000000000E+03 0.  1.
<mgrwt>
<rscale>  2 0.40901317E+03</rscale>
<asrwt>0</asrwt>
<pdfrwt beam="1">  1       21 0.12109908E+00 0.40901317E+03</pdfrwt>
<pdfrwt beam="2">  1       21 0.97973491E-01 0.40901317E+03</pdfrwt>
<totfact> 0.37691756E+02</totfact>
</mgrwt>
</event>
<event>
 4    1  0.4890517E-002  0.4627570E+03  0.7818608E-02  0.1023985E+00
         21   -1    0    0  501  502  0.00000000000E+00  0.00000000000E+00  0.22441842889E+03  0.22441842889E+03  0.00000000000E+00 0. -1.
         21   -1    0    0  502  503 -0.00000000000E+00 -0.00000000000E+00 -0.12061759156E+04  0.12061759156E+04  0.00000000000E+00 0. -1.
    9000007    1    1    2  501    0 -0.17089385138E+03 -0.15792177477E+03 -0.16395564669E+03  0.49094342797E+03  0.40000000000E+03 0.  1.
   -9000007    1    1    2    0  503  0.17089385138E+03  0.15792177477E+03 -0.81780184001E+03  0.93965091652E+03  0.40000000000E+03 0.  1.
<mgrwt>
<rscale>  2 0.46275695E+03</rscale>
<asrwt>0</asrwt>
<pdfrwt beam="1">  1       21 0.34525912E-01 0.46275695E+03</pdfrwt>
<pdfrwt beam="2">  1       21 0.18556553E+00 0.46275695E+03</pdfrwt>
<totfact> 0.11269134E+03</totfact>
</mgrwt>
</event>
<event>
 4    1  0.4890517E-002  0.4147086E+03  0.7818608E-02  0.1038802E+00
         21   -1    0    0  501  502  0.00000000000E+00  0.00000000000E+00  0.32253395860E+03  0.32253395860E+03  0.00000000000E+00 0. -1.
         21   -1    0    0  502  503 -0.00000000000E+00 -0.00000000000E+00 -0.79800646232E+03  0.79800646232E+03  0.00000000000E+00 0. -1.
    9000007    1    1    2  501    0 -0.41301239236E+02 -0.10137785951E+03  0.84992664710E+02  0.42332849634E+03  0.40000000000E+03 0. -1.
   -9000007    1    1    2    0  503  0.41301239236E+02  0.10137785951E+03 -0.56046516842E+03  0.69721192458E+03  0.40000000000E+03 0. -1.
<mgrwt>
<rscale>  2 0.41470865E+03</rscale>
<asrwt>0</asrwt>
<pdfrwt beam="1">  1       21 0.49620610E-01 0.41470865E+03</pdfrwt>
<pdfrwt beam="2">  1       21 0.12277022E+00 0.41470865E+03</pdfrwt>
<totfact> 0.16795529E+03</totfact>
</mgrwt>
</event>
<event>
 4    1  0.4890517E-002  0.4664722E+03  0.7818608E-02  0.1022921E+00
         21   -1    0    0  501  502  0.00000000000E+00  0.00000000000E+00  0.10875525969E+04  0.10875525969E+04  0.00000000000E+00 0. -1.
         21   -1    0    0  502  503 -0.00000000000E+00 -0.00000000000E+00 -0.35717681397E+03  0.35717681397E+03  0.00000000000E+00 0. -1.
    9000007    1    1    2  501    0 -0.23718123718E+03  0.36624473371E+02  0.84425917989E+03  0.96455681748E+03  0.40000000000E+03 0. -1.
   -9000007    1    1    2    0  503  0.23718123718E+03 -0.36624473371E+02 -0.11388339697E+03  0.48017259337E+03  0.40000000000E+03 0. -1.
<mgrwt>
<rscale>  2 0.46647218E+03</rscale>
<asrwt>0</asrwt>
<pdfrwt beam="1">  1       21 0.16731578E+00 0.46647218E+03</pdfrwt>
<pdfrwt beam="2">  1       21 0.54950280E-01 0.46647218E+03</pdfrwt>
<totfact> 0.57560760E+02</totfact>
</mgrwt>
</event>
<event>
 4    1  0.4890517E-002  0.4272148E+03  0.7818608E-02  0.1034743E+00
         21   -1    0    0  501  502  0.00000000000E+00  0.00000000000E+00  0.32279552298E+03  0.32279552298E+03  0.00000000000E+00 0.  1.
         21   -1    0    0  502  503 -0.00000000000E+00 -0.00000000000E+00 -0.72953792376E+03  0.72953792376E+03  0.00000000000E+00 0.  1.
    9000007    1    1    2  501    0 -0.11600152304E+03  0.95163776502E+02  0.46196218971E+02  0.42970523426E+03  0.40000000000E+03 0.  1.
   -9000007    1    1    2    0  503  0.11600152304E+03 -0.95163776502E+02 -0.45293861975E+03  0.62262821247E+03  0.40000000000E+03 0.  1.
<mgrwt>
<rscale>  2 0.42721481E+03</rscale>
<asrwt>0</asrwt>
<pdfrwt beam="1">  1       21 0.49660850E-01 0.42721481E+03</pdfrwt>
<pdfrwt beam="2">  1       21 0.11223660E+00 0.42721481E+03</pdfrwt>
<totfact> 0.20906038E+03</totfact>
</mgrwt>
</event>
<event>
 4    1  0.4890517E-002  0.4920767E+03  0.7818608E-02  0.1015868E+00
         21   -1    0    0  501  502  0.00000000000E+00  0.00000000000E+00  0.80917901347E+03  0.80917901347E+03  0.00000000000E+00 0. -1.
         21   -1    0    0  502  503 -0.00000000000E+00 -0.00000000000E+00 -0.44970098742E+03  0.44970098742E+03  0.00000000000E+00 0.  1.
    9000007    1    1    2  501    0  0.24991927854E+03  0.14028472129E+03  0.54382426403E+03  0.73340594418E+03  0.40000000000E+03 0. -1.
   -9000007    1    1    2    0  503 -0.24991927854E+03 -0.14028472129E+03 -0.18434623799E+03  0.52547405671E+03  0.40000000000E+03 0.  1.
<mgrwt>
<rscale>  2 0.49207667E+03</rscale>
<asrwt>0</asrwt>
<pdfrwt beam="1">  1       21 0.12448908E+00 0.49207667E+03</pdfrwt>
<pdfrwt beam="2">  1       21 0.69184767E-01 0.49207667E+03</pdfrwt>
<totfact> 0.75974468E+02</totfact>
</mgrwt>
</event>
<event>
 4    1  0.4890517E-002  0.6835930E+03  0.7818608E-02  0.9745709E-01
         21   -1    0    0  503  502  0.00000000000E+00  0.00000000000E+00  0.96465665096E+03  0.96465665096E+03  0.00000000000E+00 0. -1.
         21   -1    0    0  501  503 -0.00000000000E+00 -0.00000000000E+00 -0.56631326087E+03  0.56631326087E+03  0.00000000000E+00 0.  1.
    9000007    1    1    2  501    0 -0.22900049485E+03  0.50483482004E+03 -0.91920892767E+02  0.68974551299E+03  0.40000000000E+03 0.  1.
   -9000007    1    1    2    0  502  0.22900049485E+03 -0.50483482004E+03  0.49026428285E+03  0.84122439884E+03  0.40000000000E+03 0. -1.
<mgrwt>
<rscale>  2 0.68359302E+03</rscale>
<asrwt>0</asrwt>
<pdfrwt beam="1">  1       21 0.14840871E+00 0.68359302E+03</pdfrwt>
<pdfrwt beam="2">  1       21 0.87125117E-01 0.68359302E+03</pdfrwt>
<totfact> 0.26153514E+02</totfact>
</mgrwt>
</event>
<event>
 4    1  0.4890517E-002  0.4456025E+03  0.7818608E-02  0.1029042E+00
         21   -1    0    0  503  502  0.00000000000E+00  0.00000000000E+00  0.16816444072E+03  0.16816444072E+03  0.00000000000E+00 0.  1.
         21   -1    0    0  501  503 -0.00000000000E+00 -0.00000000000E+00 -0.14042668380E+04  0.14042668380E+04  0.00000000000E+00 0.  1.
    9000007    1    1    2  501    0  0.14852788677E+02  0.19580842308E+03 -0.30438768317E+03  0.53964192345E+03  0.40000000000E+03 0.  1.
   -9000007    1    1    2    0  502 -0.14852788677E+02 -0.19580842308E+03 -0.93171471413E+03  0.10327893553E+04  0.40000000000E+03 0.  1.
<mgrwt>
<rscale>  2 0.44560245E+03</rscale>
<asrwt>0</asrwt>
<pdfrwt beam="1">  1       21 0.25871453E-01 0.44560245E+03</pdfrwt>
<pdfrwt beam="2">  1       21 0.21604105E+00 0.44560245E+03</pdfrwt>
<totfact> 0.12617726E+03</totfact>
</mgrwt>
</event>
<event>
 4    1  0.4890517E-002  0.4104689E+03  0.7818608E-02  0.1040214E+00
         21   -1    0    0  503  502  0.00000000000E+00  0.00000000000E+00  0.68981572197E+03  0.68981572197E+03  0.00000000000E+00 0.  1.
         21   -1    0    0  501  503 -0.00000000000E+00 -0.00000000000E+00 -0.25381636798E+03  0.25381636798E+03  0.00000000000E+00 0.  1.
    9000007    1    1    2  501    0  0.80063317080E+01 -0.91763819481E+02  0.12638222096E+03  0.42948476770E+03  0.40000000000E+03 0.  1.
   -9000007    1    1    2    0  502 -0.80063317080E+01  0.91763819481E+02  0.30961713302E+03  0.51414732225E+03  0.40000000000E+03 0.  1.
<mgrwt>
<rscale>  2 0.41046888E+03</rscale>
<asrwt>0</asrwt>
<pdfrwt beam="1">  1       21 0.10612550E+00 0.41046888E+03</pdfrwt>
<pdfrwt beam="2">  1       21 0.39048672E-01 0.41046888E+03</pdfrwt>
<totfact> 0.39899333E+03</totfact>
</mgrwt>
</event>
<event>
 4    1  0.4890517E-002  0.4231004E+03  0.7818608E-02  0.1036062E+00
         21   -1    0    0  501  502  0.00000000000E+00  0.00000000000E+00  0.70706677214E+03  0.70706677214E+03  0.00000000000E+00 0. -1.
         21   -1    0    0  502  503 -0.00000000000E+00 -0.00000000000E+00 -0.38703454602E+03  0.38703454602E+03  0.00000000000E+00 0. -1.
    9000007    1    1    2  501    0 -0.15735709276E+02  0.13699025113E+03  0.48173166158E+03  0.64115468899E+03  0.40000000000E+03 0. -1.
   -9000007    1    1    2    0  503  0.15735709276E+02 -0.13699025113E+03 -0.16169943545E+03  0.45294662917E+03  0.40000000000E+03 0. -1.
<mgrwt>
<rscale>  2 0.42310039E+03</rscale>
<asrwt>0</asrwt>
<pdfrwt beam="1">  1       21 0.10877950E+00 0.42310039E+03</pdfrwt>
<pdfrwt beam="2">  1       21 0.59543776E-01 0.42310039E+03</pdfrwt>
<totfact> 0.15310436E+03</totfact>
</mgrwt>
</event>
<event>
 4    1  0.4890517E-002  0.4007175E+03  0.7818608E-02  0.1043532E+00
         21   -1    0    0  501  502  0.00000000000E+00  0.00000000000E+00  0.83844517380E+02  0.83844517380E+02  0.00000000000E+00 0. -1.
         21   -1    0    0  502  503 -0.00000000000E+00 -0.00000000000E+00 -0.20425191299E+04  0.20425191299E+04  0.00000000000E+00 0. -1.
    9000007    1    1    2  501    0 -0.20464763630E+02 -0.12478446659E+02 -0.71383832649E+03  0.81862059255E+03  0.40000000000E+03 0. -1.
   -9000007    1    1    2    0  503  0.20464763630E+02  0.12478446659E+02 -0.12448362861E+04  0.13077430548E+04  0.40000000000E+03 0. -1.
<mgrwt>
<rscale>  2 0.40071750E+03</rscale>
<asrwt>0</asrwt>
<pdfrwt beam="1">  1       21 0.12899157E-01 0.40071750E+03</pdfrwt>
<pdfrwt beam="2">  1       21 0.31423369E+00 0.40071750E+03</pdfrwt>
<totfact> 0.12080347E+03</totfact>
</mgrwt>
</event>
<event>
 4    1  0.4890517E-002  0.4746381E+03  0.7818608E-02  0.1020619E+00
         21   -1    0    0  503  502  0.00000000000E+00  0.00000000000E+00  0.26197170350E+03  0.26197170350E+03  0.00000000000E+00 0.  1.
         21   -1    0    0  501  503 -0.00000000000E+00 -0.00000000000E+00 -0.13564899850E+04  0.13564899850E+04  0.00000000000E+00 0. -1.
    9000007    1    1    2  501    0  0.13702748375E+03  0.21564981274E+03 -0.10368612019E+04  0.11403343918E+04  0.40000000000E+03 0. -1.
   -9000007    1    1    2    0  502 -0.13702748375E+03 -0.21564981274E+03 -0.57657079585E+02  0.47812729671E+03  0.40000000000E+03 0.  1.
<mgrwt>
<rscale>  2 0.47463815E+03</rscale>
<asrwt>0</asrwt>
<pdfrwt beam="1">  1       21 0.40303339E-01 0.47463815E+03</pdfrwt>
<pdfrwt beam="2">  1       21 0.20869076E+00 0.47463815E+03</pdfrwt>
<totfact> 0.57099961E+02</totfact>
</mgrwt>
</event>
<event>
 4    1  0.4890517E-002  0.4219727E+03  0.7818608E-02  0.1036426E+00
         21   -1    0    0  503  502  0.00000000000E+00  0.00000000000E+00  0.82254399545E+03  0.82254399545E+03  0.00000000000E+00 0. -1.
         21   -1    0    0  501  503 -0.00000000000E+00 -0.00000000000E+00 -0.22809052659E+03  0.22809052659E+03  0.00000000000E+00 0.  1.
    9000007    1    1    2  501    0  0.74739628010E+02  0.11169116718E+03  0.17868502294E+03  0.45824585786E+03  0.40000000000E+03 0.  1.
   -9000007    1    1    2    0  502 -0.74739628010E+02 -0.11169116718E+03  0.41576844592E+03  0.59238866418E+03  0.40000000000E+03 0. -1.
<mgrwt>
<rscale>  2 0.42197266E+03</rscale>
<asrwt>0</asrwt>
<pdfrwt beam="1">  1       21 0.12654523E+00 0.42197266E+03</pdfrwt>
<pdfrwt beam="2">  1       21 0.35090851E-01 0.42197266E+03</pdfrwt>
<totfact> 0.31740909E+03</totfact>
</mgrwt>
</event>
<event>
 4    1  0.4890517E-002  0.4171945E+03  0.7818608E-02  0.1037983E+00
         21   -1    0    0  501  502  0.00000000000E+00  0.00000000000E+00  0.68026568555E+03  0.68026568555E+03  0.00000000000E+00 0. -1.
         21   -1    0    0  502  503 -0.00000000000E+00 -0.00000000000E+00 -0.30707427873E+03  0.30707427873E+03  0.00000000000E+00 0. -1.
    9000007    1    1    2  501    0 -0.11803105563E+03  0.10949201945E+02  0.38820951191E+03  0.56987528482E+03  0.40000000000E+03 0. -1.
   -9000007    1    1    2    0  503  0.11803105563E+03 -0.10949201945E+02 -0.15018105082E+02  0.41746467946E+03  0.40000000000E+03 0. -1.
<mgrwt>
<rscale>  2 0.41719446E+03</rscale>
<asrwt>0</asrwt>
<pdfrwt beam="1">  1       21 0.10465626E+00 0.41719446E+03</pdfrwt>
<pdfrwt beam="2">  1       21 0.47242197E-01 0.41719446E+03</pdfrwt>
<totfact> 0.27724635E+03</totfact>
</mgrwt>
</event>
<event>
 4    1  0.4890517E-002  0.4141539E+03  0.7818608E-02  0.1038986E+00
         21   -1    0    0  503  502  0.00000000000E+00  0.00000000000E+00  0.17665404079E+03  0.17665404079E+03  0.00000000000E+00 0. -1.
         21   -1    0    0  501  503 -0.00000000000E+00 -0.00000000000E+00 -0.10035697121E+04  0.10035697121E+04  0.00000000000E+00 0. -1.
    9000007    1    1    2  501    0  0.94600045934E+02 -0.50737078186E+02 -0.30707875930E+03  0.51557810679E+03  0.40000000000E+03 0. -1.
   -9000007    1    1    2    0  502 -0.94600045934E+02  0.50737078186E+02 -0.51983691200E+03  0.66464564610E+03  0.40000000000E+03 0. -1.
<mgrwt>
<rscale>  2 0.41415386E+03</rscale>
<asrwt>0</asrwt>
<pdfrwt beam="1">  1       21 0.27177545E-01 0.41415386E+03</pdfrwt>
<pdfrwt beam="2">  1       21 0.15439534E+00 0.41415386E+03</pdfrwt>
<totfact> 0.31261491E+03</totfact>
</mgrwt>
</event>
<event>
 4    1  0.4890517E-002  0.4995569E+03  0.7818608E-02  0.1013895E+00
         21   -1    0    0  503  502  0.00000000000E+00  0.00000000000E+00  0.29855907831E+03  0.29855907831E+03  0.00000000000E+00 0.  1.
         21   -1    0    0  501  503 -0.00000000000E+00 -0.00000000000E+00 -0.12107138254E+04  0.12107138254E+04  0.00000000000E+00 0.  1.
    9000007    1    1    2  501    0  0.63939744358E+02  0.29235043090E+03 -0.87597291311E+03  0.10084074622E+04  0.40000000000E+03 0. -1.
   -9000007    1    1    2    0  502 -0.63939744358E+02 -0.29235043090E+03 -0.36181833957E+02  0.50086544147E+03  0.40000000000E+03 0. -1.
<mgrwt>
<rscale>  2 0.49955687E+03</rscale>
<asrwt>0</asrwt>
<pdfrwt beam="1">  1       21 0.45932165E-01 0.49955687E+03</pdfrwt>
<pdfrwt beam="2">  1       21 0.18626367E+00 0.49955687E+03</pdfrwt>
<totfact> 0.60883587E+02</totfact>
</mgrwt>
</event>
<event>
 4    1  0.4890517E-002  0.5938294E+03  0.7818608E-02  0.9918291E-01
         21   -1    0    0  501  502  0.00000000000E+00  0.00000000000E+00  0.80985004598E+03  0.80985004598E+03  0.00000000000E+00 0.  1.
         21   -1    0    0  502  503 -0.00000000000E+00 -0.00000000000E+00 -0.76818729055E+03  0.76818729055E+03  0.00000000000E+00 0.  1.
    9000007    1    1    2  501    0  0.41473922761E+03  0.14361297606E+03  0.54013010868E+03  0.80272900042E+03  0.40000000000E+03 0.  1.
   -9000007    1    1    2    0  503 -0.41473922761E+03 -0.14361297606E+03 -0.49846735325E+03  0.77530833612E+03  0.40000000000E+03 0.  1.
<mgrwt>
<rscale>  2 0.59382936E+03</rscale>
<asrwt>0</asrwt>
<pdfrwt beam="1">  1       21 0.12459231E+00 0.59382936E+03</pdfrwt>
<pdfrwt beam="2">  1       21 0.11818266E+00 0.59382936E+03</pdfrwt>
<totfact> 0.20302768E+02</totfact>
</mgrwt>
</event>
<event>
 4    1  0.4890517E-002  0.4424463E+03  0.7818608E-02  0.1029999E+00
         21   -1    0    0  503  502  0.00000000000E+00  0.00000000000E+00  0.20922875315E+03  0.20922875315E+03  0.00000000000E+00 0. -1.
         21   -1    0    0  501  503 -0.00000000000E+00 -0.00000000000E+00 -0.10832274532E+04  0.10832274532E+04  0.00000000000E+00 0. -1.
    9000007    1    1    2  501    0  0.16266909904E+03 -0.96423406368E+02 -0.19844934474E+03  0.48491324122E+03  0.40000000000E+03 0. -1.
   -9000007    1    1    2    0  502 -0.16266909904E+03  0.96423406368E+02 -0.67554935532E+03  0.80754296515E+03  0.40000000000E+03 0. -1.
<mgrwt>
<rscale>  2 0.44244628E+03</rscale>
<asrwt>0</asrwt>
<pdfrwt beam="1">  1       21 0.32189039E-01 0.44244628E+03</pdfrwt>
<pdfrwt beam="2">  1       21 0.16665038E+00 0.44244628E+03</pdfrwt>
<totfact> 0.17862698E+03</totfact>
</mgrwt>
</event>
<event>
 4    1  0.4890517E-002  0.5741164E+03  0.7818608E-02  0.9960611E-01
         21   -1    0    0  501  502  0.00000000000E+00  0.00000000000E+00  0.20812099729E+04  0.20812099729E+04  0.00000000000E+00 0.  1.
         21   -1    0    0  502  503 -0.00000000000E+00 -0.00000000000E+00 -0.26339817844E+03  0.26339817844E+03  0.00000000000E+00 0.  1.
    9000007    1    1    2  501    0 -0.26354058134E+03  0.31647441394E+03  0.16491558600E+04  0.17462315835E+04  0.40000000000E+03 0.  1.
   -9000007    1    1    2    0  503  0.26354058134E+03 -0.31647441394E+03  0.16865593447E+03  0.59837656783E+03  0.40000000000E+03 0.  1.
<mgrwt>
<rscale>  2 0.57411645E+03</rscale>
<asrwt>0</asrwt>
<pdfrwt beam="1">  1       21 0.32018614E+00 0.57411645E+03</pdfrwt>
<pdfrwt beam="2">  1       21 0.40522798E-01 0.57411645E+03</pdfrwt>
<totfact> 0.10997547E+02</totfact>
</mgrwt>
</event>
<event>
 4    1  0.4890517E-002  0.5245496E+03  0.7818608E-02  0.1007563E+00
         21   -1    0    0  501  502  0.00000000000E+00  0.00000000000E+00  0.20647464256E+03  0.20647464256E+03  0.00000000000E+00 0.  1.
         21   -1    0    0  502  503 -0.00000000000E+00 -0.00000000000E+00 -0.13326299849E+04  0.13326299849E+04  0.00000000000E+00 0.  1.
    9000007    1    1    2  501    0 -0.19826177395E+03 -0.27539886883E+03 -0.56516885866E+03  0.77108242540E+03  0.40000000000E+03 0.  1.
   -9000007    1    1    2    0  503  0.19826177395E+03  0.27539886883E+03 -0.56098648365E+03  0.76802220202E+03  0.40000000000E+03 0.  1.
<mgrwt>
<rscale>  2 0.52454959E+03</rscale>
<asrwt>0</asrwt>
<pdfrwt beam="1">  1       21 0.31765331E-01 0.52454959E+03</pdfrwt>
<pdfrwt beam="2">  1       21 0.20501999E+00 0.52454959E+03</pdfrwt>
<totfact> 0.95916523E+02</totfact>
</mgrwt>
</event>
<event>
 4    1  0.4890517E-002  0.5154094E+03  0.7818608E-02  0.1009833E+00
         21   -1    0    0  503  502  0.00000000000E+00  0.00000000000E+00  0.50883133224E+03  0.50883133224E+03  0.00000000000E+00 0.  1.
         21   -1    0    0  501  503 -0.00000000000E+00 -0.00000000000E+00 -0.10351834399E+04  0.10351834399E+04  0.00000000000E+00 0.  1.
    9000007    1    1    2  501    0  0.30111602931E+02 -0.32363581600E+03 -0.80669968501E+03  0.95729370196E+03  0.40000000000E+03 0.  1.
   -9000007    1    1    2    0  502 -0.30111602931E+02  0.32363581600E+03  0.28034757736E+03  0.58672107015E+03  0.40000000000E+03 0.  1.
<mgrwt>
<rscale>  2 0.51540940E+03</rscale>
<asrwt>0</asrwt>
<pdfrwt beam="1">  1       21 0.78281744E-01 0.51540940E+03</pdfrwt>
<pdfrwt beam="2">  1       21 0.15925899E+00 0.51540940E+03</pdfrwt>
<totfact> 0.29390590E+02</totfact>
</mgrwt>
</event>
<event>
 4    1  0.4890517E-002  0.4059019E+03  0.7818608E-02  0.1041755E+00
         21   -1    0    0  503  502  0.00000000000E+00  0.00000000000E+00  0.12933008244E+04  0.12933008244E+04  0.00000000000E+00 0.  1.
         21   -1    0    0  501  503 -0.00000000000E+00 -0.00000000000E+00 -0.25188274320E+03  0.25188274320E+03  0.00000000000E+00 0.  1.
    9000007    1    1    2  501    0 -0.13800665570E+01 -0.68952674642E+02 -0.22440156365E+02  0.40652175408E+03  0.40000000000E+03 0.  1.
   -9000007    1    1    2    0  502  0.13800665570E+01  0.68952674642E+02  0.10638582376E+04  0.11386618135E+04  0.40000000000E+03 0.  1.
<mgrwt>
<rscale>  2 0.40590193E+03</rscale>
<asrwt>0</asrwt>
<pdfrwt beam="1">  1       21 0.19896935E+00 0.40590193E+03</pdfrwt>
<pdfrwt beam="2">  1       21 0.38751192E-01 0.40590193E+03</pdfrwt>
<totfact> 0.74236246E+02</totfact>
</mgrwt>
</event>
<event>
 4    1  0.4890517E-002  0.4716195E+03  0.7818608E-02  0.1021464E+00
         21   -1    0    0  503  502  0.00000000000E+00  0.00000000000E+00  0.29581800297E+04  0.29581800297E+04  0.00000000000E+00 0. -1.
         21   -1    0    0  501  503 -0.00000000000E+00 -0.00000000000E+00 -0.13601689570E+03  0.13601689570E+03  0.00000000000E+00 0. -1.
    9000007    1    1    2  501    0 -0.19309972669E+03 -0.15854804668E+03  0.37648737000E+03  0.60346311182E+03  0.40000000000E+03 0. -1.
   -9000007    1    1    2    0  502  0.19309972669E+03  0.15854804668E+03  0.24456757640E+04  0.24907338136E+04  0.40000000000E+03 0. -1.
<mgrwt>
<rscale>  2 0.47161954E+03</rscale>
<asrwt>0</asrwt>
<pdfrwt beam="1">  1       21 0.45510457E+00 0.47161954E+03</pdfrwt>
<pdfrwt beam="2">  1       21 0.20925678E-01 0.47161954E+03</pdfrwt>
<totfact> 0.59620307E+01</totfact>
</mgrwt>
</event>
<event>
 4    1  0.4890517E-002  0.4018789E+03  0.7818608E-02  0.1043131E+00
         21   -1    0    0  501  502  0.00000000000E+00  0.00000000000E+00  0.63268661301E+03  0.63268661301E+03  0.00000000000E+00 0. -1.
         21   -1    0    0  502  503 -0.00000000000E+00 -0.00000000000E+00 -0.32413738538E+03  0.32413738538E+03  0.00000000000E+00 0. -1.
    9000007    1    1    2  501    0  0.38815260385E+02  0.24292674753E+00  0.37479078982E+03  0.54952235585E+03  0.40000000000E+03 0. -1.
   -9000007    1    1    2    0  503 -0.38815260385E+02 -0.24292674753E+00 -0.66241562186E+02  0.40730164254E+03  0.40000000000E+03 0. -1.
<mgrwt>
<rscale>  2 0.40187894E+03</rscale>
<asrwt>0</asrwt>
<pdfrwt beam="1">  1       21 0.97336402E-01 0.40187894E+03</pdfrwt>
<pdfrwt beam="2">  1       21 0.49867290E-01 0.40187894E+03</pdfrwt>
<totfact> 0.29677740E+03</totfact>
</mgrwt>
</event>
<event>
 4    1  0.4890517E-002  0.5279906E+03  0.7818608E-02  0.1006721E+00
         21   -1    0    0  501  502  0.00000000000E+00  0.00000000000E+00  0.23925781598E+03  0.23925781598E+03  0.00000000000E+00 0. -1.
         21   -1    0    0  502  503 -0.00000000000E+00 -0.00000000000E+00 -0.12146699905E+04  0.12146699905E+04  0.00000000000E+00 0. -1.
    9000007    1    1    2  501    0  0.34438153295E+03 -0.13245746509E+02 -0.63447085455E+03  0.82542556012E+03  0.40000000000E+03 0. -1.
   -9000007    1    1    2    0  503 -0.34438153295E+03  0.13245746509E+02 -0.34094132001E+03  0.62850224639E+03  0.40000000000E+03 0. -1.
<mgrwt>
<rscale>  2 0.52799062E+03</rscale>
<asrwt>0</asrwt>
<pdfrwt beam="1">  1       21 0.36808895E-01 0.52799062E+03</pdfrwt>
<pdfrwt beam="2">  1       21 0.18687231E+00 0.52799062E+03</pdfrwt>
<totfact> 0.94370598E+02</totfact>
</mgrwt>
</event>
<event>
 4    1  0.4890517E-002  0.4817809E+03  0.7818608E-02  0.1018647E+00
         21   -1    0    0  503  502  0.00000000000E+00  0.00000000000E+00  0.16797067955E+04  0.16797067955E+04  0.00000000000E+00 0.  1.
         21   -1    0    0  501  503 -0.00000000000E+00 -0.00000000000E+00 -0.13849234723E+03  0.13849234723E+03  0.00000000000E+00 0. -1.
    9000007    1    1    2  501    0  0.10473225583E+03 -0.24727308756E+03  0.81332823072E+03  0.94531245423E+03  0.40000000000E+03 0.  1.
   -9000007    1    1    2    0  502 -0.10473225583E+03  0.24727308756E+03  0.72788621751E+03  0.87288668846E+03  0.40000000000E+03 0. -1.
<mgrwt>
<rscale>  2 0.48178089E+03</rscale>
<asrwt>0</asrwt>
<pdfrwt beam="1">  1       21 0.25841642E+00 0.48178089E+03</pdfrwt>
<pdfrwt beam="2">  1       21 0.21306516E-01 0.48178089E+03</pdfrwt>
<totfact> 0.98125320E+02</totfact>
</mgrwt>
</event>
<event>
 4    1  0.4890517E-002  0.4798966E+03  0.7818608E-02  0.1019164E+00
         21   -1    0    0  501  502  0.00000000000E+00  0.00000000000E+00  0.15880675096E+04  0.15880675096E+04  0.00000000000E+00 0.  1.
         21   -1    0    0  502  503 -0.00000000000E+00 -0.00000000000E+00 -0.46866536318E+03  0.46866536318E+03  0.00000000000E+00 0.  1.
    9000007    1    1    2  501    0 -0.25961882474E+03  0.53840937315E+02  0.14142786330E+04  0.14934807774E+04  0.40000000000E+03 0.  1.
   -9000007    1    1    2    0  503  0.25961882474E+03 -0.53840937315E+02 -0.29487648653E+03  0.56325209542E+03  0.40000000000E+03 0.  1.
<mgrwt>
<rscale>  2 0.47989664E+03</rscale>
<asrwt>0</asrwt>
<pdfrwt beam="1">  1       21 0.24431808E+00 0.47989664E+03</pdfrwt>
<pdfrwt beam="2">  1       21 0.72102364E-01 0.47989664E+03</pdfrwt>
<totfact> 0.96304316E+01</totfact>
</mgrwt>
</event>
<event>
 4    1  0.4890517E-002  0.4136312E+03  0.7818608E-02  0.1039159E+00
         21   -1    0    0  501  502  0.00000000000E+00  0.00000000000E+00  0.49161243932E+03  0.49161243932E+03  0.00000000000E+00 0.  1.
         21   -1    0    0  502  503 -0.00000000000E+00 -0.00000000000E+00 -0.34834495941E+03  0.34834495941E+03  0.00000000000E+00 0.  1.
    9000007    1    1    2  501    0  0.90084380544E+02  0.54548841658E+02  0.58798785378E+02  0.41778950311E+03  0.40000000000E+03 0. -1.
   -9000007    1    1    2    0  503 -0.90084380544E+02 -0.54548841658E+02  0.84468694531E+02  0.42216789563E+03  0.40000000000E+03 0. -1.
<mgrwt>
<rscale>  2 0.41363120E+03</rscale>
<asrwt>0</asrwt>
<pdfrwt beam="1">  1       21 0.75632683E-01 0.41363120E+03</pdfrwt>
<pdfrwt beam="2">  1       21 0.53591532E-01 0.41363120E+03</pdfrwt>
<totfact> 0.45715676E+03</totfact>
</mgrwt>
</event>
<event>
 4    1  0.4890517E-002  0.5100466E+03  0.7818608E-02  0.1011189E+00
         21   -1    0    0  503  502  0.00000000000E+00  0.00000000000E+00  0.11399913948E+03  0.11399913948E+03  0.00000000000E+00 0. -1.
         21   -1    0    0  501  503 -0.00000000000E+00 -0.00000000000E+00 -0.28049017902E+04  0.28049017902E+04  0.00000000000E+00 0. -1.
    9000007    1    1    2  501    0 -0.25431371333E+03  0.18834022492E+03 -0.19755887056E+04  0.20403671823E+04  0.40000000000E+03 0. -1.
   -9000007    1    1    2    0  502  0.25431371333E+03 -0.18834022492E+03 -0.71531394514E+03  0.87853374735E+03  0.40000000000E+03 0. -1.
<mgrwt>
<rscale>  2 0.51004657E+03</rscale>
<asrwt>0</asrwt>
<pdfrwt beam="1">  1       21 0.17538332E-01 0.51004657E+03</pdfrwt>
<pdfrwt beam="2">  1       21 0.43152328E+00 0.51004657E+03</pdfrwt>
<totfact> 0.11717938E+02</totfact>
</mgrwt>
</event>
<event>
 4    1  0.4890517E-002  0.4338081E+03  0.7818608E-02  0.1032664E+00
         21   -1    0    0  501  502  0.00000000000E+00  0.00000000000E+00  0.91452907511E+03  0.91452907511E+03  0.00000000000E+00 0.  1.
         21   -1    0    0  502  503 -0.00000000000E+00 -0.00000000000E+00 -0.28050419409E+03  0.28050419409E+03  0.00000000000E+00 0.  1.
    9000007    1    1    2  501    0  0.12639912900E+03  0.11051108366E+03  0.62541531654E+03  0.76113977533E+03  0.40000000000E+03 0.  1.
   -9000007    1    1    2    0  503 -0.12639912900E+03 -0.11051108366E+03  0.86095644784E+01  0.43389349387E+03  0.40000000000E+03 0.  1.
<mgrwt>
<rscale>  2 0.43380807E+03</rscale>
<asrwt>0</asrwt>
<pdfrwt beam="1">  1       21 0.14069678E+00 0.43380807E+03</pdfrwt>
<pdfrwt beam="2">  1       21 0.43154492E-01 0.43380807E+03</pdfrwt>
<totfact> 0.15671535E+03</totfact>
</mgrwt>
</event>
<event>
 4    1  0.4890517E-002  0.4393412E+03  0.7818608E-02  0.1030949E+00
         21   -1    0    0  501  502  0.00000000000E+00  0.00000000000E+00  0.12316876448E+04  0.12316876448E+04  0.00000000000E+00 0.  1.
         21   -1    0    0  502  503 -0.00000000000E+00 -0.00000000000E+00 -0.53622111632E+03  0.53622111632E+03  0.00000000000E+00 0.  1.
    9000007    1    1    2  501    0 -0.76673369196E+02 -0.16474804667E+03  0.10913835938E+04  0.11764943150E+04  0.40000000000E+03 0.  1.
   -9000007    1    1    2    0  503  0.76673369196E+02  0.16474804667E+03 -0.39591706534E+03  0.59141444610E+03  0.40000000000E+03 0.  1.
<mgrwt>
<rscale>  2 0.43934124E+03</rscale>
<asrwt>0</asrwt>
<pdfrwt beam="1">  1       21 0.18949041E+00 0.43934124E+03</pdfrwt>
<pdfrwt beam="2">  1       21 0.82495557E-01 0.43934124E+03</pdfrwt>
<totfact> 0.16362885E+02</totfact>
</mgrwt>
</event>
<event>
 4    1  0.4890517E-002  0.4545251E+03  0.7818608E-02  0.1026381E+00
         21   -1    0    0  503  502  0.00000000000E+00  0.00000000000E+00  0.10771617304E+03  0.10771617304E+03  0.00000000000E+00 0.  1.
         21   -1    0    0  501  503 -0.00000000000E+00 -0.00000000000E+00 -0.21711328386E+04  0.21711328386E+04  0.00000000000E+00 0. -1.
    9000007    1    1    2  501    0 -0.17452382273E+03  0.12702151849E+03 -0.64260130915E+03  0.78710194599E+03  0.40000000000E+03 0. -1.
   -9000007    1    1    2    0  502  0.17452382273E+03 -0.12702151849E+03 -0.14208153564E+04  0.14917470656E+04  0.40000000000E+03 0. -1.
<mgrwt>
<rscale>  2 0.45452506E+03</rscale>
<asrwt>0</asrwt>
<pdfrwt beam="1">  1       21 0.16571719E-01 0.45452506E+03</pdfrwt>
<pdfrwt beam="2">  1       21 0.33402043E+00 0.45452506E+03</pdfrwt>
<totfact> 0.55916430E+02</totfact>
</mgrwt>
</event>
<event>
 4    1  0.4890517E-002  0.4288957E+03  0.7818608E-02  0.1034209E+00
         21   -1    0    0  501  502  0.00000000000E+00  0.00000000000E+00  0.21172377748E+03  0.21172377748E+03  0.00000000000E+00 0.  1.
         21   -1    0    0  502  503 -0.00000000000E+00 -0.00000000000E+00 -0.94158916673E+03  0.94158916673E+03  0.00000000000E+00 0.  1.
    9000007    1    1    2  501    0  0.37293189121E+02 -0.15020231804E+03 -0.52523385415E+03  0.67810185064E+03  0.40000000000E+03 0.  1.
   -9000007    1    1    2    0  503 -0.37293189121E+02  0.15020231804E+03 -0.20463153510E+03  0.47521109357E+03  0.40000000000E+03 0.  1.
<mgrwt>
<rscale>  2 0.42889570E+03</rscale>
<asrwt>0</asrwt>
<pdfrwt beam="1">  1       21 0.32572890E-01 0.42889570E+03</pdfrwt>
<pdfrwt beam="2">  1       21 0.14485987E+00 0.42889570E+03</pdfrwt>
<totfact> 0.25790198E+03</totfact>
</mgrwt>
</event>
<event>
 4    1  0.4890517E-002  0.4409874E+03  0.7818608E-02  0.1030444E+00
         21   -1    0    0  501  502  0.00000000000E+00  0.00000000000E+00  0.20649923352E+04  0.20649923352E+04  0.00000000000E+00 0.  1.
         21   -1    0    0  502  503 -0.00000000000E+00 -0.00000000000E+00 -0.98712971314E+02  0.98712971314E+02  0.00000000000E+00 0.  1.
    9000007    1    1    2  501    0  0.13403787883E+03 -0.12846685377E+03  0.12151085290E+04  0.12926556474E+04  0.40000000000E+03 0.  1.
   -9000007    1    1    2    0  503 -0.13403787883E+03  0.12846685377E+03  0.75117083488E+03  0.87104965912E+03  0.40000000000E+03 0.  1.
<mgrwt>
<rscale>  2 0.44098740E+03</rscale>
<asrwt>0</asrwt>
<pdfrwt beam="1">  1       21 0.31769110E+00 0.44098740E+03</pdfrwt>
<pdfrwt beam="2">  1       21 0.15186613E-01 0.44098740E+03</pdfrwt>
<totfact> 0.83247031E+02</totfact>
</mgrwt>
</event>
<event>
 4    1  0.4890517E-002  0.4546375E+03  0.7818608E-02  0.1026348E+00
         21   -1    0    0  503  502  0.00000000000E+00  0.00000000000E+00  0.16344550835E+03  0.16344550835E+03  0.00000000000E+00 0. -1.
         21   -1    0    0  501  503 -0.00000000000E+00 -0.00000000000E+00 -0.13879218978E+04  0.13879218978E+04  0.00000000000E+00 0.  1.
    9000007    1    1    2  501    0  0.18871553160E+03 -0.10526954599E+03 -0.84344482390E+03  0.95817242714E+03  0.40000000000E+03 0.  1.
   -9000007    1    1    2    0  502 -0.18871553160E+03  0.10526954599E+03 -0.38103156558E+03  0.59319497903E+03  0.40000000000E+03 0. -1.
<mgrwt>
<rscale>  2 0.45463747E+03</rscale>
<asrwt>0</asrwt>
<pdfrwt beam="1">  1       21 0.25145464E-01 0.45463747E+03</pdfrwt>
<pdfrwt beam="2">  1       21 0.21352644E+00 0.45463747E+03</pdfrwt>
<totfact> 0.13789167E+03</totfact>
</mgrwt>
</event>
<event>
 4    1  0.4890517E-002  0.4800428E+03  0.7818608E-02  0.1019123E+00
         21   -1    0    0  503  502  0.00000000000E+00  0.00000000000E+00  0.87970690334E+03  0.87970690334E+03  0.00000000000E+00 0.  1.
         21   -1    0    0  501  503 -0.00000000000E+00 -0.00000000000E+00 -0.27962199123E+03  0.27962199123E+03  0.00000000000E+00 0. -1.
    9000007    1    1    2  501    0 -0.24729623770E+03 -0.96362161083E+02  0.44575857565E+03  0.65508915655E+03  0.40000000000E+03 0.  1.
   -9000007    1    1    2    0  502  0.24729623770E+03  0.96362161083E+02  0.15432633646E+03  0.50423973801E+03  0.40000000000E+03 0.  1.
<mgrwt>
<rscale>  2 0.48004281E+03</rscale>
<asrwt>0</asrwt>
<pdfrwt beam="1">  1       21 0.13533952E+00 0.48004281E+03</pdfrwt>
<pdfrwt beam="2">  1       21 0.43018768E-01 0.48004281E+03</pdfrwt>
<totfact> 0.17166028E+03</totfact>
</mgrwt>
</event>
<event>
 4    1  0.4890517E-002  0.5232410E+03  0.7818608E-02  0.1007885E+00
         21   -1    0    0  503  502  0.00000000000E+00  0.00000000000E+00  0.45560186983E+03  0.45560186983E+03  0.00000000000E+00 0. -1.
         21   -1    0    0  501  503 -0.00000000000E+00 -0.00000000000E+00 -0.62764155688E+03  0.62764155688E+03  0.00000000000E+00 0. -1.
    9000007    1    1    2  501    0 -0.16703858268E+03  0.29305158932E+03 -0.19777202287E+03  0.55937008781E+03  0.40000000000E+03 0. -1.
   -9000007    1    1    2    0  502  0.16703858268E+03 -0.29305158932E+03  0.25732335817E+02  0.52387333890E+03  0.40000000000E+03 0. -1.
<mgrwt>
<rscale>  2 0.52324098E+03</rscale>
<asrwt>0</asrwt>
<pdfrwt beam="1">  1       21 0.70092596E-01 0.52324098E+03</pdfrwt>
<pdfrwt beam="2">  1       21 0.96560239E-01 0.52324098E+03</pdfrwt>
<totfact> 0.13738508E+03</totfact>
</mgrwt>
</event>
<event>
 4    1  0.4890517E-002  0.4191944E+03  0.7818608E-02  0.1037329E+00
         21   -1    0    0  501  502  0.00000000000E+00  0.00000000000E+00  0.38487411408E+03  0.38487411408E+03  0.00000000000E+00 0.  1.
         21   -1    0    0  502  503 -0.00000000000E+00 -0.00000000000E+00 -0.51854494725E+03  0.51854494725E+03  0.00000000000E+00 0.  1.
    9000007    1    1    2  501    0 -0.59813641627E+02 -0.11021020345E+03  0.89319638887E+02  0.42860466465E+03  0.40000000000E+03 0. -1.
   -9000007    1    1    2    0  503  0.59813641627E+02  0.11021020345E+03 -0.22299047205E+03  0.47481439668E+03  0.40000000000E+03 0. -1.
<mgrwt>
<rscale>  2 0.41919442E+03</rscale>
<asrwt>0</asrwt>
<pdfrwt beam="1">  1       21 0.59211402E-01 0.41919442E+03</pdfrwt>
<pdfrwt beam="2">  1       21 0.79776146E-01 0.41919442E+03</pdfrwt>
<totfact> 0.32534808E+03</totfact>
</mgrwt>
</event>
<event>
 4    1  0.4890517E-002  0.4494264E+03  0.7818608E-02  0.1027893E+00
         21   -1    0    0  501  502  0.00000000000E+00  0.00000000000E+00  0.20926254380E+03  0.20926254380E+03  0.00000000000E+00 0. -1.
         21   -1    0    0  502  503 -0.00000000000E+00 -0.00000000000E+00 -0.11049238743E+04  0.11049238743E+04  0.00000000000E+00 0. -1.
    9000007    1    1    2  501    0  0.15010893532E+03  0.13946819713E+03 -0.21417978726E+03  0.49785243973E+03  0.40000000000E+03 0. -1.
   -9000007    1    1    2    0  503 -0.15010893532E+03 -0.13946819713E+03 -0.68148154324E+03  0.81633397838E+03  0.40000000000E+03 0. -1.
<mgrwt>
<rscale>  2 0.44942638E+03</rscale>
<asrwt>0</asrwt>
<pdfrwt beam="1">  1       21 0.32194238E-01 0.44942638E+03</pdfrwt>
<pdfrwt beam="2">  1       21 0.16998829E+00 0.44942638E+03</pdfrwt>
<totfact> 0.16831495E+03</totfact>
</mgrwt>
</event>
<event>
 4    1  0.4890517E-002  0.4208640E+03  0.7818608E-02  0.1036785E+00
         21   -1    0    0  503  502  0.00000000000E+00  0.00000000000E+00  0.26083355453E+03  0.26083355453E+03  0.00000000000E+00 0. -1.
         21   -1    0    0  501  503 -0.00000000000E+00 -0.00000000000E+00 -0.13956735324E+04  0.13956735324E+04  0.00000000000E+00 0. -1.
    9000007    1    1    2  501    0  0.12460684916E+03  0.39995348795E+02 -0.11609029246E+04  0.12348368699E+04  0.40000000000E+03 0. -1.
   -9000007    1    1    2    0  502 -0.12460684916E+03 -0.39995348795E+02  0.26062946733E+02  0.42167021708E+03  0.40000000000E+03 0. -1.
<mgrwt>
<rscale>  2 0.42086399E+03</rscale>
<asrwt>0</asrwt>
<pdfrwt beam="1">  1       21 0.40128239E-01 0.42086399E+03</pdfrwt>
<pdfrwt beam="2">  1       21 0.21471901E+00 0.42086399E+03</pdfrwt>
<totfact> 0.54076057E+02</totfact>
</mgrwt>
</event>
<event>
 4    1  0.4890517E-002  0.4817106E+03  0.7818608E-02  0.1018666E+00
         21   -1    0    0  501  502  0.00000000000E+00  0.00000000000E+00  0.60489138098E+03  0.60489138098E+03  0.00000000000E+00 0.  1.
         21   -1    0    0  502  503 -0.00000000000E+00 -0.00000000000E+00 -0.44161242448E+03  0.44161242448E+03  0.00000000000E+00 0.  1.
    9000007    1    1    2  501    0 -0.11732711183E+03 -0.24141134300E+03 -0.10798591987E+03  0.49366592610E+03  0.40000000000E+03 0.  1.
   -9000007    1    1    2    0  503  0.11732711183E+03  0.24141134300E+03  0.27126487637E+03  0.55283787936E+03  0.40000000000E+03 0.  1.
<mgrwt>
<rscale>  2 0.48171059E+03</rscale>
<asrwt>0</asrwt>
<pdfrwt beam="1">  1       21 0.93060212E-01 0.48171059E+03</pdfrwt>
<pdfrwt beam="2">  1       21 0.67940373E-01 0.48171059E+03</pdfrwt>
<totfact> 0.16338280E+03</totfact>
</mgrwt>
</event>
<event>
 4    1  0.4890517E-002  0.5240521E+03  0.7818608E-02  0.1007685E+00
         21   -1    0    0  503  502  0.00000000000E+00  0.00000000000E+00  0.14939533866E+04  0.14939533866E+04  0.00000000000E+00 0.  1.
         21   -1    0    0  501  503 -0.00000000000E+00 -0.00000000000E+00 -0.18632422167E+03  0.18632422167E+03  0.00000000000E+00 0. -1.
    9000007    1    1    2  501    0  0.19677622092E+03 -0.27551726913E+03  0.75105510248E+03  0.91581352559E+03  0.40000000000E+03 0.  1.
   -9000007    1    1    2    0  502 -0.19677622092E+03  0.27551726913E+03  0.55657406248E+03  0.76446408269E+03  0.40000000000E+03 0.  1.
<mgrwt>
<rscale>  2 0.52405214E+03</rscale>
<asrwt>0</asrwt>
<pdfrwt beam="1">  1       21 0.22983898E+00 0.52405214E+03</pdfrwt>
<pdfrwt beam="2">  1       21 0.28665266E-01 0.52405214E+03</pdfrwt>
<totfact> 0.81337311E+02</totfact>
</mgrwt>
</event>
<event>
 4    1  0.4890517E-002  0.4335158E+03  0.7818608E-02  0.1032755E+00
         21   -1    0    0  503  502  0.00000000000E+00  0.00000000000E+00  0.10785378534E+04  0.10785378534E+04  0.00000000000E+00 0. -1.
         21   -1    0    0  501  503 -0.00000000000E+00 -0.00000000000E+00 -0.23586706993E+03  0.23586706993E+03  0.00000000000E+00 0. -1.
    9000007    1    1    2  501    0  0.16078656057E+03  0.45646405860E+02  0.85432465423E+02  0.44185361668E+03  0.40000000000E+03 0. -1.
   -9000007    1    1    2    0  502 -0.16078656057E+03 -0.45646405860E+02  0.75723831809E+03  0.87255130669E+03  0.40000000000E+03 0. -1.
<mgrwt>
<rscale>  2 0.43351576E+03</rscale>
<asrwt>0</asrwt>
<pdfrwt beam="1">  1       21 0.16592890E+00 0.43351576E+03</pdfrwt>
<pdfrwt beam="2">  1       21 0.36287242E-01 0.43351576E+03</pdfrwt>
<totfact> 0.14254529E+03</totfact>
</mgrwt>
</event>
<event>
 4    1  0.4890517E-002  0.5440927E+03  0.7818608E-02  0.1002871E+00
         21   -1    0    0  501  502  0.00000000000E+00  0.00000000000E+00  0.10079007043E+04  0.10079007043E+04  0.00000000000E+00 0.  1.
         21   -1    0    0  502  503 -0.00000000000E+00 -0.00000000000E+00 -0.39895774644E+03  0.39895774644E+03  0.00000000000E+00 0.  1.
    9000007    1    1    2  501    0 -0.47888959746E+02 -0.36570963898E+03  0.66575679130E+03  0.85980753524E+03  0.40000000000E+03 0.  1.
   -9000007    1    1    2    0  503  0.47888959746E+02  0.36570963898E+03 -0.56813833416E+02  0.54705091552E+03  0.40000000000E+03 0.  1.
<mgrwt>
<rscale>  2 0.54409272E+03</rscale>
<asrwt>0</asrwt>
<pdfrwt beam="1">  1       21 0.15506165E+00 0.54409272E+03</pdfrwt>
<pdfrwt beam="2">  1       21 0.61378115E-01 0.54409272E+03</pdfrwt>
<totfact> 0.54200464E+02</totfact>
</mgrwt>
</event>
<event>
 4    1  0.4890517E-002  0.5077510E+03  0.7818608E-02  0.1011775E+00
         21   -1    0    0  501  502  0.00000000000E+00  0.00000000000E+00  0.20351381891E+03  0.20351381891E+03  0.00000000000E+00 0. -1.
         21   -1    0    0  502  503 -0.00000000000E+00 -0.00000000000E+00 -0.12919287475E+04  0.12919287475E+04  0.00000000000E+00 0.  1.
    9000007    1    1    2  501    0 -0.10166221351E+03  0.29576315267E+03 -0.43992367034E+03  0.67182131840E+03  0.40000000000E+03 0. -1.
   -9000007    1    1    2    0  503  0.10166221351E+03 -0.29576315267E+03 -0.64849125822E+03  0.82362124798E+03  0.40000000000E+03 0.  1.
<mgrwt>
<rscale>  2 0.50775097E+03</rscale>
<asrwt>0</asrwt>
<pdfrwt beam="1">  1       21 0.31309819E-01 0.50775097E+03</pdfrwt>
<pdfrwt beam="2">  1       21 0.19875827E+00 0.50775097E+03</pdfrwt>
<totfact> 0.10942904E+03</totfact>
</mgrwt>
</event>
<event>
 4    1  0.4890517E-002  0.5342844E+03  0.7818608E-02  0.1005198E+00
         21   -1    0    0  501  502  0.00000000000E+00  0.00000000000E+00  0.78848281390E+03  0.78848281390E+03  0.00000000000E+00 0.  1.
         21   -1    0    0  502  503 -0.00000000000E+00 -0.00000000000E+00 -0.38104113527E+03  0.38104113527E+03  0.00000000000E+00 0.  1.
    9000007    1    1    2  501    0 -0.10508959623E+03 -0.33825433599E+03  0.33431362414E+03  0.63025821560E+03  0.40000000000E+03 0.  1.
   -9000007    1    1    2    0  503  0.10508959623E+03  0.33825433599E+03  0.73128054492E+02  0.53926573357E+03  0.40000000000E+03 0.  1.
<mgrwt>
<rscale>  2 0.53428440E+03</rscale>
<asrwt>0</asrwt>
<pdfrwt beam="1">  1       21 0.12130505E+00 0.53428440E+03</pdfrwt>
<pdfrwt beam="2">  1       21 0.58621713E-01 0.53428440E+03</pdfrwt>
<totfact> 0.11555046E+03</totfact>
</mgrwt>
</event>
<event>
 4    1  0.4890517E-002  0.4497274E+03  0.7818608E-02  0.1027803E+00
         21   -1    0    0  501  502  0.00000000000E+00  0.00000000000E+00  0.72214710909E+03  0.72214710909E+03  0.00000000000E+00 0.  1.
         21   -1    0    0  502  503 -0.00000000000E+00 -0.00000000000E+00 -0.28986787425E+03  0.28986787425E+03  0.00000000000E+00 0.  1.
    9000007    1    1    2  501    0  0.19220058613E+03 -0.72895039371E+02  0.30914977932E+03  0.54573650980E+03  0.40000000000E+03 0.  1.
   -9000007    1    1    2    0  503 -0.19220058613E+03  0.72895039371E+02  0.12312945552E+03  0.46627847354E+03  0.40000000000E+03 0.  1.
<mgrwt>
<rscale>  2 0.44972742E+03</rscale>
<asrwt>0</asrwt>
<pdfrwt beam="1">  1       21 0.11109955E+00 0.44972742E+03</pdfrwt>
<pdfrwt beam="2">  1       21 0.44595058E-01 0.44972742E+03</pdfrwt>
<totfact> 0.26668169E+03</totfact>
</mgrwt>
</event>
<event>
 4    1  0.4890517E-002  0.4656251E+03  0.7818608E-02  0.1023162E+00
         21   -1    0    0  503  502  0.00000000000E+00  0.00000000000E+00  0.12539887935E+04  0.12539887935E+04  0.00000000000E+00 0. -1.
         21   -1    0    0  501  503 -0.00000000000E+00 -0.00000000000E+00 -0.35455178689E+03  0.35455178689E+03  0.00000000000E+00 0. -1.
    9000007    1    1    2  501    0 -0.10674504969E+03 -0.21310152656E+03 -0.12597264403E+03  0.48236487569E+03  0.40000000000E+03 0. -1.
   -9000007    1    1    2    0  502  0.10674504969E+03  0.21310152656E+03  0.10254096507E+04  0.11261757047E+04  0.40000000000E+03 0. -1.
<mgrwt>
<rscale>  2 0.46562513E+03</rscale>
<asrwt>0</asrwt>
<pdfrwt beam="1">  1       21 0.19292135E+00 0.46562513E+03</pdfrwt>
<pdfrwt beam="2">  1       21 0.54546429E-01 0.46562513E+03</pdfrwt>
<totfact> 0.38584842E+02</totfact>
</mgrwt>
</event>
<event>
 4    1  0.4890517E-002  0.7249208E+03  0.7818608E-02  0.9675539E-01
         21   -1    0    0  501  502  0.00000000000E+00  0.00000000000E+00  0.27057120759E+04  0.27057120759E+04  0.00000000000E+00 0.  1.
         21   -1    0    0  502  503 -0.00000000000E+00 -0.00000000000E+00 -0.21664670968E+03  0.21664670968E+03  0.00000000000E+00 0. -1.
    9000007    1    1    2  501    0 -0.59387538038E+03 -0.11323491409E+03  0.17146283448E+04  0.18615747297E+04  0.40000000000E+03 0.  1.
   -9000007    1    1    2    0  503  0.59387538038E+03  0.11323491409E+03  0.77443702134E+03  0.10607840559E+04  0.40000000000E+03 0. -1.
<mgrwt>
<rscale>  2 0.72492076E+03</rscale>
<asrwt>0</asrwt>
<pdfrwt beam="1">  1       21 0.41626337E+00 0.72492076E+03</pdfrwt>
<pdfrwt beam="2">  1       21 0.33330265E-01 0.72492076E+03</pdfrwt>
<totfact> 0.37778151E+01</totfact>
</mgrwt>
</event>
<event>
 4    1  0.4890517E-002  0.5044560E+03  0.7818608E-02  0.1012622E+00
         21   -1    0    0  501  502  0.00000000000E+00  0.00000000000E+00  0.45829331390E+03  0.45829331390E+03  0.00000000000E+00 0.  1.
         21   -1    0    0  502  503 -0.00000000000E+00 -0.00000000000E+00 -0.95394915381E+03  0.95394915381E+03  0.00000000000E+00 0. -1.
    9000007    1    1    2  501    0  0.26617901424E+03 -0.15370307574E+03  0.20865986927E+03  0.54590735858E+03  0.40000000000E+03 0.  1.
   -9000007    1    1    2    0  503 -0.26617901424E+03  0.15370307574E+03 -0.70431570918E+03  0.86633510913E+03  0.40000000000E+03 0. -1.
<mgrwt>
<rscale>  2 0.50445605E+03</rscale>
<asrwt>0</asrwt>
<pdfrwt beam="1">  1       21 0.70506665E-01 0.50445605E+03</pdfrwt>
<pdfrwt beam="2">  1       21 0.14676141E+00 0.50445605E+03</pdfrwt>
<totfact> 0.46931031E+02</totfact>
</mgrwt>
</event>
<event>
 4    1  0.4890517E-002  0.4140605E+03  0.7818608E-02  0.1039017E+00
         21   -1    0    0  501  502  0.00000000000E+00  0.00000000000E+00  0.48403834656E+03  0.48403834656E+03  0.00000000000E+00 0.  1.
         21   -1    0    0  502  503 -0.00000000000E+00 -0.00000000000E+00 -0.89499464494E+03  0.89499464494E+03  0.00000000000E+00 0.  1.
    9000007    1    1    2  501    0 -0.62523388191E+02 -0.86815272908E+02  0.33050470379E+03  0.52979186942E+03  0.40000000000E+03 0.  1.
   -9000007    1    1    2    0  503  0.62523388191E+02  0.86815272908E+02 -0.74146100217E+03  0.84924112208E+03  0.40000000000E+03 0.  1.
<mgrwt>
<rscale>  2 0.41406046E+03</rscale>
<asrwt>0</asrwt>
<pdfrwt beam="1">  1       21 0.74467439E-01 0.41406046E+03</pdfrwt>
<pdfrwt beam="2">  1       21 0.13769148E+00 0.41406046E+03</pdfrwt>
<totfact> 0.51232981E+02</totfact>
</mgrwt>
</event>
<event>
 4    1  0.4890517E-002  0.4287685E+03  0.7818608E-02  0.1034250E+00
         21   -1    0    0  503  502  0.00000000000E+00  0.00000000000E+00  0.35713432536E+03  0.35713432536E+03  0.00000000000E+00 0. -1.
         21   -1    0    0  501  503 -0.00000000000E+00 -0.00000000000E+00 -0.65414378513E+03  0.65414378513E+03  0.00000000000E+00 0. -1.
    9000007    1    1    2  501    0  0.12253398940E+03  0.93956499054E+02 -0.38190048542E+03  0.57418671444E+03  0.40000000000E+03 0. -1.
   -9000007    1    1    2    0  502 -0.12253398940E+03 -0.93956499054E+02  0.84891025647E+02  0.43709139606E+03  0.40000000000E+03 0. -1.
<mgrwt>
<rscale>  2 0.42876847E+03</rscale>
<asrwt>0</asrwt>
<pdfrwt beam="1">  1       21 0.54943742E-01 0.42876847E+03</pdfrwt>
<pdfrwt beam="2">  1       21 0.10063751E+00 0.42876847E+03</pdfrwt>
<totfact> 0.22017007E+03</totfact>
</mgrwt>
</event>
<event>
 4    1  0.4890517E-002  0.5077911E+03  0.7818608E-02  0.1011765E+00
         21   -1    0    0  501  502  0.00000000000E+00  0.00000000000E+00  0.78295266461E+03  0.78295266461E+03  0.00000000000E+00 0. -1.
         21   -1    0    0  502  503 -0.00000000000E+00 -0.00000000000E+00 -0.48698633633E+03  0.48698633633E+03  0.00000000000E+00 0. -1.
    9000007    1    1    2  501    0 -0.80406440322E+02  0.30230221284E+03  0.50926542193E+03  0.71916833461E+03  0.40000000000E+03 0. -1.
   -9000007    1    1    2    0  503  0.80406440322E+02 -0.30230221284E+03 -0.21329909366E+03  0.55077066633E+03  0.40000000000E+03 0. -1.
<mgrwt>
<rscale>  2 0.50779112E+03</rscale>
<asrwt>0</asrwt>
<pdfrwt beam="1">  1       21 0.12045426E+00 0.50779112E+03</pdfrwt>
<pdfrwt beam="2">  1       21 0.74920975E-01 0.50779112E+03</pdfrwt>
<totfact> 0.68594063E+02</totfact>
</mgrwt>
</event>
<event>
 4    1  0.4890517E-002  0.4059773E+03  0.7818608E-02  0.1041729E+00
         21   -1    0    0  501  502  0.00000000000E+00  0.00000000000E+00  0.17831761917E+03  0.17831761917E+03  0.00000000000E+00 0. -1.
         21   -1    0    0  502  503 -0.00000000000E+00 -0.00000000000E+00 -0.94088024697E+03  0.94088024697E+03  0.00000000000E+00 0. -1.
    9000007    1    1    2  501    0 -0.99435095381E+00  0.69401809269E+02 -0.30697833866E+03  0.50897278932E+03  0.40000000000E+03 0. -1.
   -9000007    1    1    2    0  503  0.99435095381E+00 -0.69401809269E+02 -0.45558428914E+03  0.61022507681E+03  0.40000000000E+03 0. -1.
<mgrwt>
<rscale>  2 0.40597734E+03</rscale>
<asrwt>0</asrwt>
<pdfrwt beam="1">  1       21 0.27433479E-01 0.40597734E+03</pdfrwt>
<pdfrwt beam="2">  1       21 0.14475081E+00 0.40597734E+03</pdfrwt>
<totfact> 0.36663245E+03</totfact>
</mgrwt>
</event>
<event>
 4    1  0.4890517E-002  0.4489959E+03  0.7818608E-02  0.1028022E+00
         21   -1    0    0  501  502  0.00000000000E+00  0.00000000000E+00  0.90028499698E+02  0.90028499698E+02  0.00000000000E+00 0. -1.
         21   -1    0    0  502  503 -0.00000000000E+00 -0.00000000000E+00 -0.22606507217E+04  0.22606507217E+04  0.00000000000E+00 0. -1.
    9000007    1    1    2  501    0  0.19585831005E+03  0.56893351062E+02 -0.11996375407E+04  0.12809088805E+04  0.40000000000E+03 0. -1.
   -9000007    1    1    2    0  503 -0.19585831005E+03 -0.56893351062E+02 -0.97098468127E+03  0.10697703409E+04  0.40000000000E+03 0. -1.
<mgrwt>
<rscale>  2 0.44899591E+03</rscale>
<asrwt>0</asrwt>
<pdfrwt beam="1">  1       21 0.13850539E-01 0.44899591E+03</pdfrwt>
<pdfrwt beam="2">  1       21 0.34779241E+00 0.44899591E+03</pdfrwt>
<totfact> 0.64504245E+02</totfact>
</mgrwt>
</event>
<event>
 4    1  0.4890517E-002  0.4744947E+03  0.7818608E-02  0.1020659E+00
         21   -1    0    0  503  502  0.00000000000E+00  0.00000000000E+00  0.61188513999E+03  0.61188513999E+03  0.00000000000E+00 0. -1.
         21   -1    0    0  501  503 -0.00000000000E+00 -0.00000000000E+00 -0.36816228717E+03  0.36816228717E+03  0.00000000000E+00 0. -1.
    9000007    1    1    2  501    0  0.24169354169E+03  0.82033414445E+02  0.11019064916E+03  0.48712136921E+03  0.40000000000E+03 0.  1.
   -9000007    1    1    2    0  502 -0.24169354169E+03 -0.82033414445E+02  0.13353220366E+03  0.49292605794E+03  0.40000000000E+03 0.  1.
<mgrwt>
<rscale>  2 0.47449473E+03</rscale>
<asrwt>0</asrwt>
<pdfrwt beam="1">  1       21 0.94136175E-01 0.47449473E+03</pdfrwt>
<pdfrwt beam="2">  1       21 0.56640352E-01 0.47449473E+03</pdfrwt>
<totfact> 0.23811188E+03</totfact>
</mgrwt>
</event>
<event>
 4    1  0.4890517E-002  0.4679778E+03  0.7818608E-02  0.1022493E+00
         21   -1    0    0  501  502  0.00000000000E+00  0.00000000000E+00  0.18577011663E+04  0.18577011663E+04  0.00000000000E+00 0.  1.
         21   -1    0    0  502  503 -0.00000000000E+00 -0.00000000000E+00 -0.17590497873E+03  0.17590497873E+03  0.00000000000E+00 0.  1.
    9000007    1    1    2  501    0  0.20692741334E+03  0.12721746707E+03  0.14248407138E+04  0.14997247407E+04  0.40000000000E+03 0.  1.
   -9000007    1    1    2    0  503 -0.20692741334E+03 -0.12721746707E+03  0.25695547376E+03  0.53388140426E+03  0.40000000000E+03 0.  1.
<mgrwt>
<rscale>  2 0.46797782E+03</rscale>
<asrwt>0</asrwt>
<pdfrwt beam="1">  1       21 0.28580017E+00 0.46797782E+03</pdfrwt>
<pdfrwt beam="2">  1       21 0.27062306E-01 0.46797782E+03</pdfrwt>
<totfact> 0.42390016E+02</totfact>
</mgrwt>
</event>
<event>
 4    1  0.4890517E-002  0.4457984E+03  0.7818608E-02  0.1028982E+00
         21   -1    0    0  503  502  0.00000000000E+00  0.00000000000E+00  0.10787062508E+03  0.10787062508E+03  0.00000000000E+00 0. -1.
         21   -1    0    0  501  503 -0.00000000000E+00 -0.00000000000E+00 -0.20375993467E+04  0.20375993467E+04  0.00000000000E+00 0. -1.
    9000007    1    1    2  501    0  0.17122436806E+03 -0.97048526244E+02 -0.12969270369E+04  0.13714065552E+04  0.40000000000E+03 0. -1.
   -9000007    1    1    2    0  502 -0.17122436806E+03  0.97048526244E+02 -0.63280168474E+03  0.77406341657E+03  0.40000000000E+03 0. -1.
<mgrwt>
<rscale>  2 0.44579839E+03</rscale>
<asrwt>0</asrwt>
<pdfrwt beam="1">  1       21 0.16595480E-01 0.44579839E+03</pdfrwt>
<pdfrwt beam="2">  1       21 0.31347684E+00 0.44579839E+03</pdfrwt>
<totfact> 0.74606352E+02</totfact>
</mgrwt>
</event>
<event>
 4    1  0.4890517E-002  0.4271592E+03  0.7818608E-02  0.1034761E+00
         21   -1    0    0  501  502  0.00000000000E+00  0.00000000000E+00  0.20142466338E+04  0.20142466338E+04  0.00000000000E+00 0.  1.
         21   -1    0    0  502  503 -0.00000000000E+00 -0.00000000000E+00 -0.10762858222E+03  0.10762858222E+03  0.00000000000E+00 0.  1.
    9000007    1    1    2  501    0 -0.14970667895E+03  0.72738256301E+01  0.53114792040E+03  0.68160333891E+03  0.40000000000E+03 0.  1.
   -9000007    1    1    2    0  503  0.14970667895E+03 -0.72738256301E+01  0.13754701312E+04  0.14402718771E+04  0.40000000000E+03 0.  1.
<mgrwt>
<rscale>  2 0.42715922E+03</rscale>
<asrwt>0</asrwt>
<pdfrwt beam="1">  1       21 0.30988407E+00 0.42715922E+03</pdfrwt>
<pdfrwt beam="2">  1       21 0.16558245E-01 0.42715922E+03</pdfrwt>
<totfact> 0.79587706E+02</totfact>
</mgrwt>
</event>
<event>
 4    1  0.4890517E-002  0.4485397E+03  0.7818608E-02  0.1028158E+00
         21   -1    0    0  503  502  0.00000000000E+00  0.00000000000E+00  0.81179805934E+03  0.81179805934E+03  0.00000000000E+00 0. -1.
         21   -1    0    0  501  503 -0.00000000000E+00 -0.00000000000E+00 -0.10637584446E+04  0.10637584446E+04  0.00000000000E+00 0. -1.
    9000007    1    1    2  501    0  0.73715975784E+02  0.18908683951E+03 -0.94728562369E+03  0.10481116023E+04  0.40000000000E+03 0. -1.
   -9000007    1    1    2    0  502 -0.73715975784E+02 -0.18908683951E+03  0.69532523848E+03  0.82744490162E+03  0.40000000000E+03 0. -1.
<mgrwt>
<rscale>  2 0.44853972E+03</rscale>
<asrwt>0</asrwt>
<pdfrwt beam="1">  1       21 0.12489201E+00 0.44853972E+03</pdfrwt>
<pdfrwt beam="2">  1       21 0.16365515E+00 0.44853972E+03</pdfrwt>
<totfact> 0.90499450E+01</totfact>
</mgrwt>
</event>
<event>
 4    1  0.4890517E-002  0.4110444E+03  0.7818608E-02  0.1040021E+00
         21   -1    0    0  503  502  0.00000000000E+00  0.00000000000E+00  0.94138654494E+03  0.94138654494E+03  0.00000000000E+00 0. -1.
         21   -1    0    0  501  503 -0.00000000000E+00 -0.00000000000E+00 -0.24260252623E+03  0.24260252623E+03  0.00000000000E+00 0. -1.
    9000007    1    1    2  501    0 -0.21479958995E+02  0.92174365469E+02  0.65136740575E+03  0.77021879980E+03  0.40000000000E+03 0. -1.
   -9000007    1    1    2    0  502  0.21479958995E+02 -0.92174365469E+02  0.47416612959E+02  0.41377027137E+03  0.40000000000E+03 0. -1.
<mgrwt>
<rscale>  2 0.41104440E+03</rscale>
<asrwt>0</asrwt>
<pdfrwt beam="1">  1       21 0.14482870E+00 0.41104440E+03</pdfrwt>
<pdfrwt beam="2">  1       21 0.37323466E-01 0.41104440E+03</pdfrwt>
<totfact> 0.19746115E+03</totfact>
</mgrwt>
</event>
<event>
 4    1  0.4890517E-002  0.5429531E+03  0.7818608E-02  0.1003138E+00
         21   -1    0    0  503  502  0.00000000000E+00  0.00000000000E+00  0.33247529330E+03  0.33247529330E+03  0.00000000000E+00 0. -1.
         21   -1    0    0  501  503 -0.00000000000E+00 -0.00000000000E+00 -0.11647441309E+04  0.11647441309E+04  0.00000000000E+00 0.  1.
    9000007    1    1    2  501    0  0.26953044386E+03  0.24930191334E+03 -0.78191044256E+03  0.95193594551E+03  0.40000000000E+03 0.  1.
   -9000007    1    1    2    0  502 -0.26953044386E+03 -0.24930191334E+03 -0.50358395024E+02  0.54528347867E+03  0.40000000000E+03 0. -1.
<mgrwt>
<rscale>  2 0.54295313E+03</rscale>
<asrwt>0</asrwt>
<pdfrwt beam="1">  1       21 0.51150046E-01 0.54295313E+03</pdfrwt>
<pdfrwt beam="2">  1       21 0.17919140E+00 0.54295313E+03</pdfrwt>
<totfact> 0.53381389E+02</totfact>
</mgrwt>
</event>
<event>
 4    1  0.4890517E-002  0.4126518E+03  0.7818608E-02  0.1039485E+00
         21   -1    0    0  501  502  0.00000000000E+00  0.00000000000E+00  0.21918424543E+03  0.21918424543E+03  0.00000000000E+00 0.  1.
         21   -1    0    0  502  503 -0.00000000000E+00 -0.00000000000E+00 -0.78014236157E+03  0.78014236157E+03  0.00000000000E+00 0. -1.
    9000007    1    1    2  501    0  0.39249173676E+02 -0.93493296368E+02 -0.31275349887E+03  0.51778011275E+03  0.40000000000E+03 0. -1.
   -9000007    1    1    2    0  503 -0.39249173676E+02  0.93493296368E+02 -0.24820461727E+03  0.48154649426E+03  0.40000000000E+03 0.  1.
<mgrwt>
<rscale>  2 0.41265178E+03</rscale>
<asrwt>0</asrwt>
<pdfrwt beam="1">  1       21 0.33720654E-01 0.41265178E+03</pdfrwt>
<pdfrwt beam="2">  1       21 0.12002190E+00 0.41265178E+03</pdfrwt>
<totfact> 0.39521940E+03</totfact>
</mgrwt>
</event>
<event>
 4    1  0.4890517E-002  0.4204221E+03  0.7818608E-02  0.1036929E+00
         21   -1    0    0  501  502  0.00000000000E+00  0.00000000000E+00  0.92108178851E+03  0.92108178851E+03  0.00000000000E+00 0.  1.
         21   -1    0    0  502  503 -0.00000000000E+00 -0.00000000000E+00 -0.20051206349E+03  0.20051206349E+03  0.00000000000E+00 0.  1.
    9000007    1    1    2  501    0 -0.12765652648E+03 -0.21413295830E+02  0.47651345939E+03  0.63546816991E+03  0.40000000000E+03 0.  1.
   -9000007    1    1    2    0  503  0.12765652648E+03  0.21413295830E+02  0.24405626563E+03  0.48612568209E+03  0.40000000000E+03 0.  1.
<mgrwt>
<rscale>  2 0.42042207E+03</rscale>
<asrwt>0</asrwt>
<pdfrwt beam="1">  1       21 0.14170489E+00 0.42042207E+03</pdfrwt>
<pdfrwt beam="2">  1       21 0.30848010E-01 0.42042207E+03</pdfrwt>
<totfact> 0.30597909E+03</totfact>
</mgrwt>
</event>
<event>
 4    1  0.4890517E-002  0.5069806E+03  0.7818608E-02  0.1011973E+00
         21   -1    0    0  501  502  0.00000000000E+00  0.00000000000E+00  0.99200342475E+03  0.99200342475E+03  0.00000000000E+00 0. -1.
         21   -1    0    0  502  503 -0.00000000000E+00 -0.00000000000E+00 -0.31859954847E+03  0.31859954847E+03  0.00000000000E+00 0. -1.
    9000007    1    1    2  501    0 -0.14413759477E+03  0.27614072900E+03  0.53516595752E+02  0.50979738569E+03  0.40000000000E+03 0. -1.
   -9000007    1    1    2    0  503  0.14413759477E+03 -0.27614072900E+03  0.61988728053E+03  0.80080558752E+03  0.40000000000E+03 0. -1.
<mgrwt>
<rscale>  2 0.50698062E+03</rscale>
<asrwt>0</asrwt>
<pdfrwt beam="1">  1       21 0.15261591E+00 0.50698062E+03</pdfrwt>
<pdfrwt beam="2">  1       21 0.49015315E-01 0.50698062E+03</pdfrwt>
<totfact> 0.93469012E+02</totfact>
</mgrwt>
</event>
<event>
 4    1  0.4890517E-002  0.4593425E+03  0.7818608E-02  0.1024972E+00
         21   -1    0    0  501  502  0.00000000000E+00  0.00000000000E+00  0.24178366662E+04  0.24178366662E+04  0.00000000000E+00 0.  1.
         21   -1    0    0  502  503 -0.00000000000E+00 -0.00000000000E+00 -0.11335880737E+03  0.11335880737E+03  0.00000000000E+00 0.  1.
    9000007    1    1    2  501    0  0.20964579034E+03  0.83929509307E+02  0.17594314937E+04  0.18184044382E+04  0.40000000000E+03 0.  1.
   -9000007    1    1    2    0  503 -0.20964579034E+03 -0.83929509307E+02  0.54504636521E+03  0.71279103541E+03  0.40000000000E+03 0.  1.
<mgrwt>
<rscale>  2 0.45934249E+03</rscale>
<asrwt>0</asrwt>
<pdfrwt beam="1">  1       21 0.37197483E+00 0.45934249E+03</pdfrwt>
<pdfrwt beam="2">  1       21 0.17439818E-01 0.45934249E+03</pdfrwt>
<totfact> 0.29580290E+02</totfact>
</mgrwt>
</event>
<event>
 4    1  0.4890517E-002  0.4283431E+03  0.7818608E-02  0.1034385E+00
         21   -1    0    0  501  502  0.00000000000E+00  0.00000000000E+00  0.40707562428E+03  0.40707562428E+03  0.00000000000E+00 0. -1.
         21   -1    0    0  502  503 -0.00000000000E+00 -0.00000000000E+00 -0.57644542316E+03  0.57644542316E+03  0.00000000000E+00 0. -1.
    9000007    1    1    2  501    0  0.18446357849E+02 -0.15211030866E+03  0.14497395581E+03  0.45221152350E+03  0.40000000000E+03 0. -1.
   -9000007    1    1    2    0  503 -0.18446357849E+02  0.15211030866E+03 -0.31434375469E+03  0.53130952394E+03  0.40000000000E+03 0. -1.
<mgrwt>
<rscale>  2 0.42834310E+03</rscale>
<asrwt>0</asrwt>
<pdfrwt beam="1">  1       21 0.62627019E-01 0.42834310E+03</pdfrwt>
<pdfrwt beam="2">  1       21 0.88683911E-01 0.42834310E+03</pdfrwt>
<totfact> 0.22398312E+03</totfact>
</mgrwt>
</event>
<event>
 4    1  0.4890517E-002  0.7938972E+03  0.7818608E-02  0.9568893E-01
         21   -1    0    0  501  502  0.00000000000E+00  0.00000000000E+00  0.58343081621E+03  0.58343081621E+03  0.00000000000E+00 0.  1.
         21   -1    0    0  502  503 -0.00000000000E+00 -0.00000000000E+00 -0.12319174916E+04  0.12319174916E+04  0.00000000000E+00 0. -1.
    9000007    1    1    2  501    0  0.51820502631E+03  0.44915063154E+03 -0.57998308345E+01  0.79391836932E+03  0.40000000000E+03 0.  1.
   -9000007    1    1    2    0  503 -0.51820502631E+03 -0.44915063154E+03 -0.64268684458E+03  0.10214299385E+04  0.40000000000E+03 0.  1.
<mgrwt>
<rscale>  2 0.79389718E+03</rscale>
<asrwt>0</asrwt>
<pdfrwt beam="1">  1       21 0.89758587E-01 0.79389718E+03</pdfrwt>
<pdfrwt beam="2">  1       21 0.18952577E+00 0.79389718E+03</pdfrwt>
<totfact> 0.11617876E+02</totfact>
</mgrwt>
</event>
<event>
 4    1  0.4890517E-002  0.4330154E+03  0.7818608E-02  0.1032912E+00
         21   -1    0    0  501  502  0.00000000000E+00  0.00000000000E+00  0.46606015527E+03  0.46606015527E+03  0.00000000000E+00 0. -1.
         21   -1    0    0  502  503 -0.00000000000E+00 -0.00000000000E+00 -0.67878758383E+03  0.67878758383E+03  0.00000000000E+00 0. -1.
    9000007    1    1    2  501    0 -0.12961317642E+03  0.10345417221E+03  0.25896004797E+03  0.50454201777E+03  0.40000000000E+03 0. -1.
   -9000007    1    1    2    0  503  0.12961317642E+03 -0.10345417221E+03 -0.47168747653E+03  0.64030572133E+03  0.40000000000E+03 0. -1.
<mgrwt>
<rscale>  2 0.43301541E+03</rscale>
<asrwt>0</asrwt>
<pdfrwt beam="1">  1       21 0.71701562E-01 0.43301541E+03</pdfrwt>
<pdfrwt beam="2">  1       21 0.10442886E+00 0.43301541E+03</pdfrwt>
<totfact> 0.11157211E+03</totfact>
</mgrwt>
</event>
<event>
 4    1  0.4890517E-002  0.4326063E+03  0.7818608E-02  0.1033040E+00
         21   -1    0    0  503  502  0.00000000000E+00  0.00000000000E+00  0.17509182524E+04  0.17509182524E+04  0.00000000000E+00 0.  1.
         21   -1    0    0  501  503 -0.00000000000E+00 -0.00000000000E+00 -0.11991958006E+03  0.11991958006E+03  0.00000000000E+00 0.  1.
    9000007    1    1    2  501    0  0.92263574639E+02 -0.13651250472E+03  0.50711171983E+03  0.66656622142E+03  0.40000000000E+03 0.  1.
   -9000007    1    1    2    0  502 -0.92263574639E+02  0.13651250472E+03  0.11238869525E+04  0.12042716111E+04  0.40000000000E+03 0.  1.
<mgrwt>
<rscale>  2 0.43260632E+03</rscale>
<asrwt>0</asrwt>
<pdfrwt beam="1">  1       21 0.26937202E+00 0.43260632E+03</pdfrwt>
<pdfrwt beam="2">  1       21 0.18449167E-01 0.43260632E+03</pdfrwt>
<totfact> 0.11346329E+03</totfact>
</mgrwt>
</event>
<event>
 4    1  0.4890517E-002  0.6962332E+03  0.7818608E-02  0.9723696E-01
         21   -1    0    0  503  502  0.00000000000E+00  0.00000000000E+00  0.78339748595E+03  0.78339748595E+03  0.00000000000E+00 0.  1.
         21   -1    0    0  501  503 -0.00000000000E+00 -0.00000000000E+00 -0.62582225198E+03  0.62582225198E+03  0.00000000000E+00 0. -1.
    9000007    1    1    2  501    0 -0.21939915910E+03  0.52593224859E+03  0.39756148647E+01  0.69624458822E+03  0.40000000000E+03 0.  1.
   -9000007    1    1    2    0  502  0.21939915910E+03 -0.52593224859E+03  0.15359961910E+03  0.71297514971E+03  0.40000000000E+03 0.  1.
<mgrwt>
<rscale>  2 0.69623324E+03</rscale>
<asrwt>0</asrwt>
<pdfrwt beam="1">  1       21 0.12052269E+00 0.69623324E+03</pdfrwt>
<pdfrwt beam="2">  1       21 0.96280347E-01 0.69623324E+03</pdfrwt>
<totfact> 0.35618763E+02</totfact>
</mgrwt>
</event>
<event>
 4    1  0.4890517E-002  0.4651085E+03  0.7818608E-02  0.1023310E+00
         21   -1    0    0  503  502  0.00000000000E+00  0.00000000000E+00  0.24539751098E+03  0.24539751098E+03  0.00000000000E+00 0. -1.
         21   -1    0    0  501  503 -0.00000000000E+00 -0.00000000000E+00 -0.10717340225E+04  0.10717340225E+04  0.00000000000E+00 0. -1.
    9000007    1    1    2  501    0 -0.20899429150E+03 -0.11246018707E+03 -0.69060406480E+03  0.83262229244E+03  0.40000000000E+03 0. -1.
   -9000007    1    1    2    0  502  0.20899429150E+03  0.11246018707E+03 -0.13573244671E+03  0.48450924103E+03  0.40000000000E+03 0. -1.
<mgrwt>
<rscale>  2 0.46510849E+03</rscale>
<asrwt>0</asrwt>
<pdfrwt beam="1">  1       21 0.37753463E-01 0.46510849E+03</pdfrwt>
<pdfrwt beam="2">  1       21 0.16488216E+00 0.46510849E+03</pdfrwt>
<totfact> 0.13207810E+03</totfact>
</mgrwt>
</event>
<event>
 4    1  0.4890517E-002  0.4051178E+03  0.7818608E-02  0.1042022E+00
         21   -1    0    0  501  502  0.00000000000E+00  0.00000000000E+00  0.90371001662E+03  0.90371001662E+03  0.00000000000E+00 0. -1.
         21   -1    0    0  502  503 -0.00000000000E+00 -0.00000000000E+00 -0.43983854002E+03  0.43983854002E+03  0.00000000000E+00 0. -1.
    9000007    1    1    2  501    0  0.29778468532E+02 -0.56865480348E+02  0.74666756739E+03  0.84948978583E+03  0.40000000000E+03 0. -1.
   -9000007    1    1    2    0  503 -0.29778468532E+02  0.56865480348E+02 -0.28279609079E+03  0.49405877080E+03  0.40000000000E+03 0. -1.
<mgrwt>
<rscale>  2 0.40511781E+03</rscale>
<asrwt>0</asrwt>
<pdfrwt beam="1">  1       21 0.13903231E+00 0.40511781E+03</pdfrwt>
<pdfrwt beam="2">  1       21 0.67667468E-01 0.40511781E+03</pdfrwt>
<totfact> 0.62238584E+02</totfact>
</mgrwt>
</event>
<event>
 4    1  0.4890517E-002  0.6189594E+03  0.7818608E-02  0.9866834E-01
         21   -1    0    0  503  502  0.00000000000E+00  0.00000000000E+00  0.20077320823E+03  0.20077320823E+03  0.00000000000E+00 0.  1.
         21   -1    0    0  501  503 -0.00000000000E+00 -0.00000000000E+00 -0.21221986741E+04  0.21221986741E+04  0.00000000000E+00 0.  1.
    9000007    1    1    2  501    0  0.36177345422E+03  0.30369508140E+03 -0.59186235018E+03  0.85639463812E+03  0.40000000000E+03 0.  1.
   -9000007    1    1    2    0  502 -0.36177345422E+03 -0.30369508140E+03 -0.13295631157E+04  0.14665772442E+04  0.40000000000E+03 0.  1.
<mgrwt>
<rscale>  2 0.61895940E+03</rscale>
<asrwt>0</asrwt>
<pdfrwt beam="1">  1       21 0.30888188E-01 0.61895940E+03</pdfrwt>
<pdfrwt beam="2">  1       21 0.32649208E+00 0.61895940E+03</pdfrwt>
<totfact> 0.17137036E+02</totfact>
</mgrwt>
</event>
<event>
 4    1  0.4890517E-002  0.6923133E+03  0.7818608E-02  0.9730469E-01
         21   -1    0    0  501  502  0.00000000000E+00  0.00000000000E+00  0.21404310432E+03  0.21404310432E+03  0.00000000000E+00 0.  1.
         21   -1    0    0  502  503 -0.00000000000E+00 -0.00000000000E+00 -0.29748252668E+04  0.29748252668E+04  0.00000000000E+00 0. -1.
    9000007    1    1    2  501    0 -0.55586215420E+03 -0.10156263059E+03 -0.58754824401E+03  0.90802568325E+03  0.40000000000E+03 0.  1.
   -9000007    1    1    2    0  503  0.55586215420E+03  0.10156263059E+03 -0.21732339185E+04  0.22808426879E+04  0.40000000000E+03 0. -1.
<mgrwt>
<rscale>  2 0.69231330E+03</rscale>
<asrwt>0</asrwt>
<pdfrwt beam="1">  1       21 0.32929714E-01 0.69231330E+03</pdfrwt>
<pdfrwt beam="2">  1       21 0.45766535E+00 0.69231330E+03</pdfrwt>
<totfact> 0.20671333E+01</totfact>
</mgrwt>
</event>
<event>
 4    1  0.4890517E-002  0.4892045E+03  0.7818608E-02  0.1016636E+00
         21   -1    0    0  501  502  0.00000000000E+00  0.00000000000E+00  0.80386041322E+03  0.80386041322E+03  0.00000000000E+00 0.  1.
         21   -1    0    0  502  503 -0.00000000000E+00 -0.00000000000E+00 -0.29861048573E+03  0.29861048573E+03  0.00000000000E+00 0.  1.
    9000007    1    1    2  501    0 -0.21665835346E+03 -0.17994504685E+03  0.22243333047E+03  0.53739896587E+03  0.40000000000E+03 0.  1.
   -9000007    1    1    2    0  503  0.21665835346E+03  0.17994504685E+03  0.28281659702E+03  0.56507193308E+03  0.40000000000E+03 0.  1.
<mgrwt>
<rscale>  2 0.48920452E+03</rscale>
<asrwt>0</asrwt>
<pdfrwt beam="1">  1       21 0.12367083E+00 0.48920452E+03</pdfrwt>
<pdfrwt beam="2">  1       21 0.45940075E-01 0.48920452E+03</pdfrwt>
<totfact> 0.18843817E+03</totfact>
</mgrwt>
</event>
<event>
 4    1  0.4890517E-002  0.5511482E+03  0.7818608E-02  0.1001229E+00
         21   -1    0    0  501  502  0.00000000000E+00  0.00000000000E+00  0.93050130496E+03  0.93050130496E+03  0.00000000000E+00 0.  1.
         21   -1    0    0  502  503 -0.00000000000E+00 -0.00000000000E+00 -0.36217977232E+03  0.36217977232E+03  0.00000000000E+00 0. -1.
    9000007    1    1    2  501    0 -0.37890334343E+03 -0.14020947684E+02  0.48716270619E+03  0.73558944591E+03  0.40000000000E+03 0. -1.
   -9000007    1    1    2    0  503  0.37890334343E+03  0.14020947684E+02  0.81158826452E+02  0.55709163137E+03  0.40000000000E+03 0.  1.
<mgrwt>
<rscale>  2 0.55114819E+03</rscale>
<asrwt>0</asrwt>
<pdfrwt beam="1">  1       21 0.14315405E+00 0.55114819E+03</pdfrwt>
<pdfrwt beam="2">  1       21 0.55719965E-01 0.55114819E+03</pdfrwt>
<totfact> 0.83098955E+02</totfact>
</mgrwt>
</event>
<event>
 4    1  0.4890517E-002  0.4169972E+03  0.7818608E-02  0.1038048E+00
         21   -1    0    0  501  502  0.00000000000E+00  0.00000000000E+00  0.27189912302E+03  0.27189912302E+03  0.00000000000E+00 0.  1.
         21   -1    0    0  502  503 -0.00000000000E+00 -0.00000000000E+00 -0.11609401332E+04  0.11609401332E+04  0.00000000000E+00 0. -1.
    9000007    1    1    2  501    0  0.80640147973E+02 -0.85929373114E+02  0.35603876268E+02  0.41851442823E+03  0.40000000000E+03 0.  1.
   -9000007    1    1    2    0  503 -0.80640147973E+02  0.85929373114E+02 -0.92464488642E+03  0.10143248280E+04  0.40000000000E+03 0. -1.
<mgrwt>
<rscale>  2 0.41699723E+03</rscale>
<asrwt>0</asrwt>
<pdfrwt beam="1">  1       21 0.41830634E-01 0.41699723E+03</pdfrwt>
<pdfrwt beam="2">  1       21 0.17860618E+00 0.41699723E+03</pdfrwt>
<totfact> 0.86947556E+02</totfact>
</mgrwt>
</event>
<event>
 4    1  0.4890517E-002  0.9865845E+03  0.7818608E-02  0.9323382E-01
         21   -1    0    0  503  502  0.00000000000E+00  0.00000000000E+00  0.15667695303E+04  0.15667695303E+04  0.00000000000E+00 0.  1.
         21   -1    0    0  501  503 -0.00000000000E+00 -0.00000000000E+00 -0.10700090081E+04  0.10700090081E+04  0.00000000000E+00 0. -1.
    9000007    1    1    2  501    0  0.51322037328E+02  0.90039716836E+03 -0.60542447157E+03  0.11575352276E+04  0.40000000000E+03 0. -1.
   -9000007    1    1    2    0  502 -0.51322037328E+02 -0.90039716836E+03  0.11021849937E+04  0.14792433108E+04  0.40000000000E+03 0.  1.
<mgrwt>
<rscale>  2 0.98658452E+03</rscale>
<asrwt>0</asrwt>
<pdfrwt beam="1">  1       21 0.24104147E+00 0.98658452E+03</pdfrwt>
<pdfrwt beam="2">  1       21 0.16461677E+00 0.98658452E+03</pdfrwt>
<totfact> 0.10197434E+01</totfact>
</mgrwt>
</event>
<event>
 4    1  0.4890517E-002  0.4590275E+03  0.7818608E-02  0.1025064E+00
         21   -1    0    0  503  502  0.00000000000E+00  0.00000000000E+00  0.63773240482E+03  0.63773240482E+03  0.00000000000E+00 0. -1.
         21   -1    0    0  501  503 -0.00000000000E+00 -0.00000000000E+00 -0.76096792466E+03  0.76096792466E+03  0.00000000000E+00 0. -1.
    9000007    1    1    2  501    0  0.20697532095E+03  0.88698792744E+02 -0.58767470630E+03  0.74569955058E+03  0.40000000000E+03 0. -1.
   -9000007    1    1    2    0  502 -0.20697532095E+03 -0.88698792744E+02  0.46443918646E+03  0.65300077889E+03  0.40000000000E+03 0. -1.
<mgrwt>
<rscale>  2 0.45902751E+03</rscale>
<asrwt>0</asrwt>
<pdfrwt beam="1">  1       21 0.98112678E-01 0.45902751E+03</pdfrwt>
<pdfrwt beam="2">  1       21 0.11707199E+00 0.45902751E+03</pdfrwt>
<totfact> 0.39940709E+02</totfact>
</mgrwt>
</event>
<event>
 4    1  0.4890517E-002  0.4348450E+03  0.7818608E-02  0.1032340E+00
         21   -1    0    0  503  502  0.00000000000E+00  0.00000000000E+00  0.12865112748E+04  0.12865112748E+04  0.00000000000E+00 0.  1.
         21   -1    0    0  501  503 -0.00000000000E+00 -0.00000000000E+00 -0.23786544668E+03  0.23786544668E+03  0.00000000000E+00 0.  1.
    9000007    1    1    2  501    0 -0.17046501127E+03  0.56402678258E+01  0.53187001422E+02  0.43808559644E+03  0.40000000000E+03 0.  1.
   -9000007    1    1    2    0  502  0.17046501127E+03 -0.56402678258E+01  0.99545882670E+03  0.10862911250E+04  0.40000000000E+03 0.  1.
<mgrwt>
<rscale>  2 0.43484495E+03</rscale>
<asrwt>0</asrwt>
<pdfrwt beam="1">  1       21 0.19792481E+00 0.43484495E+03</pdfrwt>
<pdfrwt beam="2">  1       21 0.36594685E-01 0.43484495E+03</pdfrwt>
<totfact> 0.83560391E+02</totfact>
</mgrwt>
</event>
<event>
 4    1  0.4890517E-002  0.5257970E+03  0.7818608E-02  0.1007257E+00
         21   -1    0    0  501  502  0.00000000000E+00  0.00000000000E+00  0.59462995801E+03  0.59462995801E+03  0.00000000000E+00 0.  1.
         21   -1    0    0  502  503 -0.00000000000E+00 -0.00000000000E+00 -0.47045778710E+03  0.47045778710E+03  0.00000000000E+00 0.  1.
    9000007    1    1    2  501    0 -0.30553964706E+02  0.33989550080E+03  0.11980153687E+03  0.53927256973E+03  0.40000000000E+03 0.  1.
   -9000007    1    1    2    0  503  0.30553964706E+02 -0.33989550080E+03  0.43706340358E+01  0.52581517539E+03  0.40000000000E+03 0.  1.
<mgrwt>
<rscale>  2 0.52579701E+03</rscale>
<asrwt>0</asrwt>
<pdfrwt beam="1">  1       21 0.91481532E-01 0.52579701E+03</pdfrwt>
<pdfrwt beam="2">  1       21 0.72378121E-01 0.52579701E+03</pdfrwt>
<totfact> 0.14531405E+03</totfact>
</mgrwt>
</event>
<event>
 4    1  0.4890517E-002  0.4292229E+03  0.7818608E-02  0.1034106E+00
         21   -1    0    0  501  502  0.00000000000E+00  0.00000000000E+00  0.24469429562E+03  0.24469429562E+03  0.00000000000E+00 0. -1.
         21   -1    0    0  502  503 -0.00000000000E+00 -0.00000000000E+00 -0.75980346063E+03  0.75980346063E+03  0.00000000000E+00 0. -1.
    9000007    1    1    2  501    0 -0.44872681932E+02  0.14905939512E+03 -0.20970765173E+03  0.47771284267E+03  0.40000000000E+03 0. -1.
   -9000007    1    1    2    0  503  0.44872681932E+02 -0.14905939512E+03 -0.30540151327E+03  0.52678491357E+03  0.40000000000E+03 0. -1.
<mgrwt>
<rscale>  2 0.42922286E+03</rscale>
<asrwt>0</asrwt>
<pdfrwt beam="1">  1       21 0.37645277E-01 0.42922286E+03</pdfrwt>
<pdfrwt beam="2">  1       21 0.11689284E+00 0.42922286E+03</pdfrwt>
<totfact> 0.33591591E+03</totfact>
</mgrwt>
</event>
<event>
 4    1  0.4890517E-002  0.4040913E+03  0.7818608E-02  0.1042372E+00
         21   -1    0    0  503  502  0.00000000000E+00  0.00000000000E+00  0.10198566641E+04  0.10198566641E+04  0.00000000000E+00 0.  1.
         21   -1    0    0  501  503 -0.00000000000E+00 -0.00000000000E+00 -0.17974867935E+03  0.17974867935E+03  0.00000000000E+00 0.  1.
    9000007    1    1    2  501    0  0.42388220537E+02 -0.38639531085E+02  0.22179814787E+03  0.46096007745E+03  0.40000000000E+03 0.  1.
   -9000007    1    1    2    0  502 -0.42388220537E+02  0.38639531085E+02  0.61830983693E+03  0.73864526604E+03  0.40000000000E+03 0.  1.
<mgrwt>
<rscale>  2 0.40409129E+03</rscale>
<asrwt>0</asrwt>
<pdfrwt beam="1">  1       21 0.15690102E+00 0.40409129E+03</pdfrwt>
<pdfrwt beam="2">  1       21 0.27653644E-01 0.40409129E+03</pdfrwt>
<totfact> 0.29029741E+03</totfact>
</mgrwt>
</event>
<event>
 4    1  0.4890517E-002  0.4644572E+03  0.7818608E-02  0.1023496E+00
         21   -1    0    0  503  502  0.00000000000E+00  0.00000000000E+00  0.39236104143E+03  0.39236104143E+03  0.00000000000E+00 0. -1.
         21   -1    0    0  501  503 -0.00000000000E+00 -0.00000000000E+00 -0.57032413339E+03  0.57032413339E+03  0.00000000000E+00 0. -1.
    9000007    1    1    2  501    0 -0.48361478601E+02  0.23104479004E+03  0.23276066205E+01  0.46446307213E+03  0.40000000000E+03 0. -1.
   -9000007    1    1    2    0  502  0.48361478601E+02 -0.23104479004E+03 -0.18029069858E+03  0.49822210269E+03  0.40000000000E+03 0. -1.
<mgrwt>
<rscale>  2 0.46445724E+03</rscale>
<asrwt>0</asrwt>
<pdfrwt beam="1">  1       21 0.60363237E-01 0.46445724E+03</pdfrwt>
<pdfrwt beam="2">  1       21 0.87742174E-01 0.46445724E+03</pdfrwt>
<totfact> 0.24576483E+03</totfact>
</mgrwt>
</event>
<event>
 4    1  0.4890517E-002  0.4078226E+03  0.7818608E-02  0.1041104E+00
         21   -1    0    0  501  502  0.00000000000E+00  0.00000000000E+00  0.36553516761E+03  0.36553516761E+03  0.00000000000E+00 0.  1.
         21   -1    0    0  502  503 -0.00000000000E+00 -0.00000000000E+00 -0.75417998637E+03  0.75417998637E+03  0.00000000000E+00 0.  1.
    9000007    1    1    2  501    0 -0.32457137213E+02  0.72566045097E+02  0.15829581015E+03  0.43746641033E+03  0.40000000000E+03 0.  1.
   -9000007    1    1    2    0  503  0.32457137213E+02 -0.72566045097E+02 -0.54694062891E+03  0.68224874365E+03  0.40000000000E+03 0.  1.
<mgrwt>
<rscale>  2 0.40782263E+03</rscale>
<asrwt>0</asrwt>
<pdfrwt beam="1">  1       21 0.56236180E-01 0.40782263E+03</pdfrwt>
<pdfrwt beam="2">  1       21 0.11602769E+00 0.40782263E+03</pdfrwt>
<totfact> 0.14864994E+03</totfact>
</mgrwt>
</event>
<event>
 4    1  0.4890517E-002  0.4522710E+03  0.7818608E-02  0.1027047E+00
         21   -1    0    0  501  502  0.00000000000E+00  0.00000000000E+00  0.31694537780E+03  0.31694537780E+03  0.00000000000E+00 0. -1.
         21   -1    0    0  502  503 -0.00000000000E+00 -0.00000000000E+00 -0.66433306188E+03  0.66433306188E+03  0.00000000000E+00 0. -1.
    9000007    1    1    2  501    0  0.20951039209E+03  0.25582735673E+02 -0.90813838754E+02  0.46129842192E+03  0.40000000000E+03 0. -1.
   -9000007    1    1    2    0  503 -0.20951039209E+03 -0.25582735673E+02 -0.25657384533E+03  0.51998001776E+03  0.40000000000E+03 0. -1.
<mgrwt>
<rscale>  2 0.45227103E+03</rscale>
<asrwt>0</asrwt>
<pdfrwt beam="1">  1       21 0.48760828E-01 0.45227103E+03</pdfrwt>
<pdfrwt beam="2">  1       21 0.10220508E+00 0.45227103E+03</pdfrwt>
<totfact> 0.27123701E+03</totfact>
</mgrwt>
</event>
<event>
 4    1  0.4890517E-002  0.4612482E+03  0.7818608E-02  0.1024420E+00
         21   -1    0    0  501  502  0.00000000000E+00  0.00000000000E+00  0.82163406163E+03  0.82163406163E+03  0.00000000000E+00 0.  1.
         21   -1    0    0  502  503 -0.00000000000E+00 -0.00000000000E+00 -0.31888686407E+03  0.31888686407E+03  0.00000000000E+00 0.  1.
    9000007    1    1    2  501    0 -0.13992433384E+03  0.18212930633E+03  0.49863476109E+03  0.67925439151E+03  0.40000000000E+03 0.  1.
   -9000007    1    1    2    0  503  0.13992433384E+03 -0.18212930633E+03  0.41124364766E+01  0.46126653418E+03  0.40000000000E+03 0.  1.
<mgrwt>
<rscale>  2 0.46124820E+03</rscale>
<asrwt>0</asrwt>
<pdfrwt beam="1">  1       21 0.12640524E+00 0.46124820E+03</pdfrwt>
<pdfrwt beam="2">  1       21 0.49059518E-01 0.46124820E+03</pdfrwt>
<totfact> 0.15665132E+03</totfact>
</mgrwt>
</event>
<event>
 4    1  0.4890517E-002  0.4291004E+03  0.7818608E-02  0.1034145E+00
         21   -1    0    0  501  502  0.00000000000E+00  0.00000000000E+00  0.34267359011E+03  0.34267359011E+03  0.00000000000E+00 0. -1.
         21   -1    0    0  502  503 -0.00000000000E+00 -0.00000000000E+00 -0.57775324805E+03  0.57775324805E+03  0.00000000000E+00 0. -1.
    9000007    1    1    2  501    0 -0.12600443349E+03 -0.90829584295E+02  0.41992056915E+01  0.42912091999E+03  0.40000000000E+03 0. -1.
   -9000007    1    1    2    0  503  0.12600443349E+03  0.90829584295E+02 -0.23927886363E+03  0.49130591817E+03  0.40000000000E+03 0. -1.
<mgrwt>
<rscale>  2 0.42910037E+03</rscale>
<asrwt>0</asrwt>
<pdfrwt beam="1">  1       21 0.52719014E-01 0.42910037E+03</pdfrwt>
<pdfrwt beam="2">  1       21 0.88885114E-01 0.42910037E+03</pdfrwt>
<totfact> 0.32382342E+03</totfact>
</mgrwt>
</event>
<event>
 4    1  0.4890517E-002  0.4215045E+03  0.7818608E-02  0.1036578E+00
         21   -1    0    0  501  502  0.00000000000E+00  0.00000000000E+00  0.32971544648E+03  0.32971544648E+03  0.00000000000E+00 0. -1.
         21   -1    0    0  502  503 -0.00000000000E+00 -0.00000000000E+00 -0.18396249534E+04  0.18396249534E+04  0.00000000000E+00 0. -1.
    9000007    1    1    2  501    0  0.80084616245E+02  0.10607778874E+03  0.15712899045E+03  0.44983948544E+03  0.40000000000E+03 0. -1.
   -9000007    1    1    2    0  503 -0.80084616245E+02 -0.10607778874E+03 -0.16670384974E+04  0.17195009144E+04  0.40000000000E+03 0. -1.
<mgrwt>
<rscale>  2 0.42150450E+03</rscale>
<asrwt>0</asrwt>
<pdfrwt beam="1">  1       21 0.50725454E-01 0.42150450E+03</pdfrwt>
<pdfrwt beam="2">  1       21 0.28301922E+00 0.42150450E+03</pdfrwt>
<totfact> 0.12562692E+02</totfact>
</mgrwt>
</event>
<event>
 4    1  0.4890517E-002  0.4567206E+03  0.7818608E-02  0.1025737E+00
         21   -1    0    0  503  502  0.00000000000E+00  0.00000000000E+00  0.42919740698E+04  0.42919740698E+04  0.00000000000E+00 0.  1.
         21   -1    0    0  501  503 -0.00000000000E+00 -0.00000000000E+00 -0.17056239757E+03  0.17056239757E+03  0.00000000000E+00 0.  1.
    9000007    1    1    2  501    0  0.21989276704E+03  0.15519894359E+02  0.17392457313E+03  0.48871612747E+03  0.40000000000E+03 0.  1.
   -9000007    1    1    2    0  502 -0.21989276704E+03 -0.15519894359E+02  0.39474870991E+04  0.39738203399E+04  0.40000000000E+03 0.  1.
<mgrwt>
<rscale>  2 0.45672059E+03</rscale>
<asrwt>0</asrwt>
<pdfrwt beam="1">  1       21 0.66030362E+00 0.45672059E+03</pdfrwt>
<pdfrwt beam="2">  1       21 0.26240372E-01 0.45672059E+03</pdfrwt>
<totfact> 0.10836319E+00</totfact>
</mgrwt>
</event>
<event>
 4    1  0.4890517E-002  0.4033751E+03  0.7818608E-02  0.1042617E+00
         21   -1    0    0  501  502  0.00000000000E+00  0.00000000000E+00  0.79900984555E+03  0.79900984555E+03  0.00000000000E+00 0.  1.
         21   -1    0    0  502  503 -0.00000000000E+00 -0.00000000000E+00 -0.34278043925E+03  0.34278043925E+03  0.00000000000E+00 0.  1.
    9000007    1    1    2  501    0 -0.40823102120E+02 -0.32325266696E+02  0.59183949229E+03  0.71623001415E+03  0.40000000000E+03 0.  1.
   -9000007    1    1    2    0  503  0.40823102120E+02  0.32325266696E+02 -0.13561008599E+03  0.42556027065E+03  0.40000000000E+03 0.  1.
<mgrwt>
<rscale>  2 0.40337507E+03</rscale>
<asrwt>0</asrwt>
<pdfrwt beam="1">  1       21 0.12292459E+00 0.40337507E+03</pdfrwt>
<pdfrwt beam="2">  1       21 0.52735452E-01 0.40337507E+03</pdfrwt>
<totfact> 0.14778954E+03</totfact>
</mgrwt>
</event>
<event>
 4    1  0.4890517E-002  0.4109325E+03  0.7818608E-02  0.1040059E+00
         21   -1    0    0  503  502  0.00000000000E+00  0.00000000000E+00  0.10071750468E+04  0.10071750468E+04  0.00000000000E+00 0. -1.
         21   -1    0    0  501  503 -0.00000000000E+00 -0.00000000000E+00 -0.17634745207E+03  0.17634745207E+03  0.00000000000E+00 0. -1.
    9000007    1    1    2  501    0  0.13559890967E+02 -0.93175347135E+02  0.28408955487E+03  0.49957220814E+03  0.40000000000E+03 0. -1.
   -9000007    1    1    2    0  502 -0.13559890967E+02  0.93175347135E+02  0.54673803986E+03  0.68395029073E+03  0.40000000000E+03 0. -1.
<mgrwt>
<rscale>  2 0.41093250E+03</rscale>
<asrwt>0</asrwt>
<pdfrwt beam="1">  1       21 0.15495000E+00 0.41093250E+03</pdfrwt>
<pdfrwt beam="2">  1       21 0.27130378E-01 0.41093250E+03</pdfrwt>
<totfact> 0.31103182E+03</totfact>
</mgrwt>
</event>
<event>
 4    1  0.4890517E-002  0.4434747E+03  0.7818608E-02  0.1029686E+00
         21   -1    0    0  501  502  0.00000000000E+00  0.00000000000E+00  0.63526435986E+03  0.63526435986E+03  0.00000000000E+00 0.  1.
         21   -1    0    0  502  503 -0.00000000000E+00 -0.00000000000E+00 -0.32771883739E+03  0.32771883739E+03  0.00000000000E+00 0.  1.
    9000007    1    1    2  501    0 -0.14695075572E+03 -0.12278135498E+03  0.26702718613E+03  0.51766137954E+03  0.40000000000E+03 0.  1.
   -9000007    1    1    2    0  503  0.14695075572E+03  0.12278135498E+03  0.40518336336E+02  0.44532181770E+03  0.40000000000E+03 0.  1.
<mgrwt>
<rscale>  2 0.44347467E+03</rscale>
<asrwt>0</asrwt>
<pdfrwt beam="1">  1       21 0.97732979E-01 0.44347467E+03</pdfrwt>
<pdfrwt beam="2">  1       21 0.50418283E-01 0.44347467E+03</pdfrwt>
<totfact> 0.28256442E+03</totfact>
</mgrwt>
</event>
<event>
 4    1  0.4890517E-002  0.6694702E+03  0.7818608E-02  0.9770915E-01
         21   -1    0    0  503  502  0.00000000000E+00  0.00000000000E+00  0.13677131363E+04  0.13677131363E+04  0.00000000000E+00 0.  1.
         21   -1    0    0  501  503 -0.00000000000E+00 -0.00000000000E+00 -0.34112153380E+03  0.34112153380E+03  0.00000000000E+00 0.  1.
    9000007    1    1    2  501    0  0.15492378934E+03  0.51399320533E+03  0.68281752096E+03  0.95625841829E+03  0.40000000000E+03 0.  1.
   -9000007    1    1    2    0  502 -0.15492378934E+03 -0.51399320533E+03  0.34377408150E+03  0.75257625178E+03  0.40000000000E+03 0.  1.
<mgrwt>
<rscale>  2 0.66947024E+03</rscale>
<asrwt>0</asrwt>
<pdfrwt beam="1">  1       21 0.21041740E+00 0.66947024E+03</pdfrwt>
<pdfrwt beam="2">  1       21 0.52480237E-01 0.66947024E+03</pdfrwt>
<totfact> 0.29494473E+02</totfact>
</mgrwt>
</event>
<event>
 4    1  0.4890517E-002  0.5817439E+03  0.7818608E-02  0.9944023E-01
         21   -1    0    0  501  502  0.00000000000E+00  0.00000000000E+00  0.10646123161E+04  0.10646123161E+04  0.00000000000E+00 0. -1.
         21   -1    0    0  502  503 -0.00000000000E+00 -0.00000000000E+00 -0.66301670883E+03  0.66301670883E+03  0.00000000000E+00 0. -1.
    9000007    1    1    2  501    0  0.90595474165E+02 -0.41257537321E+03  0.82402972609E+03  0.10086877455E+04  0.40000000000E+03 0. -1.
   -9000007    1    1    2    0  503 -0.90595474165E+02  0.41257537321E+03 -0.42243411880E+03  0.71894127941E+03  0.40000000000E+03 0. -1.
<mgrwt>
<rscale>  2 0.58174391E+03</rscale>
<asrwt>0</asrwt>
<pdfrwt beam="1">  1       21 0.16378651E+00 0.58174391E+03</pdfrwt>
<pdfrwt beam="2">  1       21 0.10200257E+00 0.58174391E+03</pdfrwt>
<totfact> 0.14077181E+02</totfact>
</mgrwt>
</event>
<event>
 4    1  0.4890517E-002  0.7127545E+03  0.7818608E-02  0.9695666E-01
         21   -1    0    0  501  502  0.00000000000E+00  0.00000000000E+00  0.55024051262E+03  0.55024051262E+03  0.00000000000E+00 0. -1.
         21   -1    0    0  502  503 -0.00000000000E+00 -0.00000000000E+00 -0.93341002024E+03  0.93341002024E+03  0.00000000000E+00 0.  1.
    9000007    1    1    2  501    0  0.11651649873E+03  0.57831033367E+03 -0.11425477272E+03  0.72185392539E+03  0.40000000000E+03 0. -1.
   -9000007    1    1    2    0  503 -0.11651649873E+03 -0.57831033367E+03 -0.26891473490E+03  0.76179660747E+03  0.40000000000E+03 0.  1.
<mgrwt>
<rscale>  2 0.71275447E+03</rscale>
<asrwt>0</asrwt>
<pdfrwt beam="1">  1       21 0.84652388E-01 0.71275447E+03</pdfrwt>
<pdfrwt beam="2">  1       21 0.14360154E+00 0.71275447E+03</pdfrwt>
<totfact> 0.30363077E+02</totfact>
</mgrwt>
</event>
<event>
 4    1  0.4890517E-002  0.6673186E+03  0.7818608E-02  0.9774814E-01
         21   -1    0    0  501  502  0.00000000000E+00  0.00000000000E+00  0.64439995366E+03  0.64439995366E+03  0.00000000000E+00 0.  1.
         21   -1    0    0  502  503 -0.00000000000E+00 -0.00000000000E+00 -0.69506796345E+03  0.69506796345E+03  0.00000000000E+00 0. -1.
    9000007    1    1    2  501    0 -0.37465994545E+03  0.38071518135E+03 -0.76239282667E+02  0.67165955086E+03  0.40000000000E+03 0.  1.
   -9000007    1    1    2    0  503  0.37465994545E+03 -0.38071518135E+03  0.25571272877E+02  0.66780836625E+03  0.40000000000E+03 0. -1.
<mgrwt>
<rscale>  2 0.66731861E+03</rscale>
<asrwt>0</asrwt>
<pdfrwt beam="1">  1       21 0.99138454E-01 0.66731861E+03</pdfrwt>
<pdfrwt beam="2">  1       21 0.10693353E+00 0.66731861E+03</pdfrwt>
<totfact> 0.45265897E+02</totfact>
</mgrwt>
</event>
<event>
 4    1  0.4890517E-002  0.4703222E+03  0.7818608E-02  0.1021829E+00
         21   -1    0    0  501  502  0.00000000000E+00  0.00000000000E+00  0.25206037585E+04  0.25206037585E+04  0.00000000000E+00 0.  1.
         21   -1    0    0  502  503 -0.00000000000E+00 -0.00000000000E+00 -0.87790243825E+02  0.87790243825E+02  0.00000000000E+00 0.  1.
    9000007    1    1    2  501    0  0.34287763637E+01 -0.24736867046E+03  0.12414210216E+04  0.13275274643E+04  0.40000000000E+03 0.  1.
   -9000007    1    1    2    0  503 -0.34287763637E+01  0.24736867046E+03  0.11913924930E+04  0.12808665380E+04  0.40000000000E+03 0.  1.
<mgrwt>
<rscale>  2 0.47032225E+03</rscale>
<asrwt>0</asrwt>
<pdfrwt beam="1">  1       21 0.38778514E+00 0.47032225E+03</pdfrwt>
<pdfrwt beam="2">  1       21 0.13506193E-01 0.47032225E+03</pdfrwt>
<totfact> 0.37576596E+02</totfact>
</mgrwt>
</event>
<event>
 4    1  0.4890517E-002  0.4298425E+03  0.7818608E-02  0.1033910E+00
         21   -1    0    0  503  502  0.00000000000E+00  0.00000000000E+00  0.33111632025E+03  0.33111632025E+03  0.00000000000E+00 0.  1.
         21   -1    0    0  501  503 -0.00000000000E+00 -0.00000000000E+00 -0.56287443771E+03  0.56287443771E+03  0.00000000000E+00 0.  1.
    9000007    1    1    2  501    0  0.15298198780E+03  0.36893414935E+02 -0.74304285126E+02  0.43621753684E+03  0.40000000000E+03 0.  1.
   -9000007    1    1    2    0  502 -0.15298198780E+03 -0.36893414935E+02 -0.15745383233E+03  0.45777322112E+03  0.40000000000E+03 0.  1.
<mgrwt>
<rscale>  2 0.42984254E+03</rscale>
<asrwt>0</asrwt>
<pdfrwt beam="1">  1       21 0.50940972E-01 0.42984254E+03</pdfrwt>
<pdfrwt beam="2">  1       21 0.86596067E-01 0.42984254E+03</pdfrwt>
<totfact> 0.37041306E+03</totfact>
</mgrwt>
</event>
<event>
 4    1  0.4890517E-002  0.8766520E+03  0.7818608E-02  0.9455248E-01
         21   -1    0    0  501  502  0.00000000000E+00  0.00000000000E+00  0.98613727429E+03  0.98613727429E+03  0.00000000000E+00 0. -1.
         21   -1    0    0  502  503 -0.00000000000E+00 -0.00000000000E+00 -0.78420223305E+03  0.78420223305E+03  0.00000000000E+00 0. -1.
    9000007    1    1    2  501    0 -0.20859996644E+03  0.75166802043E+03  0.17079396066E+03  0.89313455646E+03  0.40000000000E+03 0. -1.
   -9000007    1    1    2    0  503  0.20859996644E+03 -0.75166802043E+03  0.31141080582E+02  0.87720495088E+03  0.40000000000E+03 0. -1.
<mgrwt>
<rscale>  2 0.87665202E+03</rscale>
<asrwt>0</asrwt>
<pdfrwt beam="1">  1       21 0.15171343E+00 0.87665202E+03</pdfrwt>
<pdfrwt beam="2">  1       21 0.12064650E+00 0.87665202E+03</pdfrwt>
<totfact> 0.10391374E+02</totfact>
</mgrwt>
</event>
<event>
 4    1  0.4890517E-002  0.5326955E+03  0.7818608E-02  0.1005581E+00
         21   -1    0    0  503  502  0.00000000000E+00  0.00000000000E+00  0.18508945938E+03  0.18508945938E+03  0.00000000000E+00 0.  1.
         21   -1    0    0  501  503 -0.00000000000E+00 -0.00000000000E+00 -0.15885433227E+04  0.15885433227E+04  0.00000000000E+00 0.  1.
    9000007    1    1    2  501    0 -0.33358423879E+03  0.11174097623E+03 -0.86737162777E+03  0.10178890071E+04  0.40000000000E+03 0.  1.
   -9000007    1    1    2    0  502  0.33358423879E+03 -0.11174097623E+03 -0.53608223557E+03  0.75574377498E+03  0.40000000000E+03 0.  1.
<mgrwt>
<rscale>  2 0.53269549E+03</rscale>
<asrwt>0</asrwt>
<pdfrwt beam="1">  1       21 0.28475302E-01 0.53269549E+03</pdfrwt>
<pdfrwt beam="2">  1       21 0.24439128E+00 0.53269549E+03</pdfrwt>
<totfact> 0.66540330E+02</totfact>
</mgrwt>
</event>
<event>
 4    1  0.4890517E-002  0.4981795E+03  0.7818608E-02  0.1014255E+00
         21   -1    0    0  503  502  0.00000000000E+00  0.00000000000E+00  0.26331378831E+03  0.26331378831E+03  0.00000000000E+00 0. -1.
         21   -1    0    0  501  503 -0.00000000000E+00 -0.00000000000E+00 -0.98311951130E+03  0.98311951130E+03  0.00000000000E+00 0. -1.
    9000007    1    1    2  501    0 -0.25591028762E+03  0.15064118997E+03 -0.48652460481E+03  0.69633974073E+03  0.40000000000E+03 0. -1.
   -9000007    1    1    2    0  502  0.25591028762E+03 -0.15064118997E+03 -0.23328111818E+03  0.55009355888E+03  0.40000000000E+03 0. -1.
<mgrwt>
<rscale>  2 0.49817953E+03</rscale>
<asrwt>0</asrwt>
<pdfrwt beam="1">  1       21 0.40509814E-01 0.49817953E+03</pdfrwt>
<pdfrwt beam="2">  1       21 0.15124916E+00 0.49817953E+03</pdfrwt>
<totfact> 0.14333589E+03</totfact>
</mgrwt>
</event>
<event>
 4    1  0.4890517E-002  0.8126068E+03  0.7818608E-02  0.9541946E-01
         21   -1    0    0  503  502  0.00000000000E+00  0.00000000000E+00  0.14997526225E+04  0.14997526225E+04  0.00000000000E+00 0. -1.
         21   -1    0    0  501  503 -0.00000000000E+00 -0.00000000000E+00 -0.70202685921E+03  0.70202685921E+03  0.00000000000E+00 0.  1.
    9000007    1    1    2  501    0  0.69942200527E+03  0.10553967023E+03 -0.27333535255E+03  0.85734589193E+03  0.40000000000E+03 0.  1.
   -9000007    1    1    2    0  502 -0.69942200527E+03 -0.10553967023E+03  0.10710611158E+04  0.13444335897E+04  0.40000000000E+03 0. -1.
<mgrwt>
<rscale>  2 0.81260677E+03</rscale>
<asrwt>0</asrwt>
<pdfrwt beam="1">  1       21 0.23073117E+00 0.81260677E+03</pdfrwt>
<pdfrwt beam="2">  1       21 0.10800413E+00 0.81260677E+03</pdfrwt>
<totfact> 0.38854478E+01</totfact>
</mgrwt>
</event>
<event>
 4    1  0.4890517E-002  0.5228173E+03  0.7818608E-02  0.1007989E+00
         21   -1    0    0  503  502  0.00000000000E+00  0.00000000000E+00  0.66472453745E+03  0.66472453745E+03  0.00000000000E+00 0. -1.
         21   -1    0    0  501  503 -0.00000000000E+00 -0.00000000000E+00 -0.67545794032E+03  0.67545794032E+03  0.00000000000E+00 0. -1.
    9000007    1    1    2  501    0 -0.14693910381E+03  0.30289739657E+03 -0.42449293732E+03  0.67344798382E+03  0.40000000000E+03 0. -1.
   -9000007    1    1    2    0  502  0.14693910381E+03 -0.30289739657E+03  0.41375953445E+03  0.66673449395E+03  0.40000000000E+03 0. -1.
<mgrwt>
<rscale>  2 0.52281730E+03</rscale>
<asrwt>0</asrwt>
<pdfrwt beam="1">  1       21 0.10226531E+00 0.52281730E+03</pdfrwt>
<pdfrwt beam="2">  1       21 0.10391661E+00 0.52281730E+03</pdfrwt>
<totfact> 0.47283816E+02</totfact>
</mgrwt>
</event>
<event>
 4    1  0.4890517E-002  0.4981546E+03  0.7818608E-02  0.1014262E+00
         21   -1    0    0  501  502  0.00000000000E+00  0.00000000000E+00  0.15310763178E+03  0.15310763178E+03  0.00000000000E+00 0. -1.
         21   -1    0    0  502  503 -0.00000000000E+00 -0.00000000000E+00 -0.18064032082E+04  0.18064032082E+04  0.00000000000E+00 0.  1.
    9000007    1    1    2  501    0  0.99467382644E+02 -0.27975746506E+03 -0.11406945208E+04  0.12447256683E+04  0.40000000000E+03 0. -1.
   -9000007    1    1    2    0  503 -0.99467382644E+02  0.27975746506E+03 -0.51260105560E+03  0.71478517169E+03  0.40000000000E+03 0. -1.
<mgrwt>
<rscale>  2 0.49815459E+03</rscale>
<asrwt>0</asrwt>
<pdfrwt beam="1">  1       21 0.23555021E-01 0.49815459E+03</pdfrwt>
<pdfrwt beam="2">  1       21 0.27790818E+00 0.49815459E+03</pdfrwt>
<totfact> 0.61057667E+02</totfact>
</mgrwt>
</event>
<event>
 4    1  0.4890517E-002  0.4256050E+03  0.7818608E-02  0.1035257E+00
         21   -1    0    0  503  502  0.00000000000E+00  0.00000000000E+00  0.15196664814E+03  0.15196664814E+03  0.00000000000E+00 0.  1.
         21   -1    0    0  501  503 -0.00000000000E+00 -0.00000000000E+00 -0.12484839576E+04  0.12484839576E+04  0.00000000000E+00 0.  1.
    9000007    1    1    2  501    0  0.12037298456E+03 -0.81547181293E+02 -0.69723811178E+03  0.81687243968E+03  0.40000000000E+03 0.  1.
   -9000007    1    1    2    0  502 -0.12037298456E+03  0.81547181293E+02 -0.39927919763E+03  0.58357816602E+03  0.40000000000E+03 0.  1.
<mgrwt>
<rscale>  2 0.42560498E+03</rscale>
<asrwt>0</asrwt>
<pdfrwt beam="1">  1       21 0.23379484E-01 0.42560498E+03</pdfrwt>
<pdfrwt beam="2">  1       21 0.19207446E+00 0.42560498E+03</pdfrwt>
<totfact> 0.22313569E+03</totfact>
</mgrwt>
</event>
<event>
 4    1  0.4890517E-002  0.4765516E+03  0.7818608E-02  0.1020087E+00
         21   -1    0    0  501  502  0.00000000000E+00  0.00000000000E+00  0.48643500209E+03  0.48643500209E+03  0.00000000000E+00 0.  1.
         21   -1    0    0  502  503 -0.00000000000E+00 -0.00000000000E+00 -0.46884047829E+03  0.46884047829E+03  0.00000000000E+00 0.  1.
    9000007    1    1    2  501    0 -0.12384247560E+03  0.22751797518E+03 -0.22176221698E+02  0.47706726214E+03  0.40000000000E+03 0.  1.
   -9000007    1    1    2    0  503  0.12384247560E+03 -0.22751797518E+03  0.39770745490E+02  0.47820821824E+03  0.40000000000E+03 0.  1.
<mgrwt>
<rscale>  2 0.47655156E+03</rscale>
<asrwt>0</asrwt>
<pdfrwt beam="1">  1       21 0.74836154E-01 0.47655156E+03</pdfrwt>
<pdfrwt beam="2">  1       21 0.72129304E-01 0.47655156E+03</pdfrwt>
<totfact> 0.23791252E+03</totfact>
</mgrwt>
</event>
<event>
 4    1  0.4890517E-002  0.4707578E+03  0.7818608E-02  0.1021707E+00
         21   -1    0    0  501  502  0.00000000000E+00  0.00000000000E+00  0.83467482378E+03  0.83467482378E+03  0.00000000000E+00 0. -1.
         21   -1    0    0  502  503 -0.00000000000E+00 -0.00000000000E+00 -0.30204485394E+03  0.30204485394E+03  0.00000000000E+00 0. -1.
    9000007    1    1    2  501    0  0.19500289022E+03  0.15357987943E+03  0.46399045705E+03  0.66098415321E+03  0.40000000000E+03 0. -1.
   -9000007    1    1    2    0  503 -0.19500289022E+03 -0.15357987943E+03  0.68639512787E+02  0.47573552450E+03  0.40000000000E+03 0. -1.
<mgrwt>
<rscale>  2 0.47075780E+03</rscale>
<asrwt>0</asrwt>
<pdfrwt beam="1">  1       21 0.12841151E+00 0.47075780E+03</pdfrwt>
<pdfrwt beam="2">  1       21 0.46468439E-01 0.47075780E+03</pdfrwt>
<totfact> 0.16807102E+03</totfact>
</mgrwt>
</event>
<event>
 4    1  0.4890517E-002  0.4683537E+03  0.7818608E-02  0.1022386E+00
         21   -1    0    0  501  502  0.00000000000E+00  0.00000000000E+00  0.14297168775E+04  0.14297168775E+04  0.00000000000E+00 0. -1.
         21   -1    0    0  502  503 -0.00000000000E+00 -0.00000000000E+00 -0.17413026142E+03  0.17413026142E+03  0.00000000000E+00 0.  1.
    9000007    1    1    2  501    0 -0.22415983052E+03  0.95433347608E+02  0.35127108593E+03  0.58544558181E+03  0.40000000000E+03 0.  1.
   -9000007    1    1    2    0  503  0.22415983052E+03 -0.95433347608E+02  0.90431553010E+03  0.10184015571E+04  0.40000000000E+03 0. -1.
<mgrwt>
<rscale>  2 0.46835366E+03</rscale>
<asrwt>0</asrwt>
<pdfrwt beam="1">  1       21 0.21995643E+00 0.46835366E+03</pdfrwt>
<pdfrwt beam="2">  1       21 0.26789272E-01 0.46835366E+03</pdfrwt>
<totfact> 0.11006769E+03</totfact>
</mgrwt>
</event>
<event>
 4    1  0.4890517E-002  0.4317542E+03  0.7818608E-02  0.1033307E+00
         21   -1    0    0  501  502  0.00000000000E+00  0.00000000000E+00  0.97556316808E+03  0.97556316808E+03  0.00000000000E+00 0.  1.
         21   -1    0    0  502  503 -0.00000000000E+00 -0.00000000000E+00 -0.22302490206E+03  0.22302490206E+03  0.00000000000E+00 0.  1.
    9000007    1    1    2  501    0  0.10504596375E+03 -0.12400409172E+03  0.60307624944E+03  0.74169578124E+03  0.40000000000E+03 0.  1.
   -9000007    1    1    2    0  503 -0.10504596375E+03  0.12400409172E+03  0.14946201657E+03  0.45689228891E+03  0.40000000000E+03 0.  1.
<mgrwt>
<rscale>  2 0.43175418E+03</rscale>
<asrwt>0</asrwt>
<pdfrwt beam="1">  1       21 0.15008664E+00 0.43175418E+03</pdfrwt>
<pdfrwt beam="2">  1       21 0.34311524E-01 0.43175418E+03</pdfrwt>
<totfact> 0.21087295E+03</totfact>
</mgrwt>
</event>
<event>
 4    1  0.4890517E-002  0.5056171E+03  0.7818608E-02  0.1012323E+00
         21   -1    0    0  501  502  0.00000000000E+00  0.00000000000E+00  0.24081008015E+03  0.24081008015E+03  0.00000000000E+00 0.  1.
         21   -1    0    0  502  503 -0.00000000000E+00 -0.00000000000E+00 -0.12600475380E+04  0.12600475380E+04  0.00000000000E+00 0. -1.
    9000007    1    1    2  501    0  0.28246973965E+03 -0.12593434241E+03 -0.21182342471E+03  0.54819501610E+03  0.40000000000E+03 0.  1.
   -9000007    1    1    2    0  503 -0.28246973965E+03  0.12593434241E+03 -0.80741403310E+03  0.95266260201E+03  0.40000000000E+03 0. -1.
<mgrwt>
<rscale>  2 0.50561706E+03</rscale>
<asrwt>0</asrwt>
<pdfrwt beam="1">  1       21 0.37047705E-01 0.50561706E+03</pdfrwt>
<pdfrwt beam="2">  1       21 0.19385346E+00 0.50561706E+03</pdfrwt>
<totfact> 0.84123563E+02</totfact>
</mgrwt>
</event>
<event>
 4    1  0.4890517E-002  0.4114298E+03  0.7818608E-02  0.1039892E+00
         21   -1    0    0  501  502  0.00000000000E+00  0.00000000000E+00  0.65823983081E+03  0.65823983081E+03  0.00000000000E+00 0.  1.
         21   -1    0    0  502  503 -0.00000000000E+00 -0.00000000000E+00 -0.50326391892E+03  0.50326391892E+03  0.00000000000E+00 0.  1.
    9000007    1    1    2  501    0  0.51943675311E+02 -0.81094530272E+02  0.48360382416E+03  0.63493867970E+03  0.40000000000E+03 0.  1.
   -9000007    1    1    2    0  503 -0.51943675311E+02  0.81094530272E+02 -0.32862791227E+03  0.52656507002E+03  0.40000000000E+03 0.  1.
<mgrwt>
<rscale>  2 0.41142979E+03</rscale>
<asrwt>0</asrwt>
<pdfrwt beam="1">  1       21 0.10126767E+00 0.41142979E+03</pdfrwt>
<pdfrwt beam="2">  1       21 0.77425219E-01 0.41142979E+03</pdfrwt>
<totfact> 0.10195892E+03</totfact>
</mgrwt>
</event>
<event>
 4    1  0.4890517E-002  0.4621171E+03  0.7818608E-02  0.1024169E+00
         21   -1    0    0  503  502  0.00000000000E+00  0.00000000000E+00  0.34718921691E+03  0.34718921691E+03  0.00000000000E+00 0.  1.
         21   -1    0    0  501  503 -0.00000000000E+00 -0.00000000000E+00 -0.61509763379E+03  0.61509763379E+03  0.00000000000E+00 0.  1.
    9000007    1    1    2  501    0  0.12473522024E+03 -0.19491871898E+03 -0.13578251910E+03  0.48165244178E+03  0.40000000000E+03 0.  1.
   -9000007    1    1    2    0  502 -0.12473522024E+03  0.19491871898E+03 -0.13212589779E+03  0.48063440893E+03  0.40000000000E+03 0.  1.
<mgrwt>
<rscale>  2 0.46211707E+03</rscale>
<asrwt>0</asrwt>
<pdfrwt beam="1">  1       21 0.53413726E-01 0.46211707E+03</pdfrwt>
<pdfrwt beam="2">  1       21 0.94630405E-01 0.46211707E+03</pdfrwt>
<totfact> 0.26807803E+03</totfact>
</mgrwt>
</event>
<event>
 4    1  0.4890517E-002  0.4289702E+03  0.7818608E-02  0.1034186E+00
         21   -1    0    0  503  502  0.00000000000E+00  0.00000000000E+00  0.97147007797E+03  0.97147007797E+03  0.00000000000E+00 0.  1.
         21   -1    0    0  501  503 -0.00000000000E+00 -0.00000000000E+00 -0.10458004002E+04  0.10458004002E+04  0.00000000000E+00 0. -1.
    9000007    1    1    2  501    0  0.15483197434E+03 -0.65166568109E+01 -0.94989702819E+03  0.10422666507E+04  0.40000000000E+03 0. -1.
   -9000007    1    1    2    0  502 -0.15483197434E+03  0.65166568109E+01  0.87556670591E+03  0.97500382747E+03  0.40000000000E+03 0.  1.
<mgrwt>
<rscale>  2 0.42897017E+03</rscale>
<asrwt>0</asrwt>
<pdfrwt beam="1">  1       21 0.14945694E+00 0.42897017E+03</pdfrwt>
<pdfrwt beam="2">  1       21 0.16089237E+00 0.42897017E+03</pdfrwt>
<totfact> 0.59823762E+01</totfact>
</mgrwt>
</event>
<event>
 4    1  0.4890517E-002  0.4145135E+03  0.7818608E-02  0.1038867E+00
         21   -1    0    0  501  502  0.00000000000E+00  0.00000000000E+00  0.41683340642E+03  0.41683340642E+03  0.00000000000E+00 0.  1.
         21   -1    0    0  502  503 -0.00000000000E+00 -0.00000000000E+00 -0.44523075834E+03  0.44523075834E+03  0.00000000000E+00 0.  1.
    9000007    1    1    2  501    0  0.82512251196E+02 -0.70803845376E+02 -0.13158926770E+03  0.43489905897E+03  0.40000000000E+03 0.  1.
   -9000007    1    1    2    0  503 -0.82512251196E+02  0.70803845376E+02  0.10319191579E+03  0.42716510579E+03  0.40000000000E+03 0.  1.
<mgrwt>
<rscale>  2 0.41451352E+03</rscale>
<asrwt>0</asrwt>
<pdfrwt beam="1">  1       21 0.64128216E-01 0.41451352E+03</pdfrwt>
<pdfrwt beam="2">  1       21 0.68497040E-01 0.41451352E+03</pdfrwt>
<totfact> 0.38664173E+03</totfact>
</mgrwt>
</event>
<event>
 4    1  0.4890517E-002  0.4331701E+03  0.7818608E-02  0.1032863E+00
         21   -1    0    0  503  502  0.00000000000E+00  0.00000000000E+00  0.70114158943E+03  0.70114158943E+03  0.00000000000E+00 0. -1.
         21   -1    0    0  501  503 -0.00000000000E+00 -0.00000000000E+00 -0.27333548327E+03  0.27333548327E+03  0.00000000000E+00 0. -1.
    9000007    1    1    2  501    0  0.83986354650E+02 -0.14346636822E+03  0.14341853512E+03  0.45629506111E+03  0.40000000000E+03 0. -1.
   -9000007    1    1    2    0  502 -0.83986354650E+02  0.14346636822E+03  0.28438757104E+03  0.51818201159E+03  0.40000000000E+03 0. -1.
<mgrwt>
<rscale>  2 0.43317007E+03</rscale>
<asrwt>0</asrwt>
<pdfrwt beam="1">  1       21 0.10786794E+00 0.43317007E+03</pdfrwt>
<pdfrwt beam="2">  1       21 0.42051613E-01 0.43317007E+03</pdfrwt>
<totfact> 0.32623068E+03</totfact>
</mgrwt>
</event>
<event>
 4    1  0.4890517E-002  0.4916772E+03  0.7818608E-02  0.1015974E+00
         21   -1    0    0  503  502  0.00000000000E+00  0.00000000000E+00  0.52277964194E+03  0.52277964194E+03  0.00000000000E+00 0. -1.
         21   -1    0    0  501  503 -0.00000000000E+00 -0.00000000000E+00 -0.13736163197E+04  0.13736163197E+04  0.00000000000E+00 0. -1.
    9000007    1    1    2  501    0  0.92678351370E+02 -0.27047584304E+03 -0.11976916999E+04  0.12946860108E+04  0.40000000000E+03 0. -1.
   -9000007    1    1    2    0  502 -0.92678351370E+02  0.27047584304E+03  0.34685502220E+03  0.60170995081E+03  0.40000000000E+03 0. -1.
<mgrwt>
<rscale>  2 0.49167719E+03</rscale>
<asrwt>0</asrwt>
<pdfrwt beam="1">  1       21 0.80427638E-01 0.49167719E+03</pdfrwt>
<pdfrwt beam="2">  1       21 0.21132559E+00 0.49167719E+03</pdfrwt>
<totfact> 0.12060355E+02</totfact>
</mgrwt>
</event>
<event>
 4    1  0.4890517E-002  0.5506902E+03  0.7818608E-02  0.1001334E+00
         21   -1    0    0  501  502  0.00000000000E+00  0.00000000000E+00  0.83004865966E+03  0.83004865966E+03  0.00000000000E+00 0.  1.
         21   -1    0    0  502  503 -0.00000000000E+00 -0.00000000000E+00 -0.36535719339E+03  0.36535719339E+03  0.00000000000E+00 0. -1.
    9000007    1    1    2  501    0  0.14103491060E+03  0.35123898945E+03  0.23002423605E+03  0.59680048835E+03  0.40000000000E+03 0. -1.
   -9000007    1    1    2    0  503 -0.14103491060E+03 -0.35123898945E+03  0.23466723022E+03  0.59860536471E+03  0.40000000000E+03 0.  1.
<mgrwt>
<rscale>  2 0.55069018E+03</rscale>
<asrwt>0</asrwt>
<pdfrwt beam="1">  1       21 0.12769979E+00 0.55069018E+03</pdfrwt>
<pdfrwt beam="2">  1       21 0.56208799E-01 0.55069018E+03</pdfrwt>
<totfact> 0.11030495E+03</totfact>
</mgrwt>
</event>
<event>
 4    1  0.4890517E-002  0.4038534E+03  0.7818608E-02  0.1042454E+00
         21   -1    0    0  503  502  0.00000000000E+00  0.00000000000E+00  0.14932513102E+04  0.14932513102E+04  0.00000000000E+00 0. -1.
         21   -1    0    0  501  503 -0.00000000000E+00 -0.00000000000E+00 -0.14004836815E+03  0.14004836815E+03  0.00000000000E+00 0. -1.
    9000007    1    1    2  501    0 -0.54708673772E+02  0.10222174034E+02  0.29346780841E+03  0.49922027844E+03  0.40000000000E+03 0. -1.
   -9000007    1    1    2    0  502  0.54708673772E+02 -0.10222174034E+02  0.10597351337E+04  0.11340793999E+04  0.40000000000E+03 0. -1.
<mgrwt>
<rscale>  2 0.40385335E+03</rscale>
<asrwt>0</asrwt>
<pdfrwt beam="1">  1       21 0.22973096E+00 0.40385335E+03</pdfrwt>
<pdfrwt beam="2">  1       21 0.21545904E-01 0.40385335E+03</pdfrwt>
<totfact> 0.15013779E+03</totfact>
</mgrwt>
</event>
<event>
 4    1  0.4890517E-002  0.4009750E+03  0.7818608E-02  0.1043443E+00
         21   -1    0    0  503  502  0.00000000000E+00  0.00000000000E+00  0.24741271720E+03  0.24741271720E+03  0.00000000000E+00 0. -1.
         21   -1    0    0  501  503 -0.00000000000E+00 -0.00000000000E+00 -0.10741285701E+04  0.10741285701E+04  0.00000000000E+00 0. -1.
    9000007    1    1    2  501    0 -0.20534967796E+02  0.18955311265E+02 -0.82864507987E+03  0.92056159877E+03  0.40000000000E+03 0. -1.
   -9000007    1    1    2    0  502  0.20534967796E+02 -0.18955311265E+02  0.19292269445E+01  0.40097968857E+03  0.40000000000E+03 0. -1.
<mgrwt>
<rscale>  2 0.40097505E+03</rscale>
<asrwt>0</asrwt>
<pdfrwt beam="1">  1       21 0.38063496E-01 0.40097505E+03</pdfrwt>
<pdfrwt beam="2">  1       21 0.16525054E+00 0.40097505E+03</pdfrwt>
<totfact> 0.13279034E+03</totfact>
</mgrwt>
</event>
<event>
 4    1  0.4890517E-002  0.4094804E+03  0.7818608E-02  0.1040546E+00
         21   -1    0    0  503  502  0.00000000000E+00  0.00000000000E+00  0.27284619923E+03  0.27284619923E+03  0.00000000000E+00 0. -1.
         21   -1    0    0  501  503 -0.00000000000E+00 -0.00000000000E+00 -0.82603297434E+03  0.82603297434E+03  0.00000000000E+00 0.  1.
    9000007    1    1    2  501    0  0.42516757041E+02  0.76593182819E+02 -0.55461074448E+03  0.68939630705E+03  0.40000000000E+03 0.  1.
   -9000007    1    1    2    0  502 -0.42516757041E+02 -0.76593182819E+02  0.14239693617E+01  0.40948286652E+03  0.40000000000E+03 0. -1.
<mgrwt>
<rscale>  2 0.40948039E+03</rscale>
<asrwt>0</asrwt>
<pdfrwt beam="1">  1       21 0.41976338E-01 0.40948039E+03</pdfrwt>
<pdfrwt beam="2">  1       21 0.12708200E+00 0.40948039E+03</pdfrwt>
<totfact> 0.21874376E+03</totfact>
</mgrwt>
</event>
<event>
 4    1  0.4890517E-002  0.4668446E+03  0.7818608E-02  0.1022815E+00
         21   -1    0    0  503  502  0.00000000000E+00  0.00000000000E+00  0.22714814033E+03  0.22714814033E+03  0.00000000000E+00 0.  1.
         21   -1    0    0  501  503 -0.00000000000E+00 -0.00000000000E+00 -0.97039598259E+03  0.97039598259E+03  0.00000000000E+00 0.  1.
    9000007    1    1    2  501    0 -0.22191603387E+03 -0.93258644588E+02 -0.43513298111E+03  0.63818853964E+03  0.40000000000E+03 0.  1.
   -9000007    1    1    2    0  502  0.22191603387E+03  0.93258644588E+02 -0.30811486115E+03  0.55935558327E+03  0.40000000000E+03 0.  1.
<mgrwt>
<rscale>  2 0.46684462E+03</rscale>
<asrwt>0</asrwt>
<pdfrwt beam="1">  1       21 0.34945867E-01 0.46684462E+03</pdfrwt>
<pdfrwt beam="2">  1       21 0.14929169E+00 0.46684462E+03</pdfrwt>
<totfact> 0.20331590E+03</totfact>
</mgrwt>
</event>
<event>
 4    1  0.4890517E-002  0.4276855E+03  0.7818608E-02  0.1034594E+00
         21   -1    0    0  503  502  0.00000000000E+00  0.00000000000E+00  0.19760158281E+03  0.19760158281E+03  0.00000000000E+00 0. -1.
         21   -1    0    0  501  503 -0.00000000000E+00 -0.00000000000E+00 -0.97001925239E+03  0.97001925239E+03  0.00000000000E+00 0. -1.
    9000007    1    1    2  501    0  0.83461472002E+01  0.15114632890E+03 -0.26138437535E+03  0.50123513703E+03  0.40000000000E+03 0. -1.
   -9000007    1    1    2    0  502 -0.83461472002E+01 -0.15114632890E+03 -0.51103329423E+03  0.66638569817E+03  0.40000000000E+03 0. -1.
<mgrwt>
<rscale>  2 0.42768548E+03</rscale>
<asrwt>0</asrwt>
<pdfrwt beam="1">  1       21 0.30400244E-01 0.42768548E+03</pdfrwt>
<pdfrwt beam="2">  1       21 0.14923373E+00 0.42768548E+03</pdfrwt>
<totfact> 0.27332940E+03</totfact>
</mgrwt>
</event>
<event>
 4    1  0.4890517E-002  0.4182852E+03  0.7818608E-02  0.1037626E+00
         21   -1    0    0  503  502  0.00000000000E+00  0.00000000000E+00  0.67908817507E+03  0.67908817507E+03  0.00000000000E+00 0.  1.
         21   -1    0    0  501  503 -0.00000000000E+00 -0.00000000000E+00 -0.43573025122E+03  0.43573025122E+03  0.00000000000E+00 0.  1.
    9000007    1    1    2  501    0 -0.10968200999E+03 -0.54151347193E+02 -0.23467480006E+03  0.47961940484E+03  0.40000000000E+03 0.  1.
   -9000007    1    1    2    0  502  0.10968200999E+03  0.54151347193E+02  0.47803272391E+03  0.63519902145E+03  0.40000000000E+03 0.  1.
<mgrwt>
<rscale>  2 0.41828520E+03</rscale>
<asrwt>0</asrwt>
<pdfrwt beam="1">  1       21 0.10447510E+00 0.41828520E+03</pdfrwt>
<pdfrwt beam="2">  1       21 0.67035423E-01 0.41828520E+03</pdfrwt>
<totfact> 0.13044308E+03</totfact>
</mgrwt>
</event>
<event>
 4    1  0.4890517E-002  0.4237391E+03  0.7818608E-02  0.1035856E+00
         21   -1    0    0  503  502  0.00000000000E+00  0.00000000000E+00  0.55200463788E+03  0.55200463788E+03  0.00000000000E+00 0. -1.
         21   -1    0    0  501  503 -0.00000000000E+00 -0.00000000000E+00 -0.32769576202E+03  0.32769576202E+03  0.00000000000E+00 0. -1.
    9000007    1    1    2  501    0 -0.13404342703E+03  0.39839066335E+02  0.14993812306E+03  0.44948440716E+03  0.40000000000E+03 0. -1.
   -9000007    1    1    2    0  502  0.13404342703E+03 -0.39839066335E+02  0.74370752798E+02  0.43021599274E+03  0.40000000000E+03 0. -1.
<mgrwt>
<rscale>  2 0.42373906E+03</rscale>
<asrwt>0</asrwt>
<pdfrwt beam="1">  1       21 0.84923791E-01 0.42373906E+03</pdfrwt>
<pdfrwt beam="2">  1       21 0.50414732E-01 0.42373906E+03</pdfrwt>
<totfact> 0.39725622E+03</totfact>
</mgrwt>
</event>
<event>
 4    1  0.4890517E-002  0.4295976E+03  0.7818608E-02  0.1033987E+00
         21   -1    0    0  501  502  0.00000000000E+00  0.00000000000E+00  0.22320978303E+03  0.22320978303E+03  0.00000000000E+00 0.  1.
         21   -1    0    0  502  503 -0.00000000000E+00 -0.00000000000E+00 -0.12059961958E+04  0.12059961958E+04  0.00000000000E+00 0.  1.
    9000007    1    1    2  501    0  0.89979188403E+02 -0.12828797686E+03 -0.90699018907E+02  0.43906761596E+03  0.40000000000E+03 0.  1.
   -9000007    1    1    2    0  503 -0.89979188403E+02  0.12828797686E+03 -0.89208739387E+03  0.99013836289E+03  0.40000000000E+03 0.  1.
<mgrwt>
<rscale>  2 0.42959756E+03</rscale>
<asrwt>0</asrwt>
<pdfrwt beam="1">  1       21 0.34339966E-01 0.42959756E+03</pdfrwt>
<pdfrwt beam="2">  1       21 0.18553788E+00 0.42959756E+03</pdfrwt>
<totfact> 0.11568055E+03</totfact>
</mgrwt>
</event>
<event>
 4    1  0.4890517E-002  0.4170055E+03  0.7818608E-02  0.1038045E+00
         21   -1    0    0  501  502  0.00000000000E+00  0.00000000000E+00  0.30112775095E+03  0.30112775095E+03  0.00000000000E+00 0.  1.
         21   -1    0    0  502  503 -0.00000000000E+00 -0.00000000000E+00 -0.60613074508E+03  0.60613074508E+03  0.00000000000E+00 0.  1.
    9000007    1    1    2  501    0  0.86683277227E+02  0.79872509950E+02 -0.53867358375E+02  0.42047033272E+03  0.40000000000E+03 0.  1.
   -9000007    1    1    2    0  503 -0.86683277227E+02 -0.79872509950E+02 -0.25113563575E+03  0.48678816331E+03  0.40000000000E+03 0.  1.
<mgrwt>
<rscale>  2 0.41700553E+03</rscale>
<asrwt>0</asrwt>
<pdfrwt beam="1">  1       21 0.46327347E-01 0.41700553E+03</pdfrwt>
<pdfrwt beam="2">  1       21 0.93250882E-01 0.41700553E+03</pdfrwt>
<totfact> 0.38187412E+03</totfact>
</mgrwt>
</event>
<event>
 4    1  0.4890517E-002  0.4255070E+03  0.7818608E-02  0.1035289E+00
         21   -1    0    0  501  502  0.00000000000E+00  0.00000000000E+00  0.90793932105E+03  0.90793932105E+03  0.00000000000E+00 0.  1.
         21   -1    0    0  502  503 -0.00000000000E+00 -0.00000000000E+00 -0.43351889498E+03  0.43351889498E+03  0.00000000000E+00 0.  1.
    9000007    1    1    2  501    0 -0.13732349943E+03 -0.46887890592E+02  0.73009790237E+03  0.84504388337E+03  0.40000000000E+03 0.  1.
   -9000007    1    1    2    0  503  0.13732349943E+03  0.46887890592E+02 -0.25567747630E+03  0.49641433266E+03  0.40000000000E+03 0.  1.
<mgrwt>
<rscale>  2 0.42550701E+03</rscale>
<asrwt>0</asrwt>
<pdfrwt beam="1">  1       21 0.13968297E+00 0.42550701E+03</pdfrwt>
<pdfrwt beam="2">  1       21 0.66695215E-01 0.42550701E+03</pdfrwt>
<totfact> 0.62863720E+02</totfact>
</mgrwt>
</event>
<event>
 4    1  0.4890517E-002  0.4368793E+03  0.7818608E-02  0.1031709E+00
         21   -1    0    0  503  502  0.00000000000E+00  0.00000000000E+00  0.26546141807E+03  0.26546141807E+03  0.00000000000E+00 0. -1.
         21   -1    0    0  501  503 -0.00000000000E+00 -0.00000000000E+00 -0.72128638247E+03  0.72128638247E+03  0.00000000000E+00 0.  1.
    9000007    1    1    2  501    0 -0.55038291946E+02 -0.16683609878E+03 -0.25576476032E+03  0.50624017033E+03  0.40000000000E+03 0.  1.
   -9000007    1    1    2    0  502  0.55038291946E+02  0.16683609878E+03 -0.20006020408E+03  0.48050763021E+03  0.40000000000E+03 0.  1.
<mgrwt>
<rscale>  2 0.43687927E+03</rscale>
<asrwt>0</asrwt>
<pdfrwt beam="1">  1       21 0.40840219E-01 0.43687927E+03</pdfrwt>
<pdfrwt beam="2">  1       21 0.11096713E+00 0.43687927E+03</pdfrwt>
<totfact> 0.32264890E+03</totfact>
</mgrwt>
</event>
<event>
 4    1  0.4890517E-002  0.4985131E+03  0.7818608E-02  0.1014168E+00
         21   -1    0    0  503  502  0.00000000000E+00  0.00000000000E+00  0.31874136286E+03  0.31874136286E+03  0.00000000000E+00 0.  1.
         21   -1    0    0  501  503 -0.00000000000E+00 -0.00000000000E+00 -0.11619787410E+04  0.11619787410E+04  0.00000000000E+00 0.  1.
    9000007    1    1    2  501    0 -0.22583615045E+03 -0.19368369018E+03 -0.84628418105E+03  0.98219766534E+03  0.40000000000E+03 0.  1.
   -9000007    1    1    2    0  502  0.22583615045E+03  0.19368369018E+03  0.30468029199E+01  0.49852243851E+03  0.40000000000E+03 0.  1.
<mgrwt>
<rscale>  2 0.49851313E+03</rscale>
<asrwt>0</asrwt>
<pdfrwt beam="1">  1       21 0.49037133E-01 0.49851313E+03</pdfrwt>
<pdfrwt beam="2">  1       21 0.17876596E+00 0.49851313E+03</pdfrwt>
<totfact> 0.59874569E+02</totfact>
</mgrwt>
</event>
<event>
 4    1  0.4890517E-002  0.4374284E+03  0.7818608E-02  0.1031539E+00
         21   -1    0    0  503  502  0.00000000000E+00  0.00000000000E+00  0.12152825286E+04  0.12152825286E+04  0.00000000000E+00 0.  1.
         21   -1    0    0  501  503 -0.00000000000E+00 -0.00000000000E+00 -0.17312967652E+03  0.17312967652E+03  0.00000000000E+00 0.  1.
    9000007    1    1    2  501    0  0.14593644806E+03 -0.10023039729E+03  0.31214610683E+03  0.53738140219E+03  0.40000000000E+03 0.  1.
   -9000007    1    1    2    0  502 -0.14593644806E+03  0.10023039729E+03  0.73000674523E+03  0.85103080291E+03  0.40000000000E+03 0.  1.
<mgrwt>
<rscale>  2 0.43742837E+03</rscale>
<asrwt>0</asrwt>
<pdfrwt beam="1">  1       21 0.18696654E+00 0.43742837E+03</pdfrwt>
<pdfrwt beam="2">  1       21 0.26635336E-01 0.43742837E+03</pdfrwt>
<totfact> 0.18671365E+03</totfact>
</mgrwt>
</event>
<event>
 4    1  0.4890517E-002  0.1275893E+04  0.7818608E-02  0.9048903E-01
         21   -1    0    0  501  502  0.00000000000E+00  0.00000000000E+00  0.12352952739E+04  0.12352952739E+04  0.00000000000E+00 0.  1.
         21   -1    0    0  502  503 -0.00000000000E+00 -0.00000000000E+00 -0.14195143341E+04  0.14195143341E+04  0.00000000000E+00 0. -1.
    9000007    1    1    2  501    0  0.67517950145E+03  0.10060001547E+04  0.26316987006E+03  0.13027517227E+04  0.40000000000E+03 0.  1.
   -9000007    1    1    2    0  503 -0.67517950145E+03 -0.10060001547E+04 -0.44738893030E+03  0.13520578854E+04  0.40000000000E+03 0. -1.
<mgrwt>
<rscale>  2 0.12758933E+04</rscale>
<asrwt>0</asrwt>
<pdfrwt beam="1">  1       21 0.19004543E+00 0.12758933E+04</pdfrwt>
<pdfrwt beam="2">  1       21 0.21838682E+00 0.12758933E+04</pdfrwt>
<totfact> 0.86310151E+00</totfact>
</mgrwt>
</event>
<event>
 4    1  0.4890517E-002  0.4574034E+03  0.7818608E-02  0.1025537E+00
         21   -1    0    0  503  502  0.00000000000E+00  0.00000000000E+00  0.21480130266E+04  0.21480130266E+04  0.00000000000E+00 0. -1.
         21   -1    0    0  501  503 -0.00000000000E+00 -0.00000000000E+00 -0.18337686400E+03  0.18337686400E+03  0.00000000000E+00 0. -1.
    9000007    1    1    2  501    0 -0.73976299649E+02 -0.20915391930E+03  0.18413629589E+03  0.49307608980E+03  0.40000000000E+03 0. -1.
   -9000007    1    1    2    0  502  0.73976299649E+02  0.20915391930E+03  0.17804998667E+04  0.18383138008E+04  0.40000000000E+03 0. -1.
<mgrwt>
<rscale>  2 0.45740338E+03</rscale>
<asrwt>0</asrwt>
<pdfrwt beam="1">  1       21 0.33046352E+00 0.45740338E+03</pdfrwt>
<pdfrwt beam="2">  1       21 0.28211827E-01 0.45740338E+03</pdfrwt>
<totfact> 0.21130150E+02</totfact>
</mgrwt>
</event>
<event>
 4    1  0.4890517E-002  0.4292789E+03  0.7818608E-02  0.1034088E+00
         21   -1    0    0  503  502  0.00000000000E+00  0.00000000000E+00  0.19478694416E+04  0.19478694416E+04  0.00000000000E+00 0.  1.
         21   -1    0    0  501  503 -0.00000000000E+00 -0.00000000000E+00 -0.94610380464E+02  0.94610380464E+02  0.00000000000E+00 0.  1.
    9000007    1    1    2  501    0  0.14746454998E+03  0.50344748724E+02  0.91978349502E+03  0.10150281104E+04  0.40000000000E+03 0.  1.
   -9000007    1    1    2    0  502 -0.14746454998E+03 -0.50344748724E+02  0.93347556610E+03  0.10274517116E+04  0.40000000000E+03 0.  1.
<mgrwt>
<rscale>  2 0.42927892E+03</rscale>
<asrwt>0</asrwt>
<pdfrwt beam="1">  1       21 0.29967219E+00 0.42927892E+03</pdfrwt>
<pdfrwt beam="2">  1       21 0.14555445E-01 0.42927892E+03</pdfrwt>
<totfact> 0.11632569E+03</totfact>
</mgrwt>
</event>
<event>
 4    1  0.4890517E-002  0.4388070E+03  0.7818608E-02  0.1031113E+00
         21   -1    0    0  503  502  0.00000000000E+00  0.00000000000E+00  0.21577230554E+03  0.21577230554E+03  0.00000000000E+00 0.  1.
         21   -1    0    0  501  503 -0.00000000000E+00 -0.00000000000E+00 -0.12087280543E+04  0.12087280543E+04  0.00000000000E+00 0.  1.
    9000007    1    1    2  501    0  0.10770347816E+03 -0.14474661837E+03 -0.86085283018E+03  0.96623973110E+03  0.40000000000E+03 0.  1.
   -9000007    1    1    2    0  502 -0.10770347816E+03  0.14474661837E+03 -0.13210291857E+03  0.45826062872E+03  0.40000000000E+03 0.  1.
<mgrwt>
<rscale>  2 0.43880704E+03</rscale>
<asrwt>0</asrwt>
<pdfrwt beam="1">  1       21 0.33195739E-01 0.43880704E+03</pdfrwt>
<pdfrwt beam="2">  1       21 0.18595817E+00 0.43880704E+03</pdfrwt>
<totfact> 0.12250705E+03</totfact>
</mgrwt>
</event>
<event>
 4    1  0.4890517E-002  0.5010051E+03  0.7818608E-02  0.1013517E+00
         21   -1    0    0  501  502  0.00000000000E+00  0.00000000000E+00  0.90434582959E+03  0.90434582959E+03  0.00000000000E+00 0. -1.
         21   -1    0    0  502  503 -0.00000000000E+00 -0.00000000000E+00 -0.28382094102E+03  0.28382094102E+03  0.00000000000E+00 0.  1.
    9000007    1    1    2  501    0  0.12155765400E+03  0.27609750074E+03  0.39853049410E+03  0.64018173036E+03  0.40000000000E+03 0. -1.
   -9000007    1    1    2    0  503 -0.12155765400E+03 -0.27609750074E+03  0.22199439447E+03  0.54798504025E+03  0.40000000000E+03 0.  1.
<mgrwt>
<rscale>  2 0.50100508E+03</rscale>
<asrwt>0</asrwt>
<pdfrwt beam="1">  1       21 0.13913013E+00 0.50100508E+03</pdfrwt>
<pdfrwt beam="2">  1       21 0.43664761E-01 0.50100508E+03</pdfrwt>
<totfact> 0.15348262E+03</totfact>
</mgrwt>
</event>
<event>
 4    1  0.4890517E-002  0.7316825E+03  0.7818608E-02  0.9664534E-01
         21   -1    0    0  501  502  0.00000000000E+00  0.00000000000E+00  0.43208876064E+03  0.43208876064E+03  0.00000000000E+00 0. -1.
         21   -1    0    0  502  503 -0.00000000000E+00 -0.00000000000E+00 -0.15152450524E+04  0.15152450524E+04  0.00000000000E+00 0.  1.
    9000007    1    1    2  501    0 -0.11027827797E+03  0.60265911801E+03 -0.95731047113E+03  0.12049077347E+04  0.40000000000E+03 0.  1.
   -9000007    1    1    2    0  503  0.11027827797E+03 -0.60265911801E+03 -0.12584582058E+03  0.74242607825E+03  0.40000000000E+03 0. -1.
<mgrwt>
<rscale>  2 0.73168252E+03</rscale>
<asrwt>0</asrwt>
<pdfrwt beam="1">  1       21 0.66475195E-01 0.73168252E+03</pdfrwt>
<pdfrwt beam="2">  1       21 0.23311462E+00 0.73168252E+03</pdfrwt>
<totfact> 0.12199060E+02</totfact>
</mgrwt>
</event>
<event>
 4    1  0.4890517E-002  0.4330305E+03  0.7818608E-02  0.1032907E+00
         21   -1    0    0  501  502  0.00000000000E+00  0.00000000000E+00  0.39162064267E+03  0.39162064267E+03  0.00000000000E+00 0. -1.
         21   -1    0    0  502  503 -0.00000000000E+00 -0.00000000000E+00 -0.77841566433E+03  0.77841566433E+03  0.00000000000E+00 0. -1.
    9000007    1    1    2  501    0  0.14546882778E+03  0.79713639056E+02  0.16954009738E+03  0.46503686814E+03  0.40000000000E+03 0. -1.
   -9000007    1    1    2    0  503 -0.14546882778E+03 -0.79713639056E+02 -0.55633511904E+03  0.70499943886E+03  0.40000000000E+03 0. -1.
<mgrwt>
<rscale>  2 0.43303053E+03</rscale>
<asrwt>0</asrwt>
<pdfrwt beam="1">  1       21 0.60249331E-01 0.43303053E+03</pdfrwt>
<pdfrwt beam="2">  1       21 0.11975625E+00 0.43303053E+03</pdfrwt>
<totfact> 0.11687055E+03</totfact>
</mgrwt>
</event>
<event>
 4    1  0.4890517E-002  0.4635765E+03  0.7818608E-02  0.1023749E+00
         21   -1    0    0  501  502  0.00000000000E+00  0.00000000000E+00  0.39615614795E+03  0.39615614795E+03  0.00000000000E+00 0. -1.
         21   -1    0    0  502  503 -0.00000000000E+00 -0.00000000000E+00 -0.66332742082E+03  0.66332742082E+03  0.00000000000E+00 0. -1.
    9000007    1    1    2  501    0 -0.23188081109E+03  0.33681507396E+02  0.92532513732E+02  0.47272129272E+03  0.40000000000E+03 0. -1.
   -9000007    1    1    2    0  503  0.23188081109E+03 -0.33681507396E+02 -0.35970378660E+03  0.58676227604E+03  0.40000000000E+03 0. -1.
<mgrwt>
<rscale>  2 0.46357648E+03</rscale>
<asrwt>0</asrwt>
<pdfrwt beam="1">  1       21 0.60947100E-01 0.46357648E+03</pdfrwt>
<pdfrwt beam="2">  1       21 0.10205037E+00 0.46357648E+03</pdfrwt>
<totfact> 0.16753528E+03</totfact>
</mgrwt>
</event>
<event>
 4    1  0.4890517E-002  0.4899892E+03  0.7818608E-02  0.1016425E+00
         21   -1    0    0  501  502  0.00000000000E+00  0.00000000000E+00  0.47378508469E+03  0.47378508469E+03  0.00000000000E+00 0. -1.
         21   -1    0    0  502  503 -0.00000000000E+00 -0.00000000000E+00 -0.95040633305E+03  0.95040633305E+03  0.00000000000E+00 0. -1.
    9000007    1    1    2  501    0  0.16441681829E+03 -0.23033999493E+03  0.24821786747E+03  0.54927362319E+03  0.40000000000E+03 0. -1.
   -9000007    1    1    2    0  503 -0.16441681829E+03  0.23033999493E+03 -0.72483911583E+03  0.87491779456E+03  0.40000000000E+03 0. -1.
<mgrwt>
<rscale>  2 0.48998919E+03</rscale>
<asrwt>0</asrwt>
<pdfrwt beam="1">  1       21 0.72890014E-01 0.48998919E+03</pdfrwt>
<pdfrwt beam="2">  1       21 0.14621636E+00 0.48998919E+03</pdfrwt>
<totfact> 0.44229888E+02</totfact>
</mgrwt>
</event>
<event>
 4    1  0.4890517E-002  0.4312095E+03  0.7818608E-02  0.1033479E+00
         21   -1    0    0  501  502  0.00000000000E+00  0.00000000000E+00  0.11443109908E+04  0.11443109908E+04  0.00000000000E+00 0. -1.
         21   -1    0    0  502  503 -0.00000000000E+00 -0.00000000000E+00 -0.25603664011E+03  0.25603664011E+03  0.00000000000E+00 0. -1.
    9000007    1    1    2  501    0 -0.16103120458E+03  0.32478942552E+01  0.86735487406E+03  0.96863103152E+03  0.40000000000E+03 0.  1.
   -9000007    1    1    2    0  503  0.16103120458E+03 -0.32478942552E+01  0.20919476609E+02  0.43171659936E+03  0.40000000000E+03 0.  1.
<mgrwt>
<rscale>  2 0.43120946E+03</rscale>
<asrwt>0</asrwt>
<pdfrwt beam="1">  1       21 0.17604784E+00 0.43120946E+03</pdfrwt>
<pdfrwt beam="2">  1       21 0.39390253E-01 0.43120946E+03</pdfrwt>
<totfact> 0.10193899E+03</totfact>
</mgrwt>
</event>
<event>
 4    1  0.4890517E-002  0.4237133E+03  0.7818608E-02  0.1035865E+00
         21   -1    0    0  501  502  0.00000000000E+00  0.00000000000E+00  0.60589608641E+03  0.60589608641E+03  0.00000000000E+00 0.  1.
         21   -1    0    0  502  503 -0.00000000000E+00 -0.00000000000E+00 -0.29635218417E+03  0.29635218417E+03  0.00000000000E+00 0.  1.
    9000007    1    1    2  501    0 -0.10414615019E+03  0.93201528125E+02  0.14937663347E+03  0.44927310633E+03  0.40000000000E+03 0.  1.
   -9000007    1    1    2    0  503  0.10414615019E+03 -0.93201528125E+02  0.16016726876E+03  0.45297516425E+03  0.40000000000E+03 0.  1.
<mgrwt>
<rscale>  2 0.42371328E+03</rscale>
<asrwt>0</asrwt>
<pdfrwt beam="1">  1       21 0.93214782E-01 0.42371328E+03</pdfrwt>
<pdfrwt beam="2">  1       21 0.45592644E-01 0.42371328E+03</pdfrwt>
<totfact> 0.39429241E+03</totfact>
</mgrwt>
</event>
<event>
 4    1  0.4890517E-002  0.5191767E+03  0.7818608E-02  0.1008891E+00
         21   -1    0    0  501  502  0.00000000000E+00  0.00000000000E+00  0.11075410074E+04  0.11075410074E+04  0.00000000000E+00 0. -1.
         21   -1    0    0  502  503 -0.00000000000E+00 -0.00000000000E+00 -0.25150735828E+03  0.25150735828E+03  0.00000000000E+00 0.  1.
    9000007    1    1    2  501    0 -0.10976111353E+03 -0.31224497734E+03  0.55023025274E+03  0.75650364107E+03  0.40000000000E+03 0. -1.
   -9000007    1    1    2    0  503  0.10976111353E+03  0.31224497734E+03  0.30580339638E+03  0.60254472461E+03  0.40000000000E+03 0.  1.
<mgrwt>
<rscale>  2 0.51917668E+03</rscale>
<asrwt>0</asrwt>
<pdfrwt beam="1">  1       21 0.17039092E+00 0.51917668E+03</pdfrwt>
<pdfrwt beam="2">  1       21 0.38693440E-01 0.51917668E+03</pdfrwt>
<totfact> 0.11199782E+03</totfact>
</mgrwt>
</event>
<event>
 4    1  0.4890517E-002  0.5881884E+03  0.7818608E-02  0.9930219E-01
         21   -1    0    0  503  502  0.00000000000E+00  0.00000000000E+00  0.54814426234E+03  0.54814426234E+03  0.00000000000E+00 0.  1.
         21   -1    0    0  501  503 -0.00000000000E+00 -0.00000000000E+00 -0.63876077792E+03  0.63876077792E+03  0.00000000000E+00 0. -1.
    9000007    1    1    2  501    0 -0.11094553050E+03  0.41672138974E+03 -0.11005284630E+03  0.59839556849E+03  0.40000000000E+03 0. -1.
   -9000007    1    1    2    0  502  0.11094553050E+03 -0.41672138974E+03  0.19436330718E+02  0.58850947177E+03  0.40000000000E+03 0. -1.
<mgrwt>
<rscale>  2 0.58818843E+03</rscale>
<asrwt>0</asrwt>
<pdfrwt beam="1">  1       21 0.84329886E-01 0.58818843E+03</pdfrwt>
<pdfrwt beam="2">  1       21 0.98270889E-01 0.58818843E+03</pdfrwt>
<totfact> 0.84179716E+02</totfact>
</mgrwt>
</event>
<event>
 4    1  0.4890517E-002  0.4593288E+03  0.7818608E-02  0.1024976E+00
         21   -1    0    0  501  502  0.00000000000E+00  0.00000000000E+00  0.14355042620E+03  0.14355042620E+03  0.00000000000E+00 0.  1.
         21   -1    0    0  502  503 -0.00000000000E+00 -0.00000000000E+00 -0.14822195321E+04  0.14822195321E+04  0.00000000000E+00 0. -1.
    9000007    1    1    2  501    0  0.18085924686E+03  0.13517725170E+03 -0.59477004393E+03  0.75148809818E+03  0.40000000000E+03 0. -1.
   -9000007    1    1    2    0  503 -0.18085924686E+03 -0.13517725170E+03 -0.74389906198E+03  0.87428186014E+03  0.40000000000E+03 0. -1.
<mgrwt>
<rscale>  2 0.45932881E+03</rscale>
<asrwt>0</asrwt>
<pdfrwt beam="1">  1       21 0.22084680E-01 0.45932881E+03</pdfrwt>
<pdfrwt beam="2">  1       21 0.22803378E+00 0.45932881E+03</pdfrwt>
<totfact> 0.14287215E+03</totfact>
</mgrwt>
</event>
<event>
 4    1  0.4890517E-002  0.5405143E+03  0.7818608E-02  0.1003714E+00
         21   -1    0    0  501  502  0.00000000000E+00  0.00000000000E+00  0.13403606613E+04  0.13403606613E+04  0.00000000000E+00 0.  1.
         21   -1    0    0  502  503 -0.00000000000E+00 -0.00000000000E+00 -0.27647164093E+03  0.27647164093E+03  0.00000000000E+00 0.  1.
    9000007    1    1    2  501    0 -0.46225911456E+02  0.36058124320E+03  0.90382321815E+03  0.10531154151E+04  0.40000000000E+03 0.  1.
   -9000007    1    1    2    0  503  0.46225911456E+02 -0.36058124320E+03  0.16006580227E+03  0.56371688718E+03  0.40000000000E+03 0.  1.
<mgrwt>
<rscale>  2 0.54051426E+03</rscale>
<asrwt>0</asrwt>
<pdfrwt beam="1">  1       21 0.20620933E+00 0.54051426E+03</pdfrwt>
<pdfrwt beam="2">  1       21 0.42534100E-01 0.54051426E+03</pdfrwt>
<totfact> 0.51527157E+02</totfact>
</mgrwt>
</event>
<event>
 4    1  0.4890517E-002  0.4260640E+03  0.7818608E-02  0.1035111E+00
         21   -1    0    0  503  502  0.00000000000E+00  0.00000000000E+00  0.85613364050E+03  0.85613364050E+03  0.00000000000E+00 0. -1.
         21   -1    0    0  501  503 -0.00000000000E+00 -0.00000000000E+00 -0.46465812585E+03  0.46465812585E+03  0.00000000000E+00 0. -1.
    9000007    1    1    2  501    0 -0.12963446347E+03 -0.68742044634E+02 -0.29120047398E+03  0.51607003291E+03  0.40000000000E+03 0. -1.
   -9000007    1    1    2    0  502  0.12963446347E+03  0.68742044634E+02  0.68267598863E+03  0.80472173344E+03  0.40000000000E+03 0. -1.
<mgrwt>
<rscale>  2 0.42606404E+03</rscale>
<asrwt>0</asrwt>
<pdfrwt beam="1">  1       21 0.13171287E+00 0.42606404E+03</pdfrwt>
<pdfrwt beam="2">  1       21 0.71485866E-01 0.42606404E+03</pdfrwt>
<totfact> 0.62752913E+02</totfact>
</mgrwt>
</event>
<event>
 4    1  0.4890517E-002  0.5687314E+03  0.7818608E-02  0.9972490E-01
         21   -1    0    0  503  502  0.00000000000E+00  0.00000000000E+00  0.51964646839E+03  0.51964646839E+03  0.00000000000E+00 0. -1.
         21   -1    0    0  501  503 -0.00000000000E+00 -0.00000000000E+00 -0.12306845070E+04  0.12306845070E+04  0.00000000000E+00 0. -1.
    9000007    1    1    2  501    0  0.40268630362E+03  0.36042915689E+02 -0.97076867238E+03  0.11250987362E+04  0.40000000000E+03 0. -1.
   -9000007    1    1    2    0  502 -0.40268630362E+03 -0.36042915689E+02  0.25973063373E+03  0.62523223924E+03  0.40000000000E+03 0. -1.
<mgrwt>
<rscale>  2 0.56873135E+03</rscale>
<asrwt>0</asrwt>
<pdfrwt beam="1">  1       21 0.79945612E-01 0.56873135E+03</pdfrwt>
<pdfrwt beam="2">  1       21 0.18933607E+00 0.56873135E+03</pdfrwt>
<totfact> 0.16578252E+02</totfact>
</mgrwt>
</event>
<event>
 4    1  0.4890517E-002  0.4301594E+03  0.7818608E-02  0.1033810E+00
         21   -1    0    0  503  502  0.00000000000E+00  0.00000000000E+00  0.40179831789E+03  0.40179831789E+03  0.00000000000E+00 0.  1.
         21   -1    0    0  501  503 -0.00000000000E+00 -0.00000000000E+00 -0.46451649453E+03  0.46451649453E+03  0.00000000000E+00 0.  1.
    9000007    1    1    2  501    0  0.27153641962E+02 -0.15588385256E+03 -0.71525070531E+02  0.43606528350E+03  0.40000000000E+03 0.  1.
   -9000007    1    1    2    0  502 -0.27153641962E+02  0.15588385256E+03  0.88068938944E+01  0.43024952893E+03  0.40000000000E+03 0.  1.
<mgrwt>
<rscale>  2 0.43015938E+03</rscale>
<asrwt>0</asrwt>
<pdfrwt beam="1">  1       21 0.61815126E-01 0.43015938E+03</pdfrwt>
<pdfrwt beam="2">  1       21 0.71464076E-01 0.43015938E+03</pdfrwt>
<totfact> 0.37900633E+03</totfact>
</mgrwt>
</event>
<event>
 4    1  0.4890517E-002  0.4381762E+03  0.7818608E-02  0.1031308E+00
         21   -1    0    0  503  502  0.00000000000E+00  0.00000000000E+00  0.40502043441E+03  0.40502043441E+03  0.00000000000E+00 0. -1.
         21   -1    0    0  501  503 -0.00000000000E+00 -0.00000000000E+00 -0.51054825133E+03  0.51054825133E+03  0.00000000000E+00 0.  1.
    9000007    1    1    2  501    0  0.17255683558E+02 -0.17804661403E+03 -0.17516965245E+03  0.47189274472E+03  0.40000000000E+03 0.  1.
   -9000007    1    1    2    0  502 -0.17255683558E+02  0.17804661403E+03  0.69641835522E+02  0.44367594102E+03  0.40000000000E+03 0. -1.
<mgrwt>
<rscale>  2 0.43817617E+03</rscale>
<asrwt>0</asrwt>
<pdfrwt beam="1">  1       21 0.62310836E-01 0.43817617E+03</pdfrwt>
<pdfrwt beam="2">  1       21 0.78545885E-01 0.43817617E+03</pdfrwt>
<totfact> 0.29938837E+03</totfact>
</mgrwt>
</event>
<event>
 4    1  0.4890517E-002  0.4617507E+03  0.7818608E-02  0.1024275E+00
         21   -1    0    0  503  502  0.00000000000E+00  0.00000000000E+00  0.84127456073E+03  0.84127456073E+03  0.00000000000E+00 0.  1.
         21   -1    0    0  501  503 -0.00000000000E+00 -0.00000000000E+00 -0.31767733318E+03  0.31767733318E+03  0.00000000000E+00 0.  1.
    9000007    1    1    2  501    0 -0.22231100392E+03  0.61575501615E+02  0.12242834321E+01  0.46175234026E+03  0.40000000000E+03 0.  1.
   -9000007    1    1    2    0  502  0.22231100392E+03 -0.61575501615E+02  0.52237294412E+03  0.69719955365E+03  0.40000000000E+03 0.  1.
<mgrwt>
<rscale>  2 0.46175072E+03</rscale>
<asrwt>0</asrwt>
<pdfrwt beam="1">  1       21 0.12942685E+00 0.46175072E+03</pdfrwt>
<pdfrwt beam="2">  1       21 0.48873436E-01 0.46175072E+03</pdfrwt>
<totfact> 0.14852841E+03</totfact>
</mgrwt>
</event>
<event>
 4    1  0.4890517E-002  0.4132986E+03  0.7818608E-02  0.1039270E+00
         21   -1    0    0  501  502  0.00000000000E+00  0.00000000000E+00  0.10561338027E+03  0.10561338027E+03  0.00000000000E+00 0.  1.
         21   -1    0    0  502  503 -0.00000000000E+00 -0.00000000000E+00 -0.16325551515E+04  0.16325551515E+04  0.00000000000E+00 0.  1.
    9000007    1    1    2  501    0  0.18421033210E+02  0.10235425827E+03 -0.84729374270E+03  0.94272075137E+03  0.40000000000E+03 0.  1.
   -9000007    1    1    2    0  503 -0.18421033210E+02 -0.10235425827E+03 -0.67964802854E+03  0.79544778041E+03  0.40000000000E+03 0.  1.
<mgrwt>
<rscale>  2 0.41329860E+03</rscale>
<asrwt>0</asrwt>
<pdfrwt beam="1">  1       21 0.16248214E-01 0.41329860E+03</pdfrwt>
<pdfrwt beam="2">  1       21 0.25116231E+00 0.41329860E+03</pdfrwt>
<totfact> 0.18759940E+03</totfact>
</mgrwt>
</event>
<event>
 4    1  0.4890517E-002  0.4470407E+03  0.7818608E-02  0.1028608E+00
         21   -1    0    0  501  502  0.00000000000E+00  0.00000000000E+00  0.94812505156E+03  0.94812505156E+03  0.00000000000E+00 0.  1.
         21   -1    0    0  502  503 -0.00000000000E+00 -0.00000000000E+00 -0.21638055999E+03  0.21638055999E+03  0.00000000000E+00 0.  1.
    9000007    1    1    2  501    0  0.19773153482E+03 -0.27342102840E+02  0.45955000907E+03  0.64111743175E+03  0.40000000000E+03 0.  1.
   -9000007    1    1    2    0  503 -0.19773153482E+03  0.27342102840E+02  0.27219448250E+03  0.52338817980E+03  0.40000000000E+03 0.  1.
<mgrwt>
<rscale>  2 0.44704066E+03</rscale>
<asrwt>0</asrwt>
<pdfrwt beam="1">  1       21 0.14586539E+00 0.44704066E+03</pdfrwt>
<pdfrwt beam="2">  1       21 0.33289317E-01 0.44704066E+03</pdfrwt>
<totfact> 0.24060653E+03</totfact>
</mgrwt>
</event>
<event>
 4    1  0.4890517E-002  0.6177773E+03  0.7818608E-02  0.9869195E-01
         21   -1    0    0  503  502  0.00000000000E+00  0.00000000000E+00  0.58606130884E+03  0.58606130884E+03  0.00000000000E+00 0.  1.
         21   -1    0    0  501  503 -0.00000000000E+00 -0.00000000000E+00 -0.85859202017E+03  0.85859202017E+03  0.00000000000E+00 0. -1.
    9000007    1    1    2  501    0 -0.55311698786E+02  0.46753542108E+03 -0.49126358438E+03  0.78929630895E+03  0.40000000000E+03 0. -1.
   -9000007    1    1    2    0  502  0.55311698786E+02 -0.46753542108E+03  0.21873287305E+03  0.65535702006E+03  0.40000000000E+03 0.  1.
<mgrwt>
<rscale>  2 0.61777727E+03</rscale>
<asrwt>0</asrwt>
<pdfrwt beam="1">  1       21 0.90163279E-01 0.61777727E+03</pdfrwt>
<pdfrwt beam="2">  1       21 0.13209108E+00 0.61777727E+03</pdfrwt>
<totfact> 0.33678430E+02</totfact>
</mgrwt>
</event>
<event>
 4    1  0.4890517E-002  0.5766926E+03  0.7818608E-02  0.9954977E-01
         21   -1    0    0  503  502  0.00000000000E+00  0.00000000000E+00  0.27045844401E+03  0.27045844401E+03  0.00000000000E+00 0. -1.
         21   -1    0    0  501  503 -0.00000000000E+00 -0.00000000000E+00 -0.13085379839E+04  0.13085379839E+04  0.00000000000E+00 0.  1.
    9000007    1    1    2  501    0 -0.30764465053E+03  0.27915782617E+03 -0.32521399453E+03  0.66207134446E+03  0.40000000000E+03 0. -1.
   -9000007    1    1    2    0  502  0.30764465053E+03 -0.27915782617E+03 -0.71286554538E+03  0.91692508348E+03  0.40000000000E+03 0.  1.
<mgrwt>
<rscale>  2 0.57669257E+03</rscale>
<asrwt>0</asrwt>
<pdfrwt beam="1">  1       21 0.41608992E-01 0.57669257E+03</pdfrwt>
<pdfrwt beam="2">  1       21 0.20131353E+00 0.57669257E+03</pdfrwt>
<totfact> 0.57340811E+02</totfact>
</mgrwt>
</event>
<event>
 4    1  0.4890517E-002  0.4375842E+03  0.7818608E-02  0.1031491E+00
         21   -1    0    0  503  502  0.00000000000E+00  0.00000000000E+00  0.11315339305E+04  0.11315339305E+04  0.00000000000E+00 0.  1.
         21   -1    0    0  501  503 -0.00000000000E+00 -0.00000000000E+00 -0.57512635676E+03  0.57512635676E+03  0.00000000000E+00 0.  1.
    9000007    1    1    2  501    0 -0.46248552842E+02 -0.17129221011E+03 -0.43867798461E+03  0.61961142990E+03  0.40000000000E+03 0.  1.
   -9000007    1    1    2    0  502  0.46248552842E+02  0.17129221011E+03  0.99508555837E+03  0.10870488574E+04  0.40000000000E+03 0.  1.
<mgrwt>
<rscale>  2 0.43758422E+03</rscale>
<asrwt>0</asrwt>
<pdfrwt beam="1">  1       21 0.17408214E+00 0.43758422E+03</pdfrwt>
<pdfrwt beam="2">  1       21 0.88480978E-01 0.43758422E+03</pdfrwt>
<totfact> 0.17824662E+02</totfact>
</mgrwt>
</event>
<event>
 4    1  0.4890517E-002  0.4253982E+03  0.7818608E-02  0.1035324E+00
         21   -1    0    0  503  502  0.00000000000E+00  0.00000000000E+00  0.13576324264E+04  0.13576324264E+04  0.00000000000E+00 0.  1.
         21   -1    0    0  501  503 -0.00000000000E+00 -0.00000000000E+00 -0.13693187638E+03  0.13693187638E+03  0.00000000000E+00 0.  1.
    9000007    1    1    2  501    0  0.83480828792E+02  0.11829864018E+03  0.73216068852E+03  0.84677204185E+03  0.40000000000E+03 0. -1.
   -9000007    1    1    2    0  502 -0.83480828792E+02 -0.11829864018E+03  0.48853986149E+03  0.64779226092E+03  0.40000000000E+03 0. -1.
<mgrwt>
<rscale>  2 0.42539819E+03</rscale>
<asrwt>0</asrwt>
<pdfrwt beam="1">  1       21 0.20886652E+00 0.42539819E+03</pdfrwt>
<pdfrwt beam="2">  1       21 0.21066443E-01 0.42539819E+03</pdfrwt>
<totfact> 0.21077964E+03</totfact>
</mgrwt>
</event>
<event>
 4    1  0.4890517E-002  0.4582197E+03  0.7818608E-02  0.1025299E+00
         21   -1    0    0  501  502  0.00000000000E+00  0.00000000000E+00  0.15765719149E+04  0.15765719149E+04  0.00000000000E+00 0.  1.
         21   -1    0    0  502  503 -0.00000000000E+00 -0.00000000000E+00 -0.20150890809E+03  0.20150890809E+03  0.00000000000E+00 0.  1.
    9000007    1    1    2  501    0  0.16638901338E+03 -0.14926497627E+03  0.16982731485E+03  0.48867847690E+03  0.40000000000E+03 0.  1.
   -9000007    1    1    2    0  503 -0.16638901338E+03  0.14926497627E+03  0.12052356919E+04  0.12894023460E+04  0.40000000000E+03 0.  1.
<mgrwt>
<rscale>  2 0.45821975E+03</rscale>
<asrwt>0</asrwt>
<pdfrwt beam="1">  1       21 0.24254952E+00 0.45821975E+03</pdfrwt>
<pdfrwt beam="2">  1       21 0.31001371E-01 0.45821975E+03</pdfrwt>
<totfact> 0.59717301E+02</totfact>
</mgrwt>
</event>
<event>
 4    1  0.4890517E-002  0.4579894E+03  0.7818608E-02  0.1025366E+00
         21   -1    0    0  503  502  0.00000000000E+00  0.00000000000E+00  0.17444205009E+04  0.17444205009E+04  0.00000000000E+00 0. -1.
         21   -1    0    0  501  503 -0.00000000000E+00 -0.00000000000E+00 -0.12907922500E+03  0.12907922500E+03  0.00000000000E+00 0.  1.
    9000007    1    1    2  501    0 -0.28597809727E+01  0.22303840253E+03  0.10527628480E+04  0.11480696501E+04  0.40000000000E+03 0. -1.
   -9000007    1    1    2    0  502  0.28597809727E+01 -0.22303840253E+03  0.56257842799E+03  0.72543007588E+03  0.40000000000E+03 0.  1.
<mgrwt>
<rscale>  2 0.45798942E+03</rscale>
<asrwt>0</asrwt>
<pdfrwt beam="1">  1       21 0.26837237E+00 0.45798942E+03</pdfrwt>
<pdfrwt beam="2">  1       21 0.19858344E-01 0.45798942E+03</pdfrwt>
<totfact> 0.98775088E+02</totfact>
</mgrwt>
</event>
<event>
 4    1  0.4890517E-002  0.4224086E+03  0.7818608E-02  0.1036285E+00
         21   -1    0    0  501  502  0.00000000000E+00  0.00000000000E+00  0.33483028426E+03  0.33483028426E+03  0.00000000000E+00 0.  1.
         21   -1    0    0  502  503 -0.00000000000E+00 -0.00000000000E+00 -0.77892910949E+03  0.77892910949E+03  0.00000000000E+00 0. -1.
    9000007    1    1    2  501    0 -0.13438979539E+03 -0.19195051684E+02  0.90926499455E+02  0.43208413002E+03  0.40000000000E+03 0.  1.
   -9000007    1    1    2    0  503  0.13438979539E+03  0.19195051684E+02 -0.53502532469E+03  0.68167526372E+03  0.40000000000E+03 0. -1.
<mgrwt>
<rscale>  2 0.42240865E+03</rscale>
<asrwt>0</asrwt>
<pdfrwt beam="1">  1       21 0.51512353E-01 0.42240865E+03</pdfrwt>
<pdfrwt beam="2">  1       21 0.11983524E+00 0.42240865E+03</pdfrwt>
<totfact> 0.16443745E+03</totfact>
</mgrwt>
</event>
<event>
 4    1  0.4890517E-002  0.5986654E+03  0.7818608E-02  0.9908179E-01
         21   -1    0    0  503  502  0.00000000000E+00  0.00000000000E+00  0.31973403469E+03  0.31973403469E+03  0.00000000000E+00 0. -1.
         21   -1    0    0  501  503 -0.00000000000E+00 -0.00000000000E+00 -0.19624295144E+04  0.19624295144E+04  0.00000000000E+00 0.  1.
    9000007    1    1    2  501    0 -0.35549010912E+03  0.26837849930E+03 -0.15685635506E+04  0.16789258020E+04  0.40000000000E+03 0.  1.
   -9000007    1    1    2    0  502  0.35549010912E+03 -0.26837849930E+03 -0.74131929154E+02  0.60323774707E+03  0.40000000000E+03 0. -1.
<mgrwt>
<rscale>  2 0.59866538E+03</rscale>
<asrwt>0</asrwt>
<pdfrwt beam="1">  1       21 0.49189850E-01 0.59866538E+03</pdfrwt>
<pdfrwt beam="2">  1       21 0.30191224E+00 0.59866538E+03</pdfrwt>
<totfact> 0.93372797E+01</totfact>
</mgrwt>
</event>
<event>
 4    1  0.4890517E-002  0.4192375E+03  0.7818608E-02  0.1037315E+00
         21   -1    0    0  501  502  0.00000000000E+00  0.00000000000E+00  0.11585194567E+03  0.11585194567E+03  0.00000000000E+00 0. -1.
         21   -1    0    0  502  503 -0.00000000000E+00 -0.00000000000E+00 -0.15765277998E+04  0.15765277998E+04  0.00000000000E+00 0.  1.
    9000007    1    1    2  501    0 -0.82426415539E+02  0.94688812176E+02 -0.56606076655E+03  0.70440391577E+03  0.40000000000E+03 0. -1.
   -9000007    1    1    2    0  503  0.82426415539E+02 -0.94688812176E+02 -0.89461508761E+03  0.98797582972E+03  0.40000000000E+03 0.  1.
<mgrwt>
<rscale>  2 0.41923750E+03</rscale>
<asrwt>0</asrwt>
<pdfrwt beam="1">  1       21 0.17823375E-01 0.41923750E+03</pdfrwt>
<pdfrwt beam="2">  1       21 0.24254276E+00 0.41923750E+03</pdfrwt>
<totfact> 0.17768238E+03</totfact>
</mgrwt>
</event>
<event>
 4    1  0.4890517E-002  0.4607200E+03  0.7818608E-02  0.1024573E+00
         21   -1    0    0  501  502  0.00000000000E+00  0.00000000000E+00  0.85362228107E+03  0.85362228107E+03  0.00000000000E+00 0.  1.
         21   -1    0    0  502  503 -0.00000000000E+00 -0.00000000000E+00 -0.29848855801E+03  0.29848855801E+03  0.00000000000E+00 0.  1.
    9000007    1    1    2  501    0  0.22801387594E+03  0.16509498807E+02  0.51292736538E+03  0.68946165472E+03  0.40000000000E+03 0.  1.
   -9000007    1    1    2    0  503 -0.22801387594E+03 -0.16509498807E+02  0.42206357679E+02  0.46264918437E+03  0.40000000000E+03 0.  1.
<mgrwt>
<rscale>  2 0.46071997E+03</rscale>
<asrwt>0</asrwt>
<pdfrwt beam="1">  1       21 0.13132650E+00 0.46071997E+03</pdfrwt>
<pdfrwt beam="2">  1       21 0.45921317E-01 0.46071997E+03</pdfrwt>
<totfact> 0.16318427E+03</totfact>
</mgrwt>
</event>
<event>
 4    1  0.4890517E-002  0.5895796E+03  0.7818608E-02  0.9927264E-01
         21   -1    0    0  501  502  0.00000000000E+00  0.00000000000E+00  0.28862528082E+03  0.28862528082E+03  0.00000000000E+00 0. -1.
         21   -1    0    0  502  503 -0.00000000000E+00 -0.00000000000E+00 -0.12066994449E+04  0.12066994449E+04  0.00000000000E+00 0.  1.
    9000007    1    1    2  501    0  0.90212900071E+02  0.42363395330E+03 -0.49207042244E+03  0.76794361406E+03  0.40000000000E+03 0.  1.
   -9000007    1    1    2    0  503 -0.90212900071E+02 -0.42363395330E+03 -0.42600374169E+03  0.72738111170E+03  0.40000000000E+03 0. -1.
<mgrwt>
<rscale>  2 0.58957959E+03</rscale>
<asrwt>0</asrwt>
<pdfrwt beam="1">  1       21 0.44403889E-01 0.58957959E+03</pdfrwt>
<pdfrwt beam="2">  1       21 0.18564607E+00 0.58957959E+03</pdfrwt>
<totfact> 0.63782066E+02</totfact>
</mgrwt>
</event>
<event>
 4    1  0.4890517E-002  0.4243422E+03  0.7818608E-02  0.1035662E+00
         21   -1    0    0  503  502  0.00000000000E+00  0.00000000000E+00  0.10839001843E+04  0.10839001843E+04  0.00000000000E+00 0.  1.
         21   -1    0    0  501  503 -0.00000000000E+00 -0.00000000000E+00 -0.16621421323E+03  0.16621421323E+03  0.00000000000E+00 0.  1.
    9000007    1    1    2  501    0 -0.88499226488E+02 -0.11060829128E+03  0.47306801622E+03  0.63549953199E+03  0.40000000000E+03 0. -1.
   -9000007    1    1    2    0  502  0.88499226488E+02  0.11060829128E+03  0.44461795488E+03  0.61461486558E+03  0.40000000000E+03 0. -1.
<mgrwt>
<rscale>  2 0.42434221E+03</rscale>
<asrwt>0</asrwt>
<pdfrwt beam="1">  1       21 0.16675387E+00 0.42434221E+03</pdfrwt>
<pdfrwt beam="2">  1       21 0.25571418E-01 0.42434221E+03</pdfrwt>
<totfact> 0.28304985E+03</totfact>
</mgrwt>
</event>
<event>
 4    1  0.4890517E-002  0.5339066E+03  0.7818608E-02  0.1005289E+00
         21   -1    0    0  501  502  0.00000000000E+00  0.00000000000E+00  0.31576095000E+04  0.31576095000E+04  0.00000000000E+00 0.  1.
         21   -1    0    0  502  503 -0.00000000000E+00 -0.00000000000E+00 -0.97540857288E+02  0.97540857288E+02  0.00000000000E+00 0.  1.
    9000007    1    1    2  501    0  0.27244790712E+03  0.22545153384E+03  0.19742176506E+04  0.20451385254E+04  0.40000000000E+03 0.  1.
   -9000007    1    1    2    0  503 -0.27244790712E+03 -0.22545153384E+03  0.10858509922E+04  0.12100118319E+04  0.40000000000E+03 0.  1.
<mgrwt>
<rscale>  2 0.53390660E+03</rscale>
<asrwt>0</asrwt>
<pdfrwt beam="1">  1       21 0.48578600E+00 0.53390660E+03</pdfrwt>
<pdfrwt beam="2">  1       21 0.15006288E-01 0.53390660E+03</pdfrwt>
<totfact> 0.65717728E+01</totfact>
</mgrwt>
</event>
<event>
 4    1  0.4890517E-002  0.4536671E+03  0.7818608E-02  0.1026634E+00
         21   -1    0    0  503  502  0.00000000000E+00  0.00000000000E+00  0.59894454399E+03  0.59894454399E+03  0.00000000000E+00 0. -1.
         21   -1    0    0  501  503 -0.00000000000E+00 -0.00000000000E+00 -0.35906101347E+03  0.35906101347E+03  0.00000000000E+00 0.  1.
    9000007    1    1    2  501    0  0.10470034245E+03  0.18668612324E+03  0.20633581273E+02  0.45413611946E+03  0.40000000000E+03 0. -1.
   -9000007    1    1    2    0  502 -0.10470034245E+03 -0.18668612324E+03  0.21924994925E+03  0.50386943801E+03  0.40000000000E+03 0.  1.
<mgrwt>
<rscale>  2 0.45366714E+03</rscale>
<asrwt>0</asrwt>
<pdfrwt beam="1">  1       21 0.92145315E-01 0.45366714E+03</pdfrwt>
<pdfrwt beam="2">  1       21 0.55240156E-01 0.45366714E+03</pdfrwt>
<totfact> 0.26650492E+03</totfact>
</mgrwt>
</event>
<event>
 4    1  0.4890517E-002  0.6717242E+03  0.7818608E-02  0.9766848E-01
         21   -1    0    0  501  502  0.00000000000E+00  0.00000000000E+00  0.14659111414E+04  0.14659111414E+04  0.00000000000E+00 0.  1.
         21   -1    0    0  502  503 -0.00000000000E+00 -0.00000000000E+00 -0.34833150904E+03  0.34833150904E+03  0.00000000000E+00 0.  1.
    9000007    1    1    2  501    0  0.48859130877E+03  0.22911129769E+03  0.86820629336E+03  0.10977229257E+04  0.40000000000E+03 0.  1.
   -9000007    1    1    2    0  503 -0.48859130877E+03 -0.22911129769E+03  0.24937333898E+03  0.71651972473E+03  0.40000000000E+03 0.  1.
<mgrwt>
<rscale>  2 0.67172424E+03</rscale>
<asrwt>0</asrwt>
<pdfrwt beam="1">  1       21 0.22552479E+00 0.67172424E+03</pdfrwt>
<pdfrwt beam="2">  1       21 0.53589464E-01 0.67172424E+03</pdfrwt>
<totfact> 0.22442106E+02</totfact>
</mgrwt>
</event>
<event>
 4    1  0.4890517E-002  0.4480032E+03  0.7818608E-02  0.1028319E+00
         21   -1    0    0  503  502  0.00000000000E+00  0.00000000000E+00  0.13731474836E+03  0.13731474836E+03  0.00000000000E+00 0.  1.
         21   -1    0    0  501  503 -0.00000000000E+00 -0.00000000000E+00 -0.28273295997E+04  0.28273295997E+04  0.00000000000E+00 0.  1.
    9000007    1    1    2  501    0  0.20145789029E+03 -0.11028199831E+02 -0.23752224259E+04  0.24171033233E+04  0.40000000000E+03 0.  1.
   -9000007    1    1    2    0  502 -0.20145789029E+03  0.11028199831E+02 -0.31479242547E+03  0.54754102484E+03  0.40000000000E+03 0.  1.
<mgrwt>
<rscale>  2 0.44800324E+03</rscale>
<asrwt>0</asrwt>
<pdfrwt beam="1">  1       21 0.21125346E-01 0.44800324E+03</pdfrwt>
<pdfrwt beam="2">  1       21 0.43497378E+00 0.44800324E+03</pdfrwt>
<totfact> 0.81372123E+01</totfact>
</mgrwt>
</event>
<event>
 4    1  0.4890517E-002  0.5019960E+03  0.7818608E-02  0.1013259E+00
         21   -1    0    0  501  502  0.00000000000E+00  0.00000000000E+00  0.21240274484E+04  0.21240274484E+04  0.00000000000E+00 0. -1.
         21   -1    0    0  502  503 -0.00000000000E+00 -0.00000000000E+00 -0.13347399258E+03  0.13347399258E+03  0.00000000000E+00 0.  1.
    9000007    1    1    2  501    0 -0.13249564572E+03 -0.27284591049E+03  0.13715399130E+04  0.14605210440E+04  0.40000000000E+03 0. -1.
   -9000007    1    1    2    0  503  0.13249564572E+03  0.27284591049E+03  0.61901354289E+03  0.79698039705E+03  0.40000000000E+03 0.  1.
<mgrwt>
<rscale>  2 0.50199600E+03</rscale>
<asrwt>0</asrwt>
<pdfrwt beam="1">  1       21 0.32677343E+00 0.50199600E+03</pdfrwt>
<pdfrwt beam="2">  1       21 0.20534462E-01 0.50199600E+03</pdfrwt>
<totfact> 0.40170884E+02</totfact>
</mgrwt>
</event>
<event>
 4    1  0.4890517E-002  0.4298149E+03  0.7818608E-02  0.1033918E+00
         21   -1    0    0  503  502  0.00000000000E+00  0.00000000000E+00  0.88882727933E+03  0.88882727933E+03  0.00000000000E+00 0.  1.
         21   -1    0    0  501  503 -0.00000000000E+00 -0.00000000000E+00 -0.23016352235E+03  0.23016352235E+03  0.00000000000E+00 0.  1.
    9000007    1    1    2  501    0  0.15713421631E+03 -0.70495255933E+01  0.15511787684E+03  0.45694902720E+03  0.40000000000E+03 0.  1.
   -9000007    1    1    2    0  502 -0.15713421631E+03  0.70495255933E+01  0.50354588014E+03  0.66204177448E+03  0.40000000000E+03 0.  1.
<mgrwt>
<rscale>  2 0.42981491E+03</rscale>
<asrwt>0</asrwt>
<pdfrwt beam="1">  1       21 0.13674266E+00 0.42981491E+03</pdfrwt>
<pdfrwt beam="2">  1       21 0.35409773E-01 0.42981491E+03</pdfrwt>
<totfact> 0.25404657E+03</totfact>
</mgrwt>
</event>
<event>
 4    1  0.4890517E-002  0.5209114E+03  0.7818608E-02  0.1008460E+00
         21   -1    0    0  501  502  0.00000000000E+00  0.00000000000E+00  0.13842475330E+04  0.13842475330E+04  0.00000000000E+00 0. -1.
         21   -1    0    0  502  503 -0.00000000000E+00 -0.00000000000E+00 -0.21110124884E+03  0.21110124884E+03  0.00000000000E+00 0.  1.
    9000007    1    1    2  501    0  0.81509133105E+02 -0.32358149624E+03  0.79973536434E+03  0.95442410723E+03  0.40000000000E+03 0. -1.
   -9000007    1    1    2    0  503 -0.81509133105E+02  0.32358149624E+03  0.37341091986E+03  0.64092467464E+03  0.40000000000E+03 0.  1.
<mgrwt>
<rscale>  2 0.52091144E+03</rscale>
<asrwt>0</asrwt>
<pdfrwt beam="1">  1       21 0.21296115E+00 0.52091144E+03</pdfrwt>
<pdfrwt beam="2">  1       21 0.32477116E-01 0.52091144E+03</pdfrwt>
<totfact> 0.81465958E+02</totfact>
</mgrwt>
</event>
<event>
 4    1  0.4890517E-002  0.4360685E+03  0.7818608E-02  0.1031960E+00
         21   -1    0    0  503  502  0.00000000000E+00  0.00000000000E+00  0.62562995568E+03  0.62562995568E+03  0.00000000000E+00 0.  1.
         21   -1    0    0  501  503 -0.00000000000E+00 -0.00000000000E+00 -0.15364654917E+04  0.15364654917E+04  0.00000000000E+00 0. -1.
    9000007    1    1    2  501    0 -0.17346187547E+03 -0.81667552221E+01 -0.14236530941E+04  0.14889405127E+04  0.40000000000E+03 0. -1.
   -9000007    1    1    2    0  502  0.17346187547E+03  0.81667552221E+01  0.51281755809E+03  0.67315493463E+03  0.40000000000E+03 0.  1.
<mgrwt>
<rscale>  2 0.43606848E+03</rscale>
<asrwt>0</asrwt>
<pdfrwt beam="1">  1       21 0.96250763E-01 0.43606848E+03</pdfrwt>
<pdfrwt beam="2">  1       21 0.23637930E+00 0.43606848E+03</pdfrwt>
<totfact> 0.56488779E+01</totfact>
</mgrwt>
</event>
<event>
 4    1  0.4890517E-002  0.4286865E+03  0.7818608E-02  0.1034276E+00
         21   -1    0    0  503  502  0.00000000000E+00  0.00000000000E+00  0.37942883426E+03  0.37942883426E+03  0.00000000000E+00 0. -1.
         21   -1    0    0  501  503 -0.00000000000E+00 -0.00000000000E+00 -0.73795791027E+03  0.73795791027E+03  0.00000000000E+00 0.  1.
    9000007    1    1    2  501    0 -0.87680630630E+02  0.12682352723E+03 -0.50679275770E+03  0.66378535635E+03  0.40000000000E+03 0.  1.
   -9000007    1    1    2    0  502  0.87680630630E+02 -0.12682352723E+03  0.14826368170E+03  0.45360138818E+03  0.40000000000E+03 0. -1.
<mgrwt>
<rscale>  2 0.42868648E+03</rscale>
<asrwt>0</asrwt>
<pdfrwt beam="1">  1       21 0.58373667E-01 0.42868648E+03</pdfrwt>
<pdfrwt beam="2">  1       21 0.11353199E+00 0.42868648E+03</pdfrwt>
<totfact> 0.14344859E+03</totfact>
</mgrwt>
</event>
<event>
 4    1  0.4890517E-002  0.5644164E+03  0.7818608E-02  0.9982111E-01
         21   -1    0    0  503  502  0.00000000000E+00  0.00000000000E+00  0.46948329798E+03  0.46948329798E+03  0.00000000000E+00 0. -1.
         21   -1    0    0  501  503 -0.00000000000E+00 -0.00000000000E+00 -0.72539348944E+03  0.72539348944E+03  0.00000000000E+00 0. -1.
    9000007    1    1    2  501    0  0.35909328831E+03 -0.17209841338E+03 -0.27978280713E+03  0.62995577048E+03  0.40000000000E+03 0. -1.
   -9000007    1    1    2    0  502 -0.35909328831E+03  0.17209841338E+03  0.23872615663E+02  0.56492101694E+03  0.40000000000E+03 0. -1.
<mgrwt>
<rscale>  2 0.56441638E+03</rscale>
<asrwt>0</asrwt>
<pdfrwt beam="1">  1       21 0.72228199E-01 0.56441638E+03</pdfrwt>
<pdfrwt beam="2">  1       21 0.11159900E+00 0.56441638E+03</pdfrwt>
<totfact> 0.88617949E+02</totfact>
</mgrwt>
</event>
<event>
 4    1  0.4890517E-002  0.4647815E+03  0.7818608E-02  0.1023404E+00
         21   -1    0    0  503  502  0.00000000000E+00  0.00000000000E+00  0.86066508013E+03  0.86066508013E+03  0.00000000000E+00 0.  1.
         21   -1    0    0  501  503 -0.00000000000E+00 -0.00000000000E+00 -0.30232170467E+03  0.30232170467E+03  0.00000000000E+00 0.  1.
    9000007    1    1    2  501    0 -0.17044655292E+03  0.16422479906E+03  0.39572224412E+02  0.46646304567E+03  0.40000000000E+03 0.  1.
   -9000007    1    1    2    0  502  0.17044655292E+03 -0.16422479906E+03  0.51877115104E+03  0.69652373914E+03  0.40000000000E+03 0.  1.
<mgrwt>
<rscale>  2 0.46478147E+03</rscale>
<asrwt>0</asrwt>
<pdfrwt beam="1">  1       21 0.13241001E+00 0.46478147E+03</pdfrwt>
<pdfrwt beam="2">  1       21 0.46511032E-01 0.46478147E+03</pdfrwt>
<totfact> 0.15525155E+03</totfact>
</mgrwt>
</event>
<event>
 4    1  0.4890517E-002  0.4525894E+03  0.7818608E-02  0.1026953E+00
         21   -1    0    0  503  502  0.00000000000E+00  0.00000000000E+00  0.28368019687E+03  0.28368019687E+03  0.00000000000E+00 0.  1.
         21   -1    0    0  501  503 -0.00000000000E+00 -0.00000000000E+00 -0.83229481826E+03  0.83229481826E+03  0.00000000000E+00 0.  1.
    9000007    1    1    2  501    0  0.17715697651E+03 -0.11598503255E+03 -0.47736734199E+03  0.65781205621E+03  0.40000000000E+03 0.  1.
   -9000007    1    1    2    0  502 -0.17715697651E+03  0.11598503255E+03 -0.71247279400E+02  0.45816295892E+03  0.40000000000E+03 0.  1.
<mgrwt>
<rscale>  2 0.45258935E+03</rscale>
<asrwt>0</asrwt>
<pdfrwt beam="1">  1       21 0.43643107E-01 0.45258935E+03</pdfrwt>
<pdfrwt beam="2">  1       21 0.12804536E+00 0.45258935E+03</pdfrwt>
<totfact> 0.19445800E+03</totfact>
</mgrwt>
</event>
<event>
 4    1  0.4890517E-002  0.4269710E+03  0.7818608E-02  0.1034821E+00
         21   -1    0    0  503  502  0.00000000000E+00  0.00000000000E+00  0.39498680851E+03  0.39498680851E+03  0.00000000000E+00 0.  1.
         21   -1    0    0  501  503 -0.00000000000E+00 -0.00000000000E+00 -0.98669280813E+03  0.98669280813E+03  0.00000000000E+00 0.  1.
    9000007    1    1    2  501    0  0.10872754125E+03  0.10238427272E+03 -0.79984903479E+03  0.90667673179E+03  0.40000000000E+03 0.  1.
   -9000007    1    1    2    0  502 -0.10872754125E+03 -0.10238427272E+03  0.20814303517E+03  0.47500288485E+03  0.40000000000E+03 0.  1.
<mgrwt>
<rscale>  2 0.42697098E+03</rscale>
<asrwt>0</asrwt>
<pdfrwt beam="1">  1       21 0.60767202E-01 0.42697098E+03</pdfrwt>
<pdfrwt beam="2">  1       21 0.15179889E+00 0.42697098E+03</pdfrwt>
<totfact> 0.61719369E+02</totfact>
</mgrwt>
</event>
<event>
 4    1  0.4890517E-002  0.4373642E+03  0.7818608E-02  0.1031559E+00
         21   -1    0    0  503  502  0.00000000000E+00  0.00000000000E+00  0.39205638816E+03  0.39205638816E+03  0.00000000000E+00 0.  1.
         21   -1    0    0  501  503 -0.00000000000E+00 -0.00000000000E+00 -0.11492731514E+04  0.11492731514E+04  0.00000000000E+00 0. -1.
    9000007    1    1    2  501    0 -0.69414821609E+02  0.16269305764E+03 -0.96322953989E+03  0.10578745649E+04  0.40000000000E+03 0. -1.
   -9000007    1    1    2    0  502  0.69414821609E+02 -0.16269305764E+03  0.20601277661E+03  0.48345497473E+03  0.40000000000E+03 0.  1.
<mgrwt>
<rscale>  2 0.43736421E+03</rscale>
<asrwt>0</asrwt>
<pdfrwt beam="1">  1       21 0.60316368E-01 0.43736421E+03</pdfrwt>
<pdfrwt beam="2">  1       21 0.17681125E+00 0.43736421E+03</pdfrwt>
<totfact> 0.40684181E+02</totfact>
</mgrwt>
</event>
<event>
 4    1  0.4890517E-002  0.4119649E+03  0.7818608E-02  0.1039714E+00
         21   -1    0    0  501  502  0.00000000000E+00  0.00000000000E+00  0.98258875522E+03  0.98258875522E+03  0.00000000000E+00 0. -1.
         21   -1    0    0  502  503 -0.00000000000E+00 -0.00000000000E+00 -0.45438901065E+03  0.45438901065E+03  0.00000000000E+00 0. -1.
    9000007    1    1    2  501    0 -0.22310200044E+02 -0.96007093936E+02  0.82978376390E+03  0.92642117956E+03  0.40000000000E+03 0. -1.
   -9000007    1    1    2    0  503  0.22310200044E+02  0.96007093936E+02 -0.30158401933E+03  0.51055658631E+03  0.40000000000E+03 0. -1.
<mgrwt>
<rscale>  2 0.41196493E+03</rscale>
<asrwt>0</asrwt>
<pdfrwt beam="1">  1       21 0.15116750E+00 0.41196493E+03</pdfrwt>
<pdfrwt beam="2">  1       21 0.69906002E-01 0.41196493E+03</pdfrwt>
<totfact> 0.46075797E+02</totfact>
</mgrwt>
</event>
<event>
 4    1  0.4890517E-002  0.7578912E+03  0.7818608E-02  0.9623051E-01
         21   -1    0    0  503  502  0.00000000000E+00  0.00000000000E+00  0.39024718722E+04  0.39024718722E+04  0.00000000000E+00 0. -1.
         21   -1    0    0  501  503 -0.00000000000E+00 -0.00000000000E+00 -0.60310034206E+03  0.60310034206E+03  0.00000000000E+00 0.  1.
    9000007    1    1    2  501    0  0.64318718455E+03  0.26632034996E+02 -0.30900377261E+03  0.81846340855E+03  0.40000000000E+03 0.  1.
   -9000007    1    1    2    0  502 -0.64318718455E+03 -0.26632034996E+02  0.36083753027E+04  0.36871088057E+04  0.40000000000E+03 0. -1.
<mgrwt>
<rscale>  2 0.75789117E+03</rscale>
<asrwt>0</asrwt>
<pdfrwt beam="1">  1       21 0.60038027E+00 0.75789117E+03</pdfrwt>
<pdfrwt beam="2">  1       21 0.92784670E-01 0.75789117E+03</pdfrwt>
<totfact> 0.18265303E-01</totfact>
</mgrwt>
</event>
<event>
 4    1  0.4890517E-002  0.4167233E+03  0.7818608E-02  0.1038138E+00
         21   -1    0    0  501  502  0.00000000000E+00  0.00000000000E+00  0.17396773746E+03  0.17396773746E+03  0.00000000000E+00 0. -1.
         21   -1    0    0  502  503 -0.00000000000E+00 -0.00000000000E+00 -0.10159816114E+04  0.10159816114E+04  0.00000000000E+00 0. -1.
    9000007    1    1    2  501    0 -0.10104955886E+03 -0.58713845187E+02 -0.34234241957E+03  0.53931128414E+03  0.40000000000E+03 0. -1.
   -9000007    1    1    2    0  503  0.10104955886E+03  0.58713845187E+02 -0.49967145440E+03  0.65063806475E+03  0.40000000000E+03 0. -1.
<mgrwt>
<rscale>  2 0.41672332E+03</rscale>
<asrwt>0</asrwt>
<pdfrwt beam="1">  1       21 0.26764267E-01 0.41672332E+03</pdfrwt>
<pdfrwt beam="2">  1       21 0.15630487E+00 0.41672332E+03</pdfrwt>
<totfact> 0.31112130E+03</totfact>
</mgrwt>
</event>
<event>
 4    1  0.4890517E-002  0.5509588E+03  0.7818608E-02  0.1001272E+00
         21   -1    0    0  503  502  0.00000000000E+00  0.00000000000E+00  0.22479313782E+03  0.22479313782E+03  0.00000000000E+00 0. -1.
         21   -1    0    0  501  503 -0.00000000000E+00 -0.00000000000E+00 -0.19021094228E+04  0.19021094228E+04  0.00000000000E+00 0.  1.
    9000007    1    1    2  501    0  0.87631972151E+02 -0.36861397774E+03 -0.14114064979E+04  0.15151316542E+04  0.40000000000E+03 0.  1.
   -9000007    1    1    2    0  502 -0.87631972151E+02  0.36861397774E+03 -0.26590978707E+03  0.61177090646E+03  0.40000000000E+03 0. -1.
<mgrwt>
<rscale>  2 0.55095883E+03</rscale>
<asrwt>0</asrwt>
<pdfrwt beam="1">  1       21 0.34583560E-01 0.55095883E+03</pdfrwt>
<pdfrwt beam="2">  1       21 0.29263222E+00 0.55095883E+03</pdfrwt>
<totfact> 0.22642150E+02</totfact>
</mgrwt>
</event>
<event>
 4    1  0.4890517E-002  0.4537856E+03  0.7818608E-02  0.1026599E+00
         21   -1    0    0  501  502  0.00000000000E+00  0.00000000000E+00  0.35304299414E+03  0.35304299414E+03  0.00000000000E+00 0.  1.
         21   -1    0    0  502  503 -0.00000000000E+00 -0.00000000000E+00 -0.74855454998E+03  0.74855454998E+03  0.00000000000E+00 0.  1.
    9000007    1    1    2  501    0 -0.54567053714E+00 -0.21429207418E+03  0.61059500311E+02  0.45787515044E+03  0.40000000000E+03 0.  1.
   -9000007    1    1    2    0  503  0.54567053714E+00  0.21429207418E+03 -0.45657105615E+03  0.64372239368E+03  0.40000000000E+03 0.  1.
<mgrwt>
<rscale>  2 0.45378562E+03</rscale>
<asrwt>0</asrwt>
<pdfrwt beam="1">  1       21 0.54314307E-01 0.45378562E+03</pdfrwt>
<pdfrwt beam="2">  1       21 0.11516224E+00 0.45378562E+03</pdfrwt>
<totfact> 0.16020054E+03</totfact>
</mgrwt>
</event>
<event>
 4    1  0.4890517E-002  0.5623122E+03  0.7818608E-02  0.9986836E-01
         21   -1    0    0  503  502  0.00000000000E+00  0.00000000000E+00  0.41407792625E+03  0.41407792625E+03  0.00000000000E+00 0.  1.
         21   -1    0    0  501  503 -0.00000000000E+00 -0.00000000000E+00 -0.11694473700E+04  0.11694473700E+04  0.00000000000E+00 0.  1.
    9000007    1    1    2  501    0 -0.29184148116E+03 -0.26650252367E+03 -0.84410711651E+03  0.10142543416E+04  0.40000000000E+03 0.  1.
   -9000007    1    1    2    0  502  0.29184148116E+03  0.26650252367E+03  0.88737672785E+02  0.56927095466E+03  0.40000000000E+03 0.  1.
<mgrwt>
<rscale>  2 0.56231223E+03</rscale>
<asrwt>0</asrwt>
<pdfrwt beam="1">  1       21 0.63704297E-01 0.56231223E+03</pdfrwt>
<pdfrwt beam="2">  1       21 0.17991498E+00 0.56231223E+03</pdfrwt>
<totfact> 0.32422848E+02</totfact>
</mgrwt>
</event>
<event>
 4    1  0.4890517E-002  0.4497673E+03  0.7818608E-02  0.1027791E+00
         21   -1    0    0  503  502  0.00000000000E+00  0.00000000000E+00  0.38202377098E+03  0.38202377098E+03  0.00000000000E+00 0. -1.
         21   -1    0    0  501  503 -0.00000000000E+00 -0.00000000000E+00 -0.56938058292E+03  0.56938058292E+03  0.00000000000E+00 0.  1.
    9000007    1    1    2  501    0 -0.14155140230E+03 -0.14917719111E+03  0.32180970477E+02  0.45091711955E+03  0.40000000000E+03 0. -1.
   -9000007    1    1    2    0  502  0.14155140230E+03  0.14917719111E+03 -0.21953778242E+03  0.50048723435E+03  0.40000000000E+03 0.  1.
<mgrwt>
<rscale>  2 0.44976731E+03</rscale>
<asrwt>0</asrwt>
<pdfrwt beam="1">  1       21 0.58772888E-01 0.44976731E+03</pdfrwt>
<pdfrwt beam="2">  1       21 0.87597012E-01 0.44976731E+03</pdfrwt>
<totfact> 0.26296183E+03</totfact>
</mgrwt>
</event>
<event>
 4    1  0.4890517E-002  0.4066211E+03  0.7818608E-02  0.1041511E+00
         21   -1    0    0  503  502  0.00000000000E+00  0.00000000000E+00  0.24468759936E+03  0.24468759936E+03  0.00000000000E+00 0.  1.
         21   -1    0    0  501  503 -0.00000000000E+00 -0.00000000000E+00 -0.67912076404E+03  0.67912076404E+03  0.00000000000E+00 0.  1.
    9000007    1    1    2  501    0 -0.40116419197E+02 -0.61085176434E+02 -0.24989467421E+03  0.47727148885E+03  0.40000000000E+03 0. -1.
   -9000007    1    1    2    0  502  0.40116419197E+02  0.61085176434E+02 -0.18453849047E+03  0.44653687455E+03  0.40000000000E+03 0. -1.
<mgrwt>
<rscale>  2 0.40662111E+03</rscale>
<asrwt>0</asrwt>
<pdfrwt beam="1">  1       21 0.37644247E-01 0.40662111E+03</pdfrwt>
<pdfrwt beam="2">  1       21 0.10448012E+00 0.40662111E+03</pdfrwt>
<totfact> 0.44747881E+03</totfact>
</mgrwt>
</event>
<event>
 4    1  0.4890517E-002  0.6213714E+03  0.7818608E-02  0.9862033E-01
         21   -1    0    0  501  502  0.00000000000E+00  0.00000000000E+00  0.91499505024E+03  0.91499505024E+03  0.00000000000E+00 0. -1.
         21   -1    0    0  502  503 -0.00000000000E+00 -0.00000000000E+00 -0.44148362200E+03  0.44148362200E+03  0.00000000000E+00 0. -1.
    9000007    1    1    2  501    0 -0.47136987960E+03  0.62552851412E+02  0.94171723358E+02  0.62846697295E+03  0.40000000000E+03 0. -1.
   -9000007    1    1    2    0  503  0.47136987960E+03 -0.62552851412E+02  0.37933970488E+03  0.72801169929E+03  0.40000000000E+03 0. -1.
<mgrwt>
<rscale>  2 0.62137140E+03</rscale>
<asrwt>0</asrwt>
<pdfrwt beam="1">  1       21 0.14076847E+00 0.62137140E+03</pdfrwt>
<pdfrwt beam="2">  1       21 0.67920557E-01 0.62137140E+03</pdfrwt>
<totfact> 0.54785843E+02</totfact>
</mgrwt>
</event>
<event>
 4    1  0.4890517E-002  0.4349711E+03  0.7818608E-02  0.1032301E+00
         21   -1    0    0  501  502  0.00000000000E+00  0.00000000000E+00  0.42951810116E+04  0.42951810116E+04  0.00000000000E+00 0.  1.
         21   -1    0    0  502  503 -0.00000000000E+00 -0.00000000000E+00 -0.51539446159E+02  0.51539446159E+02  0.00000000000E+00 0.  1.
    9000007    1    1    2  501    0 -0.16845323328E+03 -0.28694354354E+02  0.29503465839E+04  0.29822382237E+04  0.40000000000E+03 0.  1.
   -9000007    1    1    2    0  503  0.16845323328E+03  0.28694354354E+02  0.12932949815E+04  0.13644822340E+04  0.40000000000E+03 0.  1.
<mgrwt>
<rscale>  2 0.43497110E+03</rscale>
<asrwt>0</asrwt>
<pdfrwt beam="1">  1       21 0.66079680E+00 0.43497110E+03</pdfrwt>
<pdfrwt beam="2">  1       21 0.79291490E-02 0.43497110E+03</pdfrwt>
<totfact> 0.10032123E+01</totfact>
</mgrwt>
</event>
<event>
 4    1  0.4890517E-002  0.5432014E+03  0.7818608E-02  0.1003080E+00
         21   -1    0    0  503  502  0.00000000000E+00  0.00000000000E+00  0.13609925412E+04  0.13609925412E+04  0.00000000000E+00 0.  1.
         21   -1    0    0  501  503 -0.00000000000E+00 -0.00000000000E+00 -0.78086847613E+03  0.78086847613E+03  0.00000000000E+00 0.  1.
    9000007    1    1    2  501    0 -0.10509631241E+03  0.35216827854E+03 -0.62013826611E+03  0.82440232920E+03  0.40000000000E+03 0.  1.
   -9000007    1    1    2    0  502  0.10509631241E+03 -0.35216827854E+03  0.12002623311E+04  0.13174586881E+04  0.40000000000E+03 0.  1.
<mgrwt>
<rscale>  2 0.54320137E+03</rscale>
<asrwt>0</asrwt>
<pdfrwt beam="1">  1       21 0.20938347E+00 0.54320137E+03</pdfrwt>
<pdfrwt beam="2">  1       21 0.12013361E+00 0.54320137E+03</pdfrwt>
<totfact> 0.45656104E+01</totfact>
</mgrwt>
</event>
<event>
 4    1  0.4890517E-002  0.4268872E+03  0.7818608E-02  0.1034848E+00
         21   -1    0    0  503  502  0.00000000000E+00  0.00000000000E+00  0.64372119346E+03  0.64372119346E+03  0.00000000000E+00 0.  1.
         21   -1    0    0  501  503 -0.00000000000E+00 -0.00000000000E+00 -0.28325924791E+03  0.28325924791E+03  0.00000000000E+00 0.  1.
    9000007    1    1    2  501    0 -0.13823898505E+03 -0.55880975954E+02  0.16898853875E+03  0.45911853229E+03  0.40000000000E+03 0. -1.
   -9000007    1    1    2    0  502  0.13823898505E+03  0.55880975954E+02  0.19147340680E+03  0.46786190908E+03  0.40000000000E+03 0. -1.
<mgrwt>
<rscale>  2 0.42688722E+03</rscale>
<asrwt>0</asrwt>
<pdfrwt beam="1">  1       21 0.99034030E-01 0.42688722E+03</pdfrwt>
<pdfrwt beam="2">  1       21 0.43578346E-01 0.42688722E+03</pdfrwt>
<totfact> 0.37429314E+03</totfact>
</mgrwt>
</event>
<event>
 4    1  0.4890517E-002  0.4110357E+03  0.7818608E-02  0.1040024E+00
         21   -1    0    0  501  502  0.00000000000E+00  0.00000000000E+00  0.30011785880E+03  0.30011785880E+03  0.00000000000E+00 0.  1.
         21   -1    0    0  502  503 -0.00000000000E+00 -0.00000000000E+00 -0.61061220236E+03  0.61061220236E+03  0.00000000000E+00 0.  1.
    9000007    1    1    2  501    0 -0.66271087835E+02 -0.67516613523E+02 -0.28020212977E+02  0.41198966312E+03  0.40000000000E+03 0.  1.
   -9000007    1    1    2    0  503  0.66271087835E+02  0.67516613523E+02 -0.28247413058E+03  0.49874039803E+03  0.40000000000E+03 0.  1.
<mgrwt>
<rscale>  2 0.41103570E+03</rscale>
<asrwt>0</asrwt>
<pdfrwt beam="1">  1       21 0.46171979E-01 0.41103570E+03</pdfrwt>
<pdfrwt beam="2">  1       21 0.93940338E-01 0.41103570E+03</pdfrwt>
<totfact> 0.37872502E+03</totfact>
</mgrwt>
</event>
<event>
 4    1  0.4890517E-002  0.7543811E+03  0.7818608E-02  0.9628502E-01
         21   -1    0    0  503  502  0.00000000000E+00  0.00000000000E+00  0.15960005916E+04  0.15960005916E+04  0.00000000000E+00 0. -1.
         21   -1    0    0  501  503 -0.00000000000E+00 -0.00000000000E+00 -0.41042995426E+03  0.41042995426E+03  0.00000000000E+00 0.  1.
    9000007    1    1    2  501    0 -0.24703864341E+02 -0.63912484378E+03  0.95619390332E+03  0.12179481219E+04  0.40000000000E+03 0. -1.
   -9000007    1    1    2    0  502  0.24703864341E+02  0.63912484378E+03  0.22937673407E+03  0.78848242402E+03  0.40000000000E+03 0.  1.
<mgrwt>
<rscale>  2 0.75438110E+03</rscale>
<asrwt>0</asrwt>
<pdfrwt beam="1">  1       21 0.24553855E+00 0.75438110E+03</pdfrwt>
<pdfrwt beam="2">  1       21 0.63143071E-01 0.75438110E+03</pdfrwt>
<totfact> 0.11331420E+02</totfact>
</mgrwt>
</event>
<event>
 4    1  0.4890517E-002  0.4420597E+03  0.7818608E-02  0.1030117E+00
         21   -1    0    0  501  502  0.00000000000E+00  0.00000000000E+00  0.11860351472E+04  0.11860351472E+04  0.00000000000E+00 0. -1.
         21   -1    0    0  502  503 -0.00000000000E+00 -0.00000000000E+00 -0.16929433544E+03  0.16929433544E+03  0.00000000000E+00 0. -1.
    9000007    1    1    2  501    0  0.39615894577E+02  0.18397651080E+03  0.61921723237E+03  0.76081979239E+03  0.40000000000E+03 0. -1.
   -9000007    1    1    2    0  503 -0.39615894577E+02 -0.18397651080E+03  0.39752357942E+03  0.59450969027E+03  0.40000000000E+03 0. -1.
<mgrwt>
<rscale>  2 0.44205970E+03</rscale>
<asrwt>0</asrwt>
<pdfrwt beam="1">  1       21 0.18246694E+00 0.44205970E+03</pdfrwt>
<pdfrwt beam="2">  1       21 0.26045283E-01 0.44205970E+03</pdfrwt>
<totfact> 0.20920310E+03</totfact>
</mgrwt>
</event>
<event>
 4    1  0.4890517E-002  0.4952292E+03  0.7818608E-02  0.1015032E+00
         21   -1    0    0  501  502  0.00000000000E+00  0.00000000000E+00  0.64775472257E+03  0.64775472257E+03  0.00000000000E+00 0.  1.
         21   -1    0    0  502  503 -0.00000000000E+00 -0.00000000000E+00 -0.38493151027E+03  0.38493151027E+03  0.00000000000E+00 0.  1.
    9000007    1    1    2  501    0  0.24513717719E+03  0.15861829650E+03  0.65287356718E+02  0.49951420257E+03  0.40000000000E+03 0.  1.
   -9000007    1    1    2    0  503 -0.24513717719E+03 -0.15861829650E+03  0.19753585558E+03  0.53317203027E+03  0.40000000000E+03 0.  1.
<mgrwt>
<rscale>  2 0.49522924E+03</rscale>
<asrwt>0</asrwt>
<pdfrwt beam="1">  1       21 0.99654573E-01 0.49522924E+03</pdfrwt>
<pdfrwt beam="2">  1       21 0.59220232E-01 0.49522924E+03</pdfrwt>
<totfact> 0.18696030E+03</totfact>
</mgrwt>
</event>
<event>
 4    1  0.4890517E-002  0.4258898E+03  0.7818608E-02  0.1035166E+00
         21   -1    0    0  503  502  0.00000000000E+00  0.00000000000E+00  0.30215939672E+03  0.30215939672E+03  0.00000000000E+00 0. -1.
         21   -1    0    0  501  503 -0.00000000000E+00 -0.00000000000E+00 -0.61647765236E+03  0.61647765236E+03  0.00000000000E+00 0. -1.
    9000007    1    1    2  501    0  0.95873951187E+02  0.11040972590E+03 -0.23159768167E+03  0.48478820968E+03  0.40000000000E+03 0. -1.
   -9000007    1    1    2    0  502 -0.95873951187E+02 -0.11040972590E+03 -0.82720573971E+02  0.43384883940E+03  0.40000000000E+03 0. -1.
<mgrwt>
<rscale>  2 0.42588980E+03</rscale>
<asrwt>0</asrwt>
<pdfrwt beam="1">  1       21 0.46486062E-01 0.42588980E+03</pdfrwt>
<pdfrwt beam="2">  1       21 0.94842715E-01 0.42588980E+03</pdfrwt>
<totfact> 0.36293518E+03</totfact>
</mgrwt>
</event>
<event>
 4    1  0.4890517E-002  0.4361162E+03  0.7818608E-02  0.1031945E+00
         21   -1    0    0  501  502  0.00000000000E+00  0.00000000000E+00  0.27876860078E+04  0.27876860078E+04  0.00000000000E+00 0. -1.
         21   -1    0    0  502  503 -0.00000000000E+00 -0.00000000000E+00 -0.73921882967E+03  0.73921882967E+03  0.00000000000E+00 0. -1.
    9000007    1    1    2  501    0  0.31966748943E+02 -0.17080833491E+03  0.27043355173E+04  0.27392750776E+04  0.40000000000E+03 0. -1.
   -9000007    1    1    2    0  503 -0.31966748943E+02  0.17080833491E+03 -0.65586833920E+03  0.78762975989E+03  0.40000000000E+03 0. -1.
<mgrwt>
<rscale>  2 0.43611622E+03</rscale>
<asrwt>0</asrwt>
<pdfrwt beam="1">  1       21 0.42887477E+00 0.43611622E+03</pdfrwt>
<pdfrwt beam="2">  1       21 0.11372597E+00 0.43611622E+03</pdfrwt>
<totfact> 0.24243266E+00</totfact>
</mgrwt>
</event>
<event>
 4    1  0.4890517E-002  0.4504622E+03  0.7818608E-02  0.1027584E+00
         21   -1    0    0  501  502  0.00000000000E+00  0.00000000000E+00  0.89393088571E+03  0.89393088571E+03  0.00000000000E+00 0.  1.
         21   -1    0    0  502  503 -0.00000000000E+00 -0.00000000000E+00 -0.36763349405E+03  0.36763349405E+03  0.00000000000E+00 0.  1.
    9000007    1    1    2  501    0 -0.18527731868E+03  0.92674406805E+02  0.65329434907E+03  0.79354252377E+03  0.40000000000E+03 0.  1.
   -9000007    1    1    2    0  503  0.18527731868E+03 -0.92674406805E+02 -0.12699695741E+03  0.46802185599E+03  0.40000000000E+03 0.  1.
<mgrwt>
<rscale>  2 0.45046224E+03</rscale>
<asrwt>0</asrwt>
<pdfrwt beam="1">  1       21 0.13752783E+00 0.45046224E+03</pdfrwt>
<pdfrwt beam="2">  1       21 0.56558999E-01 0.45046224E+03</pdfrwt>
<totfact> 0.93089397E+02</totfact>
</mgrwt>
</event>
<event>
 4    1  0.4890517E-002  0.5072870E+03  0.7818608E-02  0.1011894E+00
         21   -1    0    0  503  502  0.00000000000E+00  0.00000000000E+00  0.10692976690E+04  0.10692976690E+04  0.00000000000E+00 0.  1.
         21   -1    0    0  501  503 -0.00000000000E+00 -0.00000000000E+00 -0.24068972250E+03  0.24068972250E+03  0.00000000000E+00 0.  1.
    9000007    1    1    2  501    0  0.77345832892E+02 -0.30225431834E+03  0.40736219011E+03  0.65060280106E+03  0.40000000000E+03 0.  1.
   -9000007    1    1    2    0  502 -0.77345832892E+02  0.30225431834E+03  0.42124575638E+03  0.65938459042E+03  0.40000000000E+03 0.  1.
<mgrwt>
<rscale>  2 0.50728695E+03</rscale>
<asrwt>0</asrwt>
<pdfrwt beam="1">  1       21 0.16450733E+00 0.50728695E+03</pdfrwt>
<pdfrwt beam="2">  1       21 0.37029189E-01 0.50728695E+03</pdfrwt>
<totfact> 0.13603568E+03</totfact>
</mgrwt>
</event>
<event>
 4    1  0.4890517E-002  0.4171339E+03  0.7818608E-02  0.1038003E+00
         21   -1    0    0  503  502  0.00000000000E+00  0.00000000000E+00  0.77206339531E+03  0.77206339531E+03  0.00000000000E+00 0.  1.
         21   -1    0    0  501  503 -0.00000000000E+00 -0.00000000000E+00 -0.25046197676E+03  0.25046197676E+03  0.00000000000E+00 0.  1.
    9000007    1    1    2  501    0 -0.68759574256E+02  0.96295347558E+02  0.98980679776E+02  0.42871651237E+03  0.40000000000E+03 0.  1.
   -9000007    1    1    2    0  502  0.68759574256E+02 -0.96295347558E+02  0.42262073877E+03  0.59380885970E+03  0.40000000000E+03 0.  1.
<mgrwt>
<rscale>  2 0.41713388E+03</rscale>
<asrwt>0</asrwt>
<pdfrwt beam="1">  1       21 0.11877898E+00 0.41713388E+03</pdfrwt>
<pdfrwt beam="2">  1       21 0.38532612E-01 0.41713388E+03</pdfrwt>
<totfact> 0.30909254E+03</totfact>
</mgrwt>
</event>
<event>
 4    1  0.4890517E-002  0.4961076E+03  0.7818608E-02  0.1014800E+00
         21   -1    0    0  503  502  0.00000000000E+00  0.00000000000E+00  0.55555311830E+03  0.55555311830E+03  0.00000000000E+00 0. -1.
         21   -1    0    0  501  503 -0.00000000000E+00 -0.00000000000E+00 -0.46665139330E+03  0.46665139330E+03  0.00000000000E+00 0.  1.
    9000007    1    1    2  501    0 -0.27018561952E+03 -0.11455331787E+03 -0.70557624966E+02  0.50109990029E+03  0.40000000000E+03 0.  1.
   -9000007    1    1    2    0  502  0.27018561952E+03  0.11455331787E+03  0.15945934997E+03  0.52110461130E+03  0.40000000000E+03 0.  1.
<mgrwt>
<rscale>  2 0.49610758E+03</rscale>
<asrwt>0</asrwt>
<pdfrwt beam="1">  1       21 0.85469710E-01 0.49610758E+03</pdfrwt>
<pdfrwt beam="2">  1       21 0.71792523E-01 0.49610758E+03</pdfrwt>
<totfact> 0.17559403E+03</totfact>
</mgrwt>
</event>
<event>
 4    1  0.4890517E-002  0.5029879E+03  0.7818608E-02  0.1013002E+00
         21   -1    0    0  503  502  0.00000000000E+00  0.00000000000E+00  0.44229193183E+03  0.44229193183E+03  0.00000000000E+00 0.  1.
         21   -1    0    0  501  503 -0.00000000000E+00 -0.00000000000E+00 -0.10831292019E+04  0.10831292019E+04  0.00000000000E+00 0. -1.
    9000007    1    1    2  501    0 -0.68868341279E+02  0.29707563435E+03 -0.84435604697E+03  0.98281937049E+03  0.40000000000E+03 0. -1.
   -9000007    1    1    2    0  502  0.68868341279E+02 -0.29707563435E+03  0.20351877689E+03  0.54260176326E+03  0.40000000000E+03 0.  1.
<mgrwt>
<rscale>  2 0.50298785E+03</rscale>
<asrwt>0</asrwt>
<pdfrwt beam="1">  1       21 0.68044913E-01 0.50298785E+03</pdfrwt>
<pdfrwt beam="2">  1       21 0.16663526E+00 0.50298785E+03</pdfrwt>
<totfact> 0.35781671E+02</totfact>
</mgrwt>
</event>
<event>
 4    1  0.4890517E-002  0.4429367E+03  0.7818608E-02  0.1029850E+00
         21   -1    0    0  503  502  0.00000000000E+00  0.00000000000E+00  0.69234325627E+03  0.69234325627E+03  0.00000000000E+00 0.  1.
         21   -1    0    0  501  503 -0.00000000000E+00 -0.00000000000E+00 -0.29123755698E+03  0.29123755698E+03  0.00000000000E+00 0.  1.
    9000007    1    1    2  501    0  0.10008691366E+03  0.16178865324E+03  0.11974924182E+03  0.45883857676E+03  0.40000000000E+03 0.  1.
   -9000007    1    1    2    0  502 -0.10008691366E+03 -0.16178865324E+03  0.28135645747E+03  0.52474223650E+03  0.40000000000E+03 0.  1.
<mgrwt>
<rscale>  2 0.44293674E+03</rscale>
<asrwt>0</asrwt>
<pdfrwt beam="1">  1       21 0.10651435E+00 0.44293674E+03</pdfrwt>
<pdfrwt beam="2">  1       21 0.44805778E-01 0.44293674E+03</pdfrwt>
<totfact> 0.29384237E+03</totfact>
</mgrwt>
</event>
<event>
 4    1  0.4890517E-002  0.4070075E+03  0.7818608E-02  0.1041380E+00
         21   -1    0    0  503  502  0.00000000000E+00  0.00000000000E+00  0.38678994575E+03  0.38678994575E+03  0.00000000000E+00 0. -1.
         21   -1    0    0  501  503 -0.00000000000E+00 -0.00000000000E+00 -0.46366181720E+03  0.46366181720E+03  0.00000000000E+00 0.  1.
    9000007    1    1    2  501    0  0.57227019776E+01 -0.74982297504E+02 -0.15589811185E+03  0.43584322357E+03  0.40000000000E+03 0.  1.
   -9000007    1    1    2    0  502 -0.57227019776E+01  0.74982297504E+02  0.79026240399E+02  0.41460853938E+03  0.40000000000E+03 0. -1.
<mgrwt>
<rscale>  2 0.40700749E+03</rscale>
<asrwt>0</asrwt>
<pdfrwt beam="1">  1       21 0.59506146E-01 0.40700749E+03</pdfrwt>
<pdfrwt beam="2">  1       21 0.71332587E-01 0.40700749E+03</pdfrwt>
<totfact> 0.41721653E+03</totfact>
</mgrwt>
</event>
<event>
 4    1  0.4890517E-002  0.4382123E+03  0.7818608E-02  0.1031297E+00
         21   -1    0    0  503  502  0.00000000000E+00  0.00000000000E+00  0.21323938246E+03  0.21323938246E+03  0.00000000000E+00 0.  1.
         21   -1    0    0  501  503 -0.00000000000E+00 -0.00000000000E+00 -0.17096597660E+04  0.17096597660E+04  0.00000000000E+00 0.  1.
    9000007    1    1    2  501    0  0.17402930949E+03  0.41759577985E+02 -0.14096323481E+04  0.14761752673E+04  0.40000000000E+03 0.  1.
   -9000007    1    1    2    0  502 -0.17402930949E+03 -0.41759577985E+02 -0.86788035427E+02  0.44672388117E+03  0.40000000000E+03 0.  1.
<mgrwt>
<rscale>  2 0.43821235E+03</rscale>
<asrwt>0</asrwt>
<pdfrwt beam="1">  1       21 0.32806058E-01 0.43821235E+03</pdfrwt>
<pdfrwt beam="2">  1       21 0.26302459E+00 0.43821235E+03</pdfrwt>
<totfact> 0.40376422E+02</totfact>
</mgrwt>
</event>
<event>
 4    1  0.4890517E-002  0.4178114E+03  0.7818608E-02  0.1037781E+00
         21   -1    0    0  503  502  0.00000000000E+00  0.00000000000E+00  0.27609082892E+03  0.27609082892E+03  0.00000000000E+00 0.  1.
         21   -1    0    0  501  503 -0.00000000000E+00 -0.00000000000E+00 -0.10599423273E+04  0.10599423273E+04  0.00000000000E+00 0.  1.
    9000007    1    1    2  501    0  0.63003112989E+02 -0.10294143145E+03  0.32397977625E+02  0.41906557901E+03  0.40000000000E+03 0.  1.
   -9000007    1    1    2    0  502 -0.63003112989E+02  0.10294143145E+03 -0.81624947598E+03  0.91696757718E+03  0.40000000000E+03 0.  1.
<mgrwt>
<rscale>  2 0.41781136E+03</rscale>
<asrwt>0</asrwt>
<pdfrwt beam="1">  1       21 0.42475512E-01 0.41781136E+03</pdfrwt>
<pdfrwt beam="2">  1       21 0.16306805E+00 0.41781136E+03</pdfrwt>
<totfact> 0.10911107E+03</totfact>
</mgrwt>
</event>
<event>
 4    1  0.4890517E-002  0.4368201E+03  0.7818608E-02  0.1031727E+00
         21   -1    0    0  501  502  0.00000000000E+00  0.00000000000E+00  0.16789754104E+03  0.16789754104E+03  0.00000000000E+00 0. -1.
         21   -1    0    0  502  503 -0.00000000000E+00 -0.00000000000E+00 -0.11917625982E+04  0.11917625982E+04  0.00000000000E+00 0. -1.
    9000007    1    1    2  501    0 -0.10587266319E+03 -0.14001007457E+03 -0.36550995449E+03  0.56956945900E+03  0.40000000000E+03 0. -1.
   -9000007    1    1    2    0  503  0.10587266319E+03  0.14001007457E+03 -0.65835510263E+03  0.79009068021E+03  0.40000000000E+03 0. -1.
<mgrwt>
<rscale>  2 0.43682015E+03</rscale>
<asrwt>0</asrwt>
<pdfrwt beam="1">  1       21 0.25830390E-01 0.43682015E+03</pdfrwt>
<pdfrwt beam="2">  1       21 0.18334810E+00 0.43682015E+03</pdfrwt>
<totfact> 0.21008989E+03</totfact>
</mgrwt>
</event>
<event>
 4    1  0.4890517E-002  0.5020265E+03  0.7818608E-02  0.1013251E+00
         21   -1    0    0  503  502  0.00000000000E+00  0.00000000000E+00  0.16337227731E+03  0.16337227731E+03  0.00000000000E+00 0.  1.
         21   -1    0    0  501  503 -0.00000000000E+00 -0.00000000000E+00 -0.19747204969E+04  0.19747204969E+04  0.00000000000E+00 0.  1.
    9000007    1    1    2  501    0 -0.19308478611E+03 -0.23398466943E+03 -0.14057175796E+04  0.14926729293E+04  0.40000000000E+03 0.  1.
   -9000007    1    1    2    0  502  0.19308478611E+03  0.23398466943E+03 -0.40563063998E+03  0.64541984494E+03  0.40000000000E+03 0.  1.
<mgrwt>
<rscale>  2 0.50202645E+03</rscale>
<asrwt>0</asrwt>
<pdfrwt beam="1">  1       21 0.25134197E-01 0.50202645E+03</pdfrwt>
<pdfrwt beam="2">  1       21 0.30380315E+00 0.50202645E+03</pdfrwt>
<totfact> 0.37457221E+02</totfact>
</mgrwt>
</event>
<event>
 4    1  0.4890517E-002  0.4818371E+03  0.7818608E-02  0.1018631E+00
         21   -1    0    0  503  502  0.00000000000E+00  0.00000000000E+00  0.74274478662E+03  0.74274478662E+03  0.00000000000E+00 0. -1.
         21   -1    0    0  501  503 -0.00000000000E+00 -0.00000000000E+00 -0.37673964722E+03  0.37673964722E+03  0.00000000000E+00 0. -1.
    9000007    1    1    2  501    0 -0.25565707765E+03 -0.82501375730E+02  0.41399569449E+03  0.63526329456E+03  0.40000000000E+03 0. -1.
   -9000007    1    1    2    0  502  0.25565707765E+03  0.82501375730E+02 -0.47990555100E+02  0.48422113929E+03  0.40000000000E+03 0. -1.
<mgrwt>
<rscale>  2 0.48183713E+03</rscale>
<asrwt>0</asrwt>
<pdfrwt beam="1">  1       21 0.11426843E+00 0.48183713E+03</pdfrwt>
<pdfrwt beam="2">  1       21 0.57959946E-01 0.48183713E+03</pdfrwt>
<totfact> 0.14038265E+03</totfact>
</mgrwt>
</event>
<event>
 4    1  0.4890517E-002  0.4108732E+03  0.7818608E-02  0.1040078E+00
         21   -1    0    0  501  502  0.00000000000E+00  0.00000000000E+00  0.30480014587E+03  0.30480014587E+03  0.00000000000E+00 0.  1.
         21   -1    0    0  502  503 -0.00000000000E+00 -0.00000000000E+00 -0.76858225783E+03  0.76858225783E+03  0.00000000000E+00 0.  1.
    9000007    1    1    2  501    0 -0.14706833329E+02  0.92738789207E+02  0.51781474597E+02  0.41412328488E+03  0.40000000000E+03 0.  1.
   -9000007    1    1    2    0  503  0.14706833329E+02 -0.92738789207E+02 -0.51556358656E+03  0.65925911883E+03  0.40000000000E+03 0.  1.
<mgrwt>
<rscale>  2 0.41087318E+03</rscale>
<asrwt>0</asrwt>
<pdfrwt beam="1">  1       21 0.46892330E-01 0.41087318E+03</pdfrwt>
<pdfrwt beam="2">  1       21 0.11824342E+00 0.41087318E+03</pdfrwt>
<totfact> 0.20856997E+03</totfact>
</mgrwt>
</event>
<event>
 4    1  0.4890517E-002  0.6669582E+03  0.7818608E-02  0.9775469E-01
         21   -1    0    0  501  502  0.00000000000E+00  0.00000000000E+00  0.22096165202E+04  0.22096165202E+04  0.00000000000E+00 0. -1.
         21   -1    0    0  502  503 -0.00000000000E+00 -0.00000000000E+00 -0.54125804073E+03  0.54125804073E+03  0.00000000000E+00 0.  1.
    9000007    1    1    2  501    0 -0.37754204926E+03 -0.37722035735E+03  0.19242142837E+04  0.20365249339E+04  0.40000000000E+03 0. -1.
   -9000007    1    1    2    0  503  0.37754204926E+03  0.37722035735E+03 -0.25585580425E+03  0.71434962696E+03  0.40000000000E+03 0.  1.
<mgrwt>
<rscale>  2 0.66695817E+03</rscale>
<asrwt>0</asrwt>
<pdfrwt beam="1">  1       21 0.33994100E+00 0.66695817E+03</pdfrwt>
<pdfrwt beam="2">  1       21 0.83270469E-01 0.66695817E+03</pdfrwt>
<totfact> 0.16284712E+01</totfact>
</mgrwt>
</event>
<event>
 4    1  0.4890517E-002  0.8925917E+03  0.7818608E-02  0.9434890E-01
         21   -1    0    0  501  502  0.00000000000E+00  0.00000000000E+00  0.15349128465E+04  0.15349128465E+04  0.00000000000E+00 0. -1.
         21   -1    0    0  502  503 -0.00000000000E+00 -0.00000000000E+00 -0.82133641789E+03  0.82133641789E+03  0.00000000000E+00 0.  1.
    9000007    1    1    2  501    0 -0.66845331695E+03 -0.43576387918E+03  0.10714968397E+04  0.13945699956E+04  0.40000000000E+03 0. -1.
   -9000007    1    1    2    0  503  0.66845331695E+03  0.43576387918E+03 -0.35792041103E+03  0.96167926876E+03  0.40000000000E+03 0.  1.
<mgrwt>
<rscale>  2 0.89259173E+03</rscale>
<asrwt>0</asrwt>
<pdfrwt beam="1">  1       21 0.23614044E+00 0.89259173E+03</pdfrwt>
<pdfrwt beam="2">  1       21 0.12635945E+00 0.89259173E+03</pdfrwt>
<totfact> 0.23355585E+01</totfact>
</mgrwt>
</event>
<event>
 4    1  0.4890517E-002  0.4289739E+03  0.7818608E-02  0.1034185E+00
         21   -1    0    0  501  502  0.00000000000E+00  0.00000000000E+00  0.23427933420E+03  0.23427933420E+03  0.00000000000E+00 0. -1.
         21   -1    0    0  502  503 -0.00000000000E+00 -0.00000000000E+00 -0.14098559571E+04  0.14098559571E+04  0.00000000000E+00 0. -1.
    9000007    1    1    2  501    0  0.15126971582E+03  0.33705719369E+02 -0.40711994411E+02  0.43090146081E+03  0.40000000000E+03 0. -1.
   -9000007    1    1    2    0  503 -0.15126971582E+03 -0.33705719369E+02 -0.11348646285E+04  0.12132338305E+04  0.40000000000E+03 0. -1.
<mgrwt>
<rscale>  2 0.42897389E+03</rscale>
<asrwt>0</asrwt>
<pdfrwt beam="1">  1       21 0.36042974E-01 0.42897389E+03</pdfrwt>
<pdfrwt beam="2">  1       21 0.21690092E+00 0.42897389E+03</pdfrwt>
<totfact> 0.64923145E+02</totfact>
</mgrwt>
</event>
<event>
 4    1  0.4890517E-002  0.4167002E+03  0.7818608E-02  0.1038146E+00
         21   -1    0    0  503  502  0.00000000000E+00  0.00000000000E+00  0.93590038431E+03  0.93590038431E+03  0.00000000000E+00 0. -1.
         21   -1    0    0  501  503 -0.00000000000E+00 -0.00000000000E+00 -0.18964122596E+03  0.18964122596E+03  0.00000000000E+00 0. -1.
    9000007    1    1    2  501    0  0.13588540300E+02 -0.11599320749E+03  0.29028432469E+03  0.50784255609E+03  0.40000000000E+03 0. -1.
   -9000007    1    1    2    0  502 -0.13588540300E+02  0.11599320749E+03  0.45597483366E+03  0.61769905419E+03  0.40000000000E+03 0. -1.
<mgrwt>
<rscale>  2 0.41670022E+03</rscale>
<asrwt>0</asrwt>
<pdfrwt beam="1">  1       21 0.14398467E+00 0.41670022E+03</pdfrwt>
<pdfrwt beam="2">  1       21 0.29175574E-01 0.41670022E+03</pdfrwt>
<totfact> 0.32797877E+03</totfact>
</mgrwt>
</event>
<event>
 4    1  0.4890517E-002  0.4979639E+03  0.7818608E-02  0.1014312E+00
         21   -1    0    0  503  502  0.00000000000E+00  0.00000000000E+00  0.31877005983E+03  0.31877005983E+03  0.00000000000E+00 0. -1.
         21   -1    0    0  501  503 -0.00000000000E+00 -0.00000000000E+00 -0.95365851212E+03  0.95365851212E+03  0.00000000000E+00 0.  1.
    9000007    1    1    2  501    0 -0.19747483930E+03  0.22129551951E+03 -0.59057937922E+03  0.77249726360E+03  0.40000000000E+03 0. -1.
   -9000007    1    1    2    0  502  0.19747483930E+03 -0.22129551951E+03 -0.44309073073E+02  0.49993130835E+03  0.40000000000E+03 0. -1.
<mgrwt>
<rscale>  2 0.49796387E+03</rscale>
<asrwt>0</asrwt>
<pdfrwt beam="1">  1       21 0.49041548E-01 0.49796387E+03</pdfrwt>
<pdfrwt beam="2">  1       21 0.14671669E+00 0.49796387E+03</pdfrwt>
<totfact> 0.10429663E+03</totfact>
</mgrwt>
</event>
<event>
 4    1  0.4890517E-002  0.4268253E+03  0.7818608E-02  0.1034868E+00
         21   -1    0    0  501  502  0.00000000000E+00  0.00000000000E+00  0.89969344123E+03  0.89969344123E+03  0.00000000000E+00 0.  1.
         21   -1    0    0  502  503 -0.00000000000E+00 -0.00000000000E+00 -0.54214774425E+03  0.54214774425E+03  0.00000000000E+00 0.  1.
    9000007    1    1    2  501    0 -0.14890174250E+03 -0.28417062102E+01  0.74939514757E+03  0.86242268721E+03  0.40000000000E+03 0.  1.
   -9000007    1    1    2    0  503  0.14890174250E+03  0.28417062102E+01 -0.39184945058E+03  0.57941849827E+03  0.40000000000E+03 0.  1.
<mgrwt>
<rscale>  2 0.42682526E+03</rscale>
<asrwt>0</asrwt>
<pdfrwt beam="1">  1       21 0.13841438E+00 0.42682526E+03</pdfrwt>
<pdfrwt beam="2">  1       21 0.83407345E-01 0.42682526E+03</pdfrwt>
<totfact> 0.38685527E+02</totfact>
</mgrwt>
</event>
<event>
 4    1  0.4890517E-002  0.4689634E+03  0.7818608E-02  0.1022213E+00
         21   -1    0    0  501  502  0.00000000000E+00  0.00000000000E+00  0.72122565797E+03  0.72122565797E+03  0.00000000000E+00 0.  1.
         21   -1    0    0  502  503 -0.00000000000E+00 -0.00000000000E+00 -0.60770606663E+03  0.60770606663E+03  0.00000000000E+00 0.  1.
    9000007    1    1    2  501    0 -0.24464531611E+03  0.86802481244E+01  0.52577113202E+03  0.70452960241E+03  0.40000000000E+03 0.  1.
   -9000007    1    1    2    0  503  0.24464531611E+03 -0.86802481244E+01 -0.41225154068E+03  0.62440212219E+03  0.40000000000E+03 0.  1.
<mgrwt>
<rscale>  2 0.46896341E+03</rscale>
<asrwt>0</asrwt>
<pdfrwt beam="1">  1       21 0.11095779E+00 0.46896341E+03</pdfrwt>
<pdfrwt beam="2">  1       21 0.93493241E-01 0.46896341E+03</pdfrwt>
<totfact> 0.51055360E+02</totfact>
</mgrwt>
</event>
<event>
 4    1  0.4890517E-002  0.5586514E+03  0.7818608E-02  0.9995111E-01
         21   -1    0    0  501  502  0.00000000000E+00  0.00000000000E+00  0.17743719361E+04  0.17743719361E+04  0.00000000000E+00 0.  1.
         21   -1    0    0  502  503 -0.00000000000E+00 -0.00000000000E+00 -0.19292575745E+03  0.19292575745E+03  0.00000000000E+00 0. -1.
    9000007    1    1    2  501    0  0.56675760530E+02  0.38584867318E+03  0.10830352069E+04  0.12186289836E+04  0.40000000000E+03 0.  1.
   -9000007    1    1    2    0  503 -0.56675760530E+02 -0.38584867318E+03  0.49841097176E+03  0.74866870991E+03  0.40000000000E+03 0. -1.
<mgrwt>
<rscale>  2 0.55865136E+03</rscale>
<asrwt>0</asrwt>
<pdfrwt beam="1">  1       21 0.27298029E+00 0.55865136E+03</pdfrwt>
<pdfrwt beam="2">  1       21 0.29680887E-01 0.55865136E+03</pdfrwt>
<totfact> 0.40404751E+02</totfact>
</mgrwt>
</event>
<event>
 4    1  0.4890517E-002  0.6183431E+03  0.7818608E-02  0.9868064E-01
         21   -1    0    0  503  502  0.00000000000E+00  0.00000000000E+00  0.18992726406E+03  0.18992726406E+03  0.00000000000E+00 0. -1.
         21   -1    0    0  501  503 -0.00000000000E+00 -0.00000000000E+00 -0.21473155725E+04  0.21473155725E+04  0.00000000000E+00 0.  1.
    9000007    1    1    2  501    0 -0.42763282739E+03 -0.19869173480E+03 -0.12708261287E+04  0.14132753765E+04  0.40000000000E+03 0. -1.
   -9000007    1    1    2    0  502  0.42763282739E+03  0.19869173480E+03 -0.68656217977E+03  0.92396746005E+03  0.40000000000E+03 0. -1.
<mgrwt>
<rscale>  2 0.61834314E+03</rscale>
<asrwt>0</asrwt>
<pdfrwt beam="1">  1       21 0.29219579E-01 0.61834314E+03</pdfrwt>
<pdfrwt beam="2">  1       21 0.33035624E+00 0.61834314E+03</pdfrwt>
<totfact> 0.18137399E+02</totfact>
</mgrwt>
</event>
<event>
 4    1  0.4890517E-002  0.4215992E+03  0.7818608E-02  0.1036547E+00
         21   -1    0    0  501  502  0.00000000000E+00  0.00000000000E+00  0.91569676710E+03  0.91569676710E+03  0.00000000000E+00 0. -1.
         21   -1    0    0  502  503 -0.00000000000E+00 -0.00000000000E+00 -0.12232085039E+04  0.12232085039E+04  0.00000000000E+00 0. -1.
    9000007    1    1    2  501    0  0.48568226824E+02  0.12404437476E+03  0.82717813026E+03  0.92842314639E+03  0.40000000000E+03 0. -1.
   -9000007    1    1    2    0  503 -0.48568226824E+02 -0.12404437476E+03 -0.11346898671E+04  0.12104821246E+04  0.40000000000E+03 0. -1.
<mgrwt>
<rscale>  2 0.42159919E+03</rscale>
<asrwt>0</asrwt>
<pdfrwt beam="1">  1       21 0.14087643E+00 0.42159919E+03</pdfrwt>
<pdfrwt beam="2">  1       21 0.18818592E+00 0.42159919E+03</pdfrwt>
<totfact> 0.44901399E+01</totfact>
</mgrwt>
</event>
<event>
 4    1  0.4890517E-002  0.4480439E+03  0.7818608E-02  0.1028307E+00
         21   -1    0    0  503  502  0.00000000000E+00  0.00000000000E+00  0.50855279139E+03  0.50855279139E+03  0.00000000000E+00 0. -1.
         21   -1    0    0  501  503 -0.00000000000E+00 -0.00000000000E+00 -0.43079962834E+03  0.43079962834E+03  0.00000000000E+00 0. -1.
    9000007    1    1    2  501    0  0.19676596237E+03 -0.45017066784E+02 -0.97018603898E+02  0.45842773667E+03  0.40000000000E+03 0. -1.
   -9000007    1    1    2    0  502 -0.19676596237E+03  0.45017066784E+02  0.17477176695E+03  0.48092468305E+03  0.40000000000E+03 0. -1.
<mgrwt>
<rscale>  2 0.44804395E+03</rscale>
<asrwt>0</asrwt>
<pdfrwt beam="1">  1       21 0.78238892E-01 0.44804395E+03</pdfrwt>
<pdfrwt beam="2">  1       21 0.66276865E-01 0.44804395E+03</pdfrwt>
<totfact> 0.26252971E+03</totfact>
</mgrwt>
</event>
<event>
 4    1  0.4890517E-002  0.5253765E+03  0.7818608E-02  0.1007360E+00
         21   -1    0    0  503  502  0.00000000000E+00  0.00000000000E+00  0.59867969122E+03  0.59867969122E+03  0.00000000000E+00 0.  1.
         21   -1    0    0  501  503 -0.00000000000E+00 -0.00000000000E+00 -0.62733979858E+03  0.62733979858E+03  0.00000000000E+00 0.  1.
    9000007    1    1    2  501    0  0.18310958224E+03  0.28721306956E+03 -0.32993988152E+03  0.62038761420E+03  0.40000000000E+03 0.  1.
   -9000007    1    1    2    0  502 -0.18310958224E+03 -0.28721306956E+03  0.30127977416E+03  0.60563187561E+03  0.40000000000E+03 0.  1.
<mgrwt>
<rscale>  2 0.52537650E+03</rscale>
<asrwt>0</asrwt>
<pdfrwt beam="1">  1       21 0.92104569E-01 0.52537650E+03</pdfrwt>
<pdfrwt beam="2">  1       21 0.96513814E-01 0.52537650E+03</pdfrwt>
<totfact> 0.72890403E+02</totfact>
</mgrwt>
</event>
<event>
 4    1  0.4890517E-002  0.4179646E+03  0.7818608E-02  0.1037731E+00
         21   -1    0    0  501  502  0.00000000000E+00  0.00000000000E+00  0.16605620429E+04  0.16605620429E+04  0.00000000000E+00 0. -1.
         21   -1    0    0  502  503 -0.00000000000E+00 -0.00000000000E+00 -0.11191970073E+03  0.11191970073E+03  0.00000000000E+00 0. -1.
    9000007    1    1    2  501    0 -0.10606637228E+03  0.58688747927E+02  0.99144570580E+03  0.10759456455E+04  0.40000000000E+03 0. -1.
   -9000007    1    1    2    0  503  0.10606637228E+03 -0.58688747927E+02  0.55719663639E+03  0.69653609818E+03  0.40000000000E+03 0. -1.
<mgrwt>
<rscale>  2 0.41796464E+03</rscale>
<asrwt>0</asrwt>
<pdfrwt beam="1">  1       21 0.25547107E+00 0.41796464E+03</pdfrwt>
<pdfrwt beam="2">  1       21 0.17218417E-01 0.41796464E+03</pdfrwt>
<totfact> 0.15806339E+03</totfact>
</mgrwt>
</event>
<event>
 4    1  0.4890517E-002  0.4195986E+03  0.7818608E-02  0.1037197E+00
         21   -1    0    0  501  502  0.00000000000E+00  0.00000000000E+00  0.60131357241E+03  0.60131357241E+03  0.00000000000E+00 0.  1.
         21   -1    0    0  502  503 -0.00000000000E+00 -0.00000000000E+00 -0.30393278144E+03  0.30393278144E+03  0.00000000000E+00 0.  1.
    9000007    1    1    2  501    0  0.72365700400E+02  0.10404904873E+03  0.23532716177E+03  0.48108405940E+03  0.40000000000E+03 0. -1.
   -9000007    1    1    2    0  503 -0.72365700400E+02 -0.10404904873E+03  0.62053629200E+02  0.42416229445E+03  0.40000000000E+03 0. -1.
<mgrwt>
<rscale>  2 0.41959862E+03</rscale>
<asrwt>0</asrwt>
<pdfrwt beam="1">  1       21 0.92509780E-01 0.41959862E+03</pdfrwt>
<pdfrwt beam="2">  1       21 0.46758890E-01 0.41959862E+03</pdfrwt>
<totfact> 0.38132093E+03</totfact>
</mgrwt>
</event>
<event>
 4    1  0.4890517E-002  0.5045601E+03  0.7818608E-02  0.1012595E+00
         21   -1    0    0  501  502  0.00000000000E+00  0.00000000000E+00  0.14489293256E+04  0.14489293256E+04  0.00000000000E+00 0.  1.
         21   -1    0    0  502  503 -0.00000000000E+00 -0.00000000000E+00 -0.20901156907E+03  0.20901156907E+03  0.00000000000E+00 0.  1.
    9000007    1    1    2  501    0 -0.23396356413E+03 -0.19960442244E+03  0.95088684318E+03  0.10764602470E+04  0.40000000000E+03 0.  1.
   -9000007    1    1    2    0  503  0.23396356413E+03  0.19960442244E+03  0.28903091339E+03  0.58148064774E+03  0.40000000000E+03 0.  1.
<mgrwt>
<rscale>  2 0.50456008E+03</rscale>
<asrwt>0</asrwt>
<pdfrwt beam="1">  1       21 0.22291220E+00 0.50456008E+03</pdfrwt>
<pdfrwt beam="2">  1       21 0.32155627E-01 0.50456008E+03</pdfrwt>
<totfact> 0.72166967E+02</totfact>
</mgrwt>
</event>
<event>
 4    1  0.4890517E-002  0.4210877E+03  0.7818608E-02  0.1036713E+00
         21   -1    0    0  503  502  0.00000000000E+00  0.00000000000E+00  0.19303825900E+04  0.19303825900E+04  0.00000000000E+00 0. -1.
         21   -1    0    0  501  503 -0.00000000000E+00 -0.00000000000E+00 -0.12507340142E+03  0.12507340142E+03  0.00000000000E+00 0. -1.
    9000007    1    1    2  501    0  0.20326341084E+02 -0.13000641276E+03  0.37300743571E+03  0.56253833167E+03  0.40000000000E+03 0. -1.
   -9000007    1    1    2    0  502 -0.20326341084E+02  0.13000641276E+03  0.14323017529E+04  0.14929176598E+04  0.40000000000E+03 0. -1.
<mgrwt>
<rscale>  2 0.42108767E+03</rscale>
<asrwt>0</asrwt>
<pdfrwt beam="1">  1       21 0.29698192E+00 0.42108767E+03</pdfrwt>
<pdfrwt beam="2">  1       21 0.19242063E-01 0.42108767E+03</pdfrwt>
<totfact> 0.71960191E+02</totfact>
</mgrwt>
</event>
<event>
 4    1  0.4890517E-002  0.4804704E+03  0.7818608E-02  0.1019006E+00
         21   -1    0    0  503  502  0.00000000000E+00  0.00000000000E+00  0.20893859862E+03  0.20893859862E+03  0.00000000000E+00 0.  1.
         21   -1    0    0  501  503 -0.00000000000E+00 -0.00000000000E+00 -0.17696218609E+04  0.17696218609E+04  0.00000000000E+00 0.  1.
    9000007    1    1    2  501    0 -0.24651119445E+02  0.26503600236E+03 -0.13866675102E+04  0.14675484810E+04  0.40000000000E+03 0.  1.
   -9000007    1    1    2    0  502  0.24651119445E+02 -0.26503600236E+03 -0.17401575210E+03  0.51101197854E+03  0.40000000000E+03 0.  1.
<mgrwt>
<rscale>  2 0.48047035E+03</rscale>
<asrwt>0</asrwt>
<pdfrwt beam="1">  1       21 0.32144400E-01 0.48047035E+03</pdfrwt>
<pdfrwt beam="2">  1       21 0.27224952E+00 0.48047035E+03</pdfrwt>
<totfact> 0.36128868E+02</totfact>
</mgrwt>
</event>
<event>
 4    1  0.4890517E-002  0.4679180E+03  0.7818608E-02  0.1022509E+00
         21   -1    0    0  503  502  0.00000000000E+00  0.00000000000E+00  0.24242132090E+03  0.24242132090E+03  0.00000000000E+00 0.  1.
         21   -1    0    0  501  503 -0.00000000000E+00 -0.00000000000E+00 -0.16144892814E+04  0.16144892814E+04  0.00000000000E+00 0.  1.
    9000007    1    1    2  501    0  0.59606663005E+02 -0.23535995837E+03 -0.13023113376E+04  0.13838215507E+04  0.40000000000E+03 0.  1.
   -9000007    1    1    2    0  502 -0.59606663005E+02  0.23535995837E+03 -0.69756622919E+02  0.47308905157E+03  0.40000000000E+03 0.  1.
<mgrwt>
<rscale>  2 0.46791801E+03</rscale>
<asrwt>0</asrwt>
<pdfrwt beam="1">  1       21 0.37295589E-01 0.46791801E+03</pdfrwt>
<pdfrwt beam="2">  1       21 0.24838296E+00 0.46791801E+03</pdfrwt>
<totfact> 0.37661509E+02</totfact>
</mgrwt>
</event>
<event>
 4    1  0.4890517E-002  0.4057115E+03  0.7818608E-02  0.1041820E+00
         21   -1    0    0  503  502  0.00000000000E+00  0.00000000000E+00  0.57210984186E+03  0.57210984186E+03  0.00000000000E+00 0. -1.
         21   -1    0    0  501  503 -0.00000000000E+00 -0.00000000000E+00 -0.41500921372E+03  0.41500921372E+03  0.00000000000E+00 0. -1.
    9000007    1    1    2  501    0 -0.73356580360E+01  0.67438748867E+02 -0.19480234965E+03  0.45005527678E+03  0.40000000000E+03 0. -1.
   -9000007    1    1    2    0  502  0.73356580360E+01 -0.67438748867E+02  0.35190297779E+03  0.53706377880E+03  0.40000000000E+03 0. -1.
<mgrwt>
<rscale>  2 0.40571147E+03</rscale>
<asrwt>0</asrwt>
<pdfrwt beam="1">  1       21 0.88016899E-01 0.40571147E+03</pdfrwt>
<pdfrwt beam="2">  1       21 0.63847571E-01 0.40571147E+03</pdfrwt>
<totfact> 0.22047425E+03</totfact>
</mgrwt>
</event>
<event>
 4    1  0.4890517E-002  0.5711792E+03  0.7818608E-02  0.9967073E-01
         21   -1    0    0  501  502  0.00000000000E+00  0.00000000000E+00  0.13637103704E+04  0.13637103704E+04  0.00000000000E+00 0. -1.
         21   -1    0    0  502  503 -0.00000000000E+00 -0.00000000000E+00 -0.30451443545E+03  0.30451443545E+03  0.00000000000E+00 0.  1.
    9000007    1    1    2  501    0 -0.38371784507E+03 -0.13786334698E+03  0.14339763361E+03  0.58890454947E+03  0.40000000000E+03 0.  1.
   -9000007    1    1    2    0  503  0.38371784507E+03  0.13786334698E+03  0.91579830130E+03  0.10793202563E+04  0.40000000000E+03 0. -1.
<mgrwt>
<rscale>  2 0.57117921E+03</rscale>
<asrwt>0</asrwt>
<pdfrwt beam="1">  1       21 0.20980159E+00 0.57117921E+03</pdfrwt>
<pdfrwt beam="2">  1       21 0.46848375E-01 0.57117921E+03</pdfrwt>
<totfact> 0.39337038E+02</totfact>
</mgrwt>
</event>
<event>
 4    1  0.4890517E-002  0.4115923E+03  0.7818608E-02  0.1039838E+00
         21   -1    0    0  501  502  0.00000000000E+00  0.00000000000E+00  0.89410623707E+03  0.89410623707E+03  0.00000000000E+00 0.  1.
         21   -1    0    0  502  503 -0.00000000000E+00 -0.00000000000E+00 -0.40211158042E+03  0.40211158042E+03  0.00000000000E+00 0.  1.
    9000007    1    1    2  501    0  0.63698671105E+02 -0.73148459715E+02  0.71729643455E+03  0.82699600536E+03  0.40000000000E+03 0.  1.
   -9000007    1    1    2    0  503 -0.63698671105E+02  0.73148459715E+02 -0.22530177790E+03  0.46922181214E+03  0.40000000000E+03 0.  1.
<mgrwt>
<rscale>  2 0.41159230E+03</rscale>
<asrwt>0</asrwt>
<pdfrwt beam="1">  1       21 0.13755481E+00 0.41159230E+03</pdfrwt>
<pdfrwt beam="2">  1       21 0.61863320E-01 0.41159230E+03</pdfrwt>
<totfact> 0.77844790E+02</totfact>
</mgrwt>
</event>
<event>
 4    1  0.4890517E-002  0.4487528E+03  0.7818608E-02  0.1028095E+00
         21   -1    0    0  503  502  0.00000000000E+00  0.00000000000E+00  0.49830894674E+03  0.49830894674E+03  0.00000000000E+00 0. -1.
         21   -1    0    0  501  503 -0.00000000000E+00 -0.00000000000E+00 -0.44251852318E+03  0.44251852318E+03  0.00000000000E+00 0. -1.
    9000007    1    1    2  501    0  0.52067993390E+02 -0.19664189580E+03  0.16645689772E+03  0.47863034789E+03  0.40000000000E+03 0. -1.
   -9000007    1    1    2    0  502 -0.52067993390E+02  0.19664189580E+03 -0.11066647416E+03  0.46219712204E+03  0.40000000000E+03 0. -1.
<mgrwt>
<rscale>  2 0.44875284E+03</rscale>
<asrwt>0</asrwt>
<pdfrwt beam="1">  1       21 0.76662916E-01 0.44875284E+03</pdfrwt>
<pdfrwt beam="2">  1       21 0.68079772E-01 0.44875284E+03</pdfrwt>
<totfact> 0.25899927E+03</totfact>
</mgrwt>
</event>
<event>
 4    1  0.4890517E-002  0.4171187E+03  0.7818608E-02  0.1038008E+00
         21   -1    0    0  503  502  0.00000000000E+00  0.00000000000E+00  0.43185178026E+03  0.43185178026E+03  0.00000000000E+00 0. -1.
         21   -1    0    0  501  503 -0.00000000000E+00 -0.00000000000E+00 -0.17298385380E+04  0.17298385380E+04  0.00000000000E+00 0. -1.
    9000007    1    1    2  501    0  0.11815947323E+03 -0.51300295152E+01 -0.15956403190E+04  0.16492592294E+04  0.40000000000E+03 0. -1.
   -9000007    1    1    2    0  502 -0.11815947323E+03  0.51300295152E+01  0.29765356122E+03  0.51243108885E+03  0.40000000000E+03 0. -1.
<mgrwt>
<rscale>  2 0.41711866E+03</rscale>
<asrwt>0</asrwt>
<pdfrwt beam="1">  1       21 0.66438736E-01 0.41711866E+03</pdfrwt>
<pdfrwt beam="2">  1       21 0.26612900E+00 0.41711866E+03</pdfrwt>
<totfact> 0.88511868E+01</totfact>
</mgrwt>
</event>
<event>
 4    1  0.4890517E-002  0.4203576E+03  0.7818608E-02  0.1036950E+00
         21   -1    0    0  503  502  0.00000000000E+00  0.00000000000E+00  0.30733407414E+03  0.30733407414E+03  0.00000000000E+00 0.  1.
         21   -1    0    0  501  503 -0.00000000000E+00 -0.00000000000E+00 -0.64553971078E+03  0.64553971078E+03  0.00000000000E+00 0.  1.
    9000007    1    1    2  501    0 -0.60205722283E+02 -0.11434920619E+03 -0.32665599858E+03  0.53235759726E+03  0.40000000000E+03 0. -1.
   -9000007    1    1    2    0  502  0.60205722283E+02  0.11434920619E+03 -0.11549638060E+02  0.42051618767E+03  0.40000000000E+03 0. -1.
<mgrwt>
<rscale>  2 0.42035755E+03</rscale>
<asrwt>0</asrwt>
<pdfrwt beam="1">  1       21 0.47282166E-01 0.42035755E+03</pdfrwt>
<pdfrwt beam="2">  1       21 0.99313801E-01 0.42035755E+03</pdfrwt>
<totfact> 0.31412151E+03</totfact>
</mgrwt>
</event>
<event>
 4    1  0.4890517E-002  0.4152692E+03  0.7818608E-02  0.1038617E+00
         21   -1    0    0  503  502  0.00000000000E+00  0.00000000000E+00  0.64466918454E+03  0.64466918454E+03  0.00000000000E+00 0.  1.
         21   -1    0    0  501  503 -0.00000000000E+00 -0.00000000000E+00 -0.26753803030E+03  0.26753803030E+03  0.00000000000E+00 0.  1.
    9000007    1    1    2  501    0 -0.84189058788E+02 -0.73216914231E+02  0.18307325093E+03  0.45383293111E+03  0.40000000000E+03 0.  1.
   -9000007    1    1    2    0  502  0.84189058788E+02  0.73216914231E+02  0.19405790330E+03  0.45837428373E+03  0.40000000000E+03 0.  1.
<mgrwt>
<rscale>  2 0.41526921E+03</rscale>
<asrwt>0</asrwt>
<pdfrwt beam="1">  1       21 0.99179874E-01 0.41526921E+03</pdfrwt>
<pdfrwt beam="2">  1       21 0.41159697E-01 0.41526921E+03</pdfrwt>
<totfact> 0.42164872E+03</totfact>
</mgrwt>
</event>
<event>
 4    1  0.4890517E-002  0.4274473E+03  0.7818608E-02  0.1034669E+00
         21   -1    0    0  503  502  0.00000000000E+00  0.00000000000E+00  0.18195614432E+04  0.18195614432E+04  0.00000000000E+00 0. -1.
         21   -1    0    0  501  503 -0.00000000000E+00 -0.00000000000E+00 -0.57246511963E+03  0.57246511963E+03  0.00000000000E+00 0. -1.
    9000007    1    1    2  501    0 -0.14056653764E+03 -0.54334591669E+02 -0.46251619072E+03  0.62978760390E+03  0.40000000000E+03 0. -1.
   -9000007    1    1    2    0  502  0.14056653764E+03  0.54334591669E+02  0.17096125142E+04  0.17622389589E+04  0.40000000000E+03 0. -1.
<mgrwt>
<rscale>  2 0.42744731E+03</rscale>
<asrwt>0</asrwt>
<pdfrwt beam="1">  1       21 0.27993253E+00 0.42744731E+03</pdfrwt>
<pdfrwt beam="2">  1       21 0.88071558E-01 0.42744731E+03</pdfrwt>
<totfact> 0.38073887E+01</totfact>
</mgrwt>
</event>
<event>
 4    1  0.4890517E-002  0.4508966E+03  0.7818608E-02  0.1027455E+00
         21   -1    0    0  501  502  0.00000000000E+00  0.00000000000E+00  0.69609553594E+03  0.69609553594E+03  0.00000000000E+00 0.  1.
         21   -1    0    0  502  503 -0.00000000000E+00 -0.00000000000E+00 -0.29338099977E+03  0.29338099977E+03  0.00000000000E+00 0.  1.
    9000007    1    1    2  501    0 -0.10640705070E+03  0.17884427962E+03  0.16826918309E+03  0.48127149798E+03  0.40000000000E+03 0.  1.
   -9000007    1    1    2    0  503  0.10640705070E+03 -0.17884427962E+03  0.23444535308E+03  0.50820503773E+03  0.40000000000E+03 0.  1.
<mgrwt>
<rscale>  2 0.45089659E+03</rscale>
<asrwt>0</asrwt>
<pdfrwt beam="1">  1       21 0.10709162E+00 0.45089659E+03</pdfrwt>
<pdfrwt beam="2">  1       21 0.45135539E-01 0.45089659E+03</pdfrwt>
<totfact> 0.28470332E+03</totfact>
</mgrwt>
</event>
<event>
 4    1  0.4890517E-002  0.5876257E+03  0.7818608E-02  0.9931417E-01
         21   -1    0    0  501  502  0.00000000000E+00  0.00000000000E+00  0.18342291075E+04  0.18342291075E+04  0.00000000000E+00 0. -1.
         21   -1    0    0  502  503 -0.00000000000E+00 -0.00000000000E+00 -0.19174151179E+03  0.19174151179E+03  0.00000000000E+00 0. -1.
    9000007    1    1    2  501    0  0.23033386182E+03  0.36366233825E+03  0.95782799430E+03  0.11237163569E+04  0.40000000000E+03 0. -1.
   -9000007    1    1    2    0  503 -0.23033386182E+03 -0.36366233825E+03  0.68465960144E+03  0.90225426239E+03  0.40000000000E+03 0. -1.
<mgrwt>
<rscale>  2 0.58762572E+03</rscale>
<asrwt>0</asrwt>
<pdfrwt beam="1">  1       21 0.28218908E+00 0.58762572E+03</pdfrwt>
<pdfrwt beam="2">  1       21 0.29498695E-01 0.58762572E+03</pdfrwt>
<totfact> 0.35488385E+02</totfact>
</mgrwt>
</event>
<event>
 4    1  0.4890517E-002  0.4583961E+03  0.7818608E-02  0.1025247E+00
         21   -1    0    0  503  502  0.00000000000E+00  0.00000000000E+00  0.23959622395E+03  0.23959622395E+03  0.00000000000E+00 0.  1.
         21   -1    0    0  501  503 -0.00000000000E+00 -0.00000000000E+00 -0.11073667028E+04  0.11073667028E+04  0.00000000000E+00 0. -1.
    9000007    1    1    2  501    0  0.82312645536E+02  0.20821060531E+03 -0.74105982934E+03  0.87137632424E+03  0.40000000000E+03 0. -1.
   -9000007    1    1    2    0  502 -0.82312645536E+02 -0.20821060531E+03 -0.12671064950E+03  0.47558660250E+03  0.40000000000E+03 0.  1.
<mgrwt>
<rscale>  2 0.45839615E+03</rscale>
<asrwt>0</asrwt>
<pdfrwt beam="1">  1       21 0.36860957E-01 0.45839615E+03</pdfrwt>
<pdfrwt beam="2">  1       21 0.17036411E+00 0.45839615E+03</pdfrwt>
<totfact> 0.12676169E+03</totfact>
</mgrwt>
</event>
<event>
 4    1  0.4890517E-002  0.4025197E+03  0.7818608E-02  0.1042911E+00
         21   -1    0    0  501  502  0.00000000000E+00  0.00000000000E+00  0.25050846065E+03  0.25050846065E+03  0.00000000000E+00 0.  1.
         21   -1    0    0  502  503 -0.00000000000E+00 -0.00000000000E+00 -0.79012430165E+03  0.79012430165E+03  0.00000000000E+00 0.  1.
    9000007    1    1    2  501    0 -0.21458431042E+02  0.39518017527E+02 -0.48182061353E+02  0.40539320296E+03  0.40000000000E+03 0.  1.
   -9000007    1    1    2    0  503  0.21458431042E+02 -0.39518017527E+02 -0.49143377964E+03  0.63523955934E+03  0.40000000000E+03 0.  1.
<mgrwt>
<rscale>  2 0.40251974E+03</rscale>
<asrwt>0</asrwt>
<pdfrwt beam="1">  1       21 0.38539764E-01 0.40251974E+03</pdfrwt>
<pdfrwt beam="2">  1       21 0.12155758E+00 0.40251974E+03</pdfrwt>
<totfact> 0.29306135E+03</totfact>
</mgrwt>
</event>
<event>
 4    1  0.4890517E-002  0.4754377E+03  0.7818608E-02  0.1020397E+00
         21   -1    0    0  503  502  0.00000000000E+00  0.00000000000E+00  0.50316672347E+03  0.50316672347E+03  0.00000000000E+00 0.  1.
         21   -1    0    0  501  503 -0.00000000000E+00 -0.00000000000E+00 -0.74324018727E+03  0.74324018727E+03  0.00000000000E+00 0. -1.
    9000007    1    1    2  501    0  0.24152020092E+03 -0.87801039767E+02 -0.51199641359E+03  0.69869976211E+03  0.40000000000E+03 0. -1.
   -9000007    1    1    2    0  502 -0.24152020092E+03  0.87801039767E+02  0.27192294979E+03  0.54770714863E+03  0.40000000000E+03 0.  1.
<mgrwt>
<rscale>  2 0.47543772E+03</rscale>
<asrwt>0</asrwt>
<pdfrwt beam="1">  1       21 0.77410265E-01 0.47543772E+03</pdfrwt>
<pdfrwt beam="2">  1       21 0.11434464E+00 0.47543772E+03</pdfrwt>
<totfact> 0.73517619E+02</totfact>
</mgrwt>
</event>
<event>
 4    1  0.4890517E-002  0.4381744E+03  0.7818608E-02  0.1031308E+00
         21   -1    0    0  501  502  0.00000000000E+00  0.00000000000E+00  0.87444514804E+03  0.87444514804E+03  0.00000000000E+00 0. -1.
         21   -1    0    0  502  503 -0.00000000000E+00 -0.00000000000E+00 -0.22757717313E+03  0.22757717313E+03  0.00000000000E+00 0. -1.
    9000007    1    1    2  501    0 -0.56313650785E+02 -0.16978090473E+03  0.22004007963E+03  0.49032073128E+03  0.40000000000E+03 0. -1.
   -9000007    1    1    2    0  503  0.56313650785E+02  0.16978090473E+03  0.42682789528E+03  0.61170158989E+03  0.40000000000E+03 0. -1.
<mgrwt>
<rscale>  2 0.43817437E+03</rscale>
<asrwt>0</asrwt>
<pdfrwt beam="1">  1       21 0.13453002E+00 0.43817437E+03</pdfrwt>
<pdfrwt beam="2">  1       21 0.35011873E-01 0.43817437E+03</pdfrwt>
<totfact> 0.27038211E+03</totfact>
</mgrwt>
</event>
<event>
 4    1  0.4890517E-002  0.4756295E+03  0.7818608E-02  0.1020343E+00
         21   -1    0    0  501  502  0.00000000000E+00  0.00000000000E+00  0.25289603869E+03  0.25289603869E+03  0.00000000000E+00 0. -1.
         21   -1    0    0  502  503 -0.00000000000E+00 -0.00000000000E+00 -0.10892401237E+04  0.10892401237E+04  0.00000000000E+00 0.  1.
    9000007    1    1    2  501    0  0.17546180454E+03 -0.18824598298E+03 -0.13444697765E+03  0.49426651187E+03  0.40000000000E+03 0. -1.
   -9000007    1    1    2    0  503 -0.17546180454E+03  0.18824598298E+03 -0.70189710734E+03  0.84786965051E+03  0.40000000000E+03 0.  1.
<mgrwt>
<rscale>  2 0.47562947E+03</rscale>
<asrwt>0</asrwt>
<pdfrwt beam="1">  1       21 0.38907082E-01 0.47562947E+03</pdfrwt>
<pdfrwt beam="2">  1       21 0.16757541E+00 0.47562947E+03</pdfrwt>
<totfact> 0.11810432E+03</totfact>
</mgrwt>
</event>
<event>
 4    1  0.4890517E-002  0.4083765E+03  0.7818608E-02  0.1040917E+00
         21   -1    0    0  503  502  0.00000000000E+00  0.00000000000E+00  0.93173629601E+03  0.93173629601E+03  0.00000000000E+00 0.  1.
         21   -1    0    0  501  503 -0.00000000000E+00 -0.00000000000E+00 -0.21978698663E+03  0.21978698663E+03  0.00000000000E+00 0.  1.
    9000007    1    1    2  501    0  0.32301362244E+02 -0.75683263503E+02  0.60403458262E+03  0.72912900874E+03  0.40000000000E+03 0.  1.
   -9000007    1    1    2    0  502 -0.32301362244E+02  0.75683263503E+02  0.10791472676E+03  0.42239427391E+03  0.40000000000E+03 0.  1.
<mgrwt>
<rscale>  2 0.40837646E+03</rscale>
<asrwt>0</asrwt>
<pdfrwt beam="1">  1       21 0.14334404E+00 0.40837646E+03</pdfrwt>
<pdfrwt beam="2">  1       21 0.33813383E-01 0.40837646E+03</pdfrwt>
<totfact> 0.24816998E+03</totfact>
</mgrwt>
</event>
<event>
 4    1  0.4890517E-002  0.4155199E+03  0.7818608E-02  0.1038534E+00
         21   -1    0    0  501  502  0.00000000000E+00  0.00000000000E+00  0.28018088469E+03  0.28018088469E+03  0.00000000000E+00 0.  1.
         21   -1    0    0  502  503 -0.00000000000E+00 -0.00000000000E+00 -0.64924532421E+03  0.64924532421E+03  0.00000000000E+00 0.  1.
    9000007    1    1    2  501    0  0.72898125102E+02  0.85689073817E+02 -0.79742795621E+02  0.42310243141E+03  0.40000000000E+03 0.  1.
   -9000007    1    1    2    0  503 -0.72898125102E+02 -0.85689073817E+02 -0.28932164390E+03  0.50632377748E+03  0.40000000000E+03 0.  1.
<mgrwt>
<rscale>  2 0.41551986E+03</rscale>
<asrwt>0</asrwt>
<pdfrwt beam="1">  1       21 0.43104752E-01 0.41551986E+03</pdfrwt>
<pdfrwt beam="2">  1       21 0.99883895E-01 0.41551986E+03</pdfrwt>
<totfact> 0.37664840E+03</totfact>
</mgrwt>
</event>
<event>
 4    1  0.4890517E-002  0.4043401E+03  0.7818608E-02  0.1042287E+00
         21   -1    0    0  503  502  0.00000000000E+00  0.00000000000E+00  0.27144141915E+03  0.27144141915E+03  0.00000000000E+00 0. -1.
         21   -1    0    0  501  503 -0.00000000000E+00 -0.00000000000E+00 -0.73513815081E+03  0.73513815081E+03  0.00000000000E+00 0. -1.
    9000007    1    1    2  501    0 -0.34525637811E+02  0.47946705170E+02 -0.44578471001E+03  0.60184293124E+03  0.40000000000E+03 0. -1.
   -9000007    1    1    2    0  502  0.34525637811E+02 -0.47946705170E+02 -0.17912021650E+02  0.40473663872E+03  0.40000000000E+03 0. -1.
<mgrwt>
<rscale>  2 0.40434009E+03</rscale>
<asrwt>0</asrwt>
<pdfrwt beam="1">  1       21 0.41760219E-01 0.40434009E+03</pdfrwt>
<pdfrwt beam="2">  1       21 0.11309818E+00 0.40434009E+03</pdfrwt>
<totfact> 0.29761427E+03</totfact>
</mgrwt>
</event>
<event>
 4    1  0.4890517E-002  0.6367389E+03  0.7818608E-02  0.9831986E-01
         21   -1    0    0  503  502  0.00000000000E+00  0.00000000000E+00  0.83895267665E+03  0.83895267665E+03  0.00000000000E+00 0. -1.
         21   -1    0    0  501  503 -0.00000000000E+00 -0.00000000000E+00 -0.49032078477E+03  0.49032078477E+03  0.00000000000E+00 0.  1.
    9000007    1    1    2  501    0 -0.39052836139E+03  0.30483449858E+03  0.94586897302E+02  0.64372599273E+03  0.40000000000E+03 0.  1.
   -9000007    1    1    2    0  502  0.39052836139E+03 -0.30483449858E+03  0.25404499458E+03  0.68554746870E+03  0.40000000000E+03 0.  1.
<mgrwt>
<rscale>  2 0.63673894E+03</rscale>
<asrwt>0</asrwt>
<pdfrwt beam="1">  1       21 0.12906964E+00 0.63673894E+03</pdfrwt>
<pdfrwt beam="2">  1       21 0.75433967E-01 0.63673894E+03</pdfrwt>
<totfact> 0.54030593E+02</totfact>
</mgrwt>
</event>
<event>
 4    1  0.4890517E-002  0.4952041E+03  0.7818608E-02  0.1015038E+00
         21   -1    0    0  501  502  0.00000000000E+00  0.00000000000E+00  0.12795198246E+03  0.12795198246E+03  0.00000000000E+00 0.  1.
         21   -1    0    0  502  503 -0.00000000000E+00 -0.00000000000E+00 -0.19247852386E+04  0.19247852386E+04  0.00000000000E+00 0.  1.
    9000007    1    1    2  501    0 -0.16159806291E+02 -0.29148919952E+03 -0.96552886659E+03  0.10851143189E+04  0.40000000000E+03 0.  1.
   -9000007    1    1    2    0  503  0.16159806291E+02  0.29148919952E+03 -0.83130438957E+03  0.96762290221E+03  0.40000000000E+03 0.  1.
<mgrwt>
<rscale>  2 0.49520409E+03</rscale>
<asrwt>0</asrwt>
<pdfrwt beam="1">  1       21 0.19684920E-01 0.49520409E+03</pdfrwt>
<pdfrwt beam="2">  1       21 0.29612081E+00 0.49520409E+03</pdfrwt>
<totfact> 0.66982811E+02</totfact>
</mgrwt>
</event>
<event>
 4    1  0.4890517E-002  0.1215884E+04  0.7818608E-02  0.9099066E-01
         21   -1    0    0  503  502  0.00000000000E+00  0.00000000000E+00  0.95954016704E+03  0.95954016704E+03  0.00000000000E+00 0. -1.
         21   -1    0    0  501  503 -0.00000000000E+00 -0.00000000000E+00 -0.18092823118E+04  0.18092823118E+04  0.00000000000E+00 0. -1.
    9000007    1    1    2  501    0  0.80207545093E+03 -0.82161390251E+03 -0.95825689566E+03  0.15481055235E+04  0.40000000000E+03 0. -1.
   -9000007    1    1    2    0  502 -0.80207545093E+03  0.82161390251E+03  0.10851475095E+03  0.12207169553E+04  0.40000000000E+03 0. -1.
<mgrwt>
<rscale>  2 0.12158842E+04</rscale>
<asrwt>0</asrwt>
<pdfrwt beam="1">  1       21 0.14762156E+00 0.12158842E+04</pdfrwt>
<pdfrwt beam="2">  1       21 0.27835112E+00 0.12158842E+04</pdfrwt>
<totfact> 0.75609612E+00</totfact>
</mgrwt>
</event>
<event>
 4    1  0.4890517E-002  0.4704443E+03  0.7818608E-02  0.1021795E+00
         21   -1    0    0  503  502  0.00000000000E+00  0.00000000000E+00  0.46527277457E+03  0.46527277457E+03  0.00000000000E+00 0. -1.
         21   -1    0    0  501  503 -0.00000000000E+00 -0.00000000000E+00 -0.48750709249E+03  0.48750709249E+03  0.00000000000E+00 0. -1.
    9000007    1    1    2  501    0  0.86373768932E+01 -0.24747378478E+03 -0.85339117663E+02  0.47812199640E+03  0.40000000000E+03 0. -1.
   -9000007    1    1    2    0  502 -0.86373768932E+01  0.24747378478E+03  0.63104799738E+02  0.47465787066E+03  0.40000000000E+03 0. -1.
<mgrwt>
<rscale>  2 0.47044434E+03</rscale>
<asrwt>0</asrwt>
<pdfrwt beam="1">  1       21 0.71580427E-01 0.47044434E+03</pdfrwt>
<pdfrwt beam="2">  1       21 0.75001091E-01 0.47044434E+03</pdfrwt>
<totfact> 0.24136461E+03</totfact>
</mgrwt>
</event>
<event>
 4    1  0.4890517E-002  0.4270669E+03  0.7818608E-02  0.1034791E+00
         21   -1    0    0  501  502  0.00000000000E+00  0.00000000000E+00  0.75076929377E+03  0.75076929377E+03  0.00000000000E+00 0. -1.
         21   -1    0    0  502  503 -0.00000000000E+00 -0.00000000000E+00 -0.33889589687E+03  0.33889589687E+03  0.00000000000E+00 0. -1.
    9000007    1    1    2  501    0  0.75910473928E+02 -0.12893311253E+03  0.49585996962E+03  0.65441825848E+03  0.40000000000E+03 0. -1.
   -9000007    1    1    2    0  503 -0.75910473928E+02  0.12893311253E+03 -0.83986572712E+02  0.43524693216E+03  0.40000000000E+03 0. -1.
<mgrwt>
<rscale>  2 0.42706691E+03</rscale>
<asrwt>0</asrwt>
<pdfrwt beam="1">  1       21 0.11550297E+00 0.42706691E+03</pdfrwt>
<pdfrwt beam="2">  1       21 0.52137831E-01 0.42706691E+03</pdfrwt>
<totfact> 0.17547133E+03</totfact>
</mgrwt>
</event>
<event>
 4    1  0.4890517E-002  0.4332551E+03  0.7818608E-02  0.1032837E+00
         21   -1    0    0  503  502  0.00000000000E+00  0.00000000000E+00  0.14602467385E+03  0.14602467385E+03  0.00000000000E+00 0.  1.
         21   -1    0    0  501  503 -0.00000000000E+00 -0.00000000000E+00 -0.17134494766E+04  0.17134494766E+04  0.00000000000E+00 0. -1.
    9000007    1    1    2  501    0  0.13101549156E+03  0.10268865364E+03 -0.12483743162E+04  0.13214191053E+04  0.40000000000E+03 0. -1.
   -9000007    1    1    2    0  502 -0.13101549156E+03 -0.10268865364E+03 -0.31905048660E+03  0.53805504515E+03  0.40000000000E+03 0.  1.
<mgrwt>
<rscale>  2 0.43325514E+03</rscale>
<asrwt>0</asrwt>
<pdfrwt beam="1">  1       21 0.22465334E-01 0.43325514E+03</pdfrwt>
<pdfrwt beam="2">  1       21 0.26360761E+00 0.43325514E+03</pdfrwt>
<totfact> 0.84457667E+02</totfact>
</mgrwt>
</event>
<event>
 4    1  0.4890517E-002  0.4710273E+03  0.7818608E-02  0.1021631E+00
         21   -1    0    0  501  502  0.00000000000E+00  0.00000000000E+00  0.17265426096E+03  0.17265426096E+03  0.00000000000E+00 0.  1.
         21   -1    0    0  502  503 -0.00000000000E+00 -0.00000000000E+00 -0.12855256757E+04  0.12855256757E+04  0.00000000000E+00 0.  1.
    9000007    1    1    2  501    0  0.88776024792E+02 -0.23234779093E+03 -0.54218396859E+03  0.71821315382E+03  0.40000000000E+03 0.  1.
   -9000007    1    1    2    0  503 -0.88776024792E+02  0.23234779093E+03 -0.57068744619E+03  0.73996678288E+03  0.40000000000E+03 0.  1.
<mgrwt>
<rscale>  2 0.47102726E+03</rscale>
<asrwt>0</asrwt>
<pdfrwt beam="1">  1       21 0.26562196E-01 0.47102726E+03</pdfrwt>
<pdfrwt beam="2">  1       21 0.19777317E+00 0.47102726E+03</pdfrwt>
<totfact> 0.15623346E+03</totfact>
</mgrwt>
</event>
<event>
 4    1  0.4890517E-002  0.5371497E+03  0.7818608E-02  0.1004513E+00
         21   -1    0    0  503  502  0.00000000000E+00  0.00000000000E+00  0.59753417290E+03  0.59753417290E+03  0.00000000000E+00 0. -1.
         21   -1    0    0  501  503 -0.00000000000E+00 -0.00000000000E+00 -0.67323330200E+03  0.67323330200E+03  0.00000000000E+00 0.  1.
    9000007    1    1    2  501    0  0.26443499987E+03 -0.24208248119E+03  0.30001903650E+03  0.61525703500E+03  0.40000000000E+03 0. -1.
   -9000007    1    1    2    0  502 -0.26443499987E+03  0.24208248119E+03 -0.37571816560E+03  0.65551043990E+03  0.40000000000E+03 0.  1.
<mgrwt>
<rscale>  2 0.53714970E+03</rscale>
<asrwt>0</asrwt>
<pdfrwt beam="1">  1       21 0.91928334E-01 0.53714970E+03</pdfrwt>
<pdfrwt beam="2">  1       21 0.10357435E+00 0.53714970E+03</pdfrwt>
<totfact> 0.61370106E+02</totfact>
</mgrwt>
</event>
<event>
 4    1  0.4890517E-002  0.4849515E+03  0.7818608E-02  0.1017783E+00
         21   -1    0    0  501  502  0.00000000000E+00  0.00000000000E+00  0.48416337344E+03  0.48416337344E+03  0.00000000000E+00 0. -1.
         21   -1    0    0  502  503 -0.00000000000E+00 -0.00000000000E+00 -0.51912895883E+03  0.51912895883E+03  0.00000000000E+00 0. -1.
    9000007    1    1    2  501    0 -0.18997312743E+03  0.19770725711E+03 -0.14470282735E+03  0.50607989182E+03  0.40000000000E+03 0. -1.
   -9000007    1    1    2    0  503  0.18997312743E+03 -0.19770725711E+03  0.10973724196E+03  0.49721244045E+03  0.40000000000E+03 0. -1.
<mgrwt>
<rscale>  2 0.48495149E+03</rscale>
<asrwt>0</asrwt>
<pdfrwt beam="1">  1       21 0.74486673E-01 0.48495149E+03</pdfrwt>
<pdfrwt beam="2">  1       21 0.79865994E-01 0.48495149E+03</pdfrwt>
<totfact> 0.18986433E+03</totfact>
</mgrwt>
</event>
<event>
 4    1  0.4890517E-002  0.6187649E+03  0.7818608E-02  0.9867222E-01
         21   -1    0    0  503  502  0.00000000000E+00  0.00000000000E+00  0.90676639508E+03  0.90676639508E+03  0.00000000000E+00 0. -1.
         21   -1    0    0  501  503 -0.00000000000E+00 -0.00000000000E+00 -0.42697184791E+03  0.42697184791E+03  0.00000000000E+00 0. -1.
    9000007    1    1    2  501    0 -0.47139045523E+03  0.25711219533E+02  0.16966950207E+03  0.64160561720E+03  0.40000000000E+03 0. -1.
   -9000007    1    1    2    0  502  0.47139045523E+03 -0.25711219533E+02  0.31012504510E+03  0.69213262579E+03  0.40000000000E+03 0. -1.
<mgrwt>
<rscale>  2 0.61876492E+03</rscale>
<asrwt>0</asrwt>
<pdfrwt beam="1">  1       21 0.13950252E+00 0.61876492E+03</pdfrwt>
<pdfrwt beam="2">  1       21 0.65687977E-01 0.61876492E+03</pdfrwt>
<totfact> 0.60565644E+02</totfact>
</mgrwt>
</event>
<event>
 4    1  0.4890517E-002  0.4015010E+03  0.7818608E-02  0.1043261E+00
         21   -1    0    0  503  502  0.00000000000E+00  0.00000000000E+00  0.28390876974E+03  0.28390876974E+03  0.00000000000E+00 0.  1.
         21   -1    0    0  501  503 -0.00000000000E+00 -0.00000000000E+00 -0.76931066631E+03  0.76931066631E+03  0.00000000000E+00 0.  1.
    9000007    1    1    2  501    0 -0.30968961780E+02  0.15619708553E+02  0.26817396680E+02  0.40239560715E+03  0.40000000000E+03 0.  1.
   -9000007    1    1    2    0  502  0.30968961780E+02 -0.15619708553E+02 -0.51221929325E+03  0.65082382890E+03  0.40000000000E+03 0.  1.
<mgrwt>
<rscale>  2 0.40150100E+03</rscale>
<asrwt>0</asrwt>
<pdfrwt beam="1">  1       21 0.43678272E-01 0.40150100E+03</pdfrwt>
<pdfrwt beam="2">  1       21 0.11835549E+00 0.40150100E+03</pdfrwt>
<totfact> 0.24235811E+03</totfact>
</mgrwt>
</event>
<event>
 4    1  0.4890517E-002  0.4421671E+03  0.7818608E-02  0.1030084E+00
         21   -1    0    0  503  502  0.00000000000E+00  0.00000000000E+00  0.27407901651E+03  0.27407901651E+03  0.00000000000E+00 0.  1.
         21   -1    0    0  501  503 -0.00000000000E+00 -0.00000000000E+00 -0.71397974052E+03  0.71397974052E+03  0.00000000000E+00 0.  1.
    9000007    1    1    2  501    0 -0.53453917955E+02 -0.18070543518E+03 -0.23472789422E+03  0.50060858959E+03  0.40000000000E+03 0.  1.
   -9000007    1    1    2    0  502  0.53453917955E+02  0.18070543518E+03 -0.20517282979E+03  0.48745016744E+03  0.40000000000E+03 0.  1.
<mgrwt>
<rscale>  2 0.44216714E+03</rscale>
<asrwt>0</asrwt>
<pdfrwt beam="1">  1       21 0.42166003E-01 0.44216714E+03</pdfrwt>
<pdfrwt beam="2">  1       21 0.10984304E+00 0.44216714E+03</pdfrwt>
<totfact> 0.30912828E+03</totfact>
</mgrwt>
</event>
<event>
 4    1  0.4890517E-002  0.4063396E+03  0.7818608E-02  0.1041606E+00
         21   -1    0    0  501  502  0.00000000000E+00  0.00000000000E+00  0.78470400113E+03  0.78470400113E+03  0.00000000000E+00 0. -1.
         21   -1    0    0  502  503 -0.00000000000E+00 -0.00000000000E+00 -0.21114924490E+03  0.21114924490E+03  0.00000000000E+00 0. -1.
    9000007    1    1    2  501    0  0.84099614764E+01 -0.71001239112E+02  0.31618020524E+03  0.51486097696E+03  0.40000000000E+03 0. -1.
   -9000007    1    1    2    0  503 -0.84099614764E+01  0.71001239112E+02  0.25737455098E+03  0.48099226907E+03  0.40000000000E+03 0. -1.
<mgrwt>
<rscale>  2 0.40633964E+03</rscale>
<asrwt>0</asrwt>
<pdfrwt beam="1">  1       21 0.12072369E+00 0.40633964E+03</pdfrwt>
<pdfrwt beam="2">  1       21 0.32484500E-01 0.40633964E+03</pdfrwt>
<totfact> 0.42072647E+03</totfact>
</mgrwt>
</event>
<event>
 4    1  0.4890517E-002  0.4463254E+03  0.7818608E-02  0.1028824E+00
         21   -1    0    0  501  502  0.00000000000E+00  0.00000000000E+00  0.68478032595E+03  0.68478032595E+03  0.00000000000E+00 0.  1.
         21   -1    0    0  502  503 -0.00000000000E+00 -0.00000000000E+00 -0.33417922279E+03  0.33417922279E+03  0.00000000000E+00 0. -1.
    9000007    1    1    2  501    0 -0.15606935850E+03  0.12185519062E+03  0.35863732412E+03  0.57256184155E+03  0.40000000000E+03 0.  1.
   -9000007    1    1    2    0  503  0.15606935850E+03 -0.12185519062E+03 -0.80362209667E+01  0.44639770719E+03  0.40000000000E+03 0. -1.
<mgrwt>
<rscale>  2 0.44632537E+03</rscale>
<asrwt>0</asrwt>
<pdfrwt beam="1">  1       21 0.10535082E+00 0.44632537E+03</pdfrwt>
<pdfrwt beam="2">  1       21 0.51412188E-01 0.44632537E+03</pdfrwt>
<totfact> 0.22545042E+03</totfact>
</mgrwt>
</event>
<event>
 4    1  0.4890517E-002  0.4227251E+03  0.7818608E-02  0.1036183E+00
         21   -1    0    0  501  502  0.00000000000E+00  0.00000000000E+00  0.14993446382E+03  0.14993446382E+03  0.00000000000E+00 0. -1.
         21   -1    0    0  502  503 -0.00000000000E+00 -0.00000000000E+00 -0.18215451158E+04  0.18215451158E+04  0.00000000000E+00 0. -1.
    9000007    1    1    2  501    0  0.10982370049E+03 -0.81456881792E+02 -0.25622424057E+03  0.49431501114E+03  0.40000000000E+03 0. -1.
   -9000007    1    1    2    0  503 -0.10982370049E+03  0.81456881792E+02 -0.14153864114E+04  0.14771645685E+04  0.40000000000E+03 0. -1.
<mgrwt>
<rscale>  2 0.42272505E+03</rscale>
<asrwt>0</asrwt>
<pdfrwt beam="1">  1       21 0.23066838E-01 0.42272505E+03</pdfrwt>
<pdfrwt beam="2">  1       21 0.28023774E+00 0.42272505E+03</pdfrwt>
<totfact> 0.64078545E+02</totfact>
</mgrwt>
</event>
<event>
 4    1  0.4890517E-002  0.5840646E+03  0.7818608E-02  0.9939030E-01
         21   -1    0    0  501  502  0.00000000000E+00  0.00000000000E+00  0.28518185190E+03  0.28518185190E+03  0.00000000000E+00 0.  1.
         21   -1    0    0  502  503 -0.00000000000E+00 -0.00000000000E+00 -0.17806466843E+04  0.17806466843E+04  0.00000000000E+00 0.  1.
    9000007    1    1    2  501    0 -0.29097118823E+03  0.31059182339E+03 -0.15596400249E+03  0.60452980340E+03  0.40000000000E+03 0.  1.
   -9000007    1    1    2    0  503  0.29097118823E+03 -0.31059182339E+03 -0.13395008299E+04  0.14612987328E+04  0.40000000000E+03 0.  1.
<mgrwt>
<rscale>  2 0.58406465E+03</rscale>
<asrwt>0</asrwt>
<pdfrwt beam="1">  1       21 0.43874130E-01 0.58406465E+03</pdfrwt>
<pdfrwt beam="2">  1       21 0.27394565E+00 0.58406465E+03</pdfrwt>
<totfact> 0.17732067E+02</totfact>
</mgrwt>
</event>
<event>
 4    1  0.4890517E-002  0.4532528E+03  0.7818608E-02  0.1026756E+00
         21   -1    0    0  503  502  0.00000000000E+00  0.00000000000E+00  0.14715708266E+03  0.14715708266E+03  0.00000000000E+00 0. -1.
         21   -1    0    0  501  503 -0.00000000000E+00 -0.00000000000E+00 -0.13962044535E+04  0.13962044535E+04  0.00000000000E+00 0. -1.
    9000007    1    1    2  501    0  0.16123608026E+03  0.13943112035E+03 -0.61631245726E+03  0.76503539517E+03  0.40000000000E+03 0. -1.
   -9000007    1    1    2    0  502 -0.16123608026E+03 -0.13943112035E+03 -0.63273491362E+03  0.77832614103E+03  0.40000000000E+03 0. -1.
<mgrwt>
<rscale>  2 0.45325281E+03</rscale>
<asrwt>0</asrwt>
<pdfrwt beam="1">  1       21 0.22639552E-01 0.45325281E+03</pdfrwt>
<pdfrwt beam="2">  1       21 0.21480068E+00 0.45325281E+03</pdfrwt>
<totfact> 0.16590809E+03</totfact>
</mgrwt>
</event>
<event>
 4    1  0.4890517E-002  0.4032551E+03  0.7818608E-02  0.1042658E+00
         21   -1    0    0  501  502  0.00000000000E+00  0.00000000000E+00  0.94606768077E+03  0.94606768077E+03  0.00000000000E+00 0. -1.
         21   -1    0    0  502  503 -0.00000000000E+00 -0.00000000000E+00 -0.17210151378E+03  0.17210151378E+03  0.00000000000E+00 0. -1.
    9000007    1    1    2  501    0 -0.35144788304E+02 -0.37142316786E+02  0.40681987878E+03  0.57281508501E+03  0.40000000000E+03 0. -1.
   -9000007    1    1    2    0  503  0.35144788304E+02  0.37142316786E+02  0.36714628821E+03  0.54535410954E+03  0.40000000000E+03 0. -1.
<mgrwt>
<rscale>  2 0.40325514E+03</rscale>
<asrwt>0</asrwt>
<pdfrwt beam="1">  1       21 0.14554887E+00 0.40325514E+03</pdfrwt>
<pdfrwt beam="2">  1       21 0.26477156E-01 0.40325514E+03</pdfrwt>
<totfact> 0.38769054E+03</totfact>
</mgrwt>
</event>
<event>
 4    1  0.4890517E-002  0.4528160E+03  0.7818608E-02  0.1026886E+00
         21   -1    0    0  501  502  0.00000000000E+00  0.00000000000E+00  0.93523069081E+03  0.93523069081E+03  0.00000000000E+00 0. -1.
         21   -1    0    0  502  503 -0.00000000000E+00 -0.00000000000E+00 -0.25882036442E+03  0.25882036442E+03  0.00000000000E+00 0.  1.
    9000007    1    1    2  501    0  0.20202447619E+03  0.65026447588E+02  0.57166908681E+03  0.72927900880E+03  0.40000000000E+03 0. -1.
   -9000007    1    1    2    0  503 -0.20202447619E+03 -0.65026447588E+02  0.10474123958E+03  0.46477204642E+03  0.40000000000E+03 0.  1.
<mgrwt>
<rscale>  2 0.45281600E+03</rscale>
<asrwt>0</asrwt>
<pdfrwt beam="1">  1       21 0.14388164E+00 0.45281600E+03</pdfrwt>
<pdfrwt beam="2">  1       21 0.39818518E-01 0.45281600E+03</pdfrwt>
<totfact> 0.17302025E+03</totfact>
</mgrwt>
</event>
<event>
 4    1  0.4890517E-002  0.4361351E+03  0.7818608E-02  0.1031939E+00
         21   -1    0    0  503  502  0.00000000000E+00  0.00000000000E+00  0.49381183834E+03  0.49381183834E+03  0.00000000000E+00 0.  1.
         21   -1    0    0  501  503 -0.00000000000E+00 -0.00000000000E+00 -0.47742320668E+03  0.47742320668E+03  0.00000000000E+00 0.  1.
    9000007    1    1    2  501    0 -0.25796990568E+02 -0.17189619390E+03 -0.20524517569E+03  0.48201594200E+03  0.40000000000E+03 0.  1.
   -9000007    1    1    2    0  502  0.25796990568E+02  0.17189619390E+03  0.22163380734E+03  0.48921910302E+03  0.40000000000E+03 0.  1.
<mgrwt>
<rscale>  2 0.43613506E+03</rscale>
<asrwt>0</asrwt>
<pdfrwt beam="1">  1       21 0.75971052E-01 0.43613506E+03</pdfrwt>
<pdfrwt beam="2">  1       21 0.73449724E-01 0.43613506E+03</pdfrwt>
<totfact> 0.22386050E+03</totfact>
</mgrwt>
</event>
<event>
 4    1  0.4890517E-002  0.4716812E+03  0.7818608E-02  0.1021447E+00
         21   -1    0    0  503  502  0.00000000000E+00  0.00000000000E+00  0.38065659362E+03  0.38065659362E+03  0.00000000000E+00 0.  1.
         21   -1    0    0  501  503 -0.00000000000E+00 -0.00000000000E+00 -0.60925159133E+03  0.60925159133E+03  0.00000000000E+00 0.  1.
    9000007    1    1    2  501    0 -0.19951965921E+03 -0.15058255408E+03 -0.14478818282E+02  0.47190341828E+03  0.40000000000E+03 0. -1.
   -9000007    1    1    2    0  502  0.19951965921E+03  0.15058255408E+03 -0.21411617943E+03  0.51800476667E+03  0.40000000000E+03 0. -1.
<mgrwt>
<rscale>  2 0.47168125E+03</rscale>
<asrwt>0</asrwt>
<pdfrwt beam="1">  1       21 0.58562553E-01 0.47168125E+03</pdfrwt>
<pdfrwt beam="2">  1       21 0.93731014E-01 0.47168125E+03</pdfrwt>
<totfact> 0.22393272E+03</totfact>
</mgrwt>
</event>
<event>
 4    1  0.4890517E-002  0.7010933E+03  0.7818608E-02  0.9715364E-01
         21   -1    0    0  501  502  0.00000000000E+00  0.00000000000E+00  0.47878927577E+03  0.47878927577E+03  0.00000000000E+00 0.  1.
         21   -1    0    0  502  503 -0.00000000000E+00 -0.00000000000E+00 -0.28349123834E+04  0.28349123834E+04  0.00000000000E+00 0. -1.
    9000007    1    1    2  501    0 -0.12351221775E+03  0.56238474580E+03  0.14520888848E+03  0.71597310811E+03  0.40000000000E+03 0.  1.
   -9000007    1    1    2    0  503  0.12351221775E+03 -0.56238474580E+03 -0.25013319961E+04  0.25977285510E+04  0.40000000000E+03 0. -1.
<mgrwt>
<rscale>  2 0.70109334E+03</rscale>
<asrwt>0</asrwt>
<pdfrwt beam="1">  1       21 0.73659889E-01 0.70109334E+03</pdfrwt>
<pdfrwt beam="2">  1       21 0.43614037E+00 0.70109334E+03</pdfrwt>
<totfact> 0.51131854E+00</totfact>
</mgrwt>
</event>
<event>
 4    1  0.4890517E-002  0.5444126E+03  0.7818608E-02  0.1002796E+00
         21   -1    0    0  503  502  0.00000000000E+00  0.00000000000E+00  0.21164480450E+03  0.21164480450E+03  0.00000000000E+00 0. -1.
         21   -1    0    0  501  503 -0.00000000000E+00 -0.00000000000E+00 -0.14176361619E+04  0.14176361619E+04  0.00000000000E+00 0. -1.
    9000007    1    1    2  501    0  0.35628106460E+03  0.97205142875E+02 -0.69285095145E+03  0.88115122295E+03  0.40000000000E+03 0. -1.
   -9000007    1    1    2    0  502 -0.35628106460E+03 -0.97205142875E+02 -0.51314040593E+03  0.74812974342E+03  0.40000000000E+03 0. -1.
<mgrwt>
<rscale>  2 0.54441256E+03</rscale>
<asrwt>0</asrwt>
<pdfrwt beam="1">  1       21 0.32560738E-01 0.54441256E+03</pdfrwt>
<pdfrwt beam="2">  1       21 0.21809788E+00 0.54441256E+03</pdfrwt>
<totfact> 0.74347731E+02</totfact>
</mgrwt>
</event>
<event>
 4    1  0.4890517E-002  0.4901845E+03  0.7818608E-02  0.1016373E+00
         21   -1    0    0  503  502  0.00000000000E+00  0.00000000000E+00  0.86028612931E+03  0.86028612931E+03  0.00000000000E+00 0.  1.
         21   -1    0    0  501  503 -0.00000000000E+00 -0.00000000000E+00 -0.28023550547E+03  0.28023550547E+03  0.00000000000E+00 0.  1.
    9000007    1    1    2  501    0 -0.10349446443E+03 -0.26376080856E+03  0.32291328106E+03  0.58698709985E+03  0.40000000000E+03 0.  1.
   -9000007    1    1    2    0  502  0.10349446443E+03  0.26376080856E+03  0.25713734278E+03  0.55353453493E+03  0.40000000000E+03 0.  1.
<mgrwt>
<rscale>  2 0.49018452E+03</rscale>
<asrwt>0</asrwt>
<pdfrwt beam="1">  1       21 0.13235171E+00 0.49018452E+03</pdfrwt>
<pdfrwt beam="2">  1       21 0.43113155E-01 0.49018452E+03</pdfrwt>
<totfact> 0.18048683E+03</totfact>
</mgrwt>
</event>
<event>
 4    1  0.4890517E-002  0.4243961E+03  0.7818608E-02  0.1035645E+00
         21   -1    0    0  503  502  0.00000000000E+00  0.00000000000E+00  0.39411083503E+03  0.39411083503E+03  0.00000000000E+00 0.  1.
         21   -1    0    0  501  503 -0.00000000000E+00 -0.00000000000E+00 -0.10443487517E+04  0.10443487517E+04  0.00000000000E+00 0.  1.
    9000007    1    1    2  501    0  0.51397887567E+02  0.13217535081E+03 -0.86449259486E+03  0.96304699406E+03  0.40000000000E+03 0.  1.
   -9000007    1    1    2    0  502 -0.51397887567E+02 -0.13217535081E+03  0.21425467814E+03  0.47541259272E+03  0.40000000000E+03 0.  1.
<mgrwt>
<rscale>  2 0.42439612E+03</rscale>
<asrwt>0</asrwt>
<pdfrwt beam="1">  1       21 0.60632436E-01 0.42439612E+03</pdfrwt>
<pdfrwt beam="2">  1       21 0.16066904E+00 0.42439612E+03</pdfrwt>
<totfact> 0.53109402E+02</totfact>
</mgrwt>
</event>
<event>
 4    1  0.4890517E-002  0.5034990E+03  0.7818608E-02  0.1012870E+00
         21   -1    0    0  503  502  0.00000000000E+00  0.00000000000E+00  0.49620571342E+03  0.49620571342E+03  0.00000000000E+00 0.  1.
         21   -1    0    0  501  503 -0.00000000000E+00 -0.00000000000E+00 -0.53187249049E+03  0.53187249049E+03  0.00000000000E+00 0. -1.
    9000007    1    1    2  501    0  0.30539512449E+03  0.15655905690E+02 -0.11990894762E+03  0.51758037556E+03  0.40000000000E+03 0. -1.
   -9000007    1    1    2    0  502 -0.30539512449E+03 -0.15655905690E+02  0.84242170551E+02  0.51049782834E+03  0.40000000000E+03 0.  1.
<mgrwt>
<rscale>  2 0.50349905E+03</rscale>
<asrwt>0</asrwt>
<pdfrwt beam="1">  1       21 0.76339341E-01 0.50349905E+03</pdfrwt>
<pdfrwt beam="2">  1       21 0.81826537E-01 0.50349905E+03</pdfrwt>
<totfact> 0.16858386E+03</totfact>
</mgrwt>
</event>
<event>
 4    1  0.4890517E-002  0.6087950E+03  0.7818608E-02  0.9887325E-01
         21   -1    0    0  501  502  0.00000000000E+00  0.00000000000E+00  0.17706360153E+04  0.17706360153E+04  0.00000000000E+00 0. -1.
         21   -1    0    0  502  503 -0.00000000000E+00 -0.00000000000E+00 -0.38248559706E+03  0.38248559706E+03  0.00000000000E+00 0.  1.
    9000007    1    1    2  501    0 -0.44793012978E+03 -0.99949628265E+02  0.14184453752E+04  0.15435733257E+04  0.40000000000E+03 0. -1.
   -9000007    1    1    2    0  503  0.44793012978E+03  0.99949628265E+02 -0.30294956959E+02  0.60954828666E+03  0.40000000000E+03 0. -1.
<mgrwt>
<rscale>  2 0.60879498E+03</rscale>
<asrwt>0</asrwt>
<pdfrwt beam="1">  1       21 0.27240553E+00 0.60879498E+03</pdfrwt>
<pdfrwt beam="2">  1       21 0.58843939E-01 0.60879498E+03</pdfrwt>
<totfact> 0.95441064E+01</totfact>
</mgrwt>
</event>
<event>
 4    1  0.4890517E-002  0.5361453E+03  0.7818608E-02  0.1004753E+00
         21   -1    0    0  503  502  0.00000000000E+00  0.00000000000E+00  0.29364626031E+03  0.29364626031E+03  0.00000000000E+00 0. -1.
         21   -1    0    0  501  503 -0.00000000000E+00 -0.00000000000E+00 -0.11517096135E+04  0.11517096135E+04  0.00000000000E+00 0.  1.
    9000007    1    1    2  501    0 -0.30096495239E+03  0.19202051792E+03 -0.70896268706E+03  0.88886437296E+03  0.40000000000E+03 0.  1.
   -9000007    1    1    2    0  502  0.30096495239E+03 -0.19202051792E+03 -0.14910066613E+03  0.55649150084E+03  0.40000000000E+03 0.  1.
<mgrwt>
<rscale>  2 0.53614530E+03</rscale>
<asrwt>0</asrwt>
<pdfrwt beam="1">  1       21 0.45176348E-01 0.53614530E+03</pdfrwt>
<pdfrwt beam="2">  1       21 0.17718609E+00 0.53614530E+03</pdfrwt>
<totfact> 0.72005132E+02</totfact>
</mgrwt>
</event>
<event>
 4    1  0.4890517E-002  0.4879653E+03  0.7818608E-02  0.1016969E+00
         21   -1    0    0  503  502  0.00000000000E+00  0.00000000000E+00  0.16723392416E+04  0.16723392416E+04  0.00000000000E+00 0.  1.
         21   -1    0    0  501  503 -0.00000000000E+00 -0.00000000000E+00 -0.16771121621E+03  0.16771121621E+03  0.00000000000E+00 0.  1.
    9000007    1    1    2  501    0 -0.26746749038E+03  0.81063667166E+02  0.39476646013E+03  0.62765494867E+03  0.40000000000E+03 0.  1.
   -9000007    1    1    2    0  502  0.26746749038E+03 -0.81063667166E+02  0.11098615653E+04  0.12123955091E+04  0.40000000000E+03 0.  1.
<mgrwt>
<rscale>  2 0.48796534E+03</rscale>
<asrwt>0</asrwt>
<pdfrwt beam="1">  1       21 0.25728295E+00 0.48796534E+03</pdfrwt>
<pdfrwt beam="2">  1       21 0.25801727E-01 0.48796534E+03</pdfrwt>
<totfact> 0.68619510E+02</totfact>
</mgrwt>
</event>
<event>
 4    1  0.4890517E-002  0.4260011E+03  0.7818608E-02  0.1035131E+00
         21   -1    0    0  503  502  0.00000000000E+00  0.00000000000E+00  0.12741963133E+03  0.12741963133E+03  0.00000000000E+00 0. -1.
         21   -1    0    0  501  503 -0.00000000000E+00 -0.00000000000E+00 -0.14713642501E+04  0.14713642501E+04  0.00000000000E+00 0. -1.
    9000007    1    1    2  501    0  0.14637684746E+03  0.71242782033E+01 -0.81502397524E+03  0.91964178735E+03  0.40000000000E+03 0. -1.
   -9000007    1    1    2    0  502 -0.14637684746E+03 -0.71242782033E+01 -0.52892064353E+03  0.67914209409E+03  0.40000000000E+03 0. -1.
<mgrwt>
<rscale>  2 0.42600110E+03</rscale>
<asrwt>0</asrwt>
<pdfrwt beam="1">  1       21 0.19603019E-01 0.42600110E+03</pdfrwt>
<pdfrwt beam="2">  1       21 0.22636374E+00 0.42600110E+03</pdfrwt>
<totfact> 0.18667276E+03</totfact>
</mgrwt>
</event>
<event>
 4    1  0.4890517E-002  0.4145622E+03  0.7818608E-02  0.1038851E+00
         21   -1    0    0  503  502  0.00000000000E+00  0.00000000000E+00  0.72853652142E+03  0.72853652142E+03  0.00000000000E+00 0.  1.
         21   -1    0    0  501  503 -0.00000000000E+00 -0.00000000000E+00 -0.50342394977E+03  0.50342394977E+03  0.00000000000E+00 0.  1.
    9000007    1    1    2  501    0  0.98657420118E+02  0.46136024075E+02 -0.33647966719E+03  0.53392919540E+03  0.40000000000E+03 0.  1.
   -9000007    1    1    2    0  502 -0.98657420118E+02 -0.46136024075E+02  0.56159223884E+03  0.69803127580E+03  0.40000000000E+03 0.  1.
<mgrwt>
<rscale>  2 0.41456220E+03</rscale>
<asrwt>0</asrwt>
<pdfrwt beam="1">  1       21 0.11208254E+00 0.41456220E+03</pdfrwt>
<pdfrwt beam="2">  1       21 0.77449838E-01 0.41456220E+03</pdfrwt>
<totfact> 0.79253566E+02</totfact>
</mgrwt>
</event>
<event>
 4    1  0.4890517E-002  0.5794735E+03  0.7818608E-02  0.9948931E-01
         21   -1    0    0  503  502  0.00000000000E+00  0.00000000000E+00  0.10560257015E+04  0.10560257015E+04  0.00000000000E+00 0. -1.
         21   -1    0    0  501  503 -0.00000000000E+00 -0.00000000000E+00 -0.34050428902E+03  0.34050428902E+03  0.00000000000E+00 0. -1.
    9000007    1    1    2  501    0  0.18331603830E+03  0.37707400867E+03  0.53737235363E+03  0.79029021527E+03  0.40000000000E+03 0. -1.
   -9000007    1    1    2    0  502 -0.18331603830E+03 -0.37707400867E+03  0.17814905884E+03  0.60623977524E+03  0.40000000000E+03 0. -1.
<mgrwt>
<rscale>  2 0.57947354E+03</rscale>
<asrwt>0</asrwt>
<pdfrwt beam="1">  1       21 0.16246549E+00 0.57947354E+03</pdfrwt>
<pdfrwt beam="2">  1       21 0.52385276E-01 0.57947354E+03</pdfrwt>
<totfact> 0.66339819E+02</totfact>
</mgrwt>
</event>
<event>
 4    1  0.4890517E-002  0.4980709E+03  0.7818608E-02  0.1014284E+00
         21   -1    0    0  503  502  0.00000000000E+00  0.00000000000E+00  0.54379900953E+03  0.54379900953E+03  0.00000000000E+00 0.  1.
         21   -1    0    0  501  503 -0.00000000000E+00 -0.00000000000E+00 -0.45987754711E+03  0.45987754711E+03  0.00000000000E+00 0. -1.
    9000007    1    1    2  501    0 -0.29663786596E+03 -0.89771702822E+01 -0.29888764731E+01  0.49807985955E+03  0.40000000000E+03 0.  1.
   -9000007    1    1    2    0  502  0.29663786596E+03  0.89771702822E+01  0.86910338888E+02  0.50559669709E+03  0.40000000000E+03 0. -1.
<mgrwt>
<rscale>  2 0.49807089E+03</rscale>
<asrwt>0</asrwt>
<pdfrwt beam="1">  1       21 0.83661386E-01 0.49807089E+03</pdfrwt>
<pdfrwt beam="2">  1       21 0.70750392E-01 0.49807089E+03</pdfrwt>
<totfact> 0.19070705E+03</totfact>
</mgrwt>
</event>
<event>
 4    1  0.4890517E-002  0.4719891E+03  0.7818608E-02  0.1021360E+00
         21   -1    0    0  501  502  0.00000000000E+00  0.00000000000E+00  0.48269790179E+03  0.48269790179E+03  0.00000000000E+00 0.  1.
         21   -1    0    0  502  503 -0.00000000000E+00 -0.00000000000E+00 -0.46668864587E+03  0.46668864587E+03  0.00000000000E+00 0.  1.
    9000007    1    1    2  501    0 -0.19115819314E+03  0.16196361145E+03 -0.41962099426E+02  0.47385069803E+03  0.40000000000E+03 0.  1.
   -9000007    1    1    2    0  503  0.19115819314E+03 -0.16196361145E+03  0.57971355346E+02  0.47553584962E+03  0.40000000000E+03 0.  1.
<mgrwt>
<rscale>  2 0.47198905E+03</rscale>
<asrwt>0</asrwt>
<pdfrwt beam="1">  1       21 0.74261216E-01 0.47198905E+03</pdfrwt>
<pdfrwt beam="2">  1       21 0.71798253E-01 0.47198905E+03</pdfrwt>
<totfact> 0.24506117E+03</totfact>
</mgrwt>
</event>
<event>
 4    1  0.4890517E-002  0.5528401E+03  0.7818608E-02  0.1000839E+00
         21   -1    0    0  501  502  0.00000000000E+00  0.00000000000E+00  0.20503539588E+03  0.20503539588E+03  0.00000000000E+00 0. -1.
         21   -1    0    0  502  503 -0.00000000000E+00 -0.00000000000E+00 -0.18940918114E+04  0.18940918114E+04  0.00000000000E+00 0.  1.
    9000007    1    1    2  501    0 -0.18000508395E+03 -0.33649725243E+03 -0.36012319529E+03  0.65978856229E+03  0.40000000000E+03 0. -1.
   -9000007    1    1    2    0  503  0.18000508395E+03  0.33649725243E+03 -0.13289332202E+04  0.14393386450E+04  0.40000000000E+03 0. -1.
<mgrwt>
<rscale>  2 0.55284015E+03</rscale>
<asrwt>0</asrwt>
<pdfrwt beam="1">  1       21 0.31543907E-01 0.55284015E+03</pdfrwt>
<pdfrwt beam="2">  1       21 0.29139874E+00 0.55284015E+03</pdfrwt>
<totfact> 0.27710654E+02</totfact>
</mgrwt>
</event>
<event>
 4    1  0.4890517E-002  0.4190707E+03  0.7818608E-02  0.1037369E+00
         21   -1    0    0  503  502  0.00000000000E+00  0.00000000000E+00  0.37859395506E+03  0.37859395506E+03  0.00000000000E+00 0.  1.
         21   -1    0    0  501  503 -0.00000000000E+00 -0.00000000000E+00 -0.48003830862E+03  0.48003830862E+03  0.00000000000E+00 0.  1.
    9000007    1    1    2  501    0 -0.12469326017E+03  0.84739146909E+01 -0.12950042648E+03  0.43862350236E+03  0.40000000000E+03 0. -1.
   -9000007    1    1    2    0  502  0.12469326017E+03 -0.84739146909E+01  0.28056072921E+02  0.42000876133E+03  0.40000000000E+03 0. -1.
<mgrwt>
<rscale>  2 0.41907066E+03</rscale>
<asrwt>0</asrwt>
<pdfrwt beam="1">  1       21 0.58245224E-01 0.41907066E+03</pdfrwt>
<pdfrwt beam="2">  1       21 0.73852047E-01 0.41907066E+03</pdfrwt>
<totfact> 0.40235331E+03</totfact>
</mgrwt>
</event>
<event>
 4    1  0.4890517E-002  0.4563060E+03  0.7818608E-02  0.1025858E+00
         21   -1    0    0  501  502  0.00000000000E+00  0.00000000000E+00  0.10942074940E+03  0.10942074940E+03  0.00000000000E+00 0. -1.
         21   -1    0    0  502  503 -0.00000000000E+00 -0.00000000000E+00 -0.25105201137E+04  0.25105201137E+04  0.00000000000E+00 0. -1.
    9000007    1    1    2  501    0 -0.14774351442E+03  0.16244091546E+03 -0.55608256437E+03  0.71933512041E+03  0.40000000000E+03 0. -1.
   -9000007    1    1    2    0  503  0.14774351442E+03 -0.16244091546E+03 -0.18450167999E+04  0.19006057427E+04  0.40000000000E+03 0. -1.
<mgrwt>
<rscale>  2 0.45630603E+03</rscale>
<asrwt>0</asrwt>
<pdfrwt beam="1">  1       21 0.16833963E-01 0.45630603E+03</pdfrwt>
<pdfrwt beam="2">  1       21 0.38623383E+00 0.45630603E+03</pdfrwt>
<totfact> 0.25761072E+02</totfact>
</mgrwt>
</event>
<event>
 4    1  0.4890517E-002  0.5201281E+03  0.7818608E-02  0.1008655E+00
         21   -1    0    0  503  502  0.00000000000E+00  0.00000000000E+00  0.38227781298E+03  0.38227781298E+03  0.00000000000E+00 0. -1.
         21   -1    0    0  501  503 -0.00000000000E+00 -0.00000000000E+00 -0.77195924975E+03  0.77195924975E+03  0.00000000000E+00 0. -1.
    9000007    1    1    2  501    0  0.74731157633E+02  0.32395757632E+03 -0.36136503178E+03  0.63333872720E+03  0.40000000000E+03 0. -1.
   -9000007    1    1    2    0  502 -0.74731157633E+02 -0.32395757632E+03 -0.28316404992E+02  0.52089833554E+03  0.40000000000E+03 0. -1.
<mgrwt>
<rscale>  2 0.52012812E+03</rscale>
<asrwt>0</asrwt>
<pdfrwt beam="1">  1       21 0.58811971E-01 0.52012812E+03</pdfrwt>
<pdfrwt beam="2">  1       21 0.11876296E+00 0.52012812E+03</pdfrwt>
<totfact> 0.12171217E+03</totfact>
</mgrwt>
</event>
<event>
 4    1  0.4890517E-002  0.4769063E+03  0.7818608E-02  0.1019989E+00
         21   -1    0    0  501  502  0.00000000000E+00  0.00000000000E+00  0.16123062930E+04  0.16123062930E+04  0.00000000000E+00 0. -1.
         21   -1    0    0  502  503 -0.00000000000E+00 -0.00000000000E+00 -0.53791183719E+03  0.53791183719E+03  0.00000000000E+00 0. -1.
    9000007    1    1    2  501    0  0.16473759027E+03  0.20075149100E+03  0.14606369551E+04  0.15365220303E+04  0.40000000000E+03 0. -1.
   -9000007    1    1    2    0  503 -0.16473759027E+03 -0.20075149100E+03 -0.38624249932E+03  0.61369609993E+03  0.40000000000E+03 0. -1.
<mgrwt>
<rscale>  2 0.47690632E+03</rscale>
<asrwt>0</asrwt>
<pdfrwt beam="1">  1       21 0.24804712E+00 0.47690632E+03</pdfrwt>
<pdfrwt beam="2">  1       21 0.82755668E-01 0.47690632E+03</pdfrwt>
<totfact> 0.66655021E+01</totfact>
</mgrwt>
</event>
<event>
 4    1  0.4890517E-002  0.4950328E+03  0.7818608E-02  0.1015084E+00
         21   -1    0    0  501  502  0.00000000000E+00  0.00000000000E+00  0.86859467306E+03  0.86859467306E+03  0.00000000000E+00 0.  1.
         21   -1    0    0  502  503 -0.00000000000E+00 -0.00000000000E+00 -0.44638391560E+03  0.44638391560E+03  0.00000000000E+00 0.  1.
    9000007    1    1    2  501    0 -0.28004528368E+03 -0.81437844848E+02  0.60993826464E+03  0.78554577853E+03  0.40000000000E+03 0.  1.
   -9000007    1    1    2    0  503  0.28004528368E+03  0.81437844848E+02 -0.18772750718E+03  0.52943281013E+03  0.40000000000E+03 0.  1.
<mgrwt>
<rscale>  2 0.49503281E+03</rscale>
<asrwt>0</asrwt>
<pdfrwt beam="1">  1       21 0.13362995E+00 0.49503281E+03</pdfrwt>
<pdfrwt beam="2">  1       21 0.68674449E-01 0.49503281E+03</pdfrwt>
<totfact> 0.64189456E+02</totfact>
</mgrwt>
</event>
<event>
 4    1  0.4890517E-002  0.4871600E+03  0.7818608E-02  0.1017186E+00
         21   -1    0    0  503  502  0.00000000000E+00  0.00000000000E+00  0.31008458595E+03  0.31008458595E+03  0.00000000000E+00 0.  1.
         21   -1    0    0  501  503 -0.00000000000E+00 -0.00000000000E+00 -0.19536291294E+04  0.19536291294E+04  0.00000000000E+00 0.  1.
    9000007    1    1    2  501    0  0.26820658924E+03 -0.73417348514E+02 -0.17045039483E+04  0.17727545209E+04  0.40000000000E+03 0.  1.
   -9000007    1    1    2    0  502 -0.26820658924E+03  0.73417348514E+02  0.60959404861E+02  0.49095919445E+03  0.40000000000E+03 0.  1.
<mgrwt>
<rscale>  2 0.48716002E+03</rscale>
<asrwt>0</asrwt>
<pdfrwt beam="1">  1       21 0.47705321E-01 0.48716002E+03</pdfrwt>
<pdfrwt beam="2">  1       21 0.30055833E+00 0.48716002E+03</pdfrwt>
<totfact> 0.10769793E+02</totfact>
</mgrwt>
</event>
<event>
 4    1  0.4890517E-002  0.4973612E+03  0.7818608E-02  0.1014470E+00
         21   -1    0    0  503  502  0.00000000000E+00  0.00000000000E+00  0.73677573104E+03  0.73677573104E+03  0.00000000000E+00 0. -1.
         21   -1    0    0  501  503 -0.00000000000E+00 -0.00000000000E+00 -0.37018768609E+03  0.37018768609E+03  0.00000000000E+00 0. -1.
    9000007    1    1    2  501    0  0.20502661152E+03  0.21291376042E+03  0.35212254450E+03  0.60939188307E+03  0.40000000000E+03 0. -1.
   -9000007    1    1    2    0  502 -0.20502661152E+03 -0.21291376042E+03  0.14465500450E+02  0.49757153407E+03  0.40000000000E+03 0. -1.
<mgrwt>
<rscale>  2 0.49736122E+03</rscale>
<asrwt>0</asrwt>
<pdfrwt beam="1">  1       21 0.11335011E+00 0.49736122E+03</pdfrwt>
<pdfrwt beam="2">  1       21 0.56951952E-01 0.49736122E+03</pdfrwt>
<totfact> 0.14798717E+03</totfact>
</mgrwt>
</event>
<event>
 4    1  0.4890517E-002  0.5964654E+03  0.7818608E-02  0.9912766E-01
         21   -1    0    0  501  502  0.00000000000E+00  0.00000000000E+00  0.35029879518E+03  0.35029879518E+03  0.00000000000E+00 0.  1.
         21   -1    0    0  502  503 -0.00000000000E+00 -0.00000000000E+00 -0.11742533950E+04  0.11742533950E+04  0.00000000000E+00 0.  1.
    9000007    1    1    2  501    0 -0.25287836549E+03  0.36307514388E+03 -0.13180416600E+03  0.61085461938E+03  0.40000000000E+03 0.  1.
   -9000007    1    1    2    0  503  0.25287836549E+03 -0.36307514388E+03 -0.69215043379E+03  0.91369757077E+03  0.40000000000E+03 0.  1.
<mgrwt>
<rscale>  2 0.59646545E+03</rscale>
<asrwt>0</asrwt>
<pdfrwt beam="1">  1       21 0.53892122E-01 0.59646545E+03</pdfrwt>
<pdfrwt beam="2">  1       21 0.18065437E+00 0.59646545E+03</pdfrwt>
<totfact> 0.45648352E+02</totfact>
</mgrwt>
</event>
<event>
 4    1  0.4890517E-002  0.4892883E+03  0.7818608E-02  0.1016613E+00
         21   -1    0    0  503  502  0.00000000000E+00  0.00000000000E+00  0.64627372241E+03  0.64627372241E+03  0.00000000000E+00 0.  1.
         21   -1    0    0  501  503 -0.00000000000E+00 -0.00000000000E+00 -0.12147921859E+04  0.12147921859E+04  0.00000000000E+00 0.  1.
    9000007    1    1    2  501    0 -0.28155500749E+03 -0.11393148176E+02 -0.10600482336E+04  0.11675209992E+04  0.40000000000E+03 0.  1.
   -9000007    1    1    2    0  502  0.28155500749E+03  0.11393148176E+02  0.49152977009E+03  0.69354490911E+03  0.40000000000E+03 0.  1.
<mgrwt>
<rscale>  2 0.48928829E+03</rscale>
<asrwt>0</asrwt>
<pdfrwt beam="1">  1       21 0.99426728E-01 0.48928829E+03</pdfrwt>
<pdfrwt beam="2">  1       21 0.18689110E+00 0.48928829E+03</pdfrwt>
<totfact> 0.10655262E+02</totfact>
</mgrwt>
</event>
<event>
 4    1  0.4890517E-002  0.5492633E+03  0.7818608E-02  0.1001665E+00
         21   -1    0    0  503  502  0.00000000000E+00  0.00000000000E+00  0.65405157565E+03  0.65405157565E+03  0.00000000000E+00 0. -1.
         21   -1    0    0  501  503 -0.00000000000E+00 -0.00000000000E+00 -0.47421102601E+03  0.47421102601E+03  0.00000000000E+00 0. -1.
    9000007    1    1    2  501    0 -0.31792079187E+03 -0.20153538452E+03  0.18313557480E+03  0.57898944711E+03  0.40000000000E+03 0. -1.
   -9000007    1    1    2    0  502  0.31792079187E+03  0.20153538452E+03 -0.32950251552E+01  0.54927315455E+03  0.40000000000E+03 0. -1.
<mgrwt>
<rscale>  2 0.54926327E+03</rscale>
<asrwt>0</asrwt>
<pdfrwt beam="1">  1       21 0.10062332E+00 0.54926327E+03</pdfrwt>
<pdfrwt beam="2">  1       21 0.72955543E-01 0.54926327E+03</pdfrwt>
<totfact> 0.11252132E+03</totfact>
</mgrwt>
</event>
<event>
 4    1  0.4890517E-002  0.4821760E+03  0.7818608E-02  0.1018539E+00
         21   -1    0    0  501  502  0.00000000000E+00  0.00000000000E+00  0.10944257467E+04  0.10944257467E+04  0.00000000000E+00 0. -1.
         21   -1    0    0  502  503 -0.00000000000E+00 -0.00000000000E+00 -0.21250731295E+03  0.21250731295E+03  0.00000000000E+00 0. -1.
    9000007    1    1    2  501    0 -0.26660971607E+03  0.37588849222E+02  0.45306459518E+03  0.66163523916E+03  0.40000000000E+03 0. -1.
   -9000007    1    1    2    0  503  0.26660971607E+03 -0.37588849222E+02  0.42885383858E+03  0.64529782050E+03  0.40000000000E+03 0. -1.
<mgrwt>
<rscale>  2 0.48217597E+03</rscale>
<asrwt>0</asrwt>
<pdfrwt beam="1">  1       21 0.16837319E+00 0.48217597E+03</pdfrwt>
<pdfrwt beam="2">  1       21 0.32693433E-01 0.48217597E+03</pdfrwt>
<totfact> 0.16549112E+03</totfact>
</mgrwt>
</event>
<event>
 4    1  0.4890517E-002  0.4276654E+03  0.7818608E-02  0.1034600E+00
         21   -1    0    0  501  502  0.00000000000E+00  0.00000000000E+00  0.24742014899E+03  0.24742014899E+03  0.00000000000E+00 0.  1.
         21   -1    0    0  502  503 -0.00000000000E+00 -0.00000000000E+00 -0.12038233993E+04  0.12038233993E+04  0.00000000000E+00 0.  1.
    9000007    1    1    2  501    0  0.49844139387E+01  0.15123760567E+03 -0.27415430028E+02  0.42854318750E+03  0.40000000000E+03 0.  1.
   -9000007    1    1    2    0  503 -0.49844139387E+01 -0.15123760567E+03 -0.92898782032E+03  0.10227003608E+04  0.40000000000E+03 0.  1.
<mgrwt>
<rscale>  2 0.42766536E+03</rscale>
<asrwt>0</asrwt>
<pdfrwt beam="1">  1       21 0.38064639E-01 0.42766536E+03</pdfrwt>
<pdfrwt beam="2">  1       21 0.18520360E+00 0.42766536E+03</pdfrwt>
<totfact> 0.94445989E+02</totfact>
</mgrwt>
</event>
<event>
 4    1  0.4890517E-002  0.4504421E+03  0.7818608E-02  0.1027590E+00
         21   -1    0    0  501  502  0.00000000000E+00  0.00000000000E+00  0.26698701216E+03  0.26698701216E+03  0.00000000000E+00 0. -1.
         21   -1    0    0  502  503 -0.00000000000E+00 -0.00000000000E+00 -0.12251839162E+04  0.12251839162E+04  0.00000000000E+00 0.  1.
    9000007    1    1    2  501    0 -0.11694873799E+03 -0.17094166036E+03 -0.19348826769E+02  0.45085744494E+03  0.40000000000E+03 0. -1.
   -9000007    1    1    2    0  503  0.11694873799E+03  0.17094166036E+03 -0.93884807727E+03  0.10413134834E+04  0.40000000000E+03 0.  1.
<mgrwt>
<rscale>  2 0.45044207E+03</rscale>
<asrwt>0</asrwt>
<pdfrwt beam="1">  1       21 0.41074924E-01 0.45044207E+03</pdfrwt>
<pdfrwt beam="2">  1       21 0.18848984E+00 0.45044207E+03</pdfrwt>
<totfact> 0.75847695E+02</totfact>
</mgrwt>
</event>
<event>
 4    1  0.4890517E-002  0.4421696E+03  0.7818608E-02  0.1030083E+00
         21   -1    0    0  501  502  0.00000000000E+00  0.00000000000E+00  0.39376595468E+03  0.39376595468E+03  0.00000000000E+00 0.  1.
         21   -1    0    0  502  503 -0.00000000000E+00 -0.00000000000E+00 -0.65906759672E+03  0.65906759672E+03  0.00000000000E+00 0.  1.
    9000007    1    1    2  501    0  0.13458514593E+03  0.13191193851E+03  0.12877638358E+03  0.46054020237E+03  0.40000000000E+03 0.  1.
   -9000007    1    1    2    0  503 -0.13458514593E+03 -0.13191193851E+03 -0.39407802563E+03  0.59229334903E+03  0.40000000000E+03 0.  1.
<mgrwt>
<rscale>  2 0.44216956E+03</rscale>
<asrwt>0</asrwt>
<pdfrwt beam="1">  1       21 0.60579378E-01 0.44216956E+03</pdfrwt>
<pdfrwt beam="2">  1       21 0.10139501E+00 0.44216956E+03</pdfrwt>
<totfact> 0.17389761E+03</totfact>
</mgrwt>
</event>
<event>
 4    1  0.4890517E-002  0.4031608E+03  0.7818608E-02  0.1042691E+00
         21   -1    0    0  503  502  0.00000000000E+00  0.00000000000E+00  0.13302536037E+04  0.13302536037E+04  0.00000000000E+00 0.  1.
         21   -1    0    0  501  503 -0.00000000000E+00 -0.00000000000E+00 -0.13186653443E+03  0.13186653443E+03  0.00000000000E+00 0.  1.
    9000007    1    1    2  501    0  0.45194996846E+02 -0.22271843060E+02  0.79726919770E+03  0.89340740781E+03  0.40000000000E+03 0.  1.
   -9000007    1    1    2    0  502 -0.45194996846E+02  0.22271843060E+02  0.40111787154E+03  0.56871273030E+03  0.40000000000E+03 0.  1.
<mgrwt>
<rscale>  2 0.40316079E+03</rscale>
<asrwt>0</asrwt>
<pdfrwt beam="1">  1       21 0.20465439E+00 0.40316079E+03</pdfrwt>
<pdfrwt beam="2">  1       21 0.20287160E-01 0.40316079E+03</pdfrwt>
<totfact> 0.24381237E+03</totfact>
</mgrwt>
</event>
<event>
 4    1  0.4890517E-002  0.4321797E+03  0.7818608E-02  0.1033174E+00
         21   -1    0    0  503  502  0.00000000000E+00  0.00000000000E+00  0.85581049595E+03  0.85581049595E+03  0.00000000000E+00 0.  1.
         21   -1    0    0  501  503 -0.00000000000E+00 -0.00000000000E+00 -0.21933613316E+03  0.21933613316E+03  0.00000000000E+00 0.  1.
    9000007    1    1    2  501    0 -0.15921850849E+03 -0.37798991632E+02  0.35609344815E+03  0.55998378640E+03  0.40000000000E+03 0. -1.
   -9000007    1    1    2    0  502  0.15921850849E+03  0.37798991632E+02  0.28038091464E+03  0.51516284271E+03  0.40000000000E+03 0. -1.
<mgrwt>
<rscale>  2 0.43217970E+03</rscale>
<asrwt>0</asrwt>
<pdfrwt beam="1">  1       21 0.13166315E+00 0.43217970E+03</pdfrwt>
<pdfrwt beam="2">  1       21 0.33744021E-01 0.43217970E+03</pdfrwt>
<totfact> 0.30879838E+03</totfact>
</mgrwt>
</event>
<event>
 4    1  0.4890517E-002  0.4364817E+03  0.7818608E-02  0.1031832E+00
         21   -1    0    0  503  502  0.00000000000E+00  0.00000000000E+00  0.17283861773E+04  0.17283861773E+04  0.00000000000E+00 0.  1.
         21   -1    0    0  501  503 -0.00000000000E+00 -0.00000000000E+00 -0.12415729787E+03  0.12415729787E+03  0.00000000000E+00 0.  1.
    9000007    1    1    2  501    0  0.12936940473E+03 -0.11738770440E+03  0.11123696075E+04  0.11949403582E+04  0.40000000000E+03 0.  1.
   -9000007    1    1    2    0  502 -0.12936940473E+03  0.11738770440E+03  0.49185927191E+03  0.65760311692E+03  0.40000000000E+03 0.  1.
<mgrwt>
<rscale>  2 0.43648175E+03</rscale>
<asrwt>0</asrwt>
<pdfrwt beam="1">  1       21 0.26590555E+00 0.43648175E+03</pdfrwt>
<pdfrwt beam="2">  1       21 0.19101124E-01 0.43648175E+03</pdfrwt>
<totfact> 0.11128840E+03</totfact>
</mgrwt>
</event>
<event>
 4    1  0.4890517E-002  0.5046081E+03  0.7818608E-02  0.1012583E+00
         21   -1    0    0  501  502  0.00000000000E+00  0.00000000000E+00  0.10540476349E+04  0.10540476349E+04  0.00000000000E+00 0.  1.
         21   -1    0    0  502  503 -0.00000000000E+00 -0.00000000000E+00 -0.33193365630E+03  0.33193365630E+03  0.00000000000E+00 0.  1.
    9000007    1    1    2  501    0  0.25214596722E+03  0.17621492833E+03  0.72262648167E+03  0.88137297540E+03  0.40000000000E+03 0.  1.
   -9000007    1    1    2    0  503 -0.25214596722E+03 -0.17621492833E+03 -0.51250302631E+00  0.50460831584E+03  0.40000000000E+03 0.  1.
<mgrwt>
<rscale>  2 0.50460806E+03</rscale>
<asrwt>0</asrwt>
<pdfrwt beam="1">  1       21 0.16216117E+00 0.50460806E+03</pdfrwt>
<pdfrwt beam="2">  1       21 0.51066717E-01 0.50460806E+03</pdfrwt>
<totfact> 0.72424115E+02</totfact>
</mgrwt>
</event>
<event>
 4    1  0.4890517E-002  0.4783789E+03  0.7818608E-02  0.1019582E+00
         21   -1    0    0  503  502  0.00000000000E+00  0.00000000000E+00  0.74382957249E+03  0.74382957249E+03  0.00000000000E+00 0.  1.
         21   -1    0    0  501  503 -0.00000000000E+00 -0.00000000000E+00 -0.30827321086E+03  0.30827321086E+03  0.00000000000E+00 0.  1.
    9000007    1    1    2  501    0 -0.25977209611E+03  0.36943596782E+02  0.24124623336E+03  0.53576684889E+03  0.40000000000E+03 0.  1.
   -9000007    1    1    2    0  502  0.25977209611E+03 -0.36943596782E+02  0.19431012827E+03  0.51633593445E+03  0.40000000000E+03 0.  1.
<mgrwt>
<rscale>  2 0.47837890E+03</rscale>
<asrwt>0</asrwt>
<pdfrwt beam="1">  1       21 0.11443532E+00 0.47837890E+03</pdfrwt>
<pdfrwt beam="2">  1       21 0.47426648E-01 0.47837890E+03</pdfrwt>
<totfact> 0.21538955E+03</totfact>
</mgrwt>
</event>
<event>
 4    1  0.4890517E-002  0.4418895E+03  0.7818608E-02  0.1030169E+00
         21   -1    0    0  501  502  0.00000000000E+00  0.00000000000E+00  0.29491725936E+03  0.29491725936E+03  0.00000000000E+00 0. -1.
         21   -1    0    0  502  503 -0.00000000000E+00 -0.00000000000E+00 -0.73473464905E+03  0.73473464905E+03  0.00000000000E+00 0. -1.
    9000007    1    1    2  501    0 -0.16716168438E+03 -0.85576427757E+02 -0.58044606300E+02  0.44568546087E+03  0.40000000000E+03 0. -1.
   -9000007    1    1    2    0  503  0.16716168438E+03  0.85576427757E+02 -0.38177278340E+03  0.58396644754E+03  0.40000000000E+03 0. -1.
<mgrwt>
<rscale>  2 0.44188953E+03</rscale>
<asrwt>0</asrwt>
<pdfrwt beam="1">  1       21 0.45371886E-01 0.44188953E+03</pdfrwt>
<pdfrwt beam="2">  1       21 0.11303610E+00 0.44188953E+03</pdfrwt>
<totfact> 0.24710162E+03</totfact>
</mgrwt>
</event>
<event>
 4    1  0.4890517E-002  0.5770444E+03  0.7818608E-02  0.9954210E-01
         21   -1    0    0  503  502  0.00000000000E+00  0.00000000000E+00  0.24561727845E+03  0.24561727845E+03  0.00000000000E+00 0. -1.
         21   -1    0    0  501  503 -0.00000000000E+00 -0.00000000000E+00 -0.15031067714E+04  0.15031067714E+04  0.00000000000E+00 0.  1.
    9000007    1    1    2  501    0 -0.41488878913E+03 -0.29113021705E+02 -0.90256999746E+03  0.10712669488E+04  0.40000000000E+03 0.  1.
   -9000007    1    1    2    0  502  0.41488878913E+03  0.29113021705E+02 -0.35491949546E+03  0.67745710096E+03  0.40000000000E+03 0.  1.
<mgrwt>
<rscale>  2 0.57704443E+03</rscale>
<asrwt>0</asrwt>
<pdfrwt beam="1">  1       21 0.37787274E-01 0.57704443E+03</pdfrwt>
<pdfrwt beam="2">  1       21 0.23124719E+00 0.57704443E+03</pdfrwt>
<totfact> 0.44659135E+02</totfact>
</mgrwt>
</event>
<event>
 4    1  0.4890517E-002  0.4216107E+03  0.7818608E-02  0.1036543E+00
         21   -1    0    0  503  502  0.00000000000E+00  0.00000000000E+00  0.27294269511E+04  0.27294269511E+04  0.00000000000E+00 0.  1.
         21   -1    0    0  501  503 -0.00000000000E+00 -0.00000000000E+00 -0.14437319538E+03  0.14437319538E+03  0.00000000000E+00 0.  1.
    9000007    1    1    2  501    0  0.86619555472E+02  0.10125543312E+03  0.22795182015E+03  0.47928868382E+03  0.40000000000E+03 0.  1.
   -9000007    1    1    2    0  502 -0.86619555472E+02 -0.10125543312E+03  0.23571019356E+04  0.23945114627E+04  0.40000000000E+03 0.  1.
<mgrwt>
<rscale>  2 0.42161073E+03</rscale>
<asrwt>0</asrwt>
<pdfrwt beam="1">  1       21 0.41991180E+00 0.42161073E+03</pdfrwt>
<pdfrwt beam="2">  1       21 0.22211263E-01 0.42161073E+03</pdfrwt>
<totfact> 0.94748058E+01</totfact>
</mgrwt>
</event>
<event>
 4    1  0.4890517E-002  0.6494635E+03  0.7818608E-02  0.9807786E-01
         21   -1    0    0  501  502  0.00000000000E+00  0.00000000000E+00  0.11445415923E+04  0.11445415923E+04  0.00000000000E+00 0.  1.
         21   -1    0    0  502  503 -0.00000000000E+00 -0.00000000000E+00 -0.43623108402E+03  0.43623108402E+03  0.00000000000E+00 0. -1.
    9000007    1    1    2  501    0 -0.50517253913E+03  0.81262345385E+02  0.66551686073E+03  0.92990083072E+03  0.40000000000E+03 0.  1.
   -9000007    1    1    2    0  503  0.50517253913E+03 -0.81262345385E+02  0.42793647500E+02  0.65087184555E+03  0.40000000000E+03 0. -1.
<mgrwt>
<rscale>  2 0.64946352E+03</rscale>
<asrwt>0</asrwt>
<pdfrwt beam="1">  1       21 0.17608332E+00 0.64946352E+03</pdfrwt>
<pdfrwt beam="2">  1       21 0.67112475E-01 0.64946352E+03</pdfrwt>
<totfact> 0.29781702E+02</totfact>
</mgrwt>
</event>
<event>
 4    1  0.4890517E-002  0.6019189E+03  0.7818608E-02  0.9901433E-01
         21   -1    0    0  501  502  0.00000000000E+00  0.00000000000E+00  0.42901929170E+03  0.42901929170E+03  0.00000000000E+00 0.  1.
         21   -1    0    0  502  503 -0.00000000000E+00 -0.00000000000E+00 -0.10717975900E+04  0.10717975900E+04  0.00000000000E+00 0. -1.
    9000007    1    1    2  501    0 -0.18326698241E+03  0.41075493074E+03  0.24183697526E+02  0.60240455774E+03  0.40000000000E+03 0.  1.
   -9000007    1    1    2    0  503  0.18326698241E+03 -0.41075493074E+03 -0.66696199586E+03  0.89841232399E+03  0.40000000000E+03 0. -1.
<mgrwt>
<rscale>  2 0.60191893E+03</rscale>
<asrwt>0</asrwt>
<pdfrwt beam="1">  1       21 0.66002969E-01 0.60191893E+03</pdfrwt>
<pdfrwt beam="2">  1       21 0.16489194E+00 0.60191893E+03</pdfrwt>
<totfact> 0.37981575E+02</totfact>
</mgrwt>
</event>
<event>
 4    1  0.4890517E-002  0.4264211E+03  0.7818608E-02  0.1034997E+00
         21   -1    0    0  501  502  0.00000000000E+00  0.00000000000E+00  0.16435007832E+03  0.16435007832E+03  0.00000000000E+00 0.  1.
         21   -1    0    0  502  503 -0.00000000000E+00 -0.00000000000E+00 -0.15827745845E+04  0.15827745845E+04  0.00000000000E+00 0. -1.
    9000007    1    1    2  501    0 -0.96186521651E+02 -0.11217446683E+03 -0.11884644544E+04  0.12626490872E+04  0.40000000000E+03 0. -1.
   -9000007    1    1    2    0  503  0.96186521651E+02  0.11217446683E+03 -0.22996005173E+03  0.48447557559E+03  0.40000000000E+03 0.  1.
<mgrwt>
<rscale>  2 0.42642110E+03</rscale>
<asrwt>0</asrwt>
<pdfrwt beam="1">  1       21 0.25284627E-01 0.42642110E+03</pdfrwt>
<pdfrwt beam="2">  1       21 0.24350379E+00 0.42642110E+03</pdfrwt>
<totfact> 0.89482058E+02</totfact>
</mgrwt>
</event>
<event>
 4    1  0.4890517E-002  0.4071458E+03  0.7818608E-02  0.1041333E+00
         21   -1    0    0  501  502  0.00000000000E+00  0.00000000000E+00  0.58040522686E+03  0.58040522686E+03  0.00000000000E+00 0. -1.
         21   -1    0    0  502  503 -0.00000000000E+00 -0.00000000000E+00 -0.49797144119E+03  0.49797144119E+03  0.00000000000E+00 0. -1.
    9000007    1    1    2  501    0  0.74302363206E+02  0.15712101670E+02  0.39332766930E+03  0.56610455462E+03  0.40000000000E+03 0. -1.
   -9000007    1    1    2    0  503 -0.74302363206E+02 -0.15712101670E+02 -0.31089388364E+03  0.51227211343E+03  0.40000000000E+03 0. -1.
<mgrwt>
<rscale>  2 0.40714581E+03</rscale>
<asrwt>0</asrwt>
<pdfrwt beam="1">  1       21 0.89293112E-01 0.40714581E+03</pdfrwt>
<pdfrwt beam="2">  1       21 0.76610991E-01 0.40714581E+03</pdfrwt>
<totfact> 0.14143174E+03</totfact>
</mgrwt>
</event>
<event>
 4    1  0.4890517E-002  0.4911987E+03  0.7818608E-02  0.1016102E+00
         21   -1    0    0  501  502  0.00000000000E+00  0.00000000000E+00  0.27432016641E+03  0.27432016641E+03  0.00000000000E+00 0. -1.
         21   -1    0    0  502  503 -0.00000000000E+00 -0.00000000000E+00 -0.94321124096E+03  0.94321124096E+03  0.00000000000E+00 0.  1.
    9000007    1    1    2  501    0  0.15313900454E+03 -0.24046748503E+03 -0.17628074868E+03  0.52187265537E+03  0.40000000000E+03 0.  1.
   -9000007    1    1    2    0  503 -0.15313900454E+03  0.24046748503E+03 -0.49261032587E+03  0.69565875199E+03  0.40000000000E+03 0.  1.
<mgrwt>
<rscale>  2 0.49119870E+03</rscale>
<asrwt>0</asrwt>
<pdfrwt beam="1">  1       21 0.42203101E-01 0.49119870E+03</pdfrwt>
<pdfrwt beam="2">  1       21 0.14510943E+00 0.49119870E+03</pdfrwt>
<totfact> 0.14771634E+03</totfact>
</mgrwt>
</event>
<event>
 4    1  0.4890517E-002  0.6782247E+03  0.7818608E-02  0.9755213E-01
         21   -1    0    0  503  502  0.00000000000E+00  0.00000000000E+00  0.88000970134E+03  0.88000970134E+03  0.00000000000E+00 0.  1.
         21   -1    0    0  501  503 -0.00000000000E+00 -0.00000000000E+00 -0.54894531009E+03  0.54894531009E+03  0.00000000000E+00 0. -1.
    9000007    1    1    2  501    0  0.46216297236E+03 -0.29392868364E+03  0.93331828451E+01  0.67828887090E+03  0.40000000000E+03 0. -1.
   -9000007    1    1    2    0  502 -0.46216297236E+03  0.29392868364E+03  0.32173120840E+03  0.75066614053E+03  0.40000000000E+03 0.  1.
<mgrwt>
<rscale>  2 0.67822466E+03</rscale>
<asrwt>0</asrwt>
<pdfrwt beam="1">  1       21 0.13538611E+00 0.67822466E+03</pdfrwt>
<pdfrwt beam="2">  1       21 0.84453125E-01 0.67822466E+03</pdfrwt>
<totfact> 0.36155660E+02</totfact>
</mgrwt>
</event>
<event>
 4    1  0.4890517E-002  0.4530121E+03  0.7818608E-02  0.1026828E+00
         21   -1    0    0  501  502  0.00000000000E+00  0.00000000000E+00  0.92788508629E+02  0.92788508629E+02  0.00000000000E+00 0. -1.
         21   -1    0    0  502  503 -0.00000000000E+00 -0.00000000000E+00 -0.22947436831E+04  0.22947436831E+04  0.00000000000E+00 0.  1.
    9000007    1    1    2  501    0  0.21253003763E+03  0.71378100098E+01 -0.13280770669E+04  0.14032136904E+04  0.40000000000E+03 0. -1.
   -9000007    1    1    2    0  503 -0.21253003763E+03 -0.71378100098E+01 -0.87387810757E+03  0.98431850135E+03  0.40000000000E+03 0.  1.
<mgrwt>
<rscale>  2 0.45301210E+03</rscale>
<asrwt>0</asrwt>
<pdfrwt beam="1">  1       21 0.14275157E-01 0.45301210E+03</pdfrwt>
<pdfrwt beam="2">  1       21 0.35303744E+00 0.45301210E+03</pdfrwt>
<totfact> 0.56512937E+02</totfact>
</mgrwt>
</event>
<event>
 4    1  0.4890517E-002  0.4290456E+03  0.7818608E-02  0.1034162E+00
         21   -1    0    0  501  502  0.00000000000E+00  0.00000000000E+00  0.12606389445E+04  0.12606389445E+04  0.00000000000E+00 0. -1.
         21   -1    0    0  502  503 -0.00000000000E+00 -0.00000000000E+00 -0.14903178154E+03  0.14903178154E+03  0.00000000000E+00 0. -1.
    9000007    1    1    2  501    0 -0.15176699292E+03  0.32356186710E+02  0.65598009467E+03  0.78383035637E+03  0.40000000000E+03 0. -1.
   -9000007    1    1    2    0  503  0.15176699292E+03 -0.32356186710E+02  0.45562706830E+03  0.62584036969E+03  0.40000000000E+03 0. -1.
<mgrwt>
<rscale>  2 0.42904562E+03</rscale>
<asrwt>0</asrwt>
<pdfrwt beam="1">  1       21 0.19394445E+00 0.42904562E+03</pdfrwt>
<pdfrwt beam="2">  1       21 0.22927967E-01 0.42904562E+03</pdfrwt>
<totfact> 0.22468205E+03</totfact>
</mgrwt>
</event>
<event>
 4    1  0.4890517E-002  0.5495764E+03  0.7818608E-02  0.1001592E+00
         21   -1    0    0  501  502  0.00000000000E+00  0.00000000000E+00  0.13170477476E+04  0.13170477476E+04  0.00000000000E+00 0. -1.
         21   -1    0    0  502  503 -0.00000000000E+00 -0.00000000000E+00 -0.24011535569E+03  0.24011535569E+03  0.00000000000E+00 0.  1.
    9000007    1    1    2  501    0 -0.14814659470E+03 -0.34653541188E+03  0.37343048138E+03  0.66444302211E+03  0.40000000000E+03 0. -1.
   -9000007    1    1    2    0  503  0.14814659470E+03  0.34653541188E+03  0.70350191049E+03  0.89272008114E+03  0.40000000000E+03 0.  1.
<mgrwt>
<rscale>  2 0.54957639E+03</rscale>
<asrwt>0</asrwt>
<pdfrwt beam="1">  1       21 0.20262273E+00 0.54957639E+03</pdfrwt>
<pdfrwt beam="2">  1       21 0.36940825E-01 0.54957639E+03</pdfrwt>
<totfact> 0.72582578E+02</totfact>
</mgrwt>
</event>
<event>
 4    1  0.4890517E-002  0.5140393E+03  0.7818608E-02  0.1010178E+00
         21   -1    0    0  503  502  0.00000000000E+00  0.00000000000E+00  0.15007115532E+04  0.15007115532E+04  0.00000000000E+00 0. -1.
         21   -1    0    0  501  503 -0.00000000000E+00 -0.00000000000E+00 -0.60387495679E+03  0.60387495679E+03  0.00000000000E+00 0. -1.
    9000007    1    1    2  501    0  0.28311798669E+03  0.15517916162E+03 -0.43727656415E+03  0.67486825392E+03  0.40000000000E+03 0. -1.
   -9000007    1    1    2    0  502 -0.28311798669E+03 -0.15517916162E+03  0.13341131606E+04  0.14297182561E+04  0.40000000000E+03 0. -1.
<mgrwt>
<rscale>  2 0.51403927E+03</rscale>
<asrwt>0</asrwt>
<pdfrwt beam="1">  1       21 0.23087870E+00 0.51403927E+03</pdfrwt>
<pdfrwt beam="2">  1       21 0.92903840E-01 0.51403927E+03</pdfrwt>
<totfact> 0.63582202E+01</totfact>
</mgrwt>
</event>
<event>
 4    1  0.4890517E-002  0.5604081E+03  0.7818608E-02  0.9991132E-01
         21   -1    0    0  503  502  0.00000000000E+00  0.00000000000E+00  0.72581296049E+03  0.72581296049E+03  0.00000000000E+00 0.  1.
         21   -1    0    0  501  503 -0.00000000000E+00 -0.00000000000E+00 -0.45354755643E+03  0.45354755643E+03  0.00000000000E+00 0. -1.
    9000007    1    1    2  501    0 -0.42717534697E+02  0.39016980812E+03  0.96994040196E+01  0.56049205648E+03  0.40000000000E+03 0.  1.
   -9000007    1    1    2    0  502  0.42717534697E+02 -0.39016980812E+03  0.26256600005E+03  0.61886846044E+03  0.40000000000E+03 0.  1.
<mgrwt>
<rscale>  2 0.56040813E+03</rscale>
<asrwt>0</asrwt>
<pdfrwt beam="1">  1       21 0.11166353E+00 0.56040813E+03</pdfrwt>
<pdfrwt beam="2">  1       21 0.69776547E-01 0.56040813E+03</pdfrwt>
<totfact> 0.95830367E+02</totfact>
</mgrwt>
</event>
<event>
 4    1  0.4890517E-002  0.4072669E+03  0.7818608E-02  0.1041292E+00
         21   -1    0    0  503  502  0.00000000000E+00  0.00000000000E+00  0.21652073545E+04  0.21652073545E+04  0.00000000000E+00 0. -1.
         21   -1    0    0  501  503 -0.00000000000E+00 -0.00000000000E+00 -0.10667997419E+03  0.10667997419E+03  0.00000000000E+00 0. -1.
    9000007    1    1    2  501    0 -0.50392335198E+02  0.57679332967E+02  0.42612661097E+03  0.58944904909E+03  0.40000000000E+03 0. -1.
   -9000007    1    1    2    0  502  0.50392335198E+02 -0.57679332967E+02  0.16324007693E+04  0.16824382796E+04  0.40000000000E+03 0. -1.
<mgrwt>
<rscale>  2 0.40726686E+03</rscale>
<asrwt>0</asrwt>
<pdfrwt beam="1">  1       21 0.33310879E+00 0.40726686E+03</pdfrwt>
<pdfrwt beam="2">  1       21 0.16412305E-01 0.40726686E+03</pdfrwt>
<totfact> 0.59354760E+02</totfact>
</mgrwt>
</event>
<event>
 4    1  0.4890517E-002  0.6166811E+03  0.7818608E-02  0.9871390E-01
         21   -1    0    0  501  502  0.00000000000E+00  0.00000000000E+00  0.94961716543E+03  0.94961716543E+03  0.00000000000E+00 0.  1.
         21   -1    0    0  502  503 -0.00000000000E+00 -0.00000000000E+00 -0.18851317321E+04  0.18851317321E+04  0.00000000000E+00 0. -1.
    9000007    1    1    2  501    0 -0.42017748960E+03 -0.20915643928E+03  0.79008775895E+03  0.10022645388E+04  0.40000000000E+03 0.  1.
   -9000007    1    1    2    0  503  0.42017748960E+03  0.20915643928E+03 -0.17256023257E+04  0.18324843588E+04  0.40000000000E+03 0. -1.
<mgrwt>
<rscale>  2 0.61668107E+03</rscale>
<asrwt>0</asrwt>
<pdfrwt beam="1">  1       21 0.14609495E+00 0.61668107E+03</pdfrwt>
<pdfrwt beam="2">  1       21 0.29002026E+00 0.61668107E+03</pdfrwt>
<totfact> 0.82063041E+00</totfact>
</mgrwt>
</event>
<event>
 4    1  0.4890517E-002  0.4156807E+03  0.7818608E-02  0.1038481E+00
         21   -1    0    0  503  502  0.00000000000E+00  0.00000000000E+00  0.48210349400E+03  0.48210349400E+03  0.00000000000E+00 0. -1.
         21   -1    0    0  501  503 -0.00000000000E+00 -0.00000000000E+00 -0.70399853062E+03  0.70399853062E+03  0.00000000000E+00 0. -1.
    9000007    1    1    2  501    0  0.11278082667E+03  0.84244103793E+01 -0.52646196916E+03  0.67078512992E+03  0.40000000000E+03 0. -1.
   -9000007    1    1    2    0  502 -0.11278082667E+03 -0.84244103793E+01  0.30456693254E+03  0.51531689469E+03  0.40000000000E+03 0. -1.
<mgrwt>
<rscale>  2 0.41568075E+03</rscale>
<asrwt>0</asrwt>
<pdfrwt beam="1">  1       21 0.74169769E-01 0.41568075E+03</pdfrwt>
<pdfrwt beam="2">  1       21 0.10830746E+00 0.41568075E+03</pdfrwt>
<totfact> 0.95175782E+02</totfact>
</mgrwt>
</event>
<event>
 4    1  0.4890517E-002  0.5709383E+03  0.7818608E-02  0.9967605E-01
         21   -1    0    0  503  502  0.00000000000E+00  0.00000000000E+00  0.35952764334E+03  0.35952764334E+03  0.00000000000E+00 0. -1.
         21   -1    0    0  501  503 -0.00000000000E+00 -0.00000000000E+00 -0.12585269439E+04  0.12585269439E+04  0.00000000000E+00 0. -1.
    9000007    1    1    2  501    0 -0.32326306089E+03 -0.24793442991E+03 -0.87727836021E+03  0.10467033053E+04  0.40000000000E+03 0. -1.
   -9000007    1    1    2    0  502  0.32326306089E+03  0.24793442991E+03 -0.21720940324E+02  0.57135128189E+03  0.40000000000E+03 0. -1.
<mgrwt>
<rscale>  2 0.57093825E+03</rscale>
<asrwt>0</asrwt>
<pdfrwt beam="1">  1       21 0.55311945E-01 0.57093825E+03</pdfrwt>
<pdfrwt beam="2">  1       21 0.19361953E+00 0.57093825E+03</pdfrwt>
<totfact> 0.35380983E+02</totfact>
</mgrwt>
</event>
<event>
 4    1  0.4890517E-002  0.4613543E+03  0.7818608E-02  0.1024389E+00
         21   -1    0    0  503  502  0.00000000000E+00  0.00000000000E+00  0.18515403563E+03  0.18515403563E+03  0.00000000000E+00 0.  1.
         21   -1    0    0  501  503 -0.00000000000E+00 -0.00000000000E+00 -0.11655089390E+04  0.11655089390E+04  0.00000000000E+00 0.  1.
    9000007    1    1    2  501    0 -0.15433387946E+03  0.17037862409E+03 -0.41120656165E+03  0.61801185931E+03  0.40000000000E+03 0.  1.
   -9000007    1    1    2    0  502  0.15433387946E+03 -0.17037862409E+03 -0.56914834169E+03  0.73265111530E+03  0.40000000000E+03 0.  1.
<mgrwt>
<rscale>  2 0.46135433E+03</rscale>
<asrwt>0</asrwt>
<pdfrwt beam="1">  1       21 0.28485237E-01 0.46135433E+03</pdfrwt>
<pdfrwt beam="2">  1       21 0.17930906E+00 0.46135433E+03</pdfrwt>
<totfact> 0.18318555E+03</totfact>
</mgrwt>
</event>
<event>
 4    1  0.4890517E-002  0.6596755E+03  0.7818608E-02  0.9788791E-01
         21   -1    0    0  503  502  0.00000000000E+00  0.00000000000E+00  0.22212607846E+03  0.22212607846E+03  0.00000000000E+00 0. -1.
         21   -1    0    0  501  503 -0.00000000000E+00 -0.00000000000E+00 -0.21526520961E+04  0.21526520961E+04  0.00000000000E+00 0.  1.
    9000007    1    1    2  501    0  0.34185864476E+03 -0.39787487447E+03 -0.13212893206E+04  0.14768131966E+04  0.40000000000E+03 0. -1.
   -9000007    1    1    2    0  502 -0.34185864476E+03  0.39787487447E+03 -0.60923669703E+03  0.89796497802E+03  0.40000000000E+03 0.  1.
<mgrwt>
<rscale>  2 0.65967549E+03</rscale>
<asrwt>0</asrwt>
<pdfrwt beam="1">  1       21 0.34173243E-01 0.65967549E+03</pdfrwt>
<pdfrwt beam="2">  1       21 0.33117724E+00 0.65967549E+03</pdfrwt>
<totfact> 0.12847359E+02</totfact>
</mgrwt>
</event>
<event>
 4    1  0.4890517E-002  0.8712564E+03  0.7818608E-02  0.9462243E-01
         21   -1    0    0  501  502  0.00000000000E+00  0.00000000000E+00  0.28272130365E+04  0.28272130365E+04  0.00000000000E+00 0.  1.
         21   -1    0    0  502  503 -0.00000000000E+00 -0.00000000000E+00 -0.27928113593E+03  0.27928113593E+03  0.00000000000E+00 0.  1.
    9000007    1    1    2  501    0  0.54741435469E+03  0.54719770054E+03  0.15792377023E+04  0.18036295405E+04  0.40000000000E+03 0.  1.
   -9000007    1    1    2    0  503 -0.54741435469E+03 -0.54719770054E+03  0.96869419824E+03  0.13028646318E+04  0.40000000000E+03 0.  1.
<mgrwt>
<rscale>  2 0.87125645E+03</rscale>
<asrwt>0</asrwt>
<pdfrwt beam="1">  1       21 0.43495583E+00 0.87125645E+03</pdfrwt>
<pdfrwt beam="2">  1       21 0.42966331E-01 0.87125645E+03</pdfrwt>
<totfact> 0.15795420E+01</totfact>
</mgrwt>
</event>
<event>
 4    1  0.4890517E-002  0.4320669E+03  0.7818608E-02  0.1033209E+00
         21   -1    0    0  501  502  0.00000000000E+00  0.00000000000E+00  0.26468181799E+03  0.26468181799E+03  0.00000000000E+00 0.  1.
         21   -1    0    0  502  503 -0.00000000000E+00 -0.00000000000E+00 -0.75290154451E+03  0.75290154451E+03  0.00000000000E+00 0.  1.
    9000007    1    1    2  501    0  0.14632093829E+03  0.72608457663E+02 -0.37203379629E+03  0.57016747600E+03  0.40000000000E+03 0.  1.
   -9000007    1    1    2    0  503 -0.14632093829E+03 -0.72608457663E+02 -0.11618593022E+03  0.44741588649E+03  0.40000000000E+03 0.  1.
<mgrwt>
<rscale>  2 0.43206690E+03</rscale>
<asrwt>0</asrwt>
<pdfrwt beam="1">  1       21 0.40720280E-01 0.43206690E+03</pdfrwt>
<pdfrwt beam="2">  1       21 0.11583101E+00 0.43206690E+03</pdfrwt>
<totfact> 0.29222532E+03</totfact>
</mgrwt>
</event>
<event>
 4    1  0.4890517E-002  0.5927296E+03  0.7818608E-02  0.9920606E-01
         21   -1    0    0  501  502  0.00000000000E+00  0.00000000000E+00  0.19790936864E+04  0.19790936864E+04  0.00000000000E+00 0. -1.
         21   -1    0    0  502  503 -0.00000000000E+00 -0.00000000000E+00 -0.26346981092E+03  0.26346981092E+03  0.00000000000E+00 0.  1.
    9000007    1    1    2  501    0 -0.35370810975E+03 -0.25733033098E+03  0.14982428373E+04  0.16112293212E+04  0.40000000000E+03 0. -1.
   -9000007    1    1    2    0  503  0.35370810975E+03  0.25733033098E+03  0.21738103820E+03  0.63133417610E+03  0.40000000000E+03 0.  1.
<mgrwt>
<rscale>  2 0.59272956E+03</rscale>
<asrwt>0</asrwt>
<pdfrwt beam="1">  1       21 0.30447594E+00 0.59272956E+03</pdfrwt>
<pdfrwt beam="2">  1       21 0.40533818E-01 0.59272956E+03</pdfrwt>
<totfact> 0.13576414E+02</totfact>
</mgrwt>
</event>
<event>
 4    1  0.4890517E-002  0.6160915E+03  0.7818608E-02  0.9872572E-01
         21   -1    0    0  503  502  0.00000000000E+00  0.00000000000E+00  0.18783331368E+04  0.18783331368E+04  0.00000000000E+00 0. -1.
         21   -1    0    0  501  503 -0.00000000000E+00 -0.00000000000E+00 -0.27217250012E+03  0.27217250012E+03  0.00000000000E+00 0.  1.
    9000007    1    1    2  501    0  0.11137733166E+03 -0.45515256673E+03  0.25740771946E+03  0.66770315489E+03  0.40000000000E+03 0.  1.
   -9000007    1    1    2    0  502 -0.11137733166E+03  0.45515256673E+03  0.13487529173E+04  0.14828024821E+04  0.40000000000E+03 0. -1.
<mgrwt>
<rscale>  2 0.61609153E+03</rscale>
<asrwt>0</asrwt>
<pdfrwt beam="1">  1       21 0.28897432E+00 0.61609153E+03</pdfrwt>
<pdfrwt beam="2">  1       21 0.41872694E-01 0.61609153E+03</pdfrwt>
<totfact> 0.15608216E+02</totfact>
</mgrwt>
</event>
<event>
 4    1  0.4890517E-002  0.4456559E+03  0.7818608E-02  0.1029025E+00
         21   -1    0    0  501  502  0.00000000000E+00  0.00000000000E+00  0.60270084332E+03  0.60270084332E+03  0.00000000000E+00 0.  1.
         21   -1    0    0  502  503 -0.00000000000E+00 -0.00000000000E+00 -0.60866964776E+03  0.60866964776E+03  0.00000000000E+00 0.  1.
    9000007    1    1    2  501    0 -0.14651036598E+03 -0.13093458359E+03 -0.41315588112E+03  0.60770628977E+03  0.40000000000E+03 0.  1.
   -9000007    1    1    2    0  503  0.14651036598E+03  0.13093458359E+03  0.40718707668E+03  0.60366420131E+03  0.40000000000E+03 0.  1.
<mgrwt>
<rscale>  2 0.44565587E+03</rscale>
<asrwt>0</asrwt>
<pdfrwt beam="1">  1       21 0.92723207E-01 0.44565587E+03</pdfrwt>
<pdfrwt beam="2">  1       21 0.93641484E-01 0.44565587E+03</pdfrwt>
<totfact> 0.79601677E+02</totfact>
</mgrwt>
</event>
<event>
 4    1  0.4890517E-002  0.4054386E+03  0.7818608E-02  0.1041913E+00
         21   -1    0    0  501  502  0.00000000000E+00  0.00000000000E+00  0.29781650942E+03  0.29781650942E+03  0.00000000000E+00 0.  1.
         21   -1    0    0  502  503 -0.00000000000E+00 -0.00000000000E+00 -0.15257036085E+04  0.15257036085E+04  0.00000000000E+00 0.  1.
    9000007    1    1    2  501    0 -0.96140719606E+01  0.65483169872E+02  0.11445576315E+03  0.42128446166E+03  0.40000000000E+03 0.  1.
   -9000007    1    1    2    0  503  0.96140719606E+01 -0.65483169872E+02 -0.13423428622E+04  0.14022356563E+04  0.40000000000E+03 0.  1.
<mgrwt>
<rscale>  2 0.40543862E+03</rscale>
<asrwt>0</asrwt>
<pdfrwt beam="1">  1       21 0.45817926E-01 0.40543862E+03</pdfrwt>
<pdfrwt beam="2">  1       21 0.23472363E+00 0.40543862E+03</pdfrwt>
<totfact> 0.30953343E+02</totfact>
</mgrwt>
</event>
<event>
 4    1  0.4890517E-002  0.4614112E+03  0.7818608E-02  0.1024373E+00
         21   -1    0    0  503  502  0.00000000000E+00  0.00000000000E+00  0.81301868930E+03  0.81301868930E+03  0.00000000000E+00 0.  1.
         21   -1    0    0  501  503 -0.00000000000E+00 -0.00000000000E+00 -0.26742110298E+03  0.26742110298E+03  0.00000000000E+00 0.  1.
    9000007    1    1    2  501    0  0.12661289518E+03  0.19201416961E+03  0.19492347766E+03  0.50089462834E+03  0.40000000000E+03 0.  1.
   -9000007    1    1    2    0  502 -0.12661289518E+03 -0.19201416961E+03  0.35067410866E+03  0.57954516394E+03  0.40000000000E+03 0.  1.
<mgrwt>
<rscale>  2 0.46141117E+03</rscale>
<asrwt>0</asrwt>
<pdfrwt beam="1">  1       21 0.12507980E+00 0.46141117E+03</pdfrwt>
<pdfrwt beam="2">  1       21 0.41141708E-01 0.46141117E+03</pdfrwt>
<totfact> 0.23275532E+03</totfact>
</mgrwt>
</event>
<event>
 4    1  0.4890517E-002  0.4398573E+03  0.7818608E-02  0.1030791E+00
         21   -1    0    0  501  502  0.00000000000E+00  0.00000000000E+00  0.57562709922E+03  0.57562709922E+03  0.00000000000E+00 0. -1.
         21   -1    0    0  502  503 -0.00000000000E+00 -0.00000000000E+00 -0.33965180574E+03  0.33965180574E+03  0.00000000000E+00 0. -1.
    9000007    1    1    2  501    0  0.57203727522E+02  0.17378765075E+03  0.16471566405E+03  0.46968677220E+03  0.40000000000E+03 0. -1.
   -9000007    1    1    2    0  503 -0.57203727522E+02 -0.17378765075E+03  0.71259629431E+02  0.44559213276E+03  0.40000000000E+03 0. -1.
<mgrwt>
<rscale>  2 0.43985727E+03</rscale>
<asrwt>0</asrwt>
<pdfrwt beam="1">  1       21 0.88558015E-01 0.43985727E+03</pdfrwt>
<pdfrwt beam="2">  1       21 0.52254124E-01 0.43985727E+03</pdfrwt>
<totfact> 0.33160946E+03</totfact>
</mgrwt>
</event>
<event>
 4    1  0.4890517E-002  0.4249776E+03  0.7818608E-02  0.1035458E+00
         21   -1    0    0  501  502  0.00000000000E+00  0.00000000000E+00  0.37505878475E+04  0.37505878475E+04  0.00000000000E+00 0.  1.
         21   -1    0    0  502  503 -0.00000000000E+00 -0.00000000000E+00 -0.12035740665E+03  0.12035740665E+03  0.00000000000E+00 0. -1.
    9000007    1    1    2  501    0  0.74686782153E+02 -0.12258826224E+03  0.33142107693E+04  0.33413468872E+04  0.40000000000E+03 0.  1.
   -9000007    1    1    2    0  503 -0.74686782153E+02  0.12258826224E+03  0.31601967162E+03  0.52959836699E+03  0.40000000000E+03 0. -1.
<mgrwt>
<rscale>  2 0.42497764E+03</rscale>
<asrwt>0</asrwt>
<pdfrwt beam="1">  1       21 0.57701343E+00 0.42497764E+03</pdfrwt>
<pdfrwt beam="2">  1       21 0.18516527E-01 0.42497764E+03</pdfrwt>
<totfact> 0.10185759E+01</totfact>
</mgrwt>
</event>
<event>
 4    1  0.4890517E-002  0.4615058E+03  0.7818608E-02  0.1024345E+00
         21   -1    0    0  501  502  0.00000000000E+00  0.00000000000E+00  0.16555079726E+04  0.16555079726E+04  0.00000000000E+00 0.  1.
         21   -1    0    0  502  503 -0.00000000000E+00 -0.00000000000E+00 -0.26108708187E+03  0.26108708187E+03  0.00000000000E+00 0.  1.
    9000007    1    1    2  501    0 -0.22982797248E+03  0.12911846155E+02  0.13797157437E+04  0.14548550258E+04  0.40000000000E+03 0.  1.
   -9000007    1    1    2    0  503  0.22982797248E+03 -0.12911846155E+02  0.14705147024E+02  0.46174002865E+03  0.40000000000E+03 0.  1.
<mgrwt>
<rscale>  2 0.46150581E+03</rscale>
<asrwt>0</asrwt>
<pdfrwt beam="1">  1       21 0.25469353E+00 0.46150581E+03</pdfrwt>
<pdfrwt beam="2">  1       21 0.40167244E-01 0.46150581E+03</pdfrwt>
<totfact> 0.29683387E+02</totfact>
</mgrwt>
</event>
<event>
 4    1  0.4890517E-002  0.4065055E+03  0.7818608E-02  0.1041550E+00
         21   -1    0    0  501  502  0.00000000000E+00  0.00000000000E+00  0.38680073518E+03  0.38680073518E+03  0.00000000000E+00 0.  1.
         21   -1    0    0  502  503 -0.00000000000E+00 -0.00000000000E+00 -0.47195340533E+03  0.47195340533E+03  0.00000000000E+00 0.  1.
    9000007    1    1    2  501    0  0.70581844427E+02  0.16276979166E+02  0.89624376720E+02  0.41626826172E+03  0.40000000000E+03 0.  1.
   -9000007    1    1    2    0  503 -0.70581844427E+02 -0.16276979166E+02 -0.17477704687E+03  0.44248587879E+03  0.40000000000E+03 0.  1.
<mgrwt>
<rscale>  2 0.40650552E+03</rscale>
<asrwt>0</asrwt>
<pdfrwt beam="1">  1       21 0.59507806E-01 0.40650552E+03</pdfrwt>
<pdfrwt beam="2">  1       21 0.72608216E-01 0.40650552E+03</pdfrwt>
<totfact> 0.40089930E+03</totfact>
</mgrwt>
</event>
<event>
 4    1  0.4890517E-002  0.4479859E+03  0.7818608E-02  0.1028324E+00
         21   -1    0    0  501  502  0.00000000000E+00  0.00000000000E+00  0.27449925891E+03  0.27449925891E+03  0.00000000000E+00 0.  1.
         21   -1    0    0  502  503 -0.00000000000E+00 -0.00000000000E+00 -0.77306821318E+03  0.77306821318E+03  0.00000000000E+00 0. -1.
    9000007    1    1    2  501    0 -0.19910746297E+03  0.32365852803E+02 -0.12727023014E+03  0.46571347599E+03  0.40000000000E+03 0.  1.
   -9000007    1    1    2    0  503  0.19910746297E+03 -0.32365852803E+02 -0.37129872412E+03  0.58185399610E+03  0.40000000000E+03 0. -1.
<mgrwt>
<rscale>  2 0.44798586E+03</rscale>
<asrwt>0</asrwt>
<pdfrwt beam="1">  1       21 0.42230656E-01 0.44798586E+03</pdfrwt>
<pdfrwt beam="2">  1       21 0.11893357E+00 0.44798586E+03</pdfrwt>
<totfact> 0.25207168E+03</totfact>
</mgrwt>
</event>
<event>
 4    1  0.4890517E-002  0.5037050E+03  0.7818608E-02  0.1012816E+00
         21   -1    0    0  503  502  0.00000000000E+00  0.00000000000E+00  0.25959394433E+03  0.25959394433E+03  0.00000000000E+00 0.  1.
         21   -1    0    0  501  503 -0.00000000000E+00 -0.00000000000E+00 -0.10006915043E+04  0.10006915043E+04  0.00000000000E+00 0.  1.
    9000007    1    1    2  501    0  0.23333552406E+03  0.19817494118E+03 -0.46675145718E+03  0.68671369353E+03  0.40000000000E+03 0.  1.
   -9000007    1    1    2    0  502 -0.23333552406E+03 -0.19817494118E+03 -0.27434610274E+03  0.57357175505E+03  0.40000000000E+03 0.  1.
<mgrwt>
<rscale>  2 0.50370505E+03</rscale>
<asrwt>0</asrwt>
<pdfrwt beam="1">  1       21 0.39937531E-01 0.50370505E+03</pdfrwt>
<pdfrwt beam="2">  1       21 0.15395254E+00 0.50370505E+03</pdfrwt>
<totfact> 0.14034011E+03</totfact>
</mgrwt>
</event>
<event>
 4    1  0.4890517E-002  0.4255611E+03  0.7818608E-02  0.1035271E+00
         21   -1    0    0  501  502  0.00000000000E+00  0.00000000000E+00  0.32502562462E+03  0.32502562462E+03  0.00000000000E+00 0.  1.
         21   -1    0    0  502  503 -0.00000000000E+00 -0.00000000000E+00 -0.55721676470E+03  0.55721676470E+03  0.00000000000E+00 0.  1.
    9000007    1    1    2  501    0 -0.32406826184E+02  0.14160511931E+03 -0.11325408355E+03  0.44037336391E+03  0.40000000000E+03 0. -1.
   -9000007    1    1    2    0  503  0.32406826184E+02 -0.14160511931E+03 -0.11893705653E+03  0.44186902541E+03  0.40000000000E+03 0. -1.
<mgrwt>
<rscale>  2 0.42556106E+03</rscale>
<asrwt>0</asrwt>
<pdfrwt beam="1">  1       21 0.50003943E-01 0.42556106E+03</pdfrwt>
<pdfrwt beam="2">  1       21 0.85725655E-01 0.42556106E+03</pdfrwt>
<totfact> 0.39517996E+03</totfact>
</mgrwt>
</event>
<event>
 4    1  0.4890517E-002  0.4351575E+03  0.7818608E-02  0.1032243E+00
         21   -1    0    0  501  502  0.00000000000E+00  0.00000000000E+00  0.55743477130E+03  0.55743477130E+03  0.00000000000E+00 0.  1.
         21   -1    0    0  502  503 -0.00000000000E+00 -0.00000000000E+00 -0.49227438634E+03  0.49227438634E+03  0.00000000000E+00 0.  1.
    9000007    1    1    2  501    0 -0.13288092619E+03  0.10818849729E+03  0.32477490822E+03  0.54299247923E+03  0.40000000000E+03 0.  1.
   -9000007    1    1    2    0  503  0.13288092619E+03 -0.10818849729E+03 -0.25961452326E+03  0.50671667841E+03  0.40000000000E+03 0.  1.
<mgrwt>
<rscale>  2 0.43515755E+03</rscale>
<asrwt>0</asrwt>
<pdfrwt beam="1">  1       21 0.85759195E-01 0.43515755E+03</pdfrwt>
<pdfrwt beam="2">  1       21 0.75734521E-01 0.43515755E+03</pdfrwt>
<totfact> 0.15780113E+03</totfact>
</mgrwt>
</event>
<event>
 4    1  0.4890517E-002  0.4558129E+03  0.7818608E-02  0.1026003E+00
         21   -1    0    0  501  502  0.00000000000E+00  0.00000000000E+00  0.75059963080E+03  0.75059963080E+03  0.00000000000E+00 0. -1.
         21   -1    0    0  502  503 -0.00000000000E+00 -0.00000000000E+00 -0.48689185980E+03  0.48689185980E+03  0.00000000000E+00 0. -1.
    9000007    1    1    2  501    0  0.20114348300E+03 -0.85479115394E+02  0.53829852939E+03  0.70535855185E+03  0.40000000000E+03 0. -1.
   -9000007    1    1    2    0  503 -0.20114348300E+03  0.85479115394E+02 -0.27459075839E+03  0.53213293876E+03  0.40000000000E+03 0. -1.
<mgrwt>
<rscale>  2 0.45581288E+03</rscale>
<asrwt>0</asrwt>
<pdfrwt beam="1">  1       21 0.11547687E+00 0.45581288E+03</pdfrwt>
<pdfrwt beam="2">  1       21 0.74906441E-01 0.45581288E+03</pdfrwt>
<totfact> 0.77971358E+02</totfact>
</mgrwt>
</event>
<event>
 4    1  0.4890517E-002  0.5032609E+03  0.7818608E-02  0.1012931E+00
         21   -1    0    0  503  502  0.00000000000E+00  0.00000000000E+00  0.65847807919E+03  0.65847807919E+03  0.00000000000E+00 0. -1.
         21   -1    0    0  501  503 -0.00000000000E+00 -0.00000000000E+00 -0.63260293894E+03  0.63260293894E+03  0.00000000000E+00 0. -1.
    9000007    1    1    2  501    0 -0.29264406463E+03  0.87355355500E+02 -0.39122733715E+03  0.63744045685E+03  0.40000000000E+03 0. -1.
   -9000007    1    1    2    0  502  0.29264406463E+03 -0.87355355500E+02  0.41710247739E+03  0.65364056128E+03  0.40000000000E+03 0. -1.
<mgrwt>
<rscale>  2 0.50326087E+03</rscale>
<asrwt>0</asrwt>
<pdfrwt beam="1">  1       21 0.10130432E+00 0.50326087E+03</pdfrwt>
<pdfrwt beam="2">  1       21 0.97323529E-01 0.50326087E+03</pdfrwt>
<totfact> 0.57227526E+02</totfact>
</mgrwt>
</event>
<event>
 4    1  0.4890517E-002  0.4576401E+03  0.7818608E-02  0.1025468E+00
         21   -1    0    0  503  502  0.00000000000E+00  0.00000000000E+00  0.34537957614E+03  0.34537957614E+03  0.00000000000E+00 0.  1.
         21   -1    0    0  501  503 -0.00000000000E+00 -0.00000000000E+00 -0.10537363176E+04  0.10537363176E+04  0.00000000000E+00 0.  1.
    9000007    1    1    2  501    0  0.21791344195E+03  0.44137851000E+02 -0.80998441464E+03  0.93032745313E+03  0.40000000000E+03 0.  1.
   -9000007    1    1    2    0  502 -0.21791344195E+03 -0.44137851000E+02  0.10162767320E+03  0.46878844059E+03  0.40000000000E+03 0.  1.
<mgrwt>
<rscale>  2 0.45764005E+03</rscale>
<asrwt>0</asrwt>
<pdfrwt beam="1">  1       21 0.53135320E-01 0.45764005E+03</pdfrwt>
<pdfrwt beam="2">  1       21 0.16211328E+00 0.45764005E+03</pdfrwt>
<totfact> 0.67907688E+02</totfact>
</mgrwt>
</event>
<event>
 4    1  0.4890517E-002  0.4037860E+03  0.7818608E-02  0.1042477E+00
         21   -1    0    0  503  502  0.00000000000E+00  0.00000000000E+00  0.62760812073E+03  0.62760812073E+03  0.00000000000E+00 0. -1.
         21   -1    0    0  501  503 -0.00000000000E+00 -0.00000000000E+00 -0.38870910437E+03  0.38870910437E+03  0.00000000000E+00 0. -1.
    9000007    1    1    2  501    0 -0.75026700798E+01 -0.54652102126E+02 -0.17320423626E+03  0.43936641859E+03  0.40000000000E+03 0. -1.
   -9000007    1    1    2    0  502  0.75026700798E+01  0.54652102126E+02  0.41210325261E+03  0.57695080652E+03  0.40000000000E+03 0. -1.
<mgrwt>
<rscale>  2 0.40378601E+03</rscale>
<asrwt>0</asrwt>
<pdfrwt beam="1">  1       21 0.96555096E-01 0.40378601E+03</pdfrwt>
<pdfrwt beam="2">  1       21 0.59801400E-01 0.40378601E+03</pdfrwt>
<totfact> 0.20450994E+03</totfact>
</mgrwt>
</event>
<event>
 4    1  0.4890517E-002  0.4107448E+03  0.7818608E-02  0.1040121E+00
         21   -1    0    0  503  502  0.00000000000E+00  0.00000000000E+00  0.22234259001E+03  0.22234259001E+03  0.00000000000E+00 0.  1.
         21   -1    0    0  501  503 -0.00000000000E+00 -0.00000000000E+00 -0.77143757208E+03  0.77143757208E+03  0.00000000000E+00 0.  1.
    9000007    1    1    2  501    0  0.93107367895E+02 -0.65065160020E+01 -0.33817059325E+03  0.53204385801E+03  0.40000000000E+03 0.  1.
   -9000007    1    1    2    0  502 -0.93107367895E+02  0.65065160020E+01 -0.21092438882E+03  0.46173630408E+03  0.40000000000E+03 0.  1.
<mgrwt>
<rscale>  2 0.41074483E+03</rscale>
<asrwt>0</asrwt>
<pdfrwt beam="1">  1       21 0.34206552E-01 0.41074483E+03</pdfrwt>
<pdfrwt beam="2">  1       21 0.11868270E+00 0.41074483E+03</pdfrwt>
<totfact> 0.39538018E+03</totfact>
</mgrwt>
</event>
<event>
 4    1  0.4890517E-002  0.4287549E+03  0.7818608E-02  0.1034254E+00
         21   -1    0    0  503  502  0.00000000000E+00  0.00000000000E+00  0.28536477966E+03  0.28536477966E+03  0.00000000000E+00 0.  1.
         21   -1    0    0  501  503 -0.00000000000E+00 -0.00000000000E+00 -0.65279127308E+03  0.65279127308E+03  0.00000000000E+00 0.  1.
    9000007    1    1    2  501    0  0.15238263495E+03  0.24703995862E+02 -0.23753974746E+03  0.49015904202E+03  0.40000000000E+03 0.  1.
   -9000007    1    1    2    0  502 -0.15238263495E+03 -0.24703995862E+02 -0.12988674596E+03  0.44799701073E+03  0.40000000000E+03 0.  1.
<mgrwt>
<rscale>  2 0.42875489E+03</rscale>
<asrwt>0</asrwt>
<pdfrwt beam="1">  1       21 0.43902274E-01 0.42875489E+03</pdfrwt>
<pdfrwt beam="2">  1       21 0.10042943E+00 0.42875489E+03</pdfrwt>
<totfact> 0.35602709E+03</totfact>
</mgrwt>
</event>
<event>
 4    1  0.4890517E-002  0.4620932E+03  0.7818608E-02  0.1024176E+00
         21   -1    0    0  503  502  0.00000000000E+00  0.00000000000E+00  0.13694867926E+04  0.13694867926E+04  0.00000000000E+00 0. -1.
         21   -1    0    0  501  503 -0.00000000000E+00 -0.00000000000E+00 -0.17235071793E+03  0.17235071793E+03  0.00000000000E+00 0. -1.
    9000007    1    1    2  501    0  0.15290790117E+03  0.17363548315E+03  0.36053733830E+03  0.58610347172E+03  0.40000000000E+03 0. -1.
   -9000007    1    1    2    0  502 -0.15290790117E+03 -0.17363548315E+03  0.83659873635E+03  0.95573403880E+03  0.40000000000E+03 0. -1.
<mgrwt>
<rscale>  2 0.46209318E+03</rscale>
<asrwt>0</asrwt>
<pdfrwt beam="1">  1       21 0.21069027E+00 0.46209318E+03</pdfrwt>
<pdfrwt beam="2">  1       21 0.26515496E-01 0.46209318E+03</pdfrwt>
<totfact> 0.12927986E+03</totfact>
</mgrwt>
</event>
<event>
 4    1  0.4890517E-002  0.6753286E+03  0.7818608E-02  0.9760379E-01
         21   -1    0    0  503  502  0.00000000000E+00  0.00000000000E+00  0.32184754043E+03  0.32184754043E+03  0.00000000000E+00 0. -1.
         21   -1    0    0  501  503 -0.00000000000E+00 -0.00000000000E+00 -0.15623149030E+04  0.15623149030E+04  0.00000000000E+00 0.  1.
    9000007    1    1    2  501    0 -0.42838681559E+03  0.33548981251E+03 -0.90751632625E+03  0.11312181755E+04  0.40000000000E+03 0.  1.
   -9000007    1    1    2    0  502  0.42838681559E+03 -0.33548981251E+03 -0.33295103630E+03  0.75294426795E+03  0.40000000000E+03 0. -1.
<mgrwt>
<rscale>  2 0.67532857E+03</rscale>
<asrwt>0</asrwt>
<pdfrwt beam="1">  1       21 0.49515007E-01 0.67532857E+03</pdfrwt>
<pdfrwt beam="2">  1       21 0.24035613E+00 0.67532857E+03</pdfrwt>
<totfact> 0.21375181E+02</totfact>
</mgrwt>
</event>
<event>
 4    1  0.4890517E-002  0.4882871E+03  0.7818608E-02  0.1016882E+00
         21   -1    0    0  503  502  0.00000000000E+00  0.00000000000E+00  0.20228559854E+03  0.20228559854E+03  0.00000000000E+00 0. -1.
         21   -1    0    0  501  503 -0.00000000000E+00 -0.00000000000E+00 -0.11858027211E+04  0.11858027211E+04  0.00000000000E+00 0. -1.
    9000007    1    1    2  501    0 -0.18933956377E+03 -0.20633668449E+03 -0.54565498297E+03  0.73223197022E+03  0.40000000000E+03 0. -1.
   -9000007    1    1    2    0  502  0.18933956377E+03  0.20633668449E+03 -0.43786213960E+03  0.65585634942E+03  0.40000000000E+03 0. -1.
<mgrwt>
<rscale>  2 0.48828711E+03</rscale>
<asrwt>0</asrwt>
<pdfrwt beam="1">  1       21 0.31120862E-01 0.48828711E+03</pdfrwt>
<pdfrwt beam="2">  1       21 0.18243118E+00 0.48828711E+03</pdfrwt>
<totfact> 0.14447023E+03</totfact>
</mgrwt>
</event>
<event>
 4    1  0.4890517E-002  0.5040683E+03  0.7818608E-02  0.1012722E+00
         21   -1    0    0  503  502  0.00000000000E+00  0.00000000000E+00  0.84290053376E+03  0.84290053376E+03  0.00000000000E+00 0. -1.
         21   -1    0    0  501  503 -0.00000000000E+00 -0.00000000000E+00 -0.57330645499E+03  0.57330645499E+03  0.00000000000E+00 0.  1.
    9000007    1    1    2  501    0 -0.29996868004E+03  0.64059664116E+02 -0.35282156711E+03  0.61527872366E+03  0.40000000000E+03 0.  1.
   -9000007    1    1    2    0  502  0.29996868004E+03 -0.64059664116E+02  0.62241564589E+03  0.80092826509E+03  0.40000000000E+03 0. -1.
<mgrwt>
<rscale>  2 0.50406830E+03</rscale>
<asrwt>0</asrwt>
<pdfrwt beam="1">  1       21 0.12967701E+00 0.50406830E+03</pdfrwt>
<pdfrwt beam="2">  1       21 0.88200993E-01 0.50406830E+03</pdfrwt>
<totfact> 0.38856255E+02</totfact>
</mgrwt>
</event>
<event>
 4    1  0.4890517E-002  0.4894682E+03  0.7818608E-02  0.1016565E+00
         21   -1    0    0  501  502  0.00000000000E+00  0.00000000000E+00  0.20519952588E+03  0.20519952588E+03  0.00000000000E+00 0.  1.
         21   -1    0    0  502  503 -0.00000000000E+00 -0.00000000000E+00 -0.12823698475E+04  0.12823698475E+04  0.00000000000E+00 0.  1.
    9000007    1    1    2  501    0 -0.21296120933E+03  0.18500432957E+03 -0.31601647133E+03  0.58261950602E+03  0.40000000000E+03 0.  1.
   -9000007    1    1    2    0  503  0.21296120933E+03 -0.18500432957E+03 -0.76115385032E+03  0.90494986739E+03  0.40000000000E+03 0.  1.
<mgrwt>
<rscale>  2 0.48946816E+03</rscale>
<asrwt>0</asrwt>
<pdfrwt beam="1">  1       21 0.31569158E-01 0.48946816E+03</pdfrwt>
<pdfrwt beam="2">  1       21 0.19728767E+00 0.48946816E+03</pdfrwt>
<totfact> 0.11093295E+03</totfact>
</mgrwt>
</event>
<event>
 4    1  0.4890517E-002  0.4257453E+03  0.7818608E-02  0.1035212E+00
         21   -1    0    0  503  502  0.00000000000E+00  0.00000000000E+00  0.73469938978E+03  0.73469938978E+03  0.00000000000E+00 0.  1.
         21   -1    0    0  501  503 -0.00000000000E+00 -0.00000000000E+00 -0.24732118767E+03  0.24732118767E+03  0.00000000000E+00 0.  1.
    9000007    1    1    2  501    0 -0.14412169262E+03 -0.22091578712E+02  0.21931870920E+03  0.47891522876E+03  0.40000000000E+03 0.  1.
   -9000007    1    1    2    0  502  0.14412169262E+03  0.22091578712E+02  0.26805949291E+03  0.50310534868E+03  0.40000000000E+03 0.  1.
<mgrwt>
<rscale>  2 0.42574535E+03</rscale>
<asrwt>0</asrwt>
<pdfrwt beam="1">  1       21 0.11303067E+00 0.42574535E+03</pdfrwt>
<pdfrwt beam="2">  1       21 0.38049414E-01 0.42574535E+03</pdfrwt>
<totfact> 0.35790121E+03</totfact>
</mgrwt>
</event>
<event>
 4    1  0.4890517E-002  0.5772493E+03  0.7818608E-02  0.9953764E-01
         21   -1    0    0  503  502  0.00000000000E+00  0.00000000000E+00  0.22385270819E+04  0.22385270819E+04  0.00000000000E+00 0. -1.
         21   -1    0    0  501  503 -0.00000000000E+00 -0.00000000000E+00 -0.15687039309E+03  0.15687039309E+03  0.00000000000E+00 0.  1.
    9000007    1    1    2  501    0  0.27769644965E+03  0.31000240403E+03  0.77010288103E+03  0.96243194877E+03  0.40000000000E+03 0.  1.
   -9000007    1    1    2    0  502 -0.27769644965E+03 -0.31000240403E+03  0.13115538078E+04  0.14329655263E+04  0.40000000000E+03 0. -1.
<mgrwt>
<rscale>  2 0.57724935E+03</rscale>
<asrwt>0</asrwt>
<pdfrwt beam="1">  1       21 0.34438876E+00 0.57724935E+03</pdfrwt>
<pdfrwt beam="2">  1       21 0.24133908E-01 0.57724935E+03</pdfrwt>
<totfact> 0.22084980E+02</totfact>
</mgrwt>
</event>
<event>
 4    1  0.4890517E-002  0.5158598E+03  0.7818608E-02  0.1009720E+00
         21   -1    0    0  503  502  0.00000000000E+00  0.00000000000E+00  0.23323810374E+03  0.23323810374E+03  0.00000000000E+00 0.  1.
         21   -1    0    0  501  503 -0.00000000000E+00 -0.00000000000E+00 -0.17577535388E+04  0.17577535388E+04  0.00000000000E+00 0. -1.
    9000007    1    1    2  501    0 -0.11868049234E+03  0.30335826544E+03 -0.13519649746E+04  0.14470385583E+04  0.40000000000E+03 0. -1.
   -9000007    1    1    2    0  502  0.11868049234E+03 -0.30335826544E+03 -0.17255046039E+03  0.54395308424E+03  0.40000000000E+03 0.  1.
<mgrwt>
<rscale>  2 0.51585976E+03</rscale>
<asrwt>0</asrwt>
<pdfrwt beam="1">  1       21 0.35882785E-01 0.51585976E+03</pdfrwt>
<pdfrwt beam="2">  1       21 0.27042362E+00 0.51585976E+03</pdfrwt>
<totfact> 0.29149782E+02</totfact>
</mgrwt>
</event>
<event>
 4    1  0.4890517E-002  0.4757592E+03  0.7818608E-02  0.1020307E+00
         21   -1    0    0  503  502  0.00000000000E+00  0.00000000000E+00  0.98399435121E+02  0.98399435121E+02  0.00000000000E+00 0. -1.
         21   -1    0    0  501  503 -0.00000000000E+00 -0.00000000000E+00 -0.25102119849E+04  0.25102119849E+04  0.00000000000E+00 0.  1.
    9000007    1    1    2  501    0 -0.10379697778E+03 -0.23573928888E+03 -0.15830939436E+04  0.16530375856E+04  0.40000000000E+03 0.  1.
   -9000007    1    1    2    0  502  0.10379697778E+03  0.23573928888E+03 -0.82871860611E+03  0.95557383442E+03  0.40000000000E+03 0.  1.
<mgrwt>
<rscale>  2 0.47575921E+03</rscale>
<asrwt>0</asrwt>
<pdfrwt beam="1">  1       21 0.15138374E-01 0.47575921E+03</pdfrwt>
<pdfrwt beam="2">  1       21 0.38618648E+00 0.47575921E+03</pdfrwt>
<totfact> 0.31041174E+02</totfact>
</mgrwt>
</event>
<event>
 4    1  0.4890517E-002  0.4060380E+03  0.7818608E-02  0.1041709E+00
         21   -1    0    0  503  502  0.00000000000E+00  0.00000000000E+00  0.97119571462E+03  0.97119571462E+03  0.00000000000E+00 0.  1.
         21   -1    0    0  501  503 -0.00000000000E+00 -0.00000000000E+00 -0.70226321820E+03  0.70226321820E+03  0.00000000000E+00 0.  1.
    9000007    1    1    2  501    0  0.69668631100E+02 -0.36273360049E+01 -0.59414791651E+03  0.71963784115E+03  0.40000000000E+03 0.  1.
   -9000007    1    1    2    0  502 -0.69668631100E+02  0.36273360049E+01  0.86308041293E+03  0.95382109167E+03  0.40000000000E+03 0.  1.
<mgrwt>
<rscale>  2 0.40603802E+03</rscale>
<asrwt>0</asrwt>
<pdfrwt beam="1">  1       21 0.14941473E+00 0.40603802E+03</pdfrwt>
<pdfrwt beam="2">  1       21 0.10804050E+00 0.40603802E+03</pdfrwt>
<totfact> 0.17152359E+02</totfact>
</mgrwt>
</event>
<event>
 4    1  0.4890517E-002  0.4222334E+03  0.7818608E-02  0.1036342E+00
         21   -1    0    0  501  502  0.00000000000E+00  0.00000000000E+00  0.33665590050E+04  0.33665590050E+04  0.00000000000E+00 0.  1.
         21   -1    0    0  502  503 -0.00000000000E+00 -0.00000000000E+00 -0.74538418191E+02  0.74538418191E+02  0.00000000000E+00 0.  1.
    9000007    1    1    2  501    0 -0.13316868969E+03  0.23391588012E+02  0.72019947097E+03  0.83484629980E+03  0.40000000000E+03 0.  1.
   -9000007    1    1    2    0  503  0.13316868969E+03 -0.23391588012E+02  0.25718211159E+04  0.26062511234E+04  0.40000000000E+03 0.  1.
<mgrwt>
<rscale>  2 0.42223343E+03</rscale>
<asrwt>0</asrwt>
<pdfrwt beam="1">  1       21 0.51793204E+00 0.42223343E+03</pdfrwt>
<pdfrwt beam="2">  1       21 0.11467452E-01 0.42223343E+03</pdfrwt>
<totfact> 0.68404262E+01</totfact>
</mgrwt>
</event>
<event>
 4    1  0.4890517E-002  0.4938676E+03  0.7818608E-02  0.1015392E+00
         21   -1    0    0  503  502  0.00000000000E+00  0.00000000000E+00  0.17072894233E+04  0.17072894233E+04  0.00000000000E+00 0.  1.
         21   -1    0    0  501  503 -0.00000000000E+00 -0.00000000000E+00 -0.50179348583E+03  0.50179348583E+03  0.00000000000E+00 0.  1.
    9000007    1    1    2  501    0  0.23446027336E+03  0.17009862764E+03 -0.33142191559E+03  0.59476520497E+03  0.40000000000E+03 0.  1.
   -9000007    1    1    2    0  502 -0.23446027336E+03 -0.17009862764E+03  0.15369178531E+04  0.16143177042E+04  0.40000000000E+03 0.  1.
<mgrwt>
<rscale>  2 0.49386756E+03</rscale>
<asrwt>0</asrwt>
<pdfrwt beam="1">  1       21 0.26265991E+00 0.49386756E+03</pdfrwt>
<pdfrwt beam="2">  1       21 0.77198999E-01 0.49386756E+03</pdfrwt>
<totfact> 0.63042164E+01</totfact>
</mgrwt>
</event>
<event>
 4    1  0.4890517E-002  0.4138932E+03  0.7818608E-02  0.1039072E+00
         21   -1    0    0  501  502  0.00000000000E+00  0.00000000000E+00  0.17009866042E+04  0.17009866042E+04  0.00000000000E+00 0.  1.
         21   -1    0    0  502  503 -0.00000000000E+00 -0.00000000000E+00 -0.11649342336E+03  0.11649342336E+03  0.00000000000E+00 0.  1.
    9000007    1    1    2  501    0 -0.56629830578E+02 -0.90003475024E+02  0.45775914210E+03  0.61713126270E+03  0.40000000000E+03 0. -1.
   -9000007    1    1    2    0  503  0.56629830578E+02  0.90003475024E+02  0.11267340388E+04  0.12003487649E+04  0.40000000000E+03 0. -1.
<mgrwt>
<rscale>  2 0.41389318E+03</rscale>
<asrwt>0</asrwt>
<pdfrwt beam="1">  1       21 0.26169023E+00 0.41389318E+03</pdfrwt>
<pdfrwt beam="2">  1       21 0.17922066E-01 0.41389318E+03</pdfrwt>
<totfact> 0.13468863E+03</totfact>
</mgrwt>
</event>
<event>
 4    1  0.4890517E-002  0.6652183E+03  0.7818608E-02  0.9778635E-01
         21   -1    0    0  501  502  0.00000000000E+00  0.00000000000E+00  0.55118755750E+03  0.55118755750E+03  0.00000000000E+00 0.  1.
         21   -1    0    0  502  503 -0.00000000000E+00 -0.00000000000E+00 -0.14269901366E+04  0.14269901366E+04  0.00000000000E+00 0.  1.
    9000007    1    1    2  501    0 -0.51792854811E+03  0.11943760307E+03  0.21623676522E+03  0.69948099374E+03  0.40000000000E+03 0.  1.
   -9000007    1    1    2    0  503  0.51792854811E+03 -0.11943760307E+03 -0.10920393443E+04  0.12786967004E+04  0.40000000000E+03 0.  1.
<mgrwt>
<rscale>  2 0.66521825E+03</rscale>
<asrwt>0</asrwt>
<pdfrwt beam="1">  1       21 0.84798086E-01 0.66521825E+03</pdfrwt>
<pdfrwt beam="2">  1       21 0.21953694E+00 0.66521825E+03</pdfrwt>
<totfact> 0.87223736E+01</totfact>
</mgrwt>
</event>
<event>
 4    1  0.4890517E-002  0.4010142E+03  0.7818608E-02  0.1043429E+00
         21   -1    0    0  501  502  0.00000000000E+00  0.00000000000E+00  0.36325428562E+03  0.36325428562E+03  0.00000000000E+00 0. -1.
         21   -1    0    0  502  503 -0.00000000000E+00 -0.00000000000E+00 -0.44320641611E+03  0.44320641611E+03  0.00000000000E+00 0. -1.
    9000007    1    1    2  501    0 -0.50887308889E+01 -0.28045192984E+02 -0.53615363630E+02  0.40458254442E+03  0.40000000000E+03 0. -1.
   -9000007    1    1    2    0  503  0.50887308889E+01  0.28045192984E+02 -0.26336766857E+02  0.40187815731E+03  0.40000000000E+03 0. -1.
<mgrwt>
<rscale>  2 0.40101425E+03</rscale>
<asrwt>0</asrwt>
<pdfrwt beam="1">  1       21 0.55885275E-01 0.40101425E+03</pdfrwt>
<pdfrwt beam="2">  1       21 0.68185602E-01 0.40101425E+03</pdfrwt>
<totfact> 0.53030883E+03</totfact>
</mgrwt>
</event>
<event>
 4    1  0.4890517E-002  0.4708669E+03  0.7818608E-02  0.1021676E+00
         21   -1    0    0  503  502  0.00000000000E+00  0.00000000000E+00  0.12779421192E+04  0.12779421192E+04  0.00000000000E+00 0. -1.
         21   -1    0    0  501  503 -0.00000000000E+00 -0.00000000000E+00 -0.17478035996E+03  0.17478035996E+03  0.00000000000E+00 0. -1.
    9000007    1    1    2  501    0  0.24834076193E+03  0.65227967293E+01  0.48927400543E+03  0.67904693012E+03  0.40000000000E+03 0. -1.
   -9000007    1    1    2    0  502 -0.24834076193E+03 -0.65227967293E+01  0.61388775377E+03  0.77367554902E+03  0.40000000000E+03 0. -1.
<mgrwt>
<rscale>  2 0.47086695E+03</rscale>
<asrwt>0</asrwt>
<pdfrwt beam="1">  1       21 0.19660647E+00 0.47086695E+03</pdfrwt>
<pdfrwt beam="2">  1       21 0.26889287E-01 0.47086695E+03</pdfrwt>
<totfact> 0.15532190E+03</totfact>
</mgrwt>
</event>
<event>
 4    1  0.4890517E-002  0.4168902E+03  0.7818608E-02  0.1038083E+00
         21   -1    0    0  503  502  0.00000000000E+00  0.00000000000E+00  0.88300710370E+03  0.88300710370E+03  0.00000000000E+00 0.  1.
         21   -1    0    0  501  503 -0.00000000000E+00 -0.00000000000E+00 -0.25253347610E+03  0.25253347610E+03  0.00000000000E+00 0.  1.
    9000007    1    1    2  501    0  0.10840901157E+03  0.45220683077E+02  0.48565803039E+02  0.41970949619E+03  0.40000000000E+03 0. -1.
   -9000007    1    1    2    0  502 -0.10840901157E+03 -0.45220683077E+02  0.58190782456E+03  0.71583108360E+03  0.40000000000E+03 0. -1.
<mgrwt>
<rscale>  2 0.41689018E+03</rscale>
<asrwt>0</asrwt>
<pdfrwt beam="1">  1       21 0.13584725E+00 0.41689018E+03</pdfrwt>
<pdfrwt beam="2">  1       21 0.38851304E-01 0.41689018E+03</pdfrwt>
<totfact> 0.21510233E+03</totfact>
</mgrwt>
</event>
<event>
 4    1  0.4890517E-002  0.5836747E+03  0.7818608E-02  0.9939867E-01
         21   -1    0    0  503  502  0.00000000000E+00  0.00000000000E+00  0.19309695690E+04  0.19309695690E+04  0.00000000000E+00 0.  1.
         21   -1    0    0  501  503 -0.00000000000E+00 -0.00000000000E+00 -0.31169004774E+03  0.31169004774E+03  0.00000000000E+00 0.  1.
    9000007    1    1    2  501    0  0.27893280763E+03  0.32073770061E+03  0.70952448673E+02  0.58797145656E+03  0.40000000000E+03 0.  1.
   -9000007    1    1    2    0  502 -0.27893280763E+03 -0.32073770061E+03  0.15483270726E+04  0.16546881602E+04  0.40000000000E+03 0.  1.
<mgrwt>
<rscale>  2 0.58367472E+03</rscale>
<asrwt>0</asrwt>
<pdfrwt beam="1">  1       21 0.29707223E+00 0.58367472E+03</pdfrwt>
<pdfrwt beam="2">  1       21 0.47952316E-01 0.58367472E+03</pdfrwt>
<totfact> 0.10626414E+02</totfact>
</mgrwt>
</event>
<event>
 4    1  0.4890517E-002  0.4505522E+03  0.7818608E-02  0.1027557E+00
         21   -1    0    0  503  502  0.00000000000E+00  0.00000000000E+00  0.37663228152E+03  0.37663228152E+03  0.00000000000E+00 0.  1.
         21   -1    0    0  501  503 -0.00000000000E+00 -0.00000000000E+00 -0.53947830428E+03  0.53947830428E+03  0.00000000000E+00 0.  1.
    9000007    1    1    2  501    0 -0.18086608985E+03 -0.10141383136E+03 -0.67503265943E+02  0.45558094622E+03  0.40000000000E+03 0.  1.
   -9000007    1    1    2    0  502  0.18086608985E+03  0.10141383136E+03 -0.95342756819E+02  0.46052963957E+03  0.40000000000E+03 0.  1.
<mgrwt>
<rscale>  2 0.45055223E+03</rscale>
<asrwt>0</asrwt>
<pdfrwt beam="1">  1       21 0.57943428E-01 0.45055223E+03</pdfrwt>
<pdfrwt beam="2">  1       21 0.82996662E-01 0.45055223E+03</pdfrwt>
<totfact> 0.30767895E+03</totfact>
</mgrwt>
</event>
<event>
 4    1  0.4890517E-002  0.5253244E+03  0.7818608E-02  0.1007372E+00
         21   -1    0    0  501  502  0.00000000000E+00  0.00000000000E+00  0.29099506584E+03  0.29099506584E+03  0.00000000000E+00 0.  1.
         21   -1    0    0  502  503 -0.00000000000E+00 -0.00000000000E+00 -0.11938786938E+04  0.11938786938E+04  0.00000000000E+00 0. -1.
    9000007    1    1    2  501    0 -0.24594064616E+03 -0.23553954396E+03 -0.11475274226E+03  0.53771169790E+03  0.40000000000E+03 0.  1.
   -9000007    1    1    2    0  503  0.24594064616E+03  0.23553954396E+03 -0.78813088566E+03  0.94716206170E+03  0.40000000000E+03 0. -1.
<mgrwt>
<rscale>  2 0.52532436E+03</rscale>
<asrwt>0</asrwt>
<pdfrwt beam="1">  1       21 0.44768473E-01 0.52532436E+03</pdfrwt>
<pdfrwt beam="2">  1       21 0.18367364E+00 0.52532436E+03</pdfrwt>
<totfact> 0.66295172E+02</totfact>
</mgrwt>
</event>
<event>
 4    1  0.4890517E-002  0.4126047E+03  0.7818608E-02  0.1039500E+00
         21   -1    0    0  501  502  0.00000000000E+00  0.00000000000E+00  0.59227097922E+03  0.59227097922E+03  0.00000000000E+00 0. -1.
         21   -1    0    0  502  503 -0.00000000000E+00 -0.00000000000E+00 -0.33210990753E+03  0.33210990753E+03  0.00000000000E+00 0. -1.
    9000007    1    1    2  501    0  0.61887128599E+02  0.80078689788E+02  0.29958673196E+03  0.50989687508E+03  0.40000000000E+03 0.  1.
   -9000007    1    1    2    0  503 -0.61887128599E+02 -0.80078689788E+02 -0.39425660272E+02  0.41448401167E+03  0.40000000000E+03 0.  1.
<mgrwt>
<rscale>  2 0.41260467E+03</rscale>
<asrwt>0</asrwt>
<pdfrwt beam="1">  1       21 0.91118612E-01 0.41260467E+03</pdfrwt>
<pdfrwt beam="2">  1       21 0.51093832E-01 0.41260467E+03</pdfrwt>
<totfact> 0.32851588E+03</totfact>
</mgrwt>
</event>
<event>
 4    1  0.4890517E-002  0.4323231E+03  0.7818608E-02  0.1033129E+00
         21   -1    0    0  501  502  0.00000000000E+00  0.00000000000E+00  0.48311312935E+03  0.48311312935E+03  0.00000000000E+00 0.  1.
         21   -1    0    0  502  503 -0.00000000000E+00 -0.00000000000E+00 -0.57109694688E+03  0.57109694688E+03  0.00000000000E+00 0.  1.
    9000007    1    1    2  501    0 -0.15937351389E+03 -0.38773155895E+02  0.25538317901E+03  0.50211935102E+03  0.40000000000E+03 0.  1.
   -9000007    1    1    2    0  503  0.15937351389E+03  0.38773155895E+02 -0.34336699654E+03  0.55209072521E+03  0.40000000000E+03 0.  1.
<mgrwt>
<rscale>  2 0.43232311E+03</rscale>
<asrwt>0</asrwt>
<pdfrwt beam="1">  1       21 0.74325097E-01 0.43232311E+03</pdfrwt>
<pdfrwt beam="2">  1       21 0.87861068E-01 0.43232311E+03</pdfrwt>
<totfact> 0.15577870E+03</totfact>
</mgrwt>
</event>
<event>
 4    1  0.4890517E-002  0.4173832E+03  0.7818608E-02  0.1037921E+00
         21   -1    0    0  503  502  0.00000000000E+00  0.00000000000E+00  0.96664649092E+03  0.96664649092E+03  0.00000000000E+00 0. -1.
         21   -1    0    0  501  503 -0.00000000000E+00 -0.00000000000E+00 -0.18670618569E+03  0.18670618569E+03  0.00000000000E+00 0. -1.
    9000007    1    1    2  501    0  0.59929063488E+02  0.10303989165E+03  0.28248251838E+03  0.50398917162E+03  0.40000000000E+03 0. -1.
   -9000007    1    1    2    0  502 -0.59929063488E+02 -0.10303989165E+03  0.49745778685E+03  0.64936350499E+03  0.40000000000E+03 0. -1.
<mgrwt>
<rscale>  2 0.41738317E+03</rscale>
<asrwt>0</asrwt>
<pdfrwt beam="1">  1       21 0.14871484E+00 0.41738317E+03</pdfrwt>
<pdfrwt beam="2">  1       21 0.28724029E-01 0.41738317E+03</pdfrwt>
<totfact> 0.31000118E+03</totfact>
</mgrwt>
</event>
<event>
 4    1  0.4890517E-002  0.4271368E+03  0.7818608E-02  0.1034768E+00
         21   -1    0    0  503  502  0.00000000000E+00  0.00000000000E+00  0.33639775611E+03  0.33639775611E+03  0.00000000000E+00 0.  1.
         21   -1    0    0  501  503 -0.00000000000E+00 -0.00000000000E+00 -0.58951642864E+03  0.58951642864E+03  0.00000000000E+00 0.  1.
    9000007    1    1    2  501    0 -0.32854933451E+02  0.14617263317E+03 -0.25750815541E+03  0.49875478488E+03  0.40000000000E+03 0.  1.
   -9000007    1    1    2    0  502  0.32854933451E+02 -0.14617263317E+03  0.43894828784E+01  0.42715939987E+03  0.40000000000E+03 0.  1.
<mgrwt>
<rscale>  2 0.42713685E+03</rscale>
<asrwt>0</asrwt>
<pdfrwt beam="1">  1       21 0.51753501E-01 0.42713685E+03</pdfrwt>
<pdfrwt beam="2">  1       21 0.90694834E-01 0.42713685E+03</pdfrwt>
<totfact> 0.32143884E+03</totfact>
</mgrwt>
</event>
<event>
 4    1  0.4890517E-002  0.8424006E+03  0.7818608E-02  0.9500594E-01
         21   -1    0    0  501  502  0.00000000000E+00  0.00000000000E+00  0.15605517382E+04  0.15605517382E+04  0.00000000000E+00 0.  1.
         21   -1    0    0  502  503 -0.00000000000E+00 -0.00000000000E+00 -0.51205079181E+03  0.51205079181E+03  0.00000000000E+00 0. -1.
    9000007    1    1    2  501    0  0.28951904365E+03 -0.68250820953E+03  0.17754264313E+03  0.86090657034E+03  0.40000000000E+03 0. -1.
   -9000007    1    1    2    0  503 -0.28951904365E+03  0.68250820953E+03  0.87095830329E+03  0.12116959597E+04  0.40000000000E+03 0.  1.
<mgrwt>
<rscale>  2 0.84240058E+03</rscale>
<asrwt>0</asrwt>
<pdfrwt beam="1">  1       21 0.24008488E+00 0.84240058E+03</pdfrwt>
<pdfrwt beam="2">  1       21 0.78777046E-01 0.84240058E+03</pdfrwt>
<totfact> 0.71954527E+01</totfact>
</mgrwt>
</event>
<event>
 4    1  0.4890517E-002  0.4170779E+03  0.7818608E-02  0.1038022E+00
         21   -1    0    0  503  502  0.00000000000E+00  0.00000000000E+00  0.31518562792E+03  0.31518562792E+03  0.00000000000E+00 0.  1.
         21   -1    0    0  501  503 -0.00000000000E+00 -0.00000000000E+00 -0.67096182267E+03  0.67096182267E+03  0.00000000000E+00 0.  1.
    9000007    1    1    2  501    0 -0.96997265182E+02 -0.67420099214E+02 -0.38558590388E+03  0.56800565886E+03  0.40000000000E+03 0.  1.
   -9000007    1    1    2    0  502  0.96997265182E+02  0.67420099214E+02  0.29809709132E+02  0.41814179173E+03  0.40000000000E+03 0.  1.
<mgrwt>
<rscale>  2 0.41707786E+03</rscale>
<asrwt>0</asrwt>
<pdfrwt beam="1">  1       21 0.48490096E-01 0.41707786E+03</pdfrwt>
<pdfrwt beam="2">  1       21 0.10322490E+00 0.41707786E+03</pdfrwt>
<totfact> 0.27142777E+03</totfact>
</mgrwt>
</event>
<event>
 4    1  0.4890517E-002  0.4724952E+03  0.7818608E-02  0.1021218E+00
         21   -1    0    0  501  502  0.00000000000E+00  0.00000000000E+00  0.13044831117E+03  0.13044831117E+03  0.00000000000E+00 0.  1.
         21   -1    0    0  502  503 -0.00000000000E+00 -0.00000000000E+00 -0.22494989083E+04  0.22494989083E+04  0.00000000000E+00 0.  1.
    9000007    1    1    2  501    0 -0.25103109974E+03  0.15332345496E+02 -0.47753211230E+03  0.67178018141E+03  0.40000000000E+03 0.  1.
   -9000007    1    1    2    0  503  0.25103109974E+03 -0.15332345496E+02 -0.16415184848E+04  0.17081670381E+04  0.40000000000E+03 0.  1.
<mgrwt>
<rscale>  2 0.47249518E+03</rscale>
<asrwt>0</asrwt>
<pdfrwt beam="1">  1       21 0.20068971E-01 0.47249518E+03</pdfrwt>
<pdfrwt beam="2">  1       21 0.34607676E+00 0.47249518E+03</pdfrwt>
<totfact> 0.32533590E+02</totfact>
</mgrwt>
</event>
<event>
 4    1  0.4890517E-002  0.4390973E+03  0.7818608E-02  0.1031024E+00
         21   -1    0    0  501  502  0.00000000000E+00  0.00000000000E+00  0.47344799040E+03  0.47344799040E+03  0.00000000000E+00 0. -1.
         21   -1    0    0  502  503 -0.00000000000E+00 -0.00000000000E+00 -0.57487130285E+03  0.57487130285E+03  0.00000000000E+00 0. -1.
    9000007    1    1    2  501    0 -0.18109799310E+03 -0.31548607064E+01  0.23233449923E+03  0.49677535746E+03  0.40000000000E+03 0. -1.
   -9000007    1    1    2    0  503  0.18109799310E+03  0.31548607064E+01 -0.33375781168E+03  0.55154393579E+03  0.40000000000E+03 0. -1.
<mgrwt>
<rscale>  2 0.43909730E+03</rscale>
<asrwt>0</asrwt>
<pdfrwt beam="1">  1       21 0.72838153E-01 0.43909730E+03</pdfrwt>
<pdfrwt beam="2">  1       21 0.88441739E-01 0.43909730E+03</pdfrwt>
<totfact> 0.16014927E+03</totfact>
</mgrwt>
</event>
<event>
 4    1  0.4890517E-002  0.5452333E+03  0.7818608E-02  0.1002603E+00
         21   -1    0    0  501  502  0.00000000000E+00  0.00000000000E+00  0.90760339083E+03  0.90760339083E+03  0.00000000000E+00 0. -1.
         21   -1    0    0  502  503 -0.00000000000E+00 -0.00000000000E+00 -0.33325756365E+03  0.33325756365E+03  0.00000000000E+00 0. -1.
    9000007    1    1    2  501    0  0.20503200578E+03  0.30861178939E+03  0.36841579866E+03  0.65803461964E+03  0.40000000000E+03 0. -1.
   -9000007    1    1    2    0  503 -0.20503200578E+03 -0.30861178939E+03  0.20593002851E+03  0.58282633484E+03  0.40000000000E+03 0. -1.
<mgrwt>
<rscale>  2 0.54523331E+03</rscale>
<asrwt>0</asrwt>
<pdfrwt beam="1">  1       21 0.13963129E+00 0.54523331E+03</pdfrwt>
<pdfrwt beam="2">  1       21 0.51270395E-01 0.54523331E+03</pdfrwt>
<totfact> 0.10655321E+03</totfact>
</mgrwt>
</event>
<event>
 4    1  0.4890517E-002  0.4399784E+03  0.7818608E-02  0.1030753E+00
         21   -1    0    0  501  502  0.00000000000E+00  0.00000000000E+00  0.13837533483E+04  0.13837533483E+04  0.00000000000E+00 0.  1.
         21   -1    0    0  502  503 -0.00000000000E+00 -0.00000000000E+00 -0.35724694311E+03  0.35724694311E+03  0.00000000000E+00 0.  1.
    9000007    1    1    2  501    0 -0.18291514008E+03  0.11092971778E+02  0.11922469160E+04  0.12708397662E+04  0.40000000000E+03 0.  1.
   -9000007    1    1    2    0  503  0.18291514008E+03 -0.11092971778E+02 -0.16574051089E+03  0.47016052519E+03  0.40000000000E+03 0.  1.
<mgrwt>
<rscale>  2 0.43997841E+03</rscale>
<asrwt>0</asrwt>
<pdfrwt beam="1">  1       21 0.21288513E+00 0.43997841E+03</pdfrwt>
<pdfrwt beam="2">  1       21 0.54961069E-01 0.43997841E+03</pdfrwt>
<totfact> 0.28357497E+02</totfact>
</mgrwt>
</event>
<event>
 4    1  0.4890517E-002  0.4188732E+03  0.7818608E-02  0.1037434E+00
         21   -1    0    0  503  502  0.00000000000E+00  0.00000000000E+00  0.11061319089E+03  0.11061319089E+03  0.00000000000E+00 0. -1.
         21   -1    0    0  501  503 -0.00000000000E+00 -0.00000000000E+00 -0.15865825178E+04  0.15865825178E+04  0.00000000000E+00 0.  1.
    9000007    1    1    2  501    0  0.11906317477E+03  0.35759592580E+02 -0.75113850880E+03  0.86003711981E+03  0.40000000000E+03 0. -1.
   -9000007    1    1    2    0  502 -0.11906317477E+03 -0.35759592580E+02 -0.72483081815E+03  0.83715858891E+03  0.40000000000E+03 0. -1.
<mgrwt>
<rscale>  2 0.41887324E+03</rscale>
<asrwt>0</asrwt>
<pdfrwt beam="1">  1       21 0.17017414E-01 0.41887324E+03</pdfrwt>
<pdfrwt beam="2">  1       21 0.24408962E+00 0.41887324E+03</pdfrwt>
<totfact> 0.18962130E+03</totfact>
</mgrwt>
</event>
<event>
 4    1  0.4890517E-002  0.4281439E+03  0.7818608E-02  0.1034448E+00
         21   -1    0    0  503  502  0.00000000000E+00  0.00000000000E+00  0.11167161694E+04  0.11167161694E+04  0.00000000000E+00 0. -1.
         21   -1    0    0  501  503 -0.00000000000E+00 -0.00000000000E+00 -0.16480662259E+03  0.16480662259E+03  0.00000000000E+00 0. -1.
    9000007    1    1    2  501    0 -0.30086534265E+02 -0.14967305077E+03  0.51644785794E+03  0.67083948277E+03  0.40000000000E+03 0.  1.
   -9000007    1    1    2    0  502  0.30086534265E+02  0.14967305077E+03  0.43546168883E+03  0.61068330918E+03  0.40000000000E+03 0.  1.
<mgrwt>
<rscale>  2 0.42814393E+03</rscale>
<asrwt>0</asrwt>
<pdfrwt beam="1">  1       21 0.17180248E+00 0.42814393E+03</pdfrwt>
<pdfrwt beam="2">  1       21 0.25354866E-01 0.42814393E+03</pdfrwt>
<totfact> 0.26401697E+03</totfact>
</mgrwt>
</event>
<event>
 4    1  0.4890517E-002  0.5279649E+03  0.7818608E-02  0.1006727E+00
         21   -1    0    0  503  502  0.00000000000E+00  0.00000000000E+00  0.11268764072E+04  0.11268764072E+04  0.00000000000E+00 0. -1.
         21   -1    0    0  501  503 -0.00000000000E+00 -0.00000000000E+00 -0.36746951141E+03  0.36746951141E+03  0.00000000000E+00 0.  1.
    9000007    1    1    2  501    0  0.30783858845E+03 -0.15486227901E+03  0.80686754155E+03  0.96425212036E+03  0.40000000000E+03 0. -1.
   -9000007    1    1    2    0  502 -0.30783858845E+03  0.15486227901E+03 -0.47460645814E+02  0.53009379821E+03  0.40000000000E+03 0.  1.
<mgrwt>
<rscale>  2 0.52796489E+03</rscale>
<asrwt>0</asrwt>
<pdfrwt beam="1">  1       21 0.17336560E+00 0.52796489E+03</pdfrwt>
<pdfrwt beam="2">  1       21 0.56533772E-01 0.52796489E+03</pdfrwt>
<totfact> 0.47639433E+02</totfact>
</mgrwt>
</event>
<event>
 4    1  0.4890517E-002  0.4106140E+03  0.7818608E-02  0.1040165E+00
         21   -1    0    0  503  502  0.00000000000E+00  0.00000000000E+00  0.11175148009E+04  0.11175148009E+04  0.00000000000E+00 0. -1.
         21   -1    0    0  501  503 -0.00000000000E+00 -0.00000000000E+00 -0.29187821780E+03  0.29187821780E+03  0.00000000000E+00 0. -1.
    9000007    1    1    2  501    0  0.92498523477E+02  0.69191330096E+01 -0.76980190777E+02  0.41776763999E+03  0.40000000000E+03 0. -1.
   -9000007    1    1    2    0  502 -0.92498523477E+02 -0.69191330096E+01  0.90261677388E+03  0.99162537873E+03  0.40000000000E+03 0. -1.
<mgrwt>
<rscale>  2 0.41061399E+03</rscale>
<asrwt>0</asrwt>
<pdfrwt beam="1">  1       21 0.17192535E+00 0.41061399E+03</pdfrwt>
<pdfrwt beam="2">  1       21 0.44904342E-01 0.41061399E+03</pdfrwt>
<totfact> 0.83990064E+02</totfact>
</mgrwt>
</event>
<event>
 4    1  0.4890517E-002  0.4780055E+03  0.7818608E-02  0.1019685E+00
         21   -1    0    0  501  502  0.00000000000E+00  0.00000000000E+00  0.17033801863E+03  0.17033801863E+03  0.00000000000E+00 0.  1.
         21   -1    0    0  502  503 -0.00000000000E+00 -0.00000000000E+00 -0.13595530939E+04  0.13595530939E+04  0.00000000000E+00 0. -1.
    9000007    1    1    2  501    0  0.19717141493E+03  0.17208335759E+03 -0.50618559389E+03  0.69621340427E+03  0.40000000000E+03 0. -1.
   -9000007    1    1    2    0  503 -0.19717141493E+03 -0.17208335759E+03 -0.68302948140E+03  0.83367770828E+03  0.40000000000E+03 0. -1.
<mgrwt>
<rscale>  2 0.47800549E+03</rscale>
<asrwt>0</asrwt>
<pdfrwt beam="1">  1       21 0.26205849E-01 0.47800549E+03</pdfrwt>
<pdfrwt beam="2">  1       21 0.20916201E+00 0.47800549E+03</pdfrwt>
<totfact> 0.13442551E+03</totfact>
</mgrwt>
</event>
<event>
 4    1  0.4890517E-002  0.7894735E+03  0.7818608E-02  0.9575380E-01
         21   -1    0    0  501  502  0.00000000000E+00  0.00000000000E+00  0.62582818847E+03  0.62582818847E+03  0.00000000000E+00 0. -1.
         21   -1    0    0  502  503 -0.00000000000E+00 -0.00000000000E+00 -0.11694118100E+04  0.11694118100E+04  0.00000000000E+00 0.  1.
    9000007    1    1    2  501    0  0.37951281248E+03 -0.56501189845E+03 -0.61754090355E+03  0.10023099260E+04  0.40000000000E+03 0. -1.
   -9000007    1    1    2    0  503 -0.37951281248E+03  0.56501189845E+03  0.73957282031E+02  0.79293007245E+03  0.40000000000E+03 0.  1.
<mgrwt>
<rscale>  2 0.78947351E+03</rscale>
<asrwt>0</asrwt>
<pdfrwt beam="1">  1       21 0.96281260E-01 0.78947351E+03</pdfrwt>
<pdfrwt beam="2">  1       21 0.17990951E+00 0.78947351E+03</pdfrwt>
<totfact> 0.11487605E+02</totfact>
</mgrwt>
</event>
<event>
 4    1  0.4890517E-002  0.4359695E+03  0.7818608E-02  0.1031991E+00
         21   -1    0    0  503  502  0.00000000000E+00  0.00000000000E+00  0.29350141083E+03  0.29350141083E+03  0.00000000000E+00 0. -1.
         21   -1    0    0  501  503 -0.00000000000E+00 -0.00000000000E+00 -0.83122767185E+03  0.83122767185E+03  0.00000000000E+00 0.  1.
    9000007    1    1    2  501    0  0.17246338634E+03  0.18049492048E+02 -0.53318646095E+03  0.68873594790E+03  0.40000000000E+03 0.  1.
   -9000007    1    1    2    0  502 -0.17246338634E+03 -0.18049492048E+02 -0.45398000681E+01  0.43599313478E+03  0.40000000000E+03 0. -1.
<mgrwt>
<rscale>  2 0.43596950E+03</rscale>
<asrwt>0</asrwt>
<pdfrwt beam="1">  1       21 0.45154063E-01 0.43596950E+03</pdfrwt>
<pdfrwt beam="2">  1       21 0.12788118E+00 0.43596950E+03</pdfrwt>
<totfact> 0.18290044E+03</totfact>
</mgrwt>
</event>
<event>
 4    1  0.4890517E-002  0.4270207E+03  0.7818608E-02  0.1034805E+00
         21   -1    0    0  501  502  0.00000000000E+00  0.00000000000E+00  0.17479706745E+03  0.17479706745E+03  0.00000000000E+00 0. -1.
         21   -1    0    0  502  503 -0.00000000000E+00 -0.00000000000E+00 -0.10920453698E+04  0.10920453698E+04  0.00000000000E+00 0. -1.
    9000007    1    1    2  501    0  0.14805191860E+03  0.20670810392E+02 -0.32464850177E+03  0.53641709770E+03  0.40000000000E+03 0. -1.
   -9000007    1    1    2    0  503 -0.14805191860E+03 -0.20670810392E+02 -0.59259980060E+03  0.73042533956E+03  0.40000000000E+03 0. -1.
<mgrwt>
<rscale>  2 0.42702067E+03</rscale>
<asrwt>0</asrwt>
<pdfrwt beam="1">  1       21 0.26891856E-01 0.42702067E+03</pdfrwt>
<pdfrwt beam="2">  1       21 0.16800698E+00 0.42702067E+03</pdfrwt>
<totfact> 0.25089099E+03</totfact>
</mgrwt>
</event>
<event>
 4    1  0.4890517E-002  0.4915399E+03  0.7818608E-02  0.1016011E+00
         21   -1    0    0  503  502  0.00000000000E+00  0.00000000000E+00  0.13114845370E+03  0.13114845370E+03  0.00000000000E+00 0.  1.
         21   -1    0    0  501  503 -0.00000000000E+00 -0.00000000000E+00 -0.22265776545E+04  0.22265776545E+04  0.00000000000E+00 0.  1.
    9000007    1    1    2  501    0  0.35608511225E+02  0.28344925055E+03 -0.55795670709E+03  0.74359070106E+03  0.40000000000E+03 0.  1.
   -9000007    1    1    2    0  502 -0.35608511225E+02 -0.28344925055E+03 -0.15374724937E+04  0.16141354072E+04  0.40000000000E+03 0.  1.
<mgrwt>
<rscale>  2 0.49153987E+03</rscale>
<asrwt>0</asrwt>
<pdfrwt beam="1">  1       21 0.20176687E-01 0.49153987E+03</pdfrwt>
<pdfrwt beam="2">  1       21 0.34255037E+00 0.49153987E+03</pdfrwt>
<totfact> 0.33469603E+02</totfact>
</mgrwt>
</event>
<event>
 4    1  0.4890517E-002  0.4116183E+03  0.7818608E-02  0.1039829E+00
         21   -1    0    0  501  502  0.00000000000E+00  0.00000000000E+00  0.20988924290E+03  0.20988924290E+03  0.00000000000E+00 0.  1.
         21   -1    0    0  502  503 -0.00000000000E+00 -0.00000000000E+00 -0.15171170532E+04  0.15171170532E+04  0.00000000000E+00 0. -1.
    9000007    1    1    2  501    0  0.95597783016E+02  0.17048976090E+02 -0.62939744261E+02  0.41640246771E+03  0.40000000000E+03 0.  1.
   -9000007    1    1    2    0  503 -0.95597783016E+02 -0.17048976090E+02 -0.12442880660E+04  0.13106038284E+04  0.40000000000E+03 0. -1.
<mgrwt>
<rscale>  2 0.41161827E+03</rscale>
<asrwt>0</asrwt>
<pdfrwt beam="1">  1       21 0.32290653E-01 0.41161827E+03</pdfrwt>
<pdfrwt beam="2">  1       21 0.23340263E+00 0.41161827E+03</pdfrwt>
<totfact> 0.64305135E+02</totfact>
</mgrwt>
</event>
<event>
 4    1  0.4890517E-002  0.4234410E+03  0.7818608E-02  0.1035952E+00
         21   -1    0    0  503  502  0.00000000000E+00  0.00000000000E+00  0.24198178544E+03  0.24198178544E+03  0.00000000000E+00 0. -1.
         21   -1    0    0  501  503 -0.00000000000E+00 -0.00000000000E+00 -0.78909813496E+03  0.78909813496E+03  0.00000000000E+00 0. -1.
    9000007    1    1    2  501    0  0.13661130726E+03  0.25290873122E+02 -0.40087243814E+03  0.58309603771E+03  0.40000000000E+03 0. -1.
   -9000007    1    1    2    0  502 -0.13661130726E+03 -0.25290873122E+02 -0.14624391138E+03  0.44798388269E+03  0.40000000000E+03 0. -1.
<mgrwt>
<rscale>  2 0.42344100E+03</rscale>
<asrwt>0</asrwt>
<pdfrwt beam="1">  1       21 0.37227967E-01 0.42344100E+03</pdfrwt>
<pdfrwt beam="2">  1       21 0.12139971E+00 0.42344100E+03</pdfrwt>
<totfact> 0.31294109E+03</totfact>
</mgrwt>
</event>
<event>
 4    1  0.4890517E-002  0.4328173E+03  0.7818608E-02  0.1032974E+00
         21   -1    0    0  501  502  0.00000000000E+00  0.00000000000E+00  0.24353208462E+04  0.24353208462E+04  0.00000000000E+00 0.  1.
         21   -1    0    0  502  503 -0.00000000000E+00 -0.00000000000E+00 -0.77505638844E+02  0.77505638844E+02  0.00000000000E+00 0.  1.
    9000007    1    1    2  501    0  0.15861534761E+03  0.46604816949E+02  0.10699213389E+04  0.11541501241E+04  0.40000000000E+03 0. -1.
   -9000007    1    1    2    0  503 -0.15861534761E+03 -0.46604816949E+02  0.12878938685E+04  0.13586763610E+04  0.40000000000E+03 0. -1.
<mgrwt>
<rscale>  2 0.43281733E+03</rscale>
<asrwt>0</asrwt>
<pdfrwt beam="1">  1       21 0.37466469E+00 0.43281733E+03</pdfrwt>
<pdfrwt beam="2">  1       21 0.11923946E-01 0.43281733E+03</pdfrwt>
<totfact> 0.58451891E+02</totfact>
</mgrwt>
</event>
<event>
 4    1  0.4890517E-002  0.5499136E+03  0.7818608E-02  0.1001514E+00
         21   -1    0    0  501  502  0.00000000000E+00  0.00000000000E+00  0.12916338596E+04  0.12916338596E+04  0.00000000000E+00 0.  1.
         21   -1    0    0  502  503 -0.00000000000E+00 -0.00000000000E+00 -0.23423520039E+03  0.23423520039E+03  0.00000000000E+00 0. -1.
    9000007    1    1    2  501    0 -0.43027792370E+02 -0.37490478243E+03  0.54517715080E+03  0.77435335123E+03  0.40000000000E+03 0.  1.
   -9000007    1    1    2    0  503  0.43027792370E+02  0.37490478243E+03  0.51222150837E+03  0.75151570872E+03  0.40000000000E+03 0.  1.
<mgrwt>
<rscale>  2 0.54991362E+03</rscale>
<asrwt>0</asrwt>
<pdfrwt beam="1">  1       21 0.19871290E+00 0.54991362E+03</pdfrwt>
<pdfrwt beam="2">  1       21 0.36036186E-01 0.54991362E+03</pdfrwt>
<totfact> 0.81100760E+02</totfact>
</mgrwt>
</event>
<event>
 4    1  0.4890517E-002  0.9452236E+03  0.7818608E-02  0.9370751E-01
         21   -1    0    0  501  502  0.00000000000E+00  0.00000000000E+00  0.12529316730E+04  0.12529316730E+04  0.00000000000E+00 0. -1.
         21   -1    0    0  502  503 -0.00000000000E+00 -0.00000000000E+00 -0.71901566350E+03  0.71901566350E+03  0.00000000000E+00 0.  1.
    9000007    1    1    2  501    0  0.16692856189E+03  0.83998955316E+03  0.35649943913E+03  0.10102175233E+04  0.40000000000E+03 0. -1.
   -9000007    1    1    2    0  503 -0.16692856189E+03 -0.83998955316E+03  0.17741657033E+03  0.96172981321E+03  0.40000000000E+03 0.  1.
<mgrwt>
<rscale>  2 0.94522357E+03</rscale>
<asrwt>0</asrwt>
<pdfrwt beam="1">  1       21 0.19275872E+00 0.94522357E+03</pdfrwt>
<pdfrwt beam="2">  1       21 0.11061779E+00 0.94522357E+03</pdfrwt>
<totfact> 0.63121226E+01</totfact>
</mgrwt>
</event>
<event>
 4    1  0.4890517E-002  0.4159999E+03  0.7818608E-02  0.1038376E+00
         21   -1    0    0  503  502  0.00000000000E+00  0.00000000000E+00  0.54249617789E+03  0.54249617789E+03  0.00000000000E+00 0. -1.
         21   -1    0    0  501  503 -0.00000000000E+00 -0.00000000000E+00 -0.34248903355E+03  0.34248903355E+03  0.00000000000E+00 0. -1.
    9000007    1    1    2  501    0 -0.42200713506E+02  0.10618381306E+03  0.21588709912E+03  0.46868234652E+03  0.40000000000E+03 0. -1.
   -9000007    1    1    2    0  502  0.42200713506E+02 -0.10618381306E+03 -0.15879954785E+02  0.41630286492E+03  0.40000000000E+03 0. -1.
<mgrwt>
<rscale>  2 0.41599988E+03</rscale>
<asrwt>0</asrwt>
<pdfrwt beam="1">  1       21 0.83460951E-01 0.41599988E+03</pdfrwt>
<pdfrwt beam="2">  1       21 0.52690620E-01 0.41599988E+03</pdfrwt>
<totfact> 0.37754929E+03</totfact>
</mgrwt>
</event>
<event>
 4    1  0.4890517E-002  0.5216531E+03  0.7818608E-02  0.1008277E+00
         21   -1    0    0  501  502  0.00000000000E+00  0.00000000000E+00  0.22525952190E+03  0.22525952190E+03  0.00000000000E+00 0. -1.
         21   -1    0    0  502  503 -0.00000000000E+00 -0.00000000000E+00 -0.12214253840E+04  0.12214253840E+04  0.00000000000E+00 0.  1.
    9000007    1    1    2  501    0 -0.31777774682E+03  0.10554252825E+03 -0.42235284111E+03  0.67119583136E+03  0.40000000000E+03 0. -1.
   -9000007    1    1    2    0  503  0.31777774682E+03 -0.10554252825E+03 -0.57381302096E+03  0.77548907450E+03  0.40000000000E+03 0.  1.
<mgrwt>
<rscale>  2 0.52165307E+03</rscale>
<asrwt>0</asrwt>
<pdfrwt beam="1">  1       21 0.34655311E-01 0.52165307E+03</pdfrwt>
<pdfrwt beam="2">  1       21 0.18791160E+00 0.52165307E+03</pdfrwt>
<totfact> 0.10518895E+03</totfact>
</mgrwt>
</event>
<event>
 4    1  0.4890517E-002  0.6123621E+03  0.7818608E-02  0.9880085E-01
         21   -1    0    0  501  502  0.00000000000E+00  0.00000000000E+00  0.50188984029E+03  0.50188984029E+03  0.00000000000E+00 0.  1.
         21   -1    0    0  502  503 -0.00000000000E+00 -0.00000000000E+00 -0.84324728093E+03  0.84324728093E+03  0.00000000000E+00 0. -1.
    9000007    1    1    2  501    0  0.31796998089E+03 -0.33746479035E+03  0.56366748740E+02  0.61495089546E+03  0.40000000000E+03 0.  1.
   -9000007    1    1    2    0  503 -0.31796998089E+03  0.33746479035E+03 -0.39772418939E+03  0.73018622576E+03  0.40000000000E+03 0.  1.
<mgrwt>
<rscale>  2 0.61236214E+03</rscale>
<asrwt>0</asrwt>
<pdfrwt beam="1">  1       21 0.77213822E-01 0.61236214E+03</pdfrwt>
<pdfrwt beam="2">  1       21 0.12973035E+00 0.61236214E+03</pdfrwt>
<totfact> 0.50910069E+02</totfact>
</mgrwt>
</event>
<event>
 4    1  0.4890517E-002  0.4220407E+03  0.7818608E-02  0.1036404E+00
         21   -1    0    0  501  502  0.00000000000E+00  0.00000000000E+00  0.40516492876E+03  0.40516492876E+03  0.00000000000E+00 0. -1.
         21   -1    0    0  502  503 -0.00000000000E+00 -0.00000000000E+00 -0.50109650892E+03  0.50109650892E+03  0.00000000000E+00 0. -1.
    9000007    1    1    2  501    0 -0.13335910331E+03  0.18267693445E+02  0.11074979256E+03  0.43633000769E+03  0.40000000000E+03 0. -1.
   -9000007    1    1    2    0  503  0.13335910331E+03 -0.18267693445E+02 -0.20668137272E+03  0.46993142999E+03  0.40000000000E+03 0. -1.
<mgrwt>
<rscale>  2 0.42204071E+03</rscale>
<asrwt>0</asrwt>
<pdfrwt beam="1">  1       21 0.62333066E-01 0.42204071E+03</pdfrwt>
<pdfrwt beam="2">  1       21 0.77091771E-01 0.42204071E+03</pdfrwt>
<totfact> 0.31412302E+03</totfact>
</mgrwt>
</event>
<event>
 4    1  0.4890517E-002  0.4038487E+03  0.7818608E-02  0.1042455E+00
         21   -1    0    0  503  502  0.00000000000E+00  0.00000000000E+00  0.76195451481E+03  0.76195451481E+03  0.00000000000E+00 0.  1.
         21   -1    0    0  501  503 -0.00000000000E+00 -0.00000000000E+00 -0.23322520823E+03  0.23322520823E+03  0.00000000000E+00 0.  1.
    9000007    1    1    2  501    0 -0.15613320998E+02  0.53385507881E+02  0.12167512598E+03  0.42178030362E+03  0.40000000000E+03 0.  1.
   -9000007    1    1    2    0  502  0.15613320998E+02 -0.53385507881E+02  0.40705418060E+03  0.57339941942E+03  0.40000000000E+03 0.  1.
<mgrwt>
<rscale>  2 0.40384872E+03</rscale>
<asrwt>0</asrwt>
<pdfrwt beam="1">  1       21 0.11722377E+00 0.40384872E+03</pdfrwt>
<pdfrwt beam="2">  1       21 0.35880802E-01 0.40384872E+03</pdfrwt>
<totfact> 0.37134115E+03</totfact>
</mgrwt>
</event>
<event>
 4    1  0.4890517E-002  0.4262564E+03  0.7818608E-02  0.1035049E+00
         21   -1    0    0  503  502  0.00000000000E+00  0.00000000000E+00  0.16105631738E+04  0.16105631738E+04  0.00000000000E+00 0.  1.
         21   -1    0    0  501  503 -0.00000000000E+00 -0.00000000000E+00 -0.14311774133E+03  0.14311774133E+03  0.00000000000E+00 0.  1.
    9000007    1    1    2  501    0  0.13942366908E+03  0.47493149830E+02  0.33024476128E+03  0.53921810163E+03  0.40000000000E+03 0.  1.
   -9000007    1    1    2    0  502 -0.13942366908E+03 -0.47493149830E+02  0.11372006712E+04  0.12144628135E+04  0.40000000000E+03 0.  1.
<mgrwt>
<rscale>  2 0.42625645E+03</rscale>
<asrwt>0</asrwt>
<pdfrwt beam="1">  1       21 0.24777894E+00 0.42625645E+03</pdfrwt>
<pdfrwt beam="2">  1       21 0.22018115E-01 0.42625645E+03</pdfrwt>
<totfact> 0.11004296E+03</totfact>
</mgrwt>
</event>
<event>
 4    1  0.4890517E-002  0.4273625E+03  0.7818608E-02  0.1034696E+00
         21   -1    0    0  503  502  0.00000000000E+00  0.00000000000E+00  0.17254752771E+03  0.17254752771E+03  0.00000000000E+00 0. -1.
         21   -1    0    0  501  503 -0.00000000000E+00 -0.00000000000E+00 -0.12351270584E+04  0.12351270584E+04  0.00000000000E+00 0. -1.
    9000007    1    1    2  501    0 -0.80537991513E+02 -0.12709197315E+03 -0.79746348201E+03  0.90475783658E+03  0.40000000000E+03 0. -1.
   -9000007    1    1    2    0  502  0.80537991513E+02  0.12709197315E+03 -0.26511604872E+03  0.50291674958E+03  0.40000000000E+03 0. -1.
<mgrwt>
<rscale>  2 0.42736254E+03</rscale>
<asrwt>0</asrwt>
<pdfrwt beam="1">  1       21 0.26545774E-01 0.42736254E+03</pdfrwt>
<pdfrwt beam="2">  1       21 0.19001954E+00 0.42736254E+03</pdfrwt>
<totfact> 0.17989984E+03</totfact>
</mgrwt>
</event>
<event>
 4    1  0.4890517E-002  0.4032742E+03  0.7818608E-02  0.1042652E+00
         21   -1    0    0  503  502  0.00000000000E+00  0.00000000000E+00  0.56926957606E+03  0.56926957606E+03  0.00000000000E+00 0.  1.
         21   -1    0    0  501  503 -0.00000000000E+00 -0.00000000000E+00 -0.39747639725E+03  0.39747639725E+03  0.00000000000E+00 0.  1.
    9000007    1    1    2  501    0  0.17571294015E+02 -0.48180080064E+02 -0.17045541944E+03  0.43781859314E+03  0.40000000000E+03 0.  1.
   -9000007    1    1    2    0  502 -0.17571294015E+02  0.48180080064E+02  0.34224859825E+03  0.52892738017E+03  0.40000000000E+03 0.  1.
<mgrwt>
<rscale>  2 0.40327419E+03</rscale>
<asrwt>0</asrwt>
<pdfrwt beam="1">  1       21 0.87579935E-01 0.40327419E+03</pdfrwt>
<pdfrwt beam="2">  1       21 0.61150215E-01 0.40327419E+03</pdfrwt>
<totfact> 0.24555769E+03</totfact>
</mgrwt>
</event>
<event>
 4    1  0.4890517E-002  0.4249006E+03  0.7818608E-02  0.1035483E+00
         21   -1    0    0  501  502  0.00000000000E+00  0.00000000000E+00  0.36709950923E+03  0.36709950923E+03  0.00000000000E+00 0.  1.
         21   -1    0    0  502  503 -0.00000000000E+00 -0.00000000000E+00 -0.68143505327E+03  0.68143505327E+03  0.00000000000E+00 0.  1.
    9000007    1    1    2  501    0  0.10077943422E+03  0.10190188860E+03 -0.43373254620E+03  0.60717741303E+03  0.40000000000E+03 0.  1.
   -9000007    1    1    2    0  503 -0.10077943422E+03 -0.10190188860E+03  0.11939700216E+03  0.44135714947E+03  0.40000000000E+03 0.  1.
<mgrwt>
<rscale>  2 0.42490056E+03</rscale>
<asrwt>0</asrwt>
<pdfrwt beam="1">  1       21 0.56476848E-01 0.42490056E+03</pdfrwt>
<pdfrwt beam="2">  1       21 0.10483616E+00 0.42490056E+03</pdfrwt>
<totfact> 0.18800280E+03</totfact>
</mgrwt>
</event>
<event>
 4    1  0.4890517E-002  0.4928377E+03  0.7818608E-02  0.1015665E+00
         21   -1    0    0  501  502  0.00000000000E+00  0.00000000000E+00  0.19854780780E+04  0.19854780780E+04  0.00000000000E+00 0. -1.
         21   -1    0    0  502  503 -0.00000000000E+00 -0.00000000000E+00 -0.12246776815E+03  0.12246776815E+03  0.00000000000E+00 0. -1.
    9000007    1    1    2  501    0  0.18231397419E+03 -0.22282410360E+03  0.96650261430E+03  0.10849038067E+04  0.40000000000E+03 0. -1.
   -9000007    1    1    2    0  503 -0.18231397419E+03  0.22282410360E+03  0.89650769559E+03  0.10230420395E+04  0.40000000000E+03 0. -1.
<mgrwt>
<rscale>  2 0.49283767E+03</rscale>
<asrwt>0</asrwt>
<pdfrwt beam="1">  1       21 0.30545814E+00 0.49283767E+03</pdfrwt>
<pdfrwt beam="2">  1       21 0.18841197E-01 0.49283767E+03</pdfrwt>
<totfact> 0.64011089E+02</totfact>
</mgrwt>
</event>
<event>
 4    1  0.4890517E-002  0.4168081E+03  0.7818608E-02  0.1038110E+00
         21   -1    0    0  503  502  0.00000000000E+00  0.00000000000E+00  0.49661378617E+03  0.49661378617E+03  0.00000000000E+00 0. -1.
         21   -1    0    0  501  503 -0.00000000000E+00 -0.00000000000E+00 -0.37302981078E+03  0.37302981078E+03  0.00000000000E+00 0. -1.
    9000007    1    1    2  501    0  0.31361300956E+02  0.11289575028E+03 -0.46652755761E+02  0.41941085018E+03  0.40000000000E+03 0.  1.
   -9000007    1    1    2    0  502 -0.31361300956E+02 -0.11289575028E+03  0.17023673116E+03  0.45023274677E+03  0.40000000000E+03 0.  1.
<mgrwt>
<rscale>  2 0.41680809E+03</rscale>
<asrwt>0</asrwt>
<pdfrwt beam="1">  1       21 0.76402121E-01 0.41680809E+03</pdfrwt>
<pdfrwt beam="2">  1       21 0.57389201E-01 0.41680809E+03</pdfrwt>
<totfact> 0.38491685E+03</totfact>
</mgrwt>
</event>
<event>
 4    1  0.4890517E-002  0.5024142E+03  0.7818608E-02  0.1013151E+00
         21   -1    0    0  503  502  0.00000000000E+00  0.00000000000E+00  0.20426112802E+03  0.20426112802E+03  0.00000000000E+00 0.  1.
         21   -1    0    0  501  503 -0.00000000000E+00 -0.00000000000E+00 -0.12963630106E+04  0.12963630106E+04  0.00000000000E+00 0. -1.
    9000007    1    1    2  501    0 -0.62166172436E+02 -0.29758260259E+03 -0.70826378856E+03  0.86836491900E+03  0.40000000000E+03 0. -1.
   -9000007    1    1    2    0  502  0.62166172436E+02  0.29758260259E+03 -0.38383809400E+03  0.63225921959E+03  0.40000000000E+03 0. -1.
<mgrwt>
<rscale>  2 0.50241421E+03</rscale>
<asrwt>0</asrwt>
<pdfrwt beam="1">  1       21 0.31424788E-01 0.50241421E+03</pdfrwt>
<pdfrwt beam="2">  1       21 0.19944047E+00 0.50241421E+03</pdfrwt>
<totfact> 0.10771548E+03</totfact>
</mgrwt>
</event>
<event>
 4    1  0.4890517E-002  0.4572912E+03  0.7818608E-02  0.1025570E+00
         21   -1    0    0  501  502  0.00000000000E+00  0.00000000000E+00  0.11971169243E+03  0.11971169243E+03  0.00000000000E+00 0.  1.
         21   -1    0    0  502  503 -0.00000000000E+00 -0.00000000000E+00 -0.17647687195E+04  0.17647687195E+04  0.00000000000E+00 0. -1.
    9000007    1    1    2  501    0 -0.66628526508E+02  0.21136677990E+03 -0.91754176337E+03  0.10251820149E+04  0.40000000000E+03 0.  1.
   -9000007    1    1    2    0  503  0.66628526508E+02 -0.21136677990E+03 -0.72751526372E+03  0.85929839703E+03  0.40000000000E+03 0. -1.
<mgrwt>
<rscale>  2 0.45729124E+03</rscale>
<asrwt>0</asrwt>
<pdfrwt beam="1">  1       21 0.18417185E-01 0.45729124E+03</pdfrwt>
<pdfrwt beam="2">  1       21 0.27150285E+00 0.45729124E+03</pdfrwt>
<totfact> 0.10911045E+03</totfact>
</mgrwt>
</event>
<event>
 4    1  0.4890517E-002  0.4947403E+03  0.7818608E-02  0.1015161E+00
         21   -1    0    0  503  502  0.00000000000E+00  0.00000000000E+00  0.25620572883E+03  0.25620572883E+03  0.00000000000E+00 0.  1.
         21   -1    0    0  501  503 -0.00000000000E+00 -0.00000000000E+00 -0.95781662721E+03  0.95781662721E+03  0.00000000000E+00 0. -1.
    9000007    1    1    2  501    0 -0.28920381440E+03 -0.33602087149E+02 -0.32004542406E+03  0.58923426579E+03  0.40000000000E+03 0.  1.
   -9000007    1    1    2    0  502  0.28920381440E+03  0.33602087149E+02 -0.38156547432E+03  0.62478809025E+03  0.40000000000E+03 0. -1.
<mgrwt>
<rscale>  2 0.49474028E+03</rscale>
<asrwt>0</asrwt>
<pdfrwt beam="1">  1       21 0.39416266E-01 0.49474028E+03</pdfrwt>
<pdfrwt beam="2">  1       21 0.14735640E+00 0.49474028E+03</pdfrwt>
<totfact> 0.16301995E+03</totfact>
</mgrwt>
</event>
<event>
 4    1  0.4890517E-002  0.5690748E+03  0.7818608E-02  0.9971728E-01
         21   -1    0    0  501  502  0.00000000000E+00  0.00000000000E+00  0.33462032096E+03  0.33462032096E+03  0.00000000000E+00 0. -1.
         21   -1    0    0  502  503 -0.00000000000E+00 -0.00000000000E+00 -0.96910951834E+03  0.96910951834E+03  0.00000000000E+00 0. -1.
    9000007    1    1    2  501    0 -0.10948572668E+03  0.38969084235E+03 -0.29329688769E+03  0.64021023210E+03  0.40000000000E+03 0. -1.
   -9000007    1    1    2    0  503  0.10948572668E+03 -0.38969084235E+03 -0.34119230968E+03  0.66351960720E+03  0.40000000000E+03 0. -1.
<mgrwt>
<rscale>  2 0.56907476E+03</rscale>
<asrwt>0</asrwt>
<pdfrwt beam="1">  1       21 0.51480049E-01 0.56907476E+03</pdfrwt>
<pdfrwt beam="2">  1       21 0.14909377E+00 0.56907476E+03</pdfrwt>
<totfact> 0.87747663E+02</totfact>
</mgrwt>
</event>
<event>
 4    1  0.4890517E-002  0.4120286E+03  0.7818608E-02  0.1039692E+00
         21   -1    0    0  501  502  0.00000000000E+00  0.00000000000E+00  0.10709213752E+04  0.10709213752E+04  0.00000000000E+00 0.  1.
         21   -1    0    0  502  503 -0.00000000000E+00 -0.00000000000E+00 -0.15995132807E+03  0.15995132807E+03  0.00000000000E+00 0.  1.
    9000007    1    1    2  501    0  0.71619876469E+02 -0.68104092748E+02  0.39736408719E+03  0.57242099188E+03  0.40000000000E+03 0.  1.
   -9000007    1    1    2    0  503 -0.71619876469E+02  0.68104092748E+02  0.51360595996E+03  0.65845171141E+03  0.40000000000E+03 0.  1.
<mgrwt>
<rscale>  2 0.41202861E+03</rscale>
<asrwt>0</asrwt>
<pdfrwt beam="1">  1       21 0.16475713E+00 0.41202861E+03</pdfrwt>
<pdfrwt beam="2">  1       21 0.24607897E-01 0.41202861E+03</pdfrwt>
<totfact> 0.31710967E+03</totfact>
</mgrwt>
</event>
<event>
 4    1  0.4890517E-002  0.4504487E+03  0.7818608E-02  0.1027588E+00
         21   -1    0    0  501  502  0.00000000000E+00  0.00000000000E+00  0.52632133750E+03  0.52632133750E+03  0.00000000000E+00 0. -1.
         21   -1    0    0  502  503 -0.00000000000E+00 -0.00000000000E+00 -0.39650501400E+03  0.39650501400E+03  0.00000000000E+00 0.  1.
    9000007    1    1    2  501    0 -0.87844824273E+02  0.18758281189E+03  0.14173142926E+03  0.47222009964E+03  0.40000000000E+03 0. -1.
   -9000007    1    1    2    0  503  0.87844824273E+02 -0.18758281189E+03 -0.11915105751E+02  0.45060625186E+03  0.40000000000E+03 0.  1.
<mgrwt>
<rscale>  2 0.45044869E+03</rscale>
<asrwt>0</asrwt>
<pdfrwt beam="1">  1       21 0.80972513E-01 0.45044869E+03</pdfrwt>
<pdfrwt beam="2">  1       21 0.61000772E-01 0.45044869E+03</pdfrwt>
<totfact> 0.29116285E+03</totfact>
</mgrwt>
</event>
<event>
 4    1  0.4890517E-002  0.4810898E+03  0.7818608E-02  0.1018836E+00
         21   -1    0    0  501  502  0.00000000000E+00  0.00000000000E+00  0.25438577287E+03  0.25438577287E+03  0.00000000000E+00 0. -1.
         21   -1    0    0  502  503 -0.00000000000E+00 -0.00000000000E+00 -0.11496930087E+04  0.11496930087E+04  0.00000000000E+00 0. -1.
    9000007    1    1    2  501    0 -0.26634211424E+03 -0.22566693974E+02 -0.12698703415E+03  0.49756716565E+03  0.40000000000E+03 0. -1.
   -9000007    1    1    2    0  503  0.26634211424E+03  0.22566693974E+02 -0.76832020169E+03  0.90651161593E+03  0.40000000000E+03 0. -1.
<mgrwt>
<rscale>  2 0.48108978E+03</rscale>
<asrwt>0</asrwt>
<pdfrwt beam="1">  1       21 0.39136273E-01 0.48108978E+03</pdfrwt>
<pdfrwt beam="2">  1       21 0.17687584E+00 0.48108978E+03</pdfrwt>
<totfact> 0.99699457E+02</totfact>
</mgrwt>
</event>
<event>
 4    1  0.4890517E-002  0.5023712E+03  0.7818608E-02  0.1013162E+00
         21   -1    0    0  501  502  0.00000000000E+00  0.00000000000E+00  0.18822320140E+04  0.18822320140E+04  0.00000000000E+00 0.  1.
         21   -1    0    0  502  503 -0.00000000000E+00 -0.00000000000E+00 -0.37500469732E+03  0.37500469732E+03  0.00000000000E+00 0.  1.
    9000007    1    1    2  501    0  0.18802649728E+03  0.23879468426E+03  0.16582332108E+04  0.17326610304E+04  0.40000000000E+03 0.  1.
   -9000007    1    1    2    0  503 -0.18802649728E+03 -0.23879468426E+03 -0.15100589414E+03  0.52457568088E+03  0.40000000000E+03 0.  1.
<mgrwt>
<rscale>  2 0.50237124E+03</rscale>
<asrwt>0</asrwt>
<pdfrwt beam="1">  1       21 0.28957415E+00 0.50237124E+03</pdfrwt>
<pdfrwt beam="2">  1       21 0.57693031E-01 0.50237124E+03</pdfrwt>
<totfact> 0.82680252E+01</totfact>
</mgrwt>
</event>
<event>
 4    1  0.4890517E-002  0.4127285E+03  0.7818608E-02  0.1039459E+00
         21   -1    0    0  501  502  0.00000000000E+00  0.00000000000E+00  0.28559825070E+03  0.28559825070E+03  0.00000000000E+00 0.  1.
         21   -1    0    0  502  503 -0.00000000000E+00 -0.00000000000E+00 -0.63565008043E+03  0.63565008043E+03  0.00000000000E+00 0.  1.
    9000007    1    1    2  501    0 -0.36889813514E+02  0.94783707513E+02 -0.60636371952E+02  0.41715893752E+03  0.40000000000E+03 0. -1.
   -9000007    1    1    2    0  503  0.36889813514E+02 -0.94783707513E+02 -0.28941545778E+03  0.50408939361E+03  0.40000000000E+03 0. -1.
<mgrwt>
<rscale>  2 0.41272849E+03</rscale>
<asrwt>0</asrwt>
<pdfrwt beam="1">  1       21 0.43938193E-01 0.41272849E+03</pdfrwt>
<pdfrwt beam="2">  1       21 0.97792318E-01 0.41272849E+03</pdfrwt>
<totfact> 0.38129531E+03</totfact>
</mgrwt>
</event>
<event>
 4    1  0.4890517E-002  0.1347600E+04  0.7818608E-02  0.8992647E-01
         21   -1    0    0  503  502  0.00000000000E+00  0.00000000000E+00  0.18777673227E+04  0.18777673227E+04  0.00000000000E+00 0. -1.
         21   -1    0    0  501  503 -0.00000000000E+00 -0.00000000000E+00 -0.99585315967E+03  0.99585315967E+03  0.00000000000E+00 0.  1.
    9000007    1    1    2  501    0  0.73203436581E+03 -0.10583717771E+04  0.68501802873E+03  0.15117125490E+04  0.40000000000E+03 0. -1.
   -9000007    1    1    2    0  502 -0.73203436581E+03  0.10583717771E+04  0.19689613429E+03  0.13619079333E+04  0.40000000000E+03 0.  1.
<mgrwt>
<rscale>  2 0.13475998E+04</rscale>
<asrwt>0</asrwt>
<pdfrwt beam="1">  1       21 0.28888728E+00 0.13475998E+04</pdfrwt>
<pdfrwt beam="2">  1       21 0.15320818E+00 0.13475998E+04</pdfrwt>
<totfact> 0.56640521E+00</totfact>
</mgrwt>
</event>
<event>
 4    1  0.4890517E-002  0.4072309E+03  0.7818608E-02  0.1041304E+00
         21   -1    0    0  503  502  0.00000000000E+00  0.00000000000E+00  0.42023212453E+03  0.42023212453E+03  0.00000000000E+00 0.  1.
         21   -1    0    0  501  503 -0.00000000000E+00 -0.00000000000E+00 -0.39867743687E+03  0.39867743687E+03  0.00000000000E+00 0.  1.
    9000007    1    1    2  501    0  0.28032570501E+02 -0.71071377600E+02 -0.30469222485E+02  0.40836912131E+03  0.40000000000E+03 0.  1.
   -9000007    1    1    2    0  502 -0.28032570501E+02  0.71071377600E+02  0.52023910149E+02  0.41054044009E+03  0.40000000000E+03 0.  1.
<mgrwt>
<rscale>  2 0.40723085E+03</rscale>
<asrwt>0</asrwt>
<pdfrwt beam="1">  1       21 0.64651096E-01 0.40723085E+03</pdfrwt>
<pdfrwt beam="2">  1       21 0.61334990E-01 0.40723085E+03</pdfrwt>
<totfact> 0.48638895E+03</totfact>
</mgrwt>
</event>
<event>
 4    1  0.4890517E-002  0.4898835E+03  0.7818608E-02  0.1016454E+00
         21   -1    0    0  501  502  0.00000000000E+00  0.00000000000E+00  0.42954810281E+03  0.42954810281E+03  0.00000000000E+00 0. -1.
         21   -1    0    0  502  503 -0.00000000000E+00 -0.00000000000E+00 -0.72325098916E+03  0.72325098916E+03  0.00000000000E+00 0.  1.
    9000007    1    1    2  501    0  0.11899300995E+03  0.25656681769E+03  0.12808829967E+03  0.50635213130E+03  0.40000000000E+03 0. -1.
   -9000007    1    1    2    0  503 -0.11899300995E+03 -0.25656681769E+03 -0.42179118602E+03  0.64644696067E+03  0.40000000000E+03 0.  1.
<mgrwt>
<rscale>  2 0.48988353E+03</rscale>
<asrwt>0</asrwt>
<pdfrwt beam="1">  1       21 0.66084324E-01 0.48988353E+03</pdfrwt>
<pdfrwt beam="2">  1       21 0.11126938E+00 0.48988353E+03</pdfrwt>
<totfact> 0.11196553E+03</totfact>
</mgrwt>
</event>
<event>
 4    1  0.4890517E-002  0.5756704E+03  0.7818608E-02  0.9957209E-01
         21   -1    0    0  501  502  0.00000000000E+00  0.00000000000E+00  0.17688513420E+04  0.17688513420E+04  0.00000000000E+00 0. -1.
         21   -1    0    0  502  503 -0.00000000000E+00 -0.00000000000E+00 -0.23673669099E+03  0.23673669099E+03  0.00000000000E+00 0. -1.
    9000007    1    1    2  501    0  0.89454635194E+01 -0.41390383687E+03  0.30804341288E+03  0.65290669449E+03  0.40000000000E+03 0. -1.
   -9000007    1    1    2    0  503 -0.89454635194E+01  0.41390383687E+03  0.12240712381E+04  0.13526813385E+04  0.40000000000E+03 0. -1.
<mgrwt>
<rscale>  2 0.57567040E+03</rscale>
<asrwt>0</asrwt>
<pdfrwt beam="1">  1       21 0.27213097E+00 0.57567040E+03</pdfrwt>
<pdfrwt beam="2">  1       21 0.36421031E-01 0.57567040E+03</pdfrwt>
<totfact> 0.26851107E+02</totfact>
</mgrwt>
</event>
<event>
 4    1  0.4890517E-002  0.5773032E+03  0.7818608E-02  0.9953647E-01
         21   -1    0    0  503  502  0.00000000000E+00  0.00000000000E+00  0.57299825311E+03  0.57299825311E+03  0.00000000000E+00 0.  1.
         21   -1    0    0  501  503 -0.00000000000E+00 -0.00000000000E+00 -0.63180651586E+03  0.63180651586E+03  0.00000000000E+00 0.  1.
    9000007    1    1    2  501    0 -0.20308406717E+03 -0.36336732660E+03 -0.19915020015E+03  0.61068793553E+03  0.40000000000E+03 0.  1.
   -9000007    1    1    2    0  502  0.20308406717E+03  0.36336732660E+03  0.14034193740E+03  0.59411683344E+03  0.40000000000E+03 0.  1.
<mgrwt>
<rscale>  2 0.57730317E+03</rscale>
<asrwt>0</asrwt>
<pdfrwt beam="1">  1       21 0.88153577E-01 0.57730317E+03</pdfrwt>
<pdfrwt beam="2">  1       21 0.97201002E-01 0.57730317E+03</pdfrwt>
<totfact> 0.78125873E+02</totfact>
</mgrwt>
</event>
<event>
 4    1  0.4890517E-002  0.5239655E+03  0.7818608E-02  0.1007706E+00
         21   -1    0    0  501  502  0.00000000000E+00  0.00000000000E+00  0.10441463097E+04  0.10441463097E+04  0.00000000000E+00 0.  1.
         21   -1    0    0  502  503 -0.00000000000E+00 -0.00000000000E+00 -0.26415909349E+03  0.26415909349E+03  0.00000000000E+00 0. -1.
    9000007    1    1    2  501    0  0.33819764846E+03 -0.12733557012E+02  0.43457275174E+03  0.68072995340E+03  0.40000000000E+03 0.  1.
   -9000007    1    1    2    0  503 -0.33819764846E+03  0.12733557012E+02  0.34541446444E+03  0.62757544976E+03  0.40000000000E+03 0. -1.
<mgrwt>
<rscale>  2 0.52396545E+03</rscale>
<asrwt>0</asrwt>
<pdfrwt beam="1">  1       21 0.16063789E+00 0.52396545E+03</pdfrwt>
<pdfrwt beam="2">  1       21 0.40639861E-01 0.52396545E+03</pdfrwt>
<totfact> 0.11940187E+03</totfact>
</mgrwt>
</event>
<event>
 4    1  0.4890517E-002  0.4410453E+03  0.7818608E-02  0.1030427E+00
         21   -1    0    0  503  502  0.00000000000E+00  0.00000000000E+00  0.34626298224E+03  0.34626298224E+03  0.00000000000E+00 0. -1.
         21   -1    0    0  501  503 -0.00000000000E+00 -0.00000000000E+00 -0.57064642853E+03  0.57064642853E+03  0.00000000000E+00 0. -1.
    9000007    1    1    2  501    0  0.19149244846E+02 -0.18480872611E+03 -0.55020793616E+02  0.44446399917E+03  0.40000000000E+03 0. -1.
   -9000007    1    1    2    0  502 -0.19149244846E+02  0.18480872611E+03 -0.16936265268E+03  0.47244541161E+03  0.40000000000E+03 0. -1.
<mgrwt>
<rscale>  2 0.44104530E+03</rscale>
<asrwt>0</asrwt>
<pdfrwt beam="1">  1       21 0.53271228E-01 0.44104530E+03</pdfrwt>
<pdfrwt beam="2">  1       21 0.87791758E-01 0.44104530E+03</pdfrwt>
<totfact> 0.32463093E+03</totfact>
</mgrwt>
</event>
<event>
 4    1  0.4890517E-002  0.6183842E+03  0.7818608E-02  0.9867982E-01
         21   -1    0    0  501  502  0.00000000000E+00  0.00000000000E+00  0.15462714420E+04  0.15462714420E+04  0.00000000000E+00 0.  1.
         21   -1    0    0  502  503 -0.00000000000E+00 -0.00000000000E+00 -0.38034714743E+03  0.38034714743E+03  0.00000000000E+00 0. -1.
    9000007    1    1    2  501    0 -0.31052273398E+02 -0.47056856122E+03  0.11526960033E+04  0.13080929212E+04  0.40000000000E+03 0.  1.
   -9000007    1    1    2    0  503  0.31052273398E+02  0.47056856122E+03  0.13228291209E+02  0.61852566817E+03  0.40000000000E+03 0. -1.
<mgrwt>
<rscale>  2 0.61838420E+03</rscale>
<asrwt>0</asrwt>
<pdfrwt beam="1">  1       21 0.23788791E+00 0.61838420E+03</pdfrwt>
<pdfrwt beam="2">  1       21 0.58514947E-01 0.61838420E+03</pdfrwt>
<totfact> 0.15761167E+02</totfact>
</mgrwt>
</event>
<event>
 4    1  0.4890517E-002  0.4065409E+03  0.7818608E-02  0.1041538E+00
         21   -1    0    0  503  502  0.00000000000E+00  0.00000000000E+00  0.17213774059E+03  0.17213774059E+03  0.00000000000E+00 0.  1.
         21   -1    0    0  501  503 -0.00000000000E+00 -0.00000000000E+00 -0.96819353845E+03  0.96819353845E+03  0.00000000000E+00 0.  1.
    9000007    1    1    2  501    0  0.45729979063E+02 -0.56429065508E+02 -0.45004521722E+03  0.60647849753E+03  0.40000000000E+03 0.  1.
   -9000007    1    1    2    0  502 -0.45729979063E+02  0.56429065508E+02 -0.34601058063E+03  0.53385278151E+03  0.40000000000E+03 0.  1.
<mgrwt>
<rscale>  2 0.40654086E+03</rscale>
<asrwt>0</asrwt>
<pdfrwt beam="1">  1       21 0.26482730E-01 0.40654086E+03</pdfrwt>
<pdfrwt beam="2">  1       21 0.14895285E+00 0.40654086E+03</pdfrwt>
<totfact> 0.36366096E+03</totfact>
</mgrwt>
</event>
<event>
 4    1  0.4890517E-002  0.7408415E+03  0.7818608E-02  0.9649829E-01
         21   -1    0    0  501  502  0.00000000000E+00  0.00000000000E+00  0.23439475805E+04  0.23439475805E+04  0.00000000000E+00 0. -1.
         21   -1    0    0  502  503 -0.00000000000E+00 -0.00000000000E+00 -0.27744786798E+03  0.27744786798E+03  0.00000000000E+00 0. -1.
    9000007    1    1    2  501    0 -0.62187071268E+03 -0.46075886249E+02  0.51549771867E+03  0.90254311173E+03  0.40000000000E+03 0. -1.
   -9000007    1    1    2    0  503  0.62187071268E+03  0.46075886249E+02  0.15510019938E+04  0.17188523367E+04  0.40000000000E+03 0. -1.
<mgrwt>
<rscale>  2 0.74084153E+03</rscale>
<asrwt>0</asrwt>
<pdfrwt beam="1">  1       21 0.36060731E+00 0.74084153E+03</pdfrwt>
<pdfrwt beam="2">  1       21 0.42684289E-01 0.74084153E+03</pdfrwt>
<totfact> 0.51435155E+01</totfact>
</mgrwt>
</event>
<event>
 4    1  0.4890517E-002  0.4962597E+03  0.7818608E-02  0.1014760E+00
         21   -1    0    0  501  502  0.00000000000E+00  0.00000000000E+00  0.10936358886E+03  0.10936358886E+03  0.00000000000E+00 0.  1.
         21   -1    0    0  502  503 -0.00000000000E+00 -0.00000000000E+00 -0.33811603393E+04  0.33811603393E+04  0.00000000000E+00 0.  1.
    9000007    1    1    2  501    0  0.28914491058E+03  0.51661739041E+02 -0.62727608688E+03  0.79984311197E+03  0.40000000000E+03 0.  1.
   -9000007    1    1    2    0  503 -0.28914491058E+03 -0.51661739041E+02 -0.26445206636E+04  0.26906808162E+04  0.40000000000E+03 0.  1.
<mgrwt>
<rscale>  2 0.49625972E+03</rscale>
<asrwt>0</asrwt>
<pdfrwt beam="1">  1       21 0.16825166E-01 0.49625972E+03</pdfrwt>
<pdfrwt beam="2">  1       21 0.52017856E+00 0.49625972E+03</pdfrwt>
<totfact> 0.30788018E+01</totfact>
</mgrwt>
</event>
<event>
 4    1  0.4890517E-002  0.4559051E+03  0.7818608E-02  0.1025976E+00
         21   -1    0    0  501  502  0.00000000000E+00  0.00000000000E+00  0.13139154204E+04  0.13139154204E+04  0.00000000000E+00 0.  1.
         21   -1    0    0  502  503 -0.00000000000E+00 -0.00000000000E+00 -0.33369234423E+03  0.33369234423E+03  0.00000000000E+00 0. -1.
    9000007    1    1    2  501    0 -0.20376371670E+03 -0.79560023931E+02  0.10875471035E+04  0.11792404979E+04  0.40000000000E+03 0.  1.
   -9000007    1    1    2    0  503  0.20376371670E+03  0.79560023931E+02 -0.10732402734E+03  0.46836726668E+03  0.40000000000E+03 0. -1.
<mgrwt>
<rscale>  2 0.45590509E+03</rscale>
<asrwt>0</asrwt>
<pdfrwt beam="1">  1       21 0.20214083E+00 0.45590509E+03</pdfrwt>
<pdfrwt beam="2">  1       21 0.51337284E-01 0.45590509E+03</pdfrwt>
<totfact> 0.38288312E+02</totfact>
</mgrwt>
</event>
<event>
 4    1  0.4890517E-002  0.4444191E+03  0.7818608E-02  0.1029400E+00
         21   -1    0    0  501  502  0.00000000000E+00  0.00000000000E+00  0.10493765776E+04  0.10493765776E+04  0.00000000000E+00 0. -1.
         21   -1    0    0  502  503 -0.00000000000E+00 -0.00000000000E+00 -0.11822087793E+04  0.11822087793E+04  0.00000000000E+00 0. -1.
    9000007    1    1    2  501    0 -0.12732871832E+03  0.14593052910E+03  0.95670789232E+03  0.10548925600E+04  0.40000000000E+03 0. -1.
   -9000007    1    1    2    0  503  0.12732871832E+03 -0.14593052910E+03 -0.10895400940E+04  0.11766927969E+04  0.40000000000E+03 0. -1.
<mgrwt>
<rscale>  2 0.44441908E+03</rscale>
<asrwt>0</asrwt>
<pdfrwt beam="1">  1       21 0.16144255E+00 0.44441908E+03</pdfrwt>
<pdfrwt beam="2">  1       21 0.18187827E+00 0.44441908E+03</pdfrwt>
<totfact> 0.33760826E+01</totfact>
</mgrwt>
</event>
<event>
 4    1  0.4890517E-002  0.4295313E+03  0.7818608E-02  0.1034008E+00
         21   -1    0    0  501  502  0.00000000000E+00  0.00000000000E+00  0.82786249790E+02  0.82786249790E+02  0.00000000000E+00 0. -1.
         21   -1    0    0  502  503 -0.00000000000E+00 -0.00000000000E+00 -0.30101258373E+04  0.30101258373E+04  0.00000000000E+00 0. -1.
    9000007    1    1    2  501    0 -0.52548385540E+02  0.14743079444E+03 -0.67568504545E+03  0.80065439025E+03  0.40000000000E+03 0. -1.
   -9000007    1    1    2    0  503  0.52548385540E+02 -0.14743079444E+03 -0.22516545421E+04  0.22922576968E+04  0.40000000000E+03 0. -1.
<mgrwt>
<rscale>  2 0.42953134E+03</rscale>
<asrwt>0</asrwt>
<pdfrwt beam="1">  1       21 0.12736348E-01 0.42953134E+03</pdfrwt>
<pdfrwt beam="2">  1       21 0.46309622E+00 0.42953134E+03</pdfrwt>
<totfact> 0.13708131E+02</totfact>
</mgrwt>
</event>
<event>
 4    1  0.4890517E-002  0.5633429E+03  0.7818608E-02  0.9984519E-01
         21   -1    0    0  501  502  0.00000000000E+00  0.00000000000E+00  0.23180429272E+03  0.23180429272E+03  0.00000000000E+00 0. -1.
         21   -1    0    0  502  503 -0.00000000000E+00 -0.00000000000E+00 -0.13725230026E+04  0.13725230026E+04  0.00000000000E+00 0.  1.
    9000007    1    1    2  501    0  0.24193520231E+03  0.31436054512E+03 -0.53009672355E+03  0.77353586262E+03  0.40000000000E+03 0. -1.
   -9000007    1    1    2    0  503 -0.24193520231E+03 -0.31436054512E+03 -0.61062198629E+03  0.83079143266E+03  0.40000000000E+03 0.  1.
<mgrwt>
<rscale>  2 0.56334287E+03</rscale>
<asrwt>0</asrwt>
<pdfrwt beam="1">  1       21 0.35662199E-01 0.56334287E+03</pdfrwt>
<pdfrwt beam="2">  1       21 0.21115739E+00 0.56334287E+03</pdfrwt>
<totfact> 0.68122021E+02</totfact>
</mgrwt>
</event>
<event>
 4    1  0.4890517E-002  0.4017597E+03  0.7818608E-02  0.1043172E+00
         21   -1    0    0  501  502  0.00000000000E+00  0.00000000000E+00  0.26854187259E+03  0.26854187259E+03  0.00000000000E+00 0. -1.
         21   -1    0    0  502  503 -0.00000000000E+00 -0.00000000000E+00 -0.21927694736E+04  0.21927694736E+04  0.00000000000E+00 0. -1.
    9000007    1    1    2  501    0  0.30063238567E+02 -0.22517223032E+02  0.86393452658E+02  0.41094361208E+03  0.40000000000E+03 0. -1.
   -9000007    1    1    2    0  503 -0.30063238567E+02  0.22517223032E+02 -0.20106210536E+04  0.20503677341E+04  0.40000000000E+03 0. -1.
<mgrwt>
<rscale>  2 0.40175966E+03</rscale>
<asrwt>0</asrwt>
<pdfrwt beam="1">  1       21 0.41314135E-01 0.40175966E+03</pdfrwt>
<pdfrwt beam="2">  1       21 0.33734914E+00 0.40175966E+03</pdfrwt>
<totfact> 0.92395739E+01</totfact>
</mgrwt>
</event>
<event>
 4    1  0.4890517E-002  0.4778812E+03  0.7818608E-02  0.1019719E+00
         21   -1    0    0  503  502  0.00000000000E+00  0.00000000000E+00  0.92137194361E+03  0.92137194361E+03  0.00000000000E+00 0.  1.
         21   -1    0    0  501  503 -0.00000000000E+00 -0.00000000000E+00 -0.25118008589E+03  0.25118008589E+03  0.00000000000E+00 0.  1.
    9000007    1    1    2  501    0 -0.44499862291E+02  0.25766297774E+03  0.40250853454E+03  0.62480682472E+03  0.40000000000E+03 0. -1.
   -9000007    1    1    2    0  502  0.44499862291E+02 -0.25766297774E+03  0.26768332318E+03  0.54774520477E+03  0.40000000000E+03 0. -1.
<mgrwt>
<rscale>  2 0.47788121E+03</rscale>
<asrwt>0</asrwt>
<pdfrwt beam="1">  1       21 0.14174953E+00 0.47788121E+03</pdfrwt>
<pdfrwt beam="2">  1       21 0.38643091E-01 0.47788121E+03</pdfrwt>
<totfact> 0.18968144E+03</totfact>
</mgrwt>
</event>
<event>
 4    1  0.4890517E-002  0.4690392E+03  0.7818608E-02  0.1022192E+00
         21   -1    0    0  501  502  0.00000000000E+00  0.00000000000E+00  0.36442194366E+03  0.36442194366E+03  0.00000000000E+00 0.  1.
         21   -1    0    0  502  503 -0.00000000000E+00 -0.00000000000E+00 -0.87193304235E+03  0.87193304235E+03  0.00000000000E+00 0.  1.
    9000007    1    1    2  501    0  0.19836007706E+03 -0.14370459208E+03  0.89119745800E+02  0.47743068507E+03  0.40000000000E+03 0.  1.
   -9000007    1    1    2    0  503 -0.19836007706E+03  0.14370459208E+03 -0.59663084449E+03  0.75892430094E+03  0.40000000000E+03 0.  1.
<mgrwt>
<rscale>  2 0.46903916E+03</rscale>
<asrwt>0</asrwt>
<pdfrwt beam="1">  1       21 0.56064915E-01 0.46903916E+03</pdfrwt>
<pdfrwt beam="2">  1       21 0.13414354E+00 0.46903916E+03</pdfrwt>
<totfact> 0.10051554E+03</totfact>
</mgrwt>
</event>
<event>
 4    1  0.4890517E-002  0.4240684E+03  0.7818608E-02  0.1035750E+00
         21   -1    0    0  503  502  0.00000000000E+00  0.00000000000E+00  0.52743332385E+03  0.52743332385E+03  0.00000000000E+00 0.  1.
         21   -1    0    0  501  503 -0.00000000000E+00 -0.00000000000E+00 -0.36866596916E+03  0.36866596916E+03  0.00000000000E+00 0.  1.
    9000007    1    1    2  501    0 -0.14068950711E+03 -0.63592966117E+01 -0.43442702331E+02  0.42628775076E+03  0.40000000000E+03 0.  1.
   -9000007    1    1    2    0  502  0.14068950711E+03  0.63592966117E+01  0.20221005702E+03  0.46981154224E+03  0.40000000000E+03 0.  1.
<mgrwt>
<rscale>  2 0.42406836E+03</rscale>
<asrwt>0</asrwt>
<pdfrwt beam="1">  1       21 0.81143589E-01 0.42406836E+03</pdfrwt>
<pdfrwt beam="2">  1       21 0.56717841E-01 0.42406836E+03</pdfrwt>
<totfact> 0.34290241E+03</totfact>
</mgrwt>
</event>
<event>
 4    1  0.4890517E-002  0.5283540E+03  0.7818608E-02  0.1006632E+00
         21   -1    0    0  501  502  0.00000000000E+00  0.00000000000E+00  0.40897436592E+03  0.40897436592E+03  0.00000000000E+00 0.  1.
         21   -1    0    0  502  503 -0.00000000000E+00 -0.00000000000E+00 -0.71120900897E+03  0.71120900897E+03  0.00000000000E+00 0. -1.
    9000007    1    1    2  501    0  0.27825794739E+03 -0.20428025027E+03 -0.38744765014E+02  0.52977265195E+03  0.40000000000E+03 0.  1.
   -9000007    1    1    2    0  503 -0.27825794739E+03  0.20428025027E+03 -0.26348987804E+03  0.59041072294E+03  0.40000000000E+03 0. -1.
<mgrwt>
<rscale>  2 0.52835396E+03</rscale>
<asrwt>0</asrwt>
<pdfrwt beam="1">  1       21 0.62919133E-01 0.52835396E+03</pdfrwt>
<pdfrwt beam="2">  1       21 0.10941677E+00 0.52835396E+03</pdfrwt>
<totfact> 0.12846748E+03</totfact>
</mgrwt>
</event>
<event>
 4    1  0.4890517E-002  0.4371249E+03  0.7818608E-02  0.1031633E+00
         21   -1    0    0  501  502  0.00000000000E+00  0.00000000000E+00  0.55374652113E+03  0.55374652113E+03  0.00000000000E+00 0. -1.
         21   -1    0    0  502  503 -0.00000000000E+00 -0.00000000000E+00 -0.13360251116E+04  0.13360251116E+04  0.00000000000E+00 0. -1.
    9000007    1    1    2  501    0  0.92536694506E+02 -0.15005041129E+03  0.42262804422E+03  0.60802354356E+03  0.40000000000E+03 0. -1.
   -9000007    1    1    2    0  503 -0.92536694506E+02  0.15005041129E+03 -0.12049066347E+04  0.12817480892E+04  0.40000000000E+03 0. -1.
<mgrwt>
<rscale>  2 0.43712489E+03</rscale>
<asrwt>0</asrwt>
<pdfrwt beam="1">  1       21 0.85191775E-01 0.43712489E+03</pdfrwt>
<pdfrwt beam="2">  1       21 0.20554232E+00 0.43712489E+03</pdfrwt>
<totfact> 0.11862917E+02</totfact>
</mgrwt>
</event>
<event>
 4    1  0.4890517E-002  0.4542331E+03  0.7818608E-02  0.1026467E+00
         21   -1    0    0  503  502  0.00000000000E+00  0.00000000000E+00  0.15400027144E+03  0.15400027144E+03  0.00000000000E+00 0. -1.
         21   -1    0    0  501  503 -0.00000000000E+00 -0.00000000000E+00 -0.15084825375E+04  0.15084825375E+04  0.00000000000E+00 0. -1.
    9000007    1    1    2  501    0  0.21454403843E+03 -0.17279226710E+02 -0.95521727958E+03  0.10577181890E+04  0.40000000000E+03 0. -1.
   -9000007    1    1    2    0  502 -0.21454403843E+03  0.17279226710E+02 -0.39926498644E+03  0.60476461992E+03  0.40000000000E+03 0. -1.
<mgrwt>
<rscale>  2 0.45423311E+03</rscale>
<asrwt>0</asrwt>
<pdfrwt beam="1">  1       21 0.23692349E-01 0.45423311E+03</pdfrwt>
<pdfrwt beam="2">  1       21 0.23207424E+00 0.45423311E+03</pdfrwt>
<totfact> 0.11793861E+03</totfact>
</mgrwt>
</event>
<event>
 4    1  0.4890517E-002  0.4047826E+03  0.7818608E-02  0.1042136E+00
         21   -1    0    0  503  502  0.00000000000E+00  0.00000000000E+00  0.31401143134E+03  0.31401143134E+03  0.00000000000E+00 0. -1.
         21   -1    0    0  501  503 -0.00000000000E+00 -0.00000000000E+00 -0.62377037988E+03  0.62377037988E+03  0.00000000000E+00 0. -1.
    9000007    1    1    2  501    0  0.82186938696E+01  0.61492897982E+02  0.34708878881E+02  0.40626792847E+03  0.40000000000E+03 0. -1.
   -9000007    1    1    2    0  502 -0.82186938696E+01 -0.61492897982E+02 -0.34446782742E+03  0.53151388275E+03  0.40000000000E+03 0. -1.
<mgrwt>
<rscale>  2 0.40478256E+03</rscale>
<asrwt>0</asrwt>
<pdfrwt beam="1">  1       21 0.48309452E-01 0.40478256E+03</pdfrwt>
<pdfrwt beam="2">  1       21 0.95964672E-01 0.40478256E+03</pdfrwt>
<totfact> 0.32800507E+03</totfact>
</mgrwt>
</event>
<event>
 4    1  0.4890517E-002  0.4773168E+03  0.7818608E-02  0.1019875E+00
         21   -1    0    0  503  502  0.00000000000E+00  0.00000000000E+00  0.22572549778E+03  0.22572549778E+03  0.00000000000E+00 0. -1.
         21   -1    0    0  501  503 -0.00000000000E+00 -0.00000000000E+00 -0.21108541255E+04  0.21108541255E+04  0.00000000000E+00 0. -1.
    9000007    1    1    2  501    0  0.79714381176E+02  0.24794541034E+03 -0.17865181014E+04  0.18491831266E+04  0.40000000000E+03 0. -1.
   -9000007    1    1    2    0  502 -0.79714381176E+02 -0.24794541034E+03 -0.98610526325E+02  0.48739649668E+03  0.40000000000E+03 0. -1.
<mgrwt>
<rscale>  2 0.47731678E+03</rscale>
<asrwt>0</asrwt>
<pdfrwt beam="1">  1       21 0.34726998E-01 0.47731678E+03</pdfrwt>
<pdfrwt beam="2">  1       21 0.32474680E+00 0.47731678E+03</pdfrwt>
<totfact> 0.14923790E+02</totfact>
</mgrwt>
</event>
<event>
 4    1  0.4890517E-002  0.6407380E+03  0.7818608E-02  0.9824316E-01
         21   -1    0    0  503  502  0.00000000000E+00  0.00000000000E+00  0.11531462573E+04  0.11531462573E+04  0.00000000000E+00 0. -1.
         21   -1    0    0  501  503 -0.00000000000E+00 -0.00000000000E+00 -0.36473687822E+03  0.36473687822E+03  0.00000000000E+00 0. -1.
    9000007    1    1    2  501    0 -0.46803532337E+03 -0.17744903504E+03  0.27688963076E+03  0.69800651256E+03  0.40000000000E+03 0. -1.
   -9000007    1    1    2    0  502  0.46803532337E+03  0.17744903504E+03  0.51151974833E+03  0.81987662297E+03  0.40000000000E+03 0. -1.
<mgrwt>
<rscale>  2 0.64073803E+03</rscale>
<asrwt>0</asrwt>
<pdfrwt beam="1">  1       21 0.17740711E+00 0.64073803E+03</pdfrwt>
<pdfrwt beam="2">  1       21 0.56113367E-01 0.64073803E+03</pdfrwt>
<totfact> 0.43456007E+02</totfact>
</mgrwt>
</event>
<event>
 4    1  0.4890517E-002  0.4061192E+03  0.7818608E-02  0.1041681E+00
         21   -1    0    0  501  502  0.00000000000E+00  0.00000000000E+00  0.13493722144E+04  0.13493722144E+04  0.00000000000E+00 0. -1.
         21   -1    0    0  502  503 -0.00000000000E+00 -0.00000000000E+00 -0.25500248700E+03  0.25500248700E+03  0.00000000000E+00 0. -1.
    9000007    1    1    2  501    0 -0.28956837215E+02  0.63987009365E+02  0.11260251821E+04  0.11970236199E+04  0.40000000000E+03 0. -1.
   -9000007    1    1    2    0  503  0.28956837215E+02 -0.63987009365E+02 -0.31655454738E+02  0.40735108151E+03  0.40000000000E+03 0. -1.
<mgrwt>
<rscale>  2 0.40611924E+03</rscale>
<asrwt>0</asrwt>
<pdfrwt beam="1">  1       21 0.20759572E+00 0.40611924E+03</pdfrwt>
<pdfrwt beam="2">  1       21 0.39231153E-01 0.40611924E+03</pdfrwt>
<totfact> 0.63502086E+02</totfact>
</mgrwt>
</event>
<event>
 4    1  0.4890517E-002  0.5214245E+03  0.7818608E-02  0.1008333E+00
         21   -1    0    0  501  502  0.00000000000E+00  0.00000000000E+00  0.85433960450E+03  0.85433960450E+03  0.00000000000E+00 0.  1.
         21   -1    0    0  502  503 -0.00000000000E+00 -0.00000000000E+00 -0.37146371887E+03  0.37146371887E+03  0.00000000000E+00 0. -1.
    9000007    1    1    2  501    0 -0.72788736696E+02 -0.32647406957E+03  0.47344032932E+03  0.70429345001E+03  0.40000000000E+03 0.  1.
   -9000007    1    1    2    0  503  0.72788736696E+02  0.32647406957E+03  0.94355563075E+01  0.52150987336E+03  0.40000000000E+03 0. -1.
<mgrwt>
<rscale>  2 0.52142451E+03</rscale>
<asrwt>0</asrwt>
<pdfrwt beam="1">  1       21 0.13143686E+00 0.52142451E+03</pdfrwt>
<pdfrwt beam="2">  1       21 0.57148265E-01 0.52142451E+03</pdfrwt>
<totfact> 0.99691847E+02</totfact>
</mgrwt>
</event>
<event>
 4    1  0.4890517E-002  0.4761520E+03  0.7818608E-02  0.1020198E+00
         21   -1    0    0  503  502  0.00000000000E+00  0.00000000000E+00  0.10306473442E+04  0.10306473442E+04  0.00000000000E+00 0. -1.
         21   -1    0    0  501  503 -0.00000000000E+00 -0.00000000000E+00 -0.22136770853E+03  0.22136770853E+03  0.00000000000E+00 0. -1.
    9000007    1    1    2  501    0 -0.23485534586E+03 -0.10753454302E+03  0.45422331786E+03  0.65805739408E+03  0.40000000000E+03 0. -1.
   -9000007    1    1    2    0  502  0.23485534586E+03  0.10753454302E+03  0.35505631777E+03  0.59395765860E+03  0.40000000000E+03 0. -1.
<mgrwt>
<rscale>  2 0.47615198E+03</rscale>
<asrwt>0</asrwt>
<pdfrwt beam="1">  1       21 0.15856113E+00 0.47615198E+03</pdfrwt>
<pdfrwt beam="2">  1       21 0.34056571E-01 0.47615198E+03</pdfrwt>
<totfact> 0.18088998E+03</totfact>
</mgrwt>
</event>
<event>
 4    1  0.4890517E-002  0.4618168E+03  0.7818608E-02  0.1024256E+00
         21   -1    0    0  501  502  0.00000000000E+00  0.00000000000E+00  0.13659808379E+04  0.13659808379E+04  0.00000000000E+00 0. -1.
         21   -1    0    0  502  503 -0.00000000000E+00 -0.00000000000E+00 -0.15614177330E+03  0.15614177330E+03  0.00000000000E+00 0.  1.
    9000007    1    1    2  501    0 -0.22346543156E+03  0.57774921274E+02  0.59922769786E+03  0.75653722613E+03  0.40000000000E+03 0. -1.
   -9000007    1    1    2    0  503  0.22346543156E+03 -0.57774921274E+02  0.61061136670E+03  0.76558538503E+03  0.40000000000E+03 0. -1.
<mgrwt>
<rscale>  2 0.46181678E+03</rscale>
<asrwt>0</asrwt>
<pdfrwt beam="1">  1       21 0.21015089E+00 0.46181678E+03</pdfrwt>
<pdfrwt beam="2">  1       21 0.24021812E-01 0.46181678E+03</pdfrwt>
<totfact> 0.15801477E+03</totfact>
</mgrwt>
</event>
<event>
 4    1  0.4890517E-002  0.4192365E+03  0.7818608E-02  0.1037315E+00
         21   -1    0    0  503  502  0.00000000000E+00  0.00000000000E+00  0.24620930856E+03  0.24620930856E+03  0.00000000000E+00 0.  1.
         21   -1    0    0  501  503 -0.00000000000E+00 -0.00000000000E+00 -0.13631785882E+04  0.13631785882E+04  0.00000000000E+00 0.  1.
    9000007    1    1    2  501    0  0.56972654633E+01  0.12540647987E+03 -0.11138552743E+04  0.11901398305E+04  0.40000000000E+03 0.  1.
   -9000007    1    1    2    0  502 -0.56972654633E+01 -0.12540647987E+03 -0.31140053156E+01  0.41924806625E+03  0.40000000000E+03 0.  1.
<mgrwt>
<rscale>  2 0.41923650E+03</rscale>
<asrwt>0</asrwt>
<pdfrwt beam="1">  1       21 0.37878355E-01 0.41923650E+03</pdfrwt>
<pdfrwt beam="2">  1       21 0.20971979E+00 0.41923650E+03</pdfrwt>
<totfact> 0.65630418E+02</totfact>
</mgrwt>
</event>
<event>
 4    1  0.4890517E-002  0.4135339E+03  0.7818608E-02  0.1039192E+00
         21   -1    0    0  503  502  0.00000000000E+00  0.00000000000E+00  0.18318473818E+04  0.18318473818E+04  0.00000000000E+00 0. -1.
         21   -1    0    0  501  503 -0.00000000000E+00 -0.00000000000E+00 -0.10654440696E+03  0.10654440696E+03  0.00000000000E+00 0. -1.
    9000007    1    1    2  501    0  0.58288500183E+02 -0.87250918711E+02  0.52163497335E+03  0.66566757281E+03  0.40000000000E+03 0. -1.
   -9000007    1    1    2    0  502 -0.58288500183E+02  0.87250918711E+02  0.12036680015E+04  0.12727242159E+04  0.40000000000E+03 0. -1.
<mgrwt>
<rscale>  2 0.41353388E+03</rscale>
<asrwt>0</asrwt>
<pdfrwt beam="1">  1       21 0.28182265E+00 0.41353388E+03</pdfrwt>
<pdfrwt beam="2">  1       21 0.16391449E-01 0.41353388E+03</pdfrwt>
<totfact> 0.12042042E+03</totfact>
</mgrwt>
</event>
<event>
 4    1  0.4890517E-002  0.5698255E+03  0.7818608E-02  0.9970065E-01
         21   -1    0    0  501  502  0.00000000000E+00  0.00000000000E+00  0.13394948561E+04  0.13394948561E+04  0.00000000000E+00 0. -1.
         21   -1    0    0  502  503 -0.00000000000E+00 -0.00000000000E+00 -0.35594504579E+03  0.35594504579E+03  0.00000000000E+00 0.  1.
    9000007    1    1    2  501    0  0.18274898063E+03  0.36235885813E+03  0.97055292271E+03  0.11254661735E+04  0.40000000000E+03 0. -1.
   -9000007    1    1    2    0  503 -0.18274898063E+03 -0.36235885813E+03  0.12996887641E+02  0.56997372840E+03  0.40000000000E+03 0.  1.
<mgrwt>
<rscale>  2 0.56982553E+03</rscale>
<asrwt>0</asrwt>
<pdfrwt beam="1">  1       21 0.20607613E+00 0.56982553E+03</pdfrwt>
<pdfrwt beam="2">  1       21 0.54760777E-01 0.56982553E+03</pdfrwt>
<totfact> 0.29815811E+02</totfact>
</mgrwt>
</event>
<event>
 4    1  0.4890517E-002  0.4400867E+03  0.7818608E-02  0.1030720E+00
         21   -1    0    0  503  502  0.00000000000E+00  0.00000000000E+00  0.66102443502E+03  0.66102443502E+03  0.00000000000E+00 0.  1.
         21   -1    0    0  501  503 -0.00000000000E+00 -0.00000000000E+00 -0.31526738112E+03  0.31526738112E+03  0.00000000000E+00 0.  1.
    9000007    1    1    2  501    0 -0.16144470886E+03  0.87246403419E+02  0.43130366966E+02  0.44219515769E+03  0.40000000000E+03 0.  1.
   -9000007    1    1    2    0  502  0.16144470886E+03 -0.87246403419E+02  0.30262668693E+03  0.53409665845E+03  0.40000000000E+03 0.  1.
<mgrwt>
<rscale>  2 0.44008673E+03</rscale>
<asrwt>0</asrwt>
<pdfrwt beam="1">  1       21 0.10169607E+00 0.44008673E+03</pdfrwt>
<pdfrwt beam="2">  1       21 0.48502674E-01 0.44008673E+03</pdfrwt>
<totfact> 0.27891465E+03</totfact>
</mgrwt>
</event>
<event>
 4    1  0.4890517E-002  0.4309131E+03  0.7818608E-02  0.1033572E+00
         21   -1    0    0  503  502  0.00000000000E+00  0.00000000000E+00  0.21185600370E+03  0.21185600370E+03  0.00000000000E+00 0.  1.
         21   -1    0    0  501  503 -0.00000000000E+00 -0.00000000000E+00 -0.91248088767E+03  0.91248088767E+03  0.00000000000E+00 0.  1.
    9000007    1    1    2  501    0 -0.14258310415E+03 -0.73185494820E+02 -0.23863803566E+03  0.49257910056E+03  0.40000000000E+03 0.  1.
   -9000007    1    1    2    0  502  0.14258310415E+03  0.73185494820E+02 -0.46198684831E+03  0.63175779082E+03  0.40000000000E+03 0.  1.
<mgrwt>
<rscale>  2 0.43091305E+03</rscale>
<asrwt>0</asrwt>
<pdfrwt beam="1">  1       21 0.32593231E-01 0.43091305E+03</pdfrwt>
<pdfrwt beam="2">  1       21 0.14038168E+00 0.43091305E+03</pdfrwt>
<totfact> 0.27990295E+03</totfact>
</mgrwt>
</event>
<event>
 4    1  0.4890517E-002  0.4919659E+03  0.7818608E-02  0.1015897E+00
         21   -1    0    0  501  502  0.00000000000E+00  0.00000000000E+00  0.73405213891E+03  0.73405213891E+03  0.00000000000E+00 0. -1.
         21   -1    0    0  502  503 -0.00000000000E+00 -0.00000000000E+00 -0.59171343422E+03  0.59171343422E+03  0.00000000000E+00 0.  1.
    9000007    1    1    2  501    0 -0.42740697735E+02 -0.28320248813E+03 -0.36992108987E+03  0.61552581526E+03  0.40000000000E+03 0.  1.
   -9000007    1    1    2    0  503  0.42740697735E+02  0.28320248813E+03  0.51225979456E+03  0.71023975786E+03  0.40000000000E+03 0. -1.
<mgrwt>
<rscale>  2 0.49196587E+03</rscale>
<asrwt>0</asrwt>
<pdfrwt beam="1">  1       21 0.11293110E+00 0.49196587E+03</pdfrwt>
<pdfrwt beam="2">  1       21 0.91032835E-01 0.49196587E+03</pdfrwt>
<totfact> 0.51562122E+02</totfact>
</mgrwt>
</event>
<event>
 4    1  0.4890517E-002  0.5106631E+03  0.7818608E-02  0.1011033E+00
         21   -1    0    0  501  502  0.00000000000E+00  0.00000000000E+00  0.42016298385E+03  0.42016298385E+03  0.00000000000E+00 0.  1.
         21   -1    0    0  502  503 -0.00000000000E+00 -0.00000000000E+00 -0.66608374447E+03  0.66608374447E+03  0.00000000000E+00 0.  1.
    9000007    1    1    2  501    0  0.30612313811E+03  0.84056387098E+02 -0.26479840178E+03  0.57523477423E+03  0.40000000000E+03 0.  1.
   -9000007    1    1    2    0  503 -0.30612313811E+03 -0.84056387098E+02  0.18877641164E+02  0.51101195410E+03  0.40000000000E+03 0.  1.
<mgrwt>
<rscale>  2 0.51066315E+03</rscale>
<asrwt>0</asrwt>
<pdfrwt beam="1">  1       21 0.64640460E-01 0.51066315E+03</pdfrwt>
<pdfrwt beam="2">  1       21 0.10247442E+00 0.51066315E+03</pdfrwt>
<totfact> 0.14314903E+03</totfact>
</mgrwt>
</event>
<event>
 4    1  0.4890517E-002  0.6065247E+03  0.7818608E-02  0.9891961E-01
         21   -1    0    0  501  502  0.00000000000E+00  0.00000000000E+00  0.19280340554E+04  0.19280340554E+04  0.00000000000E+00 0. -1.
         21   -1    0    0  502  503 -0.00000000000E+00 -0.00000000000E+00 -0.33731509026E+03  0.33731509026E+03  0.00000000000E+00 0.  1.
    9000007    1    1    2  501    0  0.29279031508E+03  0.34949403602E+03  0.15418527029E+04  0.16568590788E+04  0.40000000000E+03 0. -1.
   -9000007    1    1    2    0  503 -0.29279031508E+03 -0.34949403602E+03  0.48866262261E+02  0.60849006681E+03  0.40000000000E+03 0.  1.
<mgrwt>
<rscale>  2 0.60652473E+03</rscale>
<asrwt>0</asrwt>
<pdfrwt beam="1">  1       21 0.29662062E+00 0.60652473E+03</pdfrwt>
<pdfrwt beam="2">  1       21 0.51894630E-01 0.60652473E+03</pdfrwt>
<totfact> 0.89338941E+01</totfact>
</mgrwt>
</event>
<event>
 4    1  0.4890517E-002  0.4564938E+03  0.7818608E-02  0.1025803E+00
         21   -1    0    0  501  502  0.00000000000E+00  0.00000000000E+00  0.19630205024E+03  0.19630205024E+03  0.00000000000E+00 0.  1.
         21   -1    0    0  502  503 -0.00000000000E+00 -0.00000000000E+00 -0.10617909546E+04  0.10617909546E+04  0.00000000000E+00 0. -1.
    9000007    1    1    2  501    0 -0.20342797822E+03  0.83687866406E+02 -0.44200169497E+03  0.63541490356E+03  0.40000000000E+03 0. -1.
   -9000007    1    1    2    0  503  0.20342797822E+03 -0.83687866406E+02 -0.42348720939E+03  0.62267810129E+03  0.40000000000E+03 0. -1.
<mgrwt>
<rscale>  2 0.45649381E+03</rscale>
<asrwt>0</asrwt>
<pdfrwt beam="1">  1       21 0.30200314E-01 0.45649381E+03</pdfrwt>
<pdfrwt beam="2">  1       21 0.16335246E+00 0.45649381E+03</pdfrwt>
<totfact> 0.21339881E+03</totfact>
</mgrwt>
</event>
<event>
 4    1  0.4890517E-002  0.6945677E+03  0.7818608E-02  0.9726568E-01
         21   -1    0    0  501  502  0.00000000000E+00  0.00000000000E+00  0.96145528385E+03  0.96145528385E+03  0.00000000000E+00 0. -1.
         21   -1    0    0  502  503 -0.00000000000E+00 -0.00000000000E+00 -0.17173630719E+04  0.17173630719E+04  0.00000000000E+00 0.  1.
    9000007    1    1    2  501    0  0.16467462633E+03  0.54342111293E+03  0.74892509340E+03  0.10214269597E+04  0.40000000000E+03 0. -1.
   -9000007    1    1    2    0  503 -0.16467462633E+03 -0.54342111293E+03 -0.15048328815E+04  0.16573913961E+04  0.40000000000E+03 0.  1.
<mgrwt>
<rscale>  2 0.69456766E+03</rscale>
<asrwt>0</asrwt>
<pdfrwt beam="1">  1       21 0.14791620E+00 0.69456766E+03</pdfrwt>
<pdfrwt beam="2">  1       21 0.26420970E+00 0.69456766E+03</pdfrwt>
<totfact> 0.10988480E+01</totfact>
</mgrwt>
</event>
<event>
 4    1  0.4890517E-002  0.5534976E+03  0.7818608E-02  0.1000688E+00
         21   -1    0    0  501  502  0.00000000000E+00  0.00000000000E+00  0.59762828436E+03  0.59762828436E+03  0.00000000000E+00 0. -1.
         21   -1    0    0  502  503 -0.00000000000E+00 -0.00000000000E+00 -0.71139279161E+03  0.71139279161E+03  0.00000000000E+00 0.  1.
    9000007    1    1    2  501    0  0.33602371466E+03 -0.18288688248E+03 -0.40284893914E+03  0.68457783806E+03  0.40000000000E+03 0.  1.
   -9000007    1    1    2    0  503 -0.33602371466E+03  0.18288688248E+03  0.28908443190E+03  0.62444323791E+03  0.40000000000E+03 0.  1.
<mgrwt>
<rscale>  2 0.55349756E+03</rscale>
<asrwt>0</asrwt>
<pdfrwt beam="1">  1       21 0.91942813E-01 0.55349756E+03</pdfrwt>
<pdfrwt beam="2">  1       21 0.10944504E+00 0.55349756E+03</pdfrwt>
<totfact> 0.53192604E+02</totfact>
</mgrwt>
</event>
<event>
 4    1  0.4890517E-002  0.4614120E+03  0.7818608E-02  0.1024372E+00
         21   -1    0    0  503  502  0.00000000000E+00  0.00000000000E+00  0.70111670997E+03  0.70111670997E+03  0.00000000000E+00 0. -1.
         21   -1    0    0  501  503 -0.00000000000E+00 -0.00000000000E+00 -0.37759052228E+03  0.37759052228E+03  0.00000000000E+00 0. -1.
    9000007    1    1    2  501    0 -0.13082567857E+03 -0.18917113493E+03 -0.76894379690E+02  0.46777539706E+03  0.40000000000E+03 0. -1.
   -9000007    1    1    2    0  502  0.13082567857E+03  0.18917113493E+03  0.40042056738E+03  0.61093183519E+03  0.40000000000E+03 0. -1.
<mgrwt>
<rscale>  2 0.46141205E+03</rscale>
<asrwt>0</asrwt>
<pdfrwt beam="1">  1       21 0.10786411E+00 0.46141205E+03</pdfrwt>
<pdfrwt beam="2">  1       21 0.58090850E-01 0.46141205E+03</pdfrwt>
<totfact> 0.16250479E+03</totfact>
</mgrwt>
</event>
<event>
 4    1  0.4890517E-002  0.4446207E+03  0.7818608E-02  0.1029338E+00
         21   -1    0    0  503  502  0.00000000000E+00  0.00000000000E+00  0.13236347947E+03  0.13236347947E+03  0.00000000000E+00 0. -1.
         21   -1    0    0  501  503 -0.00000000000E+00 -0.00000000000E+00 -0.19728158984E+04  0.19728158984E+04  0.00000000000E+00 0. -1.
    9000007    1    1    2  501    0  0.19408493291E+03  0.43175686015E+01 -0.14390469750E+04  0.15061685825E+04  0.40000000000E+03 0. -1.
   -9000007    1    1    2    0  502 -0.19408493291E+03 -0.43175686015E+01 -0.40140544395E+03  0.59901079541E+03  0.40000000000E+03 0. -1.
<mgrwt>
<rscale>  2 0.44462074E+03</rscale>
<asrwt>0</asrwt>
<pdfrwt beam="1">  1       21 0.20363615E-01 0.44462074E+03</pdfrwt>
<pdfrwt beam="2">  1       21 0.30351009E+00 0.44462074E+03</pdfrwt>
<totfact> 0.58247123E+02</totfact>
</mgrwt>
</event>
<event>
 4    1  0.4890517E-002  0.4237353E+03  0.7818608E-02  0.1035857E+00
         21   -1    0    0  501  502  0.00000000000E+00  0.00000000000E+00  0.38245033071E+03  0.38245033071E+03  0.00000000000E+00 0. -1.
         21   -1    0    0  502  503 -0.00000000000E+00 -0.00000000000E+00 -0.58070360384E+03  0.58070360384E+03  0.00000000000E+00 0. -1.
    9000007    1    1    2  501    0 -0.97214685225E+02  0.10050309872E+03 -0.30988903024E+03  0.52495978793E+03  0.40000000000E+03 0. -1.
   -9000007    1    1    2    0  503  0.97214685225E+02 -0.10050309872E+03  0.11163575711E+03  0.43819414663E+03  0.40000000000E+03 0. -1.
<mgrwt>
<rscale>  2 0.42373526E+03</rscale>
<asrwt>0</asrwt>
<pdfrwt beam="1">  1       21 0.58838512E-01 0.42373526E+03</pdfrwt>
<pdfrwt beam="2">  1       21 0.89339016E-01 0.42373526E+03</pdfrwt>
<totfact> 0.25286615E+03</totfact>
</mgrwt>
</event>
<event>
 4    1  0.4890517E-002  0.4669104E+03  0.7818608E-02  0.1022796E+00
         21   -1    0    0  503  502  0.00000000000E+00  0.00000000000E+00  0.84196107598E+02  0.84196107598E+02  0.00000000000E+00 0. -1.
         21   -1    0    0  501  503 -0.00000000000E+00 -0.00000000000E+00 -0.26802980766E+04  0.26802980766E+04  0.00000000000E+00 0. -1.
    9000007    1    1    2  501    0  0.18466027752E+03 -0.15461533371E+03 -0.15528008740E+04  0.16214795324E+04  0.40000000000E+03 0. -1.
   -9000007    1    1    2    0  502 -0.18466027752E+03  0.15461533371E+03 -0.10433010949E+04  0.11430146518E+04  0.40000000000E+03 0. -1.
<mgrwt>
<rscale>  2 0.46691040E+03</rscale>
<asrwt>0</asrwt>
<pdfrwt beam="1">  1       21 0.12953249E-01 0.46691040E+03</pdfrwt>
<pdfrwt beam="2">  1       21 0.41235350E+00 0.46691040E+03</pdfrwt>
<totfact> 0.28274368E+02</totfact>
</mgrwt>
</event>
<event>
 4    1  0.4890517E-002  0.4162762E+03  0.7818608E-02  0.1038285E+00
         21   -1    0    0  501  502  0.00000000000E+00  0.00000000000E+00  0.28429580742E+04  0.28429580742E+04  0.00000000000E+00 0.  1.
         21   -1    0    0  502  503 -0.00000000000E+00 -0.00000000000E+00 -0.26555439750E+03  0.26555439750E+03  0.00000000000E+00 0.  1.
    9000007    1    1    2  501    0  0.77351025739E+02  0.85455724834E+02  0.26529724581E+04  0.26854326887E+04  0.40000000000E+03 0.  1.
   -9000007    1    1    2    0  503 -0.77351025739E+02 -0.85455724834E+02 -0.75568781367E+02  0.42307978303E+03  0.40000000000E+03 0.  1.
<mgrwt>
<rscale>  2 0.41627618E+03</rscale>
<asrwt>0</asrwt>
<pdfrwt beam="1">  1       21 0.43737814E+00 0.41627618E+03</pdfrwt>
<pdfrwt beam="2">  1       21 0.40854525E-01 0.41627618E+03</pdfrwt>
<totfact> 0.21743008E+01</totfact>
</mgrwt>
</event>
<event>
 4    1  0.4890517E-002  0.4429011E+03  0.7818608E-02  0.1029860E+00
         21   -1    0    0  503  502  0.00000000000E+00  0.00000000000E+00  0.13001050083E+03  0.13001050083E+03  0.00000000000E+00 0. -1.
         21   -1    0    0  501  503 -0.00000000000E+00 -0.00000000000E+00 -0.15528501478E+04  0.15528501478E+04  0.00000000000E+00 0.  1.
    9000007    1    1    2  501    0  0.27310024771E+02 -0.18819025871E+03 -0.85311910134E+03  0.96123546127E+03  0.40000000000E+03 0. -1.
   -9000007    1    1    2    0  502 -0.27310024771E+02  0.18819025871E+03 -0.56972054560E+03  0.72162518734E+03  0.40000000000E+03 0. -1.
<mgrwt>
<rscale>  2 0.44290113E+03</rscale>
<asrwt>0</asrwt>
<pdfrwt beam="1">  1       21 0.20001616E-01 0.44290113E+03</pdfrwt>
<pdfrwt beam="2">  1       21 0.23890002E+00 0.44290113E+03</pdfrwt>
<totfact> 0.14876287E+03</totfact>
</mgrwt>
</event>
<event>
 4    1  0.4890517E-002  0.4190377E+03  0.7818608E-02  0.1037380E+00
         21   -1    0    0  501  502  0.00000000000E+00  0.00000000000E+00  0.24510189811E+03  0.24510189811E+03  0.00000000000E+00 0.  1.
         21   -1    0    0  502  503 -0.00000000000E+00 -0.00000000000E+00 -0.84754531229E+03  0.84754531229E+03  0.00000000000E+00 0.  1.
    9000007    1    1    2  501    0  0.91758662262E+02  0.84693408426E+02 -0.86322949079E+02  0.42783674114E+03  0.40000000000E+03 0.  1.
   -9000007    1    1    2    0  503 -0.91758662262E+02 -0.84693408426E+02 -0.51612046510E+03  0.66481046925E+03  0.40000000000E+03 0.  1.
<mgrwt>
<rscale>  2 0.41903774E+03</rscale>
<asrwt>0</asrwt>
<pdfrwt beam="1">  1       21 0.37707984E-01 0.41903774E+03</pdfrwt>
<pdfrwt beam="2">  1       21 0.13039159E+00 0.41903774E+03</pdfrwt>
<totfact> 0.25416024E+03</totfact>
</mgrwt>
</event>
<event>
 4    1  0.4890517E-002  0.4471712E+03  0.7818608E-02  0.1028569E+00
         21   -1    0    0  501  502  0.00000000000E+00  0.00000000000E+00  0.76744308822E+03  0.76744308822E+03  0.00000000000E+00 0. -1.
         21   -1    0    0  502  503 -0.00000000000E+00 -0.00000000000E+00 -0.80739349802E+03  0.80739349802E+03  0.00000000000E+00 0. -1.
    9000007    1    1    2  501    0  0.16151253487E+03  0.11779552969E+03  0.62805003947E+03  0.77097920712E+03  0.40000000000E+03 0. -1.
   -9000007    1    1    2    0  503 -0.16151253487E+03 -0.11779552969E+03 -0.66800044927E+03  0.80385737912E+03  0.40000000000E+03 0. -1.
<mgrwt>
<rscale>  2 0.44717120E+03</rscale>
<asrwt>0</asrwt>
<pdfrwt beam="1">  1       21 0.11806817E+00 0.44717120E+03</pdfrwt>
<pdfrwt beam="2">  1       21 0.12421438E+00 0.44717120E+03</pdfrwt>
<totfact> 0.21865347E+02</totfact>
</mgrwt>
</event>
<event>
 4    1  0.4890517E-002  0.5098816E+03  0.7818608E-02  0.1011231E+00
         21   -1    0    0  501  502  0.00000000000E+00  0.00000000000E+00  0.16918854758E+04  0.16918854758E+04  0.00000000000E+00 0. -1.
         21   -1    0    0  502  503 -0.00000000000E+00 -0.00000000000E+00 -0.15975745531E+03  0.15975745531E+03  0.00000000000E+00 0.  1.
    9000007    1    1    2  501    0  0.23674324312E+03 -0.20959928882E+03  0.58522812627E+03  0.77619017310E+03  0.40000000000E+03 0.  1.
   -9000007    1    1    2    0  503 -0.23674324312E+03  0.20959928882E+03  0.94689989424E+03  0.10754527580E+04  0.40000000000E+03 0. -1.
<mgrwt>
<rscale>  2 0.50988158E+03</rscale>
<asrwt>0</asrwt>
<pdfrwt beam="1">  1       21 0.26029006E+00 0.50988158E+03</pdfrwt>
<pdfrwt beam="2">  1       21 0.24578071E-01 0.50988158E+03</pdfrwt>
<totfact> 0.71583435E+02</totfact>
</mgrwt>
</event>
<event>
 4    1  0.4890517E-002  0.4585058E+03  0.7818608E-02  0.1025215E+00
         21   -1    0    0  501  502  0.00000000000E+00  0.00000000000E+00  0.25776955876E+03  0.25776955876E+03  0.00000000000E+00 0.  1.
         21   -1    0    0  502  503 -0.00000000000E+00 -0.00000000000E+00 -0.81778621037E+03  0.81778621037E+03  0.00000000000E+00 0.  1.
    9000007    1    1    2  501    0  0.12903168806E+03  0.18324408045E+03 -0.30804178703E+03  0.55237425003E+03  0.40000000000E+03 0.  1.
   -9000007    1    1    2    0  503 -0.12903168806E+03 -0.18324408045E+03 -0.25197486458E+03  0.52318151910E+03  0.40000000000E+03 0.  1.
<mgrwt>
<rscale>  2 0.45850580E+03</rscale>
<asrwt>0</asrwt>
<pdfrwt beam="1">  1       21 0.39656855E-01 0.45850580E+03</pdfrwt>
<pdfrwt beam="2">  1       21 0.12581326E+00 0.45850580E+03</pdfrwt>
<totfact> 0.24761916E+03</totfact>
</mgrwt>
</event>
<event>
 4    1  0.4890517E-002  0.4148673E+03  0.7818608E-02  0.1038750E+00
         21   -1    0    0  501  502  0.00000000000E+00  0.00000000000E+00  0.55286210676E+03  0.55286210676E+03  0.00000000000E+00 0. -1.
         21   -1    0    0  502  503 -0.00000000000E+00 -0.00000000000E+00 -0.35896646880E+03  0.35896646880E+03  0.00000000000E+00 0.  1.
    9000007    1    1    2  501    0 -0.79565752656E+02  0.76053867917E+02 -0.69159660799E+02  0.42059238997E+03  0.40000000000E+03 0. -1.
   -9000007    1    1    2    0  503  0.79565752656E+02 -0.76053867917E+02  0.26305529876E+03  0.49123618558E+03  0.40000000000E+03 0. -1.
<mgrwt>
<rscale>  2 0.41486733E+03</rscale>
<asrwt>0</asrwt>
<pdfrwt beam="1">  1       21 0.85055709E-01 0.41486733E+03</pdfrwt>
<pdfrwt beam="2">  1       21 0.55225610E-01 0.41486733E+03</pdfrwt>
<totfact> 0.32670355E+03</totfact>
</mgrwt>
</event>
<event>
 4    1  0.4890517E-002  0.4488206E+03  0.7818608E-02  0.1028074E+00
         21   -1    0    0  501  502  0.00000000000E+00  0.00000000000E+00  0.14594297408E+04  0.14594297408E+04  0.00000000000E+00 0.  1.
         21   -1    0    0  502  503 -0.00000000000E+00 -0.00000000000E+00 -0.13835815210E+03  0.13835815210E+03  0.00000000000E+00 0. -1.
    9000007    1    1    2  501    0 -0.60321873235E+02 -0.19442532066E+03  0.62142032921E+03  0.76655277656E+03  0.40000000000E+03 0. -1.
   -9000007    1    1    2    0  503  0.60321873235E+02  0.19442532066E+03  0.69965125946E+03  0.83123511630E+03  0.40000000000E+03 0.  1.
<mgrwt>
<rscale>  2 0.44882060E+03</rscale>
<asrwt>0</asrwt>
<pdfrwt beam="1">  1       21 0.22452764E+00 0.44882060E+03</pdfrwt>
<pdfrwt beam="2">  1       21 0.21285871E-01 0.44882060E+03</pdfrwt>
<totfact> 0.16214543E+03</totfact>
</mgrwt>
</event>
<event>
 4    1  0.4890517E-002  0.4258613E+03  0.7818608E-02  0.1035175E+00
         21   -1    0    0  501  502  0.00000000000E+00  0.00000000000E+00  0.14212441049E+03  0.14212441049E+03  0.00000000000E+00 0.  1.
         21   -1    0    0  502  503 -0.00000000000E+00 -0.00000000000E+00 -0.12796033262E+04  0.12796033262E+04  0.00000000000E+00 0.  1.
    9000007    1    1    2  501    0 -0.75624283180E+02 -0.12505525196E+03 -0.60619954400E+03  0.74083448583E+03  0.40000000000E+03 0.  1.
   -9000007    1    1    2    0  503  0.75624283180E+02  0.12505525196E+03 -0.53127937170E+03  0.68089325084E+03  0.40000000000E+03 0.  1.
<mgrwt>
<rscale>  2 0.42586130E+03</rscale>
<asrwt>0</asrwt>
<pdfrwt beam="1">  1       21 0.21865293E-01 0.42586130E+03</pdfrwt>
<pdfrwt beam="2">  1       21 0.19686206E+00 0.42586130E+03</pdfrwt>
<totfact> 0.23557675E+03</totfact>
</mgrwt>
</event>
<event>
 4    1  0.4890517E-002  0.5422348E+03  0.7818608E-02  0.1003307E+00
         21   -1    0    0  501  502  0.00000000000E+00  0.00000000000E+00  0.60106819429E+03  0.60106819429E+03  0.00000000000E+00 0.  1.
         21   -1    0    0  502  503 -0.00000000000E+00 -0.00000000000E+00 -0.65478578223E+03  0.65478578223E+03  0.00000000000E+00 0. -1.
    9000007    1    1    2  501    0 -0.59459081563E+02  0.36122460861E+03  0.28894934665E+03  0.61441868882E+03  0.40000000000E+03 0.  1.
   -9000007    1    1    2    0  503  0.59459081563E+02 -0.36122460861E+03 -0.34266693458E+03  0.64143528770E+03  0.40000000000E+03 0.  1.
<mgrwt>
<rscale>  2 0.54223482E+03</rscale>
<asrwt>0</asrwt>
<pdfrwt beam="1">  1       21 0.92472030E-01 0.54223482E+03</pdfrwt>
<pdfrwt beam="2">  1       21 0.10073627E+00 0.54223482E+03</pdfrwt>
<totfact> 0.64672028E+02</totfact>
</mgrwt>
</event>
<event>
 4    1  0.4890517E-002  0.4414157E+03  0.7818608E-02  0.1030313E+00
         21   -1    0    0  503  502  0.00000000000E+00  0.00000000000E+00  0.17697893170E+04  0.17697893170E+04  0.00000000000E+00 0.  1.
         21   -1    0    0  501  503 -0.00000000000E+00 -0.00000000000E+00 -0.11052202405E+03  0.11052202405E+03  0.00000000000E+00 0.  1.
    9000007    1    1    2  501    0 -0.17241387496E+03  0.71563197277E+02  0.77130629536E+03  0.88868511675E+03  0.40000000000E+03 0.  1.
   -9000007    1    1    2    0  502  0.17241387496E+03 -0.71563197277E+02  0.88796099759E+03  0.99162622430E+03  0.40000000000E+03 0.  1.
<mgrwt>
<rscale>  2 0.44141572E+03</rscale>
<asrwt>0</asrwt>
<pdfrwt beam="1">  1       21 0.27227526E+00 0.44141572E+03</pdfrwt>
<pdfrwt beam="2">  1       21 0.17003390E-01 0.44141572E+03</pdfrwt>
<totfact> 0.12645998E+03</totfact>
</mgrwt>
</event>
<event>
 4    1  0.4890517E-002  0.4306945E+03  0.7818608E-02  0.1033641E+00
         21   -1    0    0  501  502  0.00000000000E+00  0.00000000000E+00  0.14326438396E+03  0.14326438396E+03  0.00000000000E+00 0. -1.
         21   -1    0    0  502  503 -0.00000000000E+00 -0.00000000000E+00 -0.14501952019E+04  0.14501952019E+04  0.00000000000E+00 0. -1.
    9000007    1    1    2  501    0 -0.15929480066E+03  0.11088000680E+02 -0.91427638571E+03  0.10106429076E+04  0.40000000000E+03 0. -1.
   -9000007    1    1    2    0  503  0.15929480066E+03 -0.11088000680E+02 -0.39265443222E+03  0.58281667823E+03  0.40000000000E+03 0. -1.
<mgrwt>
<rscale>  2 0.43069453E+03</rscale>
<asrwt>0</asrwt>
<pdfrwt beam="1">  1       21 0.22040674E-01 0.43069453E+03</pdfrwt>
<pdfrwt beam="2">  1       21 0.22310696E+00 0.43069453E+03</pdfrwt>
<totfact> 0.15615811E+03</totfact>
</mgrwt>
</event>
<event>
 4    1  0.4890517E-002  0.4048818E+03  0.7818608E-02  0.1042102E+00
         21   -1    0    0  503  502  0.00000000000E+00  0.00000000000E+00  0.14681179014E+03  0.14681179014E+03  0.00000000000E+00 0. -1.
         21   -1    0    0  501  503 -0.00000000000E+00 -0.00000000000E+00 -0.11302457688E+04  0.11302457688E+04  0.00000000000E+00 0. -1.
    9000007    1    1    2  501    0 -0.44866028029E+02 -0.43775698689E+02 -0.42154290355E+03  0.58448925721E+03  0.40000000000E+03 0. -1.
   -9000007    1    1    2    0  502  0.44866028029E+02  0.43775698689E+02 -0.56189107509E+03  0.69256830171E+03  0.40000000000E+03 0. -1.
<mgrwt>
<rscale>  2 0.40488180E+03</rscale>
<asrwt>0</asrwt>
<pdfrwt beam="1">  1       21 0.22586430E-01 0.40488180E+03</pdfrwt>
<pdfrwt beam="2">  1       21 0.17388396E+00 0.40488180E+03</pdfrwt>
<totfact> 0.32216324E+03</totfact>
</mgrwt>
</event>
<event>
 4    1  0.4890517E-002  0.4070829E+03  0.7818608E-02  0.1041354E+00
         21   -1    0    0  503  502  0.00000000000E+00  0.00000000000E+00  0.15158503131E+04  0.15158503131E+04  0.00000000000E+00 0.  1.
         21   -1    0    0  501  503 -0.00000000000E+00 -0.00000000000E+00 -0.11256867226E+03  0.11256867226E+03  0.00000000000E+00 0.  1.
    9000007    1    1    2  501    0  0.39759476967E+01  0.75502610386E+02  0.56337421611E+03  0.69505896132E+03  0.40000000000E+03 0.  1.
   -9000007    1    1    2    0  502 -0.39759476967E+01 -0.75502610386E+02  0.83990742468E+03  0.93336002398E+03  0.40000000000E+03 0.  1.
<mgrwt>
<rscale>  2 0.40708286E+03</rscale>
<asrwt>0</asrwt>
<pdfrwt beam="1">  1       21 0.23320772E+00 0.40708286E+03</pdfrwt>
<pdfrwt beam="2">  1       21 0.17318258E-01 0.40708286E+03</pdfrwt>
<totfact> 0.21556978E+03</totfact>
</mgrwt>
</event>
<event>
 4    1  0.4890517E-002  0.4189670E+03  0.7818608E-02  0.1037403E+00
         21   -1    0    0  503  502  0.00000000000E+00  0.00000000000E+00  0.41430331980E+03  0.41430331980E+03  0.00000000000E+00 0.  1.
         21   -1    0    0  501  503 -0.00000000000E+00 -0.00000000000E+00 -0.48627718900E+03  0.48627718900E+03  0.00000000000E+00 0.  1.
    9000007    1    1    2  501    0  0.15475117398E+02  0.12366831257E+03 -0.19754071577E+03  0.46320153840E+03  0.40000000000E+03 0.  1.
   -9000007    1    1    2    0  502 -0.15475117398E+02 -0.12366831257E+03  0.12556684657E+03  0.43737897040E+03  0.40000000000E+03 0.  1.
<mgrwt>
<rscale>  2 0.41896698E+03</rscale>
<asrwt>0</asrwt>
<pdfrwt beam="1">  1       21 0.63738972E-01 0.41896698E+03</pdfrwt>
<pdfrwt beam="2">  1       21 0.74811875E-01 0.41896698E+03</pdfrwt>
<totfact> 0.32061665E+03</totfact>
</mgrwt>
</event>
<event>
 4    1  0.4890517E-002  0.4658395E+03  0.7818608E-02  0.1023101E+00
         21   -1    0    0  503  502  0.00000000000E+00  0.00000000000E+00  0.17190181750E+04  0.17190181750E+04  0.00000000000E+00 0.  1.
         21   -1    0    0  501  503 -0.00000000000E+00 -0.00000000000E+00 -0.13735128070E+03  0.13735128070E+03  0.00000000000E+00 0.  1.
    9000007    1    1    2  501    0 -0.16428996214E+02 -0.23819437543E+03  0.52681929960E+03  0.70323896851E+03  0.40000000000E+03 0.  1.
   -9000007    1    1    2    0  502  0.16428996214E+02  0.23819437543E+03  0.10548475947E+04  0.11531304871E+04  0.40000000000E+03 0.  1.
<mgrwt>
<rscale>  2 0.46583954E+03</rscale>
<asrwt>0</asrwt>
<pdfrwt beam="1">  1       21 0.26446432E+00 0.46583954E+03</pdfrwt>
<pdfrwt beam="2">  1       21 0.21130967E-01 0.46583954E+03</pdfrwt>
<totfact> 0.92294358E+02</totfact>
</mgrwt>
</event>
<event>
 4    1  0.4890517E-002  0.1066661E+04  0.7818608E-02  0.9238310E-01
         21   -1    0    0  503  502  0.00000000000E+00  0.00000000000E+00  0.81515098039E+03  0.81515098039E+03  0.00000000000E+00 0.  1.
         21   -1    0    0  501  503 -0.00000000000E+00 -0.00000000000E+00 -0.14654911225E+04  0.14654911225E+04  0.00000000000E+00 0. -1.
    9000007    1    1    2  501    0  0.26395646027E+03  0.95293904386E+03 -0.76451630065E+02  0.10693973471E+04  0.40000000000E+03 0.  1.
   -9000007    1    1    2    0  502 -0.26395646027E+03 -0.95293904386E+03 -0.57388851209E+03  0.12112447558E+04  0.40000000000E+03 0. -1.
<mgrwt>
<rscale>  2 0.10666611E+04</rscale>
<asrwt>0</asrwt>
<pdfrwt beam="1">  1       21 0.12540784E+00 0.10666611E+04</pdfrwt>
<pdfrwt beam="2">  1       21 0.22546018E+00 0.10666611E+04</pdfrwt>
<totfact> 0.26600417E+01</totfact>
</mgrwt>
</event>
<event>
 4    1  0.4890517E-002  0.4623481E+03  0.7818608E-02  0.1024102E+00
         21   -1    0    0  501  502  0.00000000000E+00  0.00000000000E+00  0.63576808355E+03  0.63576808355E+03  0.00000000000E+00 0. -1.
         21   -1    0    0  502  503 -0.00000000000E+00 -0.00000000000E+00 -0.37105959431E+03  0.37105959431E+03  0.00000000000E+00 0. -1.
    9000007    1    1    2  501    0  0.22844370068E+03 -0.39739782512E+02  0.28658219620E+03  0.54396243425E+03  0.40000000000E+03 0. -1.
   -9000007    1    1    2    0  503 -0.22844370068E+03  0.39739782512E+02 -0.21873706951E+02  0.46286524362E+03  0.40000000000E+03 0. -1.
<mgrwt>
<rscale>  2 0.46234811E+03</rscale>
<asrwt>0</asrwt>
<pdfrwt beam="1">  1       21 0.97810474E-01 0.46234811E+03</pdfrwt>
<pdfrwt beam="2">  1       21 0.57086092E-01 0.46234811E+03</pdfrwt>
<totfact> 0.21442776E+03</totfact>
</mgrwt>
</event>
<event>
 4    1  0.4890517E-002  0.4595108E+03  0.7818608E-02  0.1024923E+00
         21   -1    0    0  501  502  0.00000000000E+00  0.00000000000E+00  0.97670094566E+03  0.97670094566E+03  0.00000000000E+00 0. -1.
         21   -1    0    0  502  503 -0.00000000000E+00 -0.00000000000E+00 -0.21849641233E+03  0.21849641233E+03  0.00000000000E+00 0. -1.
    9000007    1    1    2  501    0 -0.15935395376E+03  0.16048831193E+03  0.44053861029E+03  0.63657242165E+03  0.40000000000E+03 0. -1.
   -9000007    1    1    2    0  503  0.15935395376E+03 -0.16048831193E+03  0.31766592304E+03  0.55862493634E+03  0.40000000000E+03 0. -1.
<mgrwt>
<rscale>  2 0.45951081E+03</rscale>
<asrwt>0</asrwt>
<pdfrwt beam="1">  1       21 0.15026168E+00 0.45951081E+03</pdfrwt>
<pdfrwt beam="2">  1       21 0.33614833E-01 0.45951081E+03</pdfrwt>
<totfact> 0.21667932E+03</totfact>
</mgrwt>
</event>
<event>
 4    1  0.4890517E-002  0.4440787E+03  0.7818608E-02  0.1029503E+00
         21   -1    0    0  503  502  0.00000000000E+00  0.00000000000E+00  0.56644452387E+03  0.56644452387E+03  0.00000000000E+00 0. -1.
         21   -1    0    0  501  503 -0.00000000000E+00 -0.00000000000E+00 -0.35677642756E+03  0.35677642756E+03  0.00000000000E+00 0. -1.
    9000007    1    1    2  501    0 -0.18999809775E+03 -0.33266328274E+02  0.33043020766E+02  0.44530637427E+03  0.40000000000E+03 0. -1.
   -9000007    1    1    2    0  502  0.18999809775E+03  0.33266328274E+02  0.17662507555E+03  0.47791457716E+03  0.40000000000E+03 0. -1.
<mgrwt>
<rscale>  2 0.44407874E+03</rscale>
<asrwt>0</asrwt>
<pdfrwt beam="1">  1       21 0.87145311E-01 0.44407874E+03</pdfrwt>
<pdfrwt beam="2">  1       21 0.54888681E-01 0.44407874E+03</pdfrwt>
<totfact> 0.30939585E+03</totfact>
</mgrwt>
</event>
<event>
 4    1  0.4890517E-002  0.4511626E+03  0.7818608E-02  0.1027376E+00
         21   -1    0    0  501  502  0.00000000000E+00  0.00000000000E+00  0.46489268684E+03  0.46489268684E+03  0.00000000000E+00 0. -1.
         21   -1    0    0  502  503 -0.00000000000E+00 -0.00000000000E+00 -0.13566554562E+04  0.13566554562E+04  0.00000000000E+00 0. -1.
    9000007    1    1    2  501    0 -0.10363466919E+03 -0.18112858222E+03  0.30365113846E+03  0.54383060032E+03  0.40000000000E+03 0. -1.
   -9000007    1    1    2    0  503  0.10363466919E+03  0.18112858222E+03 -0.11954139078E+04  0.12777175427E+04  0.40000000000E+03 0. -1.
<mgrwt>
<rscale>  2 0.45116262E+03</rscale>
<asrwt>0</asrwt>
<pdfrwt beam="1">  1       21 0.71521953E-01 0.45116262E+03</pdfrwt>
<pdfrwt beam="2">  1       21 0.20871622E+00 0.45116262E+03</pdfrwt>
<totfact> 0.16770879E+02</totfact>
</mgrwt>
</event>
<event>
 4    1  0.4890517E-002  0.4903687E+03  0.7818608E-02  0.1016324E+00
         21   -1    0    0  503  502  0.00000000000E+00  0.00000000000E+00  0.42227105704E+03  0.42227105704E+03  0.00000000000E+00 0. -1.
         21   -1    0    0  501  503 -0.00000000000E+00 -0.00000000000E+00 -0.57361189363E+03  0.57361189363E+03  0.00000000000E+00 0.  1.
    9000007    1    1    2  501    0 -0.28338146705E+03 -0.12506883337E+02 -0.11809431003E+03  0.50438848526E+03  0.40000000000E+03 0. -1.
   -9000007    1    1    2    0  502  0.28338146705E+03  0.12506883337E+02 -0.33246526556E+02  0.49149446541E+03  0.40000000000E+03 0. -1.
<mgrwt>
<rscale>  2 0.49036872E+03</rscale>
<asrwt>0</asrwt>
<pdfrwt beam="1">  1       21 0.64964778E-01 0.49036872E+03</pdfrwt>
<pdfrwt beam="2">  1       21 0.88247984E-01 0.49036872E+03</pdfrwt>
<totfact> 0.20424345E+03</totfact>
</mgrwt>
</event>
<event>
 4    1  0.4890517E-002  0.4841601E+03  0.7818608E-02  0.1017998E+00
         21   -1    0    0  501  502  0.00000000000E+00  0.00000000000E+00  0.72052462227E+03  0.72052462227E+03  0.00000000000E+00 0. -1.
         21   -1    0    0  502  503 -0.00000000000E+00 -0.00000000000E+00 -0.32740746528E+03  0.32740746528E+03  0.00000000000E+00 0. -1.
    9000007    1    1    2  501    0  0.18022692323E+03 -0.20476637902E+03  0.15485934114E+03  0.50832315448E+03  0.40000000000E+03 0. -1.
   -9000007    1    1    2    0  503 -0.18022692323E+03  0.20476637902E+03  0.23825781584E+03  0.53960893307E+03  0.40000000000E+03 0. -1.
<mgrwt>
<rscale>  2 0.48416011E+03</rscale>
<asrwt>0</asrwt>
<pdfrwt beam="1">  1       21 0.11084994E+00 0.48416011E+03</pdfrwt>
<pdfrwt beam="2">  1       21 0.50370379E-01 0.48416011E+03</pdfrwt>
<totfact> 0.20479225E+03</totfact>
</mgrwt>
</event>
<event>
 4    1  0.4890517E-002  0.4082377E+03  0.7818608E-02  0.1040964E+00
         21   -1    0    0  501  502  0.00000000000E+00  0.00000000000E+00  0.50700472520E+03  0.50700472520E+03  0.00000000000E+00 0. -1.
         21   -1    0    0  502  503 -0.00000000000E+00 -0.00000000000E+00 -0.32969996068E+03  0.32969996068E+03  0.00000000000E+00 0. -1.
    9000007    1    1    2  501    0  0.71890920162E+01 -0.81279140587E+02  0.11156597915E+03  0.42320792696E+03  0.40000000000E+03 0. -1.
   -9000007    1    1    2    0  503 -0.71890920162E+01  0.81279140587E+02  0.65738785366E+02  0.41349675892E+03  0.40000000000E+03 0. -1.
<mgrwt>
<rscale>  2 0.40823765E+03</rscale>
<asrwt>0</asrwt>
<pdfrwt beam="1">  1       21 0.78000727E-01 0.40823765E+03</pdfrwt>
<pdfrwt beam="2">  1       21 0.50723071E-01 0.40823765E+03</pdfrwt>
<totfact> 0.48011226E+03</totfact>
</mgrwt>
</event>
<event>
 4    1  0.4890517E-002  0.5366961E+03  0.7818608E-02  0.1004621E+00
         21   -1    0    0  501  502  0.00000000000E+00  0.00000000000E+00  0.65589482209E+03  0.65589482209E+03  0.00000000000E+00 0. -1.
         21   -1    0    0  502  503 -0.00000000000E+00 -0.00000000000E+00 -0.48669525720E+03  0.48669525720E+03  0.00000000000E+00 0.  1.
    9000007    1    1    2  501    0  0.35674379027E+03  0.27867758879E+02 -0.93942056111E+02  0.54485581009E+03  0.40000000000E+03 0.  1.
   -9000007    1    1    2    0  503 -0.35674379027E+03 -0.27867758879E+02  0.26314162101E+03  0.59773426921E+03  0.40000000000E+03 0. -1.
<mgrwt>
<rscale>  2 0.53669614E+03</rscale>
<asrwt>0</asrwt>
<pdfrwt beam="1">  1       21 0.10090690E+00 0.53669614E+03</pdfrwt>
<pdfrwt beam="2">  1       21 0.74876194E-01 0.53669614E+03</pdfrwt>
<totfact> 0.10574746E+03</totfact>
</mgrwt>
</event>
<event>
 4    1  0.4890517E-002  0.4283760E+03  0.7818608E-02  0.1034374E+00
         21   -1    0    0  503  502  0.00000000000E+00  0.00000000000E+00  0.63953505623E+03  0.63953505623E+03  0.00000000000E+00 0. -1.
         21   -1    0    0  501  503 -0.00000000000E+00 -0.00000000000E+00 -0.72098060055E+03  0.72098060055E+03  0.00000000000E+00 0. -1.
    9000007    1    1    2  501    0  0.58381911406E+02 -0.14176587492E+03 -0.56853401940E+03  0.71185457931E+03  0.40000000000E+03 0. -1.
   -9000007    1    1    2    0  502 -0.58381911406E+02  0.14176587492E+03  0.48708847508E+03  0.64866107747E+03  0.40000000000E+03 0. -1.
<mgrwt>
<rscale>  2 0.42837602E+03</rscale>
<asrwt>0</asrwt>
<pdfrwt beam="1">  1       21 0.98390009E-01 0.42837602E+03</pdfrwt>
<pdfrwt beam="2">  1       21 0.11092009E+00 0.42837602E+03</pdfrwt>
<totfact> 0.46047101E+02</totfact>
</mgrwt>
</event>
<event>
 4    1  0.4890517E-002  0.4906290E+03  0.7818608E-02  0.1016254E+00
         21   -1    0    0  501  502  0.00000000000E+00  0.00000000000E+00  0.11261040062E+04  0.11261040062E+04  0.00000000000E+00 0. -1.
         21   -1    0    0  502  503 -0.00000000000E+00 -0.00000000000E+00 -0.25770314003E+03  0.25770314003E+03  0.00000000000E+00 0. -1.
    9000007    1    1    2  501    0  0.69863705636E+01  0.28402117390E+03  0.71991182498E+03  0.87120024813E+03  0.40000000000E+03 0. -1.
   -9000007    1    1    2    0  503 -0.69863705636E+01 -0.28402117390E+03  0.14848904116E+03  0.51260689806E+03  0.40000000000E+03 0. -1.
<mgrwt>
<rscale>  2 0.49062902E+03</rscale>
<asrwt>0</asrwt>
<pdfrwt beam="1">  1       21 0.17324677E+00 0.49062902E+03</pdfrwt>
<pdfrwt beam="2">  1       21 0.39646637E-01 0.49062902E+03</pdfrwt>
<totfact> 0.10267928E+03</totfact>
</mgrwt>
</event>
<event>
 4    1  0.4890517E-002  0.4057034E+03  0.7818608E-02  0.1041822E+00
         21   -1    0    0  501  502  0.00000000000E+00  0.00000000000E+00  0.15879678513E+04  0.15879678513E+04  0.00000000000E+00 0. -1.
         21   -1    0    0  502  503 -0.00000000000E+00 -0.00000000000E+00 -0.25516802727E+03  0.25516802727E+03  0.00000000000E+00 0. -1.
    9000007    1    1    2  501    0 -0.23636602144E+02  0.63533990610E+02  0.13765403227E+04  0.14350813624E+04  0.40000000000E+03 0. -1.
   -9000007    1    1    2    0  503  0.23636602144E+02 -0.63533990610E+02 -0.43740498617E+02  0.40805451614E+03  0.40000000000E+03 0. -1.
<mgrwt>
<rscale>  2 0.40570341E+03</rscale>
<asrwt>0</asrwt>
<pdfrwt beam="1">  1       21 0.24430274E+00 0.40570341E+03</pdfrwt>
<pdfrwt beam="2">  1       21 0.39256620E-01 0.40570341E+03</pdfrwt>
<totfact> 0.37200714E+02</totfact>
</mgrwt>
</event>
<event>
 4    1  0.4890517E-002  0.4196811E+03  0.7818608E-02  0.1037170E+00
         21   -1    0    0  501  502  0.00000000000E+00  0.00000000000E+00  0.52531729769E+03  0.52531729769E+03  0.00000000000E+00 0.  1.
         21   -1    0    0  502  503 -0.00000000000E+00 -0.00000000000E+00 -0.64823764971E+03  0.64823764971E+03  0.00000000000E+00 0.  1.
    9000007    1    1    2  501    0 -0.10348132692E+03 -0.73646827330E+02  0.34624291036E+03  0.54407388576E+03  0.40000000000E+03 0. -1.
   -9000007    1    1    2    0  503  0.10348132692E+03  0.73646827330E+02 -0.46916326237E+03  0.62948106164E+03  0.40000000000E+03 0. -1.
<mgrwt>
<rscale>  2 0.41968112E+03</rscale>
<asrwt>0</asrwt>
<pdfrwt beam="1">  1       21 0.80818046E-01 0.41968112E+03</pdfrwt>
<pdfrwt beam="2">  1       21 0.99728869E-01 0.41968112E+03</pdfrwt>
<totfact> 0.95532105E+02</totfact>
</mgrwt>
</event>
<event>
 4    1  0.4890517E-002  0.4835617E+03  0.7818608E-02  0.1018161E+00
         21   -1    0    0  503  502  0.00000000000E+00  0.00000000000E+00  0.29725335355E+04  0.29725335355E+04  0.00000000000E+00 0. -1.
         21   -1    0    0  501  503 -0.00000000000E+00 -0.00000000000E+00 -0.96638505552E+02  0.96638505552E+02  0.00000000000E+00 0. -1.
    9000007    1    1    2  501    0 -0.27146869349E+03 -0.11689237772E+02  0.77612348579E+03  0.91443947586E+03  0.40000000000E+03 0. -1.
   -9000007    1    1    2    0  502  0.27146869349E+03  0.11689237772E+02  0.20997715442E+04  0.21547325652E+04  0.40000000000E+03 0. -1.
<mgrwt>
<rscale>  2 0.48356167E+03</rscale>
<asrwt>0</asrwt>
<pdfrwt beam="1">  1       21 0.45731278E+00 0.48356167E+03</pdfrwt>
<pdfrwt beam="2">  1       21 0.14867465E-01 0.48356167E+03</pdfrwt>
<totfact> 0.10873332E+02</totfact>
</mgrwt>
</event>
<event>
 4    1  0.4890517E-002  0.4485534E+03  0.7818608E-02  0.1028154E+00
         21   -1    0    0  501  502  0.00000000000E+00  0.00000000000E+00  0.17882900549E+03  0.17882900549E+03  0.00000000000E+00 0.  1.
         21   -1    0    0  502  503 -0.00000000000E+00 -0.00000000000E+00 -0.12822732052E+04  0.12822732052E+04  0.00000000000E+00 0. -1.
    9000007    1    1    2  501    0 -0.19769724766E+03  0.45999938587E+02 -0.29595067070E+03  0.53738905420E+03  0.40000000000E+03 0. -1.
   -9000007    1    1    2    0  503  0.19769724766E+03 -0.45999938587E+02 -0.80749352901E+03  0.92371315649E+03  0.40000000000E+03 0.  1.
<mgrwt>
<rscale>  2 0.44855345E+03</rscale>
<asrwt>0</asrwt>
<pdfrwt beam="1">  1       21 0.27512155E-01 0.44855345E+03</pdfrwt>
<pdfrwt beam="2">  1       21 0.19727280E+00 0.44855345E+03</pdfrwt>
<totfact> 0.14837860E+03</totfact>
</mgrwt>
</event>
<event>
 4    1  0.4890517E-002  0.4374548E+03  0.7818608E-02  0.1031531E+00
         21   -1    0    0  503  502  0.00000000000E+00  0.00000000000E+00  0.33245021941E+03  0.33245021941E+03  0.00000000000E+00 0. -1.
         21   -1    0    0  501  503 -0.00000000000E+00 -0.00000000000E+00 -0.91100830766E+03  0.91100830766E+03  0.00000000000E+00 0. -1.
    9000007    1    1    2  501    0 -0.13609237912E+03 -0.11333832263E+03 -0.66651298285E+03  0.79724918773E+03  0.40000000000E+03 0. -1.
   -9000007    1    1    2    0  502  0.13609237912E+03  0.11333832263E+03  0.87954894603E+02  0.44620933934E+03  0.40000000000E+03 0. -1.
<mgrwt>
<rscale>  2 0.43745481E+03</rscale>
<asrwt>0</asrwt>
<pdfrwt beam="1">  1       21 0.51146188E-01 0.43745481E+03</pdfrwt>
<pdfrwt beam="2">  1       21 0.14015512E+00 0.43745481E+03</pdfrwt>
<totfact> 0.11052558E+03</totfact>
</mgrwt>
</event>
<event>
 4    1  0.4890517E-002  0.4603964E+03  0.7818608E-02  0.1024666E+00
         21   -1    0    0  501  502  0.00000000000E+00  0.00000000000E+00  0.20974407744E+03  0.20974407744E+03  0.00000000000E+00 0.  1.
         21   -1    0    0  502  503 -0.00000000000E+00 -0.00000000000E+00 -0.11203619249E+04  0.11203619249E+04  0.00000000000E+00 0.  1.
    9000007    1    1    2  501    0  0.45877820984E+02 -0.22329358808E+03 -0.24713461814E+03  0.52253260226E+03  0.40000000000E+03 0.  1.
   -9000007    1    1    2    0  503 -0.45877820984E+02  0.22329358808E+03 -0.66348322936E+03  0.80757340012E+03  0.40000000000E+03 0.  1.
<mgrwt>
<rscale>  2 0.46039635E+03</rscale>
<asrwt>0</asrwt>
<pdfrwt beam="1">  1       21 0.32268319E-01 0.46039635E+03</pdfrwt>
<pdfrwt beam="2">  1       21 0.17236338E+00 0.46039635E+03</pdfrwt>
<totfact> 0.16030496E+03</totfact>
</mgrwt>
</event>
<event>
 4    1  0.4890517E-002  0.5779689E+03  0.7818608E-02  0.9952198E-01
         21   -1    0    0  503  502  0.00000000000E+00  0.00000000000E+00  0.61805013823E+03  0.61805013823E+03  0.00000000000E+00 0.  1.
         21   -1    0    0  501  503 -0.00000000000E+00 -0.00000000000E+00 -0.70559174453E+03  0.70559174453E+03  0.00000000000E+00 0. -1.
    9000007    1    1    2  501    0 -0.36829939560E+03 -0.19596838264E+03 -0.36391347457E+03  0.68299419380E+03  0.40000000000E+03 0.  1.
   -9000007    1    1    2    0  502  0.36829939560E+03  0.19596838264E+03  0.27637186827E+03  0.64064768896E+03  0.40000000000E+03 0.  1.
<mgrwt>
<rscale>  2 0.57796890E+03</rscale>
<asrwt>0</asrwt>
<pdfrwt beam="1">  1       21 0.95084637E-01 0.57796890E+03</pdfrwt>
<pdfrwt beam="2">  1       21 0.10855258E+00 0.57796890E+03</pdfrwt>
<totfact> 0.49648284E+02</totfact>
</mgrwt>
</event>
<event>
 4    1  0.4890517E-002  0.4995042E+03  0.7818608E-02  0.1013908E+00
         21   -1    0    0  503  502  0.00000000000E+00  0.00000000000E+00  0.35940980970E+03  0.35940980970E+03  0.00000000000E+00 0.  1.
         21   -1    0    0  501  503 -0.00000000000E+00 -0.00000000000E+00 -0.95103801693E+03  0.95103801693E+03  0.00000000000E+00 0. -1.
    9000007    1    1    2  501    0 -0.21846360422E+03 -0.20439682282E+03 -0.63631281509E+03  0.80894895154E+03  0.40000000000E+03 0. -1.
   -9000007    1    1    2    0  502  0.21846360422E+03  0.20439682282E+03  0.44684607858E+02  0.50149887510E+03  0.40000000000E+03 0.  1.
<mgrwt>
<rscale>  2 0.49950416E+03</rscale>
<asrwt>0</asrwt>
<pdfrwt beam="1">  1       21 0.55293816E-01 0.49950416E+03</pdfrwt>
<pdfrwt beam="2">  1       21 0.14631354E+00 0.49950416E+03</pdfrwt>
<totfact> 0.81180138E+02</totfact>
</mgrwt>
</event>
<event>
 4    1  0.4890517E-002  0.4112056E+03  0.7818608E-02  0.1039967E+00
         21   -1    0    0  503  502  0.00000000000E+00  0.00000000000E+00  0.14540245926E+04  0.14540245926E+04  0.00000000000E+00 0.  1.
         21   -1    0    0  501  503 -0.00000000000E+00 -0.00000000000E+00 -0.30359926893E+03  0.30359926893E+03  0.00000000000E+00 0. -1.
    9000007    1    1    2  501    0 -0.94931326114E+02 -0.88373865736E+01 -0.11506527621E+03  0.42700125745E+03  0.40000000000E+03 0. -1.
   -9000007    1    1    2    0  502  0.94931326114E+02  0.88373865736E+01  0.12654905999E+04  0.13306226041E+04  0.40000000000E+03 0.  1.
<mgrwt>
<rscale>  2 0.41120561E+03</rscale>
<asrwt>0</asrwt>
<pdfrwt beam="1">  1       21 0.22369609E+00 0.41120561E+03</pdfrwt>
<pdfrwt beam="2">  1       21 0.46707581E-01 0.41120561E+03</pdfrwt>
<totfact> 0.34741867E+02</totfact>
</mgrwt>
</event>
<event>
 4    1  0.4890517E-002  0.4432005E+03  0.7818608E-02  0.1029769E+00
         21   -1    0    0  503  502  0.00000000000E+00  0.00000000000E+00  0.23146205269E+03  0.23146205269E+03  0.00000000000E+00 0.  1.
         21   -1    0    0  501  503 -0.00000000000E+00 -0.00000000000E+00 -0.94855411309E+03  0.94855411309E+03  0.00000000000E+00 0. -1.
    9000007    1    1    2  501    0 -0.14758365643E+03  0.12101973908E+03 -0.16705342834E+03  0.47363863949E+03  0.40000000000E+03 0.  1.
   -9000007    1    1    2    0  502  0.14758365643E+03 -0.12101973908E+03 -0.55003863205E+03  0.70637752629E+03  0.40000000000E+03 0. -1.
<mgrwt>
<rscale>  2 0.44320053E+03</rscale>
<asrwt>0</asrwt>
<pdfrwt beam="1">  1       21 0.35609546E-01 0.44320053E+03</pdfrwt>
<pdfrwt beam="2">  1       21 0.14593140E+00 0.44320053E+03</pdfrwt>
<totfact> 0.21006239E+03</totfact>
</mgrwt>
</event>
<event>
 4    1  0.4890517E-002  0.5438998E+03  0.7818608E-02  0.1002916E+00
         21   -1    0    0  503  502  0.00000000000E+00  0.00000000000E+00  0.16627037356E+04  0.16627037356E+04  0.00000000000E+00 0. -1.
         21   -1    0    0  501  503 -0.00000000000E+00 -0.00000000000E+00 -0.31130408531E+03  0.31130408531E+03  0.00000000000E+00 0. -1.
    9000007    1    1    2  501    0 -0.33926288157E+02 -0.36698233607E+03  0.29629690268E+02  0.54470629385E+03  0.40000000000E+03 0. -1.
   -9000007    1    1    2    0  502  0.33926288157E+02  0.36698233607E+03  0.13217699600E+04  0.14293015270E+04  0.40000000000E+03 0. -1.
<mgrwt>
<rscale>  2 0.54389983E+03</rscale>
<asrwt>0</asrwt>
<pdfrwt beam="1">  1       21 0.25580057E+00 0.54389983E+03</pdfrwt>
<pdfrwt beam="2">  1       21 0.47892937E-01 0.54389983E+03</pdfrwt>
<totfact> 0.19400742E+02</totfact>
</mgrwt>
</event>
<event>
 4    1  0.4890517E-002  0.4826993E+03  0.7818608E-02  0.1018396E+00
         21   -1    0    0  503  502  0.00000000000E+00  0.00000000000E+00  0.12772352384E+04  0.12772352384E+04  0.00000000000E+00 0. -1.
         21   -1    0    0  501  503 -0.00000000000E+00 -0.00000000000E+00 -0.39932240997E+03  0.39932240997E+03  0.00000000000E+00 0.  1.
    9000007    1    1    2  501    0  0.25509498781E+03 -0.89023517762E+02 -0.17885313933E+03  0.51476896271E+03  0.40000000000E+03 0.  1.
   -9000007    1    1    2    0  502 -0.25509498781E+03  0.89023517762E+02  0.10567659677E+04  0.11617886856E+04  0.40000000000E+03 0.  1.
<mgrwt>
<rscale>  2 0.48269933E+03</rscale>
<asrwt>0</asrwt>
<pdfrwt beam="1">  1       21 0.19649773E+00 0.48269933E+03</pdfrwt>
<pdfrwt beam="2">  1       21 0.61434217E-01 0.48269933E+03</pdfrwt>
<totfact> 0.27921916E+02</totfact>
</mgrwt>
</event>
<event>
 4    1  0.4890517E-002  0.4095781E+03  0.7818608E-02  0.1040513E+00
         21   -1    0    0  503  502  0.00000000000E+00  0.00000000000E+00  0.50994805682E+03  0.50994805682E+03  0.00000000000E+00 0. -1.
         21   -1    0    0  501  503 -0.00000000000E+00 -0.00000000000E+00 -0.36748507171E+03  0.36748507171E+03  0.00000000000E+00 0. -1.
    9000007    1    1    2  501    0 -0.34863062589E+02  0.80862561648E+02 -0.70810711589E+02  0.41565411568E+03  0.40000000000E+03 0. -1.
   -9000007    1    1    2    0  502  0.34863062589E+02 -0.80862561648E+02  0.21327369670E+03  0.46177901285E+03  0.40000000000E+03 0. -1.
<mgrwt>
<rscale>  2 0.40957806E+03</rscale>
<asrwt>0</asrwt>
<pdfrwt beam="1">  1       21 0.78453547E-01 0.40957806E+03</pdfrwt>
<pdfrwt beam="2">  1       21 0.56536165E-01 0.40957806E+03</pdfrwt>
<totfact> 0.37520446E+03</totfact>
</mgrwt>
</event>
<event>
 4    1  0.4890517E-002  0.4284200E+03  0.7818608E-02  0.1034360E+00
         21   -1    0    0  501  502  0.00000000000E+00  0.00000000000E+00  0.12214245238E+04  0.12214245238E+04  0.00000000000E+00 0.  1.
         21   -1    0    0  502  503 -0.00000000000E+00 -0.00000000000E+00 -0.21090868203E+03  0.21090868203E+03  0.00000000000E+00 0.  1.
    9000007    1    1    2  501    0  0.97499259913E+02  0.11848020173E+03  0.88926667427E+03  0.98708605595E+03  0.40000000000E+03 0.  1.
   -9000007    1    1    2    0  503 -0.97499259913E+02 -0.11848020173E+03  0.12124916754E+03  0.44524714992E+03  0.40000000000E+03 0.  1.
<mgrwt>
<rscale>  2 0.42841996E+03</rscale>
<asrwt>0</asrwt>
<pdfrwt beam="1">  1       21 0.18791146E+00 0.42841996E+03</pdfrwt>
<pdfrwt beam="2">  1       21 0.32447490E-01 0.42841996E+03</pdfrwt>
<totfact> 0.12491938E+03</totfact>
</mgrwt>
</event>
<event>
 4    1  0.4890517E-002  0.7167596E+03  0.7818608E-02  0.9688993E-01
         21   -1    0    0  503  502  0.00000000000E+00  0.00000000000E+00  0.17903566896E+04  0.17903566896E+04  0.00000000000E+00 0. -1.
         21   -1    0    0  501  503 -0.00000000000E+00 -0.00000000000E+00 -0.38622991484E+03  0.38622991484E+03  0.00000000000E+00 0. -1.
    9000007    1    1    2  501    0  0.57992630622E+03  0.13202214797E+03  0.15030131018E+03  0.73234885952E+03  0.40000000000E+03 0. -1.
   -9000007    1    1    2    0  502 -0.57992630622E+03 -0.13202214797E+03  0.12538254646E+04  0.14442377449E+04  0.40000000000E+03 0. -1.
<mgrwt>
<rscale>  2 0.71675963E+03</rscale>
<asrwt>0</asrwt>
<pdfrwt beam="1">  1       21 0.27543949E+00 0.71675963E+03</pdfrwt>
<pdfrwt beam="2">  1       21 0.59419988E-01 0.71675963E+03</pdfrwt>
<totfact> 0.85601760E+01</totfact>
</mgrwt>
</event>
<event>
 4    1  0.4890517E-002  0.4359331E+03  0.7818608E-02  0.1032002E+00
         21   -1    0    0  501  502  0.00000000000E+00  0.00000000000E+00  0.93493782359E+03  0.93493782359E+03  0.00000000000E+00 0. -1.
         21   -1    0    0  502  503 -0.00000000000E+00 -0.00000000000E+00 -0.21046805783E+03  0.21046805783E+03  0.00000000000E+00 0. -1.
    9000007    1    1    2  501    0  0.15488930660E+03 -0.77762430857E+02  0.46820259320E+03  0.63972756798E+03  0.40000000000E+03 0.  1.
   -9000007    1    1    2    0  503 -0.15488930660E+03  0.77762430857E+02  0.25626717256E+03  0.50567831344E+03  0.40000000000E+03 0.  1.
<mgrwt>
<rscale>  2 0.43593313E+03</rscale>
<asrwt>0</asrwt>
<pdfrwt beam="1">  1       21 0.14383659E+00 0.43593313E+03</pdfrwt>
<pdfrwt beam="2">  1       21 0.32379702E-01 0.43593313E+03</pdfrwt>
<totfact> 0.26526483E+03</totfact>
</mgrwt>
</event>
<event>
 4    1  0.4890517E-002  0.4229298E+03  0.7818608E-02  0.1036117E+00
         21   -1    0    0  501  502  0.00000000000E+00  0.00000000000E+00  0.14629542421E+04  0.14629542421E+04  0.00000000000E+00 0.  1.
         21   -1    0    0  502  503 -0.00000000000E+00 -0.00000000000E+00 -0.44649997078E+03  0.44649997078E+03  0.00000000000E+00 0.  1.
    9000007    1    1    2  501    0  0.76325652998E+01  0.13715457237E+03  0.13218024478E+04  0.13878153132E+04  0.40000000000E+03 0.  1.
   -9000007    1    1    2    0  503 -0.76325652998E+01 -0.13715457237E+03 -0.30534817642E+03  0.52163889964E+03  0.40000000000E+03 0.  1.
<mgrwt>
<rscale>  2 0.42292982E+03</rscale>
<asrwt>0</asrwt>
<pdfrwt beam="1">  1       21 0.22506988E+00 0.42292982E+03</pdfrwt>
<pdfrwt beam="2">  1       21 0.68692304E-01 0.42292982E+03</pdfrwt>
<totfact> 0.14655150E+02</totfact>
</mgrwt>
</event>
<event>
 4    1  0.4890517E-002  0.4960291E+03  0.7818608E-02  0.1014821E+00
         21   -1    0    0  503  502  0.00000000000E+00  0.00000000000E+00  0.13511601521E+04  0.13511601521E+04  0.00000000000E+00 0. -1.
         21   -1    0    0  501  503 -0.00000000000E+00 -0.00000000000E+00 -0.22117885931E+03  0.22117885931E+03  0.00000000000E+00 0. -1.
    9000007    1    1    2  501    0  0.15569630402E+03  0.24860315159E+03  0.23452899094E+03  0.54867906253E+03  0.40000000000E+03 0. -1.
   -9000007    1    1    2    0  502 -0.15569630402E+03 -0.24860315159E+03  0.89545230183E+03  0.10236599489E+04  0.40000000000E+03 0. -1.
<mgrwt>
<rscale>  2 0.49602910E+03</rscale>
<asrwt>0</asrwt>
<pdfrwt beam="1">  1       21 0.20787079E+00 0.49602910E+03</pdfrwt>
<pdfrwt beam="2">  1       21 0.34027518E-01 0.49602910E+03</pdfrwt>
<totfact> 0.80895042E+02</totfact>
</mgrwt>
</event>
<event>
 4    1  0.4890517E-002  0.4149498E+03  0.7818608E-02  0.1038723E+00
         21   -1    0    0  503  502  0.00000000000E+00  0.00000000000E+00  0.69402860926E+03  0.69402860926E+03  0.00000000000E+00 0. -1.
         21   -1    0    0  501  503 -0.00000000000E+00 -0.00000000000E+00 -0.25360306578E+03  0.25360306578E+03  0.00000000000E+00 0. -1.
    9000007    1    1    2  501    0  0.55095310566E+01  0.11024039956E+03  0.15036863225E+03  0.44135476229E+03  0.40000000000E+03 0.  1.
   -9000007    1    1    2    0  502 -0.55095310566E+01 -0.11024039956E+03  0.29005691123E+03  0.50627691275E+03  0.40000000000E+03 0.  1.
<mgrwt>
<rscale>  2 0.41494976E+03</rscale>
<asrwt>0</asrwt>
<pdfrwt beam="1">  1       21 0.10677363E+00 0.41494976E+03</pdfrwt>
<pdfrwt beam="2">  1       21 0.39015856E-01 0.41494976E+03</pdfrwt>
<totfact> 0.39307323E+03</totfact>
</mgrwt>
</event>
