<event>
 4    1  0.4897983E-002  0.4128906E+03  0.7818608E-02  0.1039405E+00
         21   -1    0    0  501  502  0.00000000000E+00  0.00000000000E+00  0.31568939909E+03  0.31568939909E+03  0.00000000000E+00 0.  1.
         21   -1    0    0  502  503 -0.00000000000E+00 -0.00000000000E+00 -0.27817485541E+04  0.27817485541E+04  0.00000000000E+00 0.  1.
    9000007    1    1    2  501    0  0.94494459072E+01 -0.10192832422E+03  0.15725968875E+03  0.44182494838E+03  0.40000000000E+03 0.  1.
   -9000007    1    1    2    0  503 -0.94494459072E+01  0.10192832422E+03 -0.26233188437E+04  0.26556130048E+04  0.40000000000E+03 0.  1.
<mgrwt>
<rscale>  2 0.41289063E+03</rscale>
<asrwt>0</asrwt>
<pdfrwt beam="1">  1       21 0.48567602E-01 0.41289063E+03</pdfrwt>
<pdfrwt beam="2">  1       21 0.42796130E+00 0.41289063E+03</pdfrwt>
<totfact> 0.17544357E+01</totfact>
</mgrwt>
</event>
<event>
 4    1  0.4897983E-002  0.4815021E+03  0.7818608E-02  0.1018723E+00
         21   -1    0    0  503  502  0.00000000000E+00  0.00000000000E+00  0.87972425075E+03  0.87972425075E+03  0.00000000000E+00 0.  1.
         21   -1    0    0  501  503 -0.00000000000E+00 -0.00000000000E+00 -0.47762650478E+03  0.47762650478E+03  0.00000000000E+00 0.  1.
    9000007    1    1    2  501    0 -0.40896520752E+02  0.26489946261E+03 -0.25332206402E+03  0.54407381744E+03  0.40000000000E+03 0.  1.
   -9000007    1    1    2    0  502  0.40896520752E+02 -0.26489946261E+03  0.65541981000E+03  0.81327693809E+03  0.40000000000E+03 0.  1.
<mgrwt>
<rscale>  2 0.48150208E+03</rscale>
<asrwt>0</asrwt>
<pdfrwt beam="1">  1       21 0.13534219E+00 0.48150208E+03</pdfrwt>
<pdfrwt beam="2">  1       21 0.73481001E-01 0.48150208E+03</pdfrwt>
<totfact> 0.53572839E+02</totfact>
</mgrwt>
</event>
<event>
 4    1  0.4897983E-002  0.4600730E+03  0.7818608E-02  0.1024760E+00
         21   -1    0    0  503  502  0.00000000000E+00  0.00000000000E+00  0.60717078918E+03  0.60717078918E+03  0.00000000000E+00 0. -1.
         21   -1    0    0  501  503 -0.00000000000E+00 -0.00000000000E+00 -0.12623629988E+04  0.12623629988E+04  0.00000000000E+00 0. -1.
    9000007    1    1    2  501    0  0.22648809892E+03 -0.19244234255E+02 -0.11228852557E+04  0.12134819723E+04  0.40000000000E+03 0. -1.
   -9000007    1    1    2    0  502 -0.22648809892E+03  0.19244234255E+02  0.46769304611E+03  0.65605181570E+03  0.40000000000E+03 0. -1.
<mgrwt>
<rscale>  2 0.46007304E+03</rscale>
<asrwt>0</asrwt>
<pdfrwt beam="1">  1       21 0.93410892E-01 0.46007304E+03</pdfrwt>
<pdfrwt beam="2">  1       21 0.19420969E+00 0.46007304E+03</pdfrwt>
<totfact> 0.11209460E+02</totfact>
</mgrwt>
</event>
<event>
 4    1  0.4897983E-002  0.4409038E+03  0.7818608E-02  0.1030470E+00
         21   -1    0    0  501  502  0.00000000000E+00  0.00000000000E+00  0.95893534884E+03  0.95893534884E+03  0.00000000000E+00 0.  1.
         21   -1    0    0  502  503 -0.00000000000E+00 -0.00000000000E+00 -0.20971840841E+03  0.20971840841E+03  0.00000000000E+00 0. -1.
    9000007    1    1    2  501    0  0.17787802288E+03 -0.52493468970E+02  0.48134472111E+03  0.65275485126E+03  0.40000000000E+03 0.  1.
   -9000007    1    1    2    0  503 -0.17787802288E+03  0.52493468970E+02  0.26787221933E+03  0.51589890599E+03  0.40000000000E+03 0. -1.
<mgrwt>
<rscale>  2 0.44090379E+03</rscale>
<asrwt>0</asrwt>
<pdfrwt beam="1">  1       21 0.14752851E+00 0.44090379E+03</pdfrwt>
<pdfrwt beam="2">  1       21 0.32264371E-01 0.44090379E+03</pdfrwt>
<totfact> 0.24907537E+03</totfact>
</mgrwt>
</event>
<event>
 4    1  0.4897983E-002  0.4045773E+03  0.7818608E-02  0.1042206E+00
         21   -1    0    0  501  502  0.00000000000E+00  0.00000000000E+00  0.38133233319E+03  0.38133233319E+03  0.00000000000E+00 0.  1.
         21   -1    0    0  502  503 -0.00000000000E+00 -0.00000000000E+00 -0.75191507978E+03  0.75191507978E+03  0.00000000000E+00 0.  1.
    9000007    1    1    2  501    0 -0.23214200221E+02 -0.56070545107E+02  0.18589631274E+03  0.44524178175E+03  0.40000000000E+03 0.  1.
   -9000007    1    1    2    0  503  0.23214200221E+02  0.56070545107E+02 -0.55647905934E+03  0.68800563123E+03  0.40000000000E+03 0.  1.
<mgrwt>
<rscale>  2 0.40457732E+03</rscale>
<asrwt>0</asrwt>
<pdfrwt beam="1">  1       21 0.58666514E-01 0.40457732E+03</pdfrwt>
<pdfrwt beam="2">  1       21 0.11567924E+00 0.40457732E+03</pdfrwt>
<totfact> 0.13683219E+03</totfact>
</mgrwt>
</event>
<event>
 4    1  0.4897983E-002  0.4188266E+03  0.7818608E-02  0.1037449E+00
         21   -1    0    0  503  502  0.00000000000E+00  0.00000000000E+00  0.13197552604E+03  0.13197552604E+03  0.00000000000E+00 0.  1.
         21   -1    0    0  501  503 -0.00000000000E+00 -0.00000000000E+00 -0.16537174022E+04  0.16537174022E+04  0.00000000000E+00 0.  1.
    9000007    1    1    2  501    0  0.12086974804E+03 -0.28394658788E+02 -0.11564161576E+04  0.12299244213E+04  0.40000000000E+03 0.  1.
   -9000007    1    1    2    0  502 -0.12086974804E+03  0.28394658788E+02 -0.36532571861E+03  0.55576850695E+03  0.40000000000E+03 0.  1.
<mgrwt>
<rscale>  2 0.41882664E+03</rscale>
<asrwt>0</asrwt>
<pdfrwt beam="1">  1       21 0.20303927E-01 0.41882664E+03</pdfrwt>
<pdfrwt beam="2">  1       21 0.25441806E+00 0.41882664E+03</pdfrwt>
<totfact> 0.11745659E+03</totfact>
</mgrwt>
</event>
<event>
 4    1  0.4897983E-002  0.4314427E+03  0.7818608E-02  0.1033405E+00
         21   -1    0    0  501  502  0.00000000000E+00  0.00000000000E+00  0.39505620667E+03  0.39505620667E+03  0.00000000000E+00 0.  1.
         21   -1    0    0  502  503 -0.00000000000E+00 -0.00000000000E+00 -0.98413688403E+03  0.98413688403E+03  0.00000000000E+00 0.  1.
    9000007    1    1    2  501    0  0.14150721478E+03 -0.78220941543E+02  0.20331998129E+03  0.47695054494E+03  0.40000000000E+03 0.  1.
   -9000007    1    1    2    0  503 -0.14150721478E+03  0.78220941543E+02 -0.79240065865E+03  0.90224254575E+03  0.40000000000E+03 0.  1.
<mgrwt>
<rscale>  2 0.43144270E+03</rscale>
<asrwt>0</asrwt>
<pdfrwt beam="1">  1       21 0.60777878E-01 0.43144270E+03</pdfrwt>
<pdfrwt beam="2">  1       21 0.15140567E+00 0.43144270E+03</pdfrwt>
<totfact> 0.62000645E+02</totfact>
</mgrwt>
</event>
<event>
 4    1  0.4897983E-002  0.4108209E+03  0.7818608E-02  0.1040096E+00
         21   -1    0    0  503  502  0.00000000000E+00  0.00000000000E+00  0.31903634301E+03  0.31903634301E+03  0.00000000000E+00 0.  1.
         21   -1    0    0  501  503 -0.00000000000E+00 -0.00000000000E+00 -0.56742099717E+03  0.56742099717E+03  0.00000000000E+00 0.  1.
    9000007    1    1    2  501    0 -0.44376836607E+01  0.93563389700E+02 -0.23951006381E+03  0.47554060983E+03  0.40000000000E+03 0.  1.
   -9000007    1    1    2    0  502  0.44376836607E+01 -0.93563389700E+02 -0.88745903403E+01  0.41091673035E+03  0.40000000000E+03 0.  1.
<mgrwt>
<rscale>  2 0.41082089E+03</rscale>
<asrwt>0</asrwt>
<pdfrwt beam="1">  1       21 0.49082515E-01 0.41082089E+03</pdfrwt>
<pdfrwt beam="2">  1       21 0.87295537E-01 0.41082089E+03</pdfrwt>
<totfact> 0.39608983E+03</totfact>
</mgrwt>
</event>
<event>
 4    1  0.4897983E-002  0.5609398E+03  0.7818608E-02  0.9989930E-01
         21   -1    0    0  501  502  0.00000000000E+00  0.00000000000E+00  0.45728645354E+03  0.45728645354E+03  0.00000000000E+00 0. -1.
         21   -1    0    0  502  503 -0.00000000000E+00 -0.00000000000E+00 -0.83842185633E+03  0.83842185633E+03  0.00000000000E+00 0.  1.
    9000007    1    1    2  501    0  0.12117606600E+03  0.37412542224E+03  0.83762662928E+02  0.56715928472E+03  0.40000000000E+03 0. -1.
   -9000007    1    1    2    0  503 -0.12117606600E+03 -0.37412542224E+03 -0.46489806572E+03  0.72854902515E+03  0.40000000000E+03 0.  1.
<mgrwt>
<rscale>  2 0.56093981E+03</rscale>
<asrwt>0</asrwt>
<pdfrwt beam="1">  1       21 0.70351763E-01 0.56093981E+03</pdfrwt>
<pdfrwt beam="2">  1       21 0.12898798E+00 0.56093981E+03</pdfrwt>
<totfact> 0.65059434E+02</totfact>
</mgrwt>
</event>
<event>
 4    1  0.4897983E-002  0.4124327E+03  0.7818608E-02  0.1039558E+00
         21   -1    0    0  503  502  0.00000000000E+00  0.00000000000E+00  0.11293120813E+04  0.11293120813E+04  0.00000000000E+00 0. -1.
         21   -1    0    0  501  503 -0.00000000000E+00 -0.00000000000E+00 -0.16495415123E+03  0.16495415123E+03  0.00000000000E+00 0.  1.
    9000007    1    1    2  501    0 -0.93581981885E+02 -0.36649440351E+02  0.29143656745E+03  0.50501093221E+03  0.40000000000E+03 0.  1.
   -9000007    1    1    2    0  502  0.93581981885E+02  0.36649440351E+02  0.67292136262E+03  0.78925530032E+03  0.40000000000E+03 0.  1.
<mgrwt>
<rscale>  2 0.41243274E+03</rscale>
<asrwt>0</asrwt>
<pdfrwt beam="1">  1       21 0.17374032E+00 0.41243274E+03</pdfrwt>
<pdfrwt beam="2">  1       21 0.25377562E-01 0.41243274E+03</pdfrwt>
<totfact> 0.25694189E+03</totfact>
</mgrwt>
</event>
<event>
 4    1  0.4897983E-002  0.4867452E+03  0.7818608E-02  0.1017298E+00
         21   -1    0    0  503  502  0.00000000000E+00  0.00000000000E+00  0.17851365301E+04  0.17851365301E+04  0.00000000000E+00 0. -1.
         21   -1    0    0  501  503 -0.00000000000E+00 -0.00000000000E+00 -0.31061305507E+03  0.31061305507E+03  0.00000000000E+00 0. -1.
    9000007    1    1    2  501    0 -0.12214258165E+02  0.27707703826E+03 -0.55751999874E+02  0.48992770765E+03  0.40000000000E+03 0. -1.
   -9000007    1    1    2    0  502  0.12214258165E+02 -0.27707703826E+03  0.15302754749E+04  0.16058218775E+04  0.40000000000E+03 0. -1.
<mgrwt>
<rscale>  2 0.48674518E+03</rscale>
<asrwt>0</asrwt>
<pdfrwt beam="1">  1       21 0.27463638E+00 0.48674518E+03</pdfrwt>
<pdfrwt beam="2">  1       21 0.47786625E-01 0.48674518E+03</pdfrwt>
<totfact> 0.15394697E+02</totfact>
</mgrwt>
</event>
<event>
 4    1  0.4897983E-002  0.4547390E+03  0.7818608E-02  0.1026318E+00
         21   -1    0    0  501  502  0.00000000000E+00  0.00000000000E+00  0.27553157592E+03  0.27553157592E+03  0.00000000000E+00 0. -1.
         21   -1    0    0  502  503 -0.00000000000E+00 -0.00000000000E+00 -0.75121903527E+03  0.75121903527E+03  0.00000000000E+00 0. -1.
    9000007    1    1    2  501    0 -0.14981282476E+03  0.15602451894E+03 -0.25368295795E+03  0.52071352597E+03  0.40000000000E+03 0.  1.
   -9000007    1    1    2    0  503  0.14981282476E+03 -0.15602451894E+03 -0.22200450140E+03  0.50603708522E+03  0.40000000000E+03 0.  1.
<mgrwt>
<rscale>  2 0.45473897E+03</rscale>
<asrwt>0</asrwt>
<pdfrwt beam="1">  1       21 0.42389474E-01 0.45473897E+03</pdfrwt>
<pdfrwt beam="2">  1       21 0.11557216E+00 0.45473897E+03</pdfrwt>
<totfact> 0.26814175E+03</totfact>
</mgrwt>
</event>
<event>
 4    1  0.4897983E-002  0.5065070E+03  0.7818608E-02  0.1012094E+00
         21   -1    0    0  501  502  0.00000000000E+00  0.00000000000E+00  0.11686688375E+03  0.11686688375E+03  0.00000000000E+00 0. -1.
         21   -1    0    0  502  503 -0.00000000000E+00 -0.00000000000E+00 -0.22596859750E+04  0.22596859750E+04  0.00000000000E+00 0.  1.
    9000007    1    1    2  501    0 -0.19111414680E+03 -0.24499945351E+03 -0.87071534349E+03  0.10073204846E+04  0.40000000000E+03 0. -1.
   -9000007    1    1    2    0  503  0.19111414680E+03  0.24499945351E+03 -0.12721037478E+04  0.13692323741E+04  0.40000000000E+03 0.  1.
<mgrwt>
<rscale>  2 0.50650701E+03</rscale>
<asrwt>0</asrwt>
<pdfrwt beam="1">  1       21 0.17979523E-01 0.50650701E+03</pdfrwt>
<pdfrwt beam="2">  1       21 0.34764395E+00 0.50650701E+03</pdfrwt>
<totfact> 0.38450968E+02</totfact>
</mgrwt>
</event>
<event>
 4    1  0.4897983E-002  0.4217524E+03  0.7818608E-02  0.1036497E+00
         21   -1    0    0  501  502  0.00000000000E+00  0.00000000000E+00  0.30198960326E+03  0.30198960326E+03  0.00000000000E+00 0. -1.
         21   -1    0    0  502  503 -0.00000000000E+00 -0.00000000000E+00 -0.96604808466E+03  0.96604808466E+03  0.00000000000E+00 0. -1.
    9000007    1    1    2  501    0 -0.85606557520E+02  0.10269670822E+03  0.64061802864E+02  0.42658998014E+03  0.40000000000E+03 0. -1.
   -9000007    1    1    2    0  503  0.85606557520E+02 -0.10269670822E+03 -0.72812028427E+03  0.84144770778E+03  0.40000000000E+03 0. -1.
<mgrwt>
<rscale>  2 0.42175241E+03</rscale>
<asrwt>0</asrwt>
<pdfrwt beam="1">  1       21 0.46459938E-01 0.42175241E+03</pdfrwt>
<pdfrwt beam="2">  1       21 0.14862278E+00 0.42175241E+03</pdfrwt>
<totfact> 0.11654938E+03</totfact>
</mgrwt>
</event>
<event>
 4    1  0.4897983E-002  0.4537460E+03  0.7818608E-02  0.1026611E+00
         21   -1    0    0  503  502  0.00000000000E+00  0.00000000000E+00  0.15901245901E+04  0.15901245901E+04  0.00000000000E+00 0. -1.
         21   -1    0    0  501  503 -0.00000000000E+00 -0.00000000000E+00 -0.20771083761E+03  0.20771083761E+03  0.00000000000E+00 0. -1.
    9000007    1    1    2  501    0  0.16709591683E+03 -0.13403143252E+03  0.13952833567E+03  0.47471425803E+03  0.40000000000E+03 0. -1.
   -9000007    1    1    2    0  502 -0.16709591683E+03  0.13403143252E+03  0.12428854168E+04  0.13231211696E+04  0.40000000000E+03 0. -1.
<mgrwt>
<rscale>  2 0.45374604E+03</rscale>
<asrwt>0</asrwt>
<pdfrwt beam="1">  1       21 0.24463454E+00 0.45374604E+03</pdfrwt>
<pdfrwt beam="2">  1       21 0.31955515E-01 0.45374604E+03</pdfrwt>
<totfact> 0.54688345E+02</totfact>
</mgrwt>
</event>
<event>
 4    1  0.4897983E-002  0.5953676E+03  0.7818608E-02  0.9915064E-01
         21   -1    0    0  501  502  0.00000000000E+00  0.00000000000E+00  0.24022138398E+03  0.24022138398E+03  0.00000000000E+00 0.  1.
         21   -1    0    0  502  503 -0.00000000000E+00 -0.00000000000E+00 -0.15951274743E+04  0.15951274743E+04  0.00000000000E+00 0. -1.
    9000007    1    1    2  501    0 -0.37945490263E+03 -0.22466977895E+03 -0.42621444404E+03  0.73220303537E+03  0.40000000000E+03 0.  1.
   -9000007    1    1    2    0  503  0.37945490263E+03  0.22466977895E+03 -0.92869164626E+03  0.11031458229E+04  0.40000000000E+03 0. -1.
<mgrwt>
<rscale>  2 0.59536756E+03</rscale>
<asrwt>0</asrwt>
<pdfrwt beam="1">  1       21 0.36957136E-01 0.59536756E+03</pdfrwt>
<pdfrwt beam="2">  1       21 0.24540423E+00 0.59536756E+03</pdfrwt>
<totfact> 0.37788029E+02</totfact>
</mgrwt>
</event>
<event>
 4    1  0.4897983E-002  0.4031117E+03  0.7818608E-02  0.1042708E+00
         21   -1    0    0  503  502  0.00000000000E+00  0.00000000000E+00  0.61548367456E+03  0.61548367456E+03  0.00000000000E+00 0.  1.
         21   -1    0    0  501  503 -0.00000000000E+00 -0.00000000000E+00 -0.60526191470E+03  0.60526191470E+03  0.00000000000E+00 0.  1.
    9000007    1    1    2  501    0  0.34047984695E+02 -0.36602626108E+02 -0.45319528059E+03  0.60653522556E+03  0.40000000000E+03 0.  1.
   -9000007    1    1    2    0  502 -0.34047984695E+02  0.36602626108E+02  0.46341704045E+03  0.61421036370E+03  0.40000000000E+03 0.  1.
<mgrwt>
<rscale>  2 0.40311167E+03</rscale>
<asrwt>0</asrwt>
<pdfrwt beam="1">  1       21 0.94689797E-01 0.40311167E+03</pdfrwt>
<pdfrwt beam="2">  1       21 0.93117217E-01 0.40311167E+03</pdfrwt>
<totfact> 0.78225610E+02</totfact>
</mgrwt>
</event>
<event>
 4    1  0.4897983E-002  0.4882147E+03  0.7818608E-02  0.1016902E+00
         21   -1    0    0  501  502  0.00000000000E+00  0.00000000000E+00  0.11029007075E+04  0.11029007075E+04  0.00000000000E+00 0.  1.
         21   -1    0    0  502  503 -0.00000000000E+00 -0.00000000000E+00 -0.46924956305E+03  0.46924956305E+03  0.00000000000E+00 0.  1.
    9000007    1    1    2  501    0  0.23710860218E+03  0.14877195981E+03  0.89417360446E+03  0.10187737826E+04  0.40000000000E+03 0.  1.
   -9000007    1    1    2    0  503 -0.23710860218E+03 -0.14877195981E+03 -0.26052245999E+03  0.55337648795E+03  0.40000000000E+03 0.  1.
<mgrwt>
<rscale>  2 0.48821469E+03</rscale>
<asrwt>0</asrwt>
<pdfrwt beam="1">  1       21 0.16967703E+00 0.48821469E+03</pdfrwt>
<pdfrwt beam="2">  1       21 0.72192241E-01 0.48821469E+03</pdfrwt>
<totfact> 0.29932609E+02</totfact>
</mgrwt>
</event>
<event>
 4    1  0.4897983E-002  0.4995296E+03  0.7818608E-02  0.1013902E+00
         21   -1    0    0  503  502  0.00000000000E+00  0.00000000000E+00  0.13271778686E+03  0.13271778686E+03  0.00000000000E+00 0.  1.
         21   -1    0    0  501  503 -0.00000000000E+00 -0.00000000000E+00 -0.20363833133E+04  0.20363833133E+04  0.00000000000E+00 0.  1.
    9000007    1    1    2  501    0  0.14304783161E+03  0.26280637177E+03 -0.65143176894E+03  0.82090999553E+03  0.40000000000E+03 0.  1.
   -9000007    1    1    2    0  502 -0.14304783161E+03 -0.26280637177E+03 -0.12522337575E+04  0.13481911046E+04  0.40000000000E+03 0.  1.
<mgrwt>
<rscale>  2 0.49952965E+03</rscale>
<asrwt>0</asrwt>
<pdfrwt beam="1">  1       21 0.20418123E-01 0.49952965E+03</pdfrwt>
<pdfrwt beam="2">  1       21 0.31328971E+00 0.49952965E+03</pdfrwt>
<totfact> 0.49087190E+02</totfact>
</mgrwt>
</event>
<event>
 4    1  0.4897983E-002  0.4201573E+03  0.7818608E-02  0.1037015E+00
         21   -1    0    0  501  502  0.00000000000E+00  0.00000000000E+00  0.51793074705E+03  0.51793074705E+03  0.00000000000E+00 0.  1.
         21   -1    0    0  502  503 -0.00000000000E+00 -0.00000000000E+00 -0.41740542820E+03  0.41740542820E+03  0.00000000000E+00 0. -1.
    9000007    1    1    2  501    0 -0.85409028037E+02  0.96111502253E+02  0.25055840421E+03  0.48919488638E+03  0.40000000000E+03 0.  1.
   -9000007    1    1    2    0  503  0.85409028037E+02 -0.96111502253E+02 -0.15003308535E+03  0.44614128887E+03  0.40000000000E+03 0. -1.
<mgrwt>
<rscale>  2 0.42015726E+03</rscale>
<asrwt>0</asrwt>
<pdfrwt beam="1">  1       21 0.79681653E-01 0.42015726E+03</pdfrwt>
<pdfrwt beam="2">  1       21 0.64216220E-01 0.42015726E+03</pdfrwt>
<totfact> 0.27283307E+03</totfact>
</mgrwt>
</event>
<event>
 4    1  0.4897983E-002  0.4036348E+03  0.7818608E-02  0.1042528E+00
         21   -1    0    0  503  502  0.00000000000E+00  0.00000000000E+00  0.18824914456E+03  0.18824914456E+03  0.00000000000E+00 0.  1.
         21   -1    0    0  501  503 -0.00000000000E+00 -0.00000000000E+00 -0.10442714648E+04  0.10442714648E+04  0.00000000000E+00 0.  1.
    9000007    1    1    2  501    0  0.52534442172E+02  0.12696638705E+02 -0.17299844851E+03  0.43914637131E+03  0.40000000000E+03 0.  1.
   -9000007    1    1    2    0  502 -0.52534442172E+02 -0.12696638705E+02 -0.68302387168E+03  0.79337423801E+03  0.40000000000E+03 0.  1.
<mgrwt>
<rscale>  2 0.40363483E+03</rscale>
<asrwt>0</asrwt>
<pdfrwt beam="1">  1       21 0.28961407E-01 0.40363483E+03</pdfrwt>
<pdfrwt beam="2">  1       21 0.16065715E+00 0.40363483E+03</pdfrwt>
<totfact> 0.24829325E+03</totfact>
</mgrwt>
</event>
<event>
 4    1  0.4897983E-002  0.4502156E+03  0.7818608E-02  0.1027658E+00
         21   -1    0    0  501  502  0.00000000000E+00  0.00000000000E+00  0.67812953378E+03  0.67812953378E+03  0.00000000000E+00 0.  1.
         21   -1    0    0  502  503 -0.00000000000E+00 -0.00000000000E+00 -0.96368073214E+03  0.96368073214E+03  0.00000000000E+00 0.  1.
    9000007    1    1    2  501    0 -0.10765963457E+03  0.17636185614E+03  0.53903700423E+03  0.70232114673E+03  0.40000000000E+03 0.  1.
   -9000007    1    1    2    0  503  0.10765963457E+03 -0.17636185614E+03 -0.82458820259E+03  0.93948911918E+03  0.40000000000E+03 0.  1.
<mgrwt>
<rscale>  2 0.45021562E+03</rscale>
<asrwt>0</asrwt>
<pdfrwt beam="1">  1       21 0.10432762E+00 0.45021562E+03</pdfrwt>
<pdfrwt beam="2">  1       21 0.14825857E+00 0.45021562E+03</pdfrwt>
<totfact> 0.18636026E+02</totfact>
</mgrwt>
</event>
<event>
 4    1  0.4897983E-002  0.5213530E+03  0.7818608E-02  0.1008351E+00
         21   -1    0    0  501  502  0.00000000000E+00  0.00000000000E+00  0.97482451276E+03  0.97482451276E+03  0.00000000000E+00 0. -1.
         21   -1    0    0  502  503 -0.00000000000E+00 -0.00000000000E+00 -0.27928999940E+03  0.27928999940E+03  0.00000000000E+00 0.  1.
    9000007    1    1    2  501    0  0.94578291025E+01  0.33424466996E+03  0.32228017856E+03  0.61292206962E+03  0.40000000000E+03 0. -1.
   -9000007    1    1    2    0  503 -0.94578291025E+01 -0.33424466996E+03  0.37325433480E+03  0.64119244254E+03  0.40000000000E+03 0.  1.
<mgrwt>
<rscale>  2 0.52135300E+03</rscale>
<asrwt>0</asrwt>
<pdfrwt beam="1">  1       21 0.14997300E+00 0.52135300E+03</pdfrwt>
<pdfrwt beam="2">  1       21 0.42967693E-01 0.52135300E+03</pdfrwt>
<totfact> 0.12871365E+03</totfact>
</mgrwt>
</event>
<event>
 4    1  0.4897983E-002  0.5243154E+03  0.7818608E-02  0.1007620E+00
         21   -1    0    0  501  502  0.00000000000E+00  0.00000000000E+00  0.15208184866E+03  0.15208184866E+03  0.00000000000E+00 0. -1.
         21   -1    0    0  502  503 -0.00000000000E+00 -0.00000000000E+00 -0.20308374563E+04  0.20308374563E+04  0.00000000000E+00 0. -1.
    9000007    1    1    2  501    0 -0.30919261887E+03  0.13894811890E+03 -0.57752560774E+03  0.78002723215E+03  0.40000000000E+03 0. -1.
   -9000007    1    1    2    0  503  0.30919261887E+03 -0.13894811890E+03 -0.13012299999E+04  0.14028920728E+04  0.40000000000E+03 0. -1.
<mgrwt>
<rscale>  2 0.52431542E+03</rscale>
<asrwt>0</asrwt>
<pdfrwt beam="1">  1       21 0.23397207E-01 0.52431542E+03</pdfrwt>
<pdfrwt beam="2">  1       21 0.31243654E+00 0.52431542E+03</pdfrwt>
<totfact> 0.37749596E+02</totfact>
</mgrwt>
</event>
<event>
 4    1  0.4897983E-002  0.4663206E+03  0.7818608E-02  0.1022964E+00
         21   -1    0    0  501  502  0.00000000000E+00  0.00000000000E+00  0.16311395145E+03  0.16311395145E+03  0.00000000000E+00 0. -1.
         21   -1    0    0  502  503 -0.00000000000E+00 -0.00000000000E+00 -0.18221470023E+04  0.18221470023E+04  0.00000000000E+00 0.  1.
    9000007    1    1    2  501    0 -0.67903714447E+02  0.22987815469E+03 -0.13437381258E+04  0.14223526395E+04  0.40000000000E+03 0.  1.
   -9000007    1    1    2    0  503  0.67903714447E+02 -0.22987815469E+03 -0.31529492501E+03  0.56290831418E+03  0.40000000000E+03 0. -1.
<mgrwt>
<rscale>  2 0.46632058E+03</rscale>
<asrwt>0</asrwt>
<pdfrwt beam="1">  1       21 0.25094455E-01 0.46632058E+03</pdfrwt>
<pdfrwt beam="2">  1       21 0.28033030E+00 0.46632058E+03</pdfrwt>
<totfact> 0.53061367E+02</totfact>
</mgrwt>
</event>
<event>
 4    1  0.4897983E-002  0.4168859E+03  0.7818608E-02  0.1038085E+00
         21   -1    0    0  501  502  0.00000000000E+00  0.00000000000E+00  0.72266251459E+03  0.72266251459E+03  0.00000000000E+00 0.  1.
         21   -1    0    0  502  503 -0.00000000000E+00 -0.00000000000E+00 -0.37280136108E+03  0.37280136108E+03  0.00000000000E+00 0.  1.
    9000007    1    1    2  501    0  0.11198139792E+03 -0.35411843806E+02  0.50123746720E+03  0.65194542002E+03  0.40000000000E+03 0.  1.
   -9000007    1    1    2    0  503 -0.11198139792E+03  0.35411843806E+02 -0.15137631368E+03  0.44351845565E+03  0.40000000000E+03 0.  1.
<mgrwt>
<rscale>  2 0.41688587E+03</rscale>
<asrwt>0</asrwt>
<pdfrwt beam="1">  1       21 0.11117885E+00 0.41688587E+03</pdfrwt>
<pdfrwt beam="2">  1       21 0.57354056E-01 0.41688587E+03</pdfrwt>
<totfact> 0.15779972E+03</totfact>
</mgrwt>
</event>
<event>
 4    1  0.4897983E-002  0.4405217E+03  0.7818608E-02  0.1030587E+00
         21   -1    0    0  501  502  0.00000000000E+00  0.00000000000E+00  0.16243650515E+03  0.16243650515E+03  0.00000000000E+00 0.  1.
         21   -1    0    0  502  503 -0.00000000000E+00 -0.00000000000E+00 -0.12221795322E+04  0.12221795322E+04  0.00000000000E+00 0.  1.
    9000007    1    1    2  501    0  0.18452992000E+03 -0.28453035037E+01 -0.42602139483E+03  0.61282429454E+03  0.40000000000E+03 0.  1.
   -9000007    1    1    2    0  503 -0.18452992000E+03  0.28453035037E+01 -0.63372163227E+03  0.77179174285E+03  0.40000000000E+03 0.  1.
<mgrwt>
<rscale>  2 0.44052172E+03</rscale>
<asrwt>0</asrwt>
<pdfrwt beam="1">  1       21 0.24990230E-01 0.44052172E+03</pdfrwt>
<pdfrwt beam="2">  1       21 0.18802763E+00 0.44052172E+03</pdfrwt>
<totfact> 0.20764740E+03</totfact>
</mgrwt>
</event>
<event>
 4    1  0.4897983E-002  0.4407098E+03  0.7818608E-02  0.1030529E+00
         21   -1    0    0  503  502  0.00000000000E+00  0.00000000000E+00  0.10007788708E+04  0.10007788708E+04  0.00000000000E+00 0. -1.
         21   -1    0    0  501  503 -0.00000000000E+00 -0.00000000000E+00 -0.21209428134E+03  0.21209428134E+03  0.00000000000E+00 0. -1.
    9000007    1    1    2  501    0  0.18494370387E+03  0.45751882514E+01  0.21757483338E+03  0.49149151983E+03  0.40000000000E+03 0. -1.
   -9000007    1    1    2    0  502 -0.18494370387E+03 -0.45751882514E+01  0.57110975610E+03  0.72138163233E+03  0.40000000000E+03 0. -1.
<mgrwt>
<rscale>  2 0.44070978E+03</rscale>
<asrwt>0</asrwt>
<pdfrwt beam="1">  1       21 0.15396598E+00 0.44070978E+03</pdfrwt>
<pdfrwt beam="2">  1       21 0.32629890E-01 0.44070978E+03</pdfrwt>
<totfact> 0.21685068E+03</totfact>
</mgrwt>
</event>
<event>
 4    1  0.4897983E-002  0.4295995E+03  0.7818608E-02  0.1033987E+00
         21   -1    0    0  501  502  0.00000000000E+00  0.00000000000E+00  0.24570787893E+03  0.24570787893E+03  0.00000000000E+00 0. -1.
         21   -1    0    0  502  503 -0.00000000000E+00 -0.00000000000E+00 -0.12559099728E+04  0.12559099728E+04  0.00000000000E+00 0.  1.
    9000007    1    1    2  501    0  0.14346742822E+03  0.63030334586E+02 -0.29101882380E+02  0.43058407494E+03  0.40000000000E+03 0.  1.
   -9000007    1    1    2    0  503 -0.14346742822E+03 -0.63030334586E+02 -0.98110021151E+03  0.10710337768E+04  0.40000000000E+03 0.  1.
<mgrwt>
<rscale>  2 0.42959949E+03</rscale>
<asrwt>0</asrwt>
<pdfrwt beam="1">  1       21 0.37801212E-01 0.42959949E+03</pdfrwt>
<pdfrwt beam="2">  1       21 0.19321692E+00 0.42959949E+03</pdfrwt>
<totfact> 0.84356198E+02</totfact>
</mgrwt>
</event>
<event>
 4    1  0.4897983E-002  0.4818322E+03  0.7818608E-02  0.1018633E+00
         21   -1    0    0  501  502  0.00000000000E+00  0.00000000000E+00  0.36203853545E+03  0.36203853545E+03  0.00000000000E+00 0.  1.
         21   -1    0    0  502  503 -0.00000000000E+00 -0.00000000000E+00 -0.67410770456E+03  0.67410770456E+03  0.00000000000E+00 0.  1.
    9000007    1    1    2  501    0 -0.23199542667E+03 -0.13542670160E+03 -0.41680241487E+02  0.48363158709E+03  0.40000000000E+03 0.  1.
   -9000007    1    1    2    0  503  0.23199542667E+03  0.13542670160E+03 -0.27038892763E+03  0.55251465291E+03  0.40000000000E+03 0.  1.
<mgrwt>
<rscale>  2 0.48183220E+03</rscale>
<asrwt>0</asrwt>
<pdfrwt beam="1">  1       21 0.55698236E-01 0.48183220E+03</pdfrwt>
<pdfrwt beam="2">  1       21 0.10370888E+00 0.48183220E+03</pdfrwt>
<totfact> 0.19471288E+03</totfact>
</mgrwt>
</event>
<event>
 4    1  0.4897983E-002  0.4796779E+03  0.7818608E-02  0.1019224E+00
         21   -1    0    0  503  502  0.00000000000E+00  0.00000000000E+00  0.65233600806E+03  0.65233600806E+03  0.00000000000E+00 0. -1.
         21   -1    0    0  501  503 -0.00000000000E+00 -0.00000000000E+00 -0.39456924516E+03  0.39456924516E+03  0.00000000000E+00 0. -1.
    9000007    1    1    2  501    0 -0.92847303035E+02  0.24793194540E+03 -0.41594569482E+02  0.48147791169E+03  0.40000000000E+03 0.  1.
   -9000007    1    1    2    0  502  0.92847303035E+02 -0.24793194540E+03  0.29936133239E+03  0.56542734154E+03  0.40000000000E+03 0.  1.
<mgrwt>
<rscale>  2 0.47967788E+03</rscale>
<asrwt>0</asrwt>
<pdfrwt beam="1">  1       21 0.10035939E+00 0.47967788E+03</pdfrwt>
<pdfrwt beam="2">  1       21 0.60702961E-01 0.47967788E+03</pdfrwt>
<totfact> 0.17502811E+03</totfact>
</mgrwt>
</event>
<event>
 4    1  0.4897983E-002  0.5531840E+03  0.7818608E-02  0.1000760E+00
         21   -1    0    0  503  502  0.00000000000E+00  0.00000000000E+00  0.46244674698E+03  0.46244674698E+03  0.00000000000E+00 0.  1.
         21   -1    0    0  501  503 -0.00000000000E+00 -0.00000000000E+00 -0.14501350462E+04  0.14501350462E+04  0.00000000000E+00 0. -1.
    9000007    1    1    2  501    0  0.40346740374E+02  0.37997983955E+03 -0.11989622990E+04  0.13204253604E+04  0.40000000000E+03 0. -1.
   -9000007    1    1    2    0  502 -0.40346740374E+02 -0.37997983955E+03  0.21127399978E+03  0.59215643280E+03  0.40000000000E+03 0.  1.
<mgrwt>
<rscale>  2 0.55318400E+03</rscale>
<asrwt>0</asrwt>
<pdfrwt beam="1">  1       21 0.71145654E-01 0.55318400E+03</pdfrwt>
<pdfrwt beam="2">  1       21 0.22309770E+00 0.55318400E+03</pdfrwt>
<totfact> 0.13013151E+02</totfact>
</mgrwt>
</event>
<event>
 4    1  0.4897983E-002  0.4262199E+03  0.7818608E-02  0.1035061E+00
         21   -1    0    0  503  502  0.00000000000E+00  0.00000000000E+00  0.42625519072E+03  0.42625519072E+03  0.00000000000E+00 0.  1.
         21   -1    0    0  501  503 -0.00000000000E+00 -0.00000000000E+00 -0.42756221151E+03  0.42756221151E+03  0.00000000000E+00 0.  1.
    9000007    1    1    2  501    0  0.14613484260E+03  0.17550874390E+02 -0.24885472218E+02  0.42694579532E+03  0.40000000000E+03 0.  1.
   -9000007    1    1    2    0  502 -0.14613484260E+03 -0.17550874390E+02  0.23578451429E+02  0.42687160691E+03  0.40000000000E+03 0.  1.
<mgrwt>
<rscale>  2 0.42621993E+03</rscale>
<asrwt>0</asrwt>
<pdfrwt beam="1">  1       21 0.65577721E-01 0.42621993E+03</pdfrwt>
<pdfrwt beam="2">  1       21 0.65778802E-01 0.42621993E+03</pdfrwt>
<totfact> 0.40103158E+03</totfact>
</mgrwt>
</event>
<event>
 4    1  0.4897983E-002  0.4121250E+03  0.7818608E-02  0.1039660E+00
         21   -1    0    0  501  502  0.00000000000E+00  0.00000000000E+00  0.60827274709E+03  0.60827274709E+03  0.00000000000E+00 0. -1.
         21   -1    0    0  502  503 -0.00000000000E+00 -0.00000000000E+00 -0.49129525514E+03  0.49129525514E+03  0.00000000000E+00 0. -1.
    9000007    1    1    2  501    0 -0.57555529332E+02  0.80835703345E+02  0.41969658788E+03  0.58821108096E+03  0.40000000000E+03 0. -1.
   -9000007    1    1    2    0  503  0.57555529332E+02 -0.80835703345E+02 -0.30271909593E+03  0.51135692127E+03  0.40000000000E+03 0. -1.
<mgrwt>
<rscale>  2 0.41212504E+03</rscale>
<asrwt>0</asrwt>
<pdfrwt beam="1">  1       21 0.93580422E-01 0.41212504E+03</pdfrwt>
<pdfrwt beam="2">  1       21 0.75583886E-01 0.41212504E+03</pdfrwt>
<totfact> 0.13022367E+03</totfact>
</mgrwt>
</event>
<event>
 4    1  0.4897983E-002  0.4380165E+03  0.7818608E-02  0.1031357E+00
         21   -1    0    0  501  502  0.00000000000E+00  0.00000000000E+00  0.14202297990E+04  0.14202297990E+04  0.00000000000E+00 0. -1.
         21   -1    0    0  502  503 -0.00000000000E+00 -0.00000000000E+00 -0.27817645699E+03  0.27817645699E+03  0.00000000000E+00 0. -1.
    9000007    1    1    2  501    0  0.14995645656E+03  0.96806727384E+02  0.11800740122E+04  0.12587426884E+04  0.40000000000E+03 0. -1.
   -9000007    1    1    2    0  503 -0.14995645656E+03 -0.96806727384E+02 -0.38020670172E+02  0.43966356762E+03  0.40000000000E+03 0. -1.
<mgrwt>
<rscale>  2 0.43801653E+03</rscale>
<asrwt>0</asrwt>
<pdfrwt beam="1">  1       21 0.21849689E+00 0.43801653E+03</pdfrwt>
<pdfrwt beam="2">  1       21 0.42796379E-01 0.43801653E+03</pdfrwt>
<totfact> 0.44358129E+02</totfact>
</mgrwt>
</event>
<event>
 4    1  0.4897983E-002  0.4130107E+03  0.7818608E-02  0.1039365E+00
         21   -1    0    0  503  502  0.00000000000E+00  0.00000000000E+00  0.32645761912E+03  0.32645761912E+03  0.00000000000E+00 0.  1.
         21   -1    0    0  501  503 -0.00000000000E+00 -0.00000000000E+00 -0.70325959323E+03  0.70325959323E+03  0.00000000000E+00 0.  1.
    9000007    1    1    2  501    0 -0.96378389463E+02 -0.35902743169E+02 -0.44941704398E+03  0.61037159202E+03  0.40000000000E+03 0.  1.
   -9000007    1    1    2    0  502  0.96378389463E+02  0.35902743169E+02  0.72615069871E+02  0.41934562034E+03  0.40000000000E+03 0.  1.
<mgrwt>
<rscale>  2 0.41301065E+03</rscale>
<asrwt>0</asrwt>
<pdfrwt beam="1">  1       21 0.50224250E-01 0.41301065E+03</pdfrwt>
<pdfrwt beam="2">  1       21 0.10819378E+00 0.41301065E+03</pdfrwt>
<totfact> 0.22481082E+03</totfact>
</mgrwt>
</event>
<event>
 4    1  0.4897983E-002  0.4363742E+03  0.7818608E-02  0.1031865E+00
         21   -1    0    0  501  502  0.00000000000E+00  0.00000000000E+00  0.78030353677E+03  0.78030353677E+03  0.00000000000E+00 0. -1.
         21   -1    0    0  502  503 -0.00000000000E+00 -0.00000000000E+00 -0.24555239289E+03  0.24555239289E+03  0.00000000000E+00 0. -1.
    9000007    1    1    2  501    0 -0.13005900346E+03  0.11622008723E+03  0.30767837518E+03  0.53393673371E+03  0.40000000000E+03 0. -1.
   -9000007    1    1    2    0  503  0.13005900346E+03 -0.11622008723E+03  0.22707276870E+03  0.49191919594E+03  0.40000000000E+03 0. -1.
<mgrwt>
<rscale>  2 0.43637421E+03</rscale>
<asrwt>0</asrwt>
<pdfrwt beam="1">  1       21 0.12004670E+00 0.43637421E+03</pdfrwt>
<pdfrwt beam="2">  1       21 0.37777292E-01 0.43637421E+03</pdfrwt>
<totfact> 0.31100335E+03</totfact>
</mgrwt>
</event>
<event>
 4    1  0.4897983E-002  0.5059730E+03  0.7818608E-02  0.1012232E+00
         21   -1    0    0  501  502  0.00000000000E+00  0.00000000000E+00  0.29491977096E+03  0.29491977096E+03  0.00000000000E+00 0.  1.
         21   -1    0    0  502  503 -0.00000000000E+00 -0.00000000000E+00 -0.12672755404E+04  0.12672755404E+04  0.00000000000E+00 0.  1.
    9000007    1    1    2  501    0  0.18860496453E+03 -0.24583909280E+03 -0.47776058308E+02  0.50822361608E+03  0.40000000000E+03 0.  1.
   -9000007    1    1    2    0  503 -0.18860496453E+03  0.24583909280E+03 -0.92457971112E+03  0.10539716953E+04  0.40000000000E+03 0.  1.
<mgrwt>
<rscale>  2 0.50597302E+03</rscale>
<asrwt>0</asrwt>
<pdfrwt beam="1">  1       21 0.45372273E-01 0.50597302E+03</pdfrwt>
<pdfrwt beam="2">  1       21 0.19496547E+00 0.50597302E+03</pdfrwt>
<totfact> 0.54304657E+02</totfact>
</mgrwt>
</event>
<event>
 4    1  0.4897983E-002  0.4151305E+03  0.7818608E-02  0.1038663E+00
         21   -1    0    0  501  502  0.00000000000E+00  0.00000000000E+00  0.85750766175E+03  0.85750766175E+03  0.00000000000E+00 0.  1.
         21   -1    0    0  502  503 -0.00000000000E+00 -0.00000000000E+00 -0.28660068802E+03  0.28660068802E+03  0.00000000000E+00 0.  1.
    9000007    1    1    2  501    0 -0.10984436207E+03  0.16357289912E+02  0.59814289689E+03  0.72808534521E+03  0.40000000000E+03 0. -1.
   -9000007    1    1    2    0  503  0.10984436207E+03 -0.16357289912E+02 -0.27235923167E+02  0.41602300456E+03  0.40000000000E+03 0. -1.
<mgrwt>
<rscale>  2 0.41513052E+03</rscale>
<asrwt>0</asrwt>
<pdfrwt beam="1">  1       21 0.13192425E+00 0.41513052E+03</pdfrwt>
<pdfrwt beam="2">  1       21 0.44092414E-01 0.41513052E+03</pdfrwt>
<totfact> 0.17887114E+03</totfact>
</mgrwt>
</event>
<event>
 4    1  0.4897983E-002  0.4012103E+03  0.7818608E-02  0.1043361E+00
         21   -1    0    0  501  502  0.00000000000E+00  0.00000000000E+00  0.62254878855E+03  0.62254878855E+03  0.00000000000E+00 0. -1.
         21   -1    0    0  502  503 -0.00000000000E+00 -0.00000000000E+00 -0.26260683913E+03  0.26260683913E+03  0.00000000000E+00 0. -1.
    9000007    1    1    2  501    0  0.19257858699E+02  0.24470474245E+02  0.23487404645E+03  0.46490373942E+03  0.40000000000E+03 0.  1.
   -9000007    1    1    2    0  503 -0.19257858699E+02 -0.24470474245E+02  0.12506790296E+03  0.42025188826E+03  0.40000000000E+03 0.  1.
<mgrwt>
<rscale>  2 0.40121026E+03</rscale>
<asrwt>0</asrwt>
<pdfrwt beam="1">  1       21 0.95776736E-01 0.40121026E+03</pdfrwt>
<pdfrwt beam="2">  1       21 0.40401052E-01 0.40121026E+03</pdfrwt>
<totfact> 0.47903814E+03</totfact>
</mgrwt>
</event>
<event>
 4    1  0.4897983E-002  0.4127558E+03  0.7818608E-02  0.1039450E+00
         21   -1    0    0  503  502  0.00000000000E+00  0.00000000000E+00  0.58302722081E+03  0.58302722081E+03  0.00000000000E+00 0. -1.
         21   -1    0    0  501  503 -0.00000000000E+00 -0.00000000000E+00 -0.47336141344E+03  0.47336141344E+03  0.00000000000E+00 0. -1.
    9000007    1    1    2  501    0 -0.49958920144E+02  0.88721273351E+02 -0.27191751970E+03  0.49427370512E+03  0.40000000000E+03 0. -1.
   -9000007    1    1    2    0  502  0.49958920144E+02 -0.88721273351E+02  0.38158332708E+03  0.56211492913E+03  0.40000000000E+03 0. -1.
<mgrwt>
<rscale>  2 0.41275581E+03</rscale>
<asrwt>0</asrwt>
<pdfrwt beam="1">  1       21 0.89696496E-01 0.41275581E+03</pdfrwt>
<pdfrwt beam="2">  1       21 0.72824833E-01 0.41275581E+03</pdfrwt>
<totfact> 0.15665297E+03</totfact>
</mgrwt>
</event>
<event>
 4    1  0.4897983E-002  0.5349085E+03  0.7818608E-02  0.1005049E+00
         21   -1    0    0  503  502  0.00000000000E+00  0.00000000000E+00  0.20669039241E+04  0.20669039241E+04  0.00000000000E+00 0.  1.
         21   -1    0    0  501  503 -0.00000000000E+00 -0.00000000000E+00 -0.13849423264E+03  0.13849423264E+03  0.00000000000E+00 0.  1.
    9000007    1    1    2  501    0 -0.27909828958E+03  0.21961606793E+03  0.94096007769E+03  0.10823737526E+04  0.40000000000E+03 0.  1.
   -9000007    1    1    2    0  502  0.27909828958E+03 -0.21961606793E+03  0.98744961380E+03  0.11230244042E+04  0.40000000000E+03 0.  1.
<mgrwt>
<rscale>  2 0.53490847E+03</rscale>
<asrwt>0</asrwt>
<pdfrwt beam="1">  1       21 0.31798520E+00 0.53490847E+03</pdfrwt>
<pdfrwt beam="2">  1       21 0.21306806E-01 0.53490847E+03</pdfrwt>
<totfact> 0.41632982E+02</totfact>
</mgrwt>
</event>
<event>
 4    1  0.4897983E-002  0.4525460E+03  0.7818608E-02  0.1026966E+00
         21   -1    0    0  501  502  0.00000000000E+00  0.00000000000E+00  0.11913784142E+04  0.11913784142E+04  0.00000000000E+00 0.  1.
         21   -1    0    0  502  503 -0.00000000000E+00 -0.00000000000E+00 -0.43315071458E+03  0.43315071458E+03  0.00000000000E+00 0. -1.
    9000007    1    1    2  501    0  0.20062827390E+01  0.21164562410E+03  0.10099357624E+04  0.11066924323E+04  0.40000000000E+03 0.  1.
   -9000007    1    1    2    0  503 -0.20062827390E+01 -0.21164562410E+03 -0.25170806282E+03  0.51783669652E+03  0.40000000000E+03 0. -1.
<mgrwt>
<rscale>  2 0.45254601E+03</rscale>
<asrwt>0</asrwt>
<pdfrwt beam="1">  1       21 0.18328899E+00 0.45254601E+03</pdfrwt>
<pdfrwt beam="2">  1       21 0.66638572E-01 0.45254601E+03</pdfrwt>
<totfact> 0.29153336E+02</totfact>
</mgrwt>
</event>
<event>
 4    1  0.4897983E-002  0.5258584E+03  0.7818608E-02  0.1007242E+00
         21   -1    0    0  503  502  0.00000000000E+00  0.00000000000E+00  0.18693847820E+03  0.18693847820E+03  0.00000000000E+00 0.  1.
         21   -1    0    0  501  503 -0.00000000000E+00 -0.00000000000E+00 -0.14792484545E+04  0.14792484545E+04  0.00000000000E+00 0. -1.
    9000007    1    1    2  501    0 -0.92772841370E+02  0.32851217743E+03 -0.64427770550E+03  0.83163742858E+03  0.40000000000E+03 0.  1.
   -9000007    1    1    2    0  502  0.92772841370E+02 -0.32851217743E+03 -0.64803227078E+03  0.83454950410E+03  0.40000000000E+03 0. -1.
<mgrwt>
<rscale>  2 0.52585839E+03</rscale>
<asrwt>0</asrwt>
<pdfrwt beam="1">  1       21 0.28759764E-01 0.52585839E+03</pdfrwt>
<pdfrwt beam="2">  1       21 0.22757670E+00 0.52585839E+03</pdfrwt>
<totfact> 0.83462838E+02</totfact>
</mgrwt>
</event>
<event>
 4    1  0.4897983E-002  0.4051346E+03  0.7818608E-02  0.1042016E+00
         21   -1    0    0  501  502  0.00000000000E+00  0.00000000000E+00  0.21808409975E+04  0.21808409975E+04  0.00000000000E+00 0.  1.
         21   -1    0    0  502  503 -0.00000000000E+00 -0.00000000000E+00 -0.21807469399E+03  0.21807469399E+03  0.00000000000E+00 0.  1.
    9000007    1    1    2  501    0  0.18483272933E+02 -0.61582502368E+02  0.19520407349E+04  0.19936391515E+04  0.40000000000E+03 0.  1.
   -9000007    1    1    2    0  503 -0.18483272933E+02  0.61582502368E+02  0.10725568591E+02  0.40527653991E+03  0.40000000000E+03 0.  1.
<mgrwt>
<rscale>  2 0.40513459E+03</rscale>
<asrwt>0</asrwt>
<pdfrwt beam="1">  1       21 0.33551398E+00 0.40513459E+03</pdfrwt>
<pdfrwt beam="2">  1       21 0.33549954E-01 0.40513459E+03</pdfrwt>
<totfact> 0.14442988E+02</totfact>
</mgrwt>
</event>
<event>
 4    1  0.4897983E-002  0.4718272E+03  0.7818608E-02  0.1021406E+00
         21   -1    0    0  503  502  0.00000000000E+00  0.00000000000E+00  0.11649956416E+04  0.11649956416E+04  0.00000000000E+00 0. -1.
         21   -1    0    0  501  503 -0.00000000000E+00 -0.00000000000E+00 -0.26511607595E+03  0.26511607595E+03  0.00000000000E+00 0. -1.
    9000007    1    1    2  501    0 -0.24022462589E+03  0.70093309845E+02  0.72098460072E+02  0.47730402357E+03  0.40000000000E+03 0. -1.
   -9000007    1    1    2    0  502  0.24022462589E+03 -0.70093309845E+02  0.82778110563E+03  0.95280769403E+03  0.40000000000E+03 0. -1.
<mgrwt>
<rscale>  2 0.47182724E+03</rscale>
<asrwt>0</asrwt>
<pdfrwt beam="1">  1       21 0.17923010E+00 0.47182724E+03</pdfrwt>
<pdfrwt beam="2">  1       21 0.40787089E-01 0.47182724E+03</pdfrwt>
<totfact> 0.88440138E+02</totfact>
</mgrwt>
</event>
<event>
 4    1  0.4897983E-002  0.6517089E+03  0.7818608E-02  0.9803578E-01
         21   -1    0    0  503  502  0.00000000000E+00  0.00000000000E+00  0.34455169930E+03  0.34455169930E+03  0.00000000000E+00 0.  1.
         21   -1    0    0  501  503 -0.00000000000E+00 -0.00000000000E+00 -0.12444188657E+04  0.12444188657E+04  0.00000000000E+00 0. -1.
    9000007    1    1    2  501    0 -0.29215260041E+03 -0.42352258103E+03 -0.52707360647E+03  0.83817128632E+03  0.40000000000E+03 0. -1.
   -9000007    1    1    2    0  502  0.29215260041E+03  0.42352258103E+03 -0.37279355998E+03  0.75079927872E+03  0.40000000000E+03 0.  1.
<mgrwt>
<rscale>  2 0.65170892E+03</rscale>
<asrwt>0</asrwt>
<pdfrwt beam="1">  1       21 0.53007955E-01 0.65170892E+03</pdfrwt>
<pdfrwt beam="2">  1       21 0.19144905E+00 0.65170892E+03</pdfrwt>
<totfact> 0.39011928E+02</totfact>
</mgrwt>
</event>
<event>
 4    1  0.4897983E-002  0.4339428E+03  0.7818608E-02  0.1032622E+00
         21   -1    0    0  501  502  0.00000000000E+00  0.00000000000E+00  0.21783380555E+03  0.21783380555E+03  0.00000000000E+00 0. -1.
         21   -1    0    0  502  503 -0.00000000000E+00 -0.00000000000E+00 -0.10705877369E+04  0.10705877369E+04  0.00000000000E+00 0. -1.
    9000007    1    1    2  501    0  0.12288118861E+03  0.11492000404E+03 -0.14369650395E+03  0.45711604554E+03  0.40000000000E+03 0. -1.
   -9000007    1    1    2    0  503 -0.12288118861E+03 -0.11492000404E+03 -0.70905742742E+03  0.83130549693E+03  0.40000000000E+03 0. -1.
<mgrwt>
<rscale>  2 0.43394285E+03</rscale>
<asrwt>0</asrwt>
<pdfrwt beam="1">  1       21 0.33512893E-01 0.43394285E+03</pdfrwt>
<pdfrwt beam="2">  1       21 0.16470581E+00 0.43394285E+03</pdfrwt>
<totfact> 0.17089766E+03</totfact>
</mgrwt>
</event>
<event>
 4    1  0.4897983E-002  0.4308949E+03  0.7818608E-02  0.1033578E+00
         21   -1    0    0  503  502  0.00000000000E+00  0.00000000000E+00  0.54486917267E+03  0.54486917267E+03  0.00000000000E+00 0.  1.
         21   -1    0    0  501  503 -0.00000000000E+00 -0.00000000000E+00 -0.39369843866E+03  0.39369843866E+03  0.00000000000E+00 0. -1.
    9000007    1    1    2  501    0  0.14682146872E+01 -0.16021327153E+03  0.24766641663E+03  0.49700010257E+03  0.40000000000E+03 0.  1.
   -9000007    1    1    2    0  502 -0.14682146872E+01  0.16021327153E+03 -0.96495682614E+02  0.44156750876E+03  0.40000000000E+03 0. -1.
<mgrwt>
<rscale>  2 0.43089494E+03</rscale>
<asrwt>0</asrwt>
<pdfrwt beam="1">  1       21 0.83826026E-01 0.43089494E+03</pdfrwt>
<pdfrwt beam="2">  1       21 0.60568991E-01 0.43089494E+03</pdfrwt>
<totfact> 0.27482979E+03</totfact>
</mgrwt>
</event>
<event>
 4    1  0.4897983E-002  0.9375239E+03  0.7818608E-02  0.9379853E-01
         21   -1    0    0  501  502  0.00000000000E+00  0.00000000000E+00  0.10139137983E+04  0.10139137983E+04  0.00000000000E+00 0. -1.
         21   -1    0    0  502  503 -0.00000000000E+00 -0.00000000000E+00 -0.12129346168E+04  0.12129346168E+04  0.00000000000E+00 0.  1.
    9000007    1    1    2  501    0  0.65246425250E+03  0.54151777870E+03 -0.69422473590E+03  0.11665757967E+04  0.40000000000E+03 0.  1.
   -9000007    1    1    2    0  503 -0.65246425250E+03 -0.54151777870E+03  0.49520391738E+03  0.10602726184E+04  0.40000000000E+03 0. -1.
<mgrwt>
<rscale>  2 0.93752392E+03</rscale>
<asrwt>0</asrwt>
<pdfrwt beam="1">  1       21 0.15598674E+00 0.93752392E+03</pdfrwt>
<pdfrwt beam="2">  1       21 0.18660533E+00 0.93752392E+03</pdfrwt>
<totfact> 0.27952404E+01</totfact>
</mgrwt>
</event>
<event>
 4    1  0.4897983E-002  0.4694189E+03  0.7818608E-02  0.1022084E+00
         21   -1    0    0  501  502  0.00000000000E+00  0.00000000000E+00  0.25138266895E+03  0.25138266895E+03  0.00000000000E+00 0. -1.
         21   -1    0    0  502  503 -0.00000000000E+00 -0.00000000000E+00 -0.91148418031E+03  0.91148418031E+03  0.00000000000E+00 0. -1.
    9000007    1    1    2  501    0 -0.12922726405E+03  0.20893636441E+03 -0.21625222800E+03  0.51683567627E+03  0.40000000000E+03 0.  1.
   -9000007    1    1    2    0  503  0.12922726405E+03 -0.20893636441E+03 -0.44384928336E+03  0.64603117300E+03  0.40000000000E+03 0.  1.
<mgrwt>
<rscale>  2 0.46941889E+03</rscale>
<asrwt>0</asrwt>
<pdfrwt beam="1">  1       21 0.38674256E-01 0.46941889E+03</pdfrwt>
<pdfrwt beam="2">  1       21 0.14022834E+00 0.46941889E+03</pdfrwt>
<totfact> 0.19552791E+03</totfact>
</mgrwt>
</event>
<event>
 4    1  0.4897983E-002  0.6607814E+03  0.7818608E-02  0.9786756E-01
         21   -1    0    0  501  502  0.00000000000E+00  0.00000000000E+00  0.17874492779E+04  0.17874492779E+04  0.00000000000E+00 0. -1.
         21   -1    0    0  502  503 -0.00000000000E+00 -0.00000000000E+00 -0.36823788188E+03  0.36823788188E+03  0.00000000000E+00 0. -1.
    9000007    1    1    2  501    0 -0.68971844260E+02 -0.52141630151E+03  0.13349720281E+04  0.14895577835E+04  0.40000000000E+03 0. -1.
   -9000007    1    1    2    0  503  0.68971844260E+02  0.52141630151E+03  0.84239367969E+02  0.66612937625E+03  0.40000000000E+03 0. -1.
<mgrwt>
<rscale>  2 0.66078141E+03</rscale>
<asrwt>0</asrwt>
<pdfrwt beam="1">  1       21 0.27499219E+00 0.66078141E+03</pdfrwt>
<pdfrwt beam="2">  1       21 0.56651983E-01 0.66078141E+03</pdfrwt>
<totfact> 0.97827831E+01</totfact>
</mgrwt>
</event>
<event>
 4    1  0.4897983E-002  0.5240221E+03  0.7818608E-02  0.1007692E+00
         21   -1    0    0  503  502  0.00000000000E+00  0.00000000000E+00  0.11041909662E+04  0.11041909662E+04  0.00000000000E+00 0. -1.
         21   -1    0    0  501  503 -0.00000000000E+00 -0.00000000000E+00 -0.56934313928E+03  0.56934313928E+03  0.00000000000E+00 0. -1.
    9000007    1    1    2  501    0  0.17829720106E+03 -0.28776596166E+03 -0.36054272013E+03  0.63607404729E+03  0.40000000000E+03 0. -1.
   -9000007    1    1    2    0  502 -0.17829720106E+03  0.28776596166E+03  0.89539054704E+03  0.10374600582E+04  0.40000000000E+03 0. -1.
<mgrwt>
<rscale>  2 0.52402208E+03</rscale>
<asrwt>0</asrwt>
<pdfrwt beam="1">  1       21 0.16987553E+00 0.52402208E+03</pdfrwt>
<pdfrwt beam="2">  1       21 0.87591252E-01 0.52402208E+03</pdfrwt>
<totfact> 0.18765897E+02</totfact>
</mgrwt>
</event>
<event>
 4    1  0.4897983E-002  0.5098391E+03  0.7818608E-02  0.1011242E+00
         21   -1    0    0  501  502  0.00000000000E+00  0.00000000000E+00  0.38325935004E+03  0.38325935004E+03  0.00000000000E+00 0.  1.
         21   -1    0    0  502  503 -0.00000000000E+00 -0.00000000000E+00 -0.12853620764E+04  0.12853620764E+04  0.00000000000E+00 0.  1.
    9000007    1    1    2  501    0 -0.29132603041E+03  0.12273986565E+03  0.12234982595E+03  0.52431422880E+03  0.40000000000E+03 0.  1.
   -9000007    1    1    2    0  503  0.29132603041E+03 -0.12273986565E+03 -0.10244525523E+04  0.11443071976E+04  0.40000000000E+03 0.  1.
<mgrwt>
<rscale>  2 0.50983912E+03</rscale>
<asrwt>0</asrwt>
<pdfrwt beam="1">  1       21 0.58962978E-01 0.50983912E+03</pdfrwt>
<pdfrwt beam="2">  1       21 0.19774801E+00 0.50983912E+03</pdfrwt>
<totfact> 0.29595589E+02</totfact>
</mgrwt>
</event>
<event>
 4    1  0.4897983E-002  0.4187577E+03  0.7818608E-02  0.1037471E+00
         21   -1    0    0  503  502  0.00000000000E+00  0.00000000000E+00  0.10541014771E+04  0.10541014771E+04  0.00000000000E+00 0.  1.
         21   -1    0    0  501  503 -0.00000000000E+00 -0.00000000000E+00 -0.19388279223E+03  0.19388279223E+03  0.00000000000E+00 0.  1.
    9000007    1    1    2  501    0  0.72299796864E+02  0.10065162593E+03  0.19499829984E+03  0.46193327156E+03  0.40000000000E+03 0.  1.
   -9000007    1    1    2    0  502 -0.72299796864E+02 -0.10065162593E+03  0.66522038501E+03  0.78605099775E+03  0.40000000000E+03 0.  1.
<mgrwt>
<rscale>  2 0.41875770E+03</rscale>
<asrwt>0</asrwt>
<pdfrwt beam="1">  1       21 0.16216946E+00 0.41875770E+03</pdfrwt>
<pdfrwt beam="2">  1       21 0.29828122E-01 0.41875770E+03</pdfrwt>
<totfact> 0.22669312E+03</totfact>
</mgrwt>
</event>
<event>
 4    1  0.4897983E-002  0.4776516E+03  0.7818608E-02  0.1019783E+00
         21   -1    0    0  501  502  0.00000000000E+00  0.00000000000E+00  0.54457444835E+03  0.54457444835E+03  0.00000000000E+00 0. -1.
         21   -1    0    0  502  503 -0.00000000000E+00 -0.00000000000E+00 -0.47686065451E+03  0.47686065451E+03  0.00000000000E+00 0.  1.
    9000007    1    1    2  501    0 -0.14237095336E+03  0.21881862898E+03  0.21182949890E+03  0.52251585369E+03  0.40000000000E+03 0.  1.
   -9000007    1    1    2    0  503  0.14237095336E+03 -0.21881862898E+03 -0.14411570507E+03  0.49891924917E+03  0.40000000000E+03 0. -1.
<mgrwt>
<rscale>  2 0.47765163E+03</rscale>
<asrwt>0</asrwt>
<pdfrwt beam="1">  1       21 0.83780684E-01 0.47765163E+03</pdfrwt>
<pdfrwt beam="2">  1       21 0.73363178E-01 0.47765163E+03</pdfrwt>
<totfact> 0.17632041E+03</totfact>
</mgrwt>
</event>
<event>
 4    1  0.4897983E-002  0.7233792E+03  0.7818608E-02  0.9678065E-01
         21   -1    0    0  501  502  0.00000000000E+00  0.00000000000E+00  0.99788932138E+03  0.99788932138E+03  0.00000000000E+00 0. -1.
         21   -1    0    0  502  503 -0.00000000000E+00 -0.00000000000E+00 -0.57229784098E+03  0.57229784098E+03  0.00000000000E+00 0. -1.
    9000007    1    1    2  501    0  0.31678355370E+03 -0.51276271477E+03  0.43995991032E+03  0.84666530828E+03  0.40000000000E+03 0. -1.
   -9000007    1    1    2    0  503 -0.31678355370E+03  0.51276271477E+03 -0.14368429924E+02  0.72352185408E+03  0.40000000000E+03 0. -1.
<mgrwt>
<rscale>  2 0.72337917E+03</rscale>
<asrwt>0</asrwt>
<pdfrwt beam="1">  1       21 0.15352143E+00 0.72337917E+03</pdfrwt>
<pdfrwt beam="2">  1       21 0.88045822E-01 0.72337917E+03</pdfrwt>
<totfact> 0.22945598E+02</totfact>
</mgrwt>
</event>
<event>
 4    1  0.4897983E-002  0.5055558E+03  0.7818608E-02  0.1012339E+00
         21   -1    0    0  503  502  0.00000000000E+00  0.00000000000E+00  0.12997878269E+04  0.12997878269E+04  0.00000000000E+00 0.  1.
         21   -1    0    0  501  503 -0.00000000000E+00 -0.00000000000E+00 -0.19961668812E+03  0.19961668812E+03  0.00000000000E+00 0.  1.
    9000007    1    1    2  501    0  0.30228953976E+03  0.64866707904E+02  0.45849299103E+03  0.68249723697E+03  0.40000000000E+03 0.  1.
   -9000007    1    1    2    0  502 -0.30228953976E+03 -0.64866707904E+02  0.64167814775E+03  0.81690727806E+03  0.40000000000E+03 0.  1.
<mgrwt>
<rscale>  2 0.50555579E+03</rscale>
<asrwt>0</asrwt>
<pdfrwt beam="1">  1       21 0.19996735E+00 0.50555579E+03</pdfrwt>
<pdfrwt beam="2">  1       21 0.30710260E-01 0.50555579E+03</pdfrwt>
<totfact> 0.11173241E+03</totfact>
</mgrwt>
</event>
<event>
 4    1  0.4897983E-002  0.4808867E+03  0.7818608E-02  0.1018892E+00
         21   -1    0    0  501  502  0.00000000000E+00  0.00000000000E+00  0.47803412569E+03  0.47803412569E+03  0.00000000000E+00 0.  1.
         21   -1    0    0  502  503 -0.00000000000E+00 -0.00000000000E+00 -0.56422858157E+03  0.56422858157E+03  0.00000000000E+00 0. -1.
    9000007    1    1    2  501    0 -0.20702002182E+03 -0.16850739371E+03  0.15371077565E+03  0.50485545825E+03  0.40000000000E+03 0.  1.
   -9000007    1    1    2    0  503  0.20702002182E+03  0.16850739371E+03 -0.23990523154E+03  0.53740724901E+03  0.40000000000E+03 0. -1.
<mgrwt>
<rscale>  2 0.48088671E+03</rscale>
<asrwt>0</asrwt>
<pdfrwt beam="1">  1       21 0.73543712E-01 0.48088671E+03</pdfrwt>
<pdfrwt beam="2">  1       21 0.86804396E-01 0.48088671E+03</pdfrwt>
<totfact> 0.16115822E+03</totfact>
</mgrwt>
</event>
<event>
 4    1  0.4897983E-002  0.4478599E+03  0.7818608E-02  0.1028362E+00
         21   -1    0    0  501  502  0.00000000000E+00  0.00000000000E+00  0.71489336098E+03  0.71489336098E+03  0.00000000000E+00 0.  1.
         21   -1    0    0  502  503 -0.00000000000E+00 -0.00000000000E+00 -0.34956169444E+03  0.34956169444E+03  0.00000000000E+00 0.  1.
    9000007    1    1    2  501    0 -0.11635722273E+03  0.16443694995E+03  0.41911072254E+03  0.61337778859E+03  0.40000000000E+03 0.  1.
   -9000007    1    1    2    0  503  0.11635722273E+03 -0.16443694995E+03 -0.53779056007E+02  0.45107726683E+03  0.40000000000E+03 0.  1.
<mgrwt>
<rscale>  2 0.44785993E+03</rscale>
<asrwt>0</asrwt>
<pdfrwt beam="1">  1       21 0.10998359E+00 0.44785993E+03</pdfrwt>
<pdfrwt beam="2">  1       21 0.53778722E-01 0.44785993E+03</pdfrwt>
<totfact> 0.18395517E+03</totfact>
</mgrwt>
</event>
<event>
 4    1  0.4897983E-002  0.4148784E+03  0.7818608E-02  0.1038746E+00
         21   -1    0    0  501  502  0.00000000000E+00  0.00000000000E+00  0.55724464235E+03  0.55724464235E+03  0.00000000000E+00 0.  1.
         21   -1    0    0  502  503 -0.00000000000E+00 -0.00000000000E+00 -0.31942953821E+03  0.31942953821E+03  0.00000000000E+00 0.  1.
    9000007    1    1    2  501    0  0.10965790678E+03  0.99599155412E+01  0.39263879694E+02  0.41673217861E+03  0.40000000000E+03 0. -1.
   -9000007    1    1    2    0  503 -0.10965790678E+03 -0.99599155412E+01  0.19855122444E+03  0.45994200196E+03  0.40000000000E+03 0. -1.
<mgrwt>
<rscale>  2 0.41487836E+03</rscale>
<asrwt>0</asrwt>
<pdfrwt beam="1">  1       21 0.85729945E-01 0.41487836E+03</pdfrwt>
<pdfrwt beam="2">  1       21 0.49143006E-01 0.41487836E+03</pdfrwt>
<totfact> 0.41155638E+03</totfact>
</mgrwt>
</event>
<event>
 4    1  0.4897983E-002  0.4118473E+03  0.7818608E-02  0.1039753E+00
         21   -1    0    0  501  502  0.00000000000E+00  0.00000000000E+00  0.12642192910E+04  0.12642192910E+04  0.00000000000E+00 0. -1.
         21   -1    0    0  502  503 -0.00000000000E+00 -0.00000000000E+00 -0.56354384842E+03  0.56354384842E+03  0.00000000000E+00 0. -1.
    9000007    1    1    2  501    0  0.94672274135E+02 -0.25599179145E+02  0.11480471312E+04  0.12196845383E+04  0.40000000000E+03 0. -1.
   -9000007    1    1    2    0  503 -0.94672274135E+02  0.25599179145E+02 -0.44737168858E+03  0.60807860117E+03  0.40000000000E+03 0. -1.
<mgrwt>
<rscale>  2 0.41184725E+03</rscale>
<asrwt>0</asrwt>
<pdfrwt beam="1">  1       21 0.19449528E+00 0.41184725E+03</pdfrwt>
<pdfrwt beam="2">  1       21 0.86699054E-01 0.41184725E+03</pdfrwt>
<totfact> 0.13689261E+02</totfact>
</mgrwt>
</event>
<event>
 4    1  0.4897983E-002  0.7262665E+03  0.7818608E-02  0.9673338E-01
         21   -1    0    0  501  502  0.00000000000E+00  0.00000000000E+00  0.11111311599E+04  0.11111311599E+04  0.00000000000E+00 0.  1.
         21   -1    0    0  502  503 -0.00000000000E+00 -0.00000000000E+00 -0.87185645067E+03  0.87185645067E+03  0.00000000000E+00 0.  1.
    9000007    1    1    2  501    0 -0.59517216875E+03 -0.11503550257E+03  0.78881871797E+03  0.10722397340E+04  0.40000000000E+03 0.  1.
   -9000007    1    1    2    0  503  0.59517216875E+03  0.11503550257E+03 -0.54954400869E+03  0.91074787663E+03  0.40000000000E+03 0.  1.
<mgrwt>
<rscale>  2 0.72626653E+03</rscale>
<asrwt>0</asrwt>
<pdfrwt beam="1">  1       21 0.17094326E+00 0.72626653E+03</pdfrwt>
<pdfrwt beam="2">  1       21 0.13413176E+00 0.72626653E+03</pdfrwt>
<totfact> 0.58646838E+01</totfact>
</mgrwt>
</event>
<event>
 4    1  0.4897983E-002  0.7227985E+03  0.7818608E-02  0.9679019E-01
         21   -1    0    0  503  502  0.00000000000E+00  0.00000000000E+00  0.35014951047E+03  0.35014951047E+03  0.00000000000E+00 0. -1.
         21   -1    0    0  501  503 -0.00000000000E+00 -0.00000000000E+00 -0.16156706951E+04  0.16156706951E+04  0.00000000000E+00 0.  1.
    9000007    1    1    2  501    0  0.37107742390E+02 -0.60088327635E+03 -0.90465321060E+03  0.11579443544E+04  0.40000000000E+03 0.  1.
   -9000007    1    1    2    0  502 -0.37107742390E+02  0.60088327635E+03 -0.36086797407E+03  0.80787585126E+03  0.40000000000E+03 0. -1.
<mgrwt>
<rscale>  2 0.72279852E+03</rscale>
<asrwt>0</asrwt>
<pdfrwt beam="1">  1       21 0.53869155E-01 0.72279852E+03</pdfrwt>
<pdfrwt beam="2">  1       21 0.24856472E+00 0.72279852E+03</pdfrwt>
<totfact> 0.15556079E+02</totfact>
</mgrwt>
</event>
<event>
 4    1  0.4897983E-002  0.4487151E+03  0.7818608E-02  0.1028106E+00
         21   -1    0    0  501  502  0.00000000000E+00  0.00000000000E+00  0.35897085205E+03  0.35897085205E+03  0.00000000000E+00 0. -1.
         21   -1    0    0  502  503 -0.00000000000E+00 -0.00000000000E+00 -0.72369922997E+03  0.72369922997E+03  0.00000000000E+00 0. -1.
    9000007    1    1    2  501    0 -0.20332773581E+03 -0.17591269838E+01  0.74390739038E+02  0.45483980117E+03  0.40000000000E+03 0. -1.
   -9000007    1    1    2    0  503  0.20332773581E+03  0.17591269838E+01 -0.43911911695E+03  0.62783028085E+03  0.40000000000E+03 0. -1.
<mgrwt>
<rscale>  2 0.44871512E+03</rscale>
<asrwt>0</asrwt>
<pdfrwt beam="1">  1       21 0.55226286E-01 0.44871512E+03</pdfrwt>
<pdfrwt beam="2">  1       21 0.11133834E+00 0.44871512E+03</pdfrwt>
<totfact> 0.16846087E+03</totfact>
</mgrwt>
</event>
<event>
 4    1  0.4897983E-002  0.6131408E+03  0.7818608E-02  0.9878512E-01
         21   -1    0    0  503  502  0.00000000000E+00  0.00000000000E+00  0.68518994843E+03  0.68518994843E+03  0.00000000000E+00 0.  1.
         21   -1    0    0  501  503 -0.00000000000E+00 -0.00000000000E+00 -0.56778962025E+03  0.56778962025E+03  0.00000000000E+00 0. -1.
    9000007    1    1    2  501    0  0.22239231109E+03  0.40802365225E+03 -0.56270020579E+02  0.61571743198E+03  0.40000000000E+03 0. -1.
   -9000007    1    1    2    0  502 -0.22239231109E+03 -0.40802365225E+03  0.17367034877E+03  0.63726213670E+03  0.40000000000E+03 0.  1.
<mgrwt>
<rscale>  2 0.61314080E+03</rscale>
<asrwt>0</asrwt>
<pdfrwt beam="1">  1       21 0.10541384E+00 0.61314080E+03</pdfrwt>
<pdfrwt beam="2">  1       21 0.87352250E-01 0.61314080E+03</pdfrwt>
<totfact> 0.64670479E+02</totfact>
</mgrwt>
</event>
<event>
 4    1  0.4897983E-002  0.6116483E+03  0.7818608E-02  0.9881530E-01
         21   -1    0    0  503  502  0.00000000000E+00  0.00000000000E+00  0.26679340660E+03  0.26679340660E+03  0.00000000000E+00 0. -1.
         21   -1    0    0  501  503 -0.00000000000E+00 -0.00000000000E+00 -0.15293884973E+04  0.15293884973E+04  0.00000000000E+00 0. -1.
    9000007    1    1    2  501    0 -0.45311324590E+03 -0.93819018467E+02 -0.89022822517E+03  0.10801018076E+04  0.40000000000E+03 0. -1.
   -9000007    1    1    2    0  502  0.45311324590E+03  0.93819018467E+02 -0.37236686557E+03  0.71608009636E+03  0.40000000000E+03 0. -1.
<mgrwt>
<rscale>  2 0.61164828E+03</rscale>
<asrwt>0</asrwt>
<pdfrwt beam="1">  1       21 0.41045139E-01 0.61164828E+03</pdfrwt>
<pdfrwt beam="2">  1       21 0.23529054E+00 0.61164828E+03</pdfrwt>
<totfact> 0.35006777E+02</totfact>
</mgrwt>
</event>
<event>
 4    1  0.4897983E-002  0.4022300E+03  0.7818608E-02  0.1043010E+00
         21   -1    0    0  501  502  0.00000000000E+00  0.00000000000E+00  0.25077070310E+03  0.25077070310E+03  0.00000000000E+00 0. -1.
         21   -1    0    0  502  503 -0.00000000000E+00 -0.00000000000E+00 -0.66160785602E+03  0.66160785602E+03  0.00000000000E+00 0. -1.
    9000007    1    1    2  501    0  0.41489706624E+02 -0.82198722134E+01 -0.27733167848E+03  0.48857120458E+03  0.40000000000E+03 0. -1.
   -9000007    1    1    2    0  503 -0.41489706624E+02  0.82198722134E+01 -0.13350547444E+03  0.42380735454E+03  0.40000000000E+03 0. -1.
<mgrwt>
<rscale>  2 0.40222999E+03</rscale>
<asrwt>0</asrwt>
<pdfrwt beam="1">  1       21 0.38580108E-01 0.40222999E+03</pdfrwt>
<pdfrwt beam="2">  1       21 0.10178582E+00 0.40222999E+03</pdfrwt>
<totfact> 0.45445016E+03</totfact>
</mgrwt>
</event>
<event>
 4    1  0.4897983E-002  0.4392181E+03  0.7818608E-02  0.1030987E+00
         21   -1    0    0  501  502  0.00000000000E+00  0.00000000000E+00  0.17880381714E+03  0.17880381714E+03  0.00000000000E+00 0. -1.
         21   -1    0    0  502  503 -0.00000000000E+00 -0.00000000000E+00 -0.16598183168E+04  0.16598183168E+04  0.00000000000E+00 0. -1.
    9000007    1    1    2  501    0  0.17737710992E+03 -0.38077368449E+02 -0.12843676964E+04  0.13573919496E+04  0.40000000000E+03 0. -1.
   -9000007    1    1    2    0  503 -0.17737710992E+03  0.38077368449E+02 -0.19664680319E+03  0.48123018433E+03  0.40000000000E+03 0. -1.
<mgrwt>
<rscale>  2 0.43921808E+03</rscale>
<asrwt>0</asrwt>
<pdfrwt beam="1">  1       21 0.27508279E-01 0.43921808E+03</pdfrwt>
<pdfrwt beam="2">  1       21 0.25535667E+00 0.43921808E+03</pdfrwt>
<totfact> 0.63751733E+02</totfact>
</mgrwt>
</event>
<event>
 4    1  0.4897983E-002  0.4843190E+03  0.7818608E-02  0.1017955E+00
         21   -1    0    0  501  502  0.00000000000E+00  0.00000000000E+00  0.16651383125E+04  0.16651383125E+04  0.00000000000E+00 0. -1.
         21   -1    0    0  502  503 -0.00000000000E+00 -0.00000000000E+00 -0.20601539808E+03  0.20601539808E+03  0.00000000000E+00 0. -1.
    9000007    1    1    2  501    0 -0.36698864146E+02  0.27058847703E+03  0.12556728571E+04  0.13458377520E+04  0.40000000000E+03 0. -1.
   -9000007    1    1    2    0  503  0.36698864146E+02 -0.27058847703E+03  0.20345005728E+03  0.52531595858E+03  0.40000000000E+03 0. -1.
<mgrwt>
<rscale>  2 0.48431904E+03</rscale>
<asrwt>0</asrwt>
<pdfrwt beam="1">  1       21 0.25617512E+00 0.48431904E+03</pdfrwt>
<pdfrwt beam="2">  1       21 0.31694678E-01 0.48431904E+03</pdfrwt>
<totfact> 0.46474227E+02</totfact>
</mgrwt>
</event>
<event>
 4    1  0.4897983E-002  0.4299585E+03  0.7818608E-02  0.1033873E+00
         21   -1    0    0  503  502  0.00000000000E+00  0.00000000000E+00  0.15007707705E+04  0.15007707705E+04  0.00000000000E+00 0. -1.
         21   -1    0    0  501  503 -0.00000000000E+00 -0.00000000000E+00 -0.13238853502E+03  0.13238853502E+03  0.00000000000E+00 0.  1.
    9000007    1    1    2  501    0  0.14392590449E+03 -0.64417636636E+02  0.89955793117E+03  0.99702997419E+03  0.40000000000E+03 0. -1.
   -9000007    1    1    2    0  502 -0.14392590449E+03  0.64417636636E+02  0.46882430435E+03  0.63612933138E+03  0.40000000000E+03 0.  1.
<mgrwt>
<rscale>  2 0.42995848E+03</rscale>
<asrwt>0</asrwt>
<pdfrwt beam="1">  1       21 0.23088780E+00 0.42995848E+03</pdfrwt>
<pdfrwt beam="2">  1       21 0.20367468E-01 0.42995848E+03</pdfrwt>
<totfact> 0.16226080E+03</totfact>
</mgrwt>
</event>
<event>
 4    1  0.4897983E-002  0.6793786E+03  0.7818608E-02  0.9753162E-01
         21   -1    0    0  503  502  0.00000000000E+00  0.00000000000E+00  0.48979925120E+03  0.48979925120E+03  0.00000000000E+00 0.  1.
         21   -1    0    0  501  503 -0.00000000000E+00 -0.00000000000E+00 -0.15463656249E+04  0.15463656249E+04  0.00000000000E+00 0. -1.
    9000007    1    1    2  501    0  0.44642858905E+03  0.31977624710E+03 -0.11645746117E+04  0.13482541895E+04  0.40000000000E+03 0. -1.
   -9000007    1    1    2    0  502 -0.44642858905E+03 -0.31977624710E+03  0.10800823794E+03  0.68791068664E+03  0.40000000000E+03 0.  1.
<mgrwt>
<rscale>  2 0.67937864E+03</rscale>
<asrwt>0</asrwt>
<pdfrwt beam="1">  1       21 0.75353731E-01 0.67937864E+03</pdfrwt>
<pdfrwt beam="2">  1       21 0.23790240E+00 0.67937864E+03</pdfrwt>
<totfact> 0.87095055E+01</totfact>
</mgrwt>
</event>
<event>
 4    1  0.4897983E-002  0.5542819E+03  0.7818608E-02  0.1000508E+00
         21   -1    0    0  501  502  0.00000000000E+00  0.00000000000E+00  0.62188775254E+03  0.62188775254E+03  0.00000000000E+00 0. -1.
         21   -1    0    0  502  503 -0.00000000000E+00 -0.00000000000E+00 -0.49755159059E+03  0.49755159059E+03  0.00000000000E+00 0. -1.
    9000007    1    1    2  501    0  0.34099820244E+03  0.17592218308E+03  0.10928752501E+03  0.56495322965E+03  0.40000000000E+03 0. -1.
   -9000007    1    1    2    0  503 -0.34099820244E+03 -0.17592218308E+03  0.15048636933E+02  0.55448611348E+03  0.40000000000E+03 0. -1.
<mgrwt>
<rscale>  2 0.55428187E+03</rscale>
<asrwt>0</asrwt>
<pdfrwt beam="1">  1       21 0.95675038E-01 0.55428187E+03</pdfrwt>
<pdfrwt beam="2">  1       21 0.76546399E-01 0.55428187E+03</pdfrwt>
<totfact> 0.11374220E+03</totfact>
</mgrwt>
</event>
<event>
 4    1  0.4897983E-002  0.4392239E+03  0.7818608E-02  0.1030985E+00
         21   -1    0    0  503  502  0.00000000000E+00  0.00000000000E+00  0.65583012782E+03  0.65583012782E+03  0.00000000000E+00 0.  1.
         21   -1    0    0  501  503 -0.00000000000E+00 -0.00000000000E+00 -0.33234532682E+03  0.33234532682E+03  0.00000000000E+00 0.  1.
    9000007    1    1    2  501    0  0.15255617912E+03  0.98205009053E+02 -0.57401205674E+01  0.43926138070E+03  0.40000000000E+03 0.  1.
   -9000007    1    1    2    0  502 -0.15255617912E+03 -0.98205009053E+02  0.32922492157E+03  0.54891407394E+03  0.40000000000E+03 0.  1.
<mgrwt>
<rscale>  2 0.43922387E+03</rscale>
<asrwt>0</asrwt>
<pdfrwt beam="1">  1       21 0.10089694E+00 0.43922387E+03</pdfrwt>
<pdfrwt beam="2">  1       21 0.51130050E-01 0.43922387E+03</pdfrwt>
<totfact> 0.25426994E+03</totfact>
</mgrwt>
</event>
<event>
 4    1  0.4897983E-002  0.4712331E+03  0.7818608E-02  0.1021573E+00
         21   -1    0    0  501  502  0.00000000000E+00  0.00000000000E+00  0.42640327541E+03  0.42640327541E+03  0.00000000000E+00 0. -1.
         21   -1    0    0  502  503 -0.00000000000E+00 -0.00000000000E+00 -0.89823781427E+03  0.89823781427E+03  0.00000000000E+00 0. -1.
    9000007    1    1    2  501    0  0.85123306965E+02 -0.23412534637E+03  0.19343027780E+03  0.50938779684E+03  0.40000000000E+03 0. -1.
   -9000007    1    1    2    0  503 -0.85123306965E+02  0.23412534637E+03 -0.66526481666E+03  0.81525329284E+03  0.40000000000E+03 0. -1.
<mgrwt>
<rscale>  2 0.47123312E+03</rscale>
<asrwt>0</asrwt>
<pdfrwt beam="1">  1       21 0.65600504E-01 0.47123312E+03</pdfrwt>
<pdfrwt beam="2">  1       21 0.13819043E+00 0.47123312E+03</pdfrwt>
<totfact> 0.65751242E+02</totfact>
</mgrwt>
</event>
<event>
 4    1  0.4897983E-002  0.4726637E+03  0.7818608E-02  0.1021171E+00
         21   -1    0    0  501  502  0.00000000000E+00  0.00000000000E+00  0.73770485327E+03  0.73770485327E+03  0.00000000000E+00 0.  1.
         21   -1    0    0  502  503 -0.00000000000E+00 -0.00000000000E+00 -0.37069409329E+03  0.37069409329E+03  0.00000000000E+00 0.  1.
    9000007    1    1    2  501    0 -0.15708166158E+03 -0.19681545168E+03  0.42060293281E+03  0.63270672315E+03  0.40000000000E+03 0.  1.
   -9000007    1    1    2    0  503  0.15708166158E+03  0.19681545168E+03 -0.53592172836E+02  0.47569222341E+03  0.40000000000E+03 0.  1.
<mgrwt>
<rscale>  2 0.47266370E+03</rscale>
<asrwt>0</asrwt>
<pdfrwt beam="1">  1       21 0.11349305E+00 0.47266370E+03</pdfrwt>
<pdfrwt beam="2">  1       21 0.57029861E-01 0.47266370E+03</pdfrwt>
<totfact> 0.14842746E+03</totfact>
</mgrwt>
</event>
<event>
 4    1  0.4897983E-002  0.4086465E+03  0.7818608E-02  0.1040826E+00
         21   -1    0    0  503  502  0.00000000000E+00  0.00000000000E+00  0.15824087563E+03  0.15824087563E+03  0.00000000000E+00 0. -1.
         21   -1    0    0  501  503 -0.00000000000E+00 -0.00000000000E+00 -0.10722056326E+04  0.10722056326E+04  0.00000000000E+00 0. -1.
    9000007    1    1    2  501    0 -0.83469681206E+02  0.49763320884E+01 -0.53422918869E+03  0.67260149986E+03  0.40000000000E+03 0. -1.
   -9000007    1    1    2    0  502  0.83469681206E+02 -0.49763320884E+01 -0.37973556831E+03  0.55784500840E+03  0.40000000000E+03 0. -1.
<mgrwt>
<rscale>  2 0.40864649E+03</rscale>
<asrwt>0</asrwt>
<pdfrwt beam="1">  1       21 0.24344751E-01 0.40864649E+03</pdfrwt>
<pdfrwt beam="2">  1       21 0.16495471E+00 0.40864649E+03</pdfrwt>
<totfact> 0.32315701E+03</totfact>
</mgrwt>
</event>
<event>
 4    1  0.4897983E-002  0.4315532E+03  0.7818608E-02  0.1033370E+00
         21   -1    0    0  501  502  0.00000000000E+00  0.00000000000E+00  0.17906381682E+04  0.17906381682E+04  0.00000000000E+00 0.  1.
         21   -1    0    0  502  503 -0.00000000000E+00 -0.00000000000E+00 -0.12623784012E+03  0.12623784012E+03  0.00000000000E+00 0.  1.
    9000007    1    1    2  501    0  0.11837048688E+03  0.11057393139E+03  0.12344086312E+04  0.13076707672E+04  0.40000000000E+03 0.  1.
   -9000007    1    1    2    0  503 -0.11837048688E+03 -0.11057393139E+03  0.42999169682E+03  0.60920524112E+03  0.40000000000E+03 0.  1.
<mgrwt>
<rscale>  2 0.43155320E+03</rscale>
<asrwt>0</asrwt>
<pdfrwt beam="1">  1       21 0.27548278E+00 0.43155320E+03</pdfrwt>
<pdfrwt beam="2">  1       21 0.19421207E-01 0.43155320E+03</pdfrwt>
<totfact> 0.94630255E+02</totfact>
</mgrwt>
</event>
<event>
 4    1  0.4897983E-002  0.4131867E+03  0.7818608E-02  0.1039307E+00
         21   -1    0    0  501  502  0.00000000000E+00  0.00000000000E+00  0.10335302153E+03  0.10335302153E+03  0.00000000000E+00 0.  1.
         21   -1    0    0  502  503 -0.00000000000E+00 -0.00000000000E+00 -0.16563057238E+04  0.16563057238E+04  0.00000000000E+00 0.  1.
    9000007    1    1    2  501    0 -0.10176739358E+03  0.19149044390E+02 -0.82213005446E+03  0.92012016321E+03  0.40000000000E+03 0.  1.
   -9000007    1    1    2    0  503  0.10176739358E+03 -0.19149044390E+02 -0.73082264779E+03  0.83953858209E+03  0.40000000000E+03 0.  1.
<mgrwt>
<rscale>  2 0.41318675E+03</rscale>
<asrwt>0</asrwt>
<pdfrwt beam="1">  1       21 0.15900466E-01 0.41318675E+03</pdfrwt>
<pdfrwt beam="2">  1       21 0.25481625E+00 0.41318675E+03</pdfrwt>
<totfact> 0.18554719E+03</totfact>
</mgrwt>
</event>
<event>
 4    1  0.4897983E-002  0.4385025E+03  0.7818608E-02  0.1031207E+00
         21   -1    0    0  503  502  0.00000000000E+00  0.00000000000E+00  0.91352443511E+03  0.91352443511E+03  0.00000000000E+00 0. -1.
         21   -1    0    0  501  503 -0.00000000000E+00 -0.00000000000E+00 -0.26391993809E+03  0.26391993809E+03  0.00000000000E+00 0.  1.
    9000007    1    1    2  501    0  0.16158599313E+03 -0.78577494139E+02  0.59902631512E+02  0.44257516991E+03  0.40000000000E+03 0.  1.
   -9000007    1    1    2    0  502 -0.16158599313E+03  0.78577494139E+02  0.58970186551E+03  0.73486920329E+03  0.40000000000E+03 0. -1.
<mgrwt>
<rscale>  2 0.43850252E+03</rscale>
<asrwt>0</asrwt>
<pdfrwt beam="1">  1       21 0.14054222E+00 0.43850252E+03</pdfrwt>
<pdfrwt beam="2">  1       21 0.40603068E-01 0.43850252E+03</pdfrwt>
<totfact> 0.17798784E+03</totfact>
</mgrwt>
</event>
<event>
 4    1  0.4897983E-002  0.4777810E+03  0.7818608E-02  0.1019747E+00
         21   -1    0    0  501  502  0.00000000000E+00  0.00000000000E+00  0.40761887754E+03  0.40761887754E+03  0.00000000000E+00 0. -1.
         21   -1    0    0  502  503 -0.00000000000E+00 -0.00000000000E+00 -0.59116131113E+03  0.59116131113E+03  0.00000000000E+00 0.  1.
    9000007    1    1    2  501    0  0.18530358814E+03 -0.18422074047E+03  0.22847557164E+02  0.47832699262E+03  0.40000000000E+03 0.  1.
   -9000007    1    1    2    0  503 -0.18530358814E+03  0.18422074047E+03 -0.20638999075E+03  0.52045319605E+03  0.40000000000E+03 0. -1.
<mgrwt>
<rscale>  2 0.47778102E+03</rscale>
<asrwt>0</asrwt>
<pdfrwt beam="1">  1       21 0.62710597E-01 0.47778102E+03</pdfrwt>
<pdfrwt beam="2">  1       21 0.90947894E-01 0.47778102E+03</pdfrwt>
<totfact> 0.20656931E+03</totfact>
</mgrwt>
</event>
<event>
 4    1  0.4897983E-002  0.5135180E+03  0.7818608E-02  0.1010310E+00
         21   -1    0    0  501  502  0.00000000000E+00  0.00000000000E+00  0.47672020806E+03  0.47672020806E+03  0.00000000000E+00 0. -1.
         21   -1    0    0  502  503 -0.00000000000E+00 -0.00000000000E+00 -0.12021129099E+04  0.12021129099E+04  0.00000000000E+00 0.  1.
    9000007    1    1    2  501    0 -0.16921205316E+03  0.27398551226E+03  0.25405873051E+03  0.57292810929E+03  0.40000000000E+03 0. -1.
   -9000007    1    1    2    0  503  0.16921205316E+03 -0.27398551226E+03 -0.97945143238E+03  0.11059050087E+04  0.40000000000E+03 0.  1.
<mgrwt>
<rscale>  2 0.51351804E+03</rscale>
<asrwt>0</asrwt>
<pdfrwt beam="1">  1       21 0.73341570E-01 0.51351804E+03</pdfrwt>
<pdfrwt beam="2">  1       21 0.18494045E+00 0.51351804E+03</pdfrwt>
<totfact> 0.22212851E+02</totfact>
</mgrwt>
</event>
<event>
 4    1  0.4897983E-002  0.4611414E+03  0.7818608E-02  0.1024451E+00
         21   -1    0    0  501  502  0.00000000000E+00  0.00000000000E+00  0.81249851150E+03  0.81249851150E+03  0.00000000000E+00 0.  1.
         21   -1    0    0  502  503 -0.00000000000E+00 -0.00000000000E+00 -0.40147201160E+03  0.40147201160E+03  0.00000000000E+00 0.  1.
    9000007    1    1    2  501    0  0.10131094265E+02  0.22923513140E+03  0.56362730721E+03  0.72823562531E+03  0.40000000000E+03 0.  1.
   -9000007    1    1    2    0  503 -0.10131094265E+02 -0.22923513140E+03 -0.15260080732E+03  0.48573489779E+03  0.40000000000E+03 0.  1.
<mgrwt>
<rscale>  2 0.46114139E+03</rscale>
<asrwt>0</asrwt>
<pdfrwt beam="1">  1       21 0.12499977E+00 0.46114139E+03</pdfrwt>
<pdfrwt beam="2">  1       21 0.61764925E-01 0.46114139E+03</pdfrwt>
<totfact> 0.98010956E+02</totfact>
</mgrwt>
</event>
<event>
 4    1  0.4897983E-002  0.4854024E+03  0.7818608E-02  0.1017661E+00
         21   -1    0    0  503  502  0.00000000000E+00  0.00000000000E+00  0.18855041676E+04  0.18855041676E+04  0.00000000000E+00 0. -1.
         21   -1    0    0  501  503 -0.00000000000E+00 -0.00000000000E+00 -0.13846618199E+03  0.13846618199E+03  0.00000000000E+00 0.  1.
    9000007    1    1    2  501    0  0.20381512768E+03 -0.18459373490E+03  0.55747738235E+03  0.73918636694E+03  0.40000000000E+03 0.  1.
   -9000007    1    1    2    0  502 -0.20381512768E+03  0.18459373490E+03  0.11895606033E+04  0.12847839827E+04  0.40000000000E+03 0. -1.
<mgrwt>
<rscale>  2 0.48540236E+03</rscale>
<asrwt>0</asrwt>
<pdfrwt beam="1">  1       21 0.29007755E+00 0.48540236E+03</pdfrwt>
<pdfrwt beam="2">  1       21 0.21302491E-01 0.48540236E+03</pdfrwt>
<totfact> 0.62962707E+02</totfact>
</mgrwt>
</event>
<event>
 4    1  0.4897983E-002  0.4398100E+03  0.7818608E-02  0.1030805E+00
         21   -1    0    0  503  502  0.00000000000E+00  0.00000000000E+00  0.97801140119E+03  0.97801140119E+03  0.00000000000E+00 0. -1.
         21   -1    0    0  501  503 -0.00000000000E+00 -0.00000000000E+00 -0.20436451461E+03  0.20436451461E+03  0.00000000000E+00 0. -1.
    9000007    1    1    2  501    0  0.15755331155E+02  0.18216631680E+03  0.49292635494E+03  0.66061273741E+03  0.40000000000E+03 0.  1.
   -9000007    1    1    2    0  502 -0.15755331155E+02 -0.18216631680E+03  0.28072053164E+03  0.52176317839E+03  0.40000000000E+03 0.  1.
<mgrwt>
<rscale>  2 0.43980996E+03</rscale>
<asrwt>0</asrwt>
<pdfrwt beam="1">  1       21 0.15046329E+00 0.43980996E+03</pdfrwt>
<pdfrwt beam="2">  1       21 0.31440695E-01 0.43980996E+03</pdfrwt>
<totfact> 0.24878062E+03</totfact>
</mgrwt>
</event>
<event>
 4    1  0.4897983E-002  0.1017634E+04  0.7818608E-02  0.9289413E-01
         21   -1    0    0  501  502  0.00000000000E+00  0.00000000000E+00  0.45181201764E+03  0.45181201764E+03  0.00000000000E+00 0. -1.
         21   -1    0    0  502  503 -0.00000000000E+00 -0.00000000000E+00 -0.23570271811E+04  0.23570271811E+04  0.00000000000E+00 0.  1.
    9000007    1    1    2  501    0 -0.88990324720E+03 -0.28922516773E+03 -0.71943849909E+03  0.12462627095E+04  0.40000000000E+03 0.  1.
   -9000007    1    1    2    0  503  0.88990324720E+03  0.28922516773E+03 -0.11857766643E+04  0.15625764892E+04  0.40000000000E+03 0. -1.
<mgrwt>
<rscale>  2 0.10176340E+04</rscale>
<asrwt>0</asrwt>
<pdfrwt beam="1">  1       21 0.69509543E-01 0.10176340E+04</pdfrwt>
<pdfrwt beam="2">  1       21 0.36261956E+00 0.10176340E+04</pdfrwt>
<totfact> 0.15579692E+01</totfact>
</mgrwt>
</event>
<event>
 4    1  0.4897983E-002  0.5620942E+03  0.7818608E-02  0.9987327E-01
         21   -1    0    0  503  502  0.00000000000E+00  0.00000000000E+00  0.86930173975E+03  0.86930173975E+03  0.00000000000E+00 0.  1.
         21   -1    0    0  501  503 -0.00000000000E+00 -0.00000000000E+00 -0.37037302979E+03  0.37037302979E+03  0.00000000000E+00 0. -1.
    9000007    1    1    2  501    0  0.15973079048E+03  0.36115913436E+03  0.16473588231E+03  0.58573693471E+03  0.40000000000E+03 0. -1.
   -9000007    1    1    2    0  502 -0.15973079048E+03 -0.36115913436E+03  0.33419282765E+03  0.65393783483E+03  0.40000000000E+03 0. -1.
<mgrwt>
<rscale>  2 0.56209416E+03</rscale>
<asrwt>0</asrwt>
<pdfrwt beam="1">  1       21 0.13373873E+00 0.56209416E+03</pdfrwt>
<pdfrwt beam="2">  1       21 0.56980466E-01 0.56209416E+03</pdfrwt>
<totfact> 0.94531018E+02</totfact>
</mgrwt>
</event>
<event>
 4    1  0.4897983E-002  0.5120958E+03  0.7818608E-02  0.1010669E+00
         21   -1    0    0  501  502  0.00000000000E+00  0.00000000000E+00  0.12477212333E+04  0.12477212333E+04  0.00000000000E+00 0. -1.
         21   -1    0    0  502  503 -0.00000000000E+00 -0.00000000000E+00 -0.33860348294E+03  0.33860348294E+03  0.00000000000E+00 0.  1.
    9000007    1    1    2  501    0  0.26304585927E+03  0.18179366765E+03 -0.33918001407E+02  0.51321778272E+03  0.40000000000E+03 0.  1.
   -9000007    1    1    2    0  503 -0.26304585927E+03 -0.18179366765E+03  0.94303575181E+03  0.10731069336E+04  0.40000000000E+03 0. -1.
<mgrwt>
<rscale>  2 0.51209575E+03</rscale>
<asrwt>0</asrwt>
<pdfrwt beam="1">  1       21 0.19195711E+00 0.51209575E+03</pdfrwt>
<pdfrwt beam="2">  1       21 0.52092844E-01 0.51209575E+03</pdfrwt>
<totfact> 0.42345753E+02</totfact>
</mgrwt>
</event>
<event>
 4    1  0.4897983E-002  0.4803798E+03  0.7818608E-02  0.1019031E+00
         21   -1    0    0  503  502  0.00000000000E+00  0.00000000000E+00  0.22480721613E+03  0.22480721613E+03  0.00000000000E+00 0.  1.
         21   -1    0    0  501  503 -0.00000000000E+00 -0.00000000000E+00 -0.12221593969E+04  0.12221593969E+04  0.00000000000E+00 0.  1.
    9000007    1    1    2  501    0  0.20297405935E+03 -0.17194839707E+03 -0.78815330704E+03  0.92301156841E+03  0.40000000000E+03 0.  1.
   -9000007    1    1    2    0  502 -0.20297405935E+03  0.17194839707E+03 -0.20919887376E+03  0.52395504464E+03  0.40000000000E+03 0.  1.
<mgrwt>
<rscale>  2 0.48037977E+03</rscale>
<asrwt>0</asrwt>
<pdfrwt beam="1">  1       21 0.34585725E-01 0.48037977E+03</pdfrwt>
<pdfrwt beam="2">  1       21 0.18802452E+00 0.48037977E+03</pdfrwt>
<totfact> 0.10717485E+03</totfact>
</mgrwt>
</event>
<event>
 4    1  0.4897983E-002  0.5260138E+03  0.7818608E-02  0.1007203E+00
         21   -1    0    0  503  502  0.00000000000E+00  0.00000000000E+00  0.38311027133E+03  0.38311027133E+03  0.00000000000E+00 0.  1.
         21   -1    0    0  501  503 -0.00000000000E+00 -0.00000000000E+00 -0.75987646154E+03  0.75987646154E+03  0.00000000000E+00 0. -1.
    9000007    1    1    2  501    0  0.30747550594E+03  0.14882663314E+03 -0.31560140392E+03  0.61342872417E+03  0.40000000000E+03 0.  1.
   -9000007    1    1    2    0  502 -0.30747550594E+03 -0.14882663314E+03 -0.61164786293E+02  0.52955800869E+03  0.40000000000E+03 0.  1.
<mgrwt>
<rscale>  2 0.52601383E+03</rscale>
<asrwt>0</asrwt>
<pdfrwt beam="1">  1       21 0.58940043E-01 0.52601383E+03</pdfrwt>
<pdfrwt beam="2">  1       21 0.11690407E+00 0.52601383E+03</pdfrwt>
<totfact> 0.12580873E+03</totfact>
</mgrwt>
</event>
<event>
 4    1  0.4897983E-002  0.5205965E+03  0.7818608E-02  0.1008538E+00
         21   -1    0    0  503  502  0.00000000000E+00  0.00000000000E+00  0.23688836845E+03  0.23688836845E+03  0.00000000000E+00 0.  1.
         21   -1    0    0  501  503 -0.00000000000E+00 -0.00000000000E+00 -0.14312934202E+04  0.14312934202E+04  0.00000000000E+00 0. -1.
    9000007    1    1    2  501    0 -0.19072092477E+03 -0.27321467129E+03 -0.97083677010E+03  0.11016100771E+04  0.40000000000E+03 0. -1.
   -9000007    1    1    2    0  502  0.19072092477E+03  0.27321467129E+03 -0.22356828162E+03  0.56657171152E+03  0.40000000000E+03 0.  1.
<mgrwt>
<rscale>  2 0.52059651E+03</rscale>
<asrwt>0</asrwt>
<pdfrwt beam="1">  1       21 0.36444364E-01 0.52059651E+03</pdfrwt>
<pdfrwt beam="2">  1       21 0.22019899E+00 0.52059651E+03</pdfrwt>
<totfact> 0.57908286E+02</totfact>
</mgrwt>
</event>
<event>
 4    1  0.4897983E-002  0.4295052E+03  0.7818608E-02  0.1034016E+00
         21   -1    0    0  501  502  0.00000000000E+00  0.00000000000E+00  0.15311656388E+04  0.15311656388E+04  0.00000000000E+00 0.  1.
         21   -1    0    0  502  503 -0.00000000000E+00 -0.00000000000E+00 -0.15678176938E+03  0.15678176938E+03  0.00000000000E+00 0.  1.
    9000007    1    1    2  501    0 -0.15059246644E+03  0.42386448310E+02  0.10933036853E+04  0.11746436269E+04  0.40000000000E+03 0.  1.
   -9000007    1    1    2    0  503  0.15059246644E+03 -0.42386448310E+02  0.28108018412E+03  0.51330378126E+03  0.40000000000E+03 0.  1.
<mgrwt>
<rscale>  2 0.42950518E+03</rscale>
<asrwt>0</asrwt>
<pdfrwt beam="1">  1       21 0.23556393E+00 0.42950518E+03</pdfrwt>
<pdfrwt beam="2">  1       21 0.24120273E-01 0.42950518E+03</pdfrwt>
<totfact> 0.10964844E+03</totfact>
</mgrwt>
</event>
<event>
 4    1  0.4897983E-002  0.5077298E+03  0.7818608E-02  0.1011781E+00
         21   -1    0    0  501  502  0.00000000000E+00  0.00000000000E+00  0.19532518689E+03  0.19532518689E+03  0.00000000000E+00 0.  1.
         21   -1    0    0  502  503 -0.00000000000E+00 -0.00000000000E+00 -0.14015148395E+04  0.14015148395E+04  0.00000000000E+00 0. -1.
    9000007    1    1    2  501    0 -0.25900048200E+03  0.17523772410E+03 -0.41030142160E+03  0.65279151817E+03  0.40000000000E+03 0. -1.
   -9000007    1    1    2    0  503  0.25900048200E+03 -0.17523772410E+03 -0.79588823097E+03  0.94404850819E+03  0.40000000000E+03 0. -1.
<mgrwt>
<rscale>  2 0.50772976E+03</rscale>
<asrwt>0</asrwt>
<pdfrwt beam="1">  1       21 0.30050028E-01 0.50772976E+03</pdfrwt>
<pdfrwt beam="2">  1       21 0.21561767E+00 0.50772976E+03</pdfrwt>
<totfact> 0.91950017E+02</totfact>
</mgrwt>
</event>
<event>
 4    1  0.4897983E-002  0.5814130E+03  0.7818608E-02  0.9944736E-01
         21   -1    0    0  501  502  0.00000000000E+00  0.00000000000E+00  0.68967905584E+03  0.68967905584E+03  0.00000000000E+00 0. -1.
         21   -1    0    0  502  503 -0.00000000000E+00 -0.00000000000E+00 -0.75754415759E+03  0.75754415759E+03  0.00000000000E+00 0.  1.
    9000007    1    1    2  501    0 -0.63071588639E+02  0.41720869601E+03  0.39598331415E+03  0.70345142434E+03  0.40000000000E+03 0. -1.
   -9000007    1    1    2    0  503  0.63071588639E+02 -0.41720869601E+03 -0.46384841590E+03  0.74377178909E+03  0.40000000000E+03 0.  1.
<mgrwt>
<rscale>  2 0.58141304E+03</rscale>
<asrwt>0</asrwt>
<pdfrwt beam="1">  1       21 0.10610447E+00 0.58141304E+03</pdfrwt>
<pdfrwt beam="2">  1       21 0.11654526E+00 0.58141304E+03</pdfrwt>
<totfact> 0.31719579E+02</totfact>
</mgrwt>
</event>
<event>
 4    1  0.4897983E-002  0.5372502E+03  0.7818608E-02  0.1004489E+00
         21   -1    0    0  501  502  0.00000000000E+00  0.00000000000E+00  0.22112827980E+04  0.22112827980E+04  0.00000000000E+00 0.  1.
         21   -1    0    0  502  503 -0.00000000000E+00 -0.00000000000E+00 -0.13187575084E+03  0.13187575084E+03  0.00000000000E+00 0.  1.
    9000007    1    1    2  501    0 -0.26210307641E+03  0.24482601518E+03  0.92133387564E+03  0.10665335957E+04  0.40000000000E+03 0.  1.
   -9000007    1    1    2    0  503  0.26210307641E+03 -0.24482601518E+03  0.11580731715E+04  0.12766249531E+04  0.40000000000E+03 0.  1.
<mgrwt>
<rscale>  2 0.53725022E+03</rscale>
<asrwt>0</asrwt>
<pdfrwt beam="1">  1       21 0.34019733E+00 0.53725022E+03</pdfrwt>
<pdfrwt beam="2">  1       21 0.20288579E-01 0.53725022E+03</pdfrwt>
<totfact> 0.33426009E+02</totfact>
</mgrwt>
</event>
<event>
 4    1  0.4897983E-002  0.4336589E+03  0.7818608E-02  0.1032710E+00
         21   -1    0    0  501  502  0.00000000000E+00  0.00000000000E+00  0.10049192944E+04  0.10049192944E+04  0.00000000000E+00 0. -1.
         21   -1    0    0  502  503 -0.00000000000E+00 -0.00000000000E+00 -0.42046116389E+03  0.42046116389E+03  0.00000000000E+00 0. -1.
    9000007    1    1    2  501    0 -0.89276531552E+02  0.14173835355E+03 -0.23867423480E+03  0.49500045486E+03  0.40000000000E+03 0. -1.
   -9000007    1    1    2    0  503  0.89276531552E+02 -0.14173835355E+03  0.82313236529E+03  0.93038000341E+03  0.40000000000E+03 0. -1.
<mgrwt>
<rscale>  2 0.43365892E+03</rscale>
<asrwt>0</asrwt>
<pdfrwt beam="1">  1       21 0.15460297E+00 0.43365892E+03</pdfrwt>
<pdfrwt beam="2">  1       21 0.64686334E-01 0.43365892E+03</pdfrwt>
<totfact> 0.50987265E+02</totfact>
</mgrwt>
</event>
<event>
 4    1  0.4897983E-002  0.4022983E+03  0.7818608E-02  0.1042987E+00
         21   -1    0    0  503  502  0.00000000000E+00  0.00000000000E+00  0.57476956790E+03  0.57476956790E+03  0.00000000000E+00 0.  1.
         21   -1    0    0  501  503 -0.00000000000E+00 -0.00000000000E+00 -0.28871450985E+03  0.28871450985E+03  0.00000000000E+00 0.  1.
    9000007    1    1    2  501    0  0.18881804221E+02 -0.38566723010E+02  0.75160907288E+02  0.40925918027E+03  0.40000000000E+03 0.  1.
   -9000007    1    1    2    0  502 -0.18881804221E+02  0.38566723010E+02  0.21089415076E+03  0.45422489747E+03  0.40000000000E+03 0.  1.
<mgrwt>
<rscale>  2 0.40229829E+03</rscale>
<asrwt>0</asrwt>
<pdfrwt beam="1">  1       21 0.88426087E-01 0.40229829E+03</pdfrwt>
<pdfrwt beam="2">  1       21 0.44417617E-01 0.40229829E+03</pdfrwt>
<totfact> 0.47555576E+03</totfact>
</mgrwt>
</event>
<event>
 4    1  0.4897983E-002  0.6078396E+03  0.7818608E-02  0.9889274E-01
         21   -1    0    0  503  502  0.00000000000E+00  0.00000000000E+00  0.20547783507E+03  0.20547783507E+03  0.00000000000E+00 0.  1.
         21   -1    0    0  501  503 -0.00000000000E+00 -0.00000000000E+00 -0.18045385092E+04  0.18045385092E+04  0.00000000000E+00 0. -1.
    9000007    1    1    2  501    0  0.22609680307E+02 -0.45711898965E+03 -0.73948235002E+03  0.95723722991E+03  0.40000000000E+03 0. -1.
   -9000007    1    1    2    0  502 -0.22609680307E+02  0.45711898965E+03 -0.85957832410E+03  0.10527791143E+04  0.40000000000E+03 0. -1.
<mgrwt>
<rscale>  2 0.60783959E+03</rscale>
<asrwt>0</asrwt>
<pdfrwt beam="1">  1       21 0.31611974E-01 0.60783959E+03</pdfrwt>
<pdfrwt beam="2">  1       21 0.27762132E+00 0.60783959E+03</pdfrwt>
<totfact> 0.32669079E+02</totfact>
</mgrwt>
</event>
<event>
 4    1  0.4897983E-002  0.4888335E+03  0.7818608E-02  0.1016735E+00
         21   -1    0    0  501  502  0.00000000000E+00  0.00000000000E+00  0.77448664802E+03  0.77448664802E+03  0.00000000000E+00 0. -1.
         21   -1    0    0  502  503 -0.00000000000E+00 -0.00000000000E+00 -0.51879963337E+03  0.51879963337E+03  0.00000000000E+00 0. -1.
    9000007    1    1    2  501    0  0.81698879623E+02 -0.26885593702E+03  0.53950980598E+03  0.72803094203E+03  0.40000000000E+03 0. -1.
   -9000007    1    1    2    0  503 -0.81698879623E+02  0.26885593702E+03 -0.28382279133E+03  0.56525533936E+03  0.40000000000E+03 0. -1.
<mgrwt>
<rscale>  2 0.48883353E+03</rscale>
<asrwt>0</asrwt>
<pdfrwt beam="1">  1       21 0.11915179E+00 0.48883353E+03</pdfrwt>
<pdfrwt beam="2">  1       21 0.79815328E-01 0.48883353E+03</pdfrwt>
<totfact> 0.61425415E+02</totfact>
</mgrwt>
</event>
<event>
 4    1  0.4897983E-002  0.4081203E+03  0.7818608E-02  0.1041004E+00
         21   -1    0    0  501  502  0.00000000000E+00  0.00000000000E+00  0.15409514873E+04  0.15409514873E+04  0.00000000000E+00 0.  1.
         21   -1    0    0  502  503 -0.00000000000E+00 -0.00000000000E+00 -0.11643238658E+03  0.11643238658E+03  0.00000000000E+00 0.  1.
    9000007    1    1    2  501    0  0.63813523895E+02  0.49900094205E+02  0.93407351581E+03  0.10193407272E+04  0.40000000000E+03 0.  1.
   -9000007    1    1    2    0  503 -0.63813523895E+02 -0.49900094205E+02  0.49044558488E+03  0.63804314663E+03  0.40000000000E+03 0.  1.
<mgrwt>
<rscale>  2 0.40812031E+03</rscale>
<asrwt>0</asrwt>
<pdfrwt beam="1">  1       21 0.23706945E+00 0.40812031E+03</pdfrwt>
<pdfrwt beam="2">  1       21 0.17912676E-01 0.40812031E+03</pdfrwt>
<totfact> 0.19135000E+03</totfact>
</mgrwt>
</event>
<event>
 4    1  0.4897983E-002  0.6042137E+03  0.7818608E-02  0.9896702E-01
         21   -1    0    0  503  502  0.00000000000E+00  0.00000000000E+00  0.16344774971E+03  0.16344774971E+03  0.00000000000E+00 0.  1.
         21   -1    0    0  501  503 -0.00000000000E+00 -0.00000000000E+00 -0.25693584821E+04  0.25693584821E+04  0.00000000000E+00 0.  1.
    9000007    1    1    2  501    0  0.45198990356E+03 -0.27916507628E+02 -0.16969140565E+04  0.18012749705E+04  0.40000000000E+03 0.  1.
   -9000007    1    1    2    0  502 -0.45198990356E+03  0.27916507628E+02 -0.70899667595E+03  0.93153126133E+03  0.40000000000E+03 0.  1.
<mgrwt>
<rscale>  2 0.60421371E+03</rscale>
<asrwt>0</asrwt>
<pdfrwt beam="1">  1       21 0.25145810E-01 0.60421371E+03</pdfrwt>
<pdfrwt beam="2">  1       21 0.39528589E+00 0.60421371E+03</pdfrwt>
<totfact> 0.96107357E+01</totfact>
</mgrwt>
</event>
<event>
 4    1  0.4897983E-002  0.5706853E+03  0.7818608E-02  0.9968163E-01
         21   -1    0    0  503  502  0.00000000000E+00  0.00000000000E+00  0.36791062707E+03  0.36791062707E+03  0.00000000000E+00 0.  1.
         21   -1    0    0  501  503 -0.00000000000E+00 -0.00000000000E+00 -0.11981876851E+04  0.11981876851E+04  0.00000000000E+00 0.  1.
    9000007    1    1    2  501    0  0.36650536620E+03 -0.17707488759E+03 -0.81533810511E+03  0.99521752643E+03  0.40000000000E+03 0.  1.
   -9000007    1    1    2    0  502 -0.36650536620E+03  0.17707488759E+03 -0.14938952973E+02  0.57088078579E+03  0.40000000000E+03 0.  1.
<mgrwt>
<rscale>  2 0.57068529E+03</rscale>
<asrwt>0</asrwt>
<pdfrwt beam="1">  1       21 0.56601634E-01 0.57068529E+03</pdfrwt>
<pdfrwt beam="2">  1       21 0.18433657E+00 0.57068529E+03</pdfrwt>
<totfact> 0.39022276E+02</totfact>
</mgrwt>
</event>
<event>
 4    1  0.4897983E-002  0.4635418E+03  0.7818608E-02  0.1023759E+00
         21   -1    0    0  503  502  0.00000000000E+00  0.00000000000E+00  0.35670107971E+03  0.35670107971E+03  0.00000000000E+00 0. -1.
         21   -1    0    0  501  503 -0.00000000000E+00 -0.00000000000E+00 -0.62470390101E+03  0.62470390101E+03  0.00000000000E+00 0.  1.
    9000007    1    1    2  501    0  0.81022572348E+02 -0.21978711359E+03 -0.22675421105E+03  0.51603149590E+03  0.40000000000E+03 0.  1.
   -9000007    1    1    2    0  502 -0.81022572348E+02  0.21978711359E+03 -0.41248610246E+02  0.46537348483E+03  0.40000000000E+03 0. -1.
<mgrwt>
<rscale>  2 0.46354183E+03</rscale>
<asrwt>0</asrwt>
<pdfrwt beam="1">  1       21 0.54877090E-01 0.46354183E+03</pdfrwt>
<pdfrwt beam="2">  1       21 0.96108292E-01 0.46354183E+03</pdfrwt>
<totfact> 0.24355232E+03</totfact>
</mgrwt>
</event>
<event>
 4    1  0.4897983E-002  0.4354302E+03  0.7818608E-02  0.1032158E+00
         21   -1    0    0  503  502  0.00000000000E+00  0.00000000000E+00  0.12272214936E+04  0.12272214936E+04  0.00000000000E+00 0. -1.
         21   -1    0    0  501  503 -0.00000000000E+00 -0.00000000000E+00 -0.16279827340E+03  0.16279827340E+03  0.00000000000E+00 0.  1.
    9000007    1    1    2  501    0 -0.12554118823E+03  0.11763887609E+03  0.37525028358E+03  0.57481498801E+03  0.40000000000E+03 0.  1.
   -9000007    1    1    2    0  502  0.12554118823E+03 -0.11763887609E+03  0.68917293662E+03  0.81520477899E+03  0.40000000000E+03 0. -1.
<mgrwt>
<rscale>  2 0.43543024E+03</rscale>
<asrwt>0</asrwt>
<pdfrwt beam="1">  1       21 0.18880330E+00 0.43543024E+03</pdfrwt>
<pdfrwt beam="2">  1       21 0.25045889E-01 0.43543024E+03</pdfrwt>
<totfact> 0.20467928E+03</totfact>
</mgrwt>
</event>
<event>
 4    1  0.4897983E-002  0.7825667E+03  0.7818608E-02  0.9585600E-01
         21   -1    0    0  503  502  0.00000000000E+00  0.00000000000E+00  0.13392588475E+04  0.13392588475E+04  0.00000000000E+00 0.  1.
         21   -1    0    0  501  503 -0.00000000000E+00 -0.00000000000E+00 -0.73696676776E+03  0.73696676776E+03  0.00000000000E+00 0. -1.
    9000007    1    1    2  501    0 -0.64444923941E+03  0.19260287653E+03 -0.33838230921E+03  0.85259209322E+03  0.40000000000E+03 0. -1.
   -9000007    1    1    2    0  502  0.64444923941E+03 -0.19260287653E+03  0.94067438893E+03  0.12236335220E+04  0.40000000000E+03 0.  1.
<mgrwt>
<rscale>  2 0.78256673E+03</rscale>
<asrwt>0</asrwt>
<pdfrwt beam="1">  1       21 0.20603982E+00 0.78256673E+03</pdfrwt>
<pdfrwt beam="2">  1       21 0.11337950E+00 0.78256673E+03</pdfrwt>
<totfact> 0.50456682E+01</totfact>
</mgrwt>
</event>
<event>
 4    1  0.4897983E-002  0.4502580E+03  0.7818608E-02  0.1027645E+00
         21   -1    0    0  501  502  0.00000000000E+00  0.00000000000E+00  0.80717444317E+03  0.80717444317E+03  0.00000000000E+00 0. -1.
         21   -1    0    0  502  503 -0.00000000000E+00 -0.00000000000E+00 -0.25270273203E+03  0.25270273203E+03  0.00000000000E+00 0. -1.
    9000007    1    1    2  501    0  0.13385127552E+03  0.15753127984E+03  0.23586845088E+03  0.50829734822E+03  0.40000000000E+03 0. -1.
   -9000007    1    1    2    0  503 -0.13385127552E+03 -0.15753127984E+03  0.31860326027E+03  0.55157982699E+03  0.40000000000E+03 0. -1.
<mgrwt>
<rscale>  2 0.45025800E+03</rscale>
<asrwt>0</asrwt>
<pdfrwt beam="1">  1       21 0.12418068E+00 0.45025800E+03</pdfrwt>
<pdfrwt beam="2">  1       21 0.38877344E-01 0.45025800E+03</pdfrwt>
<totfact> 0.26755711E+03</totfact>
</mgrwt>
</event>
<event>
 4    1  0.4897983E-002  0.6233413E+03  0.7818608E-02  0.9858130E-01
         21   -1    0    0  501  502  0.00000000000E+00  0.00000000000E+00  0.12841403307E+04  0.12841403307E+04  0.00000000000E+00 0.  1.
         21   -1    0    0  502  503 -0.00000000000E+00 -0.00000000000E+00 -0.31128669573E+03  0.31128669573E+03  0.00000000000E+00 0. -1.
    9000007    1    1    2  501    0 -0.36196365410E+03  0.31230868535E+03  0.61984299410E+03  0.87906753959E+03  0.40000000000E+03 0.  1.
   -9000007    1    1    2    0  503  0.36196365410E+03 -0.31230868535E+03  0.35301064091E+03  0.71635948687E+03  0.40000000000E+03 0. -1.
<mgrwt>
<rscale>  2 0.62334132E+03</rscale>
<asrwt>0</asrwt>
<pdfrwt beam="1">  1       21 0.19756005E+00 0.62334132E+03</pdfrwt>
<pdfrwt beam="2">  1       21 0.47890262E-01 0.62334132E+03</pdfrwt>
<totfact> 0.44466224E+02</totfact>
</mgrwt>
</event>
<event>
 4    1  0.4897983E-002  0.4773128E+03  0.7818608E-02  0.1019876E+00
         21   -1    0    0  503  502  0.00000000000E+00  0.00000000000E+00  0.29833620621E+03  0.29833620621E+03  0.00000000000E+00 0.  1.
         21   -1    0    0  501  503 -0.00000000000E+00 -0.00000000000E+00 -0.21805922286E+04  0.21805922286E+04  0.00000000000E+00 0. -1.
    9000007    1    1    2  501    0 -0.24018405034E+03  0.10069333611E+03 -0.19402562919E+04  0.19981046030E+04  0.40000000000E+03 0. -1.
   -9000007    1    1    2    0  502  0.24018405034E+03 -0.10069333611E+03  0.58000269574E+02  0.48082383182E+03  0.40000000000E+03 0.  1.
<mgrwt>
<rscale>  2 0.47731282E+03</rscale>
<asrwt>0</asrwt>
<pdfrwt beam="1">  1       21 0.45897878E-01 0.47731282E+03</pdfrwt>
<pdfrwt beam="2">  1       21 0.33547573E+00 0.47731282E+03</pdfrwt>
<totfact> 0.72247930E+01</totfact>
</mgrwt>
</event>
<event>
 4    1  0.4897983E-002  0.4073579E+03  0.7818608E-02  0.1041261E+00
         21   -1    0    0  503  502  0.00000000000E+00  0.00000000000E+00  0.19376313749E+03  0.19376313749E+03  0.00000000000E+00 0.  1.
         21   -1    0    0  501  503 -0.00000000000E+00 -0.00000000000E+00 -0.88452483438E+03  0.88452483438E+03  0.00000000000E+00 0.  1.
    9000007    1    1    2  501    0  0.34923003749E+02  0.68708626985E+02 -0.24925828035E+03  0.47756693975E+03  0.40000000000E+03 0.  1.
   -9000007    1    1    2    0  502 -0.34923003749E+02 -0.68708626985E+02 -0.44150341654E+03  0.60072103212E+03  0.40000000000E+03 0.  1.
<mgrwt>
<rscale>  2 0.40735794E+03</rscale>
<asrwt>0</asrwt>
<pdfrwt beam="1">  1       21 0.29809713E-01 0.40735794E+03</pdfrwt>
<pdfrwt beam="2">  1       21 0.13608075E+00 0.40735794E+03</pdfrwt>
<totfact> 0.36646523E+03</totfact>
</mgrwt>
</event>
<event>
 4    1  0.4897983E-002  0.4604279E+03  0.7818608E-02  0.1024657E+00
         21   -1    0    0  501  502  0.00000000000E+00  0.00000000000E+00  0.29519411171E+03  0.29519411171E+03  0.00000000000E+00 0. -1.
         21   -1    0    0  502  503 -0.00000000000E+00 -0.00000000000E+00 -0.11444608606E+04  0.11444608606E+04  0.00000000000E+00 0. -1.
    9000007    1    1    2  501    0  0.37864230326E+01  0.22799015748E+03  0.14696575479E+02  0.46066239074E+03  0.40000000000E+03 0. -1.
   -9000007    1    1    2    0  503 -0.37864230326E+01 -0.22799015748E+03 -0.86396332432E+03  0.97899258153E+03  0.40000000000E+03 0. -1.
<mgrwt>
<rscale>  2 0.46042790E+03</rscale>
<asrwt>0</asrwt>
<pdfrwt beam="1">  1       21 0.45414478E-01 0.46042790E+03</pdfrwt>
<pdfrwt beam="2">  1       21 0.17607090E+00 0.46042790E+03</pdfrwt>
<totfact> 0.74830760E+02</totfact>
</mgrwt>
</event>
<event>
 4    1  0.4897983E-002  0.6469681E+03  0.7818608E-02  0.9812485E-01
         21   -1    0    0  503  502  0.00000000000E+00  0.00000000000E+00  0.13979262550E+04  0.13979262550E+04  0.00000000000E+00 0.  1.
         21   -1    0    0  501  503 -0.00000000000E+00 -0.00000000000E+00 -0.34630377107E+03  0.34630377107E+03  0.00000000000E+00 0.  1.
    9000007    1    1    2  501    0 -0.19741705628E+03 -0.46860885851E+03  0.20492272416E+03  0.67864650538E+03  0.40000000000E+03 0.  1.
   -9000007    1    1    2    0  502  0.19741705628E+03  0.46860885851E+03  0.84669975980E+03  0.10655835207E+04  0.40000000000E+03 0.  1.
<mgrwt>
<rscale>  2 0.64696813E+03</rscale>
<asrwt>0</asrwt>
<pdfrwt beam="1">  1       21 0.21506557E+00 0.64696813E+03</pdfrwt>
<pdfrwt beam="2">  1       21 0.53277504E-01 0.64696813E+03</pdfrwt>
<totfact> 0.26812166E+02</totfact>
</mgrwt>
</event>
<event>
 4    1  0.4897983E-002  0.5267022E+03  0.7818608E-02  0.1007035E+00
         21   -1    0    0  503  502  0.00000000000E+00  0.00000000000E+00  0.59919545735E+03  0.59919545735E+03  0.00000000000E+00 0.  1.
         21   -1    0    0  501  503 -0.00000000000E+00 -0.00000000000E+00 -0.52970263111E+03  0.52970263111E+03  0.00000000000E+00 0.  1.
    9000007    1    1    2  501    0  0.32285592537E+03 -0.11480098839E+03 -0.16558399411E+03  0.55211708413E+03  0.40000000000E+03 0.  1.
   -9000007    1    1    2    0  502 -0.32285592537E+03  0.11480098839E+03  0.23507682035E+03  0.57678100432E+03  0.40000000000E+03 0.  1.
<mgrwt>
<rscale>  2 0.52670221E+03</rscale>
<asrwt>0</asrwt>
<pdfrwt beam="1">  1       21 0.92183916E-01 0.52670221E+03</pdfrwt>
<pdfrwt beam="2">  1       21 0.81492713E-01 0.52670221E+03</pdfrwt>
<totfact> 0.10857993E+03</totfact>
</mgrwt>
</event>
<event>
 4    1  0.4897983E-002  0.4167110E+03  0.7818608E-02  0.1038142E+00
         21   -1    0    0  503  502  0.00000000000E+00  0.00000000000E+00  0.16046208971E+04  0.16046208971E+04  0.00000000000E+00 0.  1.
         21   -1    0    0  501  503 -0.00000000000E+00 -0.00000000000E+00 -0.49374489876E+03  0.49374489876E+03  0.00000000000E+00 0.  1.
    9000007    1    1    2  501    0  0.11277212565E+03  0.30503939610E+02 -0.37166401111E+03  0.55837458736E+03  0.40000000000E+03 0.  1.
   -9000007    1    1    2    0  502 -0.11277212565E+03 -0.30503939610E+02  0.14825400094E+04  0.15399912085E+04  0.40000000000E+03 0.  1.
<mgrwt>
<rscale>  2 0.41671098E+03</rscale>
<asrwt>0</asrwt>
<pdfrwt beam="1">  1       21 0.24686475E+00 0.41671098E+03</pdfrwt>
<pdfrwt beam="2">  1       21 0.75960754E-01 0.41671098E+03</pdfrwt>
<totfact> 0.85757162E+01</totfact>
</mgrwt>
</event>
<event>
 4    1  0.4897983E-002  0.4045424E+03  0.7818608E-02  0.1042218E+00
         21   -1    0    0  501  502  0.00000000000E+00  0.00000000000E+00  0.51307886277E+03  0.51307886277E+03  0.00000000000E+00 0. -1.
         21   -1    0    0  502  503 -0.00000000000E+00 -0.00000000000E+00 -0.74609459496E+03  0.74609459496E+03  0.00000000000E+00 0. -1.
    9000007    1    1    2  501    0  0.24531197022E+01 -0.60402802147E+02  0.35985525932E+03  0.54143358223E+03  0.40000000000E+03 0. -1.
   -9000007    1    1    2    0  503 -0.24531197022E+01  0.60402802147E+02 -0.59287099151E+03  0.71773987550E+03  0.40000000000E+03 0. -1.
<mgrwt>
<rscale>  2 0.40454235E+03</rscale>
<asrwt>0</asrwt>
<pdfrwt beam="1">  1       21 0.78935210E-01 0.40454235E+03</pdfrwt>
<pdfrwt beam="2">  1       21 0.11478378E+00 0.40454235E+03</pdfrwt>
<totfact> 0.71851011E+02</totfact>
</mgrwt>
</event>
<event>
 4    1  0.4897983E-002  0.6026881E+03  0.7818608E-02  0.9899845E-01
         21   -1    0    0  503  502  0.00000000000E+00  0.00000000000E+00  0.43373688009E+03  0.43373688009E+03  0.00000000000E+00 0.  1.
         21   -1    0    0  501  503 -0.00000000000E+00 -0.00000000000E+00 -0.21074975724E+04  0.21074975724E+04  0.00000000000E+00 0.  1.
    9000007    1    1    2  501    0 -0.32124457833E+03  0.31628284625E+03 -0.18232534114E+04  0.19202827709E+04  0.40000000000E+03 0.  1.
   -9000007    1    1    2    0  502  0.32124457833E+03 -0.31628284625E+03  0.14949271902E+03  0.62095168168E+03  0.40000000000E+03 0.  1.
<mgrwt>
<rscale>  2 0.60268808E+03</rscale>
<asrwt>0</asrwt>
<pdfrwt beam="1">  1       21 0.66728752E-01 0.60268808E+03</pdfrwt>
<pdfrwt beam="2">  1       21 0.32423039E+00 0.60268808E+03</pdfrwt>
<totfact> 0.34936681E+01</totfact>
</mgrwt>
</event>
<event>
 4    1  0.4897983E-002  0.4298236E+03  0.7818608E-02  0.1033916E+00
         21   -1    0    0  503  502  0.00000000000E+00  0.00000000000E+00  0.93094512987E+02  0.93094512987E+02  0.00000000000E+00 0.  1.
         21   -1    0    0  501  503 -0.00000000000E+00 -0.00000000000E+00 -0.21582914503E+04  0.21582914503E+04  0.00000000000E+00 0.  1.
    9000007    1    1    2  501    0 -0.92854151858E+02  0.12699004845E+03 -0.13520082265E+04  0.14186876367E+04  0.40000000000E+03 0.  1.
   -9000007    1    1    2    0  502  0.92854151858E+02 -0.12699004845E+03 -0.71318871085E+03  0.83269832665E+03  0.40000000000E+03 0.  1.
<mgrwt>
<rscale>  2 0.42982365E+03</rscale>
<asrwt>0</asrwt>
<pdfrwt beam="1">  1       21 0.14322233E-01 0.42982365E+03</pdfrwt>
<pdfrwt beam="2">  1       21 0.33204483E+00 0.42982365E+03</pdfrwt>
<totfact> 0.76491070E+02</totfact>
</mgrwt>
</event>
<event>
 4    1  0.4897983E-002  0.4127533E+03  0.7818608E-02  0.1039451E+00
         21   -1    0    0  501  502  0.00000000000E+00  0.00000000000E+00  0.23591901519E+03  0.23591901519E+03  0.00000000000E+00 0. -1.
         21   -1    0    0  502  503 -0.00000000000E+00 -0.00000000000E+00 -0.14378642609E+04  0.14378642609E+04  0.00000000000E+00 0. -1.
    9000007    1    1    2  501    0  0.23840835395E+02  0.98979466899E+02 -0.10520423595E+02  0.41288739338E+03  0.40000000000E+03 0. -1.
   -9000007    1    1    2    0  503 -0.23840835395E+02 -0.98979466899E+02 -0.11914248221E+04  0.12608958827E+04  0.40000000000E+03 0. -1.
<mgrwt>
<rscale>  2 0.41275334E+03</rscale>
<asrwt>0</asrwt>
<pdfrwt beam="1">  1       21 0.36295232E-01 0.41275334E+03</pdfrwt>
<pdfrwt beam="2">  1       21 0.22120989E+00 0.41275334E+03</pdfrwt>
<totfact> 0.60593862E+02</totfact>
</mgrwt>
</event>
<event>
 4    1  0.4897983E-002  0.4726883E+03  0.7818608E-02  0.1021164E+00
         21   -1    0    0  501  502  0.00000000000E+00  0.00000000000E+00  0.12404041005E+04  0.12404041005E+04  0.00000000000E+00 0. -1.
         21   -1    0    0  502  503 -0.00000000000E+00 -0.00000000000E+00 -0.21147249479E+03  0.21147249479E+03  0.00000000000E+00 0. -1.
    9000007    1    1    2  501    0  0.24258488262E+03 -0.67725986998E+02  0.79393772559E+03  0.92399748198E+03  0.40000000000E+03 0. -1.
   -9000007    1    1    2    0  503 -0.24258488262E+03  0.67725986998E+02  0.23499388013E+03  0.52787911333E+03  0.40000000000E+03 0. -1.
<mgrwt>
<rscale>  2 0.47268831E+03</rscale>
<asrwt>0</asrwt>
<pdfrwt beam="1">  1       21 0.19083140E+00 0.47268831E+03</pdfrwt>
<pdfrwt beam="2">  1       21 0.32534231E-01 0.47268831E+03</pdfrwt>
<totfact> 0.11635430E+03</totfact>
</mgrwt>
</event>
<event>
 4    1  0.4897983E-002  0.4107736E+03  0.7818608E-02  0.1040112E+00
         21   -1    0    0  501  502  0.00000000000E+00  0.00000000000E+00  0.16866093909E+03  0.16866093909E+03  0.00000000000E+00 0. -1.
         21   -1    0    0  502  503 -0.00000000000E+00 -0.00000000000E+00 -0.16954313655E+04  0.16954313655E+04  0.00000000000E+00 0. -1.
    9000007    1    1    2  501    0  0.78113257955E+02 -0.51315569012E+02 -0.16664218825E+03  0.44328837972E+03  0.40000000000E+03 0. -1.
   -9000007    1    1    2    0  503 -0.78113257955E+02  0.51315569012E+02 -0.13601282382E+04  0.14208039249E+04  0.40000000000E+03 0. -1.
<mgrwt>
<rscale>  2 0.41077362E+03</rscale>
<asrwt>0</asrwt>
<pdfrwt beam="1">  1       21 0.25947838E-01 0.41077362E+03</pdfrwt>
<pdfrwt beam="2">  1       21 0.26083558E+00 0.41077362E+03</pdfrwt>
<totfact> 0.67238011E+02</totfact>
</mgrwt>
</event>
<event>
 4    1  0.4897983E-002  0.4511101E+03  0.7818608E-02  0.1027392E+00
         21   -1    0    0  503  502  0.00000000000E+00  0.00000000000E+00  0.15591095421E+03  0.15591095421E+03  0.00000000000E+00 0.  1.
         21   -1    0    0  501  503 -0.00000000000E+00 -0.00000000000E+00 -0.22081528747E+04  0.22081528747E+04  0.00000000000E+00 0.  1.
    9000007    1    1    2  501    0  0.66397288542E+02  0.19771615661E+03 -0.17819768466E+04  0.18381898053E+04  0.40000000000E+03 0.  1.
   -9000007    1    1    2    0  502 -0.66397288542E+02 -0.19771615661E+03 -0.27026507382E+03  0.52587402355E+03  0.40000000000E+03 0.  1.
<mgrwt>
<rscale>  2 0.45111005E+03</rscale>
<asrwt>0</asrwt>
<pdfrwt beam="1">  1       21 0.23986300E-01 0.45111005E+03</pdfrwt>
<pdfrwt beam="2">  1       21 0.33971583E+00 0.45111005E+03</pdfrwt>
<totfact> 0.25592952E+02</totfact>
</mgrwt>
</event>
<event>
 4    1  0.4897983E-002  0.4201656E+03  0.7818608E-02  0.1037012E+00
         21   -1    0    0  503  502  0.00000000000E+00  0.00000000000E+00  0.12239060915E+04  0.12239060915E+04  0.00000000000E+00 0.  1.
         21   -1    0    0  501  503 -0.00000000000E+00 -0.00000000000E+00 -0.22042386004E+03  0.22042386004E+03  0.00000000000E+00 0.  1.
    9000007    1    1    2  501    0 -0.12385033928E+03  0.34643996617E+02  0.77188171792E+02  0.42719682455E+03  0.40000000000E+03 0.  1.
   -9000007    1    1    2    0  502  0.12385033928E+03 -0.34643996617E+02  0.92629405963E+03  0.10171331270E+04  0.40000000000E+03 0.  1.
<mgrwt>
<rscale>  2 0.42016558E+03</rscale>
<asrwt>0</asrwt>
<pdfrwt beam="1">  1       21 0.18829324E+00 0.42016558E+03</pdfrwt>
<pdfrwt beam="2">  1       21 0.33911364E-01 0.42016558E+03</pdfrwt>
<totfact> 0.11407854E+03</totfact>
</mgrwt>
</event>
<event>
 4    1  0.4897983E-002  0.4201700E+03  0.7818608E-02  0.1037011E+00
         21   -1    0    0  501  502  0.00000000000E+00  0.00000000000E+00  0.59042839129E+03  0.59042839129E+03  0.00000000000E+00 0. -1.
         21   -1    0    0  502  503 -0.00000000000E+00 -0.00000000000E+00 -0.29915960039E+03  0.29915960039E+03  0.00000000000E+00 0.  1.
    9000007    1    1    2  501    0 -0.12748766901E+03 -0.17022449126E+02  0.13562474219E+03  0.44151663640E+03  0.40000000000E+03 0. -1.
   -9000007    1    1    2    0  503  0.12748766901E+03  0.17022449126E+02  0.15564404871E+03  0.44807135528E+03  0.40000000000E+03 0.  1.
<mgrwt>
<rscale>  2 0.42017005E+03</rscale>
<asrwt>0</asrwt>
<pdfrwt beam="1">  1       21 0.90835137E-01 0.42017005E+03</pdfrwt>
<pdfrwt beam="2">  1       21 0.46024554E-01 0.42017005E+03</pdfrwt>
<totfact> 0.41159971E+03</totfact>
</mgrwt>
</event>
<event>
 4    1  0.4897983E-002  0.4457070E+03  0.7818608E-02  0.1029010E+00
         21   -1    0    0  501  502  0.00000000000E+00  0.00000000000E+00  0.82796523166E+03  0.82796523166E+03  0.00000000000E+00 0. -1.
         21   -1    0    0  502  503 -0.00000000000E+00 -0.00000000000E+00 -0.25262417512E+03  0.25262417512E+03  0.00000000000E+00 0. -1.
    9000007    1    1    2  501    0  0.69879215186E+01 -0.19648383331E+03  0.16656214065E+03  0.47581264642E+03  0.40000000000E+03 0. -1.
   -9000007    1    1    2    0  503 -0.69879215186E+01  0.19648383331E+03  0.40877891588E+03  0.60477676036E+03  0.40000000000E+03 0. -1.
<mgrwt>
<rscale>  2 0.44570700E+03</rscale>
<asrwt>0</asrwt>
<pdfrwt beam="1">  1       21 0.12737927E+00 0.44570700E+03</pdfrwt>
<pdfrwt beam="2">  1       21 0.38865258E-01 0.44570700E+03</pdfrwt>
<totfact> 0.25118531E+03</totfact>
</mgrwt>
</event>
<event>
 4    1  0.4897983E-002  0.6375670E+03  0.7818608E-02  0.9830393E-01
         21   -1    0    0  503  502  0.00000000000E+00  0.00000000000E+00  0.16881149700E+04  0.16881149700E+04  0.00000000000E+00 0.  1.
         21   -1    0    0  501  503 -0.00000000000E+00 -0.00000000000E+00 -0.26407354024E+03  0.26407354024E+03  0.00000000000E+00 0.  1.
    9000007    1    1    2  501    0  0.28541164792E+03 -0.40624120460E+03  0.42222251367E+03  0.76469835630E+03  0.40000000000E+03 0.  1.
   -9000007    1    1    2    0  502 -0.28541164792E+03  0.40624120460E+03  0.10018189161E+04  0.11874901540E+04  0.40000000000E+03 0.  1.
<mgrwt>
<rscale>  2 0.63756704E+03</rscale>
<asrwt>0</asrwt>
<pdfrwt beam="1">  1       21 0.25970999E+00 0.63756704E+03</pdfrwt>
<pdfrwt beam="2">  1       21 0.40626699E-01 0.63756704E+03</pdfrwt>
<totfact> 0.24915626E+02</totfact>
</mgrwt>
</event>
<event>
 4    1  0.4897983E-002  0.4335027E+03  0.7818608E-02  0.1032759E+00
         21   -1    0    0  501  502  0.00000000000E+00  0.00000000000E+00  0.21312544878E+03  0.21312544878E+03  0.00000000000E+00 0.  1.
         21   -1    0    0  502  503 -0.00000000000E+00 -0.00000000000E+00 -0.12257468909E+04  0.12257468909E+04  0.00000000000E+00 0.  1.
    9000007    1    1    2  501    0 -0.14212381369E+03 -0.87894371388E+02 -0.12518744716E+03  0.45121668394E+03  0.40000000000E+03 0.  1.
   -9000007    1    1    2    0  503  0.14212381369E+03  0.87894371388E+02 -0.88743399500E+03  0.98765565579E+03  0.40000000000E+03 0.  1.
<mgrwt>
<rscale>  2 0.43350271E+03</rscale>
<asrwt>0</asrwt>
<pdfrwt beam="1">  1       21 0.32788530E-01 0.43350271E+03</pdfrwt>
<pdfrwt beam="2">  1       21 0.18857645E+00 0.43350271E+03</pdfrwt>
<totfact> 0.12076798E+03</totfact>
</mgrwt>
</event>
<event>
 4    1  0.4897983E-002  0.4266521E+03  0.7818608E-02  0.1034923E+00
         21   -1    0    0  503  502  0.00000000000E+00  0.00000000000E+00  0.42056168589E+03  0.42056168589E+03  0.00000000000E+00 0.  1.
         21   -1    0    0  501  503 -0.00000000000E+00 -0.00000000000E+00 -0.43403893765E+03  0.43403893765E+03  0.00000000000E+00 0. -1.
    9000007    1    1    2  501    0 -0.94211057376E+02 -0.11470095974E+03  0.15805558755E+02  0.42694478470E+03  0.40000000000E+03 0.  1.
   -9000007    1    1    2    0  502  0.94211057376E+02  0.11470095974E+03 -0.29282810520E+02  0.42765583884E+03  0.40000000000E+03 0.  1.
<mgrwt>
<rscale>  2 0.42665212E+03</rscale>
<asrwt>0</asrwt>
<pdfrwt beam="1">  1       21 0.64701798E-01 0.42665212E+03</pdfrwt>
<pdfrwt beam="2">  1       21 0.66775221E-01 0.42665212E+03</pdfrwt>
<totfact> 0.39951826E+03</totfact>
</mgrwt>
</event>
<event>
 4    1  0.4897983E-002  0.4040156E+03  0.7818608E-02  0.1042398E+00
         21   -1    0    0  503  502  0.00000000000E+00  0.00000000000E+00  0.25170818304E+03  0.25170818304E+03  0.00000000000E+00 0.  1.
         21   -1    0    0  501  503 -0.00000000000E+00 -0.00000000000E+00 -0.66407871891E+03  0.66407871891E+03  0.00000000000E+00 0.  1.
    9000007    1    1    2  501    0 -0.35671954841E+02  0.44227799127E+02 -0.27635524348E+03  0.48949035453E+03  0.40000000000E+03 0. -1.
   -9000007    1    1    2    0  502  0.35671954841E+02 -0.44227799127E+02 -0.13601529239E+03  0.42629654742E+03  0.40000000000E+03 0. -1.
<mgrwt>
<rscale>  2 0.40401558E+03</rscale>
<asrwt>0</asrwt>
<pdfrwt beam="1">  1       21 0.38724336E-01 0.40401558E+03</pdfrwt>
<pdfrwt beam="2">  1       21 0.10216596E+00 0.40401558E+03</pdfrwt>
<totfact> 0.44660545E+03</totfact>
</mgrwt>
</event>
<event>
 4    1  0.4897983E-002  0.5166669E+03  0.7818608E-02  0.1009518E+00
         21   -1    0    0  501  502  0.00000000000E+00  0.00000000000E+00  0.14802662429E+04  0.14802662429E+04  0.00000000000E+00 0.  1.
         21   -1    0    0  502  503 -0.00000000000E+00 -0.00000000000E+00 -0.37215027184E+03  0.37215027184E+03  0.00000000000E+00 0.  1.
    9000007    1    1    2  501    0 -0.32029842619E+03 -0.65981900481E+02  0.12190101377E+04  0.13239827827E+04  0.40000000000E+03 0.  1.
   -9000007    1    1    2    0  503  0.32029842619E+03  0.65981900481E+02 -0.11089416662E+03  0.52843373208E+03  0.40000000000E+03 0.  1.
<mgrwt>
<rscale>  2 0.51666691E+03</rscale>
<asrwt>0</asrwt>
<pdfrwt beam="1">  1       21 0.22773327E+00 0.51666691E+03</pdfrwt>
<pdfrwt beam="2">  1       21 0.57253889E-01 0.51666691E+03</pdfrwt>
<totfact> 0.20046552E+02</totfact>
</mgrwt>
</event>
<event>
 4    1  0.4897983E-002  0.4613678E+03  0.7818608E-02  0.1024385E+00
         21   -1    0    0  501  502  0.00000000000E+00  0.00000000000E+00  0.10901055149E+04  0.10901055149E+04  0.00000000000E+00 0. -1.
         21   -1    0    0  502  503 -0.00000000000E+00 -0.00000000000E+00 -0.64159258538E+03  0.64159258538E+03  0.00000000000E+00 0. -1.
    9000007    1    1    2  501    0 -0.21616312276E+03  0.78318237349E+02  0.94642577664E+03  0.10528922037E+04  0.40000000000E+03 0. -1.
   -9000007    1    1    2    0  503  0.21616312276E+03 -0.78318237349E+02 -0.49791284710E+03  0.67880589659E+03  0.40000000000E+03 0. -1.
<mgrwt>
<rscale>  2 0.46136779E+03</rscale>
<asrwt>0</asrwt>
<pdfrwt beam="1">  1       21 0.16770854E+00 0.46136779E+03</pdfrwt>
<pdfrwt beam="2">  1       21 0.98706552E-01 0.46136779E+03</pdfrwt>
<totfact> 0.15075984E+02</totfact>
</mgrwt>
</event>
<event>
 4    1  0.4897983E-002  0.4054869E+03  0.7818608E-02  0.1041896E+00
         21   -1    0    0  503  502  0.00000000000E+00  0.00000000000E+00  0.15403956276E+04  0.15403956276E+04  0.00000000000E+00 0. -1.
         21   -1    0    0  501  503 -0.00000000000E+00 -0.00000000000E+00 -0.15761763474E+03  0.15761763474E+03  0.00000000000E+00 0. -1.
    9000007    1    1    2  501    0  0.20734401430E+02 -0.63164196654E+02  0.20902128854E+03  0.45619023467E+03  0.40000000000E+03 0. -1.
   -9000007    1    1    2    0  502 -0.20734401430E+02  0.63164196654E+02  0.11737567043E+04  0.12418230276E+04  0.40000000000E+03 0. -1.
<mgrwt>
<rscale>  2 0.40548691E+03</rscale>
<asrwt>0</asrwt>
<pdfrwt beam="1">  1       21 0.23698393E+00 0.40548691E+03</pdfrwt>
<pdfrwt beam="2">  1       21 0.24248868E-01 0.40548691E+03</pdfrwt>
<totfact> 0.10767715E+03</totfact>
</mgrwt>
</event>
<event>
 4    1  0.4897983E-002  0.6501417E+03  0.7818608E-02  0.9806513E-01
         21   -1    0    0  501  502  0.00000000000E+00  0.00000000000E+00  0.13777789948E+04  0.13777789948E+04  0.00000000000E+00 0. -1.
         21   -1    0    0  502  503 -0.00000000000E+00 -0.00000000000E+00 -0.45660591451E+03  0.45660591451E+03  0.00000000000E+00 0. -1.
    9000007    1    1    2  501    0  0.44579669104E+03  0.25288234513E+03  0.98596658231E+03  0.11810225534E+04  0.40000000000E+03 0. -1.
   -9000007    1    1    2    0  503 -0.44579669104E+03 -0.25288234513E+03 -0.64793502013E+02  0.65336235591E+03  0.40000000000E+03 0. -1.
<mgrwt>
<rscale>  2 0.65014165E+03</rscale>
<asrwt>0</asrwt>
<pdfrwt beam="1">  1       21 0.21196600E+00 0.65014165E+03</pdfrwt>
<pdfrwt beam="2">  1       21 0.70247064E-01 0.65014165E+03</pdfrwt>
<totfact> 0.15204961E+02</totfact>
</mgrwt>
</event>
<event>
 4    1  0.4897983E-002  0.5133787E+03  0.7818608E-02  0.1010345E+00
         21   -1    0    0  503  502  0.00000000000E+00  0.00000000000E+00  0.24539810954E+03  0.24539810954E+03  0.00000000000E+00 0.  1.
         21   -1    0    0  501  503 -0.00000000000E+00 -0.00000000000E+00 -0.11449594771E+04  0.11449594771E+04  0.00000000000E+00 0. -1.
    9000007    1    1    2  501    0  0.28374354563E+03 -0.15181349544E+03 -0.27671754645E+03  0.58320694234E+03  0.40000000000E+03 0.  1.
   -9000007    1    1    2    0  502 -0.28374354563E+03  0.15181349544E+03 -0.62284382108E+03  0.80715064427E+03  0.40000000000E+03 0. -1.
<mgrwt>
<rscale>  2 0.51337875E+03</rscale>
<asrwt>0</asrwt>
<pdfrwt beam="1">  1       21 0.37753555E-01 0.51337875E+03</pdfrwt>
<pdfrwt beam="2">  1       21 0.17614761E+00 0.51337875E+03</pdfrwt>
<totfact> 0.10725285E+03</totfact>
</mgrwt>
</event>
<event>
 4    1  0.4897983E-002  0.4196631E+03  0.7818608E-02  0.1037176E+00
         21   -1    0    0  503  502  0.00000000000E+00  0.00000000000E+00  0.45112205636E+03  0.45112205636E+03  0.00000000000E+00 0. -1.
         21   -1    0    0  501  503 -0.00000000000E+00 -0.00000000000E+00 -0.39039907300E+03  0.39039907300E+03  0.00000000000E+00 0. -1.
    9000007    1    1    2  501    0 -0.11994974605E+03  0.41583256042E+02  0.29635822404E+02  0.42070820140E+03  0.40000000000E+03 0. -1.
   -9000007    1    1    2    0  502  0.11994974605E+03 -0.41583256042E+02  0.31087160959E+02  0.42081292796E+03  0.40000000000E+03 0. -1.
<mgrwt>
<rscale>  2 0.41966309E+03</rscale>
<asrwt>0</asrwt>
<pdfrwt beam="1">  1       21 0.69403393E-01 0.41966309E+03</pdfrwt>
<pdfrwt beam="2">  1       21 0.60061396E-01 0.41966309E+03</pdfrwt>
<totfact> 0.43283042E+03</totfact>
</mgrwt>
</event>
<event>
 4    1  0.4897983E-002  0.4390506E+03  0.7818608E-02  0.1031038E+00
         21   -1    0    0  503  502  0.00000000000E+00  0.00000000000E+00  0.84913246727E+03  0.84913246727E+03  0.00000000000E+00 0.  1.
         21   -1    0    0  501  503 -0.00000000000E+00 -0.00000000000E+00 -0.32389519601E+03  0.32389519601E+03  0.00000000000E+00 0.  1.
    9000007    1    1    2  501    0  0.16697881948E+03  0.69882260312E+02 -0.58151874632E+02  0.44288497038E+03  0.40000000000E+03 0.  1.
   -9000007    1    1    2    0  502 -0.16697881948E+03 -0.69882260312E+02  0.58338914589E+03  0.73014269290E+03  0.40000000000E+03 0.  1.
<mgrwt>
<rscale>  2 0.43905063E+03</rscale>
<asrwt>0</asrwt>
<pdfrwt beam="1">  1       21 0.13063576E+00 0.43905063E+03</pdfrwt>
<pdfrwt beam="2">  1       21 0.49830030E-01 0.43905063E+03</pdfrwt>
<totfact> 0.14042091E+03</totfact>
</mgrwt>
</event>
<event>
 4    1  0.4897983E-002  0.4759023E+03  0.7818608E-02  0.1020267E+00
         21   -1    0    0  501  502  0.00000000000E+00  0.00000000000E+00  0.41550909785E+03  0.41550909785E+03  0.00000000000E+00 0. -1.
         21   -1    0    0  502  503 -0.00000000000E+00 -0.00000000000E+00 -0.77061318176E+03  0.77061318176E+03  0.00000000000E+00 0.  1.
    9000007    1    1    2  501    0 -0.12514420783E+03 -0.22543716723E+03  0.14329109502E+03  0.49700636519E+03  0.40000000000E+03 0. -1.
   -9000007    1    1    2    0  503  0.12514420783E+03  0.22543716723E+03 -0.49839517893E+03  0.68911591442E+03  0.40000000000E+03 0.  1.
<mgrwt>
<rscale>  2 0.47590229E+03</rscale>
<asrwt>0</asrwt>
<pdfrwt beam="1">  1       21 0.63924478E-01 0.47590229E+03</pdfrwt>
<pdfrwt beam="2">  1       21 0.11855587E+00 0.47590229E+03</pdfrwt>
<totfact> 0.10339871E+03</totfact>
</mgrwt>
</event>
<event>
 4    1  0.4897983E-002  0.4812957E+03  0.7818608E-02  0.1018780E+00
         21   -1    0    0  503  502  0.00000000000E+00  0.00000000000E+00  0.29091539731E+03  0.29091539731E+03  0.00000000000E+00 0.  1.
         21   -1    0    0  501  503 -0.00000000000E+00 -0.00000000000E+00 -0.92407501813E+03  0.92407501813E+03  0.00000000000E+00 0. -1.
    9000007    1    1    2  501    0 -0.15331725582E+03 -0.21940692141E+03 -0.54250917816E+03  0.72523222934E+03  0.40000000000E+03 0. -1.
   -9000007    1    1    2    0  502  0.15331725582E+03  0.21940692141E+03 -0.90650442667E+02  0.48975818610E+03  0.40000000000E+03 0.  1.
<mgrwt>
<rscale>  2 0.48129573E+03</rscale>
<asrwt>0</asrwt>
<pdfrwt beam="1">  1       21 0.44756216E-01 0.48129573E+03</pdfrwt>
<pdfrwt beam="2">  1       21 0.14216539E+00 0.48129573E+03</pdfrwt>
<totfact> 0.13859172E+03</totfact>
</mgrwt>
</event>
<event>
 4    1  0.4897983E-002  0.4165655E+03  0.7818608E-02  0.1038190E+00
         21   -1    0    0  501  502  0.00000000000E+00  0.00000000000E+00  0.12060497646E+04  0.12060497646E+04  0.00000000000E+00 0. -1.
         21   -1    0    0  502  503 -0.00000000000E+00 -0.00000000000E+00 -0.18999336554E+03  0.18999336554E+03  0.00000000000E+00 0. -1.
    9000007    1    1    2  501    0 -0.11209493310E+03  0.31008187925E+02  0.85191198464E+03  0.94830417658E+03  0.40000000000E+03 0. -1.
   -9000007    1    1    2    0  503  0.11209493310E+03 -0.31008187925E+02  0.16414441442E+03  0.44773895355E+03  0.40000000000E+03 0. -1.
<mgrwt>
<rscale>  2 0.41656546E+03</rscale>
<asrwt>0</asrwt>
<pdfrwt beam="1">  1       21 0.18554611E+00 0.41656546E+03</pdfrwt>
<pdfrwt beam="2">  1       21 0.29229749E-01 0.41656546E+03</pdfrwt>
<totfact> 0.16053061E+03</totfact>
</mgrwt>
</event>
<event>
 4    1  0.4897983E-002  0.4500806E+03  0.7818608E-02  0.1027698E+00
         21   -1    0    0  503  502  0.00000000000E+00  0.00000000000E+00  0.86990759578E+03  0.86990759578E+03  0.00000000000E+00 0. -1.
         21   -1    0    0  501  503 -0.00000000000E+00 -0.00000000000E+00 -0.24946675516E+03  0.24946675516E+03  0.00000000000E+00 0. -1.
    9000007    1    1    2  501    0  0.20583653693E+03  0.14276989111E+02  0.16584483300E+03  0.47966344554E+03  0.40000000000E+03 0. -1.
   -9000007    1    1    2    0  502 -0.20583653693E+03 -0.14276989111E+02  0.45459600761E+03  0.63971090540E+03  0.40000000000E+03 0. -1.
<mgrwt>
<rscale>  2 0.45008056E+03</rscale>
<asrwt>0</asrwt>
<pdfrwt beam="1">  1       21 0.13383194E+00 0.45008056E+03</pdfrwt>
<pdfrwt beam="2">  1       21 0.38379501E-01 0.45008056E+03</pdfrwt>
<totfact> 0.22632611E+03</totfact>
</mgrwt>
</event>
<event>
 4    1  0.4897983E-002  0.4678088E+03  0.7818608E-02  0.1022540E+00
         21   -1    0    0  501  502  0.00000000000E+00  0.00000000000E+00  0.48411760463E+03  0.48411760463E+03  0.00000000000E+00 0. -1.
         21   -1    0    0  502  503 -0.00000000000E+00 -0.00000000000E+00 -0.63819719941E+03  0.63819719941E+03  0.00000000000E+00 0. -1.
    9000007    1    1    2  501    0  0.23796493645E+03  0.47093101786E+02  0.22602549689E+03  0.51955037914E+03  0.40000000000E+03 0. -1.
   -9000007    1    1    2    0  503 -0.23796493645E+03 -0.47093101786E+02 -0.38010509167E+03  0.60276442490E+03  0.40000000000E+03 0. -1.
<mgrwt>
<rscale>  2 0.46780880E+03</rscale>
<asrwt>0</asrwt>
<pdfrwt beam="1">  1       21 0.74479632E-01 0.46780880E+03</pdfrwt>
<pdfrwt beam="2">  1       21 0.98184184E-01 0.46780880E+03</pdfrwt>
<totfact> 0.11729278E+03</totfact>
</mgrwt>
</event>
<event>
 4    1  0.4897983E-002  0.4362542E+03  0.7818608E-02  0.1031902E+00
         21   -1    0    0  503  502  0.00000000000E+00  0.00000000000E+00  0.54487432537E+03  0.54487432537E+03  0.00000000000E+00 0. -1.
         21   -1    0    0  501  503 -0.00000000000E+00 -0.00000000000E+00 -0.45549533670E+03  0.45549533670E+03  0.00000000000E+00 0. -1.
    9000007    1    1    2  501    0 -0.13767958206E+03  0.10659286757E+03 -0.19683831746E+03  0.47860529662E+03  0.40000000000E+03 0. -1.
   -9000007    1    1    2    0  502  0.13767958206E+03 -0.10659286757E+03  0.28621730613E+03  0.52176436546E+03  0.40000000000E+03 0. -1.
<mgrwt>
<rscale>  2 0.43625418E+03</rscale>
<asrwt>0</asrwt>
<pdfrwt beam="1">  1       21 0.83826819E-01 0.43625418E+03</pdfrwt>
<pdfrwt beam="2">  1       21 0.70076206E-01 0.43625418E+03</pdfrwt>
<totfact> 0.19838281E+03</totfact>
</mgrwt>
</event>
<event>
 4    1  0.4897983E-002  0.4368438E+03  0.7818608E-02  0.1031720E+00
         21   -1    0    0  503  502  0.00000000000E+00  0.00000000000E+00  0.78722154772E+03  0.78722154772E+03  0.00000000000E+00 0. -1.
         21   -1    0    0  501  503 -0.00000000000E+00 -0.00000000000E+00 -0.24271494106E+03  0.24271494106E+03  0.00000000000E+00 0. -1.
    9000007    1    1    2  501    0 -0.17518496269E+03  0.11945996722E+02  0.29042643678E+03  0.52457601277E+03  0.40000000000E+03 0. -1.
   -9000007    1    1    2    0  502  0.17518496269E+03 -0.11945996722E+02  0.25408016988E+03  0.50536047601E+03  0.40000000000E+03 0. -1.
<mgrwt>
<rscale>  2 0.43684377E+03</rscale>
<asrwt>0</asrwt>
<pdfrwt beam="1">  1       21 0.12111101E+00 0.43684377E+03</pdfrwt>
<pdfrwt beam="2">  1       21 0.37340761E-01 0.43684377E+03</pdfrwt>
<totfact> 0.31132975E+03</totfact>
</mgrwt>
</event>
<event>
 4    1  0.4897983E-002  0.4350303E+03  0.7818608E-02  0.1032283E+00
         21   -1    0    0  501  502  0.00000000000E+00  0.00000000000E+00  0.93890305335E+03  0.93890305335E+03  0.00000000000E+00 0.  1.
         21   -1    0    0  502  503 -0.00000000000E+00 -0.00000000000E+00 -0.22678329391E+03  0.22678329391E+03  0.00000000000E+00 0.  1.
    9000007    1    1    2  501    0  0.18503042774E+02 -0.17002646920E+03  0.16170677556E+03  0.46411253385E+03  0.40000000000E+03 0.  1.
   -9000007    1    1    2    0  503 -0.18503042774E+02  0.17002646920E+03  0.55041298388E+03  0.70157381340E+03  0.40000000000E+03 0.  1.
<mgrwt>
<rscale>  2 0.43503030E+03</rscale>
<asrwt>0</asrwt>
<pdfrwt beam="1">  1       21 0.14444662E+00 0.43503030E+03</pdfrwt>
<pdfrwt beam="2">  1       21 0.34889738E-01 0.43503030E+03</pdfrwt>
<totfact> 0.22576417E+03</totfact>
</mgrwt>
</event>
<event>
 4    1  0.4897983E-002  0.6722654E+03  0.7818608E-02  0.9765874E-01
         21   -1    0    0  501  502  0.00000000000E+00  0.00000000000E+00  0.71740423559E+03  0.71740423559E+03  0.00000000000E+00 0. -1.
         21   -1    0    0  502  503 -0.00000000000E+00 -0.00000000000E+00 -0.69564068708E+03  0.69564068708E+03  0.00000000000E+00 0. -1.
    9000007    1    1    2  501    0  0.49335106693E+03  0.22033036469E+03  0.22796703319E+03  0.70986598247E+03  0.40000000000E+03 0. -1.
   -9000007    1    1    2    0  503 -0.49335106693E+03 -0.22033036469E+03 -0.20620348469E+03  0.70317894020E+03  0.40000000000E+03 0. -1.
<mgrwt>
<rscale>  2 0.67226538E+03</rscale>
<asrwt>0</asrwt>
<pdfrwt beam="1">  1       21 0.11036988E+00 0.67226538E+03</pdfrwt>
<pdfrwt beam="2">  1       21 0.10702164E+00 0.67226538E+03</pdfrwt>
<totfact> 0.34551668E+02</totfact>
</mgrwt>
</event>
<event>
 4    1  0.4897983E-002  0.4072361E+03  0.7818608E-02  0.1041302E+00
         21   -1    0    0  501  502  0.00000000000E+00  0.00000000000E+00  0.33103252103E+03  0.33103252103E+03  0.00000000000E+00 0. -1.
         21   -1    0    0  502  503 -0.00000000000E+00 -0.00000000000E+00 -0.61482062665E+03  0.61482062665E+03  0.00000000000E+00 0. -1.
    9000007    1    1    2  501    0  0.46549120226E+02 -0.60616712011E+02  0.61606252481E+02  0.41186956274E+03  0.40000000000E+03 0. -1.
   -9000007    1    1    2    0  503 -0.46549120226E+02  0.60616712011E+02 -0.34539435810E+03  0.53398358493E+03  0.40000000000E+03 0. -1.
<mgrwt>
<rscale>  2 0.40723606E+03</rscale>
<asrwt>0</asrwt>
<pdfrwt beam="1">  1       21 0.50928080E-01 0.40723606E+03</pdfrwt>
<pdfrwt beam="2">  1       21 0.94587789E-01 0.40723606E+03</pdfrwt>
<totfact> 0.30329584E+03</totfact>
</mgrwt>
</event>
<event>
 4    1  0.4897983E-002  0.4369186E+03  0.7818608E-02  0.1031696E+00
         21   -1    0    0  501  502  0.00000000000E+00  0.00000000000E+00  0.17968643618E+03  0.17968643618E+03  0.00000000000E+00 0.  1.
         21   -1    0    0  502  503 -0.00000000000E+00 -0.00000000000E+00 -0.14336381150E+04  0.14336381150E+04  0.00000000000E+00 0. -1.
    9000007    1    1    2  501    0 -0.83939109758E+02 -0.15444108492E+03 -0.21648670559E+03  0.48761082489E+03  0.40000000000E+03 0.  1.
   -9000007    1    1    2    0  503  0.83939109758E+02  0.15444108492E+03 -0.10374649733E+04  0.11257137263E+04  0.40000000000E+03 0. -1.
<mgrwt>
<rscale>  2 0.43691855E+03</rscale>
<asrwt>0</asrwt>
<pdfrwt beam="1">  1       21 0.27644066E-01 0.43691855E+03</pdfrwt>
<pdfrwt beam="2">  1       21 0.22055972E+00 0.43691855E+03</pdfrwt>
<totfact> 0.10409003E+03</totfact>
</mgrwt>
</event>
<event>
 4    1  0.4897983E-002  0.5319895E+03  0.7818608E-02  0.1005751E+00
         21   -1    0    0  501  502  0.00000000000E+00  0.00000000000E+00  0.20105477098E+03  0.20105477098E+03  0.00000000000E+00 0. -1.
         21   -1    0    0  502  503 -0.00000000000E+00 -0.00000000000E+00 -0.25941764884E+04  0.25941764884E+04  0.00000000000E+00 0. -1.
    9000007    1    1    2  501    0  0.34742191097E+03 -0.48071677582E+02 -0.25135061921E+03  0.58837913303E+03  0.40000000000E+03 0. -1.
   -9000007    1    1    2    0  503 -0.34742191097E+03  0.48071677582E+02 -0.21417710982E+04  0.22068521263E+04  0.40000000000E+03 0. -1.
<mgrwt>
<rscale>  2 0.53198954E+03</rscale>
<asrwt>0</asrwt>
<pdfrwt beam="1">  1       21 0.30931506E-01 0.53198954E+03</pdfrwt>
<pdfrwt beam="2">  1       21 0.39910404E+00 0.53198954E+03</pdfrwt>
<totfact> 0.62731243E+01</totfact>
</mgrwt>
</event>
<event>
 4    1  0.4897983E-002  0.5203538E+03  0.7818608E-02  0.1008599E+00
         21   -1    0    0  503  502  0.00000000000E+00  0.00000000000E+00  0.20481701467E+03  0.20481701467E+03  0.00000000000E+00 0.  1.
         21   -1    0    0  501  503 -0.00000000000E+00 -0.00000000000E+00 -0.13392158158E+04  0.13392158158E+04  0.00000000000E+00 0.  1.
    9000007    1    1    2  501    0  0.23506266799E+03 -0.23561337396E+03 -0.65473070955E+03  0.83632554780E+03  0.40000000000E+03 0.  1.
   -9000007    1    1    2    0  502 -0.23506266799E+03  0.23561337396E+03 -0.47966809159E+03  0.70770728268E+03  0.40000000000E+03 0.  1.
<mgrwt>
<rscale>  2 0.52035384E+03</rscale>
<asrwt>0</asrwt>
<pdfrwt beam="1">  1       21 0.31510310E-01 0.52035384E+03</pdfrwt>
<pdfrwt beam="2">  1       21 0.20603320E+00 0.52035384E+03</pdfrwt>
<totfact> 0.96143542E+02</totfact>
</mgrwt>
</event>
<event>
 4    1  0.4897983E-002  0.4366395E+03  0.7818608E-02  0.1031783E+00
         21   -1    0    0  503  502  0.00000000000E+00  0.00000000000E+00  0.15148305224E+03  0.15148305224E+03  0.00000000000E+00 0. -1.
         21   -1    0    0  501  503 -0.00000000000E+00 -0.00000000000E+00 -0.20552467636E+04  0.20552467636E+04  0.00000000000E+00 0. -1.
    9000007    1    1    2  501    0 -0.13430062780E+03  0.11232710419E+03 -0.16388310776E+04  0.16960015736E+04  0.40000000000E+03 0. -1.
   -9000007    1    1    2    0  502  0.13430062780E+03 -0.11232710419E+03 -0.26493263384E+03  0.51072824225E+03  0.40000000000E+03 0. -1.
<mgrwt>
<rscale>  2 0.43663948E+03</rscale>
<asrwt>0</asrwt>
<pdfrwt beam="1">  1       21 0.23305086E-01 0.43663948E+03</pdfrwt>
<pdfrwt beam="2">  1       21 0.31619179E+00 0.43663948E+03</pdfrwt>
<totfact> 0.37899202E+02</totfact>
</mgrwt>
</event>
<event>
 4    1  0.4897983E-002  0.4680475E+03  0.7818608E-02  0.1022473E+00
         21   -1    0    0  503  502  0.00000000000E+00  0.00000000000E+00  0.12444050997E+04  0.12444050997E+04  0.00000000000E+00 0. -1.
         21   -1    0    0  501  503 -0.00000000000E+00 -0.00000000000E+00 -0.21600396436E+03  0.21600396436E+03  0.00000000000E+00 0.  1.
    9000007    1    1    2  501    0 -0.16691926169E+03  0.17665331317E+03  0.20012563427E+03  0.50903703448E+03  0.40000000000E+03 0. -1.
   -9000007    1    1    2    0  502  0.16691926169E+03 -0.17665331317E+03  0.82827550103E+03  0.95137202953E+03  0.40000000000E+03 0. -1.
<mgrwt>
<rscale>  2 0.46804747E+03</rscale>
<asrwt>0</asrwt>
<pdfrwt beam="1">  1       21 0.19144693E+00 0.46804747E+03</pdfrwt>
<pdfrwt beam="2">  1       21 0.33231380E-01 0.46804747E+03</pdfrwt>
<totfact> 0.11064675E+03</totfact>
</mgrwt>
</event>
<event>
 4    1  0.4897983E-002  0.5249415E+03  0.7818608E-02  0.1007466E+00
         21   -1    0    0  501  502  0.00000000000E+00  0.00000000000E+00  0.10749897300E+03  0.10749897300E+03  0.00000000000E+00 0.  1.
         21   -1    0    0  502  503 -0.00000000000E+00 -0.00000000000E+00 -0.25717141901E+04  0.25717141901E+04  0.00000000000E+00 0. -1.
    9000007    1    1    2  501    0  0.15246709150E+03 -0.30383766535E+03 -0.13082474921E+04  0.14096364926E+04  0.40000000000E+03 0.  1.
   -9000007    1    1    2    0  503 -0.15246709150E+03  0.30383766535E+03 -0.11559677250E+04  0.12695766704E+04  0.40000000000E+03 0. -1.
<mgrwt>
<rscale>  2 0.52494146E+03</rscale>
<asrwt>0</asrwt>
<pdfrwt beam="1">  1       21 0.16538304E-01 0.52494146E+03</pdfrwt>
<pdfrwt beam="2">  1       21 0.39564831E+00 0.52494146E+03</pdfrwt>
<totfact> 0.22256756E+02</totfact>
</mgrwt>
</event>
<event>
 4    1  0.4897983E-002  0.4105949E+03  0.7818608E-02  0.1040172E+00
         21   -1    0    0  501  502  0.00000000000E+00  0.00000000000E+00  0.43062790857E+03  0.43062790857E+03  0.00000000000E+00 0.  1.
         21   -1    0    0  502  503 -0.00000000000E+00 -0.00000000000E+00 -0.40776535302E+03  0.40776535302E+03  0.00000000000E+00 0.  1.
    9000007    1    1    2  501    0  0.67968748976E+02  0.62995701715E+02  0.95169836940E+02  0.42148013848E+03  0.40000000000E+03 0. -1.
   -9000007    1    1    2    0  503 -0.67968748976E+02 -0.62995701715E+02 -0.72307281392E+02  0.41691312310E+03  0.40000000000E+03 0. -1.
<mgrwt>
<rscale>  2 0.41059495E+03</rscale>
<asrwt>0</asrwt>
<pdfrwt beam="1">  1       21 0.66250447E-01 0.41059495E+03</pdfrwt>
<pdfrwt beam="2">  1       21 0.62733131E-01 0.41059495E+03</pdfrwt>
<totfact> 0.43787730E+03</totfact>
</mgrwt>
</event>
<event>
 4    1  0.4897983E-002  0.4204765E+03  0.7818608E-02  0.1036911E+00
         21   -1    0    0  501  502  0.00000000000E+00  0.00000000000E+00  0.11478863952E+03  0.11478863952E+03  0.00000000000E+00 0. -1.
         21   -1    0    0  502  503 -0.00000000000E+00 -0.00000000000E+00 -0.17120642153E+04  0.17120642153E+04  0.00000000000E+00 0. -1.
    9000007    1    1    2  501    0  0.41873906599E+02 -0.12266645090E+03 -0.10880208032E+04  0.11664432050E+04  0.40000000000E+03 0. -1.
   -9000007    1    1    2    0  503 -0.41873906599E+02  0.12266645090E+03 -0.50925477257E+03  0.66040964985E+03  0.40000000000E+03 0. -1.
<mgrwt>
<rscale>  2 0.42047649E+03</rscale>
<asrwt>0</asrwt>
<pdfrwt beam="1">  1       21 0.17659791E-01 0.42047649E+03</pdfrwt>
<pdfrwt beam="2">  1       21 0.26339449E+00 0.42047649E+03</pdfrwt>
<totfact> 0.13475175E+03</totfact>
</mgrwt>
</event>
<event>
 4    1  0.4897983E-002  0.5011328E+03  0.7818608E-02  0.1013484E+00
         21   -1    0    0  503  502  0.00000000000E+00  0.00000000000E+00  0.31700471396E+03  0.31700471396E+03  0.00000000000E+00 0. -1.
         21   -1    0    0  501  503 -0.00000000000E+00 -0.00000000000E+00 -0.80629335961E+03  0.80629335961E+03  0.00000000000E+00 0.  1.
    9000007    1    1    2  501    0 -0.24586681918E+03  0.17516741114E+03 -0.31887455863E+03  0.59398240617E+03  0.40000000000E+03 0.  1.
   -9000007    1    1    2    0  502  0.24586681918E+03 -0.17516741114E+03 -0.17041408702E+03  0.52931566740E+03  0.40000000000E+03 0.  1.
<mgrwt>
<rscale>  2 0.50113283E+03</rscale>
<asrwt>0</asrwt>
<pdfrwt beam="1">  1       21 0.48769956E-01 0.50113283E+03</pdfrwt>
<pdfrwt beam="2">  1       21 0.12404513E+00 0.50113283E+03</pdfrwt>
<totfact> 0.16408679E+03</totfact>
</mgrwt>
</event>
<event>
 4    1  0.4897983E-002  0.4927176E+03  0.7818608E-02  0.1015697E+00
         21   -1    0    0  501  502  0.00000000000E+00  0.00000000000E+00  0.48356979274E+03  0.48356979274E+03  0.00000000000E+00 0. -1.
         21   -1    0    0  502  503 -0.00000000000E+00 -0.00000000000E+00 -0.17965488783E+04  0.17965488783E+04  0.00000000000E+00 0. -1.
    9000007    1    1    2  501    0  0.28769865801E+03 -0.30301321630E+00  0.31125497548E+03  0.58279522081E+03  0.40000000000E+03 0. -1.
   -9000007    1    1    2    0  503 -0.28769865801E+03  0.30301321630E+00 -0.16242340611E+04  0.16973234503E+04  0.40000000000E+03 0. -1.
<mgrwt>
<rscale>  2 0.49271758E+03</rscale>
<asrwt>0</asrwt>
<pdfrwt beam="1">  1       21 0.74395352E-01 0.49271758E+03</pdfrwt>
<pdfrwt beam="2">  1       21 0.27639214E+00 0.49271758E+03</pdfrwt>
<totfact> 0.56651080E+01</totfact>
</mgrwt>
</event>
<event>
 4    1  0.4897983E-002  0.4949064E+03  0.7818608E-02  0.1015117E+00
         21   -1    0    0  501  502  0.00000000000E+00  0.00000000000E+00  0.13424045702E+04  0.13424045702E+04  0.00000000000E+00 0. -1.
         21   -1    0    0  502  503 -0.00000000000E+00 -0.00000000000E+00 -0.21463539076E+03  0.21463539076E+03  0.00000000000E+00 0.  1.
    9000007    1    1    2  501    0 -0.61765588274E+02 -0.28481117621E+03  0.26244880661E+03  0.56018904852E+03  0.40000000000E+03 0.  1.
   -9000007    1    1    2    0  503  0.61765588274E+02  0.28481117621E+03  0.86532037279E+03  0.99685091240E+03  0.40000000000E+03 0. -1.
<mgrwt>
<rscale>  2 0.49490645E+03</rscale>
<asrwt>0</asrwt>
<pdfrwt beam="1">  1       21 0.20652377E+00 0.49490645E+03</pdfrwt>
<pdfrwt beam="2">  1       21 0.33020830E-01 0.49490645E+03</pdfrwt>
<totfact> 0.87760421E+02</totfact>
</mgrwt>
</event>
<event>
 4    1  0.4897983E-002  0.4498098E+03  0.7818608E-02  0.1027779E+00
         21   -1    0    0  501  502  0.00000000000E+00  0.00000000000E+00  0.16762048416E+03  0.16762048416E+03  0.00000000000E+00 0. -1.
         21   -1    0    0  502  503 -0.00000000000E+00 -0.00000000000E+00 -0.15665852431E+04  0.15665852431E+04  0.00000000000E+00 0. -1.
    9000007    1    1    2  501    0 -0.12902882387E+03  0.16025116291E+03 -0.28409328675E+03  0.53201303384E+03  0.40000000000E+03 0. -1.
   -9000007    1    1    2    0  503  0.12902882387E+03 -0.16025116291E+03 -0.11148714722E+04  0.12021926934E+04  0.40000000000E+03 0. -1.
<mgrwt>
<rscale>  2 0.44980982E+03</rscale>
<asrwt>0</asrwt>
<pdfrwt beam="1">  1       21 0.25787766E-01 0.44980982E+03</pdfrwt>
<pdfrwt beam="2">  1       21 0.24101312E+00 0.44980982E+03</pdfrwt>
<totfact> 0.88162334E+02</totfact>
</mgrwt>
</event>
<event>
 4    1  0.4897983E-002  0.4502281E+03  0.7818608E-02  0.1027654E+00
         21   -1    0    0  501  502  0.00000000000E+00  0.00000000000E+00  0.34731932830E+03  0.34731932830E+03  0.00000000000E+00 0. -1.
         21   -1    0    0  502  503 -0.00000000000E+00 -0.00000000000E+00 -0.62539520221E+03  0.62539520221E+03  0.00000000000E+00 0. -1.
    9000007    1    1    2  501    0  0.70705853973E+02  0.19418040434E+03 -0.13349624466E+02  0.45042597582E+03  0.40000000000E+03 0.  1.
   -9000007    1    1    2    0  503 -0.70705853973E+02 -0.19418040434E+03 -0.26472624945E+03  0.52228855470E+03  0.40000000000E+03 0.  1.
<mgrwt>
<rscale>  2 0.45022811E+03</rscale>
<asrwt>0</asrwt>
<pdfrwt beam="1">  1       21 0.53433744E-01 0.45022811E+03</pdfrwt>
<pdfrwt beam="2">  1       21 0.96214645E-01 0.45022811E+03</pdfrwt>
<totfact> 0.25849820E+03</totfact>
</mgrwt>
</event>
<event>
 4    1  0.4897983E-002  0.5816028E+03  0.7818608E-02  0.9944327E-01
         21   -1    0    0  501  502  0.00000000000E+00  0.00000000000E+00  0.75498122611E+03  0.75498122611E+03  0.00000000000E+00 0. -1.
         21   -1    0    0  502  503 -0.00000000000E+00 -0.00000000000E+00 -0.63548356473E+03  0.63548356473E+03  0.00000000000E+00 0. -1.
    9000007    1    1    2  501    0  0.19363789836E+03  0.37518816655E+03  0.43733240650E+03  0.72768223132E+03  0.40000000000E+03 0. -1.
   -9000007    1    1    2    0  503 -0.19363789836E+03 -0.37518816655E+03 -0.31783474512E+03  0.66278255952E+03  0.40000000000E+03 0. -1.
<mgrwt>
<rscale>  2 0.58160278E+03</rscale>
<asrwt>0</asrwt>
<pdfrwt beam="1">  1       21 0.11615096E+00 0.58160278E+03</pdfrwt>
<pdfrwt beam="2">  1       21 0.97766702E-01 0.58160278E+03</pdfrwt>
<totfact> 0.39122144E+02</totfact>
</mgrwt>
</event>
<event>
 4    1  0.4897983E-002  0.5201803E+03  0.7818608E-02  0.1008642E+00
         21   -1    0    0  501  502  0.00000000000E+00  0.00000000000E+00  0.43639118532E+03  0.43639118532E+03  0.00000000000E+00 0. -1.
         21   -1    0    0  502  503 -0.00000000000E+00 -0.00000000000E+00 -0.64484352363E+03  0.64484352363E+03  0.00000000000E+00 0. -1.
    9000007    1    1    2  501    0 -0.32556854161E+03 -0.67769360982E+02  0.17644826104E+01  0.52018330901E+03  0.40000000000E+03 0. -1.
   -9000007    1    1    2    0  503  0.32556854161E+03  0.67769360982E+02 -0.21021682092E+03  0.56105139994E+03  0.40000000000E+03 0. -1.
<mgrwt>
<rscale>  2 0.52018032E+03</rscale>
<asrwt>0</asrwt>
<pdfrwt beam="1">  1       21 0.67137106E-01 0.52018032E+03</pdfrwt>
<pdfrwt beam="2">  1       21 0.99206696E-01 0.52018032E+03</pdfrwt>
<totfact> 0.14192479E+03</totfact>
</mgrwt>
</event>
<event>
 4    1  0.4897983E-002  0.4108086E+03  0.7818608E-02  0.1040100E+00
         21   -1    0    0  503  502  0.00000000000E+00  0.00000000000E+00  0.18892049271E+03  0.18892049271E+03  0.00000000000E+00 0.  1.
         21   -1    0    0  501  503 -0.00000000000E+00 -0.00000000000E+00 -0.12643308298E+04  0.12643308298E+04  0.00000000000E+00 0.  1.
    9000007    1    1    2  501    0 -0.21885075129E+02 -0.91020443943E+02 -0.93132979654E+03  0.10179090665E+04  0.40000000000E+03 0.  1.
   -9000007    1    1    2    0  502  0.21885075129E+02  0.91020443943E+02 -0.14408054060E+03  0.43534225606E+03  0.40000000000E+03 0.  1.
<mgrwt>
<rscale>  2 0.41080857E+03</rscale>
<asrwt>0</asrwt>
<pdfrwt beam="1">  1       21 0.29064692E-01 0.41080857E+03</pdfrwt>
<pdfrwt beam="2">  1       21 0.19451243E+00 0.41080857E+03</pdfrwt>
<totfact> 0.14140104E+03</totfact>
</mgrwt>
</event>
<event>
 4    1  0.4897983E-002  0.4556226E+03  0.7818608E-02  0.1026058E+00
         21   -1    0    0  503  502  0.00000000000E+00  0.00000000000E+00  0.12994969635E+03  0.12994969635E+03  0.00000000000E+00 0.  1.
         21   -1    0    0  501  503 -0.00000000000E+00 -0.00000000000E+00 -0.16040781146E+04  0.16040781146E+04  0.00000000000E+00 0.  1.
    9000007    1    1    2  501    0  0.36878961001E+02  0.21501612195E+03 -0.68145637053E+03  0.81974067570E+03  0.40000000000E+03 0. -1.
   -9000007    1    1    2    0  502 -0.36878961001E+02 -0.21501612195E+03 -0.79267204776E+03  0.91428713530E+03  0.40000000000E+03 0. -1.
<mgrwt>
<rscale>  2 0.45562264E+03</rscale>
<asrwt>0</asrwt>
<pdfrwt beam="1">  1       21 0.19992262E-01 0.45562264E+03</pdfrwt>
<pdfrwt beam="2">  1       21 0.24678124E+00 0.45562264E+03</pdfrwt>
<totfact> 0.13228228E+03</totfact>
</mgrwt>
</event>
<event>
 4    1  0.4897983E-002  0.4811631E+03  0.7818608E-02  0.1018816E+00
         21   -1    0    0  501  502  0.00000000000E+00  0.00000000000E+00  0.29233048260E+03  0.29233048260E+03  0.00000000000E+00 0. -1.
         21   -1    0    0  502  503 -0.00000000000E+00 -0.00000000000E+00 -0.11577604662E+04  0.11577604662E+04  0.00000000000E+00 0. -1.
    9000007    1    1    2  501    0 -0.59903598618E+02  0.26063290618E+03 -0.84025484809E+03  0.96826967455E+03  0.40000000000E+03 0.  1.
   -9000007    1    1    2    0  503  0.59903598618E+02 -0.26063290618E+03 -0.25175135553E+02  0.48182127430E+03  0.40000000000E+03 0.  1.
<mgrwt>
<rscale>  2 0.48116313E+03</rscale>
<asrwt>0</asrwt>
<pdfrwt beam="1">  1       21 0.44973920E-01 0.48116313E+03</pdfrwt>
<pdfrwt beam="2">  1       21 0.17811700E+00 0.48116313E+03</pdfrwt>
<totfact> 0.73181103E+02</totfact>
</mgrwt>
</event>
<event>
 4    1  0.4897983E-002  0.4131487E+03  0.7818608E-02  0.1039320E+00
         21   -1    0    0  503  502  0.00000000000E+00  0.00000000000E+00  0.30390370543E+03  0.30390370543E+03  0.00000000000E+00 0.  1.
         21   -1    0    0  501  503 -0.00000000000E+00 -0.00000000000E+00 -0.73513214167E+03  0.73513214167E+03  0.00000000000E+00 0.  1.
    9000007    1    1    2  501    0 -0.73387772482E+02  0.72842760537E+02 -0.46797823815E+03  0.62425592852E+03  0.40000000000E+03 0.  1.
   -9000007    1    1    2    0  502  0.73387772482E+02 -0.72842760537E+02  0.36749801918E+02  0.41477991858E+03  0.40000000000E+03 0.  1.
<mgrwt>
<rscale>  2 0.41314868E+03</rscale>
<asrwt>0</asrwt>
<pdfrwt beam="1">  1       21 0.46754417E-01 0.41314868E+03</pdfrwt>
<pdfrwt beam="2">  1       21 0.11309725E+00 0.41314868E+03</pdfrwt>
<totfact> 0.23431535E+03</totfact>
</mgrwt>
</event>
<event>
 4    1  0.4897983E-002  0.4027574E+03  0.7818608E-02  0.1042829E+00
         21   -1    0    0  501  502  0.00000000000E+00  0.00000000000E+00  0.10012258908E+04  0.10012258908E+04  0.00000000000E+00 0.  1.
         21   -1    0    0  502  503 -0.00000000000E+00 -0.00000000000E+00 -0.38399525032E+03  0.38399525032E+03  0.00000000000E+00 0.  1.
    9000007    1    1    2  501    0 -0.46815458984E+02 -0.46715564962E+01  0.83521847590E+03  0.92725585095E+03  0.40000000000E+03 0.  1.
   -9000007    1    1    2    0  503  0.46815458984E+02  0.46715564962E+01 -0.21798783540E+03  0.45796529019E+03  0.40000000000E+03 0.  1.
<mgrwt>
<rscale>  2 0.40275738E+03</rscale>
<asrwt>0</asrwt>
<pdfrwt beam="1">  1       21 0.15403475E+00 0.40275738E+03</pdfrwt>
<pdfrwt beam="2">  1       21 0.59076193E-01 0.40275738E+03</pdfrwt>
<totfact> 0.63846008E+02</totfact>
</mgrwt>
</event>
<event>
 4    1  0.4897983E-002  0.4024048E+03  0.7818608E-02  0.1042950E+00
         21   -1    0    0  501  502  0.00000000000E+00  0.00000000000E+00  0.92774444456E+03  0.92774444456E+03  0.00000000000E+00 0. -1.
         21   -1    0    0  502  503 -0.00000000000E+00 -0.00000000000E+00 -0.18750716258E+03  0.18750716258E+03  0.00000000000E+00 0. -1.
    9000007    1    1    2  501    0  0.39347094255E+02 -0.19530162678E+02  0.51675323790E+03  0.65495307462E+03  0.40000000000E+03 0. -1.
   -9000007    1    1    2    0  503 -0.39347094255E+02  0.19530162678E+02  0.22348404409E+03  0.46029853252E+03  0.40000000000E+03 0. -1.
<mgrwt>
<rscale>  2 0.40240480E+03</rscale>
<asrwt>0</asrwt>
<pdfrwt beam="1">  1       21 0.14272991E+00 0.40240480E+03</pdfrwt>
<pdfrwt beam="2">  1       21 0.28847256E-01 0.40240480E+03</pdfrwt>
<totfact> 0.34534014E+03</totfact>
</mgrwt>
</event>
<event>
 4    1  0.4897983E-002  0.4581575E+03  0.7818608E-02  0.1025317E+00
         21   -1    0    0  503  502  0.00000000000E+00  0.00000000000E+00  0.76902129778E+02  0.76902129778E+02  0.00000000000E+00 0.  1.
         21   -1    0    0  501  503 -0.00000000000E+00 -0.00000000000E+00 -0.30690956921E+04  0.30690956921E+04  0.00000000000E+00 0. -1.
    9000007    1    1    2  501    0  0.12004092653E+03 -0.18841043197E+03 -0.20193012361E+04  0.20706244944E+04  0.40000000000E+03 0. -1.
   -9000007    1    1    2    0  502 -0.12004092653E+03  0.18841043197E+03 -0.97289232625E+03  0.10753733274E+04  0.40000000000E+03 0.  1.
<mgrwt>
<rscale>  2 0.45815752E+03</rscale>
<asrwt>0</asrwt>
<pdfrwt beam="1">  1       21 0.11831096E-01 0.45815752E+03</pdfrwt>
<pdfrwt beam="2">  1       21 0.47216860E+00 0.45815752E+03</pdfrwt>
<totfact> 0.13305669E+02</totfact>
</mgrwt>
</event>
<event>
 4    1  0.4897983E-002  0.5687356E+03  0.7818608E-02  0.9972481E-01
         21   -1    0    0  503  502  0.00000000000E+00  0.00000000000E+00  0.10337899610E+04  0.10337899610E+04  0.00000000000E+00 0. -1.
         21   -1    0    0  501  503 -0.00000000000E+00 -0.00000000000E+00 -0.54308536667E+03  0.54308536667E+03  0.00000000000E+00 0.  1.
    9000007    1    1    2  501    0 -0.39205539179E+03 -0.98755883562E+02 -0.26796249354E+03  0.62870028846E+03  0.40000000000E+03 0.  1.
   -9000007    1    1    2    0  502  0.39205539179E+03  0.98755883562E+02  0.75866708785E+03  0.94817503920E+03  0.40000000000E+03 0. -1.
<mgrwt>
<rscale>  2 0.56873558E+03</rscale>
<asrwt>0</asrwt>
<pdfrwt beam="1">  1       21 0.15904461E+00 0.56873558E+03</pdfrwt>
<pdfrwt beam="2">  1       21 0.83551595E-01 0.56873558E+03</pdfrwt>
<totfact> 0.24808635E+02</totfact>
</mgrwt>
</event>
<event>
 4    1  0.4897983E-002  0.4858232E+03  0.7818608E-02  0.1017547E+00
         21   -1    0    0  503  502  0.00000000000E+00  0.00000000000E+00  0.10845752144E+04  0.10845752144E+04  0.00000000000E+00 0.  1.
         21   -1    0    0  501  503 -0.00000000000E+00 -0.00000000000E+00 -0.21972018035E+03  0.21972018035E+03  0.00000000000E+00 0.  1.
    9000007    1    1    2  501    0  0.15569141139E+03 -0.22756181158E+03  0.36865394481E+03  0.60986057808E+03  0.40000000000E+03 0.  1.
   -9000007    1    1    2    0  502 -0.15569141139E+03  0.22756181158E+03  0.49620108928E+03  0.69443481672E+03  0.40000000000E+03 0.  1.
<mgrwt>
<rscale>  2 0.48582321E+03</rscale>
<asrwt>0</asrwt>
<pdfrwt beam="1">  1       21 0.16685772E+00 0.48582321E+03</pdfrwt>
<pdfrwt beam="2">  1       21 0.33803106E-01 0.48582321E+03</pdfrwt>
<totfact> 0.15852944E+03</totfact>
</mgrwt>
</event>
<event>
 4    1  0.4897983E-002  0.4018080E+03  0.7818608E-02  0.1043155E+00
         21   -1    0    0  503  502  0.00000000000E+00  0.00000000000E+00  0.20833486422E+03  0.20833486422E+03  0.00000000000E+00 0.  1.
         21   -1    0    0  501  503 -0.00000000000E+00 -0.00000000000E+00 -0.11299451436E+04  0.11299451436E+04  0.00000000000E+00 0.  1.
    9000007    1    1    2  501    0  0.19396777126E+02 -0.32763605280E+02 -0.85747686167E+02  0.41085563703E+03  0.40000000000E+03 0.  1.
   -9000007    1    1    2    0  502 -0.19396777126E+02  0.32763605280E+02 -0.83586259320E+03  0.92742437077E+03  0.40000000000E+03 0.  1.
<mgrwt>
<rscale>  2 0.40180802E+03</rscale>
<asrwt>0</asrwt>
<pdfrwt beam="1">  1       21 0.32051519E-01 0.40180802E+03</pdfrwt>
<pdfrwt beam="2">  1       21 0.17383771E+00 0.40180802E+03</pdfrwt>
<totfact> 0.16269793E+03</totfact>
</mgrwt>
</event>
<event>
 4    1  0.4897983E-002  0.4848875E+03  0.7818608E-02  0.1017801E+00
         21   -1    0    0  501  502  0.00000000000E+00  0.00000000000E+00  0.11139194995E+04  0.11139194995E+04  0.00000000000E+00 0.  1.
         21   -1    0    0  502  503 -0.00000000000E+00 -0.00000000000E+00 -0.21107087449E+03  0.21107087449E+03  0.00000000000E+00 0. -1.
    9000007    1    1    2  501    0 -0.20342693565E+03 -0.18366636943E+03  0.45187634760E+03  0.66280320377E+03  0.40000000000E+03 0.  1.
   -9000007    1    1    2    0  503  0.20342693565E+03  0.18366636943E+03  0.45097227739E+03  0.66218717020E+03  0.40000000000E+03 0. -1.
<mgrwt>
<rscale>  2 0.48488746E+03</rscale>
<asrwt>0</asrwt>
<pdfrwt beam="1">  1       21 0.17137223E+00 0.48488746E+03</pdfrwt>
<pdfrwt beam="2">  1       21 0.32472443E-01 0.48488746E+03</pdfrwt>
<totfact> 0.15935060E+03</totfact>
</mgrwt>
</event>
<event>
 4    1  0.4897983E-002  0.5895670E+03  0.7818608E-02  0.9927291E-01
         21   -1    0    0  501  502  0.00000000000E+00  0.00000000000E+00  0.72371931501E+03  0.72371931501E+03  0.00000000000E+00 0. -1.
         21   -1    0    0  502  503 -0.00000000000E+00 -0.00000000000E+00 -0.55922034132E+03  0.55922034132E+03  0.00000000000E+00 0. -1.
    9000007    1    1    2  501    0 -0.21022707912E+03 -0.37867377208E+03 -0.15875724231E+03  0.61056786063E+03  0.40000000000E+03 0. -1.
   -9000007    1    1    2    0  503  0.21022707912E+03  0.37867377208E+03  0.32325621601E+03  0.67237179569E+03  0.40000000000E+03 0. -1.
<mgrwt>
<rscale>  2 0.58956700E+03</rscale>
<asrwt>0</asrwt>
<pdfrwt beam="1">  1       21 0.11134143E+00 0.58956700E+03</pdfrwt>
<pdfrwt beam="2">  1       21 0.86033899E-01 0.58956700E+03</pdfrwt>
<totfact> 0.58930292E+02</totfact>
</mgrwt>
</event>
<event>
 4    1  0.4897983E-002  0.4494080E+03  0.7818608E-02  0.1027899E+00
         21   -1    0    0  503  502  0.00000000000E+00  0.00000000000E+00  0.39185023251E+03  0.39185023251E+03  0.00000000000E+00 0. -1.
         21   -1    0    0  501  503 -0.00000000000E+00 -0.00000000000E+00 -0.51594420697E+03  0.51594420697E+03  0.00000000000E+00 0.  1.
    9000007    1    1    2  501    0  0.18796231383E+03 -0.81471999791E+02 -0.47581531233E+02  0.45191981621E+03  0.40000000000E+03 0. -1.
   -9000007    1    1    2    0  502 -0.18796231383E+03  0.81471999791E+02 -0.76512443232E+02  0.45587462327E+03  0.40000000000E+03 0.  1.
<mgrwt>
<rscale>  2 0.44940796E+03</rscale>
<asrwt>0</asrwt>
<pdfrwt beam="1">  1       21 0.60284651E-01 0.44940796E+03</pdfrwt>
<pdfrwt beam="2">  1       21 0.79376032E-01 0.44940796E+03</pdfrwt>
<totfact> 0.31300014E+03</totfact>
</mgrwt>
</event>
<event>
 4    1  0.4897983E-002  0.5479804E+03  0.7818608E-02  0.1001962E+00
         21   -1    0    0  503  502  0.00000000000E+00  0.00000000000E+00  0.56284704448E+03  0.56284704448E+03  0.00000000000E+00 0.  1.
         21   -1    0    0  501  503 -0.00000000000E+00 -0.00000000000E+00 -0.66356749095E+03  0.66356749095E+03  0.00000000000E+00 0.  1.
    9000007    1    1    2  501    0 -0.26411375217E+03  0.26556812932E+03 -0.32184058827E+03  0.63550284787E+03  0.40000000000E+03 0.  1.
   -9000007    1    1    2    0  502  0.26411375217E+03 -0.26556812932E+03  0.22112014179E+03  0.59091168756E+03  0.40000000000E+03 0.  1.
<mgrwt>
<rscale>  2 0.54798039E+03</rscale>
<asrwt>0</asrwt>
<pdfrwt beam="1">  1       21 0.86591854E-01 0.54798039E+03</pdfrwt>
<pdfrwt beam="2">  1       21 0.10208731E+00 0.54798039E+03</pdfrwt>
<totfact> 0.73021169E+02</totfact>
</mgrwt>
</event>
<event>
 4    1  0.4897983E-002  0.4966423E+03  0.7818608E-02  0.1014659E+00
         21   -1    0    0  501  502  0.00000000000E+00  0.00000000000E+00  0.25149135262E+03  0.25149135262E+03  0.00000000000E+00 0.  1.
         21   -1    0    0  502  503 -0.00000000000E+00 -0.00000000000E+00 -0.13210895348E+04  0.13210895348E+04  0.00000000000E+00 0.  1.
    9000007    1    1    2  501    0 -0.25488774623E+03 -0.14726116758E+03 -0.13571513676E+03  0.51485164174E+03  0.40000000000E+03 0.  1.
   -9000007    1    1    2    0  503  0.25488774623E+03  0.14726116758E+03 -0.93388304543E+03  0.10577292457E+04  0.40000000000E+03 0.  1.
<mgrwt>
<rscale>  2 0.49664234E+03</rscale>
<asrwt>0</asrwt>
<pdfrwt beam="1">  1       21 0.38690978E-01 0.49664234E+03</pdfrwt>
<pdfrwt beam="2">  1       21 0.20324454E+00 0.49664234E+03</pdfrwt>
<totfact> 0.66794554E+02</totfact>
</mgrwt>
</event>
<event>
 4    1  0.4897983E-002  0.4114483E+03  0.7818608E-02  0.1039886E+00
         21   -1    0    0  503  502  0.00000000000E+00  0.00000000000E+00  0.70254478331E+03  0.70254478331E+03  0.00000000000E+00 0. -1.
         21   -1    0    0  501  503 -0.00000000000E+00 -0.00000000000E+00 -0.24452331008E+03  0.24452331008E+03  0.00000000000E+00 0. -1.
    9000007    1    1    2  501    0 -0.40623246272E+02  0.87404038129E+02  0.17189902243E+03  0.44591365524E+03  0.40000000000E+03 0.  1.
   -9000007    1    1    2    0  502  0.40623246272E+02 -0.87404038129E+02  0.28612245080E+03  0.50115443814E+03  0.40000000000E+03 0.  1.
<mgrwt>
<rscale>  2 0.41144831E+03</rscale>
<asrwt>0</asrwt>
<pdfrwt beam="1">  1       21 0.10808381E+00 0.41144831E+03</pdfrwt>
<pdfrwt beam="2">  1       21 0.37618971E-01 0.41144831E+03</pdfrwt>
<totfact> 0.41147110E+03</totfact>
</mgrwt>
</event>
<event>
 4    1  0.4897983E-002  0.7614536E+03  0.7818608E-02  0.9617551E-01
         21   -1    0    0  501  502  0.00000000000E+00  0.00000000000E+00  0.11723903015E+04  0.11723903015E+04  0.00000000000E+00 0. -1.
         21   -1    0    0  502  503 -0.00000000000E+00 -0.00000000000E+00 -0.52952204347E+03  0.52952204347E+03  0.00000000000E+00 0.  1.
    9000007    1    1    2  501    0  0.34706221286E+03  0.54713742342E+03  0.10276154310E+03  0.76835634600E+03  0.40000000000E+03 0.  1.
   -9000007    1    1    2    0  503 -0.34706221286E+03 -0.54713742342E+03  0.54010671492E+03  0.93355599897E+03  0.40000000000E+03 0. -1.
<mgrwt>
<rscale>  2 0.76145357E+03</rscale>
<asrwt>0</asrwt>
<pdfrwt beam="1">  1       21 0.18036774E+00 0.76145357E+03</pdfrwt>
<pdfrwt beam="2">  1       21 0.81464930E-01 0.76145357E+03</pdfrwt>
<totfact> 0.17145602E+02</totfact>
</mgrwt>
</event>
<event>
 4    1  0.4897983E-002  0.4152131E+03  0.7818608E-02  0.1038636E+00
         21   -1    0    0  503  502  0.00000000000E+00  0.00000000000E+00  0.37109569381E+03  0.37109569381E+03  0.00000000000E+00 0. -1.
         21   -1    0    0  501  503 -0.00000000000E+00 -0.00000000000E+00 -0.95312851071E+03  0.95312851071E+03  0.00000000000E+00 0. -1.
    9000007    1    1    2  501    0 -0.10646579357E+03  0.32664119633E+02 -0.76505283076E+03  0.87046409677E+03  0.40000000000E+03 0.  1.
   -9000007    1    1    2    0  502  0.10646579357E+03 -0.32664119633E+02  0.18302001386E+03  0.45376010775E+03  0.40000000000E+03 0.  1.
<mgrwt>
<rscale>  2 0.41521309E+03</rscale>
<asrwt>0</asrwt>
<pdfrwt beam="1">  1       21 0.57091644E-01 0.41521309E+03</pdfrwt>
<pdfrwt beam="2">  1       21 0.14663516E+00 0.41521309E+03</pdfrwt>
<totfact> 0.78094484E+02</totfact>
</mgrwt>
</event>
<event>
 4    1  0.4897983E-002  0.4482745E+03  0.7818608E-02  0.1028238E+00
         21   -1    0    0  503  502  0.00000000000E+00  0.00000000000E+00  0.71987450413E+02  0.71987450413E+02  0.00000000000E+00 0.  1.
         21   -1    0    0  501  503 -0.00000000000E+00 -0.00000000000E+00 -0.29289418494E+04  0.29289418494E+04  0.00000000000E+00 0.  1.
    9000007    1    1    2  501    0 -0.12983611273E+03 -0.15521802305E+03 -0.17535599298E+04  0.18099509602E+04  0.40000000000E+03 0.  1.
   -9000007    1    1    2    0  502  0.12983611273E+03  0.15521802305E+03 -0.11033944692E+04  0.11909783397E+04  0.40000000000E+03 0.  1.
<mgrwt>
<rscale>  2 0.44827453E+03</rscale>
<asrwt>0</asrwt>
<pdfrwt beam="1">  1       21 0.11074991E-01 0.44827453E+03</pdfrwt>
<pdfrwt beam="2">  1       21 0.45060648E+00 0.44827453E+03</pdfrwt>
<totfact> 0.21226515E+02</totfact>
</mgrwt>
</event>
<event>
 4    1  0.4897983E-002  0.4525649E+03  0.7818608E-02  0.1026960E+00
         21   -1    0    0  503  502  0.00000000000E+00  0.00000000000E+00  0.14252169271E+04  0.14252169271E+04  0.00000000000E+00 0.  1.
         21   -1    0    0  501  503 -0.00000000000E+00 -0.00000000000E+00 -0.14401319076E+03  0.14401319076E+03  0.00000000000E+00 0.  1.
    9000007    1    1    2  501    0  0.19721460018E+03  0.76950562841E+02  0.60447882085E+03  0.75512226328E+03  0.40000000000E+03 0. -1.
   -9000007    1    1    2    0  502 -0.19721460018E+03 -0.76950562841E+02  0.67672491554E+03  0.81410785462E+03  0.40000000000E+03 0. -1.
<mgrwt>
<rscale>  2 0.45256490E+03</rscale>
<asrwt>0</asrwt>
<pdfrwt beam="1">  1       21 0.21926413E+00 0.45256490E+03</pdfrwt>
<pdfrwt beam="2">  1       21 0.22155876E-01 0.45256490E+03</pdfrwt>
<totfact> 0.16193173E+03</totfact>
</mgrwt>
</event>
<event>
 4    1  0.4897983E-002  0.6348993E+03  0.7818608E-02  0.9835534E-01
         21   -1    0    0  503  502  0.00000000000E+00  0.00000000000E+00  0.16513667667E+04  0.16513667667E+04  0.00000000000E+00 0. -1.
         21   -1    0    0  501  503 -0.00000000000E+00 -0.00000000000E+00 -0.45181769541E+03  0.45181769541E+03  0.00000000000E+00 0.  1.
    9000007    1    1    2  501    0  0.19264740448E+02  0.49267235957E+03 -0.11324825666E+03  0.64492042280E+03  0.40000000000E+03 0.  1.
   -9000007    1    1    2    0  502 -0.19264740448E+02 -0.49267235957E+03  0.13127973280E+04  0.14582640393E+04  0.40000000000E+03 0. -1.
<mgrwt>
<rscale>  2 0.63489935E+03</rscale>
<asrwt>0</asrwt>
<pdfrwt beam="1">  1       21 0.25405642E+00 0.63489935E+03</pdfrwt>
<pdfrwt beam="2">  1       21 0.69510415E-01 0.63489935E+03</pdfrwt>
<totfact> 0.84441649E+01</totfact>
</mgrwt>
</event>
<event>
 4    1  0.4897983E-002  0.4064560E+03  0.7818608E-02  0.1041567E+00
         21   -1    0    0  503  502  0.00000000000E+00  0.00000000000E+00  0.33566566544E+03  0.33566566544E+03  0.00000000000E+00 0.  1.
         21   -1    0    0  501  503 -0.00000000000E+00 -0.00000000000E+00 -0.21496142311E+04  0.21496142311E+04  0.00000000000E+00 0.  1.
    9000007    1    1    2  501    0 -0.94445557288E+01 -0.71535071998E+02 -0.19981225547E+04  0.20390439450E+04  0.40000000000E+03 0.  1.
   -9000007    1    1    2    0  502  0.94445557288E+01  0.71535071998E+02  0.18417398906E+03  0.44623595149E+03  0.40000000000E+03 0.  1.
<mgrwt>
<rscale>  2 0.40645598E+03</rscale>
<asrwt>0</asrwt>
<pdfrwt beam="1">  1       21 0.51640870E-01 0.40645598E+03</pdfrwt>
<pdfrwt beam="2">  1       21 0.33070989E+00 0.40645598E+03</pdfrwt>
<totfact> 0.63223794E+01</totfact>
</mgrwt>
</event>
<event>
 4    1  0.4897983E-002  0.4709529E+03  0.7818608E-02  0.1021652E+00
         21   -1    0    0  501  502  0.00000000000E+00  0.00000000000E+00  0.69447395830E+03  0.69447395830E+03  0.00000000000E+00 0. -1.
         21   -1    0    0  502  503 -0.00000000000E+00 -0.00000000000E+00 -0.53214925717E+03  0.53214925717E+03  0.00000000000E+00 0. -1.
    9000007    1    1    2  501    0  0.16627798045E+03  0.18479262164E+03  0.46897804282E+03  0.66463304495E+03  0.40000000000E+03 0. -1.
   -9000007    1    1    2    0  503 -0.16627798045E+03 -0.18479262164E+03 -0.30665334169E+03  0.56199017052E+03  0.40000000000E+03 0. -1.
<mgrwt>
<rscale>  2 0.47095295E+03</rscale>
<asrwt>0</asrwt>
<pdfrwt beam="1">  1       21 0.10684215E+00 0.47095295E+03</pdfrwt>
<pdfrwt beam="2">  1       21 0.81869117E-01 0.47095295E+03</pdfrwt>
<totfact> 0.76610905E+02</totfact>
</mgrwt>
</event>
<event>
 4    1  0.4897983E-002  0.4532510E+03  0.7818608E-02  0.1026757E+00
         21   -1    0    0  501  502  0.00000000000E+00  0.00000000000E+00  0.36148350612E+03  0.36148350612E+03  0.00000000000E+00 0.  1.
         21   -1    0    0  502  503 -0.00000000000E+00 -0.00000000000E+00 -0.58967301297E+03  0.58967301297E+03  0.00000000000E+00 0.  1.
    9000007    1    1    2  501    0 -0.65648596470E+02 -0.20279734169E+03 -0.20460479308E+03  0.49729228967E+03  0.40000000000E+03 0.  1.
   -9000007    1    1    2    0  503  0.65648596470E+02  0.20279734169E+03 -0.23584713768E+02  0.45386422941E+03  0.40000000000E+03 0.  1.
<mgrwt>
<rscale>  2 0.45325103E+03</rscale>
<asrwt>0</asrwt>
<pdfrwt beam="1">  1       21 0.55612847E-01 0.45325103E+03</pdfrwt>
<pdfrwt beam="2">  1       21 0.90718925E-01 0.45325103E+03</pdfrwt>
<totfact> 0.27262332E+03</totfact>
</mgrwt>
</event>
<event>
 4    1  0.4897983E-002  0.4202722E+03  0.7818608E-02  0.1036978E+00
         21   -1    0    0  501  502  0.00000000000E+00  0.00000000000E+00  0.20269067454E+04  0.20269067454E+04  0.00000000000E+00 0. -1.
         21   -1    0    0  502  503 -0.00000000000E+00 -0.00000000000E+00 -0.87152340127E+02  0.87152340127E+02  0.00000000000E+00 0. -1.
    9000007    1    1    2  501    0  0.12711904375E+03 -0.21667336575E+02  0.98138607572E+03  0.10675895065E+04  0.40000000000E+03 0. -1.
   -9000007    1    1    2    0  503 -0.12711904375E+03  0.21667336575E+02  0.95836832957E+03  0.10464695791E+04  0.40000000000E+03 0. -1.
<mgrwt>
<rscale>  2 0.42027220E+03</rscale>
<asrwt>0</asrwt>
<pdfrwt beam="1">  1       21 0.31183177E+00 0.42027220E+03</pdfrwt>
<pdfrwt beam="2">  1       21 0.13408054E-01 0.42027220E+03</pdfrwt>
<totfact> 0.11497558E+03</totfact>
</mgrwt>
</event>
<event>
 4    1  0.4897983E-002  0.5093204E+03  0.7818608E-02  0.1011374E+00
         21   -1    0    0  503  502  0.00000000000E+00  0.00000000000E+00  0.19953257492E+03  0.19953257492E+03  0.00000000000E+00 0.  1.
         21   -1    0    0  501  503 -0.00000000000E+00 -0.00000000000E+00 -0.15629207326E+04  0.15629207326E+04  0.00000000000E+00 0.  1.
    9000007    1    1    2  501    0 -0.15924372321E+02  0.31488677406E+03 -0.10430788148E+04  0.11607845106E+04  0.40000000000E+03 0.  1.
   -9000007    1    1    2    0  502  0.15924372321E+02 -0.31488677406E+03 -0.32030934293E+03  0.60166879700E+03  0.40000000000E+03 0.  1.
<mgrwt>
<rscale>  2 0.50932040E+03</rscale>
<asrwt>0</asrwt>
<pdfrwt beam="1">  1       21 0.30697321E-01 0.50932040E+03</pdfrwt>
<pdfrwt beam="2">  1       21 0.24044933E+00 0.50932040E+03</pdfrwt>
<totfact> 0.61248441E+02</totfact>
</mgrwt>
</event>
<event>
 4    1  0.4897983E-002  0.4657286E+03  0.7818608E-02  0.1023133E+00
         21   -1    0    0  501  502  0.00000000000E+00  0.00000000000E+00  0.24121907061E+03  0.24121907061E+03  0.00000000000E+00 0.  1.
         21   -1    0    0  502  503 -0.00000000000E+00 -0.00000000000E+00 -0.91177307013E+03  0.91177307013E+03  0.00000000000E+00 0.  1.
    9000007    1    1    2  501    0  0.18895242037E+03  0.14560243201E+03 -0.26756703428E+03  0.53711749479E+03  0.40000000000E+03 0.  1.
   -9000007    1    1    2    0  503 -0.18895242037E+03 -0.14560243201E+03 -0.40298696524E+03  0.61587464595E+03  0.40000000000E+03 0.  1.
<mgrwt>
<rscale>  2 0.46572855E+03</rscale>
<asrwt>0</asrwt>
<pdfrwt beam="1">  1       21 0.37110627E-01 0.46572855E+03</pdfrwt>
<pdfrwt beam="2">  1       21 0.14027278E+00 0.46572855E+03</pdfrwt>
<totfact> 0.21286974E+03</totfact>
</mgrwt>
</event>
<event>
 4    1  0.4897983E-002  0.4042396E+03  0.7818608E-02  0.1042321E+00
         21   -1    0    0  503  502  0.00000000000E+00  0.00000000000E+00  0.15797439871E+03  0.15797439871E+03  0.00000000000E+00 0. -1.
         21   -1    0    0  501  503 -0.00000000000E+00 -0.00000000000E+00 -0.19402739528E+04  0.19402739528E+04  0.00000000000E+00 0. -1.
    9000007    1    1    2  501    0 -0.58016350007E+02 -0.66156806088E+01 -0.16079989998E+04  0.16580321009E+04  0.40000000000E+03 0. -1.
   -9000007    1    1    2    0  502  0.58016350007E+02  0.66156806088E+01 -0.17430055424E+03  0.44021625062E+03  0.40000000000E+03 0. -1.
<mgrwt>
<rscale>  2 0.40423961E+03</rscale>
<asrwt>0</asrwt>
<pdfrwt beam="1">  1       21 0.24303752E-01 0.40423961E+03</pdfrwt>
<pdfrwt beam="2">  1       21 0.29850371E+00 0.40423961E+03</pdfrwt>
<totfact> 0.45530330E+02</totfact>
</mgrwt>
</event>
<event>
 4    1  0.4897983E-002  0.4792706E+03  0.7818608E-02  0.1019336E+00
         21   -1    0    0  503  502  0.00000000000E+00  0.00000000000E+00  0.52786275849E+03  0.52786275849E+03  0.00000000000E+00 0. -1.
         21   -1    0    0  501  503 -0.00000000000E+00 -0.00000000000E+00 -0.43582866796E+03  0.43582866796E+03  0.00000000000E+00 0. -1.
    9000007    1    1    2  501    0 -0.25667730328E+03 -0.61782271476E+02  0.27024261517E+02  0.48003187165E+03  0.40000000000E+03 0. -1.
   -9000007    1    1    2    0  502  0.25667730328E+03  0.61782271476E+02  0.65009829015E+02  0.48365955481E+03  0.40000000000E+03 0. -1.
<mgrwt>
<rscale>  2 0.47927058E+03</rscale>
<asrwt>0</asrwt>
<pdfrwt beam="1">  1       21 0.81209655E-01 0.47927058E+03</pdfrwt>
<pdfrwt beam="2">  1       21 0.67050564E-01 0.47927058E+03</pdfrwt>
<totfact> 0.23212828E+03</totfact>
</mgrwt>
</event>
<event>
 4    1  0.4897983E-002  0.4386282E+03  0.7818608E-02  0.1031169E+00
         21   -1    0    0  503  502  0.00000000000E+00  0.00000000000E+00  0.40950847986E+03  0.40950847986E+03  0.00000000000E+00 0. -1.
         21   -1    0    0  501  503 -0.00000000000E+00 -0.00000000000E+00 -0.52867446274E+03  0.52867446274E+03  0.00000000000E+00 0. -1.
    9000007    1    1    2  501    0  0.16432247107E+03 -0.73435619666E+02 -0.21609892638E+03  0.48897178928E+03  0.40000000000E+03 0. -1.
   -9000007    1    1    2    0  502 -0.16432247107E+03  0.73435619666E+02  0.96932943499E+02  0.44921115332E+03  0.40000000000E+03 0. -1.
<mgrwt>
<rscale>  2 0.43862816E+03</rscale>
<asrwt>0</asrwt>
<pdfrwt beam="1">  1       21 0.63001305E-01 0.43862816E+03</pdfrwt>
<pdfrwt beam="2">  1       21 0.81334533E-01 0.43862816E+03</pdfrwt>
<totfact> 0.26954234E+03</totfact>
</mgrwt>
</event>
<event>
 4    1  0.4897983E-002  0.4285944E+03  0.7818608E-02  0.1034305E+00
         21   -1    0    0  501  502  0.00000000000E+00  0.00000000000E+00  0.15297205161E+03  0.15297205161E+03  0.00000000000E+00 0.  1.
         21   -1    0    0  502  503 -0.00000000000E+00 -0.00000000000E+00 -0.21526861064E+04  0.21526861064E+04  0.00000000000E+00 0.  1.
    9000007    1    1    2  501    0  0.15023669479E+03 -0.33497099153E+02 -0.23327138829E+03  0.48796379037E+03  0.40000000000E+03 0.  1.
   -9000007    1    1    2    0  503 -0.15023669479E+03  0.33497099153E+02 -0.17664426665E+04  0.18176943676E+04  0.40000000000E+03 0.  1.
<mgrwt>
<rscale>  2 0.42859435E+03</rscale>
<asrwt>0</asrwt>
<pdfrwt beam="1">  1       21 0.23534162E-01 0.42859435E+03</pdfrwt>
<pdfrwt beam="2">  1       21 0.33118247E+00 0.42859435E+03</pdfrwt>
<totfact> 0.30348229E+02</totfact>
</mgrwt>
</event>
<event>
 4    1  0.4897983E-002  0.4393794E+03  0.7818608E-02  0.1030937E+00
         21   -1    0    0  501  502  0.00000000000E+00  0.00000000000E+00  0.68224171090E+03  0.68224171090E+03  0.00000000000E+00 0. -1.
         21   -1    0    0  502  503 -0.00000000000E+00 -0.00000000000E+00 -0.38481479518E+03  0.38481479518E+03  0.00000000000E+00 0. -1.
    9000007    1    1    2  501    0  0.81729224737E+02  0.16240259979E+03  0.42318664080E+03  0.61003377246E+03  0.40000000000E+03 0. -1.
   -9000007    1    1    2    0  503 -0.81729224737E+02 -0.16240259979E+03 -0.12575972508E+03  0.45702273362E+03  0.40000000000E+03 0. -1.
<mgrwt>
<rscale>  2 0.43937942E+03</rscale>
<asrwt>0</asrwt>
<pdfrwt beam="1">  1       21 0.10496026E+00 0.43937942E+03</pdfrwt>
<pdfrwt beam="2">  1       21 0.59202276E-01 0.43937942E+03</pdfrwt>
<totfact> 0.16821057E+03</totfact>
</mgrwt>
</event>
<event>
 4    1  0.4897983E-002  0.5050014E+03  0.7818608E-02  0.1012482E+00
         21   -1    0    0  501  502  0.00000000000E+00  0.00000000000E+00  0.35091653060E+03  0.35091653060E+03  0.00000000000E+00 0.  1.
         21   -1    0    0  502  503 -0.00000000000E+00 -0.00000000000E+00 -0.78042958943E+03  0.78042958943E+03  0.00000000000E+00 0.  1.
    9000007    1    1    2  501    0  0.81561780629E+02  0.29727777361E+03 -0.36312050697E+03  0.62199911682E+03  0.40000000000E+03 0.  1.
   -9000007    1    1    2    0  503 -0.81561780629E+02 -0.29727777361E+03 -0.66392551851E+02  0.50934700321E+03  0.40000000000E+03 0.  1.
<mgrwt>
<rscale>  2 0.50500138E+03</rscale>
<asrwt>0</asrwt>
<pdfrwt beam="1">  1       21 0.53987159E-01 0.50500138E+03</pdfrwt>
<pdfrwt beam="2">  1       21 0.12006609E+00 0.50500138E+03</pdfrwt>
<totfact> 0.14332781E+03</totfact>
</mgrwt>
</event>
<event>
 4    1  0.4897983E-002  0.4343154E+03  0.7818608E-02  0.1032505E+00
         21   -1    0    0  503  502  0.00000000000E+00  0.00000000000E+00  0.19219230467E+04  0.19219230467E+04  0.00000000000E+00 0.  1.
         21   -1    0    0  501  503 -0.00000000000E+00 -0.00000000000E+00 -0.16655796565E+03  0.16655796565E+03  0.00000000000E+00 0.  1.
    9000007    1    1    2  501    0 -0.47792432477E+02  0.16231381241E+03  0.20844161091E+03  0.48174453340E+03  0.40000000000E+03 0.  1.
   -9000007    1    1    2    0  502  0.47792432477E+02 -0.16231381241E+03  0.15469234701E+04  0.16067364790E+04  0.40000000000E+03 0.  1.
<mgrwt>
<rscale>  2 0.43431543E+03</rscale>
<asrwt>0</asrwt>
<pdfrwt beam="1">  1       21 0.29568045E+00 0.43431543E+03</pdfrwt>
<pdfrwt beam="2">  1       21 0.25624304E-01 0.43431543E+03</pdfrwt>
<totfact> 0.41931921E+02</totfact>
</mgrwt>
</event>
<event>
 4    1  0.4897983E-002  0.6500093E+03  0.7818608E-02  0.9806762E-01
         21   -1    0    0  503  502  0.00000000000E+00  0.00000000000E+00  0.52449720862E+03  0.52449720862E+03  0.00000000000E+00 0.  1.
         21   -1    0    0  501  503 -0.00000000000E+00 -0.00000000000E+00 -0.17376046456E+04  0.17376046456E+04  0.00000000000E+00 0. -1.
    9000007    1    1    2  501    0 -0.25542305785E+02 -0.51172221320E+03 -0.14349266413E+04  0.15752861640E+04  0.40000000000E+03 0. -1.
   -9000007    1    1    2    0  502  0.25542305785E+02  0.51172221320E+03  0.22181920427E+03  0.68681569016E+03  0.40000000000E+03 0.  1.
<mgrwt>
<rscale>  2 0.65000926E+03</rscale>
<asrwt>0</asrwt>
<pdfrwt beam="1">  1       21 0.80691879E-01 0.65000926E+03</pdfrwt>
<pdfrwt beam="2">  1       21 0.26732379E+00 0.65000926E+03</pdfrwt>
<totfact> 0.49285673E+01</totfact>
</mgrwt>
</event>
<event>
 4    1  0.4897983E-002  0.4060643E+03  0.7818608E-02  0.1041700E+00
         21   -1    0    0  503  502  0.00000000000E+00  0.00000000000E+00  0.57637540017E+03  0.57637540017E+03  0.00000000000E+00 0. -1.
         21   -1    0    0  501  503 -0.00000000000E+00 -0.00000000000E+00 -0.38091337359E+03  0.38091337359E+03  0.00000000000E+00 0. -1.
    9000007    1    1    2  501    0  0.20587186271E+02 -0.66815900895E+02 -0.14109714834E+03  0.42987975310E+03  0.40000000000E+03 0. -1.
   -9000007    1    1    2    0  502 -0.20587186271E+02  0.66815900895E+02  0.33655917493E+03  0.52740902066E+03  0.40000000000E+03 0. -1.
<mgrwt>
<rscale>  2 0.40606428E+03</rscale>
<asrwt>0</asrwt>
<pdfrwt beam="1">  1       21 0.88673138E-01 0.40606428E+03</pdfrwt>
<pdfrwt beam="2">  1       21 0.58602058E-01 0.40606428E+03</pdfrwt>
<totfact> 0.26145020E+03</totfact>
</mgrwt>
</event>
<event>
 4    1  0.4897983E-002  0.4117838E+03  0.7818608E-02  0.1039774E+00
         21   -1    0    0  501  502  0.00000000000E+00  0.00000000000E+00  0.19183642297E+03  0.19183642297E+03  0.00000000000E+00 0.  1.
         21   -1    0    0  502  503 -0.00000000000E+00 -0.00000000000E+00 -0.96786167589E+03  0.96786167589E+03  0.00000000000E+00 0.  1.
    9000007    1    1    2  501    0 -0.90390463523E+02 -0.37355932507E+02 -0.55878833780E+03  0.69412557081E+03  0.40000000000E+03 0.  1.
   -9000007    1    1    2    0  503  0.90390463523E+02  0.37355932507E+02 -0.21723691511E+03  0.46557252805E+03  0.40000000000E+03 0.  1.
<mgrwt>
<rscale>  2 0.41178380E+03</rscale>
<asrwt>0</asrwt>
<pdfrwt beam="1">  1       21 0.29513297E-01 0.41178380E+03</pdfrwt>
<pdfrwt beam="2">  1       21 0.14890179E+00 0.41178380E+03</pdfrwt>
<totfact> 0.29349824E+03</totfact>
</mgrwt>
</event>
<event>
 4    1  0.4897983E-002  0.6682895E+03  0.7818608E-02  0.9773053E-01
         21   -1    0    0  503  502  0.00000000000E+00  0.00000000000E+00  0.22862522888E+03  0.22862522888E+03  0.00000000000E+00 0. -1.
         21   -1    0    0  501  503 -0.00000000000E+00 -0.00000000000E+00 -0.30938420765E+04  0.30938420765E+04  0.00000000000E+00 0.  1.
    9000007    1    1    2  501    0  0.21641219424E+03  0.48966994484E+03 -0.24411790070E+04  0.25310009555E+04  0.40000000000E+03 0.  1.
   -9000007    1    1    2    0  502 -0.21641219424E+03 -0.48966994484E+03 -0.42403784065E+03  0.79146634988E+03  0.40000000000E+03 0. -1.
<mgrwt>
<rscale>  2 0.66828953E+03</rscale>
<asrwt>0</asrwt>
<pdfrwt beam="1">  1       21 0.35173112E-01 0.66828953E+03</pdfrwt>
<pdfrwt beam="2">  1       21 0.47597571E+00 0.66828953E+03</pdfrwt>
<totfact> 0.13654913E+01</totfact>
</mgrwt>
</event>
<event>
 4    1  0.4897983E-002  0.4232939E+03  0.7818608E-02  0.1036000E+00
         21   -1    0    0  503  502  0.00000000000E+00  0.00000000000E+00  0.58555873567E+03  0.58555873567E+03  0.00000000000E+00 0. -1.
         21   -1    0    0  501  503 -0.00000000000E+00 -0.00000000000E+00 -0.51938026979E+03  0.51938026979E+03  0.00000000000E+00 0. -1.
    9000007    1    1    2  501    0  0.13692540550E+03  0.20716439685E+02 -0.32102904078E+03  0.53126018350E+03  0.40000000000E+03 0. -1.
   -9000007    1    1    2    0  502 -0.13692540550E+03 -0.20716439685E+02  0.38720750667E+03  0.57367882196E+03  0.40000000000E+03 0. -1.
<mgrwt>
<rscale>  2 0.42329391E+03</rscale>
<asrwt>0</asrwt>
<pdfrwt beam="1">  1       21 0.90085960E-01 0.42329391E+03</pdfrwt>
<pdfrwt beam="2">  1       21 0.79904656E-01 0.42329391E+03</pdfrwt>
<totfact> 0.12488133E+03</totfact>
</mgrwt>
</event>
<event>
 4    1  0.4897983E-002  0.5733509E+03  0.7818608E-02  0.9962291E-01
         21   -1    0    0  501  502  0.00000000000E+00  0.00000000000E+00  0.22622645597E+03  0.22622645597E+03  0.00000000000E+00 0.  1.
         21   -1    0    0  502  503 -0.00000000000E+00 -0.00000000000E+00 -0.16052883607E+04  0.16052883607E+04  0.00000000000E+00 0. -1.
    9000007    1    1    2  501    0 -0.35993325716E+03 -0.19793769326E+03 -0.40757294419E+03  0.70345361245E+03  0.40000000000E+03 0.  1.
   -9000007    1    1    2    0  503  0.35993325716E+03  0.19793769326E+03 -0.97148896057E+03  0.11280612043E+04  0.40000000000E+03 0. -1.
<mgrwt>
<rscale>  2 0.57335092E+03</rscale>
<asrwt>0</asrwt>
<pdfrwt beam="1">  1       21 0.34804071E-01 0.57335092E+03</pdfrwt>
<pdfrwt beam="2">  1       21 0.24696743E+00 0.57335092E+03</pdfrwt>
<totfact> 0.42143891E+02</totfact>
</mgrwt>
</event>
<event>
 4    1  0.4897983E-002  0.4251842E+03  0.7818608E-02  0.1035392E+00
         21   -1    0    0  503  502  0.00000000000E+00  0.00000000000E+00  0.35973335349E+03  0.35973335349E+03  0.00000000000E+00 0. -1.
         21   -1    0    0  501  503 -0.00000000000E+00 -0.00000000000E+00 -0.14927938298E+04  0.14927938298E+04  0.00000000000E+00 0. -1.
    9000007    1    1    2  501    0  0.14415571037E+03 -0.87492541234E+00 -0.13209398110E+04  0.13876828235E+04  0.40000000000E+03 0. -1.
   -9000007    1    1    2    0  502 -0.14415571037E+03  0.87492541234E+00  0.18787933478E+03  0.46484435972E+03  0.40000000000E+03 0. -1.
<mgrwt>
<rscale>  2 0.42518424E+03</rscale>
<asrwt>0</asrwt>
<pdfrwt beam="1">  1       21 0.55343591E-01 0.42518424E+03</pdfrwt>
<pdfrwt beam="2">  1       21 0.22966060E+00 0.42518424E+03</pdfrwt>
<totfact> 0.22023102E+02</totfact>
</mgrwt>
</event>
<event>
 4    1  0.4897983E-002  0.4310208E+03  0.7818608E-02  0.1033538E+00
         21   -1    0    0  503  502  0.00000000000E+00  0.00000000000E+00  0.31442067666E+03  0.31442067666E+03  0.00000000000E+00 0. -1.
         21   -1    0    0  501  503 -0.00000000000E+00 -0.00000000000E+00 -0.63735190265E+03  0.63735190265E+03  0.00000000000E+00 0. -1.
    9000007    1    1    2  501    0  0.42316527996E+02 -0.15488143742E+03 -0.28999340654E+03  0.51949506642E+03  0.40000000000E+03 0. -1.
   -9000007    1    1    2    0  502 -0.42316527996E+02  0.15488143742E+03 -0.32937819447E+02  0.43227751289E+03  0.40000000000E+03 0. -1.
<mgrwt>
<rscale>  2 0.43102082E+03</rscale>
<asrwt>0</asrwt>
<pdfrwt beam="1">  1       21 0.48372413E-01 0.43102082E+03</pdfrwt>
<pdfrwt beam="2">  1       21 0.98054136E-01 0.43102082E+03</pdfrwt>
<totfact> 0.30750199E+03</totfact>
</mgrwt>
</event>
<event>
 4    1  0.4897983E-002  0.6158664E+03  0.7818608E-02  0.9873024E-01
         21   -1    0    0  503  502  0.00000000000E+00  0.00000000000E+00  0.36585023678E+03  0.36585023678E+03  0.00000000000E+00 0. -1.
         21   -1    0    0  501  503 -0.00000000000E+00 -0.00000000000E+00 -0.15400144811E+04  0.15400144811E+04  0.00000000000E+00 0.  1.
    9000007    1    1    2  501    0 -0.29396031813E+03 -0.36452538272E+03 -0.11318384774E+04  0.12885455996E+04  0.40000000000E+03 0.  1.
   -9000007    1    1    2    0  502  0.29396031813E+03  0.36452538272E+03 -0.42325766943E+02  0.61731911831E+03  0.40000000000E+03 0. -1.
<mgrwt>
<rscale>  2 0.61586640E+03</rscale>
<asrwt>0</asrwt>
<pdfrwt beam="1">  1       21 0.56284653E-01 0.61586640E+03</pdfrwt>
<pdfrwt beam="2">  1       21 0.23692530E+00 0.61586640E+03</pdfrwt>
<totfact> 0.17420501E+02</totfact>
</mgrwt>
</event>
<event>
 4    1  0.4897983E-002  0.4437563E+03  0.7818608E-02  0.1029600E+00
         21   -1    0    0  501  502  0.00000000000E+00  0.00000000000E+00  0.12101477644E+04  0.12101477644E+04  0.00000000000E+00 0. -1.
         21   -1    0    0  502  503 -0.00000000000E+00 -0.00000000000E+00 -0.16286075196E+03  0.16286075196E+03  0.00000000000E+00 0. -1.
    9000007    1    1    2  501    0  0.16772476076E+03 -0.93744828496E+02  0.50372661536E+03  0.67131229042E+03  0.40000000000E+03 0. -1.
   -9000007    1    1    2    0  503 -0.16772476076E+03  0.93744828496E+02  0.54356039709E+03  0.70169622596E+03  0.40000000000E+03 0. -1.
<mgrwt>
<rscale>  2 0.44375634E+03</rscale>
<asrwt>0</asrwt>
<pdfrwt beam="1">  1       21 0.18617657E+00 0.44375634E+03</pdfrwt>
<pdfrwt beam="2">  1       21 0.25055501E-01 0.44375634E+03</pdfrwt>
<totfact> 0.21246188E+03</totfact>
</mgrwt>
</event>
<event>
 4    1  0.4897983E-002  0.4303718E+03  0.7818608E-02  0.1033743E+00
         21   -1    0    0  503  502  0.00000000000E+00  0.00000000000E+00  0.25303305673E+03  0.25303305673E+03  0.00000000000E+00 0.  1.
         21   -1    0    0  501  503 -0.00000000000E+00 -0.00000000000E+00 -0.94633816057E+03  0.94633816057E+03  0.00000000000E+00 0. -1.
    9000007    1    1    2  501    0  0.14809085415E+03 -0.57349985913E+02 -0.63205080014E+03  0.76466210572E+03  0.40000000000E+03 0. -1.
   -9000007    1    1    2    0  502 -0.14809085415E+03  0.57349985913E+02 -0.61254303693E+02  0.43470911158E+03  0.40000000000E+03 0.  1.
<mgrwt>
<rscale>  2 0.43037184E+03</rscale>
<asrwt>0</asrwt>
<pdfrwt beam="1">  1       21 0.38928162E-01 0.43037184E+03</pdfrwt>
<pdfrwt beam="2">  1       21 0.14559049E+00 0.43037184E+03</pdfrwt>
<totfact> 0.17720370E+03</totfact>
</mgrwt>
</event>
<event>
 4    1  0.4897983E-002  0.4318605E+03  0.7818608E-02  0.1033274E+00
         21   -1    0    0  503  502  0.00000000000E+00  0.00000000000E+00  0.44702392254E+03  0.44702392254E+03  0.00000000000E+00 0. -1.
         21   -1    0    0  501  503 -0.00000000000E+00 -0.00000000000E+00 -0.46072381051E+03  0.46072381051E+03  0.00000000000E+00 0. -1.
    9000007    1    1    2  501    0  0.11694026618E+01 -0.16279465628E+03 -0.14633302119E+03  0.45597896959E+03  0.40000000000E+03 0. -1.
   -9000007    1    1    2    0  502 -0.11694026618E+01  0.16279465628E+03  0.13263313321E+03  0.45176876346E+03  0.40000000000E+03 0. -1.
<mgrwt>
<rscale>  2 0.43186047E+03</rscale>
<asrwt>0</asrwt>
<pdfrwt beam="1">  1       21 0.68772912E-01 0.43186047E+03</pdfrwt>
<pdfrwt beam="2">  1       21 0.70880586E-01 0.43186047E+03</pdfrwt>
<totfact> 0.30444813E+03</totfact>
</mgrwt>
</event>
<event>
 4    1  0.4897983E-002  0.4468962E+03  0.7818608E-02  0.1028652E+00
         21   -1    0    0  503  502  0.00000000000E+00  0.00000000000E+00  0.62289001042E+03  0.62289001042E+03  0.00000000000E+00 0. -1.
         21   -1    0    0  501  503 -0.00000000000E+00 -0.00000000000E+00 -0.38118420006E+03  0.38118420006E+03  0.00000000000E+00 0. -1.
    9000007    1    1    2  501    0  0.93404954999E+02  0.17604455756E+03 -0.79246853215E+02  0.45386808172E+03  0.40000000000E+03 0. -1.
   -9000007    1    1    2    0  502 -0.93404954999E+02 -0.17604455756E+03  0.32095266357E+03  0.55020612875E+03  0.40000000000E+03 0. -1.
<mgrwt>
<rscale>  2 0.44689615E+03</rscale>
<asrwt>0</asrwt>
<pdfrwt beam="1">  1       21 0.95829232E-01 0.44689615E+03</pdfrwt>
<pdfrwt beam="2">  1       21 0.58643723E-01 0.44689615E+03</pdfrwt>
<totfact> 0.21364399E+03</totfact>
</mgrwt>
</event>
<event>
 4    1  0.4897983E-002  0.4925537E+03  0.7818608E-02  0.1015741E+00
         21   -1    0    0  501  502  0.00000000000E+00  0.00000000000E+00  0.25250897992E+03  0.25250897992E+03  0.00000000000E+00 0. -1.
         21   -1    0    0  502  503 -0.00000000000E+00 -0.00000000000E+00 -0.97467432701E+03  0.97467432701E+03  0.00000000000E+00 0.  1.
    9000007    1    1    2  501    0  0.60276012131E+02  0.28102657757E+03 -0.43430578182E+03  0.65668154159E+03  0.40000000000E+03 0.  1.
   -9000007    1    1    2    0  503 -0.60276012131E+02 -0.28102657757E+03 -0.28785956528E+03  0.57050176535E+03  0.40000000000E+03 0. -1.
<mgrwt>
<rscale>  2 0.49255369E+03</rscale>
<asrwt>0</asrwt>
<pdfrwt beam="1">  1       21 0.38847535E-01 0.49255369E+03</pdfrwt>
<pdfrwt beam="2">  1       21 0.14994990E+00 0.49255369E+03</pdfrwt>
<totfact> 0.16032169E+03</totfact>
</mgrwt>
</event>
<event>
 4    1  0.4897983E-002  0.4163296E+03  0.7818608E-02  0.1038268E+00
         21   -1    0    0  501  502  0.00000000000E+00  0.00000000000E+00  0.15082782087E+04  0.15082782087E+04  0.00000000000E+00 0.  1.
         21   -1    0    0  502  503 -0.00000000000E+00 -0.00000000000E+00 -0.15031811328E+03  0.15031811328E+03  0.00000000000E+00 0.  1.
    9000007    1    1    2  501    0 -0.11336084260E+03  0.21900638987E+02  0.10814182703E+04  0.11587906601E+04  0.40000000000E+03 0.  1.
   -9000007    1    1    2    0  503  0.11336084260E+03 -0.21900638987E+02  0.27654182518E+03  0.49980566193E+03  0.40000000000E+03 0.  1.
<mgrwt>
<rscale>  2 0.41632958E+03</rscale>
<asrwt>0</asrwt>
<pdfrwt beam="1">  1       21 0.23204279E+00 0.41632958E+03</pdfrwt>
<pdfrwt beam="2">  1       21 0.23125865E-01 0.41632958E+03</pdfrwt>
<totfact> 0.12594976E+03</totfact>
</mgrwt>
</event>
<event>
 4    1  0.4897983E-002  0.8479758E+03  0.7818608E-02  0.9493058E-01
         21   -1    0    0  501  502  0.00000000000E+00  0.00000000000E+00  0.16051035296E+04  0.16051035296E+04  0.00000000000E+00 0.  1.
         21   -1    0    0  502  503 -0.00000000000E+00 -0.00000000000E+00 -0.69255119062E+03  0.69255119062E+03  0.00000000000E+00 0.  1.
    9000007    1    1    2  501    0  0.61090141402E+03  0.43111761667E+03 -0.22641877942E+03  0.87768354247E+03  0.40000000000E+03 0.  1.
   -9000007    1    1    2    0  503 -0.61090141402E+03 -0.43111761667E+03  0.11389711184E+04  0.14199711777E+04  0.40000000000E+03 0.  1.
<mgrwt>
<rscale>  2 0.84797579E+03</rscale>
<asrwt>0</asrwt>
<pdfrwt beam="1">  1       21 0.24693900E+00 0.84797579E+03</pdfrwt>
<pdfrwt beam="2">  1       21 0.10654634E+00 0.84797579E+03</pdfrwt>
<totfact> 0.31305042E+01</totfact>
</mgrwt>
</event>
<event>
 4    1  0.4897983E-002  0.4361042E+03  0.7818608E-02  0.1031949E+00
         21   -1    0    0  503  502  0.00000000000E+00  0.00000000000E+00  0.44029878749E+03  0.44029878749E+03  0.00000000000E+00 0. -1.
         21   -1    0    0  501  503 -0.00000000000E+00 -0.00000000000E+00 -0.45019645509E+03  0.45019645509E+03  0.00000000000E+00 0. -1.
    9000007    1    1    2  501    0 -0.17221729460E+03  0.22980165508E+02  0.84689670084E+02  0.44425130814E+03  0.40000000000E+03 0. -1.
   -9000007    1    1    2    0  502  0.17221729460E+03 -0.22980165508E+02 -0.94587337682E+02  0.44624393443E+03  0.40000000000E+03 0. -1.
<mgrwt>
<rscale>  2 0.43610421E+03</rscale>
<asrwt>0</asrwt>
<pdfrwt beam="1">  1       21 0.67738275E-01 0.43610421E+03</pdfrwt>
<pdfrwt beam="2">  1       21 0.69260993E-01 0.43610421E+03</pdfrwt>
<totfact> 0.33126866E+03</totfact>
</mgrwt>
</event>
<event>
 4    1  0.4897983E-002  0.4557442E+03  0.7818608E-02  0.1026023E+00
         21   -1    0    0  501  502  0.00000000000E+00  0.00000000000E+00  0.26924964923E+03  0.26924964923E+03  0.00000000000E+00 0.  1.
         21   -1    0    0  502  503 -0.00000000000E+00 -0.00000000000E+00 -0.80124603110E+03  0.80124603110E+03  0.00000000000E+00 0.  1.
    9000007    1    1    2  501    0  0.59669686168E+02 -0.21010079600E+03 -0.16271801135E+03  0.48392144729E+03  0.40000000000E+03 0.  1.
   -9000007    1    1    2    0  503 -0.59669686168E+02  0.21010079600E+03 -0.36927837052E+03  0.58657423304E+03  0.40000000000E+03 0.  1.
<mgrwt>
<rscale>  2 0.45574424E+03</rscale>
<asrwt>0</asrwt>
<pdfrwt beam="1">  1       21 0.41423023E-01 0.45574424E+03</pdfrwt>
<pdfrwt beam="2">  1       21 0.12326862E+00 0.45574424E+03</pdfrwt>
<totfact> 0.23875926E+03</totfact>
</mgrwt>
</event>
<event>
 4    1  0.4897983E-002  0.5040688E+03  0.7818608E-02  0.1012722E+00
         21   -1    0    0  503  502  0.00000000000E+00  0.00000000000E+00  0.18339520559E+04  0.18339520559E+04  0.00000000000E+00 0.  1.
         21   -1    0    0  501  503 -0.00000000000E+00 -0.00000000000E+00 -0.18948304896E+03  0.18948304896E+03  0.00000000000E+00 0.  1.
    9000007    1    1    2  501    0 -0.18916774418E+03 -0.24145579514E+03  0.29767566085E+03  0.58540254143E+03  0.40000000000E+03 0.  1.
   -9000007    1    1    2    0  502  0.18916774418E+03  0.24145579514E+03  0.13467933461E+04  0.14380325635E+04  0.40000000000E+03 0.  1.
<mgrwt>
<rscale>  2 0.50406878E+03</rscale>
<asrwt>0</asrwt>
<pdfrwt beam="1">  1       21 0.28214646E+00 0.50406878E+03</pdfrwt>
<pdfrwt beam="2">  1       21 0.29151240E-01 0.50406878E+03</pdfrwt>
<totfact> 0.37785307E+02</totfact>
</mgrwt>
</event>
<event>
 4    1  0.4897983E-002  0.4752108E+03  0.7818608E-02  0.1020460E+00
         21   -1    0    0  503  502  0.00000000000E+00  0.00000000000E+00  0.30480979467E+03  0.30480979467E+03  0.00000000000E+00 0.  1.
         21   -1    0    0  501  503 -0.00000000000E+00 -0.00000000000E+00 -0.10974265900E+04  0.10974265900E+04  0.00000000000E+00 0.  1.
    9000007    1    1    2  501    0  0.25463533234E+03 -0.31402827210E+02 -0.79594569879E+03  0.92701394027E+03  0.40000000000E+03 0.  1.
   -9000007    1    1    2    0  502 -0.25463533234E+03  0.31402827210E+02  0.33289034787E+01  0.47522244437E+03  0.40000000000E+03 0.  1.
<mgrwt>
<rscale>  2 0.47521078E+03</rscale>
<asrwt>0</asrwt>
<pdfrwt beam="1">  1       21 0.46893814E-01 0.47521078E+03</pdfrwt>
<pdfrwt beam="2">  1       21 0.16883486E+00 0.47521078E+03</pdfrwt>
<totfact> 0.78392588E+02</totfact>
</mgrwt>
</event>
<event>
 4    1  0.4897983E-002  0.4850300E+03  0.7818608E-02  0.1017762E+00
         21   -1    0    0  501  502  0.00000000000E+00  0.00000000000E+00  0.37046468843E+03  0.37046468843E+03  0.00000000000E+00 0. -1.
         21   -1    0    0  502  503 -0.00000000000E+00 -0.00000000000E+00 -0.64488522626E+03  0.64488522626E+03  0.00000000000E+00 0. -1.
    9000007    1    1    2  501    0 -0.24073608250E+03  0.13153042461E+03 -0.19998738020E+03  0.52464184570E+03  0.40000000000E+03 0. -1.
   -9000007    1    1    2    0  503  0.24073608250E+03 -0.13153042461E+03 -0.74433157624E+02  0.49070806899E+03  0.40000000000E+03 0. -1.
<mgrwt>
<rscale>  2 0.48503001E+03</rscale>
<asrwt>0</asrwt>
<pdfrwt beam="1">  1       21 0.56994568E-01 0.48503001E+03</pdfrwt>
<pdfrwt beam="2">  1       21 0.99213112E-01 0.48503001E+03</pdfrwt>
<totfact> 0.20620984E+03</totfact>
</mgrwt>
</event>
<event>
 4    1  0.4897983E-002  0.5803127E+03  0.7818608E-02  0.9947114E-01
         21   -1    0    0  501  502  0.00000000000E+00  0.00000000000E+00  0.12098129302E+04  0.12098129302E+04  0.00000000000E+00 0. -1.
         21   -1    0    0  502  503 -0.00000000000E+00 -0.00000000000E+00 -0.83855797066E+03  0.83855797066E+03  0.00000000000E+00 0.  1.
    9000007    1    1    2  501    0  0.41786027851E+03 -0.46428194275E+02  0.10227384981E+04  0.11759068097E+04  0.40000000000E+03 0. -1.
   -9000007    1    1    2    0  503 -0.41786027851E+03  0.46428194275E+02 -0.65148353848E+03  0.87246409124E+03  0.40000000000E+03 0.  1.
<mgrwt>
<rscale>  2 0.58031267E+03</rscale>
<asrwt>0</asrwt>
<pdfrwt beam="1">  1       21 0.18612506E+00 0.58031267E+03</pdfrwt>
<pdfrwt beam="2">  1       21 0.12900892E+00 0.58031267E+03</pdfrwt>
<totfact> 0.53590333E+01</totfact>
</mgrwt>
</event>
<event>
 4    1  0.4897983E-002  0.4889604E+03  0.7818608E-02  0.1016701E+00
         21   -1    0    0  501  502  0.00000000000E+00  0.00000000000E+00  0.10954016924E+04  0.10954016924E+04  0.00000000000E+00 0. -1.
         21   -1    0    0  502  503 -0.00000000000E+00 -0.00000000000E+00 -0.47321157034E+03  0.47321157034E+03  0.00000000000E+00 0.  1.
    9000007    1    1    2  501    0 -0.24822441650E+03 -0.13216247489E+03  0.88678299531E+03  0.10126531299E+04  0.40000000000E+03 0. -1.
   -9000007    1    1    2    0  503  0.24822441650E+03  0.13216247489E+03 -0.26459287327E+03  0.55596013283E+03  0.40000000000E+03 0.  1.
<mgrwt>
<rscale>  2 0.48896041E+03</rscale>
<asrwt>0</asrwt>
<pdfrwt beam="1">  1       21 0.16852334E+00 0.48896041E+03</pdfrwt>
<pdfrwt beam="2">  1       21 0.72801780E-01 0.48896041E+03</pdfrwt>
<totfact> 0.29932697E+02</totfact>
</mgrwt>
</event>
<event>
 4    1  0.4897983E-002  0.5181525E+03  0.7818608E-02  0.1009147E+00
         21   -1    0    0  501  502  0.00000000000E+00  0.00000000000E+00  0.43329278370E+03  0.43329278370E+03  0.00000000000E+00 0. -1.
         21   -1    0    0  502  503 -0.00000000000E+00 -0.00000000000E+00 -0.64755512658E+03  0.64755512658E+03  0.00000000000E+00 0.  1.
    9000007    1    1    2  501    0  0.31945360507E+03  0.80196227283E+02 -0.21935338790E+03  0.56267037371E+03  0.40000000000E+03 0. -1.
   -9000007    1    1    2    0  503 -0.31945360507E+03 -0.80196227283E+02  0.50910450193E+01  0.51817753657E+03  0.40000000000E+03 0.  1.
<mgrwt>
<rscale>  2 0.51815253E+03</rscale>
<asrwt>0</asrwt>
<pdfrwt beam="1">  1       21 0.66660428E-01 0.51815253E+03</pdfrwt>
<pdfrwt beam="2">  1       21 0.99623866E-01 0.51815253E+03</pdfrwt>
<totfact> 0.14284262E+03</totfact>
</mgrwt>
</event>
<event>
 4    1  0.4897983E-002  0.4623133E+03  0.7818608E-02  0.1024112E+00
         21   -1    0    0  503  502  0.00000000000E+00  0.00000000000E+00  0.23293429683E+03  0.23293429683E+03  0.00000000000E+00 0. -1.
         21   -1    0    0  501  503 -0.00000000000E+00 -0.00000000000E+00 -0.93997203517E+03  0.93997203517E+03  0.00000000000E+00 0.  1.
    9000007    1    1    2  501    0  0.13368292623E+03 -0.18937384779E+03 -0.44405402746E+03  0.64102851597E+03  0.40000000000E+03 0. -1.
   -9000007    1    1    2    0  502 -0.13368292623E+03  0.18937384779E+03 -0.26298371089E+03  0.53187781603E+03  0.40000000000E+03 0. -1.
<mgrwt>
<rscale>  2 0.46231329E+03</rscale>
<asrwt>0</asrwt>
<pdfrwt beam="1">  1       21 0.35836046E-01 0.46231329E+03</pdfrwt>
<pdfrwt beam="2">  1       21 0.14461108E+00 0.46231329E+03</pdfrwt>
<totfact> 0.21093411E+03</totfact>
</mgrwt>
</event>
<event>
 4    1  0.4897983E-002  0.4546426E+03  0.7818608E-02  0.1026347E+00
         21   -1    0    0  503  502  0.00000000000E+00  0.00000000000E+00  0.18197663554E+03  0.18197663554E+03  0.00000000000E+00 0.  1.
         21   -1    0    0  501  503 -0.00000000000E+00 -0.00000000000E+00 -0.14780828277E+04  0.14780828277E+04  0.00000000000E+00 0.  1.
    9000007    1    1    2  501    0  0.21608971374E+03  0.22656776839E+01 -0.10474448026E+04  0.11418583591E+04  0.40000000000E+03 0.  1.
   -9000007    1    1    2    0  502 -0.21608971374E+03 -0.22656776839E+01 -0.24866138952E+03  0.51820110413E+03  0.40000000000E+03 0.  1.
<mgrwt>
<rscale>  2 0.45464260E+03</rscale>
<asrwt>0</asrwt>
<pdfrwt beam="1">  1       21 0.27996406E-01 0.45464260E+03</pdfrwt>
<pdfrwt beam="2">  1       21 0.22739736E+00 0.45464260E+03</pdfrwt>
<totfact> 0.91089883E+02</totfact>
</mgrwt>
</event>
<event>
 4    1  0.4897983E-002  0.4351140E+03  0.7818608E-02  0.1032257E+00
         21   -1    0    0  501  502  0.00000000000E+00  0.00000000000E+00  0.20368644642E+03  0.20368644642E+03  0.00000000000E+00 0. -1.
         21   -1    0    0  502  503 -0.00000000000E+00 -0.00000000000E+00 -0.11262580966E+04  0.11262580966E+04  0.00000000000E+00 0. -1.
    9000007    1    1    2  501    0  0.32710259468E+02 -0.16809005178E+03 -0.18333787303E+03  0.47216205086E+03  0.40000000000E+03 0. -1.
   -9000007    1    1    2    0  503 -0.32710259468E+02  0.16809005178E+03 -0.73923377715E+03  0.85778249216E+03  0.40000000000E+03 0. -1.
<mgrwt>
<rscale>  2 0.43511404E+03</rscale>
<asrwt>0</asrwt>
<pdfrwt beam="1">  1       21 0.31336376E-01 0.43511404E+03</pdfrwt>
<pdfrwt beam="2">  1       21 0.17327048E+00 0.43511404E+03</pdfrwt>
<totfact> 0.16923684E+03</totfact>
</mgrwt>
</event>
<event>
 4    1  0.4897983E-002  0.4804427E+03  0.7818608E-02  0.1019014E+00
         21   -1    0    0  501  502  0.00000000000E+00  0.00000000000E+00  0.10500647406E+04  0.10500647406E+04  0.00000000000E+00 0. -1.
         21   -1    0    0  502  503 -0.00000000000E+00 -0.00000000000E+00 -0.45072019028E+03  0.45072019028E+03  0.00000000000E+00 0. -1.
    9000007    1    1    2  501    0 -0.23232987486E+03  0.12979982114E+03  0.83676239541E+03  0.96488158376E+03  0.40000000000E+03 0. -1.
   -9000007    1    1    2    0  503  0.23232987486E+03 -0.12979982114E+03 -0.23741784506E+03  0.53590334714E+03  0.40000000000E+03 0. -1.
<mgrwt>
<rscale>  2 0.48044268E+03</rscale>
<asrwt>0</asrwt>
<pdfrwt beam="1">  1       21 0.16154842E+00 0.48044268E+03</pdfrwt>
<pdfrwt beam="2">  1       21 0.69341568E-01 0.48044268E+03</pdfrwt>
<totfact> 0.37803414E+02</totfact>
</mgrwt>
</event>
<event>
 4    1  0.4897983E-002  0.4301080E+03  0.7818608E-02  0.1033826E+00
         21   -1    0    0  503  502  0.00000000000E+00  0.00000000000E+00  0.12261689552E+04  0.12261689552E+04  0.00000000000E+00 0. -1.
         21   -1    0    0  501  503 -0.00000000000E+00 -0.00000000000E+00 -0.15411928208E+03  0.15411928208E+03  0.00000000000E+00 0. -1.
    9000007    1    1    2  501    0 -0.12944833554E+03  0.90752446290E+02  0.63622378383E+03  0.76796717455E+03  0.40000000000E+03 0. -1.
   -9000007    1    1    2    0  502  0.12944833554E+03 -0.90752446290E+02  0.43582588928E+03  0.61232106271E+03  0.40000000000E+03 0. -1.
<mgrwt>
<rscale>  2 0.43010798E+03</rscale>
<asrwt>0</asrwt>
<pdfrwt beam="1">  1       21 0.18864137E+00 0.43010798E+03</pdfrwt>
<pdfrwt beam="2">  1       21 0.23710660E-01 0.43010798E+03</pdfrwt>
<totfact> 0.22872641E+03</totfact>
</mgrwt>
</event>
<event>
 4    1  0.4897983E-002  0.4135271E+03  0.7818608E-02  0.1039194E+00
         21   -1    0    0  501  502  0.00000000000E+00  0.00000000000E+00  0.28815614463E+03  0.28815614463E+03  0.00000000000E+00 0.  1.
         21   -1    0    0  502  503 -0.00000000000E+00 -0.00000000000E+00 -0.76638894632E+03  0.76638894632E+03  0.00000000000E+00 0.  1.
    9000007    1    1    2  501    0  0.87210670738E+02 -0.58300807756E+02  0.11358276638E+02  0.41368308610E+03  0.40000000000E+03 0.  1.
   -9000007    1    1    2    0  503 -0.87210670738E+02  0.58300807756E+02 -0.48959107833E+03  0.64086200485E+03  0.40000000000E+03 0.  1.
<mgrwt>
<rscale>  2 0.41352713E+03</rscale>
<asrwt>0</asrwt>
<pdfrwt beam="1">  1       21 0.44331715E-01 0.41352713E+03</pdfrwt>
<pdfrwt beam="2">  1       21 0.11790599E+00 0.41352713E+03</pdfrwt>
<totfact> 0.23603535E+03</totfact>
</mgrwt>
</event>
<event>
 4    1  0.4897983E-002  0.4422797E+03  0.7818608E-02  0.1030050E+00
         21   -1    0    0  503  502  0.00000000000E+00  0.00000000000E+00  0.19384741969E+04  0.19384741969E+04  0.00000000000E+00 0.  1.
         21   -1    0    0  501  503 -0.00000000000E+00 -0.00000000000E+00 -0.13393472140E+03  0.13393472140E+03  0.00000000000E+00 0.  1.
    9000007    1    1    2  501    0 -0.18577917657E+03  0.33127303117E+02  0.38773011494E+03  0.58817171191E+03  0.40000000000E+03 0. -1.
   -9000007    1    1    2    0  502  0.18577917657E+03 -0.33127303117E+02  0.14168093605E+04  0.14842372064E+04  0.40000000000E+03 0. -1.
<mgrwt>
<rscale>  2 0.44227969E+03</rscale>
<asrwt>0</asrwt>
<pdfrwt beam="1">  1       21 0.29822678E+00 0.44227969E+03</pdfrwt>
<pdfrwt beam="2">  1       21 0.20605343E-01 0.44227969E+03</pdfrwt>
<totfact> 0.61350612E+02</totfact>
</mgrwt>
</event>
<event>
 4    1  0.4897983E-002  0.4058910E+03  0.7818608E-02  0.1041759E+00
         21   -1    0    0  501  502  0.00000000000E+00  0.00000000000E+00  0.51754735715E+03  0.51754735715E+03  0.00000000000E+00 0. -1.
         21   -1    0    0  502  503 -0.00000000000E+00 -0.00000000000E+00 -0.32014246752E+03  0.32014246752E+03  0.00000000000E+00 0. -1.
    9000007    1    1    2  501    0  0.68311059099E+02  0.90058199447E+01  0.13027353563E+03  0.42628476360E+03  0.40000000000E+03 0. -1.
   -9000007    1    1    2    0  503 -0.68311059099E+02 -0.90058199447E+01  0.67131353998E+02  0.41140506107E+03  0.40000000000E+03 0. -1.
<mgrwt>
<rscale>  2 0.40589100E+03</rscale>
<asrwt>0</asrwt>
<pdfrwt beam="1">  1       21 0.79622670E-01 0.40589100E+03</pdfrwt>
<pdfrwt beam="2">  1       21 0.49252687E-01 0.40589100E+03</pdfrwt>
<totfact> 0.48786606E+03</totfact>
</mgrwt>
</event>
<event>
 4    1  0.4897983E-002  0.4315478E+03  0.7818608E-02  0.1033372E+00
         21   -1    0    0  503  502  0.00000000000E+00  0.00000000000E+00  0.43606782336E+03  0.43606782336E+03  0.00000000000E+00 0.  1.
         21   -1    0    0  501  503 -0.00000000000E+00 -0.00000000000E+00 -0.51208545227E+03  0.51208545227E+03  0.00000000000E+00 0.  1.
    9000007    1    1    2  501    0  0.34420550386E+02 -0.15826789930E+03 -0.23116759530E+03  0.48956302899E+03  0.40000000000E+03 0.  1.
   -9000007    1    1    2    0  502 -0.34420550386E+02  0.15826789930E+03  0.15514996639E+03  0.45859024664E+03  0.40000000000E+03 0.  1.
<mgrwt>
<rscale>  2 0.43154780E+03</rscale>
<asrwt>0</asrwt>
<pdfrwt beam="1">  1       21 0.67087358E-01 0.43154780E+03</pdfrwt>
<pdfrwt beam="2">  1       21 0.78782377E-01 0.43154780E+03</pdfrwt>
<totfact> 0.25300801E+03</totfact>
</mgrwt>
</event>
<event>
 4    1  0.4897983E-002  0.4964811E+03  0.7818608E-02  0.1014701E+00
         21   -1    0    0  501  502  0.00000000000E+00  0.00000000000E+00  0.62554978131E+03  0.62554978131E+03  0.00000000000E+00 0.  1.
         21   -1    0    0  502  503 -0.00000000000E+00 -0.00000000000E+00 -0.40929945430E+03  0.40929945430E+03  0.00000000000E+00 0. -1.
    9000007    1    1    2  501    0  0.98558687059E+02 -0.27709148935E+03  0.20802238445E+03  0.53829993563E+03  0.40000000000E+03 0.  1.
   -9000007    1    1    2    0  503 -0.98558687059E+02  0.27709148935E+03  0.82279425597E+01  0.49654929997E+03  0.40000000000E+03 0. -1.
<mgrwt>
<rscale>  2 0.49648113E+03</rscale>
<asrwt>0</asrwt>
<pdfrwt beam="1">  1       21 0.96238428E-01 0.49648113E+03</pdfrwt>
<pdfrwt beam="2">  1       21 0.62969147E-01 0.49648113E+03</pdfrwt>
<totfact> 0.17761769E+03</totfact>
</mgrwt>
</event>
<event>
 4    1  0.4897983E-002  0.4641593E+03  0.7818608E-02  0.1023582E+00
         21   -1    0    0  503  502  0.00000000000E+00  0.00000000000E+00  0.18289864143E+04  0.18289864143E+04  0.00000000000E+00 0.  1.
         21   -1    0    0  501  503 -0.00000000000E+00 -0.00000000000E+00 -0.13776734805E+03  0.13776734805E+03  0.00000000000E+00 0. -1.
    9000007    1    1    2  501    0 -0.10575507983E+03 -0.21038003059E+03  0.47117949362E+03  0.66140306122E+03  0.40000000000E+03 0. -1.
   -9000007    1    1    2    0  502  0.10575507983E+03  0.21038003059E+03  0.12200395726E+04  0.13053507011E+04  0.40000000000E+03 0.  1.
<mgrwt>
<rscale>  2 0.46415934E+03</rscale>
<asrwt>0</asrwt>
<pdfrwt beam="1">  1       21 0.28138251E+00 0.46415934E+03</pdfrwt>
<pdfrwt beam="2">  1       21 0.21194978E-01 0.46415934E+03</pdfrwt>
<totfact> 0.72541414E+02</totfact>
</mgrwt>
</event>
<event>
 4    1  0.4897983E-002  0.4360825E+03  0.7818608E-02  0.1031956E+00
         21   -1    0    0  501  502  0.00000000000E+00  0.00000000000E+00  0.89295585929E+03  0.89295585929E+03  0.00000000000E+00 0.  1.
         21   -1    0    0  502  503 -0.00000000000E+00 -0.00000000000E+00 -0.22908138678E+03  0.22908138678E+03  0.00000000000E+00 0. -1.
    9000007    1    1    2  501    0  0.90346675688E+02 -0.14834226693E+03  0.48074382845E+03  0.64906284639E+03  0.40000000000E+03 0.  1.
   -9000007    1    1    2    0  503 -0.90346675688E+02  0.14834226693E+03  0.18313064406E+03  0.47297439969E+03  0.40000000000E+03 0. -1.
<mgrwt>
<rscale>  2 0.43608250E+03</rscale>
<asrwt>0</asrwt>
<pdfrwt beam="1">  1       21 0.13737782E+00 0.43608250E+03</pdfrwt>
<pdfrwt beam="2">  1       21 0.35243291E-01 0.43608250E+03</pdfrwt>
<totfact> 0.25273701E+03</totfact>
</mgrwt>
</event>
<event>
 4    1  0.4897983E-002  0.5207727E+03  0.7818608E-02  0.1008495E+00
         21   -1    0    0  503  502  0.00000000000E+00  0.00000000000E+00  0.43917348529E+03  0.43917348529E+03  0.00000000000E+00 0.  1.
         21   -1    0    0  501  503 -0.00000000000E+00 -0.00000000000E+00 -0.88811746430E+03  0.88811746430E+03  0.00000000000E+00 0.  1.
    9000007    1    1    2  501    0  0.31261833409E+03  0.11607769942E+03 -0.59078480610E+03  0.78754742221E+03  0.40000000000E+03 0.  1.
   -9000007    1    1    2    0  502 -0.31261833409E+03 -0.11607769942E+03  0.14184082708E+03  0.53974352737E+03  0.40000000000E+03 0.  1.
<mgrwt>
<rscale>  2 0.52077275E+03</rscale>
<asrwt>0</asrwt>
<pdfrwt beam="1">  1       21 0.67565153E-01 0.52077275E+03</pdfrwt>
<pdfrwt beam="2">  1       21 0.13663345E+00 0.52077275E+03</pdfrwt>
<totfact> 0.62182477E+02</totfact>
</mgrwt>
</event>
<event>
 4    1  0.4897983E-002  0.5695542E+03  0.7818608E-02  0.9970666E-01
         21   -1    0    0  503  502  0.00000000000E+00  0.00000000000E+00  0.33149562060E+03  0.33149562060E+03  0.00000000000E+00 0. -1.
         21   -1    0    0  501  503 -0.00000000000E+00 -0.00000000000E+00 -0.98209831982E+03  0.98209831982E+03  0.00000000000E+00 0.  1.
    9000007    1    1    2  501    0  0.24304865607E+03 -0.32452943204E+03 -0.36466324263E+03  0.67629230515E+03  0.40000000000E+03 0.  1.
   -9000007    1    1    2    0  502 -0.24304865607E+03  0.32452943204E+03 -0.28593945659E+03  0.63730163527E+03  0.40000000000E+03 0. -1.
<mgrwt>
<rscale>  2 0.56955421E+03</rscale>
<asrwt>0</asrwt>
<pdfrwt beam="1">  1       21 0.50999327E-01 0.56955421E+03</pdfrwt>
<pdfrwt beam="2">  1       21 0.15109205E+00 0.56955421E+03</pdfrwt>
<totfact> 0.86314528E+02</totfact>
</mgrwt>
</event>
<event>
 4    1  0.4897983E-002  0.4564900E+03  0.7818608E-02  0.1025804E+00
         21   -1    0    0  501  502  0.00000000000E+00  0.00000000000E+00  0.16620639168E+03  0.16620639168E+03  0.00000000000E+00 0.  1.
         21   -1    0    0  502  503 -0.00000000000E+00 -0.00000000000E+00 -0.20556242484E+04  0.20556242484E+04  0.00000000000E+00 0.  1.
    9000007    1    1    2  501    0 -0.21979990002E+03 -0.84361927055E+01 -0.25086926194E+03  0.52088247425E+03  0.40000000000E+03 0.  1.
   -9000007    1    1    2    0  503  0.21979990002E+03  0.84361927055E+01 -0.16385485948E+04  0.17009481658E+04  0.40000000000E+03 0.  1.
<mgrwt>
<rscale>  2 0.45649005E+03</rscale>
<asrwt>0</asrwt>
<pdfrwt beam="1">  1       21 0.25570214E-01 0.45649005E+03</pdfrwt>
<pdfrwt beam="2">  1       21 0.31624988E+00 0.45649005E+03</pdfrwt>
<totfact> 0.31253387E+02</totfact>
</mgrwt>
</event>
<event>
 4    1  0.4897983E-002  0.6574278E+03  0.7818608E-02  0.9792940E-01
         21   -1    0    0  503  502  0.00000000000E+00  0.00000000000E+00  0.95672015970E+03  0.95672015970E+03  0.00000000000E+00 0. -1.
         21   -1    0    0  501  503 -0.00000000000E+00 -0.00000000000E+00 -0.45286255113E+03  0.45286255113E+03  0.00000000000E+00 0.  1.
    9000007    1    1    2  501    0  0.38616901937E+03  0.35083448998E+03  0.28664763081E+03  0.71720165584E+03  0.40000000000E+03 0. -1.
   -9000007    1    1    2    0  502 -0.38616901937E+03 -0.35083448998E+03  0.21720997776E+03  0.69238105500E+03  0.40000000000E+03 0.  1.
<mgrwt>
<rscale>  2 0.65742783E+03</rscale>
<asrwt>0</asrwt>
<pdfrwt beam="1">  1       21 0.14718772E+00 0.65742783E+03</pdfrwt>
<pdfrwt beam="2">  1       21 0.69671162E-01 0.65742783E+03</pdfrwt>
<totfact> 0.45311862E+02</totfact>
</mgrwt>
</event>
<event>
 4    1  0.4897983E-002  0.4113210E+03  0.7818608E-02  0.1039929E+00
         21   -1    0    0  501  502  0.00000000000E+00  0.00000000000E+00  0.27401120823E+03  0.27401120823E+03  0.00000000000E+00 0. -1.
         21   -1    0    0  502  503 -0.00000000000E+00 -0.00000000000E+00 -0.68155101128E+03  0.68155101128E+03  0.00000000000E+00 0. -1.
    9000007    1    1    2  501    0  0.80789448717E+02  0.51556158605E+02 -0.57231185028E+02  0.41528349480E+03  0.40000000000E+03 0.  1.
   -9000007    1    1    2    0  503 -0.80789448717E+02 -0.51556158605E+02 -0.35030861802E+03  0.54027872471E+03  0.40000000000E+03 0.  1.
<mgrwt>
<rscale>  2 0.41132101E+03</rscale>
<asrwt>0</asrwt>
<pdfrwt beam="1">  1       21 0.42155571E-01 0.41132101E+03</pdfrwt>
<pdfrwt beam="2">  1       21 0.10485400E+00 0.41132101E+03</pdfrwt>
<totfact> 0.35089395E+03</totfact>
</mgrwt>
</event>
<event>
 4    1  0.4897983E-002  0.4231770E+03  0.7818608E-02  0.1036037E+00
         21   -1    0    0  503  502  0.00000000000E+00  0.00000000000E+00  0.90323225429E+03  0.90323225429E+03  0.00000000000E+00 0.  1.
         21   -1    0    0  501  503 -0.00000000000E+00 -0.00000000000E+00 -0.20071461848E+03  0.20071461848E+03  0.00000000000E+00 0.  1.
    9000007    1    1    2  501    0  0.10767324289E+03  0.86517188685E+02  0.41224563472E+03  0.59078355979E+03  0.40000000000E+03 0. -1.
   -9000007    1    1    2    0  502 -0.10767324289E+03 -0.86517188685E+02  0.29027200109E+03  0.51316331298E+03  0.40000000000E+03 0. -1.
<mgrwt>
<rscale>  2 0.42317697E+03</rscale>
<asrwt>0</asrwt>
<pdfrwt beam="1">  1       21 0.13895881E+00 0.42317697E+03</pdfrwt>
<pdfrwt beam="2">  1       21 0.30879173E-01 0.42317697E+03</pdfrwt>
<totfact> 0.32132279E+03</totfact>
</mgrwt>
</event>
<event>
 4    1  0.4897983E-002  0.4764982E+03  0.7818608E-02  0.1020102E+00
         21   -1    0    0  503  502  0.00000000000E+00  0.00000000000E+00  0.86088245114E+02  0.86088245114E+02  0.00000000000E+00 0. -1.
         21   -1    0    0  501  503 -0.00000000000E+00 -0.00000000000E+00 -0.29632282410E+04  0.29632282410E+04  0.00000000000E+00 0. -1.
    9000007    1    1    2  501    0 -0.25817244003E+03 -0.19938479782E+02 -0.19441307701E+04  0.20016730510E+04  0.40000000000E+03 0. -1.
   -9000007    1    1    2    0  502  0.25817244003E+03  0.19938479782E+02 -0.93300922574E+03  0.10476434351E+04  0.40000000000E+03 0. -1.
<mgrwt>
<rscale>  2 0.47649822E+03</rscale>
<asrwt>0</asrwt>
<pdfrwt beam="1">  1       21 0.13244345E-01 0.47649822E+03</pdfrwt>
<pdfrwt beam="2">  1       21 0.45588127E+00 0.47649822E+03</pdfrwt>
<totfact> 0.13834658E+02</totfact>
</mgrwt>
</event>
<event>
 4    1  0.4897983E-002  0.4188337E+03  0.7818608E-02  0.1037447E+00
         21   -1    0    0  501  502  0.00000000000E+00  0.00000000000E+00  0.46983032432E+03  0.46983032432E+03  0.00000000000E+00 0.  1.
         21   -1    0    0  502  503 -0.00000000000E+00 -0.00000000000E+00 -0.37419490891E+03  0.37419490891E+03  0.00000000000E+00 0.  1.
    9000007    1    1    2  501    0 -0.12260329930E+03  0.19750349242E+02  0.67603977856E+02  0.42425457348E+03  0.40000000000E+03 0. -1.
   -9000007    1    1    2    0  503  0.12260329930E+03 -0.19750349242E+02  0.28031437550E+02  0.41977065975E+03  0.40000000000E+03 0. -1.
<mgrwt>
<rscale>  2 0.41883367E+03</rscale>
<asrwt>0</asrwt>
<pdfrwt beam="1">  1       21 0.72281588E-01 0.41883367E+03</pdfrwt>
<pdfrwt beam="2">  1       21 0.57568447E-01 0.41883367E+03</pdfrwt>
<totfact> 0.43335160E+03</totfact>
</mgrwt>
</event>
<event>
 4    1  0.4897983E-002  0.6328348E+03  0.7818608E-02  0.9839532E-01
         21   -1    0    0  503  502  0.00000000000E+00  0.00000000000E+00  0.47508857049E+03  0.47508857049E+03  0.00000000000E+00 0. -1.
         21   -1    0    0  501  503 -0.00000000000E+00 -0.00000000000E+00 -0.89551595934E+03  0.89551595934E+03  0.00000000000E+00 0.  1.
    9000007    1    1    2  501    0 -0.13613895594E+03 -0.47111156893E+03 -0.37623464038E+03  0.73622851773E+03  0.40000000000E+03 0.  1.
   -9000007    1    1    2    0  502  0.13613895594E+03  0.47111156893E+03 -0.44192748471E+02  0.63437601209E+03  0.40000000000E+03 0. -1.
<mgrwt>
<rscale>  2 0.63283483E+03</rscale>
<asrwt>0</asrwt>
<pdfrwt beam="1">  1       21 0.73090551E-01 0.63283483E+03</pdfrwt>
<pdfrwt beam="2">  1       21 0.13777168E+00 0.63283483E+03</pdfrwt>
<totfact> 0.48958023E+02</totfact>
</mgrwt>
</event>
<event>
 4    1  0.4897983E-002  0.4384582E+03  0.7818608E-02  0.1031221E+00
         21   -1    0    0  501  502  0.00000000000E+00  0.00000000000E+00  0.53847534124E+03  0.53847534124E+03  0.00000000000E+00 0. -1.
         21   -1    0    0  502  503 -0.00000000000E+00 -0.00000000000E+00 -0.36494256944E+03  0.36494256944E+03  0.00000000000E+00 0. -1.
    9000007    1    1    2  501    0 -0.17551436837E+03  0.37951624566E+02  0.20204966481E+02  0.43892352407E+03  0.40000000000E+03 0. -1.
   -9000007    1    1    2    0  503  0.17551436837E+03 -0.37951624566E+02  0.15332780532E+03  0.46449438661E+03  0.40000000000E+03 0. -1.
<mgrwt>
<rscale>  2 0.43845823E+03</rscale>
<asrwt>0</asrwt>
<pdfrwt beam="1">  1       21 0.82842360E-01 0.43845823E+03</pdfrwt>
<pdfrwt beam="2">  1       21 0.56145011E-01 0.43845823E+03</pdfrwt>
<totfact> 0.33233832E+03</totfact>
</mgrwt>
</event>
<event>
 4    1  0.4897983E-002  0.5002322E+03  0.7818608E-02  0.1013718E+00
         21   -1    0    0  503  502  0.00000000000E+00  0.00000000000E+00  0.20278530769E+04  0.20278530769E+04  0.00000000000E+00 0.  1.
         21   -1    0    0  501  503 -0.00000000000E+00 -0.00000000000E+00 -0.21377023191E+03  0.21377023191E+03  0.00000000000E+00 0.  1.
    9000007    1    1    2  501    0  0.15191969383E+03 -0.25913830408E+03  0.17829333414E+03  0.53105627481E+03  0.40000000000E+03 0.  1.
   -9000007    1    1    2    0  502 -0.15191969383E+03  0.25913830408E+03  0.16357895108E+04  0.17105670340E+04  0.40000000000E+03 0.  1.
<mgrwt>
<rscale>  2 0.50023220E+03</rscale>
<asrwt>0</asrwt>
<pdfrwt beam="1">  1       21 0.31197738E+00 0.50023220E+03</pdfrwt>
<pdfrwt beam="2">  1       21 0.32887729E-01 0.50023220E+03</pdfrwt>
<totfact> 0.19638274E+02</totfact>
</mgrwt>
</event>
<event>
 4    1  0.4897983E-002  0.4455381E+03  0.7818608E-02  0.1029061E+00
         21   -1    0    0  503  502  0.00000000000E+00  0.00000000000E+00  0.80904676725E+03  0.80904676725E+03  0.00000000000E+00 0.  1.
         21   -1    0    0  501  503 -0.00000000000E+00 -0.00000000000E+00 -0.13074723136E+04  0.13074723136E+04  0.00000000000E+00 0.  1.
    9000007    1    1    2  501    0  0.43337008114E+02  0.19137946530E+03 -0.12030231720E+04  0.12828752661E+04  0.40000000000E+03 0.  1.
   -9000007    1    1    2    0  502 -0.43337008114E+02 -0.19137946530E+03  0.70459762558E+03  0.83364381482E+03  0.40000000000E+03 0.  1.
<mgrwt>
<rscale>  2 0.44553810E+03</rscale>
<asrwt>0</asrwt>
<pdfrwt beam="1">  1       21 0.12446874E+00 0.44553810E+03</pdfrwt>
<pdfrwt beam="2">  1       21 0.20114958E+00 0.44553810E+03</pdfrwt>
<totfact> 0.49925309E+01</totfact>
</mgrwt>
</event>
<event>
 4    1  0.4897983E-002  0.4985459E+03  0.7818608E-02  0.1014159E+00
         21   -1    0    0  503  502  0.00000000000E+00  0.00000000000E+00  0.19999259590E+04  0.19999259590E+04  0.00000000000E+00 0. -1.
         21   -1    0    0  501  503 -0.00000000000E+00 -0.00000000000E+00 -0.12973030264E+03  0.12973030264E+03  0.00000000000E+00 0. -1.
    9000007    1    1    2  501    0 -0.21829210419E+03  0.20222909225E+03  0.11533828217E+04  0.12565189938E+04  0.40000000000E+03 0. -1.
   -9000007    1    1    2    0  502  0.21829210419E+03 -0.20222909225E+03  0.71681283473E+03  0.87313726786E+03  0.40000000000E+03 0. -1.
<mgrwt>
<rscale>  2 0.49854593E+03</rscale>
<asrwt>0</asrwt>
<pdfrwt beam="1">  1       21 0.30768089E+00 0.49854593E+03</pdfrwt>
<pdfrwt beam="2">  1       21 0.19958510E-01 0.49854593E+03</pdfrwt>
<totfact> 0.55461323E+02</totfact>
</mgrwt>
</event>
<event>
 4    1  0.4897983E-002  0.4228793E+03  0.7818608E-02  0.1036133E+00
         21   -1    0    0  501  502  0.00000000000E+00  0.00000000000E+00  0.74590854687E+03  0.74590854687E+03  0.00000000000E+00 0.  1.
         21   -1    0    0  502  503 -0.00000000000E+00 -0.00000000000E+00 -0.42495463696E+03  0.42495463696E+03  0.00000000000E+00 0. -1.
    9000007    1    1    2  501    0 -0.58129599820E+02 -0.12428923850E+03  0.54696689859E+03  0.69137518999E+03  0.40000000000E+03 0.  1.
   -9000007    1    1    2    0  503  0.58129599820E+02  0.12428923850E+03 -0.22601298868E+03  0.47948799384E+03  0.40000000000E+03 0. -1.
<mgrwt>
<rscale>  2 0.42287926E+03</rscale>
<asrwt>0</asrwt>
<pdfrwt beam="1">  1       21 0.11475516E+00 0.42287926E+03</pdfrwt>
<pdfrwt beam="2">  1       21 0.65377636E-01 0.42287926E+03</pdfrwt>
<totfact> 0.10911715E+03</totfact>
</mgrwt>
</event>
<event>
 4    1  0.4897983E-002  0.7522087E+03  0.7818608E-02  0.9631892E-01
         21   -1    0    0  503  502  0.00000000000E+00  0.00000000000E+00  0.83986207927E+03  0.83986207927E+03  0.00000000000E+00 0. -1.
         21   -1    0    0  501  503 -0.00000000000E+00 -0.00000000000E+00 -0.86194429440E+03  0.86194429440E+03  0.00000000000E+00 0.  1.
    9000007    1    1    2  501    0 -0.31006885670E+03 -0.55648465602E+03 -0.40868803918E+03  0.85606295426E+03  0.40000000000E+03 0.  1.
   -9000007    1    1    2    0  502  0.31006885670E+03  0.55648465602E+03  0.38660582405E+03  0.84574341941E+03  0.40000000000E+03 0. -1.
<mgrwt>
<rscale>  2 0.75220866E+03</rscale>
<asrwt>0</asrwt>
<pdfrwt beam="1">  1       21 0.12920955E+00 0.75220866E+03</pdfrwt>
<pdfrwt beam="2">  1       21 0.13260681E+00 0.75220866E+03</pdfrwt>
<totfact> 0.12973564E+02</totfact>
</mgrwt>
</event>
<event>
 4    1  0.4897983E-002  0.5354688E+03  0.7818608E-02  0.1004914E+00
         21   -1    0    0  501  502  0.00000000000E+00  0.00000000000E+00  0.46404196005E+03  0.46404196005E+03  0.00000000000E+00 0.  1.
         21   -1    0    0  502  503 -0.00000000000E+00 -0.00000000000E+00 -0.73774811887E+03  0.73774811887E+03  0.00000000000E+00 0.  1.
    9000007    1    1    2  501    0 -0.27602152350E+03  0.22480874101E+03  0.10534931352E+03  0.54573375315E+03  0.40000000000E+03 0.  1.
   -9000007    1    1    2    0  503  0.27602152350E+03 -0.22480874101E+03 -0.37905547234E+03  0.65605632577E+03  0.40000000000E+03 0.  1.
<mgrwt>
<rscale>  2 0.53546881E+03</rscale>
<asrwt>0</asrwt>
<pdfrwt beam="1">  1       21 0.71391072E-01 0.53546881E+03</pdfrwt>
<pdfrwt beam="2">  1       21 0.11349971E+00 0.53546881E+03</pdfrwt>
<totfact> 0.88090534E+02</totfact>
</mgrwt>
</event>
<event>
 4    1  0.4897983E-002  0.4425405E+03  0.7818608E-02  0.1029970E+00
         21   -1    0    0  503  502  0.00000000000E+00  0.00000000000E+00  0.25163429295E+04  0.25163429295E+04  0.00000000000E+00 0.  1.
         21   -1    0    0  501  503 -0.00000000000E+00 -0.00000000000E+00 -0.77875711513E+02  0.77875711513E+02  0.00000000000E+00 0.  1.
    9000007    1    1    2  501    0  0.41466506719E+01  0.18927470496E+03  0.11871504282E+04  0.12669523463E+04  0.40000000000E+03 0.  1.
   -9000007    1    1    2    0  502 -0.41466506719E+01 -0.18927470496E+03  0.12513167898E+04  0.13272662947E+04  0.40000000000E+03 0.  1.
<mgrwt>
<rscale>  2 0.44254052E+03</rscale>
<asrwt>0</asrwt>
<pdfrwt beam="1">  1       21 0.38712962E+00 0.44254052E+03</pdfrwt>
<pdfrwt beam="2">  1       21 0.11980881E-01 0.44254052E+03</pdfrwt>
<totfact> 0.48076868E+02</totfact>
</mgrwt>
</event>
<event>
 4    1  0.4897983E-002  0.4988999E+03  0.7818608E-02  0.1014066E+00
         21   -1    0    0  503  502  0.00000000000E+00  0.00000000000E+00  0.42180112653E+03  0.42180112653E+03  0.00000000000E+00 0.  1.
         21   -1    0    0  501  503 -0.00000000000E+00 -0.00000000000E+00 -0.62535990550E+03  0.62535990550E+03  0.00000000000E+00 0.  1.
    9000007    1    1    2  501    0  0.26408679994E+03  0.13841702022E+03 -0.22612016261E+03  0.54775125498E+03  0.40000000000E+03 0.  1.
   -9000007    1    1    2    0  502 -0.26408679994E+03 -0.13841702022E+03  0.22561383640E+02  0.49940977706E+03  0.40000000000E+03 0.  1.
<mgrwt>
<rscale>  2 0.49889990E+03</rscale>
<asrwt>0</asrwt>
<pdfrwt beam="1">  1       21 0.64892481E-01 0.49889990E+03</pdfrwt>
<pdfrwt beam="2">  1       21 0.96209216E-01 0.49889990E+03</pdfrwt>
<totfact> 0.16612210E+03</totfact>
</mgrwt>
</event>
<event>
 4    1  0.4897983E-002  0.6732227E+03  0.7818608E-02  0.9764153E-01
         21   -1    0    0  501  502  0.00000000000E+00  0.00000000000E+00  0.17836981785E+04  0.17836981785E+04  0.00000000000E+00 0.  1.
         21   -1    0    0  502  503 -0.00000000000E+00 -0.00000000000E+00 -0.25433355534E+03  0.25433355534E+03  0.00000000000E+00 0.  1.
    9000007    1    1    2  501    0  0.39029760762E+03  0.37536195205E+03  0.79588980888E+03  0.10424343651E+04  0.40000000000E+03 0.  1.
   -9000007    1    1    2    0  503 -0.39029760762E+03 -0.37536195205E+03  0.73347481426E+03  0.99559736878E+03  0.40000000000E+03 0.  1.
<mgrwt>
<rscale>  2 0.67322271E+03</rscale>
<asrwt>0</asrwt>
<pdfrwt beam="1">  1       21 0.27441510E+00 0.67322271E+03</pdfrwt>
<pdfrwt beam="2">  1       21 0.39128240E-01 0.67322271E+03</pdfrwt>
<totfact> 0.21565459E+02</totfact>
</mgrwt>
</event>
<event>
 4    1  0.4897983E-002  0.4367125E+03  0.7818608E-02  0.1031760E+00
         21   -1    0    0  501  502  0.00000000000E+00  0.00000000000E+00  0.29972457524E+03  0.29972457524E+03  0.00000000000E+00 0. -1.
         21   -1    0    0  502  503 -0.00000000000E+00 -0.00000000000E+00 -0.12549536106E+04  0.12549536106E+04  0.00000000000E+00 0. -1.
    9000007    1    1    2  501    0 -0.89171100366E+02  0.15088508129E+03  0.68164558948E+02  0.44200022624E+03  0.40000000000E+03 0. -1.
   -9000007    1    1    2    0  503  0.89171100366E+02 -0.15088508129E+03 -0.10233935943E+04  0.11126779596E+04  0.40000000000E+03 0. -1.
<mgrwt>
<rscale>  2 0.43671248E+03</rscale>
<asrwt>0</asrwt>
<pdfrwt beam="1">  1       21 0.46111473E-01 0.43671248E+03</pdfrwt>
<pdfrwt beam="2">  1       21 0.19306979E+00 0.43671248E+03</pdfrwt>
<totfact> 0.55829425E+02</totfact>
</mgrwt>
</event>
<event>
 4    1  0.4897983E-002  0.4099996E+03  0.7818608E-02  0.1040371E+00
         21   -1    0    0  501  502  0.00000000000E+00  0.00000000000E+00  0.15363422639E+04  0.15363422639E+04  0.00000000000E+00 0. -1.
         21   -1    0    0  502  503 -0.00000000000E+00 -0.00000000000E+00 -0.29023623475E+03  0.29023623475E+03  0.00000000000E+00 0. -1.
    9000007    1    1    2  501    0  0.87006400943E+02 -0.23012943288E+02  0.13439224362E+04  0.14050719639E+04  0.40000000000E+03 0. -1.
   -9000007    1    1    2    0  503 -0.87006400943E+02  0.23012943288E+02 -0.97816406996E+02  0.42150653476E+03  0.40000000000E+03 0. -1.
<mgrwt>
<rscale>  2 0.40999965E+03</rscale>
<asrwt>0</asrwt>
<pdfrwt beam="1">  1       21 0.23636034E+00 0.40999965E+03</pdfrwt>
<pdfrwt beam="2">  1       21 0.44651729E-01 0.40999965E+03</pdfrwt>
<totfact> 0.31822714E+02</totfact>
</mgrwt>
</event>
<event>
 4    1  0.4897983E-002  0.4439891E+03  0.7818608E-02  0.1029530E+00
         21   -1    0    0  503  502  0.00000000000E+00  0.00000000000E+00  0.22653269951E+03  0.22653269951E+03  0.00000000000E+00 0.  1.
         21   -1    0    0  501  503 -0.00000000000E+00 -0.00000000000E+00 -0.18272752801E+04  0.18272752801E+04  0.00000000000E+00 0.  1.
    9000007    1    1    2  501    0  0.26523971272E+02  0.19084762234E+03 -0.15435672229E+04  0.16061525791E+04  0.40000000000E+03 0.  1.
   -9000007    1    1    2    0  502 -0.26523971272E+02 -0.19084762234E+03 -0.57175357694E+02  0.44765540043E+03  0.40000000000E+03 0.  1.
<mgrwt>
<rscale>  2 0.44398912E+03</rscale>
<asrwt>0</asrwt>
<pdfrwt beam="1">  1       21 0.34851184E-01 0.44398912E+03</pdfrwt>
<pdfrwt beam="2">  1       21 0.28111928E+00 0.44398912E+03</pdfrwt>
<totfact> 0.27697122E+02</totfact>
</mgrwt>
</event>
<event>
 4    1  0.4897983E-002  0.4103483E+03  0.7818608E-02  0.1040254E+00
         21   -1    0    0  501  502  0.00000000000E+00  0.00000000000E+00  0.68112205052E+03  0.68112205052E+03  0.00000000000E+00 0. -1.
         21   -1    0    0  502  503 -0.00000000000E+00 -0.00000000000E+00 -0.31393540957E+03  0.31393540957E+03  0.00000000000E+00 0. -1.
    9000007    1    1    2  501    0  0.80242487871E+02  0.44122915897E+02  0.41295313340E+03  0.58216490701E+03  0.40000000000E+03 0. -1.
   -9000007    1    1    2    0  503 -0.80242487871E+02 -0.44122915897E+02 -0.45766492447E+02  0.41289255309E+03  0.40000000000E+03 0. -1.
<mgrwt>
<rscale>  2 0.41034825E+03</rscale>
<asrwt>0</asrwt>
<pdfrwt beam="1">  1       21 0.10478801E+00 0.41034825E+03</pdfrwt>
<pdfrwt beam="2">  1       21 0.48297755E-01 0.41034825E+03</pdfrwt>
<totfact> 0.26451853E+03</totfact>
</mgrwt>
</event>
<event>
 4    1  0.4897983E-002  0.5212751E+03  0.7818608E-02  0.1008370E+00
         21   -1    0    0  503  502  0.00000000000E+00  0.00000000000E+00  0.48336562026E+03  0.48336562026E+03  0.00000000000E+00 0. -1.
         21   -1    0    0  501  503 -0.00000000000E+00 -0.00000000000E+00 -0.56235761556E+03  0.56235761556E+03  0.00000000000E+00 0.  1.
    9000007    1    1    2  501    0 -0.33097865840E+03  0.46699886735E+02 -0.49351970380E+02  0.52360611982E+03  0.40000000000E+03 0. -1.
   -9000007    1    1    2    0  502  0.33097865840E+03 -0.46699886735E+02 -0.29640024917E+02  0.52211711599E+03  0.40000000000E+03 0. -1.
<mgrwt>
<rscale>  2 0.52127512E+03</rscale>
<asrwt>0</asrwt>
<pdfrwt beam="1">  1       21 0.74363942E-01 0.52127512E+03</pdfrwt>
<pdfrwt beam="2">  1       21 0.86516556E-01 0.52127512E+03</pdfrwt>
<totfact> 0.15618215E+03</totfact>
</mgrwt>
</event>
<event>
 4    1  0.4897983E-002  0.4189630E+03  0.7818608E-02  0.1037404E+00
         21   -1    0    0  501  502  0.00000000000E+00  0.00000000000E+00  0.25392247085E+04  0.25392247085E+04  0.00000000000E+00 0.  1.
         21   -1    0    0  502  503 -0.00000000000E+00 -0.00000000000E+00 -0.72255354375E+02  0.72255354375E+02  0.00000000000E+00 0.  1.
    9000007    1    1    2  501    0 -0.11422194037E+03 -0.49833170782E+02  0.15051611671E+04  0.15623828390E+04  0.40000000000E+03 0.  1.
   -9000007    1    1    2    0  503  0.11422194037E+03  0.49833170782E+02  0.96180818704E+03  0.10490972239E+04  0.40000000000E+03 0.  1.
<mgrwt>
<rscale>  2 0.41896300E+03</rscale>
<asrwt>0</asrwt>
<pdfrwt beam="1">  1       21 0.39064989E+00 0.41896300E+03</pdfrwt>
<pdfrwt beam="2">  1       21 0.11116210E-01 0.41896300E+03</pdfrwt>
<totfact> 0.53128508E+02</totfact>
</mgrwt>
</event>
<event>
 4    1  0.4897983E-002  0.5252649E+03  0.7818608E-02  0.1007387E+00
         21   -1    0    0  501  502  0.00000000000E+00  0.00000000000E+00  0.99661792354E+03  0.99661792354E+03  0.00000000000E+00 0.  1.
         21   -1    0    0  502  503 -0.00000000000E+00 -0.00000000000E+00 -0.37612918467E+03  0.37612918467E+03  0.00000000000E+00 0. -1.
    9000007    1    1    2  501    0  0.17774888998E+03  0.29035927599E+03  0.66289458888E+03  0.84577326336E+03  0.40000000000E+03 0.  1.
   -9000007    1    1    2    0  503 -0.17774888998E+03 -0.29035927599E+03 -0.42405850004E+02  0.52697384485E+03  0.40000000000E+03 0. -1.
<mgrwt>
<rscale>  2 0.52526486E+03</rscale>
<asrwt>0</asrwt>
<pdfrwt beam="1">  1       21 0.15332583E+00 0.52526486E+03</pdfrwt>
<pdfrwt beam="2">  1       21 0.57866029E-01 0.52526486E+03</pdfrwt>
<totfact> 0.64091190E+02</totfact>
</mgrwt>
</event>
<event>
 4    1  0.4897983E-002  0.4267109E+03  0.7818608E-02  0.1034904E+00
         21   -1    0    0  501  502  0.00000000000E+00  0.00000000000E+00  0.17888484829E+04  0.17888484829E+04  0.00000000000E+00 0. -1.
         21   -1    0    0  502  503 -0.00000000000E+00 -0.00000000000E+00 -0.10946317669E+03  0.10946317669E+03  0.00000000000E+00 0. -1.
    9000007    1    1    2  501    0 -0.83331756948E+02 -0.12303648073E+03  0.10910351396E+04  0.11715117725E+04  0.40000000000E+03 0. -1.
   -9000007    1    1    2    0  503  0.83331756948E+02  0.12303648073E+03  0.58835016666E+03  0.72679988712E+03  0.40000000000E+03 0. -1.
<mgrwt>
<rscale>  2 0.42671086E+03</rscale>
<asrwt>0</asrwt>
<pdfrwt beam="1">  1       21 0.27520744E+00 0.42671086E+03</pdfrwt>
<pdfrwt beam="2">  1       21 0.16840490E-01 0.42671086E+03</pdfrwt>
<totfact> 0.12457468E+03</totfact>
</mgrwt>
</event>
<event>
 4    1  0.4897983E-002  0.8135457E+03  0.7818608E-02  0.9540615E-01
         21   -1    0    0  501  502  0.00000000000E+00  0.00000000000E+00  0.80066353546E+03  0.80066353546E+03  0.00000000000E+00 0. -1.
         21   -1    0    0  502  503 -0.00000000000E+00 -0.00000000000E+00 -0.82771783419E+03  0.82771783419E+03  0.00000000000E+00 0.  1.
    9000007    1    1    2  501    0  0.15699655912E+03  0.69080298471E+03 -0.42972752709E+02  0.81467990078E+03  0.40000000000E+03 0.  1.
   -9000007    1    1    2    0  503 -0.15699655912E+03 -0.69080298471E+03  0.15918453981E+02  0.81370146887E+03  0.40000000000E+03 0. -1.
<mgrwt>
<rscale>  2 0.81354575E+03</rscale>
<asrwt>0</asrwt>
<pdfrwt beam="1">  1       21 0.12317901E+00 0.81354575E+03</pdfrwt>
<pdfrwt beam="2">  1       21 0.12734121E+00 0.81354575E+03</pdfrwt>
<totfact> 0.16075737E+02</totfact>
</mgrwt>
</event>
<event>
 4    1  0.4897983E-002  0.5234602E+03  0.7818608E-02  0.1007831E+00
         21   -1    0    0  503  502  0.00000000000E+00  0.00000000000E+00  0.60388069947E+03  0.60388069947E+03  0.00000000000E+00 0. -1.
         21   -1    0    0  501  503 -0.00000000000E+00 -0.00000000000E+00 -0.46479219422E+03  0.46479219422E+03  0.00000000000E+00 0. -1.
    9000007    1    1    2  501    0 -0.17943115493E+03 -0.28603320926E+03  0.15190567956E+03  0.54505584268E+03  0.40000000000E+03 0. -1.
   -9000007    1    1    2    0  502  0.17943115493E+03  0.28603320926E+03 -0.12817174316E+02  0.52361705101E+03  0.40000000000E+03 0. -1.
<mgrwt>
<rscale>  2 0.52346016E+03</rscale>
<asrwt>0</asrwt>
<pdfrwt beam="1">  1       21 0.92904724E-01 0.52346016E+03</pdfrwt>
<pdfrwt beam="2">  1       21 0.71506491E-01 0.52346016E+03</pdfrwt>
<totfact> 0.14406871E+03</totfact>
</mgrwt>
</event>
<event>
 4    1  0.4897983E-002  0.4882686E+03  0.7818608E-02  0.1016887E+00
         21   -1    0    0  501  502  0.00000000000E+00  0.00000000000E+00  0.35119172680E+03  0.35119172680E+03  0.00000000000E+00 0. -1.
         21   -1    0    0  502  503 -0.00000000000E+00 -0.00000000000E+00 -0.88883748383E+03  0.88883748383E+03  0.00000000000E+00 0.  1.
    9000007    1    1    2  501    0  0.20973990914E+02 -0.27922446170E+03 -0.57018475688E+03  0.75067760409E+03  0.40000000000E+03 0.  1.
   -9000007    1    1    2    0  503 -0.20973990914E+02  0.27922446170E+03  0.32538999850E+02  0.48935160654E+03  0.40000000000E+03 0. -1.
<mgrwt>
<rscale>  2 0.48826858E+03</rscale>
<asrwt>0</asrwt>
<pdfrwt beam="1">  1       21 0.54029497E-01 0.48826858E+03</pdfrwt>
<pdfrwt beam="2">  1       21 0.13674423E+00 0.48826858E+03</pdfrwt>
<totfact> 0.10273762E+03</totfact>
</mgrwt>
</event>
<event>
 4    1  0.4897983E-002  0.4221734E+03  0.7818608E-02  0.1036361E+00
         21   -1    0    0  501  502  0.00000000000E+00  0.00000000000E+00  0.32449506740E+03  0.32449506740E+03  0.00000000000E+00 0.  1.
         21   -1    0    0  502  503 -0.00000000000E+00 -0.00000000000E+00 -0.60630537860E+03  0.60630537860E+03  0.00000000000E+00 0.  1.
    9000007    1    1    2  501    0 -0.80947427687E+02 -0.10806444487E+03  0.18565220220E+01  0.42217751831E+03  0.40000000000E+03 0.  1.
   -9000007    1    1    2    0  503  0.80947427687E+02  0.10806444487E+03 -0.28366683322E+03  0.50862292768E+03  0.40000000000E+03 0.  1.
<mgrwt>
<rscale>  2 0.42217344E+03</rscale>
<asrwt>0</asrwt>
<pdfrwt beam="1">  1       21 0.49922319E-01 0.42217344E+03</pdfrwt>
<pdfrwt beam="2">  1       21 0.93277749E-01 0.42217344E+03</pdfrwt>
<totfact> 0.32526885E+03</totfact>
</mgrwt>
</event>
<event>
 4    1  0.4897983E-002  0.4275593E+03  0.7818608E-02  0.1034634E+00
         21   -1    0    0  501  502  0.00000000000E+00  0.00000000000E+00  0.21246400181E+03  0.21246400181E+03  0.00000000000E+00 0. -1.
         21   -1    0    0  502  503 -0.00000000000E+00 -0.00000000000E+00 -0.15877966013E+04  0.15877966013E+04  0.00000000000E+00 0. -1.
    9000007    1    1    2  501    0 -0.23307542561E+02  0.14921037149E+03 -0.78424857551E+02  0.43469234498E+03  0.40000000000E+03 0. -1.
   -9000007    1    1    2    0  503  0.23307542561E+02 -0.14921037149E+03 -0.12969077419E+04  0.13655682581E+04  0.40000000000E+03 0. -1.
<mgrwt>
<rscale>  2 0.42755933E+03</rscale>
<asrwt>0</asrwt>
<pdfrwt beam="1">  1       21 0.32686770E-01 0.42755933E+03</pdfrwt>
<pdfrwt beam="2">  1       21 0.24427640E+00 0.42755933E+03</pdfrwt>
<totfact> 0.53268104E+02</totfact>
</mgrwt>
</event>
<event>
 4    1  0.4897983E-002  0.4580797E+03  0.7818608E-02  0.1025340E+00
         21   -1    0    0  503  502  0.00000000000E+00  0.00000000000E+00  0.90172524538E+03  0.90172524538E+03  0.00000000000E+00 0. -1.
         21   -1    0    0  501  503 -0.00000000000E+00 -0.00000000000E+00 -0.24605560498E+03  0.24605560498E+03  0.00000000000E+00 0. -1.
    9000007    1    1    2  501    0 -0.21064271987E+03  0.73936722202E+02  0.19416160262E+03  0.49752961947E+03  0.40000000000E+03 0. -1.
   -9000007    1    1    2    0  502  0.21064271987E+03 -0.73936722202E+02  0.46150803778E+03  0.65025123088E+03  0.40000000000E+03 0. -1.
<mgrwt>
<rscale>  2 0.45807968E+03</rscale>
<asrwt>0</asrwt>
<pdfrwt beam="1">  1       21 0.13872696E+00 0.45807968E+03</pdfrwt>
<pdfrwt beam="2">  1       21 0.37854709E-01 0.45807968E+03</pdfrwt>
<totfact> 0.21114247E+03</totfact>
</mgrwt>
</event>
<event>
 4    1  0.4897983E-002  0.4326952E+03  0.7818608E-02  0.1033012E+00
         21   -1    0    0  503  502  0.00000000000E+00  0.00000000000E+00  0.35749977168E+03  0.35749977168E+03  0.00000000000E+00 0. -1.
         21   -1    0    0  501  503 -0.00000000000E+00 -0.00000000000E+00 -0.74445644617E+03  0.74445644617E+03  0.00000000000E+00 0. -1.
    9000007    1    1    2  501    0 -0.89358907481E+02  0.13870889362E+03 -0.49350814372E+03  0.65633486836E+03  0.40000000000E+03 0. -1.
   -9000007    1    1    2    0  502  0.89358907481E+02 -0.13870889362E+03  0.10655146923E+03  0.44562134948E+03  0.40000000000E+03 0. -1.
<mgrwt>
<rscale>  2 0.43269524E+03</rscale>
<asrwt>0</asrwt>
<pdfrwt beam="1">  1       21 0.54999965E-01 0.43269524E+03</pdfrwt>
<pdfrwt beam="2">  1       21 0.11453176E+00 0.43269524E+03</pdfrwt>
<totfact> 0.15941419E+03</totfact>
</mgrwt>
</event>
<event>
 4    1  0.4897983E-002  0.5883965E+03  0.7818608E-02  0.9929776E-01
         21   -1    0    0  501  502  0.00000000000E+00  0.00000000000E+00  0.14005692452E+04  0.14005692452E+04  0.00000000000E+00 0. -1.
         21   -1    0    0  502  503 -0.00000000000E+00 -0.00000000000E+00 -0.25171710133E+03  0.25171710133E+03  0.00000000000E+00 0.  1.
    9000007    1    1    2  501    0  0.95917068605E+02  0.42072592271E+03  0.46366600985E+03  0.74913053253E+03  0.40000000000E+03 0.  1.
   -9000007    1    1    2    0  503 -0.95917068605E+02 -0.42072592271E+03  0.68518613397E+03  0.90315581395E+03  0.40000000000E+03 0.  1.
<mgrwt>
<rscale>  2 0.58839645E+03</rscale>
<asrwt>0</asrwt>
<pdfrwt beam="1">  1       21 0.21547219E+00 0.58839645E+03</pdfrwt>
<pdfrwt beam="2">  1       21 0.38725709E-01 0.58839645E+03</pdfrwt>
<totfact> 0.53398159E+02</totfact>
</mgrwt>
</event>
<event>
 4    1  0.4897983E-002  0.4455082E+03  0.7818608E-02  0.1029070E+00
         21   -1    0    0  503  502  0.00000000000E+00  0.00000000000E+00  0.49994589036E+03  0.49994589036E+03  0.00000000000E+00 0. -1.
         21   -1    0    0  501  503 -0.00000000000E+00 -0.00000000000E+00 -0.53113474464E+03  0.53113474464E+03  0.00000000000E+00 0. -1.
    9000007    1    1    2  501    0 -0.17595163126E+03  0.86709600174E+02 -0.27467456444E+03  0.52337715622E+03  0.40000000000E+03 0. -1.
   -9000007    1    1    2    0  502  0.17595163126E+03 -0.86709600174E+02  0.24348571017E+03  0.50770347878E+03  0.40000000000E+03 0. -1.
<mgrwt>
<rscale>  2 0.44550817E+03</rscale>
<asrwt>0</asrwt>
<pdfrwt beam="1">  1       21 0.76914752E-01 0.44550817E+03</pdfrwt>
<pdfrwt beam="2">  1       21 0.81713038E-01 0.44550817E+03</pdfrwt>
<totfact> 0.16978700E+03</totfact>
</mgrwt>
</event>
<event>
 4    1  0.4897983E-002  0.5200402E+03  0.7818608E-02  0.1008677E+00
         21   -1    0    0  501  502  0.00000000000E+00  0.00000000000E+00  0.67989124235E+03  0.67989124235E+03  0.00000000000E+00 0.  1.
         21   -1    0    0  502  503 -0.00000000000E+00 -0.00000000000E+00 -0.44818221102E+03  0.44818221102E+03  0.00000000000E+00 0.  1.
    9000007    1    1    2  501    0 -0.27227761660E+03 -0.19054314708E+03  0.30501862941E+03  0.60289149579E+03  0.40000000000E+03 0.  1.
   -9000007    1    1    2    0  503  0.27227761660E+03  0.19054314708E+03 -0.73309598081E+02  0.52518195758E+03  0.40000000000E+03 0.  1.
<mgrwt>
<rscale>  2 0.52004018E+03</rscale>
<asrwt>0</asrwt>
<pdfrwt beam="1">  1       21 0.10459865E+00 0.52004018E+03</pdfrwt>
<pdfrwt beam="2">  1       21 0.68951109E-01 0.52004018E+03</pdfrwt>
<totfact> 0.11739464E+03</totfact>
</mgrwt>
</event>
<event>
 4    1  0.4897983E-002  0.5335557E+03  0.7818608E-02  0.1005373E+00
         21   -1    0    0  501  502  0.00000000000E+00  0.00000000000E+00  0.41456528890E+03  0.41456528890E+03  0.00000000000E+00 0. -1.
         21   -1    0    0  502  503 -0.00000000000E+00 -0.00000000000E+00 -0.70042194787E+03  0.70042194787E+03  0.00000000000E+00 0. -1.
    9000007    1    1    2  501    0  0.28333169373E+03 -0.21072465594E+03 -0.22096120803E+03  0.57749942403E+03  0.40000000000E+03 0. -1.
   -9000007    1    1    2    0  503 -0.28333169373E+03  0.21072465594E+03 -0.64895450940E+02  0.53748781275E+03  0.40000000000E+03 0. -1.
<mgrwt>
<rscale>  2 0.53355574E+03</rscale>
<asrwt>0</asrwt>
<pdfrwt beam="1">  1       21 0.63779275E-01 0.53355574E+03</pdfrwt>
<pdfrwt beam="2">  1       21 0.10775722E+00 0.53355574E+03</pdfrwt>
<totfact> 0.12925633E+03</totfact>
</mgrwt>
</event>
<event>
 4    1  0.4897983E-002  0.5182765E+03  0.7818608E-02  0.1009116E+00
         21   -1    0    0  501  502  0.00000000000E+00  0.00000000000E+00  0.56244866121E+03  0.56244866121E+03  0.00000000000E+00 0. -1.
         21   -1    0    0  502  503 -0.00000000000E+00 -0.00000000000E+00 -0.53181823510E+03  0.53181823510E+03  0.00000000000E+00 0. -1.
    9000007    1    1    2  501    0  0.12019106905E+03 -0.30686259707E+03  0.19005453940E+03  0.55202470461E+03  0.40000000000E+03 0. -1.
   -9000007    1    1    2    0  503 -0.12019106905E+03  0.30686259707E+03 -0.15942411329E+03  0.54224219170E+03  0.40000000000E+03 0. -1.
<mgrwt>
<rscale>  2 0.51827652E+03</rscale>
<asrwt>0</asrwt>
<pdfrwt beam="1">  1       21 0.86530564E-01 0.51827652E+03</pdfrwt>
<pdfrwt beam="2">  1       21 0.81818190E-01 0.51827652E+03</pdfrwt>
<totfact> 0.12537355E+03</totfact>
</mgrwt>
</event>
<event>
 4    1  0.4897983E-002  0.6132067E+03  0.7818608E-02  0.9878379E-01
         21   -1    0    0  501  502  0.00000000000E+00  0.00000000000E+00  0.82890379473E+03  0.82890379473E+03  0.00000000000E+00 0. -1.
         21   -1    0    0  502  503 -0.00000000000E+00 -0.00000000000E+00 -0.45920099766E+03  0.45920099766E+03  0.00000000000E+00 0.  1.
    9000007    1    1    2  501    0  0.20032162078E+03 -0.41939677600E+03  0.25573850765E+03  0.66439791674E+03  0.40000000000E+03 0. -1.
   -9000007    1    1    2    0  503 -0.20032162078E+03  0.41939677600E+03  0.11396428942E+03  0.62370687565E+03  0.40000000000E+03 0. -1.
<mgrwt>
<rscale>  2 0.61320666E+03</rscale>
<asrwt>0</asrwt>
<pdfrwt beam="1">  1       21 0.12752366E+00 0.61320666E+03</pdfrwt>
<pdfrwt beam="2">  1       21 0.70646308E-01 0.61320666E+03</pdfrwt>
<totfact> 0.65251445E+02</totfact>
</mgrwt>
</event>
<event>
 4    1  0.4897983E-002  0.4991182E+03  0.7818608E-02  0.1014009E+00
         21   -1    0    0  503  502  0.00000000000E+00  0.00000000000E+00  0.36625714087E+03  0.36625714087E+03  0.00000000000E+00 0.  1.
         21   -1    0    0  501  503 -0.00000000000E+00 -0.00000000000E+00 -0.76274004252E+03  0.76274004252E+03  0.00000000000E+00 0.  1.
    9000007    1    1    2  501    0 -0.20418773755E+03 -0.21777592586E+03 -0.38396733764E+03  0.62972208348E+03  0.40000000000E+03 0.  1.
   -9000007    1    1    2    0  502  0.20418773755E+03  0.21777592586E+03 -0.12515564005E+02  0.49927509991E+03  0.40000000000E+03 0.  1.
<mgrwt>
<rscale>  2 0.49911821E+03</rscale>
<asrwt>0</asrwt>
<pdfrwt beam="1">  1       21 0.56347253E-01 0.49911821E+03</pdfrwt>
<pdfrwt beam="2">  1       21 0.11734462E+00 0.49911821E+03</pdfrwt>
<totfact> 0.13876755E+03</totfact>
</mgrwt>
</event>
<event>
 4    1  0.4897983E-002  0.4154011E+03  0.7818608E-02  0.1038574E+00
         21   -1    0    0  503  502  0.00000000000E+00  0.00000000000E+00  0.20567423344E+03  0.20567423344E+03  0.00000000000E+00 0. -1.
         21   -1    0    0  501  503 -0.00000000000E+00 -0.00000000000E+00 -0.15819048141E+04  0.15819048141E+04  0.00000000000E+00 0.  1.
    9000007    1    1    2  501    0 -0.60610622665E+02  0.94257313047E+02 -0.13006283567E+04  0.13653542438E+04  0.40000000000E+03 0.  1.
   -9000007    1    1    2    0  502  0.60610622665E+02 -0.94257313047E+02 -0.75602223916E+02  0.42222480375E+03  0.40000000000E+03 0. -1.
<mgrwt>
<rscale>  2 0.41540112E+03</rscale>
<asrwt>0</asrwt>
<pdfrwt beam="1">  1       21 0.31642190E-01 0.41540112E+03</pdfrwt>
<pdfrwt beam="2">  1       21 0.24336997E+00 0.41540112E+03</pdfrwt>
<totfact> 0.57965987E+02</totfact>
</mgrwt>
</event>
<event>
 4    1  0.4897983E-002  0.5091521E+03  0.7818608E-02  0.1011417E+00
         21   -1    0    0  503  502  0.00000000000E+00  0.00000000000E+00  0.83901311614E+03  0.83901311614E+03  0.00000000000E+00 0. -1.
         21   -1    0    0  501  503 -0.00000000000E+00 -0.00000000000E+00 -0.30956966316E+03  0.30956966316E+03  0.00000000000E+00 0. -1.
    9000007    1    1    2  501    0  0.22370463258E+03 -0.22179292650E+03  0.23959653744E+03  0.56270984143E+03  0.40000000000E+03 0. -1.
   -9000007    1    1    2    0  502 -0.22370463258E+03  0.22179292650E+03  0.28984691553E+03  0.58587293787E+03  0.40000000000E+03 0. -1.
<mgrwt>
<rscale>  2 0.50915210E+03</rscale>
<asrwt>0</asrwt>
<pdfrwt beam="1">  1       21 0.12907894E+00 0.50915210E+03</pdfrwt>
<pdfrwt beam="2">  1       21 0.47626102E-01 0.50915210E+03</pdfrwt>
<totfact> 0.15524712E+03</totfact>
</mgrwt>
</event>
<event>
 4    1  0.4897983E-002  0.5435440E+03  0.7818608E-02  0.1002999E+00
         21   -1    0    0  503  502  0.00000000000E+00  0.00000000000E+00  0.90322910381E+03  0.90322910381E+03  0.00000000000E+00 0. -1.
         21   -1    0    0  501  503 -0.00000000000E+00 -0.00000000000E+00 -0.42288511498E+03  0.42288511498E+03  0.00000000000E+00 0. -1.
    9000007    1    1    2  501    0 -0.24803944773E+03  0.27187592900E+03 -0.75404166174E+02  0.54874937510E+03  0.40000000000E+03 0. -1.
   -9000007    1    1    2    0  502  0.24803944773E+03 -0.27187592900E+03  0.55574815501E+03  0.77736484369E+03  0.40000000000E+03 0. -1.
<mgrwt>
<rscale>  2 0.54354401E+03</rscale>
<asrwt>0</asrwt>
<pdfrwt beam="1">  1       21 0.13895832E+00 0.54354401E+03</pdfrwt>
<pdfrwt beam="2">  1       21 0.65059248E-01 0.54354401E+03</pdfrwt>
<totfact> 0.64154614E+02</totfact>
</mgrwt>
</event>
<event>
 4    1  0.4897983E-002  0.4496892E+03  0.7818608E-02  0.1027815E+00
         21   -1    0    0  501  502  0.00000000000E+00  0.00000000000E+00  0.32915561545E+03  0.32915561545E+03  0.00000000000E+00 0.  1.
         21   -1    0    0  502  503 -0.00000000000E+00 -0.00000000000E+00 -0.62147320388E+03  0.62147320388E+03  0.00000000000E+00 0.  1.
    9000007    1    1    2  501    0  0.18534659424E+03  0.88696155318E+02 -0.19700661543E+03  0.49095007332E+03  0.40000000000E+03 0.  1.
   -9000007    1    1    2    0  503 -0.18534659424E+03 -0.88696155318E+02 -0.95310972994E+02  0.45967874602E+03  0.40000000000E+03 0.  1.
<mgrwt>
<rscale>  2 0.44968919E+03</rscale>
<asrwt>0</asrwt>
<pdfrwt beam="1">  1       21 0.50639327E-01 0.44968919E+03</pdfrwt>
<pdfrwt beam="2">  1       21 0.95611260E-01 0.44968919E+03</pdfrwt>
<totfact> 0.29446045E+03</totfact>
</mgrwt>
</event>
<event>
 4    1  0.4897983E-002  0.4373874E+03  0.7818608E-02  0.1031551E+00
         21   -1    0    0  501  502  0.00000000000E+00  0.00000000000E+00  0.28322414076E+03  0.28322414076E+03  0.00000000000E+00 0. -1.
         21   -1    0    0  502  503 -0.00000000000E+00 -0.00000000000E+00 -0.70227380221E+03  0.70227380221E+03  0.00000000000E+00 0. -1.
    9000007    1    1    2  501    0 -0.88299592985E+02  0.15333266719E+03 -0.11324863990E+03  0.45181077830E+03  0.40000000000E+03 0. -1.
   -9000007    1    1    2    0  503  0.88299592985E+02 -0.15333266719E+03 -0.30580102155E+03  0.53368716467E+03  0.40000000000E+03 0. -1.
<mgrwt>
<rscale>  2 0.43738739E+03</rscale>
<asrwt>0</asrwt>
<pdfrwt beam="1">  1       21 0.43572945E-01 0.43738739E+03</pdfrwt>
<pdfrwt beam="2">  1       21 0.10804212E+00 0.43738739E+03</pdfrwt>
<totfact> 0.30132451E+03</totfact>
</mgrwt>
</event>
<event>
 4    1  0.4897983E-002  0.5430253E+03  0.7818608E-02  0.1003121E+00
         21   -1    0    0  501  502  0.00000000000E+00  0.00000000000E+00  0.37357193950E+03  0.37357193950E+03  0.00000000000E+00 0. -1.
         21   -1    0    0  502  503 -0.00000000000E+00 -0.00000000000E+00 -0.14052757897E+04  0.14052757897E+04  0.00000000000E+00 0. -1.
    9000007    1    1    2  501    0 -0.12308115667E+03 -0.34601663085E+03  0.72984379557E+02  0.54790802112E+03  0.40000000000E+03 0. -1.
   -9000007    1    1    2    0  503  0.12308115667E+03  0.34601663085E+03 -0.11046882297E+04  0.12309397081E+04  0.40000000000E+03 0. -1.
<mgrwt>
<rscale>  2 0.54302530E+03</rscale>
<asrwt>0</asrwt>
<pdfrwt beam="1">  1       21 0.57472607E-01 0.54302530E+03</pdfrwt>
<pdfrwt beam="2">  1       21 0.21619627E+00 0.54302530E+03</pdfrwt>
<totfact> 0.23294677E+02</totfact>
</mgrwt>
</event>
<event>
 4    1  0.4897983E-002  0.4865973E+03  0.7818608E-02  0.1017338E+00
         21   -1    0    0  503  502  0.00000000000E+00  0.00000000000E+00  0.14076218310E+04  0.14076218310E+04  0.00000000000E+00 0.  1.
         21   -1    0    0  501  503 -0.00000000000E+00 -0.00000000000E+00 -0.17870416699E+03  0.17870416699E+03  0.00000000000E+00 0. -1.
    9000007    1    1    2  501    0 -0.28869128270E+02 -0.27557840756E+03  0.80666046811E+03  0.94206050553E+03  0.40000000000E+03 0.  1.
   -9000007    1    1    2    0  502  0.28869128270E+02  0.27557840756E+03  0.42225719591E+03  0.64426549246E+03  0.40000000000E+03 0. -1.
<mgrwt>
<rscale>  2 0.48659725E+03</rscale>
<asrwt>0</asrwt>
<pdfrwt beam="1">  1       21 0.21655720E+00 0.48659725E+03</pdfrwt>
<pdfrwt beam="2">  1       21 0.27492950E-01 0.48659725E+03</pdfrwt>
<totfact> 0.10910960E+03</totfact>
</mgrwt>
</event>
<event>
 4    1  0.4897983E-002  0.4610980E+03  0.7818608E-02  0.1024463E+00
         21   -1    0    0  501  502  0.00000000000E+00  0.00000000000E+00  0.16400055299E+04  0.16400055299E+04  0.00000000000E+00 0. -1.
         21   -1    0    0  502  503 -0.00000000000E+00 -0.00000000000E+00 -0.21106780072E+03  0.21106780072E+03  0.00000000000E+00 0.  1.
    9000007    1    1    2  501    0 -0.59699625923E+02 -0.22146621593E+03  0.12893358139E+04  0.13693057259E+04  0.40000000000E+03 0. -1.
   -9000007    1    1    2    0  503  0.59699625923E+02  0.22146621593E+03  0.13960191526E+03  0.48176760464E+03  0.40000000000E+03 0.  1.
<mgrwt>
<rscale>  2 0.46109796E+03</rscale>
<asrwt>0</asrwt>
<pdfrwt beam="1">  1       21 0.25230853E+00 0.46109796E+03</pdfrwt>
<pdfrwt beam="2">  1       21 0.32471970E-01 0.46109796E+03</pdfrwt>
<totfact> 0.47318170E+02</totfact>
</mgrwt>
</event>
<event>
 4    1  0.4897983E-002  0.5218399E+03  0.7818608E-02  0.1008231E+00
         21   -1    0    0  501  502  0.00000000000E+00  0.00000000000E+00  0.17551632370E+03  0.17551632370E+03  0.00000000000E+00 0.  1.
         21   -1    0    0  502  503 -0.00000000000E+00 -0.00000000000E+00 -0.15580507585E+04  0.15580507585E+04  0.00000000000E+00 0.  1.
    9000007    1    1    2  501    0  0.19507114476E+03  0.27251439615E+03 -0.74739099869E+03  0.91154273216E+03  0.40000000000E+03 0.  1.
   -9000007    1    1    2    0  503 -0.19507114476E+03 -0.27251439615E+03 -0.63514343613E+03  0.82202435006E+03  0.40000000000E+03 0.  1.
<mgrwt>
<rscale>  2 0.52183987E+03</rscale>
<asrwt>0</asrwt>
<pdfrwt beam="1">  1       21 0.27002512E-01 0.52183987E+03</pdfrwt>
<pdfrwt beam="2">  1       21 0.23970011E+00 0.52183987E+03</pdfrwt>
<totfact> 0.79412961E+02</totfact>
</mgrwt>
</event>
<event>
 4    1  0.4897983E-002  0.4611442E+03  0.7818608E-02  0.1024450E+00
         21   -1    0    0  503  502  0.00000000000E+00  0.00000000000E+00  0.36972693053E+03  0.36972693053E+03  0.00000000000E+00 0.  1.
         21   -1    0    0  501  503 -0.00000000000E+00 -0.00000000000E+00 -0.13834789270E+04  0.13834789270E+04  0.00000000000E+00 0. -1.
    9000007    1    1    2  501    0 -0.15640055568E+03 -0.16790712158E+03 -0.11769252301E+04  0.12640438808E+04  0.40000000000E+03 0. -1.
   -9000007    1    1    2    0  502  0.15640055568E+03  0.16790712158E+03  0.16317323364E+03  0.48916197672E+03  0.40000000000E+03 0.  1.
<mgrwt>
<rscale>  2 0.46114416E+03</rscale>
<asrwt>0</asrwt>
<pdfrwt beam="1">  1       21 0.56881066E-01 0.46114416E+03</pdfrwt>
<pdfrwt beam="2">  1       21 0.21284291E+00 0.46114416E+03</pdfrwt>
<totfact> 0.26048683E+02</totfact>
</mgrwt>
</event>
<event>
 4    1  0.4897983E-002  0.4771163E+03  0.7818608E-02  0.1019931E+00
         21   -1    0    0  501  502  0.00000000000E+00  0.00000000000E+00  0.35470706066E+03  0.35470706066E+03  0.00000000000E+00 0. -1.
         21   -1    0    0  502  503 -0.00000000000E+00 -0.00000000000E+00 -0.70323077755E+03  0.70323077755E+03  0.00000000000E+00 0. -1.
    9000007    1    1    2  501    0 -0.24896343972E+03  0.75213845141E+02 -0.17880650696E+02  0.47745118545E+03  0.40000000000E+03 0. -1.
   -9000007    1    1    2    0  503  0.24896343972E+03 -0.75213845141E+02 -0.33064306620E+03  0.58048665277E+03  0.40000000000E+03 0. -1.
<mgrwt>
<rscale>  2 0.47711625E+03</rscale>
<asrwt>0</asrwt>
<pdfrwt beam="1">  1       21 0.54570318E-01 0.47711625E+03</pdfrwt>
<pdfrwt beam="2">  1       21 0.10818935E+00 0.47711625E+03</pdfrwt>
<totfact> 0.18364923E+03</totfact>
</mgrwt>
</event>
<event>
 4    1  0.4897983E-002  0.4078529E+03  0.7818608E-02  0.1041094E+00
         21   -1    0    0  503  502  0.00000000000E+00  0.00000000000E+00  0.93349973083E+03  0.93349973083E+03  0.00000000000E+00 0.  1.
         21   -1    0    0  501  503 -0.00000000000E+00 -0.00000000000E+00 -0.19044561470E+03  0.19044561470E+03  0.00000000000E+00 0.  1.
    9000007    1    1    2  501    0 -0.75366011911E+02  0.25767593884E+02  0.22899017586E+03  0.46773978373E+03  0.40000000000E+03 0.  1.
   -9000007    1    1    2    0  502  0.75366011911E+02 -0.25767593884E+02  0.51406394027E+03  0.65620556180E+03  0.40000000000E+03 0.  1.
<mgrwt>
<rscale>  2 0.40785292E+03</rscale>
<asrwt>0</asrwt>
<pdfrwt beam="1">  1       21 0.14361534E+00 0.40785292E+03</pdfrwt>
<pdfrwt beam="2">  1       21 0.29299326E-01 0.40785292E+03</pdfrwt>
<totfact> 0.32865836E+03</totfact>
</mgrwt>
</event>
<event>
 4    1  0.4897983E-002  0.4028055E+03  0.7818608E-02  0.1042813E+00
         21   -1    0    0  501  502  0.00000000000E+00  0.00000000000E+00  0.35064095760E+03  0.35064095760E+03  0.00000000000E+00 0.  1.
         21   -1    0    0  502  503 -0.00000000000E+00 -0.00000000000E+00 -0.46699709498E+03  0.46699709498E+03  0.00000000000E+00 0.  1.
    9000007    1    1    2  501    0  0.18298656407E+02  0.43788484410E+02 -0.19101738840E+02  0.40325816622E+03  0.40000000000E+03 0.  1.
   -9000007    1    1    2    0  503 -0.18298656407E+02 -0.43788484410E+02 -0.97254398542E+02  0.41437988637E+03  0.40000000000E+03 0.  1.
<mgrwt>
<rscale>  2 0.40280550E+03</rscale>
<asrwt>0</asrwt>
<pdfrwt beam="1">  1       21 0.53944763E-01 0.40280550E+03</pdfrwt>
<pdfrwt beam="2">  1       21 0.71845707E-01 0.40280550E+03</pdfrwt>
<totfact> 0.50848394E+03</totfact>
</mgrwt>
</event>
<event>
 4    1  0.4897983E-002  0.4468037E+03  0.7818608E-02  0.1028680E+00
         21   -1    0    0  503  502  0.00000000000E+00  0.00000000000E+00  0.64395088254E+03  0.64395088254E+03  0.00000000000E+00 0. -1.
         21   -1    0    0  501  503 -0.00000000000E+00 -0.00000000000E+00 -0.34589858927E+03  0.34589858927E+03  0.00000000000E+00 0. -1.
    9000007    1    1    2  501    0  0.19670009524E+03  0.30702756521E+02 -0.10385722633E+02  0.44692443428E+03  0.40000000000E+03 0. -1.
   -9000007    1    1    2    0  502 -0.19670009524E+03 -0.30702756521E+02  0.30843801589E+03  0.54292503753E+03  0.40000000000E+03 0. -1.
<mgrwt>
<rscale>  2 0.44680375E+03</rscale>
<asrwt>0</asrwt>
<pdfrwt beam="1">  1       21 0.99069366E-01 0.44680375E+03</pdfrwt>
<pdfrwt beam="2">  1       21 0.53215168E-01 0.44680375E+03</pdfrwt>
<totfact> 0.24333497E+03</totfact>
</mgrwt>
</event>
<event>
 4    1  0.4897983E-002  0.5763990E+03  0.7818608E-02  0.9955618E-01
         21   -1    0    0  501  502  0.00000000000E+00  0.00000000000E+00  0.33823837207E+03  0.33823837207E+03  0.00000000000E+00 0. -1.
         21   -1    0    0  502  503 -0.00000000000E+00 -0.00000000000E+00 -0.98563992484E+03  0.98563992484E+03  0.00000000000E+00 0.  1.
    9000007    1    1    2  501    0 -0.23962687117E+03 -0.33884321191E+03 -0.36250169394E+03  0.68091353178E+03  0.40000000000E+03 0. -1.
   -9000007    1    1    2    0  503  0.23962687117E+03  0.33884321191E+03 -0.28489985882E+03  0.64296476514E+03  0.40000000000E+03 0.  1.
<mgrwt>
<rscale>  2 0.57639896E+03</rscale>
<asrwt>0</asrwt>
<pdfrwt beam="1">  1       21 0.52036674E-01 0.57639896E+03</pdfrwt>
<pdfrwt beam="2">  1       21 0.15163691E+00 0.57639896E+03</pdfrwt>
<totfact> 0.81657810E+02</totfact>
</mgrwt>
</event>
<event>
 4    1  0.4897983E-002  0.4247615E+03  0.7818608E-02  0.1035528E+00
         21   -1    0    0  503  502  0.00000000000E+00  0.00000000000E+00  0.19896906129E+04  0.19896906129E+04  0.00000000000E+00 0. -1.
         21   -1    0    0  501  503 -0.00000000000E+00 -0.00000000000E+00 -0.29336679653E+03  0.29336679653E+03  0.00000000000E+00 0. -1.
    9000007    1    1    2  501    0  0.94794940813E+02 -0.10694047944E+03 -0.10068379061E+03  0.43653129629E+03  0.40000000000E+03 0. -1.
   -9000007    1    1    2    0  502 -0.94794940813E+02  0.10694047944E+03  0.17970076070E+04  0.18465261132E+04  0.40000000000E+03 0. -1.
<mgrwt>
<rscale>  2 0.42476152E+03</rscale>
<asrwt>0</asrwt>
<pdfrwt beam="1">  1       21 0.30610624E+00 0.42476152E+03</pdfrwt>
<pdfrwt beam="2">  1       21 0.45133355E-01 0.42476152E+03</pdfrwt>
<totfact> 0.11660822E+02</totfact>
</mgrwt>
</event>
<event>
 4    1  0.4897983E-002  0.4069273E+03  0.7818608E-02  0.1041407E+00
         21   -1    0    0  503  502  0.00000000000E+00  0.00000000000E+00  0.24312234983E+03  0.24312234983E+03  0.00000000000E+00 0. -1.
         21   -1    0    0  501  503 -0.00000000000E+00 -0.00000000000E+00 -0.68219808819E+03  0.68219808819E+03  0.00000000000E+00 0. -1.
    9000007    1    1    2  501    0  0.26892872895E+02 -0.69761318427E+02 -0.23812645292E+03  0.47148072680E+03  0.40000000000E+03 0. -1.
   -9000007    1    1    2    0  502 -0.26892872895E+02  0.69761318427E+02 -0.20094928544E+03  0.45383971122E+03  0.40000000000E+03 0. -1.
<mgrwt>
<rscale>  2 0.40692735E+03</rscale>
<asrwt>0</asrwt>
<pdfrwt beam="1">  1       21 0.37403439E-01 0.40692735E+03</pdfrwt>
<pdfrwt beam="2">  1       21 0.10495355E+00 0.40692735E+03</pdfrwt>
<totfact> 0.44831429E+03</totfact>
</mgrwt>
</event>
<event>
 4    1  0.4897983E-002  0.5465632E+03  0.7818608E-02  0.1002293E+00
         21   -1    0    0  501  502  0.00000000000E+00  0.00000000000E+00  0.79964101317E+03  0.79964101317E+03  0.00000000000E+00 0.  1.
         21   -1    0    0  502  503 -0.00000000000E+00 -0.00000000000E+00 -0.41951807345E+03  0.41951807345E+03  0.00000000000E+00 0.  1.
    9000007    1    1    2  501    0 -0.30160194323E+02  0.37124347574E+03  0.39177395022E+03  0.67247169730E+03  0.40000000000E+03 0.  1.
   -9000007    1    1    2    0  503  0.30160194323E+02 -0.37124347574E+03 -0.11651010505E+02  0.54668738932E+03  0.40000000000E+03 0.  1.
<mgrwt>
<rscale>  2 0.54656322E+03</rscale>
<asrwt>0</asrwt>
<pdfrwt beam="1">  1       21 0.12302169E+00 0.54656322E+03</pdfrwt>
<pdfrwt beam="2">  1       21 0.64541242E-01 0.54656322E+03</pdfrwt>
<totfact> 0.89724917E+02</totfact>
</mgrwt>
</event>
<event>
 4    1  0.4897983E-002  0.4368050E+03  0.7818608E-02  0.1031732E+00
         21   -1    0    0  503  502  0.00000000000E+00  0.00000000000E+00  0.45352072455E+03  0.45352072455E+03  0.00000000000E+00 0.  1.
         21   -1    0    0  501  503 -0.00000000000E+00 -0.00000000000E+00 -0.53497526916E+03  0.53497526916E+03  0.00000000000E+00 0.  1.
    9000007    1    1    2  501    0  0.14990499061E+03  0.91252981863E+02 -0.26915243903E+03  0.51307080247E+03  0.40000000000E+03 0.  1.
   -9000007    1    1    2    0  502 -0.14990499061E+03 -0.91252981863E+02  0.18769789442E+03  0.47542519125E+03  0.40000000000E+03 0.  1.
<mgrwt>
<rscale>  2 0.43680501E+03</rscale>
<asrwt>0</asrwt>
<pdfrwt beam="1">  1       21 0.69772419E-01 0.43680501E+03</pdfrwt>
<pdfrwt beam="2">  1       21 0.82303888E-01 0.43680501E+03</pdfrwt>
<totfact> 0.20901781E+03</totfact>
</mgrwt>
</event>
<event>
 4    1  0.4897983E-002  0.4624380E+03  0.7818608E-02  0.1024076E+00
         21   -1    0    0  503  502  0.00000000000E+00  0.00000000000E+00  0.45108800973E+03  0.45108800973E+03  0.00000000000E+00 0. -1.
         21   -1    0    0  501  503 -0.00000000000E+00 -0.00000000000E+00 -0.56864919337E+03  0.56864919337E+03  0.00000000000E+00 0. -1.
    9000007    1    1    2  501    0  0.20325759416E+03 -0.11196104660E+03 -0.26671461040E+03  0.53384043397E+03  0.40000000000E+03 0. -1.
   -9000007    1    1    2    0  502 -0.20325759416E+03  0.11196104660E+03  0.14915342676E+03  0.48589676913E+03  0.40000000000E+03 0. -1.
<mgrwt>
<rscale>  2 0.46243802E+03</rscale>
<asrwt>0</asrwt>
<pdfrwt beam="1">  1       21 0.69398156E-01 0.46243802E+03</pdfrwt>
<pdfrwt beam="2">  1       21 0.87484491E-01 0.46243802E+03</pdfrwt>
<totfact> 0.18164860E+03</totfact>
</mgrwt>
</event>
<event>
 4    1  0.4897983E-002  0.4455455E+03  0.7818608E-02  0.1029059E+00
         21   -1    0    0  503  502  0.00000000000E+00  0.00000000000E+00  0.17448473460E+04  0.17448473460E+04  0.00000000000E+00 0.  1.
         21   -1    0    0  501  503 -0.00000000000E+00 -0.00000000000E+00 -0.11377521720E+03  0.11377521720E+03  0.00000000000E+00 0.  1.
    9000007    1    1    2  501    0  0.68961415259E+01 -0.19612037837E+03  0.82200728364E+03  0.93499023200E+03  0.40000000000E+03 0.  1.
   -9000007    1    1    2    0  502 -0.68961415259E+01  0.19612037837E+03  0.80906484517E+03  0.92363233121E+03  0.40000000000E+03 0.  1.
<mgrwt>
<rscale>  2 0.44554546E+03</rscale>
<asrwt>0</asrwt>
<pdfrwt beam="1">  1       21 0.26843803E+00 0.44554546E+03</pdfrwt>
<pdfrwt beam="2">  1       21 0.17503881E-01 0.44554546E+03</pdfrwt>
<totfact> 0.12607023E+03</totfact>
</mgrwt>
</event>
<event>
 4    1  0.4897983E-002  0.4169089E+03  0.7818608E-02  0.1038077E+00
         21   -1    0    0  501  502  0.00000000000E+00  0.00000000000E+00  0.78961888197E+02  0.78961888197E+02  0.00000000000E+00 0.  1.
         21   -1    0    0  502  503 -0.00000000000E+00 -0.00000000000E+00 -0.22063265379E+04  0.22063265379E+04  0.00000000000E+00 0.  1.
    9000007    1    1    2  501    0 -0.43555135142E+02  0.10916018872E+03 -0.10087453059E+04  0.10915035908E+04  0.40000000000E+03 0.  1.
   -9000007    1    1    2    0  503  0.43555135142E+02 -0.10916018872E+03 -0.11186193438E+04  0.11937848352E+04  0.40000000000E+03 0.  1.
<mgrwt>
<rscale>  2 0.41690886E+03</rscale>
<asrwt>0</asrwt>
<pdfrwt beam="1">  1       21 0.12147984E-01 0.41690886E+03</pdfrwt>
<pdfrwt beam="2">  1       21 0.33943482E+00 0.41690886E+03</pdfrwt>
<totfact> 0.94036310E+02</totfact>
</mgrwt>
</event>
<event>
 4    1  0.4897983E-002  0.4068027E+03  0.7818608E-02  0.1041449E+00
         21   -1    0    0  501  502  0.00000000000E+00  0.00000000000E+00  0.10198331264E+03  0.10198331264E+03  0.00000000000E+00 0. -1.
         21   -1    0    0  502  503 -0.00000000000E+00 -0.00000000000E+00 -0.25662782330E+04  0.25662782330E+04  0.00000000000E+00 0. -1.
    9000007    1    1    2  501    0  0.15251864619E+02  0.72496746866E+02 -0.42317205859E+03  0.58699487975E+03  0.40000000000E+03 0. -1.
   -9000007    1    1    2    0  503 -0.15251864619E+02 -0.72496746866E+02 -0.20411228617E+04  0.20812666659E+04  0.40000000000E+03 0. -1.
<mgrwt>
<rscale>  2 0.40680265E+03</rscale>
<asrwt>0</asrwt>
<pdfrwt beam="1">  1       21 0.15689741E-01 0.40680265E+03</pdfrwt>
<pdfrwt beam="2">  1       21 0.39481202E+00 0.40680265E+03</pdfrwt>
<totfact> 0.26804873E+02</totfact>
</mgrwt>
</event>
<event>
 4    1  0.4897983E-002  0.4738863E+03  0.7818608E-02  0.1020829E+00
         21   -1    0    0  501  502  0.00000000000E+00  0.00000000000E+00  0.26863338780E+03  0.26863338780E+03  0.00000000000E+00 0.  1.
         21   -1    0    0  502  503 -0.00000000000E+00 -0.00000000000E+00 -0.87392301554E+03  0.87392301554E+03  0.00000000000E+00 0.  1.
    9000007    1    1    2  501    0 -0.11940900662E+03 -0.22429823401E+03 -0.18358622958E+03  0.50820479369E+03  0.40000000000E+03 0.  1.
   -9000007    1    1    2    0  503  0.11940900662E+03  0.22429823401E+03 -0.42170339816E+03  0.63435160965E+03  0.40000000000E+03 0.  1.
<mgrwt>
<rscale>  2 0.47388628E+03</rscale>
<asrwt>0</asrwt>
<pdfrwt beam="1">  1       21 0.41328213E-01 0.47388628E+03</pdfrwt>
<pdfrwt beam="2">  1       21 0.13444970E+00 0.47388628E+03</pdfrwt>
<totfact> 0.19026893E+03</totfact>
</mgrwt>
</event>
<event>
 4    1  0.4897983E-002  0.4327045E+03  0.7818608E-02  0.1033009E+00
         21   -1    0    0  501  502  0.00000000000E+00  0.00000000000E+00  0.54206197700E+03  0.54206197700E+03  0.00000000000E+00 0. -1.
         21   -1    0    0  502  503 -0.00000000000E+00 -0.00000000000E+00 -0.10125313108E+04  0.10125313108E+04  0.00000000000E+00 0. -1.
    9000007    1    1    2  501    0 -0.86750270288E+02  0.14038379150E+03  0.39570119693E+03  0.58635540039E+03  0.40000000000E+03 0. -1.
   -9000007    1    1    2    0  503  0.86750270288E+02 -0.14038379150E+03 -0.86617053077E+03  0.96823788745E+03  0.40000000000E+03 0. -1.
<mgrwt>
<rscale>  2 0.43270454E+03</rscale>
<asrwt>0</asrwt>
<pdfrwt beam="1">  1       21 0.83394150E-01 0.43270454E+03</pdfrwt>
<pdfrwt beam="2">  1       21 0.15577405E+00 0.43270454E+03</pdfrwt>
<totfact> 0.28061389E+02</totfact>
</mgrwt>
</event>
<event>
 4    1  0.4897983E-002  0.5037059E+03  0.7818608E-02  0.1012816E+00
         21   -1    0    0  503  502  0.00000000000E+00  0.00000000000E+00  0.24442167844E+03  0.24442167844E+03  0.00000000000E+00 0. -1.
         21   -1    0    0  501  503 -0.00000000000E+00 -0.00000000000E+00 -0.12179432512E+04  0.12179432512E+04  0.00000000000E+00 0.  1.
    9000007    1    1    2  501    0 -0.30124553784E+03 -0.54504508845E+02 -0.76777680285E+03  0.91825967708E+03  0.40000000000E+03 0. -1.
   -9000007    1    1    2    0  502  0.30124553784E+03  0.54504508845E+02 -0.20574476995E+03  0.54410525261E+03  0.40000000000E+03 0. -1.
<mgrwt>
<rscale>  2 0.50370588E+03</rscale>
<asrwt>0</asrwt>
<pdfrwt beam="1">  1       21 0.37603336E-01 0.50370588E+03</pdfrwt>
<pdfrwt beam="2">  1       21 0.18737588E+00 0.50370588E+03</pdfrwt>
<totfact> 0.90462548E+02</totfact>
</mgrwt>
</event>
<event>
 4    1  0.4897983E-002  0.7117619E+03  0.7818608E-02  0.9697327E-01
         21   -1    0    0  501  502  0.00000000000E+00  0.00000000000E+00  0.22098908481E+04  0.22098908481E+04  0.00000000000E+00 0. -1.
         21   -1    0    0  502  503 -0.00000000000E+00 -0.00000000000E+00 -0.26049979519E+03  0.26049979519E+03  0.00000000000E+00 0.  1.
    9000007    1    1    2  501    0 -0.14732091186E+03 -0.57000134116E+03  0.14025487657E+04  0.15728153166E+04  0.40000000000E+03 0.  1.
   -9000007    1    1    2    0  503  0.14732091186E+03  0.57000134116E+03  0.54684228721E+03  0.89757532668E+03  0.40000000000E+03 0. -1.
<mgrwt>
<rscale>  2 0.71176188E+03</rscale>
<asrwt>0</asrwt>
<pdfrwt beam="1">  1       21 0.33998319E+00 0.71176188E+03</pdfrwt>
<pdfrwt beam="2">  1       21 0.40076893E-01 0.71176188E+03</pdfrwt>
<totfact> 0.79895476E+01</totfact>
</mgrwt>
</event>
<event>
 4    1  0.4897983E-002  0.4056004E+03  0.7818608E-02  0.1041858E+00
         21   -1    0    0  503  502  0.00000000000E+00  0.00000000000E+00  0.75413423044E+03  0.75413423044E+03  0.00000000000E+00 0. -1.
         21   -1    0    0  501  503 -0.00000000000E+00 -0.00000000000E+00 -0.45994557642E+03  0.45994557642E+03  0.00000000000E+00 0. -1.
    9000007    1    1    2  501    0 -0.49823678392E+01  0.66983867413E+02 -0.29304627340E+03  0.50038763058E+03  0.40000000000E+03 0. -1.
   -9000007    1    1    2    0  502  0.49823678392E+01 -0.66983867413E+02  0.58723492743E+03  0.71369217627E+03  0.40000000000E+03 0. -1.
<mgrwt>
<rscale>  2 0.40560037E+03</rscale>
<asrwt>0</asrwt>
<pdfrwt beam="1">  1       21 0.11602065E+00 0.40560037E+03</pdfrwt>
<pdfrwt beam="2">  1       21 0.70760858E-01 0.40560037E+03</pdfrwt>
<totfact> 0.89653623E+02</totfact>
</mgrwt>
</event>
<event>
 4    1  0.4897983E-002  0.6392053E+03  0.7818608E-02  0.9827248E-01
         21   -1    0    0  501  502  0.00000000000E+00  0.00000000000E+00  0.24174016511E+04  0.24174016511E+04  0.00000000000E+00 0.  1.
         21   -1    0    0  502  503 -0.00000000000E+00 -0.00000000000E+00 -0.18010965363E+03  0.18010965363E+03  0.00000000000E+00 0.  1.
    9000007    1    1    2  501    0  0.48951998474E+03 -0.94623557080E+02  0.14409493886E+04  0.15763624499E+04  0.40000000000E+03 0.  1.
   -9000007    1    1    2    0  503 -0.48951998474E+03  0.94623557080E+02  0.79634260894E+03  0.10211488549E+04  0.40000000000E+03 0.  1.
<mgrwt>
<rscale>  2 0.63920531E+03</rscale>
<asrwt>0</asrwt>
<pdfrwt beam="1">  1       21 0.37190792E+00 0.63920531E+03</pdfrwt>
<pdfrwt beam="2">  1       21 0.27709179E-01 0.63920531E+03</pdfrwt>
<totfact> 0.11007546E+02</totfact>
</mgrwt>
</event>
<event>
 4    1  0.4897983E-002  0.4117866E+03  0.7818608E-02  0.1039773E+00
         21   -1    0    0  503  502  0.00000000000E+00  0.00000000000E+00  0.17726946843E+03  0.17726946843E+03  0.00000000000E+00 0. -1.
         21   -1    0    0  501  503 -0.00000000000E+00 -0.00000000000E+00 -0.10021682512E+04  0.10021682512E+04  0.00000000000E+00 0. -1.
    9000007    1    1    2  501    0  0.96663564743E+02  0.14979463594E+02 -0.53825904369E+03  0.67771013508E+03  0.40000000000E+03 0.  1.
   -9000007    1    1    2    0  502 -0.96663564743E+02 -0.14979463594E+02 -0.28663973907E+03  0.50172758454E+03  0.40000000000E+03 0.  1.
<mgrwt>
<rscale>  2 0.41178663E+03</rscale>
<asrwt>0</asrwt>
<pdfrwt beam="1">  1       21 0.27272226E-01 0.41178663E+03</pdfrwt>
<pdfrwt beam="2">  1       21 0.15417973E+00 0.41178663E+03</pdfrwt>
<totfact> 0.31197817E+03</totfact>
</mgrwt>
</event>
<event>
 4    1  0.4897983E-002  0.4745730E+03  0.7818608E-02  0.1020637E+00
         21   -1    0    0  503  502  0.00000000000E+00  0.00000000000E+00  0.19580334915E+03  0.19580334915E+03  0.00000000000E+00 0.  1.
         21   -1    0    0  501  503 -0.00000000000E+00 -0.00000000000E+00 -0.23483821410E+04  0.23483821410E+04  0.00000000000E+00 0.  1.
    9000007    1    1    2  501    0  0.11333313012E+02  0.25512961523E+03 -0.19849249944E+04  0.20408691281E+04  0.40000000000E+03 0.  1.
   -9000007    1    1    2    0  502 -0.11333313012E+02 -0.25512961523E+03 -0.16765379748E+03  0.50331636210E+03  0.40000000000E+03 0.  1.
<mgrwt>
<rscale>  2 0.47457303E+03</rscale>
<asrwt>0</asrwt>
<pdfrwt beam="1">  1       21 0.30123592E-01 0.47457303E+03</pdfrwt>
<pdfrwt beam="2">  1       21 0.36128956E+00 0.47457303E+03</pdfrwt>
<totfact> 0.11878133E+02</totfact>
</mgrwt>
</event>
<event>
 4    1  0.4897983E-002  0.4105988E+03  0.7818608E-02  0.1040170E+00
         21   -1    0    0  503  502  0.00000000000E+00  0.00000000000E+00  0.77520171890E+03  0.77520171890E+03  0.00000000000E+00 0.  1.
         21   -1    0    0  501  503 -0.00000000000E+00 -0.00000000000E+00 -0.28733698007E+03  0.28733698007E+03  0.00000000000E+00 0.  1.
    9000007    1    1    2  501    0 -0.92075905102E+02 -0.10649651910E+02 -0.18019696291E+02  0.41099403504E+03  0.40000000000E+03 0.  1.
   -9000007    1    1    2    0  502  0.92075905102E+02  0.10649651910E+02  0.50588443512E+03  0.65154466392E+03  0.40000000000E+03 0.  1.
<mgrwt>
<rscale>  2 0.41059882E+03</rscale>
<asrwt>0</asrwt>
<pdfrwt beam="1">  1       21 0.11926180E+00 0.41059882E+03</pdfrwt>
<pdfrwt beam="2">  1       21 0.44205690E-01 0.41059882E+03</pdfrwt>
<totfact> 0.23095828E+03</totfact>
</mgrwt>
</event>
<event>
 4    1  0.4897983E-002  0.4634061E+03  0.7818608E-02  0.1023798E+00
         21   -1    0    0  501  502  0.00000000000E+00  0.00000000000E+00  0.11387576856E+04  0.11387576856E+04  0.00000000000E+00 0. -1.
         21   -1    0    0  502  503 -0.00000000000E+00 -0.00000000000E+00 -0.57056804806E+03  0.57056804806E+03  0.00000000000E+00 0. -1.
    9000007    1    1    2  501    0 -0.15473991346E+03 -0.17550140171E+03  0.98340019681E+03  0.10871159689E+04  0.40000000000E+03 0. -1.
   -9000007    1    1    2    0  503  0.15473991346E+03  0.17550140171E+03 -0.41521055925E+03  0.62220976474E+03  0.40000000000E+03 0. -1.
<mgrwt>
<rscale>  2 0.46340607E+03</rscale>
<asrwt>0</asrwt>
<pdfrwt beam="1">  1       21 0.17519349E+00 0.46340607E+03</pdfrwt>
<pdfrwt beam="2">  1       21 0.87779699E-01 0.46340607E+03</pdfrwt>
<totfact> 0.17589121E+02</totfact>
</mgrwt>
</event>
<event>
 4    1  0.4897983E-002  0.4296213E+03  0.7818608E-02  0.1033980E+00
         21   -1    0    0  503  502  0.00000000000E+00  0.00000000000E+00  0.13144697671E+04  0.13144697671E+04  0.00000000000E+00 0.  1.
         21   -1    0    0  501  503 -0.00000000000E+00 -0.00000000000E+00 -0.14434385960E+03  0.14434385960E+03  0.00000000000E+00 0.  1.
    9000007    1    1    2  501    0  0.13037898282E+02  0.15621933850E+03  0.46476188596E+03  0.63291237873E+03  0.40000000000E+03 0.  1.
   -9000007    1    1    2    0  502 -0.13037898282E+02 -0.15621933850E+03  0.70536402151E+03  0.82590124794E+03  0.40000000000E+03 0.  1.
<mgrwt>
<rscale>  2 0.42962131E+03</rscale>
<asrwt>0</asrwt>
<pdfrwt beam="1">  1       21 0.20222611E+00 0.42962131E+03</pdfrwt>
<pdfrwt beam="2">  1       21 0.22206749E-01 0.42962131E+03</pdfrwt>
<totfact> 0.21025366E+03</totfact>
</mgrwt>
</event>
<event>
 4    1  0.4897983E-002  0.4529707E+03  0.7818608E-02  0.1026840E+00
         21   -1    0    0  503  502  0.00000000000E+00  0.00000000000E+00  0.36142239064E+03  0.36142239064E+03  0.00000000000E+00 0. -1.
         21   -1    0    0  501  503 -0.00000000000E+00 -0.00000000000E+00 -0.11808608729E+04  0.11808608729E+04  0.00000000000E+00 0. -1.
    9000007    1    1    2  501    0  0.20995402161E+03  0.33192461015E+02 -0.96539201758E+03  0.10663790031E+04  0.40000000000E+03 0. -1.
   -9000007    1    1    2    0  502 -0.20995402161E+03 -0.33192461015E+02  0.14595353530E+03  0.47590426046E+03  0.40000000000E+03 0. -1.
<mgrwt>
<rscale>  2 0.45297067E+03</rscale>
<asrwt>0</asrwt>
<pdfrwt beam="1">  1       21 0.55603445E-01 0.45297067E+03</pdfrwt>
<pdfrwt beam="2">  1       21 0.18167090E+00 0.45297067E+03</pdfrwt>
<totfact> 0.44534391E+02</totfact>
</mgrwt>
</event>
<event>
 4    1  0.4897983E-002  0.4323608E+03  0.7818608E-02  0.1033117E+00
         21   -1    0    0  501  502  0.00000000000E+00  0.00000000000E+00  0.10405072860E+04  0.10405072860E+04  0.00000000000E+00 0. -1.
         21   -1    0    0  502  503 -0.00000000000E+00 -0.00000000000E+00 -0.17967302241E+03  0.17967302241E+03  0.00000000000E+00 0. -1.
    9000007    1    1    2  501    0  0.66051249422E+02  0.15024347408E+03  0.42491240864E+03  0.60620658530E+03  0.40000000000E+03 0. -1.
   -9000007    1    1    2    0  503 -0.66051249422E+02 -0.15024347408E+03  0.43592185498E+03  0.61397372314E+03  0.40000000000E+03 0. -1.
<mgrwt>
<rscale>  2 0.43236081E+03</rscale>
<asrwt>0</asrwt>
<pdfrwt beam="1">  1       21 0.16007804E+00 0.43236081E+03</pdfrwt>
<pdfrwt beam="2">  1       21 0.27642004E-01 0.43236081E+03</pdfrwt>
<totfact> 0.27163997E+03</totfact>
</mgrwt>
</event>
<event>
 4    1  0.4897983E-002  0.4982536E+03  0.7818608E-02  0.1014236E+00
         21   -1    0    0  503  502  0.00000000000E+00  0.00000000000E+00  0.12339030799E+04  0.12339030799E+04  0.00000000000E+00 0. -1.
         21   -1    0    0  501  503 -0.00000000000E+00 -0.00000000000E+00 -0.64364656393E+03  0.64364656393E+03  0.00000000000E+00 0. -1.
    9000007    1    1    2  501    0  0.27628248581E+03  0.10920016130E+03 -0.48321282378E+03  0.69408307879E+03  0.40000000000E+03 0. -1.
   -9000007    1    1    2    0  502 -0.27628248581E+03 -0.10920016130E+03  0.10734693397E+04  0.11834665650E+04  0.40000000000E+03 0. -1.
<mgrwt>
<rscale>  2 0.49825364E+03</rscale>
<asrwt>0</asrwt>
<pdfrwt beam="1">  1       21 0.18983124E+00 0.49825364E+03</pdfrwt>
<pdfrwt beam="2">  1       21 0.99022549E-01 0.49825364E+03</pdfrwt>
<totfact> 0.10223331E+02</totfact>
</mgrwt>
</event>
<event>
 4    1  0.4897983E-002  0.4167470E+03  0.7818608E-02  0.1038130E+00
         21   -1    0    0  501  502  0.00000000000E+00  0.00000000000E+00  0.13579028045E+04  0.13579028045E+04  0.00000000000E+00 0. -1.
         21   -1    0    0  502  503 -0.00000000000E+00 -0.00000000000E+00 -0.42144998263E+03  0.42144998263E+03  0.00000000000E+00 0. -1.
    9000007    1    1    2  501    0  0.86471956633E+02 -0.78744317758E+02  0.12107304573E+04  0.12804476979E+04  0.40000000000E+03 0. -1.
   -9000007    1    1    2    0  503 -0.86471956633E+02  0.78744317758E+02 -0.27427763535E+03  0.49890508929E+03  0.40000000000E+03 0. -1.
<mgrwt>
<rscale>  2 0.41674701E+03</rscale>
<asrwt>0</asrwt>
<pdfrwt beam="1">  1       21 0.20890812E+00 0.41674701E+03</pdfrwt>
<pdfrwt beam="2">  1       21 0.64838460E-01 0.41674701E+03</pdfrwt>
<totfact> 0.21239381E+02</totfact>
</mgrwt>
</event>
<event>
 4    1  0.4897983E-002  0.4207891E+03  0.7818608E-02  0.1036810E+00
         21   -1    0    0  503  502  0.00000000000E+00  0.00000000000E+00  0.11716531217E+04  0.11716531217E+04  0.00000000000E+00 0.  1.
         21   -1    0    0  501  503 -0.00000000000E+00 -0.00000000000E+00 -0.45602158833E+03  0.45602158833E+03  0.00000000000E+00 0.  1.
    9000007    1    1    2  501    0 -0.11295440569E+03 -0.65610746628E+02 -0.30764550804E+03  0.52125735147E+03  0.40000000000E+03 0.  1.
   -9000007    1    1    2    0  502  0.11295440569E+03  0.65610746628E+02  0.10232770414E+04  0.11064173586E+04  0.40000000000E+03 0.  1.
<mgrwt>
<rscale>  2 0.42078910E+03</rscale>
<asrwt>0</asrwt>
<pdfrwt beam="1">  1       21 0.18025432E+00 0.42078910E+03</pdfrwt>
<pdfrwt beam="2">  1       21 0.70157168E-01 0.42078910E+03</pdfrwt>
<totfact> 0.27738523E+02</totfact>
</mgrwt>
</event>
<event>
 4    1  0.4897983E-002  0.4434914E+03  0.7818608E-02  0.1029681E+00
         21   -1    0    0  501  502  0.00000000000E+00  0.00000000000E+00  0.74845760264E+03  0.74845760264E+03  0.00000000000E+00 0. -1.
         21   -1    0    0  502  503 -0.00000000000E+00 -0.00000000000E+00 -0.33140132525E+03  0.33140132525E+03  0.00000000000E+00 0. -1.
    9000007    1    1    2  501    0  0.11988035452E+03  0.14937638836E+03  0.45420749882E+03  0.63481419076E+03  0.40000000000E+03 0. -1.
   -9000007    1    1    2    0  503 -0.11988035452E+03 -0.14937638836E+03 -0.37151221432E+02  0.44504473714E+03  0.40000000000E+03 0. -1.
<mgrwt>
<rscale>  2 0.44349138E+03</rscale>
<asrwt>0</asrwt>
<pdfrwt beam="1">  1       21 0.11514732E+00 0.44349138E+03</pdfrwt>
<pdfrwt beam="2">  1       21 0.50984819E-01 0.44349138E+03</pdfrwt>
<totfact> 0.18426625E+03</totfact>
</mgrwt>
</event>
<event>
 4    1  0.4897983E-002  0.4612443E+03  0.7818608E-02  0.1024421E+00
         21   -1    0    0  501  502  0.00000000000E+00  0.00000000000E+00  0.34083573284E+03  0.34083573284E+03  0.00000000000E+00 0.  1.
         21   -1    0    0  502  503 -0.00000000000E+00 -0.00000000000E+00 -0.67535928274E+03  0.67535928274E+03  0.00000000000E+00 0.  1.
    9000007    1    1    2  501    0  0.14153947728E+03 -0.18086713251E+03 -0.27405097271E+02  0.46205776977E+03  0.40000000000E+03 0.  1.
   -9000007    1    1    2    0  503 -0.14153947728E+03  0.18086713251E+03 -0.30711845263E+03  0.55413724581E+03  0.40000000000E+03 0.  1.
<mgrwt>
<rscale>  2 0.46124434E+03</rscale>
<asrwt>0</asrwt>
<pdfrwt beam="1">  1       21 0.52436267E-01 0.46124434E+03</pdfrwt>
<pdfrwt beam="2">  1       21 0.10390143E+00 0.46124434E+03</pdfrwt>
<totfact> 0.22239294E+03</totfact>
</mgrwt>
</event>
<event>
 4    1  0.4897983E-002  0.4173045E+03  0.7818608E-02  0.1037947E+00
         21   -1    0    0  501  502  0.00000000000E+00  0.00000000000E+00  0.54668813230E+03  0.54668813230E+03  0.00000000000E+00 0.  1.
         21   -1    0    0  502  503 -0.00000000000E+00 -0.00000000000E+00 -0.37739796972E+03  0.37739796972E+03  0.00000000000E+00 0. -1.
    9000007    1    1    2  501    0 -0.11892365498E+03  0.45638630624E+00  0.26710963551E+03  0.49547008122E+03  0.40000000000E+03 0.  1.
   -9000007    1    1    2    0  503  0.11892365498E+03 -0.45638630624E+00 -0.97819472931E+02  0.42861602080E+03  0.40000000000E+03 0. -1.
<mgrwt>
<rscale>  2 0.41730450E+03</rscale>
<asrwt>0</asrwt>
<pdfrwt beam="1">  1       21 0.84105866E-01 0.41730450E+03</pdfrwt>
<pdfrwt beam="2">  1       21 0.58061226E-01 0.41730450E+03</pdfrwt>
<totfact> 0.30063299E+03</totfact>
</mgrwt>
</event>
<event>
 4    1  0.4897983E-002  0.5089485E+03  0.7818608E-02  0.1011469E+00
         21   -1    0    0  501  502  0.00000000000E+00  0.00000000000E+00  0.30751045543E+03  0.30751045543E+03  0.00000000000E+00 0.  1.
         21   -1    0    0  502  503 -0.00000000000E+00 -0.00000000000E+00 -0.24504291137E+04  0.24504291137E+04  0.00000000000E+00 0.  1.
    9000007    1    1    2  501    0  0.26504897146E+03 -0.16963956216E+03  0.45631932722E+02  0.51099003083E+03  0.40000000000E+03 0.  1.
   -9000007    1    1    2    0  503 -0.26504897146E+03  0.16963956216E+03 -0.21885505910E+04  0.22469495383E+04  0.40000000000E+03 0.  1.
<mgrwt>
<rscale>  2 0.50894846E+03</rscale>
<asrwt>0</asrwt>
<pdfrwt beam="1">  1       21 0.47309299E-01 0.50894846E+03</pdfrwt>
<pdfrwt beam="2">  1       21 0.37698911E+00 0.50894846E+03</pdfrwt>
<totfact> 0.36745440E+01</totfact>
</mgrwt>
</event>
<event>
 4    1  0.4897983E-002  0.4762274E+03  0.7818608E-02  0.1020177E+00
         21   -1    0    0  501  502  0.00000000000E+00  0.00000000000E+00  0.51710217358E+03  0.51710217358E+03  0.00000000000E+00 0.  1.
         21   -1    0    0  502  503 -0.00000000000E+00 -0.00000000000E+00 -0.44547859364E+03  0.44547859364E+03  0.00000000000E+00 0.  1.
    9000007    1    1    2  501    0  0.15255865962E+03 -0.20861063154E+03  0.95688820043E+02  0.48574570559E+03  0.40000000000E+03 0.  1.
   -9000007    1    1    2    0  503 -0.15255865962E+03  0.20861063154E+03 -0.24065240103E+02  0.47683506163E+03  0.40000000000E+03 0.  1.
<mgrwt>
<rscale>  2 0.47622740E+03</rscale>
<asrwt>0</asrwt>
<pdfrwt beam="1">  1       21 0.79554180E-01 0.47622740E+03</pdfrwt>
<pdfrwt beam="2">  1       21 0.68535168E-01 0.47622740E+03</pdfrwt>
<totfact> 0.23204734E+03</totfact>
</mgrwt>
</event>
<event>
 4    1  0.4897983E-002  0.4664818E+03  0.7818608E-02  0.1022918E+00
         21   -1    0    0  503  502  0.00000000000E+00  0.00000000000E+00  0.26914299863E+03  0.26914299863E+03  0.00000000000E+00 0. -1.
         21   -1    0    0  501  503 -0.00000000000E+00 -0.00000000000E+00 -0.80964096060E+03  0.80964096060E+03  0.00000000000E+00 0. -1.
    9000007    1    1    2  501    0  0.23998917804E+03  0.32334434775E+01 -0.29039351463E+03  0.54948489886E+03  0.40000000000E+03 0. -1.
   -9000007    1    1    2    0  502 -0.23998917804E+03 -0.32334434775E+01 -0.25010444734E+03  0.52929906037E+03  0.40000000000E+03 0. -1.
<mgrwt>
<rscale>  2 0.46648179E+03</rscale>
<asrwt>0</asrwt>
<pdfrwt beam="1">  1       21 0.41406616E-01 0.46648179E+03</pdfrwt>
<pdfrwt beam="2">  1       21 0.12456015E+00 0.46648179E+03</pdfrwt>
<totfact> 0.23172344E+03</totfact>
</mgrwt>
</event>
<event>
 4    1  0.4897983E-002  0.7000052E+03  0.7818608E-02  0.9717223E-01
         21   -1    0    0  503  502  0.00000000000E+00  0.00000000000E+00  0.34260880616E+03  0.34260880616E+03  0.00000000000E+00 0. -1.
         21   -1    0    0  501  503 -0.00000000000E+00 -0.00000000000E+00 -0.15750842517E+04  0.15750842517E+04  0.00000000000E+00 0.  1.
    9000007    1    1    2  501    0  0.49676386474E+02 -0.57231071493E+03 -0.90702272013E+03  0.11457301221E+04  0.40000000000E+03 0.  1.
   -9000007    1    1    2    0  502 -0.49676386474E+02  0.57231071493E+03 -0.32545272545E+03  0.77196293583E+03  0.40000000000E+03 0. -1.
<mgrwt>
<rscale>  2 0.70000521E+03</rscale>
<asrwt>0</asrwt>
<pdfrwt beam="1">  1       21 0.52709048E-01 0.70000521E+03</pdfrwt>
<pdfrwt beam="2">  1       21 0.24232065E+00 0.70000521E+03</pdfrwt>
<totfact> 0.17997028E+02</totfact>
</mgrwt>
</event>
<event>
 4    1  0.4897983E-002  0.4453720E+03  0.7818608E-02  0.1029111E+00
         21   -1    0    0  503  502  0.00000000000E+00  0.00000000000E+00  0.53851920314E+03  0.53851920314E+03  0.00000000000E+00 0. -1.
         21   -1    0    0  501  503 -0.00000000000E+00 -0.00000000000E+00 -0.63898008808E+03  0.63898008808E+03  0.00000000000E+00 0. -1.
    9000007    1    1    2  501    0 -0.17945546216E+03 -0.78434265140E+02 -0.43339558126E+03  0.62144020365E+03  0.40000000000E+03 0. -1.
   -9000007    1    1    2    0  502  0.17945546216E+03  0.78434265140E+02  0.33293469633E+03  0.55605908757E+03  0.40000000000E+03 0. -1.
<mgrwt>
<rscale>  2 0.44537198E+03</rscale>
<asrwt>0</asrwt>
<pdfrwt beam="1">  1       21 0.82849108E-01 0.44537198E+03</pdfrwt>
<pdfrwt beam="2">  1       21 0.98304629E-01 0.44537198E+03</pdfrwt>
<totfact> 0.92349170E+02</totfact>
</mgrwt>
</event>
<event>
 4    1  0.4897983E-002  0.4020967E+03  0.7818608E-02  0.1043056E+00
         21   -1    0    0  503  502  0.00000000000E+00  0.00000000000E+00  0.27086016870E+03  0.27086016870E+03  0.00000000000E+00 0.  1.
         21   -1    0    0  501  503 -0.00000000000E+00 -0.00000000000E+00 -0.65856296717E+03  0.65856296717E+03  0.00000000000E+00 0.  1.
    9000007    1    1    2  501    0 -0.40897621314E+02 -0.30255643461E+01 -0.51674947861E+02  0.40540358867E+03  0.40000000000E+03 0.  1.
   -9000007    1    1    2    0  502  0.40897621314E+02  0.30255643461E+01 -0.33602785061E+03  0.52401954721E+03  0.40000000000E+03 0.  1.
<mgrwt>
<rscale>  2 0.40209672E+03</rscale>
<asrwt>0</asrwt>
<pdfrwt beam="1">  1       21 0.41670796E-01 0.40209672E+03</pdfrwt>
<pdfrwt beam="2">  1       21 0.10131738E+00 0.40209672E+03</pdfrwt>
<totfact> 0.39226637E+03</totfact>
</mgrwt>
</event>
<event>
 4    1  0.4897983E-002  0.5162212E+03  0.7818608E-02  0.1009630E+00
         21   -1    0    0  503  502  0.00000000000E+00  0.00000000000E+00  0.10797714985E+04  0.10797714985E+04  0.00000000000E+00 0.  1.
         21   -1    0    0  501  503 -0.00000000000E+00 -0.00000000000E+00 -0.24989194831E+03  0.24989194831E+03  0.00000000000E+00 0.  1.
    9000007    1    1    2  501    0  0.25609172647E+03 -0.20224088365E+03  0.34095139032E+03  0.61865353628E+03  0.40000000000E+03 0.  1.
   -9000007    1    1    2    0  502 -0.25609172647E+03  0.20224088365E+03  0.48892815991E+03  0.71100991058E+03  0.40000000000E+03 0.  1.
<mgrwt>
<rscale>  2 0.51622122E+03</rscale>
<asrwt>0</asrwt>
<pdfrwt beam="1">  1       21 0.16611869E+00 0.51622122E+03</pdfrwt>
<pdfrwt beam="2">  1       21 0.38444916E-01 0.51622122E+03</pdfrwt>
<totfact> 0.12214231E+03</totfact>
</mgrwt>
</event>
<event>
 4    1  0.4897983E-002  0.4652918E+03  0.7818608E-02  0.1023258E+00
         21   -1    0    0  503  502  0.00000000000E+00  0.00000000000E+00  0.56765098122E+03  0.56765098122E+03  0.00000000000E+00 0.  1.
         21   -1    0    0  501  503 -0.00000000000E+00 -0.00000000000E+00 -0.66399955490E+03  0.66399955490E+03  0.00000000000E+00 0. -1.
    9000007    1    1    2  501    0 -0.67885929637E+02  0.22778920378E+03 -0.44993458093E+03  0.64725385122E+03  0.40000000000E+03 0. -1.
   -9000007    1    1    2    0  502  0.67885929637E+02 -0.22778920378E+03  0.35358600725E+03  0.58439668490E+03  0.40000000000E+03 0.  1.
<mgrwt>
<rscale>  2 0.46529176E+03</rscale>
<asrwt>0</asrwt>
<pdfrwt beam="1">  1       21 0.87330921E-01 0.46529176E+03</pdfrwt>
<pdfrwt beam="2">  1       21 0.10215378E+00 0.46529176E+03</pdfrwt>
<totfact> 0.73731648E+02</totfact>
</mgrwt>
</event>
<event>
 4    1  0.4897983E-002  0.6905085E+03  0.7818608E-02  0.9733603E-01
         21   -1    0    0  503  502  0.00000000000E+00  0.00000000000E+00  0.21457670696E+04  0.21457670696E+04  0.00000000000E+00 0.  1.
         21   -1    0    0  501  503 -0.00000000000E+00 -0.00000000000E+00 -0.22221429642E+03  0.22221429642E+03  0.00000000000E+00 0. -1.
    9000007    1    1    2  501    0  0.49397725003E+03 -0.26979334998E+03  0.96908007602E+03  0.11899235980E+04  0.40000000000E+03 0. -1.
   -9000007    1    1    2    0  502 -0.49397725003E+03  0.26979334998E+03  0.95447269716E+03  0.11780577681E+04  0.40000000000E+03 0.  1.
<mgrwt>
<rscale>  2 0.69050849E+03</rscale>
<asrwt>0</asrwt>
<pdfrwt beam="1">  1       21 0.33011800E+00 0.69050849E+03</pdfrwt>
<pdfrwt beam="2">  1       21 0.34186816E-01 0.69050849E+03</pdfrwt>
<totfact> 0.12864309E+02</totfact>
</mgrwt>
</event>
<event>
 4    1  0.4897983E-002  0.4239852E+03  0.7818608E-02  0.1035777E+00
         21   -1    0    0  503  502  0.00000000000E+00  0.00000000000E+00  0.10678056782E+04  0.10678056782E+04  0.00000000000E+00 0. -1.
         21   -1    0    0  501  503 -0.00000000000E+00 -0.00000000000E+00 -0.37998947635E+03  0.37998947635E+03  0.00000000000E+00 0. -1.
    9000007    1    1    2  501    0  0.14039987804E+03 -0.71640802390E+01 -0.19633751316E+03  0.46723855671E+03  0.40000000000E+03 0. -1.
   -9000007    1    1    2    0  502 -0.14039987804E+03  0.71640802390E+01  0.88415371501E+03  0.98055659784E+03  0.40000000000E+03 0. -1.
<mgrwt>
<rscale>  2 0.42398520E+03</rscale>
<asrwt>0</asrwt>
<pdfrwt beam="1">  1       21 0.16427780E+00 0.42398520E+03</pdfrwt>
<pdfrwt beam="2">  1       21 0.58459920E-01 0.42398520E+03</pdfrwt>
<totfact> 0.54067294E+02</totfact>
</mgrwt>
</event>
<event>
 4    1  0.4897983E-002  0.4038757E+03  0.7818608E-02  0.1042446E+00
         21   -1    0    0  501  502  0.00000000000E+00  0.00000000000E+00  0.25518305235E+03  0.25518305235E+03  0.00000000000E+00 0. -1.
         21   -1    0    0  502  503 -0.00000000000E+00 -0.00000000000E+00 -0.69214832958E+03  0.69214832958E+03  0.00000000000E+00 0. -1.
    9000007    1    1    2  501    0  0.26997671456E+02 -0.48854050941E+02 -0.87486975813E+02  0.41324274161E+03  0.40000000000E+03 0.  1.
   -9000007    1    1    2    0  503 -0.26997671456E+02  0.48854050941E+02 -0.34947830142E+03  0.53408864032E+03  0.40000000000E+03 0.  1.
<mgrwt>
<rscale>  2 0.40387571E+03</rscale>
<asrwt>0</asrwt>
<pdfrwt beam="1">  1       21 0.39258932E-01 0.40387571E+03</pdfrwt>
<pdfrwt beam="2">  1       21 0.10648436E+00 0.40387571E+03</pdfrwt>
<totfact> 0.39237039E+03</totfact>
</mgrwt>
</event>
<event>
 4    1  0.4897983E-002  0.4290836E+03  0.7818608E-02  0.1034150E+00
         21   -1    0    0  503  502  0.00000000000E+00  0.00000000000E+00  0.31329304778E+03  0.31329304778E+03  0.00000000000E+00 0.  1.
         21   -1    0    0  501  503 -0.00000000000E+00 -0.00000000000E+00 -0.62142871749E+03  0.62142871749E+03  0.00000000000E+00 0.  1.
    9000007    1    1    2  501    0  0.69959382895E+02 -0.13863053716E+03 -0.45136342426E+02  0.43145107544E+03  0.40000000000E+03 0.  1.
   -9000007    1    1    2    0  502 -0.69959382895E+02  0.13863053716E+03 -0.26299932729E+03  0.50327068983E+03  0.40000000000E+03 0.  1.
<mgrwt>
<rscale>  2 0.42908361E+03</rscale>
<asrwt>0</asrwt>
<pdfrwt beam="1">  1       21 0.48198931E-01 0.42908361E+03</pdfrwt>
<pdfrwt beam="2">  1       21 0.95604417E-01 0.42908361E+03</pdfrwt>
<totfact> 0.32951643E+03</totfact>
</mgrwt>
</event>
<event>
 4    1  0.4897983E-002  0.6168118E+03  0.7818608E-02  0.9871128E-01
         21   -1    0    0  501  502  0.00000000000E+00  0.00000000000E+00  0.11321847838E+04  0.11321847838E+04  0.00000000000E+00 0. -1.
         21   -1    0    0  502  503 -0.00000000000E+00 -0.00000000000E+00 -0.58070828289E+03  0.58070828289E+03  0.00000000000E+00 0. -1.
    9000007    1    1    2  501    0  0.11685717370E+03 -0.45475395253E+03  0.83165804104E+03  0.10354283431E+04  0.40000000000E+03 0. -1.
   -9000007    1    1    2    0  503 -0.11685717370E+03  0.45475395253E+03 -0.28018154010E+03  0.67746472366E+03  0.40000000000E+03 0. -1.
<mgrwt>
<rscale>  2 0.61681177E+03</rscale>
<asrwt>0</asrwt>
<pdfrwt beam="1">  1       21 0.17418227E+00 0.61681177E+03</pdfrwt>
<pdfrwt beam="2">  1       21 0.89339736E-01 0.61681177E+03</pdfrwt>
<totfact> 0.16036527E+02</totfact>
</mgrwt>
</event>
<event>
 4    1  0.4897983E-002  0.4318544E+03  0.7818608E-02  0.1033276E+00
         21   -1    0    0  503  502  0.00000000000E+00  0.00000000000E+00  0.89000481141E+03  0.89000481141E+03  0.00000000000E+00 0.  1.
         21   -1    0    0  501  503 -0.00000000000E+00 -0.00000000000E+00 -0.21978096227E+03  0.21978096227E+03  0.00000000000E+00 0.  1.
    9000007    1    1    2  501    0  0.41533942745E+02  0.15739502102E+03  0.45484825593E+03  0.62720427052E+03  0.40000000000E+03 0.  1.
   -9000007    1    1    2    0  502 -0.41533942745E+02 -0.15739502102E+03  0.21537559322E+03  0.48258150316E+03  0.40000000000E+03 0.  1.
<mgrwt>
<rscale>  2 0.43185444E+03</rscale>
<asrwt>0</asrwt>
<pdfrwt beam="1">  1       21 0.13692382E+00 0.43185444E+03</pdfrwt>
<pdfrwt beam="2">  1       21 0.33812456E-01 0.43185444E+03</pdfrwt>
<totfact> 0.27766561E+03</totfact>
</mgrwt>
</event>
<event>
 4    1  0.4897983E-002  0.6942507E+03  0.7818608E-02  0.9727115E-01
         21   -1    0    0  503  502  0.00000000000E+00  0.00000000000E+00  0.25087257258E+03  0.25087257258E+03  0.00000000000E+00 0. -1.
         21   -1    0    0  501  503 -0.00000000000E+00 -0.00000000000E+00 -0.22114234338E+04  0.22114234338E+04  0.00000000000E+00 0.  1.
    9000007    1    1    2  501    0 -0.41915404738E+03  0.38248395743E+03 -0.14262576698E+04  0.15862518822E+04  0.40000000000E+03 0.  1.
   -9000007    1    1    2    0  502  0.41915404738E+03 -0.38248395743E+03 -0.53429319145E+03  0.87604412421E+03  0.40000000000E+03 0. -1.
<mgrwt>
<rscale>  2 0.69425074E+03</rscale>
<asrwt>0</asrwt>
<pdfrwt beam="1">  1       21 0.38595780E-01 0.69425074E+03</pdfrwt>
<pdfrwt beam="2">  1       21 0.34021900E+00 0.69425074E+03</pdfrwt>
<totfact> 0.86732157E+01</totfact>
</mgrwt>
</event>
<event>
 4    1  0.4897983E-002  0.4598446E+03  0.7818608E-02  0.1024826E+00
         21   -1    0    0  501  502  0.00000000000E+00  0.00000000000E+00  0.74864001925E+03  0.74864001925E+03  0.00000000000E+00 0.  1.
         21   -1    0    0  502  503 -0.00000000000E+00 -0.00000000000E+00 -0.29305218511E+03  0.29305218511E+03  0.00000000000E+00 0.  1.
    9000007    1    1    2  501    0 -0.14660842605E+03  0.17309828418E+03  0.32683927241E+03  0.56416394476E+03  0.40000000000E+03 0.  1.
   -9000007    1    1    2    0  503  0.14660842605E+03 -0.17309828418E+03  0.12874856173E+03  0.47752825961E+03  0.40000000000E+03 0.  1.
<mgrwt>
<rscale>  2 0.45984459E+03</rscale>
<asrwt>0</asrwt>
<pdfrwt beam="1">  1       21 0.11517539E+00 0.45984459E+03</pdfrwt>
<pdfrwt beam="2">  1       21 0.45084952E-01 0.45984459E+03</pdfrwt>
<totfact> 0.23736522E+03</totfact>
</mgrwt>
</event>
<event>
 4    1  0.4897983E-002  0.4196869E+03  0.7818608E-02  0.1037168E+00
         21   -1    0    0  501  502  0.00000000000E+00  0.00000000000E+00  0.23983154906E+03  0.23983154906E+03  0.00000000000E+00 0.  1.
         21   -1    0    0  502  503 -0.00000000000E+00 -0.00000000000E+00 -0.10466918701E+04  0.10466918701E+04  0.00000000000E+00 0. -1.
    9000007    1    1    2  501    0 -0.70713255980E+02 -0.10553064704E+03 -0.52076308306E+02  0.42290545506E+03  0.40000000000E+03 0.  1.
   -9000007    1    1    2    0  503  0.70713255980E+02  0.10553064704E+03 -0.75478401271E+03  0.86361796408E+03  0.40000000000E+03 0. -1.
<mgrwt>
<rscale>  2 0.41968689E+03</rscale>
<asrwt>0</asrwt>
<pdfrwt beam="1">  1       21 0.36897162E-01 0.41968689E+03</pdfrwt>
<pdfrwt beam="2">  1       21 0.16102952E+00 0.41968689E+03</pdfrwt>
<totfact> 0.15078178E+03</totfact>
</mgrwt>
</event>
<event>
 4    1  0.4897983E-002  0.4954312E+03  0.7818608E-02  0.1014978E+00
         21   -1    0    0  503  502  0.00000000000E+00  0.00000000000E+00  0.12460848947E+04  0.12460848947E+04  0.00000000000E+00 0.  1.
         21   -1    0    0  501  503 -0.00000000000E+00 -0.00000000000E+00 -0.35224533149E+03  0.35224533149E+03  0.00000000000E+00 0. -1.
    9000007    1    1    2  501    0 -0.11616626409E+03 -0.26824885403E+03 -0.83662948316E+02  0.50244555677E+03  0.40000000000E+03 0. -1.
   -9000007    1    1    2    0  502  0.11616626409E+03  0.26824885403E+03  0.97750251149E+03  0.10958846694E+04  0.40000000000E+03 0.  1.
<mgrwt>
<rscale>  2 0.49543117E+03</rscale>
<asrwt>0</asrwt>
<pdfrwt beam="1">  1       21 0.19170537E+00 0.49543117E+03</pdfrwt>
<pdfrwt beam="2">  1       21 0.54191590E-01 0.49543117E+03</pdfrwt>
<totfact> 0.39331330E+02</totfact>
</mgrwt>
</event>
<event>
 4    1  0.4897983E-002  0.4498214E+03  0.7818608E-02  0.1027775E+00
         21   -1    0    0  503  502  0.00000000000E+00  0.00000000000E+00  0.35883081546E+03  0.35883081546E+03  0.00000000000E+00 0. -1.
         21   -1    0    0  501  503 -0.00000000000E+00 -0.00000000000E+00 -0.20660417994E+04  0.20660417994E+04  0.00000000000E+00 0.  1.
    9000007    1    1    2  501    0 -0.66859316381E+01 -0.20565655224E+03 -0.18874304522E+04  0.19402919963E+04  0.40000000000E+03 0.  1.
   -9000007    1    1    2    0  502  0.66859316381E+01  0.20565655224E+03  0.18021946822E+03  0.48458061857E+03  0.40000000000E+03 0. -1.
<mgrwt>
<rscale>  2 0.44982143E+03</rscale>
<asrwt>0</asrwt>
<pdfrwt beam="1">  1       21 0.55204740E-01 0.44982143E+03</pdfrwt>
<pdfrwt beam="2">  1       21 0.31785259E+00 0.44982143E+03</pdfrwt>
<totfact> 0.63495355E+01</totfact>
</mgrwt>
</event>
<event>
 4    1  0.4897983E-002  0.6089399E+03  0.7818608E-02  0.9887030E-01
         21   -1    0    0  503  502  0.00000000000E+00  0.00000000000E+00  0.64325466536E+03  0.64325466536E+03  0.00000000000E+00 0. -1.
         21   -1    0    0  501  503 -0.00000000000E+00 -0.00000000000E+00 -0.61023410918E+03  0.61023410918E+03  0.00000000000E+00 0. -1.
    9000007    1    1    2  501    0 -0.27358217670E+03 -0.36872838434E+03 -0.13094546966E+03  0.62285997210E+03  0.40000000000E+03 0. -1.
   -9000007    1    1    2    0  502  0.27358217670E+03  0.36872838434E+03  0.16396602584E+03  0.63062880243E+03  0.40000000000E+03 0. -1.
<mgrwt>
<rscale>  2 0.60893992E+03</rscale>
<asrwt>0</asrwt>
<pdfrwt beam="1">  1       21 0.98962256E-01 0.60893992E+03</pdfrwt>
<pdfrwt beam="2">  1       21 0.93882170E-01 0.60893992E+03</pdfrwt>
<totfact> 0.63689052E+02</totfact>
</mgrwt>
</event>
<event>
 4    1  0.4897983E-002  0.4652052E+03  0.7818608E-02  0.1023282E+00
         21   -1    0    0  503  502  0.00000000000E+00  0.00000000000E+00  0.38906012120E+03  0.38906012120E+03  0.00000000000E+00 0.  1.
         21   -1    0    0  501  503 -0.00000000000E+00 -0.00000000000E+00 -0.60715669478E+03  0.60715669478E+03  0.00000000000E+00 0. -1.
    9000007    1    1    2  501    0  0.23520711090E+03 -0.33067519627E+02 -0.25327585537E+03  0.52968340052E+03  0.40000000000E+03 0. -1.
   -9000007    1    1    2    0  502 -0.23520711090E+03  0.33067519627E+02  0.35179281784E+02  0.46653341546E+03  0.40000000000E+03 0.  1.
<mgrwt>
<rscale>  2 0.46520517E+03</rscale>
<asrwt>0</asrwt>
<pdfrwt beam="1">  1       21 0.59855403E-01 0.46520517E+03</pdfrwt>
<pdfrwt beam="2">  1       21 0.93408723E-01 0.46520517E+03</pdfrwt>
<totfact> 0.21574620E+03</totfact>
</mgrwt>
</event>
<event>
 4    1  0.4897983E-002  0.4360211E+03  0.7818608E-02  0.1031975E+00
         21   -1    0    0  501  502  0.00000000000E+00  0.00000000000E+00  0.31715664165E+03  0.31715664165E+03  0.00000000000E+00 0. -1.
         21   -1    0    0  502  503 -0.00000000000E+00 -0.00000000000E+00 -0.63197605076E+03  0.63197605076E+03  0.00000000000E+00 0.  1.
    9000007    1    1    2  501    0  0.92887886645E+02  0.14658182422E+03 -0.49720828130E+02  0.43884684279E+03  0.40000000000E+03 0. -1.
   -9000007    1    1    2    0  503 -0.92887886645E+02 -0.14658182422E+03 -0.26509858099E+03  0.51028584962E+03  0.40000000000E+03 0.  1.
<mgrwt>
<rscale>  2 0.43602109E+03</rscale>
<asrwt>0</asrwt>
<pdfrwt beam="1">  1       21 0.48793330E-01 0.43602109E+03</pdfrwt>
<pdfrwt beam="2">  1       21 0.97227084E-01 0.43602109E+03</pdfrwt>
<totfact> 0.30757216E+03</totfact>
</mgrwt>
</event>
<event>
 4    1  0.4897983E-002  0.5222382E+03  0.7818608E-02  0.1008132E+00
         21   -1    0    0  501  502  0.00000000000E+00  0.00000000000E+00  0.32049293876E+03  0.32049293876E+03  0.00000000000E+00 0.  1.
         21   -1    0    0  502  503 -0.00000000000E+00 -0.00000000000E+00 -0.91588091527E+03  0.91588091527E+03  0.00000000000E+00 0.  1.
    9000007    1    1    2  501    0  0.33466751783E+03  0.27025820894E+02 -0.13313210194E+03  0.53894053387E+03  0.40000000000E+03 0.  1.
   -9000007    1    1    2    0  503 -0.33466751783E+03 -0.27025820894E+02 -0.46225587458E+03  0.69743332016E+03  0.40000000000E+03 0.  1.
<mgrwt>
<rscale>  2 0.52223820E+03</rscale>
<asrwt>0</asrwt>
<pdfrwt beam="1">  1       21 0.49306606E-01 0.52223820E+03</pdfrwt>
<pdfrwt beam="2">  1       21 0.14090476E+00 0.52223820E+03</pdfrwt>
<totfact> 0.11395319E+03</totfact>
</mgrwt>
</event>
<event>
 4    1  0.4897983E-002  0.4808840E+03  0.7818608E-02  0.1018893E+00
         21   -1    0    0  501  502  0.00000000000E+00  0.00000000000E+00  0.90370614601E+03  0.90370614601E+03  0.00000000000E+00 0. -1.
         21   -1    0    0  502  503 -0.00000000000E+00 -0.00000000000E+00 -0.25601633102E+03  0.25601633102E+03  0.00000000000E+00 0. -1.
    9000007    1    1    2  501    0 -0.20911466385E+03 -0.16589289422E+03  0.31096568847E+03  0.57266836336E+03  0.40000000000E+03 0. -1.
   -9000007    1    1    2    0  503  0.20911466385E+03  0.16589289422E+03  0.33672412652E+03  0.58705411367E+03  0.40000000000E+03 0. -1.
<mgrwt>
<rscale>  2 0.48088397E+03</rscale>
<asrwt>0</asrwt>
<pdfrwt beam="1">  1       21 0.13903171E+00 0.48088397E+03</pdfrwt>
<pdfrwt beam="2">  1       21 0.39387128E-01 0.48088397E+03</pdfrwt>
<totfact> 0.19185338E+03</totfact>
</mgrwt>
</event>
<event>
 4    1  0.4897983E-002  0.4002410E+03  0.7818608E-02  0.1043696E+00
         21   -1    0    0  503  502  0.00000000000E+00  0.00000000000E+00  0.58094616623E+03  0.58094616623E+03  0.00000000000E+00 0. -1.
         21   -1    0    0  501  503 -0.00000000000E+00 -0.00000000000E+00 -0.32443503307E+03  0.32443503307E+03  0.00000000000E+00 0. -1.
    9000007    1    1    2  501    0  0.11947443498E+02 -0.70778336034E+01 -0.47115883892E+02  0.40300464470E+03  0.40000000000E+03 0. -1.
   -9000007    1    1    2    0  502 -0.11947443498E+02  0.70778336034E+01  0.30362701705E+03  0.50237655461E+03  0.40000000000E+03 0. -1.
<mgrwt>
<rscale>  2 0.40024097E+03</rscale>
<asrwt>0</asrwt>
<pdfrwt beam="1">  1       21 0.89376333E-01 0.40024097E+03</pdfrwt>
<pdfrwt beam="2">  1       21 0.49913082E-01 0.40024097E+03</pdfrwt>
<totfact> 0.36313044E+03</totfact>
</mgrwt>
</event>
<event>
 4    1  0.4897983E-002  0.4075171E+03  0.7818608E-02  0.1041207E+00
         21   -1    0    0  503  502  0.00000000000E+00  0.00000000000E+00  0.13407937692E+03  0.13407937692E+03  0.00000000000E+00 0.  1.
         21   -1    0    0  501  503 -0.00000000000E+00 -0.00000000000E+00 -0.12881842425E+04  0.12881842425E+04  0.00000000000E+00 0.  1.
    9000007    1    1    2  501    0  0.27402192315E+01 -0.77863147126E+02 -0.71657694739E+03  0.82434986505E+03  0.40000000000E+03 0.  1.
   -9000007    1    1    2    0  502 -0.27402192315E+01  0.77863147126E+02 -0.43752791823E+03  0.59791375441E+03  0.40000000000E+03 0.  1.
<mgrwt>
<rscale>  2 0.40751709E+03</rscale>
<asrwt>0</asrwt>
<pdfrwt beam="1">  1       21 0.20627596E-01 0.40751709E+03</pdfrwt>
<pdfrwt beam="2">  1       21 0.19818220E+00 0.40751709E+03</pdfrwt>
<totfact> 0.26015425E+03</totfact>
</mgrwt>
</event>
<event>
 4    1  0.4897983E-002  0.7818466E+03  0.7818608E-02  0.9586672E-01
         21   -1    0    0  501  502  0.00000000000E+00  0.00000000000E+00  0.44732366126E+03  0.44732366126E+03  0.00000000000E+00 0.  1.
         21   -1    0    0  502  503 -0.00000000000E+00 -0.00000000000E+00 -0.18166104004E+04  0.18166104004E+04  0.00000000000E+00 0.  1.
    9000007    1    1    2  501    0  0.40733780242E+03 -0.53419102869E+03 -0.12120714924E+03  0.79118601696E+03  0.40000000000E+03 0.  1.
   -9000007    1    1    2    0  503 -0.40733780242E+03  0.53419102869E+03 -0.12480795899E+04  0.14727480447E+04  0.40000000000E+03 0.  1.
<mgrwt>
<rscale>  2 0.78184662E+03</rscale>
<asrwt>0</asrwt>
<pdfrwt beam="1">  1       21 0.68819025E-01 0.78184662E+03</pdfrwt>
<pdfrwt beam="2">  1       21 0.27947852E+00 0.78184662E+03</pdfrwt>
<totfact> 0.56811607E+01</totfact>
</mgrwt>
</event>
<event>
 4    1  0.4897983E-002  0.4138378E+03  0.7818608E-02  0.1039091E+00
         21   -1    0    0  503  502  0.00000000000E+00  0.00000000000E+00  0.19360326948E+04  0.19360326948E+04  0.00000000000E+00 0.  1.
         21   -1    0    0  501  503 -0.00000000000E+00 -0.00000000000E+00 -0.10820159016E+03  0.10820159016E+03  0.00000000000E+00 0.  1.
    9000007    1    1    2  501    0  0.87812000270E+02 -0.59588733195E+02  0.47732619799E+03  0.63174525230E+03  0.40000000000E+03 0.  1.
   -9000007    1    1    2    0  502 -0.87812000270E+02  0.59588733195E+02  0.13505049067E+04  0.14124890327E+04  0.40000000000E+03 0.  1.
<mgrwt>
<rscale>  2 0.41383785E+03</rscale>
<asrwt>0</asrwt>
<pdfrwt beam="1">  1       21 0.29785116E+00 0.41383785E+03</pdfrwt>
<pdfrwt beam="2">  1       21 0.16646400E-01 0.41383785E+03</pdfrwt>
<totfact> 0.93765900E+02</totfact>
</mgrwt>
</event>
<event>
 4    1  0.4897983E-002  0.4421861E+03  0.7818608E-02  0.1030078E+00
         21   -1    0    0  501  502  0.00000000000E+00  0.00000000000E+00  0.93599781580E+03  0.93599781580E+03  0.00000000000E+00 0. -1.
         21   -1    0    0  502  503 -0.00000000000E+00 -0.00000000000E+00 -0.26082569340E+03  0.26082569340E+03  0.00000000000E+00 0. -1.
    9000007    1    1    2  501    0  0.40256828992E+02 -0.18414100177E+03  0.60459293383E+03  0.74904014341E+03  0.40000000000E+03 0. -1.
   -9000007    1    1    2    0  503 -0.40256828992E+02  0.18414100177E+03  0.70579188576E+02  0.44778336578E+03  0.40000000000E+03 0. -1.
<mgrwt>
<rscale>  2 0.44218607E+03</rscale>
<asrwt>0</asrwt>
<pdfrwt beam="1">  1       21 0.14399966E+00 0.44218607E+03</pdfrwt>
<pdfrwt beam="2">  1       21 0.40127030E-01 0.44218607E+03</pdfrwt>
<totfact> 0.17064554E+03</totfact>
</mgrwt>
</event>
<event>
 4    1  0.4897983E-002  0.4416592E+03  0.7818608E-02  0.1030239E+00
         21   -1    0    0  503  502  0.00000000000E+00  0.00000000000E+00  0.44072931405E+03  0.44072931405E+03  0.00000000000E+00 0.  1.
         21   -1    0    0  501  503 -0.00000000000E+00 -0.00000000000E+00 -0.61859233152E+03  0.61859233152E+03  0.00000000000E+00 0.  1.
    9000007    1    1    2  501    0 -0.14978933283E+03  0.11236564318E+03 -0.37145424903E+03  0.57709716783E+03  0.40000000000E+03 0.  1.
   -9000007    1    1    2    0  502  0.14978933283E+03 -0.11236564318E+03  0.19359123156E+03  0.48222447774E+03  0.40000000000E+03 0.  1.
<mgrwt>
<rscale>  2 0.44165924E+03</rscale>
<asrwt>0</asrwt>
<pdfrwt beam="1">  1       21 0.67804510E-01 0.44165924E+03</pdfrwt>
<pdfrwt beam="2">  1       21 0.95168050E-01 0.44165924E+03</pdfrwt>
<totfact> 0.15792921E+03</totfact>
</mgrwt>
</event>
<event>
 4    1  0.4897983E-002  0.4596502E+03  0.7818608E-02  0.1024883E+00
         21   -1    0    0  501  502  0.00000000000E+00  0.00000000000E+00  0.52688760411E+03  0.52688760411E+03  0.00000000000E+00 0. -1.
         21   -1    0    0  502  503 -0.00000000000E+00 -0.00000000000E+00 -0.58012891314E+03  0.58012891314E+03  0.00000000000E+00 0.  1.
    9000007    1    1    2  501    0  0.71664960307E+02  0.21480800688E+03  0.28095569511E+03  0.53871555479E+03  0.40000000000E+03 0. -1.
   -9000007    1    1    2    0  503 -0.71664960307E+02 -0.21480800688E+03 -0.33419700414E+03  0.56830096246E+03  0.40000000000E+03 0.  1.
<mgrwt>
<rscale>  2 0.45965024E+03</rscale>
<asrwt>0</asrwt>
<pdfrwt beam="1">  1       21 0.81059631E-01 0.45965024E+03</pdfrwt>
<pdfrwt beam="2">  1       21 0.89250602E-01 0.45965024E+03</pdfrwt>
<totfact> 0.12167716E+03</totfact>
</mgrwt>
</event>
<event>
 4    1  0.4897983E-002  0.4351892E+03  0.7818608E-02  0.1032233E+00
         21   -1    0    0  501  502  0.00000000000E+00  0.00000000000E+00  0.90093718617E+03  0.90093718617E+03  0.00000000000E+00 0.  1.
         21   -1    0    0  502  503 -0.00000000000E+00 -0.00000000000E+00 -0.27965978228E+03  0.27965978228E+03  0.00000000000E+00 0.  1.
    9000007    1    1    2  501    0 -0.16356202138E+03  0.51352643875E+02  0.60479593445E+03  0.74509580001E+03  0.40000000000E+03 0.  1.
   -9000007    1    1    2    0  503  0.16356202138E+03 -0.51352643875E+02  0.16481469440E+02  0.43550116843E+03  0.40000000000E+03 0.  1.
<mgrwt>
<rscale>  2 0.43518919E+03</rscale>
<asrwt>0</asrwt>
<pdfrwt beam="1">  1       21 0.13860572E+00 0.43518919E+03</pdfrwt>
<pdfrwt beam="2">  1       21 0.43024582E-01 0.43518919E+03</pdfrwt>
<totfact> 0.16400871E+03</totfact>
</mgrwt>
</event>
<event>
 4    1  0.4897983E-002  0.7061466E+03  0.7818608E-02  0.9706778E-01
         21   -1    0    0  503  502  0.00000000000E+00  0.00000000000E+00  0.11316844320E+04  0.11316844320E+04  0.00000000000E+00 0. -1.
         21   -1    0    0  501  503 -0.00000000000E+00 -0.00000000000E+00 -0.54299104148E+03  0.54299104148E+03  0.00000000000E+00 0. -1.
    9000007    1    1    2  501    0 -0.25557883207E+03 -0.52280246504E+03  0.65792050282E+03  0.96514369131E+03  0.40000000000E+03 0. -1.
   -9000007    1    1    2    0  502  0.25557883207E+03  0.52280246504E+03 -0.69227112280E+02  0.70953178218E+03  0.40000000000E+03 0. -1.
<mgrwt>
<rscale>  2 0.70614655E+03</rscale>
<asrwt>0</asrwt>
<pdfrwt beam="1">  1       21 0.17410530E+00 0.70614655E+03</pdfrwt>
<pdfrwt beam="2">  1       21 0.83537083E-01 0.70614655E+03</pdfrwt>
<totfact> 0.18250350E+02</totfact>
</mgrwt>
</event>
<event>
 4    1  0.4897983E-002  0.4368210E+03  0.7818608E-02  0.1031727E+00
         21   -1    0    0  503  502  0.00000000000E+00  0.00000000000E+00  0.11304118440E+03  0.11304118440E+03  0.00000000000E+00 0. -1.
         21   -1    0    0  501  503 -0.00000000000E+00 -0.00000000000E+00 -0.19579516740E+04  0.19579516740E+04  0.00000000000E+00 0.  1.
    9000007    1    1    2  501    0  0.16182688569E+02  0.17478772543E+03 -0.13069558019E+04  0.13780225312E+04  0.40000000000E+03 0. -1.
   -9000007    1    1    2    0  502 -0.16182688569E+02 -0.17478772543E+03 -0.53795468773E+03  0.69297032723E+03  0.40000000000E+03 0. -1.
<mgrwt>
<rscale>  2 0.43682105E+03</rscale>
<asrwt>0</asrwt>
<pdfrwt beam="1">  1       21 0.17390951E-01 0.43682105E+03</pdfrwt>
<pdfrwt beam="2">  1       21 0.30122334E+00 0.43682105E+03</pdfrwt>
<totfact> 0.81387757E+02</totfact>
</mgrwt>
</event>
<event>
 4    1  0.4897983E-002  0.4025146E+03  0.7818608E-02  0.1042912E+00
         21   -1    0    0  501  502  0.00000000000E+00  0.00000000000E+00  0.12109599007E+03  0.12109599007E+03  0.00000000000E+00 0. -1.
         21   -1    0    0  502  503 -0.00000000000E+00 -0.00000000000E+00 -0.13663593921E+04  0.13663593921E+04  0.00000000000E+00 0. -1.
    9000007    1    1    2  501    0  0.30761865631E+02  0.32737513535E+02 -0.72990960278E+03  0.83353828071E+03  0.40000000000E+03 0. -1.
   -9000007    1    1    2    0  503 -0.30761865631E+02 -0.32737513535E+02 -0.51535379922E+03  0.65391710143E+03  0.40000000000E+03 0. -1.
<mgrwt>
<rscale>  2 0.40251464E+03</rscale>
<asrwt>0</asrwt>
<pdfrwt beam="1">  1       21 0.18630152E-01 0.40251464E+03</pdfrwt>
<pdfrwt beam="2">  1       21 0.21020914E+00 0.40251464E+03</pdfrwt>
<totfact> 0.26367441E+03</totfact>
</mgrwt>
</event>
<event>
 4    1  0.4897983E-002  0.5063126E+03  0.7818608E-02  0.1012144E+00
         21   -1    0    0  503  502  0.00000000000E+00  0.00000000000E+00  0.17399778109E+04  0.17399778109E+04  0.00000000000E+00 0. -1.
         21   -1    0    0  501  503 -0.00000000000E+00 -0.00000000000E+00 -0.17634413900E+03  0.17634413900E+03  0.00000000000E+00 0.  1.
    9000007    1    1    2  501    0  0.30640918031E+03  0.49657444634E+02  0.39316897373E+03  0.64104156611E+03  0.40000000000E+03 0.  1.
   -9000007    1    1    2    0  502 -0.30640918031E+03 -0.49657444634E+02  0.11704646982E+04  0.12752803838E+04  0.40000000000E+03 0. -1.
<mgrwt>
<rscale>  2 0.50631260E+03</rscale>
<asrwt>0</asrwt>
<pdfrwt beam="1">  1       21 0.26768888E+00 0.50631260E+03</pdfrwt>
<pdfrwt beam="2">  1       21 0.27129869E-01 0.50631260E+03</pdfrwt>
<totfact> 0.53255156E+02</totfact>
</mgrwt>
</event>
<event>
 4    1  0.4897983E-002  0.4295345E+03  0.7818608E-02  0.1034007E+00
         21   -1    0    0  503  502  0.00000000000E+00  0.00000000000E+00  0.42115075017E+03  0.42115075017E+03  0.00000000000E+00 0.  1.
         21   -1    0    0  501  503 -0.00000000000E+00 -0.00000000000E+00 -0.49037425025E+03  0.49037425025E+03  0.00000000000E+00 0.  1.
    9000007    1    1    2  501    0 -0.69236945269E-01 -0.15652434878E+03 -0.18343832015E+03  0.46706476409E+03  0.40000000000E+03 0.  1.
   -9000007    1    1    2    0  502  0.69236945269E-01  0.15652434878E+03  0.11421482007E+03  0.44446023633E+03  0.40000000000E+03 0.  1.
<mgrwt>
<rscale>  2 0.42953449E+03</rscale>
<asrwt>0</asrwt>
<pdfrwt beam="1">  1       21 0.64792423E-01 0.42953449E+03</pdfrwt>
<pdfrwt beam="2">  1       21 0.75442192E-01 0.42953449E+03</pdfrwt>
<totfact> 0.30213934E+03</totfact>
</mgrwt>
</event>
<event>
 4    1  0.4897983E-002  0.4718936E+03  0.7818608E-02  0.1021387E+00
         21   -1    0    0  503  502  0.00000000000E+00  0.00000000000E+00  0.16710584408E+03  0.16710584408E+03  0.00000000000E+00 0.  1.
         21   -1    0    0  501  503 -0.00000000000E+00 -0.00000000000E+00 -0.14774369236E+04  0.14774369236E+04  0.00000000000E+00 0.  1.
    9000007    1    1    2  501    0 -0.24357738136E+03  0.57910878326E+02 -0.91262866525E+03  0.10274116464E+04  0.40000000000E+03 0.  1.
   -9000007    1    1    2    0  502  0.24357738136E+03 -0.57910878326E+02 -0.39770241432E+03  0.61713112131E+03  0.40000000000E+03 0.  1.
<mgrwt>
<rscale>  2 0.47189364E+03</rscale>
<asrwt>0</asrwt>
<pdfrwt beam="1">  1       21 0.25708591E-01 0.47189364E+03</pdfrwt>
<pdfrwt beam="2">  1       21 0.22729799E+00 0.47189364E+03</pdfrwt>
<totfact> 0.10696368E+03</totfact>
</mgrwt>
</event>
<event>
 4    1  0.4897983E-002  0.4070206E+03  0.7818608E-02  0.1041375E+00
         21   -1    0    0  503  502  0.00000000000E+00  0.00000000000E+00  0.19185425183E+03  0.19185425183E+03  0.00000000000E+00 0.  1.
         21   -1    0    0  501  503 -0.00000000000E+00 -0.00000000000E+00 -0.90690911349E+03  0.90690911349E+03  0.00000000000E+00 0.  1.
    9000007    1    1    2  501    0  0.58981778402E+02  0.46764162180E+02 -0.47772437460E+03  0.62760362900E+03  0.40000000000E+03 0. -1.
   -9000007    1    1    2    0  502 -0.58981778402E+02 -0.46764162180E+02 -0.23733048706E+03  0.47115973633E+03  0.40000000000E+03 0. -1.
<mgrwt>
<rscale>  2 0.40702056E+03</rscale>
<asrwt>0</asrwt>
<pdfrwt beam="1">  1       21 0.29516038E-01 0.40702056E+03</pdfrwt>
<pdfrwt beam="2">  1       21 0.13952448E+00 0.40702056E+03</pdfrwt>
<totfact> 0.34992313E+03</totfact>
</mgrwt>
</event>
<event>
 4    1  0.4897983E-002  0.4061378E+03  0.7818608E-02  0.1041675E+00
         21   -1    0    0  501  502  0.00000000000E+00  0.00000000000E+00  0.11352157904E+04  0.11352157904E+04  0.00000000000E+00 0. -1.
         21   -1    0    0  502  503 -0.00000000000E+00 -0.00000000000E+00 -0.34032343266E+03  0.34032343266E+03  0.00000000000E+00 0. -1.
    9000007    1    1    2  501    0  0.63703802116E+02 -0.29828716452E+02  0.95593846962E+03  0.10386367432E+04  0.40000000000E+03 0. -1.
   -9000007    1    1    2    0  503 -0.63703802116E+02  0.29828716452E+02 -0.16104611187E+03  0.43690247983E+03  0.40000000000E+03 0. -1.
<mgrwt>
<rscale>  2 0.40613782E+03</rscale>
<asrwt>0</asrwt>
<pdfrwt beam="1">  1       21 0.17464858E+00 0.40613782E+03</pdfrwt>
<pdfrwt beam="2">  1       21 0.52357452E-01 0.40613782E+03</pdfrwt>
<totfact> 0.58178931E+02</totfact>
</mgrwt>
</event>
<event>
 4    1  0.4897983E-002  0.4504678E+03  0.7818608E-02  0.1027583E+00
         21   -1    0    0  501  502  0.00000000000E+00  0.00000000000E+00  0.22498487927E+03  0.22498487927E+03  0.00000000000E+00 0.  1.
         21   -1    0    0  502  503 -0.00000000000E+00 -0.00000000000E+00 -0.96790033602E+03  0.96790033602E+03  0.00000000000E+00 0. -1.
    9000007    1    1    2  501    0  0.80774154527E+02 -0.19077938782E+03 -0.21574700615E+03  0.49946772620E+03  0.40000000000E+03 0.  1.
   -9000007    1    1    2    0  503 -0.80774154527E+02  0.19077938782E+03 -0.52716845060E+03  0.69341748908E+03  0.40000000000E+03 0. -1.
<mgrwt>
<rscale>  2 0.45046780E+03</rscale>
<asrwt>0</asrwt>
<pdfrwt beam="1">  1       21 0.34613058E-01 0.45046780E+03</pdfrwt>
<pdfrwt beam="2">  1       21 0.14890775E+00 0.45046780E+03</pdfrwt>
<totfact> 0.21007286E+03</totfact>
</mgrwt>
</event>
<event>
 4    1  0.4897983E-002  0.4197873E+03  0.7818608E-02  0.1037136E+00
         21   -1    0    0  501  502  0.00000000000E+00  0.00000000000E+00  0.46236035121E+03  0.46236035121E+03  0.00000000000E+00 0.  1.
         21   -1    0    0  502  503 -0.00000000000E+00 -0.00000000000E+00 -0.38206808256E+03  0.38206808256E+03  0.00000000000E+00 0.  1.
    9000007    1    1    2  501    0 -0.11668018911E+03  0.51059579560E+02  0.61020163217E+02  0.42419901876E+03  0.40000000000E+03 0.  1.
   -9000007    1    1    2    0  503  0.11668018911E+03 -0.51059579560E+02  0.19272105434E+02  0.42022941502E+03  0.40000000000E+03 0.  1.
<mgrwt>
<rscale>  2 0.41978726E+03</rscale>
<asrwt>0</asrwt>
<pdfrwt beam="1">  1       21 0.71132362E-01 0.41978726E+03</pdfrwt>
<pdfrwt beam="2">  1       21 0.58779705E-01 0.41978726E+03</pdfrwt>
<totfact> 0.42926258E+03</totfact>
</mgrwt>
</event>
<event>
 4    1  0.4897983E-002  0.4233734E+03  0.7818608E-02  0.1035974E+00
         21   -1    0    0  501  502  0.00000000000E+00  0.00000000000E+00  0.10758319833E+04  0.10758319833E+04  0.00000000000E+00 0.  1.
         21   -1    0    0  502  503 -0.00000000000E+00 -0.00000000000E+00 -0.21293410964E+03  0.21293410964E+03  0.00000000000E+00 0.  1.
    9000007    1    1    2  501    0 -0.12769790188E+03 -0.54205643077E+02  0.73200275066E+03  0.84561991039E+03  0.40000000000E+03 0.  1.
   -9000007    1    1    2    0  503  0.12769790188E+03  0.54205643077E+02  0.13089512301E+03  0.44314618256E+03  0.40000000000E+03 0.  1.
<mgrwt>
<rscale>  2 0.42337336E+03</rscale>
<asrwt>0</asrwt>
<pdfrwt beam="1">  1       21 0.16551261E+00 0.42337336E+03</pdfrwt>
<pdfrwt beam="2">  1       21 0.32759094E-01 0.42337336E+03</pdfrwt>
<totfact> 0.17724871E+03</totfact>
</mgrwt>
</event>
<event>
 4    1  0.4897983E-002  0.4678416E+03  0.7818608E-02  0.1022531E+00
         21   -1    0    0  501  502  0.00000000000E+00  0.00000000000E+00  0.88883762153E+03  0.88883762153E+03  0.00000000000E+00 0. -1.
         21   -1    0    0  502  503 -0.00000000000E+00 -0.00000000000E+00 -0.32789145976E+03  0.32789145976E+03  0.00000000000E+00 0.  1.
    9000007    1    1    2  501    0  0.43007797108E+02  0.23880141731E+03  0.58404084188E+03  0.74831777509E+03  0.40000000000E+03 0.  1.
   -9000007    1    1    2    0  503 -0.43007797108E+02 -0.23880141731E+03 -0.23094680114E+02  0.46841130620E+03  0.40000000000E+03 0.  1.
<mgrwt>
<rscale>  2 0.46784163E+03</rscale>
<asrwt>0</asrwt>
<pdfrwt beam="1">  1       21 0.13674425E+00 0.46784163E+03</pdfrwt>
<pdfrwt beam="2">  1       21 0.50444840E-01 0.46784163E+03</pdfrwt>
<totfact> 0.11999600E+03</totfact>
</mgrwt>
</event>
<event>
 4    1  0.4897983E-002  0.4216952E+03  0.7818608E-02  0.1036516E+00
         21   -1    0    0  503  502  0.00000000000E+00  0.00000000000E+00  0.10231156289E+04  0.10231156289E+04  0.00000000000E+00 0.  1.
         21   -1    0    0  501  503 -0.00000000000E+00 -0.00000000000E+00 -0.29253864604E+03  0.29253864604E+03  0.00000000000E+00 0.  1.
    9000007    1    1    2  501    0  0.91554892732E+02  0.97183216066E+02 -0.53793927484E+02  0.42511252922E+03  0.40000000000E+03 0.  1.
   -9000007    1    1    2    0  502 -0.91554892732E+02 -0.97183216066E+02  0.78437091039E+03  0.89054174576E+03  0.40000000000E+03 0.  1.
<mgrwt>
<rscale>  2 0.42169524E+03</rscale>
<asrwt>0</asrwt>
<pdfrwt beam="1">  1       21 0.15740240E+00 0.42169524E+03</pdfrwt>
<pdfrwt beam="2">  1       21 0.45005946E-01 0.42169524E+03</pdfrwt>
<totfact> 0.10652522E+03</totfact>
</mgrwt>
</event>
<event>
 4    1  0.4897983E-002  0.4364129E+03  0.7818608E-02  0.1031853E+00
         21   -1    0    0  501  502  0.00000000000E+00  0.00000000000E+00  0.96245594763E+03  0.96245594763E+03  0.00000000000E+00 0. -1.
         21   -1    0    0  502  503 -0.00000000000E+00 -0.00000000000E+00 -0.25697567060E+03  0.25697567060E+03  0.00000000000E+00 0. -1.
    9000007    1    1    2  501    0  0.13867978475E+02 -0.17396510335E+03  0.64511409574E+03  0.77886351470E+03  0.40000000000E+03 0. -1.
   -9000007    1    1    2    0  503 -0.13867978475E+02  0.17396510335E+03  0.60366181289E+02  0.44056810354E+03  0.40000000000E+03 0. -1.
<mgrwt>
<rscale>  2 0.43641285E+03</rscale>
<asrwt>0</asrwt>
<pdfrwt beam="1">  1       21 0.14807014E+00 0.43641285E+03</pdfrwt>
<pdfrwt beam="2">  1       21 0.39534719E-01 0.43641285E+03</pdfrwt>
<totfact> 0.16361930E+03</totfact>
</mgrwt>
</event>
<event>
 4    1  0.4897983E-002  0.4409551E+03  0.7818608E-02  0.1030454E+00
         21   -1    0    0  501  502  0.00000000000E+00  0.00000000000E+00  0.58461466513E+03  0.58461466513E+03  0.00000000000E+00 0.  1.
         21   -1    0    0  502  503 -0.00000000000E+00 -0.00000000000E+00 -0.55261124978E+03  0.55261124978E+03  0.00000000000E+00 0.  1.
    9000007    1    1    2  501    0  0.12201140948E+03  0.13983767371E+03  0.37478468661E+03  0.57870970300E+03  0.40000000000E+03 0.  1.
   -9000007    1    1    2    0  503 -0.12201140948E+03 -0.13983767371E+03 -0.34278127127E+03  0.55851621191E+03  0.40000000000E+03 0.  1.
<mgrwt>
<rscale>  2 0.44095505E+03</rscale>
<asrwt>0</asrwt>
<pdfrwt beam="1">  1       21 0.89940718E-01 0.44095505E+03</pdfrwt>
<pdfrwt beam="2">  1       21 0.85017115E-01 0.44095505E+03</pdfrwt>
<totfact> 0.10774185E+03</totfact>
</mgrwt>
</event>
<event>
 4    1  0.4897983E-002  0.4134330E+03  0.7818608E-02  0.1039225E+00
         21   -1    0    0  501  502  0.00000000000E+00  0.00000000000E+00  0.59120077836E+03  0.59120077836E+03  0.00000000000E+00 0.  1.
         21   -1    0    0  502  503 -0.00000000000E+00 -0.00000000000E+00 -0.40911216513E+03  0.40911216513E+03  0.00000000000E+00 0.  1.
    9000007    1    1    2  501    0 -0.10420313669E+03  0.82798280540E+01  0.36191658982E+03  0.54946379975E+03  0.40000000000E+03 0.  1.
   -9000007    1    1    2    0  503  0.10420313669E+03 -0.82798280540E+01 -0.17982797660E+03  0.45084914374E+03  0.40000000000E+03 0.  1.
<mgrwt>
<rscale>  2 0.41343300E+03</rscale>
<asrwt>0</asrwt>
<pdfrwt beam="1">  1       21 0.90953965E-01 0.41343300E+03</pdfrwt>
<pdfrwt beam="2">  1       21 0.62940333E-01 0.41343300E+03</pdfrwt>
<totfact> 0.20992119E+03</totfact>
</mgrwt>
</event>
<event>
 4    1  0.4897983E-002  0.4136967E+03  0.7818608E-02  0.1039138E+00
         21   -1    0    0  501  502  0.00000000000E+00  0.00000000000E+00  0.23339872624E+03  0.23339872624E+03  0.00000000000E+00 0. -1.
         21   -1    0    0  502  503 -0.00000000000E+00 -0.00000000000E+00 -0.13421861004E+04  0.13421861004E+04  0.00000000000E+00 0. -1.
    9000007    1    1    2  501    0  0.59602640195E+02  0.87134815082E+02 -0.23774273115E+02  0.41437925477E+03  0.40000000000E+03 0. -1.
   -9000007    1    1    2    0  503 -0.59602640195E+02 -0.87134815082E+02 -0.10850131010E+04  0.11612055719E+04  0.40000000000E+03 0. -1.
<mgrwt>
<rscale>  2 0.41369669E+03</rscale>
<asrwt>0</asrwt>
<pdfrwt beam="1">  1       21 0.35907496E-01 0.41369669E+03</pdfrwt>
<pdfrwt beam="2">  1       21 0.20649017E+00 0.41369669E+03</pdfrwt>
<totfact> 0.77018210E+02</totfact>
</mgrwt>
</event>
<event>
 4    1  0.4897983E-002  0.5505160E+03  0.7818608E-02  0.1001375E+00
         21   -1    0    0  503  502  0.00000000000E+00  0.00000000000E+00  0.58939114660E+03  0.58939114660E+03  0.00000000000E+00 0. -1.
         21   -1    0    0  501  503 -0.00000000000E+00 -0.00000000000E+00 -0.89625796346E+03  0.89625796346E+03  0.00000000000E+00 0.  1.
    9000007    1    1    2  501    0 -0.19784731513E+03 -0.32237291836E+03 -0.63842201862E+03  0.84300090893E+03  0.40000000000E+03 0.  1.
   -9000007    1    1    2    0  502  0.19784731513E+03  0.32237291836E+03  0.33155520177E+03  0.64264820113E+03  0.40000000000E+03 0. -1.
<mgrwt>
<rscale>  2 0.55051599E+03</rscale>
<asrwt>0</asrwt>
<pdfrwt beam="1">  1       21 0.90675561E-01 0.55051599E+03</pdfrwt>
<pdfrwt beam="2">  1       21 0.13788584E+00 0.55051599E+03</pdfrwt>
<totfact> 0.30397092E+02</totfact>
</mgrwt>
</event>
<event>
 4    1  0.4897983E-002  0.4025395E+03  0.7818608E-02  0.1042904E+00
         21   -1    0    0  501  502  0.00000000000E+00  0.00000000000E+00  0.11157876462E+04  0.11157876462E+04  0.00000000000E+00 0.  1.
         21   -1    0    0  502  503 -0.00000000000E+00 -0.00000000000E+00 -0.17585482399E+03  0.17585482399E+03  0.00000000000E+00 0.  1.
    9000007    1    1    2  501    0 -0.42091806977E+02 -0.16319242614E+02  0.73950537357E+03  0.84196569730E+03  0.40000000000E+03 0.  1.
   -9000007    1    1    2    0  503  0.42091806977E+02  0.16319242614E+02  0.20042744862E+03  0.44967677287E+03  0.40000000000E+03 0.  1.
<mgrwt>
<rscale>  2 0.40253949E+03</rscale>
<asrwt>0</asrwt>
<pdfrwt beam="1">  1       21 0.17165963E+00 0.40253949E+03</pdfrwt>
<pdfrwt beam="2">  1       21 0.27054589E-01 0.40253949E+03</pdfrwt>
<totfact> 0.23575622E+03</totfact>
</mgrwt>
</event>
<event>
 4    1  0.4897983E-002  0.4085988E+03  0.7818608E-02  0.1040842E+00
         21   -1    0    0  501  502  0.00000000000E+00  0.00000000000E+00  0.22943454105E+03  0.22943454105E+03  0.00000000000E+00 0. -1.
         21   -1    0    0  502  503 -0.00000000000E+00 -0.00000000000E+00 -0.75806951925E+03  0.75806951925E+03  0.00000000000E+00 0. -1.
    9000007    1    1    2  501    0  0.53154867220E+00 -0.83382790311E+02 -0.16544461563E+03  0.44082297253E+03  0.40000000000E+03 0.  1.
   -9000007    1    1    2    0  503 -0.53154867220E+00  0.83382790311E+02 -0.36319036257E+03  0.54668108777E+03  0.40000000000E+03 0.  1.
<mgrwt>
<rscale>  2 0.40859879E+03</rscale>
<asrwt>0</asrwt>
<pdfrwt beam="1">  1       21 0.35297621E-01 0.40859879E+03</pdfrwt>
<pdfrwt beam="2">  1       21 0.11662608E+00 0.40859879E+03</pdfrwt>
<totfact> 0.38806689E+03</totfact>
</mgrwt>
</event>
<event>
 4    1  0.4897983E-002  0.4613764E+03  0.7818608E-02  0.1024383E+00
         21   -1    0    0  501  502  0.00000000000E+00  0.00000000000E+00  0.28235653715E+03  0.28235653715E+03  0.00000000000E+00 0. -1.
         21   -1    0    0  502  503 -0.00000000000E+00 -0.00000000000E+00 -0.85099680706E+03  0.85099680706E+03  0.00000000000E+00 0. -1.
    9000007    1    1    2  501    0  0.77643520697E+02  0.21642471338E+03 -0.47573566674E+03  0.66271607607E+03  0.40000000000E+03 0. -1.
   -9000007    1    1    2    0  503 -0.77643520697E+02 -0.21642471338E+03 -0.92904603159E+02  0.47063726814E+03  0.40000000000E+03 0. -1.
<mgrwt>
<rscale>  2 0.46137639E+03</rscale>
<asrwt>0</asrwt>
<pdfrwt beam="1">  1       21 0.43439467E-01 0.46137639E+03</pdfrwt>
<pdfrwt beam="2">  1       21 0.13092259E+00 0.46137639E+03</pdfrwt>
<totfact> 0.18474330E+03</totfact>
</mgrwt>
</event>
<event>
 4    1  0.4897983E-002  0.4013813E+03  0.7818608E-02  0.1043302E+00
         21   -1    0    0  503  502  0.00000000000E+00  0.00000000000E+00  0.35563524645E+03  0.35563524645E+03  0.00000000000E+00 0.  1.
         21   -1    0    0  501  503 -0.00000000000E+00 -0.00000000000E+00 -0.49048708017E+03  0.49048708017E+03  0.00000000000E+00 0.  1.
    9000007    1    1    2  501    0 -0.30380407973E+02 -0.13564143556E+02 -0.18436560922E+03  0.44169857713E+03  0.40000000000E+03 0. -1.
   -9000007    1    1    2    0  502  0.30380407973E+02  0.13564143556E+02  0.49513775500E+02  0.40442374948E+03  0.40000000000E+03 0. -1.
<mgrwt>
<rscale>  2 0.40138131E+03</rscale>
<asrwt>0</asrwt>
<pdfrwt beam="1">  1       21 0.54713115E-01 0.40138131E+03</pdfrwt>
<pdfrwt beam="2">  1       21 0.75459551E-01 0.40138131E+03</pdfrwt>
<totfact> 0.44155825E+03</totfact>
</mgrwt>
</event>
<event>
 4    1  0.4897983E-002  0.5629652E+03  0.7818608E-02  0.9985368E-01
         21   -1    0    0  503  502  0.00000000000E+00  0.00000000000E+00  0.77856348100E+03  0.77856348100E+03  0.00000000000E+00 0. -1.
         21   -1    0    0  501  503 -0.00000000000E+00 -0.00000000000E+00 -0.55056578256E+03  0.55056578256E+03  0.00000000000E+00 0.  1.
    9000007    1    1    2  501    0 -0.38047430793E+03  0.11031362808E+03 -0.22527646671E+03  0.60636563391E+03  0.40000000000E+03 0.  1.
   -9000007    1    1    2    0  502  0.38047430793E+03 -0.11031362808E+03  0.45327416515E+03  0.72276362964E+03  0.40000000000E+03 0. -1.
<mgrwt>
<rscale>  2 0.56296518E+03</rscale>
<asrwt>0</asrwt>
<pdfrwt beam="1">  1       21 0.11977900E+00 0.56296518E+03</pdfrwt>
<pdfrwt beam="2">  1       21 0.84702428E-01 0.56296518E+03</pdfrwt>
<totfact> 0.51310144E+02</totfact>
</mgrwt>
</event>
<event>
 4    1  0.4897983E-002  0.4087990E+03  0.7818608E-02  0.1040775E+00
         21   -1    0    0  503  502  0.00000000000E+00  0.00000000000E+00  0.20717235799E+04  0.20717235799E+04  0.00000000000E+00 0.  1.
         21   -1    0    0  501  503 -0.00000000000E+00 -0.00000000000E+00 -0.10187124068E+03  0.10187124068E+03  0.00000000000E+00 0.  1.
    9000007    1    1    2  501    0 -0.60721641125E+02  0.58562031813E+02  0.48907714107E+03  0.63742692066E+03  0.40000000000E+03 0.  1.
   -9000007    1    1    2    0  502  0.60721641125E+02 -0.58562031813E+02  0.14807751981E+04  0.15361678999E+04  0.40000000000E+03 0.  1.
<mgrwt>
<rscale>  2 0.40879901E+03</rscale>
<asrwt>0</asrwt>
<pdfrwt beam="1">  1       21 0.31872667E+00 0.40879901E+03</pdfrwt>
<pdfrwt beam="2">  1       21 0.15672500E-01 0.40879901E+03</pdfrwt>
<totfact> 0.78881770E+02</totfact>
</mgrwt>
</event>
<event>
 4    1  0.4897983E-002  0.4797860E+03  0.7818608E-02  0.1019194E+00
         21   -1    0    0  501  502  0.00000000000E+00  0.00000000000E+00  0.27354436888E+03  0.27354436888E+03  0.00000000000E+00 0. -1.
         21   -1    0    0  502  503 -0.00000000000E+00 -0.00000000000E+00 -0.13553178837E+04  0.13553178837E+04  0.00000000000E+00 0.  1.
    9000007    1    1    2  501    0  0.21429522127E+02 -0.26407453209E+03 -0.39436824774E+02  0.48140403620E+03  0.40000000000E+03 0. -1.
   -9000007    1    1    2    0  503 -0.21429522127E+02  0.26407453209E+03 -0.10423366901E+04  0.11474582164E+04  0.40000000000E+03 0.  1.
<mgrwt>
<rscale>  2 0.47978598E+03</rscale>
<asrwt>0</asrwt>
<pdfrwt beam="1">  1       21 0.42083749E-01 0.47978598E+03</pdfrwt>
<pdfrwt beam="2">  1       21 0.20851044E+00 0.47978598E+03</pdfrwt>
<totfact> 0.52224519E+02</totfact>
</mgrwt>
</event>
<event>
 4    1  0.4897983E-002  0.4446614E+03  0.7818608E-02  0.1029326E+00
         21   -1    0    0  503  502  0.00000000000E+00  0.00000000000E+00  0.44262167119E+03  0.44262167119E+03  0.00000000000E+00 0. -1.
         21   -1    0    0  501  503 -0.00000000000E+00 -0.00000000000E+00 -0.46918641576E+03  0.46918641576E+03  0.00000000000E+00 0.  1.
    9000007    1    1    2  501    0 -0.18787850686E+03  0.49248948903E+02  0.86501065162E+02  0.45299693882E+03  0.40000000000E+03 0. -1.
   -9000007    1    1    2    0  502  0.18787850686E+03 -0.49248948903E+02 -0.11306580973E+03  0.45881114812E+03  0.40000000000E+03 0. -1.
<mgrwt>
<rscale>  2 0.44466144E+03</rscale>
<asrwt>0</asrwt>
<pdfrwt beam="1">  1       21 0.68095642E-01 0.44466144E+03</pdfrwt>
<pdfrwt beam="2">  1       21 0.72182525E-01 0.44466144E+03</pdfrwt>
<totfact> 0.29735157E+03</totfact>
</mgrwt>
</event>
<event>
 4    1  0.4897983E-002  0.4831006E+03  0.7818608E-02  0.1018287E+00
         21   -1    0    0  501  502  0.00000000000E+00  0.00000000000E+00  0.14810911633E+04  0.14810911633E+04  0.00000000000E+00 0. -1.
         21   -1    0    0  502  503 -0.00000000000E+00 -0.00000000000E+00 -0.19043897749E+03  0.19043897749E+03  0.00000000000E+00 0. -1.
    9000007    1    1    2  501    0 -0.27071567277E+03 -0.99590028876E+01  0.99250393960E+03  0.11038343297E+04  0.40000000000E+03 0. -1.
   -9000007    1    1    2    0  503  0.27071567277E+03  0.99590028876E+01  0.29814824616E+03  0.56769581108E+03  0.40000000000E+03 0. -1.
<mgrwt>
<rscale>  2 0.48310057E+03</rscale>
<asrwt>0</asrwt>
<pdfrwt beam="1">  1       21 0.22786017E+00 0.48310057E+03</pdfrwt>
<pdfrwt beam="2">  1       21 0.29298305E-01 0.48310057E+03</pdfrwt>
<totfact> 0.81598637E+02</totfact>
</mgrwt>
</event>
<event>
 4    1  0.4897983E-002  0.4714037E+03  0.7818608E-02  0.1021525E+00
         21   -1    0    0  503  502  0.00000000000E+00  0.00000000000E+00  0.12438400917E+03  0.12438400917E+03  0.00000000000E+00 0.  1.
         21   -1    0    0  501  503 -0.00000000000E+00 -0.00000000000E+00 -0.27904447673E+04  0.27904447673E+04  0.00000000000E+00 0. -1.
    9000007    1    1    2  501    0  0.17175212732E+03  0.18089404769E+03 -0.22071781833E+04  0.22569574614E+04  0.40000000000E+03 0. -1.
   -9000007    1    1    2    0  502 -0.17175212732E+03 -0.18089404769E+03 -0.45888257488E+03  0.65787131512E+03  0.40000000000E+03 0.  1.
<mgrwt>
<rscale>  2 0.47140370E+03</rscale>
<asrwt>0</asrwt>
<pdfrwt beam="1">  1       21 0.19136000E-01 0.47140370E+03</pdfrwt>
<pdfrwt beam="2">  1       21 0.42929923E+00 0.47140370E+03</pdfrwt>
<totfact> 0.10540160E+02</totfact>
</mgrwt>
</event>
<event>
 4    1  0.4897983E-002  0.5029340E+03  0.7818608E-02  0.1013016E+00
         21   -1    0    0  501  502  0.00000000000E+00  0.00000000000E+00  0.87647910225E+03  0.87647910225E+03  0.00000000000E+00 0. -1.
         21   -1    0    0  502  503 -0.00000000000E+00 -0.00000000000E+00 -0.30582526566E+03  0.30582526566E+03  0.00000000000E+00 0. -1.
    9000007    1    1    2  501    0  0.26712446857E+03 -0.14692568262E+03  0.42566589635E+03  0.65888852869E+03  0.40000000000E+03 0. -1.
   -9000007    1    1    2    0  503 -0.26712446857E+03  0.14692568262E+03  0.14498794024E+03  0.52341583921E+03  0.40000000000E+03 0. -1.
<mgrwt>
<rscale>  2 0.50293403E+03</rscale>
<asrwt>0</asrwt>
<pdfrwt beam="1">  1       21 0.13484294E+00 0.50293403E+03</pdfrwt>
<pdfrwt beam="2">  1       21 0.47050041E-01 0.50293403E+03</pdfrwt>
<totfact> 0.14242240E+03</totfact>
</mgrwt>
</event>
<event>
 4    1  0.4897983E-002  0.4327122E+03  0.7818608E-02  0.1033007E+00
         21   -1    0    0  501  502  0.00000000000E+00  0.00000000000E+00  0.84554726757E+03  0.84554726757E+03  0.00000000000E+00 0. -1.
         21   -1    0    0  502  503 -0.00000000000E+00 -0.00000000000E+00 -0.23500819426E+03  0.23500819426E+03  0.00000000000E+00 0. -1.
    9000007    1    1    2  501    0 -0.97851396174E+01 -0.16475462620E+03  0.43507757690E+03  0.61362230544E+03  0.40000000000E+03 0. -1.
   -9000007    1    1    2    0  503  0.97851396174E+01  0.16475462620E+03  0.17546149642E+03  0.46693315639E+03  0.40000000000E+03 0. -1.
<mgrwt>
<rscale>  2 0.43271219E+03</rscale>
<asrwt>0</asrwt>
<pdfrwt beam="1">  1       21 0.13008419E+00 0.43271219E+03</pdfrwt>
<pdfrwt beam="2">  1       21 0.36155107E-01 0.43271219E+03</pdfrwt>
<totfact> 0.27707200E+03</totfact>
</mgrwt>
</event>
<event>
 4    1  0.4897983E-002  0.4560612E+03  0.7818608E-02  0.1025930E+00
         21   -1    0    0  503  502  0.00000000000E+00  0.00000000000E+00  0.17546359560E+04  0.17546359560E+04  0.00000000000E+00 0.  1.
         21   -1    0    0  501  503 -0.00000000000E+00 -0.00000000000E+00 -0.13531175133E+03  0.13531175133E+03  0.00000000000E+00 0.  1.
    9000007    1    1    2  501    0  0.20375808751E+03 -0.80464143847E+02  0.47695564151E+03  0.65990796376E+03  0.40000000000E+03 0.  1.
   -9000007    1    1    2    0  502 -0.20375808751E+03  0.80464143847E+02  0.11423685632E+04  0.12300397436E+04  0.40000000000E+03 0.  1.
<mgrwt>
<rscale>  2 0.45606122E+03</rscale>
<asrwt>0</asrwt>
<pdfrwt beam="1">  1       21 0.26994398E+00 0.45606122E+03</pdfrwt>
<pdfrwt beam="2">  1       21 0.20817194E-01 0.45606122E+03</pdfrwt>
<totfact> 0.88407716E+02</totfact>
</mgrwt>
</event>
<event>
 4    1  0.4897983E-002  0.6349121E+03  0.7818608E-02  0.9835510E-01
         21   -1    0    0  501  502  0.00000000000E+00  0.00000000000E+00  0.55119020184E+03  0.55119020184E+03  0.00000000000E+00 0. -1.
         21   -1    0    0  502  503 -0.00000000000E+00 -0.00000000000E+00 -0.10257357303E+04  0.10257357303E+04  0.00000000000E+00 0. -1.
    9000007    1    1    2  501    0 -0.88814028256E+02  0.48500045674E+03 -0.65967029626E+03  0.91557537888E+03  0.40000000000E+03 0. -1.
   -9000007    1    1    2    0  503  0.88814028256E+02 -0.48500045674E+03  0.18512476778E+03  0.66135055326E+03  0.40000000000E+03 0. -1.
<mgrwt>
<rscale>  2 0.63491210E+03</rscale>
<asrwt>0</asrwt>
<pdfrwt beam="1">  1       21 0.84798494E-01 0.63491210E+03</pdfrwt>
<pdfrwt beam="2">  1       21 0.15780549E+00 0.63491210E+03</pdfrwt>
<totfact> 0.23903175E+02</totfact>
</mgrwt>
</event>
<event>
 4    1  0.4897983E-002  0.5031667E+03  0.7818608E-02  0.1012956E+00
         21   -1    0    0  503  502  0.00000000000E+00  0.00000000000E+00  0.85184291617E+03  0.85184291617E+03  0.00000000000E+00 0. -1.
         21   -1    0    0  501  503 -0.00000000000E+00 -0.00000000000E+00 -0.44152633382E+03  0.44152633382E+03  0.00000000000E+00 0. -1.
    9000007    1    1    2  501    0 -0.28113939694E+03  0.11890053932E+03 -0.16456018244E+03  0.52939281484E+03  0.40000000000E+03 0. -1.
   -9000007    1    1    2    0  502  0.28113939694E+03 -0.11890053932E+03  0.57487676479E+03  0.76397643515E+03  0.40000000000E+03 0. -1.
<mgrwt>
<rscale>  2 0.50316667E+03</rscale>
<asrwt>0</asrwt>
<pdfrwt beam="1">  1       21 0.13105276E+00 0.50316667E+03</pdfrwt>
<pdfrwt beam="2">  1       21 0.67927128E-01 0.50316667E+03</pdfrwt>
<totfact> 0.69003517E+02</totfact>
</mgrwt>
</event>
<event>
 4    1  0.4897983E-002  0.4708061E+03  0.7818608E-02  0.1021693E+00
         21   -1    0    0  501  502  0.00000000000E+00  0.00000000000E+00  0.43020059448E+03  0.43020059448E+03  0.00000000000E+00 0.  1.
         21   -1    0    0  502  503 -0.00000000000E+00 -0.00000000000E+00 -0.86700219869E+03  0.86700219869E+03  0.00000000000E+00 0. -1.
    9000007    1    1    2  501    0  0.21139110426E+03 -0.13027735573E+03  0.19473205060E+03  0.50948892030E+03  0.40000000000E+03 0.  1.
   -9000007    1    1    2    0  503 -0.21139110426E+03  0.13027735573E+03 -0.63153365480E+03  0.78771387288E+03  0.40000000000E+03 0. -1.
<mgrwt>
<rscale>  2 0.47080610E+03</rscale>
<asrwt>0</asrwt>
<pdfrwt beam="1">  1       21 0.66184707E-01 0.47080610E+03</pdfrwt>
<pdfrwt beam="2">  1       21 0.13338495E+00 0.47080610E+03</pdfrwt>
<totfact> 0.70767694E+02</totfact>
</mgrwt>
</event>
<event>
 4    1  0.4897983E-002  0.5565628E+03  0.7818608E-02  0.9999862E-01
         21   -1    0    0  501  502  0.00000000000E+00  0.00000000000E+00  0.42496854685E+03  0.42496854685E+03  0.00000000000E+00 0. -1.
         21   -1    0    0  502  503 -0.00000000000E+00 -0.00000000000E+00 -0.80657156404E+03  0.80657156404E+03  0.00000000000E+00 0. -1.
    9000007    1    1    2  501    0 -0.38453203746E+03 -0.43558194362E+02  0.27655558414E+00  0.55656291703E+03  0.40000000000E+03 0. -1.
   -9000007    1    1    2    0  503  0.38453203746E+03  0.43558194362E+02 -0.38187957278E+03  0.67497719386E+03  0.40000000000E+03 0. -1.
<mgrwt>
<rscale>  2 0.55656285E+03</rscale>
<asrwt>0</asrwt>
<pdfrwt beam="1">  1       21 0.65379777E-01 0.55656285E+03</pdfrwt>
<pdfrwt beam="2">  1       21 0.12408793E+00 0.55656285E+03</pdfrwt>
<totfact> 0.84965851E+02</totfact>
</mgrwt>
</event>
<event>
 4    1  0.4897983E-002  0.4062833E+03  0.7818608E-02  0.1041625E+00
         21   -1    0    0  503  502  0.00000000000E+00  0.00000000000E+00  0.53266801928E+03  0.53266801928E+03  0.00000000000E+00 0.  1.
         21   -1    0    0  501  503 -0.00000000000E+00 -0.00000000000E+00 -0.96609933706E+03  0.96609933706E+03  0.00000000000E+00 0.  1.
    9000007    1    1    2  501    0 -0.36194707601E+02  0.61286517640E+02 -0.83432809245E+03  0.92799216589E+03  0.40000000000E+03 0.  1.
   -9000007    1    1    2    0  502  0.36194707601E+02 -0.61286517640E+02  0.40089677467E+03  0.57077519046E+03  0.40000000000E+03 0.  1.
<mgrwt>
<rscale>  2 0.40628327E+03</rscale>
<asrwt>0</asrwt>
<pdfrwt beam="1">  1       21 0.81948927E-01 0.40628327E+03</pdfrwt>
<pdfrwt beam="2">  1       21 0.14863067E+00 0.40628327E+03</pdfrwt>
<totfact> 0.33670697E+02</totfact>
</mgrwt>
</event>
<event>
 4    1  0.4897983E-002  0.5279118E+03  0.7818608E-02  0.1006740E+00
         21   -1    0    0  501  502  0.00000000000E+00  0.00000000000E+00  0.47249808784E+03  0.47249808784E+03  0.00000000000E+00 0. -1.
         21   -1    0    0  502  503 -0.00000000000E+00 -0.00000000000E+00 -0.78238263017E+03  0.78238263017E+03  0.00000000000E+00 0.  1.
    9000007    1    1    2  501    0 -0.33054365083E+03 -0.97117365945E+02  0.15633250178E+03  0.55057310049E+03  0.40000000000E+03 0. -1.
   -9000007    1    1    2    0  503  0.33054365083E+03  0.97117365945E+02 -0.46621704412E+03  0.70430761752E+03  0.40000000000E+03 0.  1.
<mgrwt>
<rscale>  2 0.52791182E+03</rscale>
<asrwt>0</asrwt>
<pdfrwt beam="1">  1       21 0.72692014E-01 0.52791182E+03</pdfrwt>
<pdfrwt beam="2">  1       21 0.12036656E+00 0.52791182E+03</pdfrwt>
<totfact> 0.73077967E+02</totfact>
</mgrwt>
</event>
<event>
 4    1  0.4897983E-002  0.4998836E+03  0.7818608E-02  0.1013809E+00
         21   -1    0    0  503  502  0.00000000000E+00  0.00000000000E+00  0.26160197903E+03  0.26160197903E+03  0.00000000000E+00 0.  1.
         21   -1    0    0  501  503 -0.00000000000E+00 -0.00000000000E+00 -0.96287308437E+03  0.96287308437E+03  0.00000000000E+00 0. -1.
    9000007    1    1    2  501    0 -0.13170840989E+03 -0.26932611717E+03 -0.29600152066E+03  0.58094798636E+03  0.40000000000E+03 0.  1.
   -9000007    1    1    2    0  502  0.13170840989E+03  0.26932611717E+03 -0.40526958467E+03  0.64352707704E+03  0.40000000000E+03 0. -1.
<mgrwt>
<rscale>  2 0.49988365E+03</rscale>
<asrwt>0</asrwt>
<pdfrwt beam="1">  1       21 0.40246458E-01 0.49988365E+03</pdfrwt>
<pdfrwt beam="2">  1       21 0.14813432E+00 0.49988365E+03</pdfrwt>
<totfact> 0.15365707E+03</totfact>
</mgrwt>
</event>
<event>
 4    1  0.4897983E-002  0.5609764E+03  0.7818608E-02  0.9989848E-01
         21   -1    0    0  503  502  0.00000000000E+00  0.00000000000E+00  0.23391898804E+03  0.23391898804E+03  0.00000000000E+00 0. -1.
         21   -1    0    0  501  503 -0.00000000000E+00 -0.00000000000E+00 -0.14721864494E+04  0.14721864494E+04  0.00000000000E+00 0. -1.
    9000007    1    1    2  501    0 -0.28208294095E+03 -0.27408704825E+03 -0.86955896043E+03  0.10348078475E+04  0.40000000000E+03 0. -1.
   -9000007    1    1    2    0  502  0.28208294095E+03  0.27408704825E+03 -0.36870850096E+03  0.67129758995E+03  0.40000000000E+03 0. -1.
<mgrwt>
<rscale>  2 0.56097638E+03</rscale>
<asrwt>0</asrwt>
<pdfrwt beam="1">  1       21 0.35987536E-01 0.56097638E+03</pdfrwt>
<pdfrwt beam="2">  1       21 0.22649022E+00 0.56097638E+03</pdfrwt>
<totfact> 0.53258768E+02</totfact>
</mgrwt>
</event>
<event>
 4    1  0.4897983E-002  0.5574875E+03  0.7818608E-02  0.9997756E-01
         21   -1    0    0  501  502  0.00000000000E+00  0.00000000000E+00  0.77430425198E+03  0.77430425198E+03  0.00000000000E+00 0.  1.
         21   -1    0    0  502  503 -0.00000000000E+00 -0.00000000000E+00 -0.15412721001E+04  0.15412721001E+04  0.00000000000E+00 0. -1.
    9000007    1    1    2  501    0 -0.18667649239E+03  0.34050586620E+03  0.61219841205E+03  0.82799713371E+03  0.40000000000E+03 0.  1.
   -9000007    1    1    2    0  503  0.18667649239E+03 -0.34050586620E+03 -0.13791662602E+04  0.14875792184E+04  0.40000000000E+03 0. -1.
<mgrwt>
<rscale>  2 0.55748754E+03</rscale>
<asrwt>0</asrwt>
<pdfrwt beam="1">  1       21 0.11912373E+00 0.55748754E+03</pdfrwt>
<pdfrwt beam="2">  1       21 0.23711878E+00 0.55748754E+03</pdfrwt>
<totfact> 0.30726677E+01</totfact>
</mgrwt>
</event>
<event>
 4    1  0.4897983E-002  0.4736908E+03  0.7818608E-02  0.1020884E+00
         21   -1    0    0  501  502  0.00000000000E+00  0.00000000000E+00  0.11206409247E+04  0.11206409247E+04  0.00000000000E+00 0. -1.
         21   -1    0    0  502  503 -0.00000000000E+00 -0.00000000000E+00 -0.29174556760E+03  0.29174556760E+03  0.00000000000E+00 0. -1.
    9000007    1    1    2  501    0  0.18974569206E+03  0.16846225490E+03  0.80997383660E+03  0.93831794982E+03  0.40000000000E+03 0. -1.
   -9000007    1    1    2    0  503 -0.18974569206E+03 -0.16846225490E+03  0.18921520449E+02  0.47406854243E+03  0.40000000000E+03 0. -1.
<mgrwt>
<rscale>  2 0.47369078E+03</rscale>
<asrwt>0</asrwt>
<pdfrwt beam="1">  1       21 0.17240629E+00 0.47369078E+03</pdfrwt>
<pdfrwt beam="2">  1       21 0.44883934E-01 0.47369078E+03</pdfrwt>
<totfact> 0.81022205E+02</totfact>
</mgrwt>
</event>
<event>
 4    1  0.4897983E-002  0.5504194E+03  0.7818608E-02  0.1001397E+00
         21   -1    0    0  503  502  0.00000000000E+00  0.00000000000E+00  0.13378233392E+04  0.13378233392E+04  0.00000000000E+00 0. -1.
         21   -1    0    0  501  503 -0.00000000000E+00 -0.00000000000E+00 -0.53870440698E+03  0.53870440698E+03  0.00000000000E+00 0.  1.
    9000007    1    1    2  501    0 -0.34114273321E+03 -0.16304343693E+03 -0.31476919585E+03  0.63406716789E+03  0.40000000000E+03 0.  1.
   -9000007    1    1    2    0  502  0.34114273321E+03  0.16304343693E+03  0.11138881281E+04  0.12424605783E+04  0.40000000000E+03 0. -1.
<mgrwt>
<rscale>  2 0.55041941E+03</rscale>
<asrwt>0</asrwt>
<pdfrwt beam="1">  1       21 0.20581897E+00 0.55041941E+03</pdfrwt>
<pdfrwt beam="2">  1       21 0.82877602E-01 0.55041941E+03</pdfrwt>
<totfact> 0.11883766E+02</totfact>
</mgrwt>
</event>
<event>
 4    1  0.4897983E-002  0.4631415E+03  0.7818608E-02  0.1023874E+00
         21   -1    0    0  503  502  0.00000000000E+00  0.00000000000E+00  0.32661594053E+03  0.32661594053E+03  0.00000000000E+00 0. -1.
         21   -1    0    0  501  503 -0.00000000000E+00 -0.00000000000E+00 -0.69502472168E+03  0.69502472168E+03  0.00000000000E+00 0. -1.
    9000007    1    1    2  501    0  0.22942671525E+03 -0.43167285262E+02 -0.30410204096E+03  0.55405602921E+03  0.40000000000E+03 0. -1.
   -9000007    1    1    2    0  502 -0.22942671525E+03  0.43167285262E+02 -0.64306740196E+02  0.46758463301E+03  0.40000000000E+03 0. -1.
<mgrwt>
<rscale>  2 0.46314148E+03</rscale>
<asrwt>0</asrwt>
<pdfrwt beam="1">  1       21 0.50248607E-01 0.46314148E+03</pdfrwt>
<pdfrwt beam="2">  1       21 0.10692688E+00 0.46314148E+03</pdfrwt>
<totfact> 0.22680302E+03</totfact>
</mgrwt>
</event>
<event>
 4    1  0.4897983E-002  0.5136049E+03  0.7818608E-02  0.1010288E+00
         21   -1    0    0  503  502  0.00000000000E+00  0.00000000000E+00  0.60359034434E+03  0.60359034434E+03  0.00000000000E+00 0. -1.
         21   -1    0    0  501  503 -0.00000000000E+00 -0.00000000000E+00 -0.43725876258E+03  0.43725876258E+03  0.00000000000E+00 0.  1.
    9000007    1    1    2  501    0 -0.23059825185E+03  0.22497659244E+03  0.94942372585E+02  0.52230649528E+03  0.40000000000E+03 0. -1.
   -9000007    1    1    2    0  502  0.23059825185E+03 -0.22497659244E+03  0.71389209183E+02  0.51854261164E+03  0.40000000000E+03 0.  1.
<mgrwt>
<rscale>  2 0.51360493E+03</rscale>
<asrwt>0</asrwt>
<pdfrwt beam="1">  1       21 0.92860053E-01 0.51360493E+03</pdfrwt>
<pdfrwt beam="2">  1       21 0.67270579E-01 0.51360493E+03</pdfrwt>
<totfact> 0.16607527E+03</totfact>
</mgrwt>
</event>
<event>
 4    1  0.4897983E-002  0.4140835E+03  0.7818608E-02  0.1039009E+00
         21   -1    0    0  503  502  0.00000000000E+00  0.00000000000E+00  0.36372286721E+03  0.36372286721E+03  0.00000000000E+00 0. -1.
         21   -1    0    0  501  503 -0.00000000000E+00 -0.00000000000E+00 -0.62717375110E+03  0.62717375110E+03  0.00000000000E+00 0. -1.
    9000007    1    1    2  501    0  0.11599642310E+02 -0.10644541653E+03 -0.37862920982E+03  0.56109291292E+03  0.40000000000E+03 0.  1.
   -9000007    1    1    2    0  502 -0.11599642310E+02  0.10644541653E+03  0.11517832592E+03  0.42980370539E+03  0.40000000000E+03 0.  1.
<mgrwt>
<rscale>  2 0.41408354E+03</rscale>
<asrwt>0</asrwt>
<pdfrwt beam="1">  1       21 0.55957365E-01 0.41408354E+03</pdfrwt>
<pdfrwt beam="2">  1       21 0.96488269E-01 0.41408354E+03</pdfrwt>
<totfact> 0.23566275E+03</totfact>
</mgrwt>
</event>
<event>
 4    1  0.4897983E-002  0.4684034E+03  0.7818608E-02  0.1022372E+00
         21   -1    0    0  503  502  0.00000000000E+00  0.00000000000E+00  0.27376801283E+03  0.27376801283E+03  0.00000000000E+00 0.  1.
         21   -1    0    0  501  503 -0.00000000000E+00 -0.00000000000E+00 -0.10378901609E+04  0.10378901609E+04  0.00000000000E+00 0.  1.
    9000007    1    1    2  501    0  0.19568495328E+03 -0.14528992064E+03 -0.69510684584E+03  0.83819764323E+03  0.40000000000E+03 0.  1.
   -9000007    1    1    2    0  502 -0.19568495328E+03  0.14528992064E+03 -0.69015302191E+02  0.47346053047E+03  0.40000000000E+03 0.  1.
<mgrwt>
<rscale>  2 0.46840342E+03</rscale>
<asrwt>0</asrwt>
<pdfrwt beam="1">  1       21 0.42118156E-01 0.46840342E+03</pdfrwt>
<pdfrwt beam="2">  1       21 0.15967541E+00 0.46840342E+03</pdfrwt>
<totfact> 0.11518528E+03</totfact>
</mgrwt>
</event>
<event>
 4    1  0.4897983E-002  0.4744365E+03  0.7818608E-02  0.1020675E+00
         21   -1    0    0  503  502  0.00000000000E+00  0.00000000000E+00  0.15576717634E+04  0.15576717634E+04  0.00000000000E+00 0. -1.
         21   -1    0    0  501  503 -0.00000000000E+00 -0.00000000000E+00 -0.17146479028E+03  0.17146479028E+03  0.00000000000E+00 0.  1.
    9000007    1    1    2  501    0  0.25511215721E+03 -0.27952754456E+01  0.35027495277E+03  0.58973092920E+03  0.40000000000E+03 0.  1.
   -9000007    1    1    2    0  502 -0.25511215721E+03  0.27952754456E+01  0.10359320204E+04  0.11394056245E+04  0.40000000000E+03 0.  1.
<mgrwt>
<rscale>  2 0.47443654E+03</rscale>
<asrwt>0</asrwt>
<pdfrwt beam="1">  1       21 0.23964180E+00 0.47443654E+03</pdfrwt>
<pdfrwt beam="2">  1       21 0.26379200E-01 0.47443654E+03</pdfrwt>
<totfact> 0.84985751E+02</totfact>
</mgrwt>
</event>
<event>
 4    1  0.4897983E-002  0.4661213E+03  0.7818608E-02  0.1023021E+00
         21   -1    0    0  503  502  0.00000000000E+00  0.00000000000E+00  0.42966697971E+03  0.42966697971E+03  0.00000000000E+00 0.  1.
         21   -1    0    0  501  503 -0.00000000000E+00 -0.00000000000E+00 -0.50575789836E+03  0.50575789836E+03  0.00000000000E+00 0. -1.
    9000007    1    1    2  501    0 -0.22986509108E+03  0.66566328183E+02 -0.44265467719E+02  0.46821839752E+03  0.40000000000E+03 0. -1.
   -9000007    1    1    2    0  502  0.22986509108E+03 -0.66566328183E+02 -0.31825450929E+02  0.46720648055E+03  0.40000000000E+03 0.  1.
<mgrwt>
<rscale>  2 0.46612127E+03</rscale>
<asrwt>0</asrwt>
<pdfrwt beam="1">  1       21 0.66102612E-01 0.46612127E+03</pdfrwt>
<pdfrwt beam="2">  1       21 0.77808907E-01 0.46612127E+03</pdfrwt>
<totfact> 0.26573133E+03</totfact>
</mgrwt>
</event>
<event>
 4    1  0.4897983E-002  0.4560973E+03  0.7818608E-02  0.1025919E+00
         21   -1    0    0  503  502  0.00000000000E+00  0.00000000000E+00  0.21597987982E+03  0.21597987982E+03  0.00000000000E+00 0.  1.
         21   -1    0    0  501  503 -0.00000000000E+00 -0.00000000000E+00 -0.10965054931E+04  0.10965054931E+04  0.00000000000E+00 0. -1.
    9000007    1    1    2  501    0 -0.10650698901E+03  0.19152291452E+03 -0.66910510165E+03  0.80976935145E+03  0.40000000000E+03 0. -1.
   -9000007    1    1    2    0  502  0.10650698901E+03 -0.19152291452E+03 -0.21142051161E+03  0.50271602145E+03  0.40000000000E+03 0.  1.
<mgrwt>
<rscale>  2 0.45609732E+03</rscale>
<asrwt>0</asrwt>
<pdfrwt beam="1">  1       21 0.33227674E-01 0.45609732E+03</pdfrwt>
<pdfrwt beam="2">  1       21 0.16869315E+00 0.45609732E+03</pdfrwt>
<totfact> 0.16099811E+03</totfact>
</mgrwt>
</event>
<event>
 4    1  0.4897983E-002  0.4792922E+03  0.7818608E-02  0.1019330E+00
         21   -1    0    0  503  502  0.00000000000E+00  0.00000000000E+00  0.29109022172E+03  0.29109022172E+03  0.00000000000E+00 0. -1.
         21   -1    0    0  501  503 -0.00000000000E+00 -0.00000000000E+00 -0.81380915543E+03  0.81380915543E+03  0.00000000000E+00 0. -1.
    9000007    1    1    2  501    0  0.19857798015E+03  0.17403393611E+03 -0.35747715856E+03  0.59792218893E+03  0.40000000000E+03 0. -1.
   -9000007    1    1    2    0  502 -0.19857798015E+03 -0.17403393611E+03 -0.16524177515E+03  0.50697718822E+03  0.40000000000E+03 0. -1.
<mgrwt>
<rscale>  2 0.47929221E+03</rscale>
<asrwt>0</asrwt>
<pdfrwt beam="1">  1       21 0.44783112E-01 0.47929221E+03</pdfrwt>
<pdfrwt beam="2">  1       21 0.12520141E+00 0.47929221E+03</pdfrwt>
<totfact> 0.19330406E+03</totfact>
</mgrwt>
</event>
<event>
 4    1  0.4897983E-002  0.4200407E+03  0.7818608E-02  0.1037053E+00
         21   -1    0    0  501  502  0.00000000000E+00  0.00000000000E+00  0.13122474843E+04  0.13122474843E+04  0.00000000000E+00 0. -1.
         21   -1    0    0  502  503 -0.00000000000E+00 -0.00000000000E+00 -0.14537941869E+03  0.14537941869E+03  0.00000000000E+00 0. -1.
    9000007    1    1    2  501    0  0.34872158602E+02 -0.12336176378E+03  0.38362030554E+03  0.56885739077E+03  0.40000000000E+03 0. -1.
   -9000007    1    1    2    0  503 -0.34872158602E+02  0.12336176378E+03  0.78324776005E+03  0.88876951221E+03  0.40000000000E+03 0. -1.
<mgrwt>
<rscale>  2 0.42004070E+03</rscale>
<asrwt>0</asrwt>
<pdfrwt beam="1">  1       21 0.20188422E+00 0.42004070E+03</pdfrwt>
<pdfrwt beam="2">  1       21 0.22366065E-01 0.42004070E+03</pdfrwt>
<totfact> 0.20936819E+03</totfact>
</mgrwt>
</event>
<event>
 4    1  0.4897983E-002  0.5410451E+03  0.7818608E-02  0.1003588E+00
         21   -1    0    0  501  502  0.00000000000E+00  0.00000000000E+00  0.11057483028E+04  0.11057483028E+04  0.00000000000E+00 0.  1.
         21   -1    0    0  502  503 -0.00000000000E+00 -0.00000000000E+00 -0.27005252905E+03  0.27005252905E+03  0.00000000000E+00 0.  1.
    9000007    1    1    2  501    0 -0.33947452503E+03  0.13223782427E+03  0.51438052380E+03  0.74653674965E+03  0.40000000000E+03 0.  1.
   -9000007    1    1    2    0  503  0.33947452503E+03 -0.13223782427E+03  0.32131524997E+03  0.62926408222E+03  0.40000000000E+03 0.  1.
<mgrwt>
<rscale>  2 0.54104510E+03</rscale>
<asrwt>0</asrwt>
<pdfrwt beam="1">  1       21 0.17011512E+00 0.54104510E+03</pdfrwt>
<pdfrwt beam="2">  1       21 0.41546544E-01 0.54104510E+03</pdfrwt>
<totfact> 0.96350960E+02</totfact>
</mgrwt>
</event>
<event>
 4    1  0.4897983E-002  0.4117443E+03  0.7818608E-02  0.1039787E+00
         21   -1    0    0  503  502  0.00000000000E+00  0.00000000000E+00  0.19627334446E+03  0.19627334446E+03  0.00000000000E+00 0.  1.
         21   -1    0    0  501  503 -0.00000000000E+00 -0.00000000000E+00 -0.10511122870E+04  0.10511122870E+04  0.00000000000E+00 0.  1.
    9000007    1    1    2  501    0  0.10842045038E+02 -0.97035337508E+02 -0.69073329577E+03  0.80414295529E+03  0.40000000000E+03 0.  1.
   -9000007    1    1    2    0  502 -0.10842045038E+02  0.97035337508E+02 -0.16410564676E+03  0.44324267615E+03  0.40000000000E+03 0.  1.
<mgrwt>
<rscale>  2 0.41174435E+03</rscale>
<asrwt>0</asrwt>
<pdfrwt beam="1">  1       21 0.30195899E-01 0.41174435E+03</pdfrwt>
<pdfrwt beam="2">  1       21 0.16170958E+00 0.41174435E+03</pdfrwt>
<totfact> 0.22367870E+03</totfact>
</mgrwt>
</event>
<event>
 4    1  0.4897983E-002  0.5025376E+03  0.7818608E-02  0.1013119E+00
         21   -1    0    0  503  502  0.00000000000E+00  0.00000000000E+00  0.49722580185E+03  0.49722580185E+03  0.00000000000E+00 0.  1.
         21   -1    0    0  501  503 -0.00000000000E+00 -0.00000000000E+00 -0.53256531221E+03  0.53256531221E+03  0.00000000000E+00 0.  1.
    9000007    1    1    2  501    0  0.28158892466E+03  0.11511629657E+03 -0.12846500207E+03  0.51869773567E+03  0.40000000000E+03 0.  1.
   -9000007    1    1    2    0  502 -0.28158892466E+03 -0.11511629657E+03  0.93125491706E+02  0.51109337839E+03  0.40000000000E+03 0.  1.
<mgrwt>
<rscale>  2 0.50253764E+03</rscale>
<asrwt>0</asrwt>
<pdfrwt beam="1">  1       21 0.76496277E-01 0.50253764E+03</pdfrwt>
<pdfrwt beam="2">  1       21 0.81933125E-01 0.50253764E+03</pdfrwt>
<totfact> 0.16733754E+03</totfact>
</mgrwt>
</event>
<event>
 4    1  0.4897983E-002  0.1050024E+04  0.7818608E-02  0.9255319E-01
         21   -1    0    0  503  502  0.00000000000E+00  0.00000000000E+00  0.21685677391E+04  0.21685677391E+04  0.00000000000E+00 0.  1.
         21   -1    0    0  501  503 -0.00000000000E+00 -0.00000000000E+00 -0.55354792435E+03  0.55354792435E+03  0.00000000000E+00 0. -1.
    9000007    1    1    2  501    0  0.39463941348E+03 -0.88702342399E+03  0.41890815450E+03  0.11305020404E+04  0.40000000000E+03 0. -1.
   -9000007    1    1    2    0  502 -0.39463941348E+03  0.88702342399E+03  0.11961116602E+04  0.15916136231E+04  0.40000000000E+03 0.  1.
<mgrwt>
<rscale>  2 0.10500242E+04</rscale>
<asrwt>0</asrwt>
<pdfrwt beam="1">  1       21 0.33362580E+00 0.10500242E+04</pdfrwt>
<pdfrwt beam="2">  1       21 0.85161221E-01 0.10500242E+04</pdfrwt>
<totfact> 0.14635013E+01</totfact>
</mgrwt>
</event>
<event>
 4    1  0.4897983E-002  0.4931839E+03  0.7818608E-02  0.1015573E+00
         21   -1    0    0  501  502  0.00000000000E+00  0.00000000000E+00  0.14856566203E+03  0.14856566203E+03  0.00000000000E+00 0. -1.
         21   -1    0    0  502  503 -0.00000000000E+00 -0.00000000000E+00 -0.16411022296E+04  0.16411022296E+04  0.00000000000E+00 0. -1.
    9000007    1    1    2  501    0 -0.28840607885E+03  0.72327746305E+01 -0.78995263052E+03  0.93126555708E+03  0.40000000000E+03 0. -1.
   -9000007    1    1    2    0  503  0.28840607885E+03 -0.72327746305E+01 -0.70258393701E+03  0.85840233451E+03  0.40000000000E+03 0. -1.
<mgrwt>
<rscale>  2 0.49318392E+03</rscale>
<asrwt>0</asrwt>
<pdfrwt beam="1">  1       21 0.22856257E-01 0.49318392E+03</pdfrwt>
<pdfrwt beam="2">  1       21 0.25247725E+00 0.49318392E+03</pdfrwt>
<totfact> 0.92724842E+02</totfact>
</mgrwt>
</event>
<event>
 4    1  0.4897983E-002  0.4730566E+03  0.7818608E-02  0.1021061E+00
         21   -1    0    0  501  502  0.00000000000E+00  0.00000000000E+00  0.11320833505E+04  0.11320833505E+04  0.00000000000E+00 0.  1.
         21   -1    0    0  502  503 -0.00000000000E+00 -0.00000000000E+00 -0.37714700099E+03  0.37714700099E+03  0.00000000000E+00 0.  1.
    9000007    1    1    2  501    0  0.75663760661E+02  0.24095134086E+03  0.89802808642E+03  0.10150059100E+04  0.40000000000E+03 0.  1.
   -9000007    1    1    2    0  503 -0.75663760661E+02 -0.24095134086E+03 -0.14309173694E+03  0.49422444145E+03  0.40000000000E+03 0.  1.
<mgrwt>
<rscale>  2 0.47305661E+03</rscale>
<asrwt>0</asrwt>
<pdfrwt beam="1">  1       21 0.17416667E+00 0.47305661E+03</pdfrwt>
<pdfrwt beam="2">  1       21 0.58022616E-01 0.47305661E+03</pdfrwt>
<totfact> 0.45472974E+02</totfact>
</mgrwt>
</event>
<event>
 4    1  0.4897983E-002  0.5024534E+03  0.7818608E-02  0.1013141E+00
         21   -1    0    0  503  502  0.00000000000E+00  0.00000000000E+00  0.59836323064E+03  0.59836323064E+03  0.00000000000E+00 0.  1.
         21   -1    0    0  501  503 -0.00000000000E+00 -0.00000000000E+00 -0.43471950501E+03  0.43471950501E+03  0.00000000000E+00 0. -1.
    9000007    1    1    2  501    0 -0.30337632089E+03  0.20547937683E+02 -0.68230784715E+01  0.50249971564E+03  0.40000000000E+03 0. -1.
   -9000007    1    1    2    0  502  0.30337632089E+03 -0.20547937683E+02  0.17046680411E+03  0.53058302001E+03  0.40000000000E+03 0.  1.
<mgrwt>
<rscale>  2 0.50245339E+03</rscale>
<asrwt>0</asrwt>
<pdfrwt beam="1">  1       21 0.92055882E-01 0.50245339E+03</pdfrwt>
<pdfrwt beam="2">  1       21 0.66879924E-01 0.50245339E+03</pdfrwt>
<totfact> 0.17243177E+03</totfact>
</mgrwt>
</event>
<event>
 4    1  0.4897983E-002  0.6745096E+03  0.7818608E-02  0.9761845E-01
         21   -1    0    0  503  502  0.00000000000E+00  0.00000000000E+00  0.20814317952E+03  0.20814317952E+03  0.00000000000E+00 0.  1.
         21   -1    0    0  501  503 -0.00000000000E+00 -0.00000000000E+00 -0.22654629533E+04  0.22654629533E+04  0.00000000000E+00 0. -1.
    9000007    1    1    2  501    0 -0.54231817838E+03  0.29225812008E+02 -0.12605598051E+04  0.14296762490E+04  0.40000000000E+03 0.  1.
   -9000007    1    1    2    0  502  0.54231817838E+03 -0.29225812008E+02 -0.79675996872E+03  0.10439298839E+04  0.40000000000E+03 0. -1.
<mgrwt>
<rscale>  2 0.67450957E+03</rscale>
<asrwt>0</asrwt>
<pdfrwt beam="1">  1       21 0.32022026E-01 0.67450957E+03</pdfrwt>
<pdfrwt beam="2">  1       21 0.34853278E+00 0.67450957E+03</pdfrwt>
<totfact> 0.11371011E+02</totfact>
</mgrwt>
</event>
<event>
 4    1  0.4897983E-002  0.4091138E+03  0.7818608E-02  0.1040669E+00
         21   -1    0    0  503  502  0.00000000000E+00  0.00000000000E+00  0.53722596202E+03  0.53722596202E+03  0.00000000000E+00 0. -1.
         21   -1    0    0  501  503 -0.00000000000E+00 -0.00000000000E+00 -0.31234442287E+03  0.31234442287E+03  0.00000000000E+00 0. -1.
    9000007    1    1    2  501    0  0.21503727031E+02 -0.83136727723E+02  0.91052460185E+02  0.41912370045E+03  0.40000000000E+03 0.  1.
   -9000007    1    1    2    0  502 -0.21503727031E+02  0.83136727723E+02  0.13382907897E+03  0.43044668445E+03  0.40000000000E+03 0.  1.
<mgrwt>
<rscale>  2 0.40911383E+03</rscale>
<asrwt>0</asrwt>
<pdfrwt beam="1">  1       21 0.82650148E-01 0.40911383E+03</pdfrwt>
<pdfrwt beam="2">  1       21 0.48052988E-01 0.40911383E+03</pdfrwt>
<totfact> 0.47093641E+03</totfact>
</mgrwt>
</event>
<event>
 4    1  0.4897983E-002  0.4246638E+03  0.7818608E-02  0.1035559E+00
         21   -1    0    0  501  502  0.00000000000E+00  0.00000000000E+00  0.53918047744E+03  0.53918047744E+03  0.00000000000E+00 0. -1.
         21   -1    0    0  502  503 -0.00000000000E+00 -0.00000000000E+00 -0.71455682767E+03  0.71455682767E+03  0.00000000000E+00 0. -1.
    9000007    1    1    2  501    0 -0.20805763413E+02  0.14109026656E+03  0.36950522009E+03  0.56291513640E+03  0.40000000000E+03 0. -1.
   -9000007    1    1    2    0  503  0.20805763413E+02 -0.14109026656E+03 -0.54488157032E+03  0.69082216871E+03  0.40000000000E+03 0. -1.
<mgrwt>
<rscale>  2 0.42466380E+03</rscale>
<asrwt>0</asrwt>
<pdfrwt beam="1">  1       21 0.82950843E-01 0.42466380E+03</pdfrwt>
<pdfrwt beam="2">  1       21 0.10993182E+00 0.42466380E+03</pdfrwt>
<totfact> 0.70651033E+02</totfact>
</mgrwt>
</event>
<event>
 4    1  0.4897983E-002  0.4655233E+03  0.7818608E-02  0.1023191E+00
         21   -1    0    0  501  502  0.00000000000E+00  0.00000000000E+00  0.25005234455E+03  0.25005234455E+03  0.00000000000E+00 0.  1.
         21   -1    0    0  502  503 -0.00000000000E+00 -0.00000000000E+00 -0.92854224047E+03  0.92854224047E+03  0.00000000000E+00 0. -1.
    9000007    1    1    2  501    0 -0.12221362778E+03 -0.20439114008E+03 -0.18712192081E+03  0.50172355158E+03  0.40000000000E+03 0. -1.
   -9000007    1    1    2    0  503  0.12221362778E+03  0.20439114008E+03 -0.49136797511E+03  0.67687103345E+03  0.40000000000E+03 0. -1.
<mgrwt>
<rscale>  2 0.46552326E+03</rscale>
<asrwt>0</asrwt>
<pdfrwt beam="1">  1       21 0.38469591E-01 0.46552326E+03</pdfrwt>
<pdfrwt beam="2">  1       21 0.14285265E+00 0.46552326E+03</pdfrwt>
<totfact> 0.18838525E+03</totfact>
</mgrwt>
</event>
<event>
 4    1  0.4897983E-002  0.4627541E+03  0.7818608E-02  0.1023985E+00
         21   -1    0    0  503  502  0.00000000000E+00  0.00000000000E+00  0.15363234603E+03  0.15363234603E+03  0.00000000000E+00 0. -1.
         21   -1    0    0  501  503 -0.00000000000E+00 -0.00000000000E+00 -0.14810165408E+04  0.14810165408E+04  0.00000000000E+00 0. -1.
    9000007    1    1    2  501    0 -0.20208763465E+03  0.11533423669E+03 -0.86196985085E+03  0.97833195900E+03  0.40000000000E+03 0. -1.
   -9000007    1    1    2    0  502  0.20208763465E+03 -0.11533423669E+03 -0.46541434395E+03  0.65631692785E+03  0.40000000000E+03 0. -1.
<mgrwt>
<rscale>  2 0.46275414E+03</rscale>
<asrwt>0</asrwt>
<pdfrwt beam="1">  1       21 0.23635746E-01 0.46275414E+03</pdfrwt>
<pdfrwt beam="2">  1       21 0.22784870E+00 0.46275414E+03</pdfrwt>
<totfact> 0.12547817E+03</totfact>
</mgrwt>
</event>
<event>
 4    1  0.4897983E-002  0.5487685E+03  0.7818608E-02  0.1001779E+00
         21   -1    0    0  503  502  0.00000000000E+00  0.00000000000E+00  0.60195670562E+03  0.60195670562E+03  0.00000000000E+00 0.  1.
         21   -1    0    0  501  503 -0.00000000000E+00 -0.00000000000E+00 -0.50170079229E+03  0.50170079229E+03  0.00000000000E+00 0. -1.
    9000007    1    1    2  501    0  0.29028179469E+03  0.23850231645E+03  0.79494557148E+02  0.55449640206E+03  0.40000000000E+03 0.  1.
   -9000007    1    1    2    0  502 -0.29028179469E+03 -0.23850231645E+03  0.20761356179E+02  0.54916109585E+03  0.40000000000E+03 0. -1.
<mgrwt>
<rscale>  2 0.54876851E+03</rscale>
<asrwt>0</asrwt>
<pdfrwt beam="1">  1       21 0.92608725E-01 0.54876851E+03</pdfrwt>
<pdfrwt beam="2">  1       21 0.77184737E-01 0.54876851E+03</pdfrwt>
<totfact> 0.12089456E+03</totfact>
</mgrwt>
</event>
<event>
 4    1  0.4897983E-002  0.4953431E+03  0.7818608E-02  0.1015002E+00
         21   -1    0    0  503  502  0.00000000000E+00  0.00000000000E+00  0.86901974531E+03  0.86901974531E+03  0.00000000000E+00 0.  1.
         21   -1    0    0  501  503 -0.00000000000E+00 -0.00000000000E+00 -0.87708083521E+03  0.87708083521E+03  0.00000000000E+00 0.  1.
    9000007    1    1    2  501    0 -0.21743449325E+03  0.19515887616E+03 -0.72295114828E+03  0.87636927639E+03  0.40000000000E+03 0.  1.
   -9000007    1    1    2    0  502  0.21743449325E+03 -0.19515887616E+03  0.71489005839E+03  0.86973130413E+03  0.40000000000E+03 0.  1.
<mgrwt>
<rscale>  2 0.49534306E+03</rscale>
<asrwt>0</asrwt>
<pdfrwt beam="1">  1       21 0.13369535E+00 0.49534306E+03</pdfrwt>
<pdfrwt beam="2">  1       21 0.13493551E+00 0.49534306E+03</pdfrwt>
<totfact> 0.12496596E+02</totfact>
</mgrwt>
</event>
<event>
 4    1  0.4897983E-002  0.4189013E+03  0.7818608E-02  0.1037424E+00
         21   -1    0    0  503  502  0.00000000000E+00  0.00000000000E+00  0.36503002052E+03  0.36503002052E+03  0.00000000000E+00 0.  1.
         21   -1    0    0  501  503 -0.00000000000E+00 -0.00000000000E+00 -0.67472199458E+03  0.67472199458E+03  0.00000000000E+00 0.  1.
    9000007    1    1    2  501    0 -0.12438580852E+03  0.25508544938E+01 -0.43361022044E+03  0.60290642681E+03  0.40000000000E+03 0.  1.
   -9000007    1    1    2    0  502  0.12438580852E+03 -0.25508544938E+01  0.12391824639E+03  0.43684558829E+03  0.40000000000E+03 0.  1.
<mgrwt>
<rscale>  2 0.41890134E+03</rscale>
<asrwt>0</asrwt>
<pdfrwt beam="1">  1       21 0.56158465E-01 0.41890134E+03</pdfrwt>
<pdfrwt beam="2">  1       21 0.10380338E+00 0.41890134E+03</pdfrwt>
<totfact> 0.19547054E+03</totfact>
</mgrwt>
</event>
<event>
 4    1  0.4897983E-002  0.4575635E+03  0.7818608E-02  0.1025490E+00
         21   -1    0    0  501  502  0.00000000000E+00  0.00000000000E+00  0.14744797449E+04  0.14744797449E+04  0.00000000000E+00 0. -1.
         21   -1    0    0  502  503 -0.00000000000E+00 -0.00000000000E+00 -0.64834761821E+03  0.64834761821E+03  0.00000000000E+00 0. -1.
    9000007    1    1    2  501    0 -0.77308033880E+02  0.20829742939E+03 -0.52494623228E+03  0.69637123575E+03  0.40000000000E+03 0. -1.
   -9000007    1    1    2    0  503  0.77308033880E+02 -0.20829742939E+03  0.13510783590E+04  0.14264561274E+04  0.40000000000E+03 0. -1.
<mgrwt>
<rscale>  2 0.45756349E+03</rscale>
<asrwt>0</asrwt>
<pdfrwt beam="1">  1       21 0.22684304E+00 0.45756349E+03</pdfrwt>
<pdfrwt beam="2">  1       21 0.99745788E-01 0.45756349E+03</pdfrwt>
<totfact> 0.58689790E+01</totfact>
</mgrwt>
</event>
<event>
 4    1  0.4897983E-002  0.4470724E+03  0.7818608E-02  0.1028599E+00
         21   -1    0    0  503  502  0.00000000000E+00  0.00000000000E+00  0.65953939569E+03  0.65953939569E+03  0.00000000000E+00 0.  1.
         21   -1    0    0  501  503 -0.00000000000E+00 -0.00000000000E+00 -0.44512751939E+03  0.44512751939E+03  0.00000000000E+00 0.  1.
    9000007    1    1    2  501    0 -0.16551090310E+03  0.11171317017E+03 -0.20484189320E+03  0.49176609546E+03  0.40000000000E+03 0.  1.
   -9000007    1    1    2    0  502  0.16551090310E+03 -0.11171317017E+03  0.41925376950E+03  0.61290081961E+03  0.40000000000E+03 0.  1.
<mgrwt>
<rscale>  2 0.44707236E+03</rscale>
<asrwt>0</asrwt>
<pdfrwt beam="1">  1       21 0.10146760E+00 0.44707236E+03</pdfrwt>
<pdfrwt beam="2">  1       21 0.68481157E-01 0.44707236E+03</pdfrwt>
<totfact> 0.13200087E+03</totfact>
</mgrwt>
</event>
<event>
 4    1  0.4897983E-002  0.4166680E+03  0.7818608E-02  0.1038156E+00
         21   -1    0    0  503  502  0.00000000000E+00  0.00000000000E+00  0.99597997787E+02  0.99597997787E+02  0.00000000000E+00 0. -1.
         21   -1    0    0  501  503 -0.00000000000E+00 -0.00000000000E+00 -0.19012662623E+04  0.19012662623E+04  0.00000000000E+00 0. -1.
    9000007    1    1    2  501    0  0.86046609569E+02 -0.78792143213E+02 -0.11893584387E+04  0.12602324058E+04  0.40000000000E+03 0. -1.
   -9000007    1    1    2    0  502 -0.86046609569E+02  0.78792143213E+02 -0.61230982586E+03  0.74063185436E+03  0.40000000000E+03 0. -1.
<mgrwt>
<rscale>  2 0.41666800E+03</rscale>
<asrwt>0</asrwt>
<pdfrwt beam="1">  1       21 0.15322768E-01 0.41666800E+03</pdfrwt>
<pdfrwt beam="2">  1       21 0.29250253E+00 0.41666800E+03</pdfrwt>
<totfact> 0.11759052E+03</totfact>
</mgrwt>
</event>
<event>
 4    1  0.4897983E-002  0.5286293E+03  0.7818608E-02  0.1006565E+00
         21   -1    0    0  503  502  0.00000000000E+00  0.00000000000E+00  0.68429580118E+03  0.68429580118E+03  0.00000000000E+00 0.  1.
         21   -1    0    0  501  503 -0.00000000000E+00 -0.00000000000E+00 -0.57232094517E+03  0.57232094517E+03  0.00000000000E+00 0. -1.
    9000007    1    1    2  501    0 -0.15062226033E+03 -0.31106561812E+03 -0.28029499509E+03  0.59834285185E+03  0.40000000000E+03 0. -1.
   -9000007    1    1    2    0  502  0.15062226033E+03  0.31106561812E+03  0.39226985111E+03  0.65827389450E+03  0.40000000000E+03 0.  1.
<mgrwt>
<rscale>  2 0.52862925E+03</rscale>
<asrwt>0</asrwt>
<pdfrwt beam="1">  1       21 0.10527628E+00 0.52862925E+03</pdfrwt>
<pdfrwt beam="2">  1       21 0.88049376E-01 0.52862925E+03</pdfrwt>
<totfact> 0.65516671E+02</totfact>
</mgrwt>
</event>
<event>
 4    1  0.4897983E-002  0.5024211E+03  0.7818608E-02  0.1013149E+00
         21   -1    0    0  501  502  0.00000000000E+00  0.00000000000E+00  0.16903782058E+03  0.16903782058E+03  0.00000000000E+00 0.  1.
         21   -1    0    0  502  503 -0.00000000000E+00 -0.00000000000E+00 -0.23789137955E+04  0.23789137955E+04  0.00000000000E+00 0. -1.
    9000007    1    1    2  501    0  0.24749970729E+03 -0.17655276213E+03 -0.32763569993E+03  0.59981008227E+03  0.40000000000E+03 0.  1.
   -9000007    1    1    2    0  503 -0.24749970729E+03  0.17655276213E+03 -0.18822402750E+04  0.19481415338E+04  0.40000000000E+03 0. -1.
<mgrwt>
<rscale>  2 0.50242112E+03</rscale>
<asrwt>0</asrwt>
<pdfrwt beam="1">  1       21 0.26005818E-01 0.50242112E+03</pdfrwt>
<pdfrwt beam="2">  1       21 0.36598675E+00 0.50242112E+03</pdfrwt>
<totfact> 0.14589510E+02</totfact>
</mgrwt>
</event>
<event>
 4    1  0.4897983E-002  0.7117751E+03  0.7818608E-02  0.9697304E-01
         21   -1    0    0  503  502  0.00000000000E+00  0.00000000000E+00  0.60675558140E+03  0.60675558140E+03  0.00000000000E+00 0.  1.
         21   -1    0    0  501  503 -0.00000000000E+00 -0.00000000000E+00 -0.12174431133E+04  0.12174431133E+04  0.00000000000E+00 0.  1.
    9000007    1    1    2  501    0 -0.58857522512E+03  0.14246261112E+02  0.20588735698E+03  0.74095435442E+03  0.40000000000E+03 0.  1.
   -9000007    1    1    2    0  502  0.58857522512E+03 -0.14246261112E+02 -0.81657488884E+03  0.10832443402E+04  0.40000000000E+03 0.  1.
<mgrwt>
<rscale>  2 0.71177507E+03</rscale>
<asrwt>0</asrwt>
<pdfrwt beam="1">  1       21 0.93347014E-01 0.71177507E+03</pdfrwt>
<pdfrwt beam="2">  1       21 0.18729894E+00 0.71177507E+03</pdfrwt>
<totfact> 0.11245782E+02</totfact>
</mgrwt>
</event>
<event>
 4    1  0.4897983E-002  0.5034219E+03  0.7818608E-02  0.1012890E+00
         21   -1    0    0  501  502  0.00000000000E+00  0.00000000000E+00  0.13397693857E+04  0.13397693857E+04  0.00000000000E+00 0.  1.
         21   -1    0    0  502  503 -0.00000000000E+00 -0.00000000000E+00 -0.20498826255E+03  0.20498826255E+03  0.00000000000E+00 0. -1.
    9000007    1    1    2  501    0  0.56833014801E+02 -0.30033909080E+03  0.78200254796E+03  0.93003308869E+03  0.40000000000E+03 0.  1.
   -9000007    1    1    2    0  503 -0.56833014801E+02  0.30033909080E+03  0.35277857520E+03  0.61472455958E+03  0.40000000000E+03 0. -1.
<mgrwt>
<rscale>  2 0.50342185E+03</rscale>
<asrwt>0</asrwt>
<pdfrwt beam="1">  1       21 0.20611836E+00 0.50342185E+03</pdfrwt>
<pdfrwt beam="2">  1       21 0.31536657E-01 0.50342185E+03</pdfrwt>
<totfact> 0.96508788E+02</totfact>
</mgrwt>
</event>
<event>
 4    1  0.4897983E-002  0.4386541E+03  0.7818608E-02  0.1031161E+00
         21   -1    0    0  503  502  0.00000000000E+00  0.00000000000E+00  0.98771030835E+03  0.98771030835E+03  0.00000000000E+00 0.  1.
         21   -1    0    0  501  503 -0.00000000000E+00 -0.00000000000E+00 -0.19533585098E+03  0.19533585098E+03  0.00000000000E+00 0.  1.
    9000007    1    1    2  501    0 -0.17876116454E+03 -0.21490977816E+02  0.36554260488E+03  0.57099808411E+03  0.40000000000E+03 0.  1.
   -9000007    1    1    2    0  502  0.17876116454E+03  0.21490977816E+02  0.42683185250E+03  0.61204807522E+03  0.40000000000E+03 0.  1.
<mgrwt>
<rscale>  2 0.43865410E+03</rscale>
<asrwt>0</asrwt>
<pdfrwt beam="1">  1       21 0.15195543E+00 0.43865410E+03</pdfrwt>
<pdfrwt beam="2">  1       21 0.30051670E-01 0.43865410E+03</pdfrwt>
<totfact> 0.26511977E+03</totfact>
</mgrwt>
</event>
<event>
 4    1  0.4897983E-002  0.4625800E+03  0.7818608E-02  0.1024036E+00
         21   -1    0    0  501  502  0.00000000000E+00  0.00000000000E+00  0.10243440012E+04  0.10243440012E+04  0.00000000000E+00 0. -1.
         21   -1    0    0  502  503 -0.00000000000E+00 -0.00000000000E+00 -0.58155059242E+03  0.58155059242E+03  0.00000000000E+00 0.  1.
    9000007    1    1    2  501    0 -0.18472550050E+03  0.14091409054E+03  0.86415418283E+03  0.98017485335E+03  0.40000000000E+03 0. -1.
   -9000007    1    1    2    0  503  0.18472550050E+03 -0.14091409054E+03 -0.42136077405E+03  0.62571974026E+03  0.40000000000E+03 0.  1.
<mgrwt>
<rscale>  2 0.46258004E+03</rscale>
<asrwt>0</asrwt>
<pdfrwt beam="1">  1       21 0.15759138E+00 0.46258004E+03</pdfrwt>
<pdfrwt beam="2">  1       21 0.89469322E-01 0.46258004E+03</pdfrwt>
<totfact> 0.22694474E+02</totfact>
</mgrwt>
</event>
<event>
 4    1  0.4897983E-002  0.4767299E+03  0.7818608E-02  0.1020038E+00
         21   -1    0    0  503  502  0.00000000000E+00  0.00000000000E+00  0.30328706616E+03  0.30328706616E+03  0.00000000000E+00 0. -1.
         21   -1    0    0  501  503 -0.00000000000E+00 -0.00000000000E+00 -0.93101651345E+03  0.93101651345E+03  0.00000000000E+00 0.  1.
    9000007    1    1    2  501    0  0.20383429091E+03 -0.16038382416E+03 -0.41257081722E+02  0.47851179295E+03  0.40000000000E+03 0.  1.
   -9000007    1    1    2    0  502 -0.20383429091E+03  0.16038382416E+03 -0.58647236557E+03  0.75579178666E+03  0.40000000000E+03 0.  1.
<mgrwt>
<rscale>  2 0.47672989E+03</rscale>
<asrwt>0</asrwt>
<pdfrwt beam="1">  1       21 0.46659549E-01 0.47672989E+03</pdfrwt>
<pdfrwt beam="2">  1       21 0.14323331E+00 0.47672989E+03</pdfrwt>
<totfact> 0.12467199E+03</totfact>
</mgrwt>
</event>
<event>
 4    1  0.4897983E-002  0.4682338E+03  0.7818608E-02  0.1022420E+00
         21   -1    0    0  501  502  0.00000000000E+00  0.00000000000E+00  0.84424725643E+03  0.84424725643E+03  0.00000000000E+00 0.  1.
         21   -1    0    0  502  503 -0.00000000000E+00 -0.00000000000E+00 -0.51929183473E+03  0.51929183473E+03  0.00000000000E+00 0. -1.
    9000007    1    1    2  501    0  0.19774722389E+03  0.14191175892E+03  0.64452027800E+03  0.79664879378E+03  0.40000000000E+03 0.  1.
   -9000007    1    1    2    0  503 -0.19774722389E+03 -0.14191175892E+03 -0.31956485631E+03  0.56689029738E+03  0.40000000000E+03 0. -1.
<mgrwt>
<rscale>  2 0.46823382E+03</rscale>
<asrwt>0</asrwt>
<pdfrwt beam="1">  1       21 0.12988419E+00 0.46823382E+03</pdfrwt>
<pdfrwt beam="2">  1       21 0.79891051E-01 0.46823382E+03</pdfrwt>
<totfact> 0.49522817E+02</totfact>
</mgrwt>
</event>
<event>
 4    1  0.4897983E-002  0.4638785E+03  0.7818608E-02  0.1023662E+00
         21   -1    0    0  503  502  0.00000000000E+00  0.00000000000E+00  0.42020324501E+03  0.42020324501E+03  0.00000000000E+00 0.  1.
         21   -1    0    0  501  503 -0.00000000000E+00 -0.00000000000E+00 -0.64394707019E+03  0.64394707019E+03  0.00000000000E+00 0.  1.
    9000007    1    1    2  501    0  0.23212392337E+03  0.36080078975E+02 -0.35263731990E+03  0.58269749209E+03  0.40000000000E+03 0. -1.
   -9000007    1    1    2    0  502 -0.23212392337E+03 -0.36080078975E+02  0.12889349472E+03  0.48145282311E+03  0.40000000000E+03 0. -1.
<mgrwt>
<rscale>  2 0.46387853E+03</rscale>
<asrwt>0</asrwt>
<pdfrwt beam="1">  1       21 0.64646653E-01 0.46387853E+03</pdfrwt>
<pdfrwt beam="2">  1       21 0.99068779E-01 0.46387853E+03</pdfrwt>
<totfact> 0.15808213E+03</totfact>
</mgrwt>
</event>
<event>
 4    1  0.4897983E-002  0.4821028E+03  0.7818608E-02  0.1018559E+00
         21   -1    0    0  503  502  0.00000000000E+00  0.00000000000E+00  0.51093233509E+03  0.51093233509E+03  0.00000000000E+00 0.  1.
         21   -1    0    0  501  503 -0.00000000000E+00 -0.00000000000E+00 -0.70784393672E+03  0.70784393672E+03  0.00000000000E+00 0.  1.
    9000007    1    1    2  501    0  0.15563291004E+03  0.21954833269E+03 -0.46273758154E+03  0.66824332577E+03  0.40000000000E+03 0.  1.
   -9000007    1    1    2    0  502 -0.15563291004E+03 -0.21954833269E+03  0.26582597991E+03  0.55053294603E+03  0.40000000000E+03 0.  1.
<mgrwt>
<rscale>  2 0.48210276E+03</rscale>
<asrwt>0</asrwt>
<pdfrwt beam="1">  1       21 0.78604975E-01 0.48210276E+03</pdfrwt>
<pdfrwt beam="2">  1       21 0.10889907E+00 0.48210276E+03</pdfrwt>
<totfact> 0.79930665E+02</totfact>
</mgrwt>
</event>
<event>
 4    1  0.4897983E-002  0.4453029E+03  0.7818608E-02  0.1029132E+00
         21   -1    0    0  503  502  0.00000000000E+00  0.00000000000E+00  0.76788114000E+03  0.76788114000E+03  0.00000000000E+00 0. -1.
         21   -1    0    0  501  503 -0.00000000000E+00 -0.00000000000E+00 -0.30836773467E+03  0.30836773467E+03  0.00000000000E+00 0. -1.
    9000007    1    1    2  501    0  0.18610423656E+03 -0.60496670171E+02  0.12784466466E+02  0.44548633711E+03  0.40000000000E+03 0. -1.
   -9000007    1    1    2    0  502 -0.18610423656E+03  0.60496670171E+02  0.44672893887E+03  0.63076253756E+03  0.40000000000E+03 0. -1.
<mgrwt>
<rscale>  2 0.44530286E+03</rscale>
<asrwt>0</asrwt>
<pdfrwt beam="1">  1       21 0.11813556E+00 0.44530286E+03</pdfrwt>
<pdfrwt beam="2">  1       21 0.47441190E-01 0.44530286E+03</pdfrwt>
<totfact> 0.20119555E+03</totfact>
</mgrwt>
</event>
<event>
 4    1  0.4897983E-002  0.5880402E+03  0.7818608E-02  0.9930534E-01
         21   -1    0    0  503  502  0.00000000000E+00  0.00000000000E+00  0.37266729020E+03  0.37266729020E+03  0.00000000000E+00 0.  1.
         21   -1    0    0  501  503 -0.00000000000E+00 -0.00000000000E+00 -0.11504198883E+04  0.11504198883E+04  0.00000000000E+00 0. -1.
    9000007    1    1    2  501    0 -0.43036261182E+03  0.24068798945E+02 -0.53935138948E+02  0.59050849609E+03  0.40000000000E+03 0.  1.
   -9000007    1    1    2    0  502  0.43036261182E+03 -0.24068798945E+02 -0.72381745916E+03  0.93257868243E+03  0.40000000000E+03 0. -1.
<mgrwt>
<rscale>  2 0.58804021E+03</rscale>
<asrwt>0</asrwt>
<pdfrwt beam="1">  1       21 0.57333430E-01 0.58804021E+03</pdfrwt>
<pdfrwt beam="2">  1       21 0.17698767E+00 0.58804021E+03</pdfrwt>
<totfact> 0.42511760E+02</totfact>
</mgrwt>
</event>
<event>
 4    1  0.4897983E-002  0.5186690E+03  0.7818608E-02  0.1009018E+00
         21   -1    0    0  503  502  0.00000000000E+00  0.00000000000E+00  0.11164283646E+04  0.11164283646E+04  0.00000000000E+00 0.  1.
         21   -1    0    0  501  503 -0.00000000000E+00 -0.00000000000E+00 -0.25380067546E+03  0.25380067546E+03  0.00000000000E+00 0.  1.
    9000007    1    1    2  501    0  0.14843531389E+03  0.29493136944E+03  0.58540071387E+03  0.78211990826E+03  0.40000000000E+03 0.  1.
   -9000007    1    1    2    0  502 -0.14843531389E+03 -0.29493136944E+03  0.27722697527E+03  0.58810913180E+03  0.40000000000E+03 0.  1.
<mgrwt>
<rscale>  2 0.51866902E+03</rscale>
<asrwt>0</asrwt>
<pdfrwt beam="1">  1       21 0.17175821E+00 0.51866902E+03</pdfrwt>
<pdfrwt beam="2">  1       21 0.39046258E-01 0.51866902E+03</pdfrwt>
<totfact> 0.10745491E+03</totfact>
</mgrwt>
</event>
<event>
 4    1  0.4897983E-002  0.5251497E+03  0.7818608E-02  0.1007415E+00
         21   -1    0    0  503  502  0.00000000000E+00  0.00000000000E+00  0.11231934273E+04  0.11231934273E+04  0.00000000000E+00 0.  1.
         21   -1    0    0  501  503 -0.00000000000E+00 -0.00000000000E+00 -0.55667666366E+03  0.55667666366E+03  0.00000000000E+00 0.  1.
    9000007    1    1    2  501    0 -0.12354651221E+03  0.31704643272E+03 -0.34469003976E+03  0.62816670135E+03  0.40000000000E+03 0.  1.
   -9000007    1    1    2    0  502  0.12354651221E+03 -0.31704643272E+03  0.91120680344E+03  0.10517033897E+04  0.40000000000E+03 0.  1.
<mgrwt>
<rscale>  2 0.52514968E+03</rscale>
<asrwt>0</asrwt>
<pdfrwt beam="1">  1       21 0.17279899E+00 0.52514968E+03</pdfrwt>
<pdfrwt beam="2">  1       21 0.85642564E-01 0.52514968E+03</pdfrwt>
<totfact> 0.18833016E+02</totfact>
</mgrwt>
</event>
<event>
 4    1  0.4897983E-002  0.4279890E+03  0.7818608E-02  0.1034497E+00
         21   -1    0    0  501  502  0.00000000000E+00  0.00000000000E+00  0.54315611047E+03  0.54315611047E+03  0.00000000000E+00 0. -1.
         21   -1    0    0  502  503 -0.00000000000E+00 -0.00000000000E+00 -0.50236372975E+03  0.50236372975E+03  0.00000000000E+00 0. -1.
    9000007    1    1    2  501    0  0.13342598002E+03  0.73294538336E+02  0.32010285544E+03  0.53445338389E+03  0.40000000000E+03 0. -1.
   -9000007    1    1    2    0  503 -0.13342598002E+03 -0.73294538336E+02 -0.27931047472E+03  0.51106645633E+03  0.40000000000E+03 0. -1.
<mgrwt>
<rscale>  2 0.42798900E+03</rscale>
<asrwt>0</asrwt>
<pdfrwt beam="1">  1       21 0.83562479E-01 0.42798900E+03</pdfrwt>
<pdfrwt beam="2">  1       21 0.77286728E-01 0.42798900E+03</pdfrwt>
<totfact> 0.16051931E+03</totfact>
</mgrwt>
</event>
<event>
 4    1  0.4897983E-002  0.4615653E+03  0.7818608E-02  0.1024328E+00
         21   -1    0    0  501  502  0.00000000000E+00  0.00000000000E+00  0.45736309633E+03  0.45736309633E+03  0.00000000000E+00 0. -1.
         21   -1    0    0  502  503 -0.00000000000E+00 -0.00000000000E+00 -0.53495312304E+03  0.53495312304E+03  0.00000000000E+00 0. -1.
    9000007    1    1    2  501    0  0.17671195848E+03  0.14770027652E+03  0.13958623365E+03  0.48221033230E+03  0.40000000000E+03 0. -1.
   -9000007    1    1    2    0  503 -0.17671195848E+03 -0.14770027652E+03 -0.21717626036E+03  0.51010588707E+03  0.40000000000E+03 0. -1.
<mgrwt>
<rscale>  2 0.46156526E+03</rscale>
<asrwt>0</asrwt>
<pdfrwt beam="1">  1       21 0.70363553E-01 0.46156526E+03</pdfrwt>
<pdfrwt beam="2">  1       21 0.82300481E-01 0.46156526E+03</pdfrwt>
<totfact> 0.20321182E+03</totfact>
</mgrwt>
</event>
<event>
 4    1  0.4897983E-002  0.4018435E+03  0.7818608E-02  0.1043143E+00
         21   -1    0    0  501  502  0.00000000000E+00  0.00000000000E+00  0.35197661108E+03  0.35197661108E+03  0.00000000000E+00 0.  1.
         21   -1    0    0  502  503 -0.00000000000E+00 -0.00000000000E+00 -0.13633458081E+04  0.13633458081E+04  0.00000000000E+00 0.  1.
    9000007    1    1    2  501    0  0.28396008450E+02  0.25919738692E+02  0.19292407458E+03  0.44575538662E+03  0.40000000000E+03 0.  1.
   -9000007    1    1    2    0  503 -0.28396008450E+02 -0.25919738692E+02 -0.12042932716E+04  0.12695670325E+04  0.40000000000E+03 0.  1.
<mgrwt>
<rscale>  2 0.40184346E+03</rscale>
<asrwt>0</asrwt>
<pdfrwt beam="1">  1       21 0.54150248E-01 0.40184346E+03</pdfrwt>
<pdfrwt beam="2">  1       21 0.20974551E+00 0.40184346E+03</pdfrwt>
<totfact> 0.31351223E+02</totfact>
</mgrwt>
</event>
<event>
 4    1  0.4897983E-002  0.4946746E+03  0.7818608E-02  0.1015178E+00
         21   -1    0    0  503  502  0.00000000000E+00  0.00000000000E+00  0.70130440693E+03  0.70130440693E+03  0.00000000000E+00 0.  1.
         21   -1    0    0  501  503 -0.00000000000E+00 -0.00000000000E+00 -0.53313487655E+03  0.53313487655E+03  0.00000000000E+00 0.  1.
    9000007    1    1    2  501    0  0.29101947125E+03  0.32594693151E+01 -0.27872345193E+03  0.56779372966E+03  0.40000000000E+03 0.  1.
   -9000007    1    1    2    0  502 -0.29101947125E+03 -0.32594693151E+01  0.44689298232E+03  0.66664555382E+03  0.40000000000E+03 0.  1.
<mgrwt>
<rscale>  2 0.49467460E+03</rscale>
<asrwt>0</asrwt>
<pdfrwt beam="1">  1       21 0.10789299E+00 0.49467460E+03</pdfrwt>
<pdfrwt beam="2">  1       21 0.82020750E-01 0.49467460E+03</pdfrwt>
<totfact> 0.73748211E+02</totfact>
</mgrwt>
</event>
<event>
 4    1  0.4897983E-002  0.4321386E+03  0.7818608E-02  0.1033187E+00
         21   -1    0    0  501  502  0.00000000000E+00  0.00000000000E+00  0.31636188063E+03  0.31636188063E+03  0.00000000000E+00 0. -1.
         21   -1    0    0  502  503 -0.00000000000E+00 -0.00000000000E+00 -0.24609111215E+04  0.24609111215E+04  0.00000000000E+00 0. -1.
    9000007    1    1    2  501    0  0.16178288787E+03 -0.23875254647E+02  0.13841853814E+03  0.45376582319E+03  0.40000000000E+03 0. -1.
   -9000007    1    1    2    0  503 -0.16178288787E+03  0.23875254647E+02 -0.22829677790E+04  0.23235071789E+04  0.40000000000E+03 0. -1.
<mgrwt>
<rscale>  2 0.43213855E+03</rscale>
<asrwt>0</asrwt>
<pdfrwt beam="1">  1       21 0.48671059E-01 0.43213855E+03</pdfrwt>
<pdfrwt beam="2">  1       21 0.37860171E+00 0.43213855E+03</pdfrwt>
<totfact> 0.35700871E+01</totfact>
</mgrwt>
</event>
<event>
 4    1  0.4897983E-002  0.4951477E+03  0.7818608E-02  0.1015053E+00
         21   -1    0    0  501  502  0.00000000000E+00  0.00000000000E+00  0.26792911505E+03  0.26792911505E+03  0.00000000000E+00 0. -1.
         21   -1    0    0  502  503 -0.00000000000E+00 -0.00000000000E+00 -0.10311649037E+04  0.10311649037E+04  0.00000000000E+00 0.  1.
    9000007    1    1    2  501    0  0.46563317182E+02  0.28810252287E+03 -0.16366036522E+03  0.52149393221E+03  0.40000000000E+03 0. -1.
   -9000007    1    1    2    0  503 -0.46563317182E+02 -0.28810252287E+03 -0.59957542340E+03  0.77760008650E+03  0.40000000000E+03 0.  1.
<mgrwt>
<rscale>  2 0.49514766E+03</rscale>
<asrwt>0</asrwt>
<pdfrwt beam="1">  1       21 0.41219863E-01 0.49514766E+03</pdfrwt>
<pdfrwt beam="2">  1       21 0.15864076E+00 0.49514766E+03</pdfrwt>
<totfact> 0.12135308E+03</totfact>
</mgrwt>
</event>
<event>
 4    1  0.4897983E-002  0.4887470E+03  0.7818608E-02  0.1016759E+00
         21   -1    0    0  503  502  0.00000000000E+00  0.00000000000E+00  0.33053937463E+03  0.33053937463E+03  0.00000000000E+00 0. -1.
         21   -1    0    0  501  503 -0.00000000000E+00 -0.00000000000E+00 -0.87760833180E+03  0.87760833180E+03  0.00000000000E+00 0. -1.
    9000007    1    1    2  501    0  0.25172821049E+03 -0.12452529495E+03 -0.52734372617E+03  0.71900281402E+03  0.40000000000E+03 0. -1.
   -9000007    1    1    2    0  502 -0.25172821049E+03  0.12452529495E+03 -0.19725230995E+02  0.48914489241E+03  0.40000000000E+03 0. -1.
<mgrwt>
<rscale>  2 0.48874701E+03</rscale>
<asrwt>0</asrwt>
<pdfrwt beam="1">  1       21 0.50852212E-01 0.48874701E+03</pdfrwt>
<pdfrwt beam="2">  1       21 0.13501666E+00 0.48874701E+03</pdfrwt>
<totfact> 0.12096564E+03</totfact>
</mgrwt>
</event>
<event>
 4    1  0.4897983E-002  0.4169945E+03  0.7818608E-02  0.1038049E+00
         21   -1    0    0  501  502  0.00000000000E+00  0.00000000000E+00  0.33951801648E+03  0.33951801648E+03  0.00000000000E+00 0.  1.
         21   -1    0    0  502  503 -0.00000000000E+00 -0.00000000000E+00 -0.35113996182E+04  0.35113996182E+04  0.00000000000E+00 0.  1.
    9000007    1    1    2  501    0 -0.48947659925E+02 -0.10718443351E+03  0.19356891572E+03  0.45973177107E+03  0.40000000000E+03 0.  1.
   -9000007    1    1    2    0  503  0.48947659925E+02  0.10718443351E+03 -0.33654505175E+04  0.33911858636E+04  0.40000000000E+03 0.  1.
<mgrwt>
<rscale>  2 0.41699446E+03</rscale>
<asrwt>0</asrwt>
<pdfrwt beam="1">  1       21 0.52233542E-01 0.41699446E+03</pdfrwt>
<pdfrwt beam="2">  1       21 0.54021532E+00 0.41699446E+03</pdfrwt>
<totfact> 0.24458056E+00</totfact>
</mgrwt>
</event>
<event>
 4    1  0.4897983E-002  0.4702583E+03  0.7818608E-02  0.1021847E+00
         21   -1    0    0  501  502  0.00000000000E+00  0.00000000000E+00  0.93486945317E+03  0.93486945317E+03  0.00000000000E+00 0. -1.
         21   -1    0    0  502  503 -0.00000000000E+00 -0.00000000000E+00 -0.24256491909E+03  0.24256491909E+03  0.00000000000E+00 0. -1.
    9000007    1    1    2  501    0  0.22236583169E+03  0.10814964021E+03  0.43886202111E+03  0.64322840528E+03  0.40000000000E+03 0. -1.
   -9000007    1    1    2    0  503 -0.22236583169E+03 -0.10814964021E+03  0.25344251297E+03  0.53420596699E+03  0.40000000000E+03 0. -1.
<mgrwt>
<rscale>  2 0.47025834E+03</rscale>
<asrwt>0</asrwt>
<pdfrwt beam="1">  1       21 0.14382607E+00 0.47025834E+03</pdfrwt>
<pdfrwt beam="2">  1       21 0.37317680E-01 0.47025834E+03</pdfrwt>
<totfact> 0.19649837E+03</totfact>
</mgrwt>
</event>
<event>
 4    1  0.4897983E-002  0.4385614E+03  0.7818608E-02  0.1031189E+00
         21   -1    0    0  503  502  0.00000000000E+00  0.00000000000E+00  0.96773111673E+03  0.96773111673E+03  0.00000000000E+00 0.  1.
         21   -1    0    0  501  503 -0.00000000000E+00 -0.00000000000E+00 -0.22982179642E+03  0.22982179642E+03  0.00000000000E+00 0.  1.
    9000007    1    1    2  501    0  0.88278169604E+02 -0.15666213585E+03  0.14878579884E+03  0.46311259319E+03  0.40000000000E+03 0.  1.
   -9000007    1    1    2    0  502 -0.88278169604E+02  0.15666213585E+03  0.58912352147E+03  0.73444031996E+03  0.40000000000E+03 0.  1.
<mgrwt>
<rscale>  2 0.43856135E+03</rscale>
<asrwt>0</asrwt>
<pdfrwt beam="1">  1       21 0.14888171E+00 0.43856135E+03</pdfrwt>
<pdfrwt beam="2">  1       21 0.35357200E-01 0.43856135E+03</pdfrwt>
<totfact> 0.20227876E+03</totfact>
</mgrwt>
</event>
<event>
 4    1  0.4897983E-002  0.4851041E+03  0.7818608E-02  0.1017742E+00
         21   -1    0    0  501  502  0.00000000000E+00  0.00000000000E+00  0.21661746599E+03  0.21661746599E+03  0.00000000000E+00 0.  1.
         21   -1    0    0  502  503 -0.00000000000E+00 -0.00000000000E+00 -0.11147951817E+04  0.11147951817E+04  0.00000000000E+00 0.  1.
    9000007    1    1    2  501    0  0.25794944730E+03 -0.93744932549E+02 -0.34278207274E+03  0.59399122816E+03  0.40000000000E+03 0.  1.
   -9000007    1    1    2    0  503 -0.25794944730E+03  0.93744932549E+02 -0.55539564294E+03  0.73742141950E+03  0.40000000000E+03 0.  1.
<mgrwt>
<rscale>  2 0.48510414E+03</rscale>
<asrwt>0</asrwt>
<pdfrwt beam="1">  1       21 0.33325764E-01 0.48510414E+03</pdfrwt>
<pdfrwt beam="2">  1       21 0.17150695E+00 0.48510414E+03</pdfrwt>
<totfact> 0.15089571E+03</totfact>
</mgrwt>
</event>
<event>
 4    1  0.4897983E-002  0.5791666E+03  0.7818608E-02  0.9949597E-01
         21   -1    0    0  501  502  0.00000000000E+00  0.00000000000E+00  0.37916330061E+04  0.37916330061E+04  0.00000000000E+00 0. -1.
         21   -1    0    0  502  503 -0.00000000000E+00 -0.00000000000E+00 -0.93309023969E+02  0.93309023969E+02  0.00000000000E+00 0.  1.
    9000007    1    1    2  501    0  0.37913081782E+03  0.17802755753E+03  0.14066642811E+04  0.15212292359E+04  0.40000000000E+03 0.  1.
   -9000007    1    1    2    0  503 -0.37913081782E+03 -0.17802755753E+03  0.22916597010E+04  0.23637127942E+04  0.40000000000E+03 0. -1.
<mgrwt>
<rscale>  2 0.57916663E+03</rscale>
<asrwt>0</asrwt>
<pdfrwt beam="1">  1       21 0.58332803E+00 0.57916663E+03</pdfrwt>
<pdfrwt beam="2">  1       21 0.14355237E-01 0.57916663E+03</pdfrwt>
<totfact> 0.13207423E+01</totfact>
</mgrwt>
</event>
<event>
 4    1  0.4897983E-002  0.4495541E+03  0.7818608E-02  0.1027855E+00
         21   -1    0    0  503  502  0.00000000000E+00  0.00000000000E+00  0.40910940124E+03  0.40910940124E+03  0.00000000000E+00 0.  1.
         21   -1    0    0  501  503 -0.00000000000E+00 -0.00000000000E+00 -0.10371427499E+04  0.10371427499E+04  0.00000000000E+00 0.  1.
    9000007    1    1    2  501    0  0.78018622425E+02  0.18976818076E+03 -0.83731928010E+03  0.95036963582E+03  0.40000000000E+03 0.  1.
   -9000007    1    1    2    0  502 -0.78018622425E+02 -0.18976818076E+03  0.20928593145E+03  0.49588251530E+03  0.40000000000E+03 0.  1.
<mgrwt>
<rscale>  2 0.44955408E+03</rscale>
<asrwt>0</asrwt>
<pdfrwt beam="1">  1       21 0.62939910E-01 0.44955408E+03</pdfrwt>
<pdfrwt beam="2">  1       21 0.15956042E+00 0.44955408E+03</pdfrwt>
<totfact> 0.49270481E+02</totfact>
</mgrwt>
</event>
<event>
 4    1  0.4897983E-002  0.4043858E+03  0.7818608E-02  0.1042272E+00
         21   -1    0    0  503  502  0.00000000000E+00  0.00000000000E+00  0.82954958168E+03  0.82954958168E+03  0.00000000000E+00 0. -1.
         21   -1    0    0  501  503 -0.00000000000E+00 -0.00000000000E+00 -0.20993351299E+03  0.20993351299E+03  0.00000000000E+00 0. -1.
    9000007    1    1    2  501    0 -0.53483464012E+02  0.25834623420E+02  0.43816979372E+03  0.59625554657E+03  0.40000000000E+03 0. -1.
   -9000007    1    1    2    0  502  0.53483464012E+02 -0.25834623420E+02  0.18144627498E+03  0.44322754810E+03  0.40000000000E+03 0. -1.
<mgrwt>
<rscale>  2 0.40438584E+03</rscale>
<asrwt>0</asrwt>
<pdfrwt beam="1">  1       21 0.12762301E+00 0.40438584E+03</pdfrwt>
<pdfrwt beam="2">  1       21 0.32297464E-01 0.40438584E+03</pdfrwt>
<totfact> 0.36946611E+03</totfact>
</mgrwt>
</event>
<event>
 4    1  0.4897983E-002  0.7552211E+03  0.7818608E-02  0.9627195E-01
         21   -1    0    0  501  502  0.00000000000E+00  0.00000000000E+00  0.92736285744E+03  0.92736285744E+03  0.00000000000E+00 0. -1.
         21   -1    0    0  502  503 -0.00000000000E+00 -0.00000000000E+00 -0.12472289205E+04  0.12472289205E+04  0.00000000000E+00 0. -1.
    9000007    1    1    2  501    0  0.63003248399E+03  0.11583600044E+03  0.61417299548E+03  0.97343072597E+03  0.40000000000E+03 0. -1.
   -9000007    1    1    2    0  503 -0.63003248399E+03 -0.11583600044E+03 -0.93403905850E+03  0.12011610519E+04  0.40000000000E+03 0. -1.
<mgrwt>
<rscale>  2 0.75522110E+03</rscale>
<asrwt>0</asrwt>
<pdfrwt beam="1">  1       21 0.14267121E+00 0.75522110E+03</pdfrwt>
<pdfrwt beam="2">  1       21 0.19188137E+00 0.75522110E+03</pdfrwt>
<totfact> 0.34835321E+01</totfact>
</mgrwt>
</event>
<event>
 4    1  0.4897983E-002  0.4063485E+03  0.7818608E-02  0.1041603E+00
         21   -1    0    0  501  502  0.00000000000E+00  0.00000000000E+00  0.12770911104E+04  0.12770911104E+04  0.00000000000E+00 0. -1.
         21   -1    0    0  502  503 -0.00000000000E+00 -0.00000000000E+00 -0.15480660429E+03  0.15480660429E+03  0.00000000000E+00 0. -1.
    9000007    1    1    2  501    0  0.71537805781E+02 -0.11889178554E+01  0.85179357189E+03  0.94375386637E+03  0.40000000000E+03 0. -1.
   -9000007    1    1    2    0  503 -0.71537805781E+02  0.11889178554E+01  0.27049093427E+03  0.48814384837E+03  0.40000000000E+03 0. -1.
<mgrwt>
<rscale>  2 0.40634846E+03</rscale>
<asrwt>0</asrwt>
<pdfrwt beam="1">  1       21 0.19647555E+00 0.40634846E+03</pdfrwt>
<pdfrwt beam="2">  1       21 0.23816402E-01 0.40634846E+03</pdfrwt>
<totfact> 0.20282621E+03</totfact>
</mgrwt>
</event>
<event>
 4    1  0.4897983E-002  0.4027840E+03  0.7818608E-02  0.1042820E+00
         21   -1    0    0  501  502  0.00000000000E+00  0.00000000000E+00  0.10840800315E+04  0.10840800315E+04  0.00000000000E+00 0.  1.
         21   -1    0    0  502  503 -0.00000000000E+00 -0.00000000000E+00 -0.34615564940E+03  0.34615564940E+03  0.00000000000E+00 0.  1.
    9000007    1    1    2  501    0  0.91919872022E+01 -0.46372811778E+02  0.90776149005E+03  0.99310918489E+03  0.40000000000E+03 0.  1.
   -9000007    1    1    2    0  503 -0.91919872022E+01  0.46372811778E+02 -0.16983710792E+03  0.43712649603E+03  0.40000000000E+03 0.  1.
<mgrwt>
<rscale>  2 0.40278397E+03</rscale>
<asrwt>0</asrwt>
<pdfrwt beam="1">  1       21 0.16678154E+00 0.40278397E+03</pdfrwt>
<pdfrwt beam="2">  1       21 0.53254716E-01 0.40278397E+03</pdfrwt>
<totfact> 0.64065263E+02</totfact>
</mgrwt>
</event>
<event>
 4    1  0.4897983E-002  0.4101702E+03  0.7818608E-02  0.1040314E+00
         21   -1    0    0  501  502  0.00000000000E+00  0.00000000000E+00  0.21182327561E+03  0.21182327561E+03  0.00000000000E+00 0.  1.
         21   -1    0    0  502  503 -0.00000000000E+00 -0.00000000000E+00 -0.97978594355E+03  0.97978594355E+03  0.00000000000E+00 0.  1.
    9000007    1    1    2  501    0 -0.41176488623E+02  0.80895514731E+02 -0.12470786291E+03  0.42870927048E+03  0.40000000000E+03 0.  1.
   -9000007    1    1    2    0  503  0.41176488623E+02 -0.80895514731E+02 -0.64325480503E+03  0.76289994869E+03  0.40000000000E+03 0.  1.
<mgrwt>
<rscale>  2 0.41017019E+03</rscale>
<asrwt>0</asrwt>
<pdfrwt beam="1">  1       21 0.32588196E-01 0.41017019E+03</pdfrwt>
<pdfrwt beam="2">  1       21 0.15073630E+00 0.41017019E+03</pdfrwt>
<totfact> 0.23324755E+03</totfact>
</mgrwt>
</event>
<event>
 4    1  0.4897983E-002  0.4108515E+03  0.7818608E-02  0.1040086E+00
         21   -1    0    0  501  502  0.00000000000E+00  0.00000000000E+00  0.23218095439E+03  0.23218095439E+03  0.00000000000E+00 0.  1.
         21   -1    0    0  502  503 -0.00000000000E+00 -0.00000000000E+00 -0.84938423876E+03  0.84938423876E+03  0.00000000000E+00 0.  1.
    9000007    1    1    2  501    0 -0.69213429718E+02 -0.63312097625E+02 -0.10334008301E+03  0.42364854929E+03  0.40000000000E+03 0.  1.
   -9000007    1    1    2    0  503  0.69213429718E+02  0.63312097625E+02 -0.51386320136E+03  0.65791664386E+03  0.40000000000E+03 0.  1.
<mgrwt>
<rscale>  2 0.41085146E+03</rscale>
<asrwt>0</asrwt>
<pdfrwt beam="1">  1       21 0.35720148E-01 0.41085146E+03</pdfrwt>
<pdfrwt beam="2">  1       21 0.13067450E+00 0.41085146E+03</pdfrwt>
<totfact> 0.28307484E+03</totfact>
</mgrwt>
</event>
<event>
 4    1  0.4897983E-002  0.5096045E+03  0.7818608E-02  0.1011302E+00
         21   -1    0    0  503  502  0.00000000000E+00  0.00000000000E+00  0.27425558429E+03  0.27425558429E+03  0.00000000000E+00 0. -1.
         21   -1    0    0  501  503 -0.00000000000E+00 -0.00000000000E+00 -0.10058885104E+04  0.10058885104E+04  0.00000000000E+00 0. -1.
    9000007    1    1    2  501    0 -0.13832041177E+03 -0.28383839391E+03 -0.52079867059E+03  0.72864808067E+03  0.40000000000E+03 0. -1.
   -9000007    1    1    2    0  502  0.13832041177E+03  0.28383839391E+03 -0.21083425549E+03  0.55149601400E+03  0.40000000000E+03 0. -1.
<mgrwt>
<rscale>  2 0.50960452E+03</rscale>
<asrwt>0</asrwt>
<pdfrwt beam="1">  1       21 0.42193167E-01 0.50960452E+03</pdfrwt>
<pdfrwt beam="2">  1       21 0.15475208E+00 0.50960452E+03</pdfrwt>
<totfact> 0.12319424E+03</totfact>
</mgrwt>
</event>
<event>
 4    1  0.4897983E-002  0.4261980E+03  0.7818608E-02  0.1035068E+00
         21   -1    0    0  501  502  0.00000000000E+00  0.00000000000E+00  0.21657759629E+03  0.21657759629E+03  0.00000000000E+00 0.  1.
         21   -1    0    0  502  503 -0.00000000000E+00 -0.00000000000E+00 -0.14501130072E+04  0.14501130072E+04  0.00000000000E+00 0.  1.
    9000007    1    1    2  501    0  0.13210118663E+03  0.64760950268E+02 -0.75652618734E+02  0.43286028105E+03  0.40000000000E+03 0.  1.
   -9000007    1    1    2    0  503 -0.13210118663E+03 -0.64760950268E+02 -0.11578827922E+04  0.12338303225E+04  0.40000000000E+03 0.  1.
<mgrwt>
<rscale>  2 0.42619796E+03</rscale>
<asrwt>0</asrwt>
<pdfrwt beam="1">  1       21 0.33319631E-01 0.42619796E+03</pdfrwt>
<pdfrwt beam="2">  1       21 0.22309430E+00 0.42619796E+03</pdfrwt>
<totfact> 0.69565478E+02</totfact>
</mgrwt>
</event>
<event>
 4    1  0.4897983E-002  0.4570570E+03  0.7818608E-02  0.1025638E+00
         21   -1    0    0  503  502  0.00000000000E+00  0.00000000000E+00  0.18067898193E+03  0.18067898193E+03  0.00000000000E+00 0.  1.
         21   -1    0    0  501  503 -0.00000000000E+00 -0.00000000000E+00 -0.14744003810E+04  0.14744003810E+04  0.00000000000E+00 0.  1.
    9000007    1    1    2  501    0  0.12750057284E+03  0.18067842162E+03 -0.26241830604E+03  0.52703363788E+03  0.40000000000E+03 0.  1.
   -9000007    1    1    2    0  502 -0.12750057284E+03 -0.18067842162E+03 -0.10313030930E+04  0.11280457250E+04  0.40000000000E+03 0.  1.
<mgrwt>
<rscale>  2 0.45705699E+03</rscale>
<asrwt>0</asrwt>
<pdfrwt beam="1">  1       21 0.27796767E-01 0.45705699E+03</pdfrwt>
<pdfrwt beam="2">  1       21 0.22683082E+00 0.45705699E+03</pdfrwt>
<totfact> 0.93040903E+02</totfact>
</mgrwt>
</event>
<event>
 4    1  0.4897983E-002  0.4242022E+03  0.7818608E-02  0.1035707E+00
         21   -1    0    0  501  502  0.00000000000E+00  0.00000000000E+00  0.59099284396E+03  0.59099284396E+03  0.00000000000E+00 0.  1.
         21   -1    0    0  502  503 -0.00000000000E+00 -0.00000000000E+00 -0.72852859521E+03  0.72852859521E+03  0.00000000000E+00 0.  1.
    9000007    1    1    2  501    0 -0.85490314588E+02  0.11242283110E+03  0.43458116788E+03  0.60729587378E+03  0.40000000000E+03 0.  1.
   -9000007    1    1    2    0  503  0.85490314588E+02 -0.11242283110E+03 -0.57211691912E+03  0.71222556538E+03  0.40000000000E+03 0.  1.
<mgrwt>
<rscale>  2 0.42420218E+03</rscale>
<asrwt>0</asrwt>
<pdfrwt beam="1">  1       21 0.90921976E-01 0.42420218E+03</pdfrwt>
<pdfrwt beam="2">  1       21 0.11208132E+00 0.42420218E+03</pdfrwt>
<totfact> 0.54301504E+02</totfact>
</mgrwt>
</event>
<event>
 4    1  0.4897983E-002  0.4362127E+03  0.7818608E-02  0.1031915E+00
         21   -1    0    0  503  502  0.00000000000E+00  0.00000000000E+00  0.71539343768E+03  0.71539343768E+03  0.00000000000E+00 0. -1.
         21   -1    0    0  501  503 -0.00000000000E+00 -0.00000000000E+00 -0.28130426670E+03  0.28130426670E+03  0.00000000000E+00 0. -1.
    9000007    1    1    2  501    0 -0.17372978981E+03 -0.99729573740E+01  0.10073585635E+03  0.44769321248E+03  0.40000000000E+03 0. -1.
   -9000007    1    1    2    0  502  0.17372978981E+03  0.99729573740E+01  0.33335331464E+03  0.54900449190E+03  0.40000000000E+03 0. -1.
<mgrwt>
<rscale>  2 0.43621268E+03</rscale>
<asrwt>0</asrwt>
<pdfrwt beam="1">  1       21 0.11006053E+00 0.43621268E+03</pdfrwt>
<pdfrwt beam="2">  1       21 0.43277580E-01 0.43621268E+03</pdfrwt>
<totfact> 0.29206240E+03</totfact>
</mgrwt>
</event>
<event>
 4    1  0.4897983E-002  0.6520978E+03  0.7818608E-02  0.9802851E-01
         21   -1    0    0  501  502  0.00000000000E+00  0.00000000000E+00  0.15043323832E+04  0.15043323832E+04  0.00000000000E+00 0.  1.
         21   -1    0    0  502  503 -0.00000000000E+00 -0.00000000000E+00 -0.28931658650E+03  0.28931658650E+03  0.00000000000E+00 0. -1.
    9000007    1    1    2  501    0  0.25123687128E+03 -0.44956823192E+03  0.47158948640E+03  0.80475350532E+03  0.40000000000E+03 0.  1.
   -9000007    1    1    2    0  503 -0.25123687128E+03  0.44956823192E+03  0.74342631033E+03  0.98889546441E+03  0.40000000000E+03 0. -1.
<mgrwt>
<rscale>  2 0.65209782E+03</rscale>
<asrwt>0</asrwt>
<pdfrwt beam="1">  1       21 0.23143575E+00 0.65209782E+03</pdfrwt>
<pdfrwt beam="2">  1       21 0.44510245E-01 0.65209782E+03</pdfrwt>
<totfact> 0.30797471E+02</totfact>
</mgrwt>
</event>
<event>
 4    1  0.4897983E-002  0.4118762E+03  0.7818608E-02  0.1039743E+00
         21   -1    0    0  503  502  0.00000000000E+00  0.00000000000E+00  0.57097248524E+03  0.57097248524E+03  0.00000000000E+00 0. -1.
         21   -1    0    0  501  503 -0.00000000000E+00 -0.00000000000E+00 -0.58871931707E+03  0.58871931707E+03  0.00000000000E+00 0. -1.
    9000007    1    1    2  501    0  0.83891592060E+02  0.51031651678E+02 -0.41696593447E+03  0.58609096496E+03  0.40000000000E+03 0. -1.
   -9000007    1    1    2    0  502 -0.83891592060E+02 -0.51031651678E+02  0.39921910264E+03  0.57360083735E+03  0.40000000000E+03 0. -1.
<mgrwt>
<rscale>  2 0.41187623E+03</rscale>
<asrwt>0</asrwt>
<pdfrwt beam="1">  1       21 0.87841921E-01 0.41187623E+03</pdfrwt>
<pdfrwt beam="2">  1       21 0.90572202E-01 0.41187623E+03</pdfrwt>
<totfact> 0.99394199E+02</totfact>
</mgrwt>
</event>
<event>
 4    1  0.4897983E-002  0.4039326E+03  0.7818608E-02  0.1042426E+00
         21   -1    0    0  503  502  0.00000000000E+00  0.00000000000E+00  0.11460958160E+03  0.11460958160E+03  0.00000000000E+00 0. -1.
         21   -1    0    0  501  503 -0.00000000000E+00 -0.00000000000E+00 -0.17601950169E+04  0.17601950169E+04  0.00000000000E+00 0. -1.
    9000007    1    1    2  501    0  0.12603406006E+02 -0.54796669837E+02 -0.12326954094E+04  0.12971890738E+04  0.40000000000E+03 0. -1.
   -9000007    1    1    2    0  502 -0.12603406006E+02  0.54796669837E+02 -0.41289002588E+03  0.57761552467E+03  0.40000000000E+03 0. -1.
<mgrwt>
<rscale>  2 0.40393257E+03</rscale>
<asrwt>0</asrwt>
<pdfrwt beam="1">  1       21 0.17632245E-01 0.40393257E+03</pdfrwt>
<pdfrwt beam="2">  1       21 0.27079921E+00 0.40393257E+03</pdfrwt>
<totfact> 0.12303533E+03</totfact>
</mgrwt>
</event>
<event>
 4    1  0.4897983E-002  0.4107485E+03  0.7818608E-02  0.1040120E+00
         21   -1    0    0  501  502  0.00000000000E+00  0.00000000000E+00  0.82813054281E+03  0.82813054281E+03  0.00000000000E+00 0.  1.
         21   -1    0    0  502  503 -0.00000000000E+00 -0.00000000000E+00 -0.21347090857E+03  0.21347090857E+03  0.00000000000E+00 0.  1.
    9000007    1    1    2  501    0 -0.14776901192E+02  0.92173674219E+02  0.41858509027E+03  0.58645359648E+03  0.40000000000E+03 0.  1.
   -9000007    1    1    2    0  503  0.14776901192E+02 -0.92173674219E+02  0.19607454396E+03  0.45514785490E+03  0.40000000000E+03 0.  1.
<mgrwt>
<rscale>  2 0.41074852E+03</rscale>
<asrwt>0</asrwt>
<pdfrwt beam="1">  1       21 0.12740470E+00 0.41074852E+03</pdfrwt>
<pdfrwt beam="2">  1       21 0.32841679E-01 0.41074852E+03</pdfrwt>
<totfact> 0.35797416E+03</totfact>
</mgrwt>
</event>
<event>
 4    1  0.4897983E-002  0.5681051E+03  0.7818608E-02  0.9973880E-01
         21   -1    0    0  503  502  0.00000000000E+00  0.00000000000E+00  0.84111786886E+03  0.84111786886E+03  0.00000000000E+00 0. -1.
         21   -1    0    0  501  503 -0.00000000000E+00 -0.00000000000E+00 -0.43334319346E+03  0.43334319346E+03  0.00000000000E+00 0. -1.
    9000007    1    1    2  501    0  0.40229750177E+03  0.30002449966E+02 -0.11776154203E+02  0.56822715946E+03  0.40000000000E+03 0. -1.
   -9000007    1    1    2    0  502 -0.40229750177E+03 -0.30002449966E+02  0.41955082960E+03  0.70623390286E+03  0.40000000000E+03 0. -1.
<mgrwt>
<rscale>  2 0.56810512E+03</rscale>
<asrwt>0</asrwt>
<pdfrwt beam="1">  1       21 0.12940275E+00 0.56810512E+03</pdfrwt>
<pdfrwt beam="2">  1       21 0.66668184E-01 0.56810512E+03</pdfrwt>
<totfact> 0.72653721E+02</totfact>
</mgrwt>
</event>
<event>
 4    1  0.4897983E-002  0.4753896E+03  0.7818608E-02  0.1020410E+00
         21   -1    0    0  501  502  0.00000000000E+00  0.00000000000E+00  0.21220850129E+04  0.21220850129E+04  0.00000000000E+00 0.  1.
         21   -1    0    0  502  503 -0.00000000000E+00 -0.00000000000E+00 -0.11547564929E+03  0.11547564929E+03  0.00000000000E+00 0. -1.
    9000007    1    1    2  501    0 -0.25443858998E+03  0.35444127710E+02  0.13152724601E+04  0.13985481495E+04  0.40000000000E+03 0.  1.
   -9000007    1    1    2    0  503  0.25443858998E+03 -0.35444127710E+02  0.69133690356E+03  0.83901251271E+03  0.40000000000E+03 0. -1.
<mgrwt>
<rscale>  2 0.47538961E+03</rscale>
<asrwt>0</asrwt>
<pdfrwt beam="1">  1       21 0.32647459E+00 0.47538961E+03</pdfrwt>
<pdfrwt beam="2">  1       21 0.17765486E-01 0.47538961E+03</pdfrwt>
<totfact> 0.53882305E+02</totfact>
</mgrwt>
</event>
<event>
 4    1  0.4897983E-002  0.4061493E+03  0.7818608E-02  0.1041671E+00
         21   -1    0    0  503  502  0.00000000000E+00  0.00000000000E+00  0.10069785907E+04  0.10069785907E+04  0.00000000000E+00 0. -1.
         21   -1    0    0  501  503 -0.00000000000E+00 -0.00000000000E+00 -0.17061136705E+03  0.17061136705E+03  0.00000000000E+00 0. -1.
    9000007    1    1    2  501    0 -0.29644814847E+02 -0.63862952201E+02  0.53570780476E+03  0.67226493572E+03  0.40000000000E+03 0. -1.
   -9000007    1    1    2    0  502  0.29644814847E+02  0.63862952201E+02  0.30065941887E+03  0.50532502201E+03  0.40000000000E+03 0. -1.
<mgrwt>
<rscale>  2 0.40614935E+03</rscale>
<asrwt>0</asrwt>
<pdfrwt beam="1">  1       21 0.15491978E+00 0.40614935E+03</pdfrwt>
<pdfrwt beam="2">  1       21 0.26247903E-01 0.40614935E+03</pdfrwt>
<totfact> 0.33265381E+03</totfact>
</mgrwt>
</event>
<event>
 4    1  0.4897983E-002  0.4700319E+03  0.7818608E-02  0.1021911E+00
         21   -1    0    0  501  502  0.00000000000E+00  0.00000000000E+00  0.53827857066E+03  0.53827857066E+03  0.00000000000E+00 0.  1.
         21   -1    0    0  502  503 -0.00000000000E+00 -0.00000000000E+00 -0.65681639329E+03  0.65681639329E+03  0.00000000000E+00 0. -1.
    9000007    1    1    2  501    0 -0.75964305837E+02 -0.23486040585E+03  0.30670634897E+03  0.56124751269E+03  0.40000000000E+03 0.  1.
   -9000007    1    1    2    0  503  0.75964305837E+02  0.23486040585E+03 -0.42524417160E+03  0.63384745127E+03  0.40000000000E+03 0. -1.
<mgrwt>
<rscale>  2 0.47003190E+03</rscale>
<asrwt>0</asrwt>
<pdfrwt beam="1">  1       21 0.82812088E-01 0.47003190E+03</pdfrwt>
<pdfrwt beam="2">  1       21 0.10104868E+00 0.47003190E+03</pdfrwt>
<totfact> 0.85589484E+02</totfact>
</mgrwt>
</event>
<event>
 4    1  0.4897983E-002  0.4978746E+03  0.7818608E-02  0.1014335E+00
         21   -1    0    0  501  502  0.00000000000E+00  0.00000000000E+00  0.49951335591E+03  0.49951335591E+03  0.00000000000E+00 0. -1.
         21   -1    0    0  502  503 -0.00000000000E+00 -0.00000000000E+00 -0.62140182970E+03  0.62140182970E+03  0.00000000000E+00 0. -1.
    9000007    1    1    2  501    0  0.24695240638E+03 -0.16399279599E+03  0.19058605227E+03  0.53310615404E+03  0.40000000000E+03 0. -1.
   -9000007    1    1    2    0  503 -0.24695240638E+03  0.16399279599E+03 -0.31247452607E+03  0.58780903157E+03  0.40000000000E+03 0. -1.
<mgrwt>
<rscale>  2 0.49787461E+03</rscale>
<asrwt>0</asrwt>
<pdfrwt beam="1">  1       21 0.76848209E-01 0.49787461E+03</pdfrwt>
<pdfrwt beam="2">  1       21 0.95600281E-01 0.49787461E+03</pdfrwt>
<totfact> 0.11512061E+03</totfact>
</mgrwt>
</event>
<event>
 4    1  0.4897983E-002  0.4117719E+03  0.7818608E-02  0.1039778E+00
         21   -1    0    0  503  502  0.00000000000E+00  0.00000000000E+00  0.79084947155E+03  0.79084947155E+03  0.00000000000E+00 0.  1.
         21   -1    0    0  501  503 -0.00000000000E+00 -0.00000000000E+00 -0.32835287641E+03  0.32835287641E+03  0.00000000000E+00 0.  1.
    9000007    1    1    2  501    0 -0.80933069335E+02  0.54826128515E+02 -0.98418960182E+02  0.42337023727E+03  0.40000000000E+03 0.  1.
   -9000007    1    1    2    0  502  0.80933069335E+02 -0.54826128515E+02  0.56091555532E+03  0.69583211070E+03  0.40000000000E+03 0.  1.
<mgrwt>
<rscale>  2 0.41177186E+03</rscale>
<asrwt>0</asrwt>
<pdfrwt beam="1">  1       21 0.12166915E+00 0.41177186E+03</pdfrwt>
<pdfrwt beam="2">  1       21 0.50515827E-01 0.41177186E+03</pdfrwt>
<totfact> 0.16566492E+03</totfact>
</mgrwt>
</event>
<event>
 4    1  0.4897983E-002  0.4534790E+03  0.7818608E-02  0.1026690E+00
         21   -1    0    0  503  502  0.00000000000E+00  0.00000000000E+00  0.94126185076E+03  0.94126185076E+03  0.00000000000E+00 0. -1.
         21   -1    0    0  501  503 -0.00000000000E+00 -0.00000000000E+00 -0.22718736119E+03  0.22718736119E+03  0.00000000000E+00 0. -1.
    9000007    1    1    2  501    0  0.11854610407E+03 -0.17773582031E+03  0.47143796146E+03  0.65413832797E+03  0.40000000000E+03 0. -1.
   -9000007    1    1    2    0  502 -0.11854610407E+03  0.17773582031E+03  0.24263652811E+03  0.51431088398E+03  0.40000000000E+03 0. -1.
<mgrwt>
<rscale>  2 0.45347900E+03</rscale>
<asrwt>0</asrwt>
<pdfrwt beam="1">  1       21 0.14480951E+00 0.45347900E+03</pdfrwt>
<pdfrwt beam="2">  1       21 0.34951902E-01 0.45347900E+03</pdfrwt>
<totfact> 0.22182665E+03</totfact>
</mgrwt>
</event>
<event>
 4    1  0.4897983E-002  0.4960857E+03  0.7818608E-02  0.1014806E+00
         21   -1    0    0  503  502  0.00000000000E+00  0.00000000000E+00  0.71587261686E+03  0.71587261686E+03  0.00000000000E+00 0. -1.
         21   -1    0    0  501  503 -0.00000000000E+00 -0.00000000000E+00 -0.34377777581E+03  0.34377777581E+03  0.00000000000E+00 0. -1.
    9000007    1    1    2  501    0  0.23198364012E+03 -0.17967930927E+03  0.18624002884E+03  0.52989283049E+03  0.40000000000E+03 0. -1.
   -9000007    1    1    2    0  502 -0.23198364012E+03  0.17967930927E+03  0.18585481221E+03  0.52975756217E+03  0.40000000000E+03 0. -1.
<mgrwt>
<rscale>  2 0.49608574E+03</rscale>
<asrwt>0</asrwt>
<pdfrwt beam="1">  1       21 0.11013425E+00 0.49608574E+03</pdfrwt>
<pdfrwt beam="2">  1       21 0.52888889E-01 0.49608574E+03</pdfrwt>
<totfact> 0.18669005E+03</totfact>
</mgrwt>
</event>
<event>
 4    1  0.4897983E-002  0.5096852E+03  0.7818608E-02  0.1011281E+00
         21   -1    0    0  501  502  0.00000000000E+00  0.00000000000E+00  0.97618307546E+03  0.97618307546E+03  0.00000000000E+00 0.  1.
         21   -1    0    0  502  503 -0.00000000000E+00 -0.00000000000E+00 -0.33468814094E+03  0.33468814094E+03  0.00000000000E+00 0.  1.
    9000007    1    1    2  501    0 -0.31575524676E+03  0.88094971299E+01  0.24072894724E+02  0.51025335605E+03  0.40000000000E+03 0.  1.
   -9000007    1    1    2    0  503  0.31575524676E+03 -0.88094971299E+01  0.61742203979E+03  0.80061786035E+03  0.40000000000E+03 0.  1.
<mgrwt>
<rscale>  2 0.50968518E+03</rscale>
<asrwt>0</asrwt>
<pdfrwt beam="1">  1       21 0.15018201E+00 0.50968518E+03</pdfrwt>
<pdfrwt beam="2">  1       21 0.51490484E-01 0.50968518E+03</pdfrwt>
<totfact> 0.87830598E+02</totfact>
</mgrwt>
</event>
<event>
 4    1  0.4897983E-002  0.4097828E+03  0.7818608E-02  0.1040444E+00
         21   -1    0    0  501  502  0.00000000000E+00  0.00000000000E+00  0.28137327728E+04  0.28137327728E+04  0.00000000000E+00 0. -1.
         21   -1    0    0  502  503 -0.00000000000E+00 -0.00000000000E+00 -0.31175042260E+03  0.31175042260E+03  0.00000000000E+00 0. -1.
    9000007    1    1    2  501    0  0.68024674353E+02 -0.57398390927E+02  0.26562136720E+04  0.26876370669E+04  0.40000000000E+03 0. -1.
   -9000007    1    1    2    0  503 -0.68024674353E+02  0.57398390927E+02 -0.15423132188E+03  0.43784612851E+03  0.40000000000E+03 0. -1.
<mgrwt>
<rscale>  2 0.40978279E+03</rscale>
<asrwt>0</asrwt>
<pdfrwt beam="1">  1       21 0.43288195E+00 0.40978279E+03</pdfrwt>
<pdfrwt beam="2">  1       21 0.47961605E-01 0.40978279E+03</pdfrwt>
<totfact> 0.16760014E+01</totfact>
</mgrwt>
</event>
<event>
 4    1  0.4897983E-002  0.4049776E+03  0.7818608E-02  0.1042070E+00
         21   -1    0    0  501  502  0.00000000000E+00  0.00000000000E+00  0.26964538643E+03  0.26964538643E+03  0.00000000000E+00 0. -1.
         21   -1    0    0  502  503 -0.00000000000E+00 -0.00000000000E+00 -0.65109629056E+03  0.65109629056E+03  0.00000000000E+00 0. -1.
    9000007    1    1    2  501    0 -0.54376803554E+02  0.32403773938E+02 -0.72602278182E+02  0.41143399486E+03  0.40000000000E+03 0. -1.
   -9000007    1    1    2    0  503  0.54376803554E+02 -0.32403773938E+02 -0.30884862594E+03  0.50930768213E+03  0.40000000000E+03 0. -1.
<mgrwt>
<rscale>  2 0.40497758E+03</rscale>
<asrwt>0</asrwt>
<pdfrwt beam="1">  1       21 0.41483905E-01 0.40497758E+03</pdfrwt>
<pdfrwt beam="2">  1       21 0.10016866E+00 0.40497758E+03</pdfrwt>
<totfact> 0.40660907E+03</totfact>
</mgrwt>
</event>
<event>
 4    1  0.4897983E-002  0.4245777E+03  0.7818608E-02  0.1035587E+00
         21   -1    0    0  503  502  0.00000000000E+00  0.00000000000E+00  0.37698183185E+03  0.37698183185E+03  0.00000000000E+00 0.  1.
         21   -1    0    0  501  503 -0.00000000000E+00 -0.00000000000E+00 -0.49180898899E+03  0.49180898899E+03  0.00000000000E+00 0.  1.
    9000007    1    1    2  501    0  0.38066455606E+02  0.13717568514E+03 -0.12971958598E+03  0.44395201838E+03  0.40000000000E+03 0.  1.
   -9000007    1    1    2    0  502 -0.38066455606E+02 -0.13717568514E+03  0.14892428838E+02  0.42483880246E+03  0.40000000000E+03 0.  1.
<mgrwt>
<rscale>  2 0.42457770E+03</rscale>
<asrwt>0</asrwt>
<pdfrwt beam="1">  1       21 0.57997205E-01 0.42457770E+03</pdfrwt>
<pdfrwt beam="2">  1       21 0.75662921E-01 0.42457770E+03</pdfrwt>
<totfact> 0.38355653E+03</totfact>
</mgrwt>
</event>
<event>
 4    1  0.4897983E-002  0.6855887E+03  0.7818608E-02  0.9742200E-01
         21   -1    0    0  501  502  0.00000000000E+00  0.00000000000E+00  0.28493271141E+03  0.28493271141E+03  0.00000000000E+00 0. -1.
         21   -1    0    0  502  503 -0.00000000000E+00 -0.00000000000E+00 -0.16771311197E+04  0.16771311197E+04  0.00000000000E+00 0.  1.
    9000007    1    1    2  501    0 -0.35375934581E+03 -0.42998390067E+03 -0.82173761951E+03  0.10701796788E+04  0.40000000000E+03 0. -1.
   -9000007    1    1    2    0  503  0.35375934581E+03  0.42998390067E+03 -0.57046078873E+03  0.89188415227E+03  0.40000000000E+03 0. -1.
<mgrwt>
<rscale>  2 0.68558867E+03</rscale>
<asrwt>0</asrwt>
<pdfrwt beam="1">  1       21 0.43835801E-01 0.68558867E+03</pdfrwt>
<pdfrwt beam="2">  1       21 0.25802017E+00 0.68558867E+03</pdfrwt>
<totfact> 0.21381369E+02</totfact>
</mgrwt>
</event>
<event>
 4    1  0.4897983E-002  0.7174165E+03  0.7818608E-02  0.9687903E-01
         21   -1    0    0  501  502  0.00000000000E+00  0.00000000000E+00  0.21191729073E+04  0.21191729073E+04  0.00000000000E+00 0. -1.
         21   -1    0    0  502  503 -0.00000000000E+00 -0.00000000000E+00 -0.24728613024E+03  0.24728613024E+03  0.00000000000E+00 0.  1.
    9000007    1    1    2  501    0  0.53447323688E+03 -0.26272562583E+03  0.77784646547E+03  0.10581736716E+04  0.40000000000E+03 0. -1.
   -9000007    1    1    2    0  503 -0.53447323688E+03  0.26272562583E+03  0.10940403116E+04  0.13082853660E+04  0.40000000000E+03 0.  1.
<mgrwt>
<rscale>  2 0.71741647E+03</rscale>
<asrwt>0</asrwt>
<pdfrwt beam="1">  1       21 0.32602659E+00 0.71741647E+03</pdfrwt>
<pdfrwt beam="2">  1       21 0.38044021E-01 0.71741647E+03</pdfrwt>
<totfact> 0.10831949E+02</totfact>
</mgrwt>
</event>
<event>
 4    1  0.4897983E-002  0.4258261E+03  0.7818608E-02  0.1035187E+00
         21   -1    0    0  503  502  0.00000000000E+00  0.00000000000E+00  0.17869260595E+03  0.17869260595E+03  0.00000000000E+00 0. -1.
         21   -1    0    0  501  503 -0.00000000000E+00 -0.00000000000E+00 -0.11454512138E+04  0.11454512138E+04  0.00000000000E+00 0. -1.
    9000007    1    1    2  501    0 -0.35695619708E+02 -0.14161101847E+03 -0.70702522863E+03  0.82535600303E+03  0.40000000000E+03 0. -1.
   -9000007    1    1    2    0  502  0.35695619708E+02  0.14161101847E+03 -0.25973337921E+03  0.49878781671E+03  0.40000000000E+03 0. -1.
<mgrwt>
<rscale>  2 0.42582609E+03</rscale>
<asrwt>0</asrwt>
<pdfrwt beam="1">  1       21 0.27491170E-01 0.42582609E+03</pdfrwt>
<pdfrwt beam="2">  1       21 0.17622326E+00 0.42582609E+03</pdfrwt>
<totfact> 0.20973335E+03</totfact>
</mgrwt>
</event>
<event>
 4    1  0.4897983E-002  0.4684890E+03  0.7818608E-02  0.1022348E+00
         21   -1    0    0  503  502  0.00000000000E+00  0.00000000000E+00  0.29794339928E+03  0.29794339928E+03  0.00000000000E+00 0. -1.
         21   -1    0    0  501  503 -0.00000000000E+00 -0.00000000000E+00 -0.10978146661E+04  0.10978146661E+04  0.00000000000E+00 0. -1.
    9000007    1    1    2  501    0 -0.22813149145E+03 -0.86243574558E+02 -0.80021608055E+03  0.92726895080E+03  0.40000000000E+03 0. -1.
   -9000007    1    1    2    0  502  0.22813149145E+03  0.86243574558E+02  0.34481377612E+00  0.46848911454E+03  0.40000000000E+03 0. -1.
<mgrwt>
<rscale>  2 0.46848899E+03</rscale>
<asrwt>0</asrwt>
<pdfrwt beam="1">  1       21 0.45837446E-01 0.46848899E+03</pdfrwt>
<pdfrwt beam="2">  1       21 0.16889456E+00 0.46848899E+03</pdfrwt>
<totfact> 0.82401727E+02</totfact>
</mgrwt>
</event>
<event>
 4    1  0.4897983E-002  0.4901753E+03  0.7818608E-02  0.1016376E+00
         21   -1    0    0  503  502  0.00000000000E+00  0.00000000000E+00  0.49879471446E+03  0.49879471446E+03  0.00000000000E+00 0. -1.
         21   -1    0    0  501  503 -0.00000000000E+00 -0.00000000000E+00 -0.48463243028E+03  0.48463243028E+03  0.00000000000E+00 0.  1.
    9000007    1    1    2  501    0  0.24695677915E+03  0.13886744954E+03  0.45298654750E+02  0.49226394082E+03  0.40000000000E+03 0. -1.
   -9000007    1    1    2    0  502 -0.24695677915E+03 -0.13886744954E+03 -0.31136370577E+02  0.49116320392E+03  0.40000000000E+03 0.  1.
<mgrwt>
<rscale>  2 0.49017529E+03</rscale>
<asrwt>0</asrwt>
<pdfrwt beam="1">  1       21 0.76737648E-01 0.49017529E+03</pdfrwt>
<pdfrwt beam="2">  1       21 0.74558835E-01 0.49017529E+03</pdfrwt>
<totfact> 0.20734246E+03</totfact>
</mgrwt>
</event>
<event>
 4    1  0.4897983E-002  0.4236562E+03  0.7818608E-02  0.1035883E+00
         21   -1    0    0  503  502  0.00000000000E+00  0.00000000000E+00  0.67857940755E+03  0.67857940755E+03  0.00000000000E+00 0.  1.
         21   -1    0    0  501  503 -0.00000000000E+00 -0.00000000000E+00 -0.29585317036E+03  0.29585317036E+03  0.00000000000E+00 0. -1.
    9000007    1    1    2  501    0  0.10984181870E+03 -0.86135549522E+02  0.32756499874E+02  0.42492063531E+03  0.40000000000E+03 0. -1.
   -9000007    1    1    2    0  502 -0.10984181870E+03  0.86135549522E+02  0.34996973731E+03  0.54951194260E+03  0.40000000000E+03 0.  1.
<mgrwt>
<rscale>  2 0.42365618E+03</rscale>
<asrwt>0</asrwt>
<pdfrwt beam="1">  1       21 0.10439683E+00 0.42365618E+03</pdfrwt>
<pdfrwt beam="2">  1       21 0.45515873E-01 0.42365618E+03</pdfrwt>
<totfact> 0.30088075E+03</totfact>
</mgrwt>
</event>
<event>
 4    1  0.4897983E-002  0.4111145E+03  0.7818608E-02  0.1039998E+00
         21   -1    0    0  503  502  0.00000000000E+00  0.00000000000E+00  0.62054134334E+03  0.62054134334E+03  0.00000000000E+00 0.  1.
         21   -1    0    0  501  503 -0.00000000000E+00 -0.00000000000E+00 -0.72293764563E+03  0.72293764563E+03  0.00000000000E+00 0.  1.
    9000007    1    1    2  501    0  0.34129786202E+02  0.88601788452E+02 -0.58151057922E+03  0.71215846057E+03  0.40000000000E+03 0.  1.
   -9000007    1    1    2    0  502 -0.34129786202E+02 -0.88601788452E+02  0.47911427692E+03  0.63132052840E+03  0.40000000000E+03 0.  1.
<mgrwt>
<rscale>  2 0.41111448E+03</rscale>
<asrwt>0</asrwt>
<pdfrwt beam="1">  1       21 0.95467899E-01 0.41111448E+03</pdfrwt>
<pdfrwt beam="2">  1       21 0.11122118E+00 0.41111448E+03</pdfrwt>
<totfact> 0.49590087E+02</totfact>
</mgrwt>
</event>
<event>
 4    1  0.4897983E-002  0.7934198E+03  0.7818608E-02  0.9569591E-01
         21   -1    0    0  501  502  0.00000000000E+00  0.00000000000E+00  0.10006854005E+04  0.10006854005E+04  0.00000000000E+00 0.  1.
         21   -1    0    0  502  503 -0.00000000000E+00 -0.00000000000E+00 -0.64767502962E+03  0.64767502962E+03  0.00000000000E+00 0.  1.
    9000007    1    1    2  501    0  0.12395176891E+03 -0.67390721797E+03  0.31614125186E+03  0.85408446337E+03  0.40000000000E+03 0.  1.
   -9000007    1    1    2    0  503 -0.12395176891E+03  0.67390721797E+03  0.36869119031E+02  0.79427596677E+03  0.40000000000E+03 0.  1.
<mgrwt>
<rscale>  2 0.79341980E+03</rscale>
<asrwt>0</asrwt>
<pdfrwt beam="1">  1       21 0.15395160E+00 0.79341980E+03</pdfrwt>
<pdfrwt beam="2">  1       21 0.99642312E-01 0.79341980E+03</pdfrwt>
<totfact> 0.16537765E+02</totfact>
</mgrwt>
</event>
<event>
 4    1  0.4897983E-002  0.4696661E+03  0.7818608E-02  0.1022015E+00
         21   -1    0    0  503  502  0.00000000000E+00  0.00000000000E+00  0.96000230200E+03  0.96000230200E+03  0.00000000000E+00 0. -1.
         21   -1    0    0  501  503 -0.00000000000E+00 -0.00000000000E+00 -0.27254739345E+03  0.27254739345E+03  0.00000000000E+00 0.  1.
    9000007    1    1    2  501    0 -0.19855346141E+03 -0.14547415379E+03  0.58786036645E+03  0.75244004206E+03  0.40000000000E+03 0. -1.
   -9000007    1    1    2    0  502  0.19855346141E+03  0.14547415379E+03  0.99594542110E+02  0.48010965339E+03  0.40000000000E+03 0. -1.
<mgrwt>
<rscale>  2 0.46966606E+03</rscale>
<asrwt>0</asrwt>
<pdfrwt beam="1">  1       21 0.14769266E+00 0.46966606E+03</pdfrwt>
<pdfrwt beam="2">  1       21 0.41930369E-01 0.46966606E+03</pdfrwt>
<totfact> 0.14394079E+03</totfact>
</mgrwt>
</event>
<event>
 4    1  0.4897983E-002  0.4160286E+03  0.7818608E-02  0.1038367E+00
         21   -1    0    0  503  502  0.00000000000E+00  0.00000000000E+00  0.77566832463E+03  0.77566832463E+03  0.00000000000E+00 0.  1.
         21   -1    0    0  501  503 -0.00000000000E+00 -0.00000000000E+00 -0.22514939500E+03  0.22514939500E+03  0.00000000000E+00 0. -1.
    9000007    1    1    2  501    0 -0.28802430708E+02 -0.11068065294E+03  0.32257655003E+03  0.52643652759E+03  0.40000000000E+03 0.  1.
   -9000007    1    1    2    0  502  0.28802430708E+02  0.11068065294E+03  0.22794237960E+03  0.47438119205E+03  0.40000000000E+03 0.  1.
<mgrwt>
<rscale>  2 0.41602859E+03</rscale>
<asrwt>0</asrwt>
<pdfrwt beam="1">  1       21 0.11933359E+00 0.41602859E+03</pdfrwt>
<pdfrwt beam="2">  1       21 0.34638369E-01 0.41602859E+03</pdfrwt>
<totfact> 0.37943257E+03</totfact>
</mgrwt>
</event>
<event>
 4    1  0.4897983E-002  0.5273533E+03  0.7818608E-02  0.1006876E+00
         21   -1    0    0  503  502  0.00000000000E+00  0.00000000000E+00  0.47028273008E+03  0.47028273008E+03  0.00000000000E+00 0.  1.
         21   -1    0    0  501  503 -0.00000000000E+00 -0.00000000000E+00 -0.69507495221E+03  0.69507495221E+03  0.00000000000E+00 0.  1.
    9000007    1    1    2  501    0  0.31492539308E+03 -0.13756283649E+03 -0.33748587273E+03  0.62609763734E+03  0.40000000000E+03 0.  1.
   -9000007    1    1    2    0  502 -0.31492539308E+03  0.13756283649E+03  0.11269365060E+03  0.53926004495E+03  0.40000000000E+03 0.  1.
<mgrwt>
<rscale>  2 0.52735333E+03</rscale>
<asrwt>0</asrwt>
<pdfrwt beam="1">  1       21 0.72351190E-01 0.52735333E+03</pdfrwt>
<pdfrwt beam="2">  1       21 0.10693461E+00 0.52735333E+03</pdfrwt>
<totfact> 0.99425219E+02</totfact>
</mgrwt>
</event>
<event>
 4    1  0.4897983E-002  0.4166211E+03  0.7818608E-02  0.1038172E+00
         21   -1    0    0  501  502  0.00000000000E+00  0.00000000000E+00  0.24363023479E+03  0.24363023479E+03  0.00000000000E+00 0.  1.
         21   -1    0    0  502  503 -0.00000000000E+00 -0.00000000000E+00 -0.94410633065E+03  0.94410633065E+03  0.00000000000E+00 0. -1.
    9000007    1    1    2  501    0 -0.84941303043E+02 -0.79737981544E+02 -0.56062655369E+02  0.42037625051E+03  0.40000000000E+03 0.  1.
   -9000007    1    1    2    0  503  0.84941303043E+02  0.79737981544E+02 -0.64441344049E+03  0.76736031494E+03  0.40000000000E+03 0. -1.
<mgrwt>
<rscale>  2 0.41662114E+03</rscale>
<asrwt>0</asrwt>
<pdfrwt beam="1">  1       21 0.37481575E-01 0.41662114E+03</pdfrwt>
<pdfrwt beam="2">  1       21 0.14524713E+00 0.41662114E+03</pdfrwt>
<totfact> 0.19379772E+03</totfact>
</mgrwt>
</event>
<event>
 4    1  0.4897983E-002  0.4403223E+03  0.7818608E-02  0.1030648E+00
         21   -1    0    0  503  502  0.00000000000E+00  0.00000000000E+00  0.24929176327E+04  0.24929176327E+04  0.00000000000E+00 0.  1.
         21   -1    0    0  501  503 -0.00000000000E+00 -0.00000000000E+00 -0.48044220877E+03  0.48044220877E+03  0.00000000000E+00 0.  1.
    9000007    1    1    2  501    0  0.14503814374E+03 -0.11334736060E+03 -0.35480161891E+03  0.56548021722E+03  0.40000000000E+03 0.  1.
   -9000007    1    1    2    0  502 -0.14503814374E+03  0.11334736060E+03  0.23672770428E+04  0.24078796242E+04  0.40000000000E+03 0.  1.
<mgrwt>
<rscale>  2 0.44032225E+03</rscale>
<asrwt>0</asrwt>
<pdfrwt beam="1">  1       21 0.38352578E+00 0.44032225E+03</pdfrwt>
<pdfrwt beam="2">  1       21 0.73914188E-01 0.44032225E+03</pdfrwt>
<totfact> 0.13220572E+01</totfact>
</mgrwt>
</event>
<event>
 4    1  0.4897983E-002  0.5041147E+03  0.7818608E-02  0.1012710E+00
         21   -1    0    0  503  502  0.00000000000E+00  0.00000000000E+00  0.96173695846E+03  0.96173695846E+03  0.00000000000E+00 0. -1.
         21   -1    0    0  501  503 -0.00000000000E+00 -0.00000000000E+00 -0.30271885859E+03  0.30271885859E+03  0.00000000000E+00 0. -1.
    9000007    1    1    2  501    0 -0.22501957023E+03  0.20856136735E+03  0.10411022204E+03  0.51475294003E+03  0.40000000000E+03 0. -1.
   -9000007    1    1    2    0  502  0.22501957023E+03 -0.20856136735E+03  0.55490787783E+03  0.74970287702E+03  0.40000000000E+03 0. -1.
<mgrwt>
<rscale>  2 0.50411472E+03</rscale>
<asrwt>0</asrwt>
<pdfrwt beam="1">  1       21 0.14795953E+00 0.50411472E+03</pdfrwt>
<pdfrwt beam="2">  1       21 0.46572132E-01 0.50411472E+03</pdfrwt>
<totfact> 0.11346709E+03</totfact>
</mgrwt>
</event>
<event>
 4    1  0.4897983E-002  0.6385230E+03  0.7818608E-02  0.9828556E-01
         21   -1    0    0  503  502  0.00000000000E+00  0.00000000000E+00  0.11511304894E+04  0.11511304894E+04  0.00000000000E+00 0.  1.
         21   -1    0    0  501  503 -0.00000000000E+00 -0.00000000000E+00 -0.36237556546E+03  0.36237556546E+03  0.00000000000E+00 0. -1.
    9000007    1    1    2  501    0  0.49770628589E+03  0.28534646036E+00  0.50815767746E+03  0.81604892843E+03  0.40000000000E+03 0.  1.
   -9000007    1    1    2    0  502 -0.49770628589E+03 -0.28534646036E+00  0.28059724644E+03  0.69745712639E+03  0.40000000000E+03 0. -1.
<mgrwt>
<rscale>  2 0.63852301E+03</rscale>
<asrwt>0</asrwt>
<pdfrwt beam="1">  1       21 0.17709700E+00 0.63852301E+03</pdfrwt>
<pdfrwt beam="2">  1       21 0.55750088E-01 0.63852301E+03</pdfrwt>
<totfact> 0.44335592E+02</totfact>
</mgrwt>
</event>
<event>
 4    1  0.4897983E-002  0.4479545E+03  0.7818608E-02  0.1028334E+00
         21   -1    0    0  501  502  0.00000000000E+00  0.00000000000E+00  0.11484910676E+03  0.11484910676E+03  0.00000000000E+00 0.  1.
         21   -1    0    0  502  503 -0.00000000000E+00 -0.00000000000E+00 -0.18452216970E+04  0.18452216970E+04  0.00000000000E+00 0.  1.
    9000007    1    1    2  501    0  0.13081003597E+03 -0.15346643281E+03 -0.10910782350E+04  0.11794553516E+04  0.40000000000E+03 0.  1.
   -9000007    1    1    2    0  503 -0.13081003597E+03  0.15346643281E+03 -0.63929435521E+03  0.78061545213E+03  0.40000000000E+03 0.  1.
<mgrwt>
<rscale>  2 0.44795447E+03</rscale>
<asrwt>0</asrwt>
<pdfrwt beam="1">  1       21 0.17669094E-01 0.44795447E+03</pdfrwt>
<pdfrwt beam="2">  1       21 0.28388025E+00 0.44795447E+03</pdfrwt>
<totfact> 0.99818879E+02</totfact>
</mgrwt>
</event>
<event>
 4    1  0.4897983E-002  0.4789969E+03  0.7818608E-02  0.1019411E+00
         21   -1    0    0  501  502  0.00000000000E+00  0.00000000000E+00  0.69463490399E+03  0.69463490399E+03  0.00000000000E+00 0. -1.
         21   -1    0    0  502  503 -0.00000000000E+00 -0.00000000000E+00 -0.61851437711E+03  0.61851437711E+03  0.00000000000E+00 0. -1.
    9000007    1    1    2  501    0  0.10928626569E+03 -0.23978017441E+03  0.48625515794E+03  0.68255556443E+03  0.40000000000E+03 0. -1.
   -9000007    1    1    2    0  503 -0.10928626569E+03  0.23978017441E+03 -0.41013463107E+03  0.63059371667E+03  0.40000000000E+03 0. -1.
<mgrwt>
<rscale>  2 0.47899689E+03</rscale>
<asrwt>0</asrwt>
<pdfrwt beam="1">  1       21 0.10686691E+00 0.47899689E+03</pdfrwt>
<pdfrwt beam="2">  1       21 0.95156058E-01 0.47899689E+03</pdfrwt>
<totfact> 0.53492855E+02</totfact>
</mgrwt>
</event>
<event>
 4    1  0.4897983E-002  0.5247022E+03  0.7818608E-02  0.1007525E+00
         21   -1    0    0  501  502  0.00000000000E+00  0.00000000000E+00  0.34143449960E+03  0.34143449960E+03  0.00000000000E+00 0.  1.
         21   -1    0    0  502  503 -0.00000000000E+00 -0.00000000000E+00 -0.85028868282E+03  0.85028868282E+03  0.00000000000E+00 0.  1.
    9000007    1    1    2  501    0  0.87409097086E+02 -0.32813416439E+03 -0.11895997583E+03  0.53801845316E+03  0.40000000000E+03 0.  1.
   -9000007    1    1    2    0  503 -0.87409097086E+02  0.32813416439E+03 -0.38989420740E+03  0.65370472925E+03  0.40000000000E+03 0.  1.
<mgrwt>
<rscale>  2 0.52470218E+03</rscale>
<asrwt>0</asrwt>
<pdfrwt beam="1">  1       21 0.52528385E-01 0.52470218E+03</pdfrwt>
<pdfrwt beam="2">  1       21 0.13081364E+00 0.52470218E+03</pdfrwt>
<totfact> 0.12100168E+03</totfact>
</mgrwt>
</event>
<event>
 4    1  0.4897983E-002  0.4667821E+03  0.7818608E-02  0.1022832E+00
         21   -1    0    0  503  502  0.00000000000E+00  0.00000000000E+00  0.67277345177E+03  0.67277345177E+03  0.00000000000E+00 0.  1.
         21   -1    0    0  501  503 -0.00000000000E+00 -0.00000000000E+00 -0.39883204291E+03  0.39883204291E+03  0.00000000000E+00 0. -1.
    9000007    1    1    2  501    0 -0.23646264653E+03  0.44395719657E+02 -0.95332191117E+02  0.47641766318E+03  0.40000000000E+03 0. -1.
   -9000007    1    1    2    0  502  0.23646264653E+03 -0.44395719657E+02  0.36927359997E+03  0.59518783150E+03  0.40000000000E+03 0.  1.
<mgrwt>
<rscale>  2 0.46678214E+03</rscale>
<asrwt>0</asrwt>
<pdfrwt beam="1">  1       21 0.10350361E+00 0.46678214E+03</pdfrwt>
<pdfrwt beam="2">  1       21 0.61358776E-01 0.46678214E+03</pdfrwt>
<totfact> 0.15925167E+03</totfact>
</mgrwt>
</event>
<event>
 4    1  0.4897983E-002  0.4158412E+03  0.7818608E-02  0.1038428E+00
         21   -1    0    0  501  502  0.00000000000E+00  0.00000000000E+00  0.67062215675E+03  0.67062215675E+03  0.00000000000E+00 0.  1.
         21   -1    0    0  502  503 -0.00000000000E+00 -0.00000000000E+00 -0.25786093631E+03  0.25786093631E+03  0.00000000000E+00 0.  1.
    9000007    1    1    2  501    0 -0.88845289956E+02  0.70925173522E+02  0.20843652782E+03  0.46515551369E+03  0.40000000000E+03 0. -1.
   -9000007    1    1    2    0  503  0.88845289956E+02 -0.70925173522E+02  0.20432469262E+03  0.46332757937E+03  0.40000000000E+03 0. -1.
<mgrwt>
<rscale>  2 0.41584115E+03</rscale>
<asrwt>0</asrwt>
<pdfrwt beam="1">  1       21 0.10317264E+00 0.41584115E+03</pdfrwt>
<pdfrwt beam="2">  1       21 0.39670914E-01 0.41584115E+03</pdfrwt>
<totfact> 0.41312477E+03</totfact>
</mgrwt>
</event>
<event>
 4    1  0.4897983E-002  0.4123484E+03  0.7818608E-02  0.1039586E+00
         21   -1    0    0  503  502  0.00000000000E+00  0.00000000000E+00  0.11437323816E+04  0.11437323816E+04  0.00000000000E+00 0. -1.
         21   -1    0    0  501  503 -0.00000000000E+00 -0.00000000000E+00 -0.15787631815E+03  0.15787631815E+03  0.00000000000E+00 0. -1.
    9000007    1    1    2  501    0 -0.19193381857E+02 -0.98299740735E+02  0.33571487000E+03  0.53172897126E+03  0.40000000000E+03 0. -1.
   -9000007    1    1    2    0  502  0.19193381857E+02  0.98299740735E+02  0.65014119348E+03  0.76987972853E+03  0.40000000000E+03 0. -1.
<mgrwt>
<rscale>  2 0.41234843E+03</rscale>
<asrwt>0</asrwt>
<pdfrwt beam="1">  1       21 0.17595882E+00 0.41234843E+03</pdfrwt>
<pdfrwt beam="2">  1       21 0.24288665E-01 0.41234843E+03</pdfrwt>
<totfact> 0.26974568E+03</totfact>
</mgrwt>
</event>
<event>
 4    1  0.4897983E-002  0.4770105E+03  0.7818608E-02  0.1019960E+00
         21   -1    0    0  501  502  0.00000000000E+00  0.00000000000E+00  0.66470954788E+03  0.66470954788E+03  0.00000000000E+00 0.  1.
         21   -1    0    0  502  503 -0.00000000000E+00 -0.00000000000E+00 -0.59936099292E+03  0.59936099292E+03  0.00000000000E+00 0.  1.
    9000007    1    1    2  501    0 -0.10751966866E+03 -0.23659780421E+03  0.44658228544E+03  0.65343304001E+03  0.40000000000E+03 0.  1.
   -9000007    1    1    2    0  503  0.10751966866E+03  0.23659780421E+03 -0.38123373048E+03  0.61063750078E+03  0.40000000000E+03 0.  1.
<mgrwt>
<rscale>  2 0.47701048E+03</rscale>
<asrwt>0</asrwt>
<pdfrwt beam="1">  1       21 0.10226301E+00 0.47701048E+03</pdfrwt>
<pdfrwt beam="2">  1       21 0.92209384E-01 0.47701048E+03</pdfrwt>
<totfact> 0.64336054E+02</totfact>
</mgrwt>
</event>
<event>
 4    1  0.4897983E-002  0.4961659E+03  0.7818608E-02  0.1014785E+00
         21   -1    0    0  503  502  0.00000000000E+00  0.00000000000E+00  0.81420077747E+03  0.81420077747E+03  0.00000000000E+00 0.  1.
         21   -1    0    0  501  503 -0.00000000000E+00 -0.00000000000E+00 -0.51759345488E+03  0.51759345488E+03  0.00000000000E+00 0. -1.
    9000007    1    1    2  501    0  0.19994788481E+03  0.21494517849E+03 -0.28110329221E+03  0.57026278792E+03  0.40000000000E+03 0. -1.
   -9000007    1    1    2    0  502 -0.19994788481E+03 -0.21494517849E+03  0.57771061480E+03  0.76153144442E+03  0.40000000000E+03 0. -1.
<mgrwt>
<rscale>  2 0.49616589E+03</rscale>
<asrwt>0</asrwt>
<pdfrwt beam="1">  1       21 0.12526166E+00 0.49616589E+03</pdfrwt>
<pdfrwt beam="2">  1       21 0.79629762E-01 0.49616589E+03</pdfrwt>
<totfact> 0.54160133E+02</totfact>
</mgrwt>
</event>
<event>
 4    1  0.4897983E-002  0.4895260E+03  0.7818608E-02  0.1016550E+00
         21   -1    0    0  501  502  0.00000000000E+00  0.00000000000E+00  0.96347794285E+03  0.96347794285E+03  0.00000000000E+00 0. -1.
         21   -1    0    0  502  503 -0.00000000000E+00 -0.00000000000E+00 -0.30252045210E+03  0.30252045210E+03  0.00000000000E+00 0. -1.
    9000007    1    1    2  501    0 -0.28120816501E+03 -0.23614678117E+02  0.59742329061E+03  0.77236667021E+03  0.40000000000E+03 0. -1.
   -9000007    1    1    2    0  503  0.28120816501E+03  0.23614678117E+02  0.63534200143E+02  0.49363172475E+03  0.40000000000E+03 0. -1.
<mgrwt>
<rscale>  2 0.48952598E+03</rscale>
<asrwt>0</asrwt>
<pdfrwt beam="1">  1       21 0.14822737E+00 0.48952598E+03</pdfrwt>
<pdfrwt beam="2">  1       21 0.46541609E-01 0.48952598E+03</pdfrwt>
<totfact> 0.11369232E+03</totfact>
</mgrwt>
</event>
<event>
 4    1  0.4897983E-002  0.4514988E+03  0.7818608E-02  0.1027276E+00
         21   -1    0    0  501  502  0.00000000000E+00  0.00000000000E+00  0.60549432774E+03  0.60549432774E+03  0.00000000000E+00 0.  1.
         21   -1    0    0  502  503 -0.00000000000E+00 -0.00000000000E+00 -0.88411928593E+03  0.88411928593E+03  0.00000000000E+00 0. -1.
    9000007    1    1    2  501    0  0.20913485884E+03 -0.10666166960E+02  0.44677245458E+03  0.63518247967E+03  0.40000000000E+03 0.  1.
   -9000007    1    1    2    0  503 -0.20913485884E+03  0.10666166960E+02 -0.72539741278E+03  0.85443113401E+03  0.40000000000E+03 0. -1.
<mgrwt>
<rscale>  2 0.45149879E+03</rscale>
<asrwt>0</asrwt>
<pdfrwt beam="1">  1       21 0.93152974E-01 0.45149879E+03</pdfrwt>
<pdfrwt beam="2">  1       21 0.13601835E+00 0.45149879E+03</pdfrwt>
<totfact> 0.30846816E+02</totfact>
</mgrwt>
</event>
<event>
 4    1  0.4897983E-002  0.4900814E+03  0.7818608E-02  0.1016401E+00
         21   -1    0    0  503  502  0.00000000000E+00  0.00000000000E+00  0.59103397877E+03  0.59103397877E+03  0.00000000000E+00 0.  1.
         21   -1    0    0  501  503 -0.00000000000E+00 -0.00000000000E+00 -0.43098388567E+03  0.43098388567E+03  0.00000000000E+00 0.  1.
    9000007    1    1    2  501    0 -0.27772972581E+03 -0.55190755366E+02 -0.42089676954E+02  0.49188551613E+03  0.40000000000E+03 0.  1.
   -9000007    1    1    2    0  502  0.27772972581E+03  0.55190755366E+02  0.20213977006E+03  0.53013234830E+03  0.40000000000E+03 0.  1.
<mgrwt>
<rscale>  2 0.49008144E+03</rscale>
<asrwt>0</asrwt>
<pdfrwt beam="1">  1       21 0.90928305E-01 0.49008144E+03</pdfrwt>
<pdfrwt beam="2">  1       21 0.66305213E-01 0.49008144E+03</pdfrwt>
<totfact> 0.18180056E+03</totfact>
</mgrwt>
</event>
<event>
 4    1  0.4897983E-002  0.4468489E+03  0.7818608E-02  0.1028666E+00
         21   -1    0    0  503  502  0.00000000000E+00  0.00000000000E+00  0.28940014677E+04  0.28940014677E+04  0.00000000000E+00 0. -1.
         21   -1    0    0  501  503 -0.00000000000E+00 -0.00000000000E+00 -0.73698561444E+02  0.73698561444E+02  0.00000000000E+00 0. -1.
    9000007    1    1    2  501    0 -0.14172836239E+03 -0.13995367378E+03  0.10353193616E+04  0.11276347547E+04  0.40000000000E+03 0. -1.
   -9000007    1    1    2    0  502  0.14172836239E+03  0.13995367378E+03  0.17849835446E+04  0.18400652744E+04  0.40000000000E+03 0. -1.
<mgrwt>
<rscale>  2 0.44684892E+03</rscale>
<asrwt>0</asrwt>
<pdfrwt beam="1">  1       21 0.44523091E+00 0.44684892E+03</pdfrwt>
<pdfrwt beam="2">  1       21 0.11338242E-01 0.44684892E+03</pdfrwt>
<totfact> 0.22136103E+02</totfact>
</mgrwt>
</event>
<event>
 4    1  0.4897983E-002  0.4698777E+03  0.7818608E-02  0.1021955E+00
         21   -1    0    0  503  502  0.00000000000E+00  0.00000000000E+00  0.18130772865E+03  0.18130772865E+03  0.00000000000E+00 0. -1.
         21   -1    0    0  501  503 -0.00000000000E+00 -0.00000000000E+00 -0.12388161282E+04  0.12388161282E+04  0.00000000000E+00 0.  1.
    9000007    1    1    2  501    0  0.23287204854E+03  0.80967203184E+02 -0.43613052679E+03  0.64108885139E+03  0.40000000000E+03 0. -1.
   -9000007    1    1    2    0  502 -0.23287204854E+03 -0.80967203184E+02 -0.62137787280E+03  0.77903500550E+03  0.40000000000E+03 0.  1.
<mgrwt>
<rscale>  2 0.46987773E+03</rscale>
<asrwt>0</asrwt>
<pdfrwt beam="1">  1       21 0.27893496E-01 0.46987773E+03</pdfrwt>
<pdfrwt beam="2">  1       21 0.19058710E+00 0.46987773E+03</pdfrwt>
<totfact> 0.15884386E+03</totfact>
</mgrwt>
</event>
<event>
 4    1  0.4897983E-002  0.4319829E+03  0.7818608E-02  0.1033235E+00
         21   -1    0    0  501  502  0.00000000000E+00  0.00000000000E+00  0.30339096192E+03  0.30339096192E+03  0.00000000000E+00 0. -1.
         21   -1    0    0  502  503 -0.00000000000E+00 -0.00000000000E+00 -0.75673564446E+03  0.75673564446E+03  0.00000000000E+00 0.  1.
    9000007    1    1    2  501    0 -0.22228947051E+02  0.16160157742E+03  0.26652237873E+01  0.43199108709E+03  0.40000000000E+03 0. -1.
   -9000007    1    1    2    0  503  0.22228947051E+02 -0.16160157742E+03 -0.45600990633E+03  0.62813551928E+03  0.40000000000E+03 0.  1.
<mgrwt>
<rscale>  2 0.43198287E+03</rscale>
<asrwt>0</asrwt>
<pdfrwt beam="1">  1       21 0.46675533E-01 0.43198287E+03</pdfrwt>
<pdfrwt beam="2">  1       21 0.11642087E+00 0.43198287E+03</pdfrwt>
<totfact> 0.21711551E+03</totfact>
</mgrwt>
</event>
<event>
 4    1  0.4897983E-002  0.4650871E+03  0.7818608E-02  0.1023316E+00
         21   -1    0    0  503  502  0.00000000000E+00  0.00000000000E+00  0.66848115775E+03  0.66848115775E+03  0.00000000000E+00 0.  1.
         21   -1    0    0  501  503 -0.00000000000E+00 -0.00000000000E+00 -0.32396357817E+03  0.32396357817E+03  0.00000000000E+00 0. -1.
    9000007    1    1    2  501    0 -0.20475455060E+03  0.11992343668E+03  0.18936937277E+03  0.50216214115E+03  0.40000000000E+03 0. -1.
   -9000007    1    1    2    0  502  0.20475455060E+03 -0.11992343668E+03  0.15514820681E+03  0.49028259477E+03  0.40000000000E+03 0. -1.
<mgrwt>
<rscale>  2 0.46508715E+03</rscale>
<asrwt>0</asrwt>
<pdfrwt beam="1">  1       21 0.10284325E+00 0.46508715E+03</pdfrwt>
<pdfrwt beam="2">  1       21 0.49840551E-01 0.46508715E+03</pdfrwt>
<totfact> 0.25382071E+03</totfact>
</mgrwt>
</event>
<event>
 4    1  0.4897983E-002  0.4556307E+03  0.7818608E-02  0.1026056E+00
         21   -1    0    0  501  502  0.00000000000E+00  0.00000000000E+00  0.11182387954E+04  0.11182387954E+04  0.00000000000E+00 0.  1.
         21   -1    0    0  502  503 -0.00000000000E+00 -0.00000000000E+00 -0.19833309824E+03  0.19833309824E+03  0.00000000000E+00 0.  1.
    9000007    1    1    2  501    0 -0.16179747003E+03  0.14635900706E+03  0.62643012322E+03  0.77460575749E+03  0.40000000000E+03 0.  1.
   -9000007    1    1    2    0  503  0.16179747003E+03 -0.14635900706E+03  0.29347557396E+03  0.54196613618E+03  0.40000000000E+03 0.  1.
<mgrwt>
<rscale>  2 0.45563075E+03</rscale>
<asrwt>0</asrwt>
<pdfrwt beam="1">  1       21 0.17203673E+00 0.45563075E+03</pdfrwt>
<pdfrwt beam="2">  1       21 0.30512785E-01 0.45563075E+03</pdfrwt>
<totfact> 0.18059121E+03</totfact>
</mgrwt>
</event>
<event>
 4    1  0.4897983E-002  0.4203349E+03  0.7818608E-02  0.1036957E+00
         21   -1    0    0  501  502  0.00000000000E+00  0.00000000000E+00  0.59339758450E+03  0.59339758450E+03  0.00000000000E+00 0. -1.
         21   -1    0    0  502  503 -0.00000000000E+00 -0.00000000000E+00 -0.29824627445E+03  0.29824627445E+03  0.00000000000E+00 0. -1.
    9000007    1    1    2  501    0  0.10448288166E+03 -0.75925940386E+02  0.12930627272E+03  0.43977441165E+03  0.40000000000E+03 0. -1.
   -9000007    1    1    2    0  503 -0.10448288166E+03  0.75925940386E+02  0.16584503734E+03  0.45186944729E+03  0.40000000000E+03 0. -1.
<mgrwt>
<rscale>  2 0.42033489E+03</rscale>
<asrwt>0</asrwt>
<pdfrwt beam="1">  1       21 0.91291936E-01 0.42033489E+03</pdfrwt>
<pdfrwt beam="2">  1       21 0.45884042E-01 0.42033489E+03</pdfrwt>
<totfact> 0.40932750E+03</totfact>
</mgrwt>
</event>
<event>
 4    1  0.4897983E-002  0.4140765E+03  0.7818608E-02  0.1039012E+00
         21   -1    0    0  501  502  0.00000000000E+00  0.00000000000E+00  0.98722897010E+03  0.98722897010E+03  0.00000000000E+00 0.  1.
         21   -1    0    0  502  503 -0.00000000000E+00 -0.00000000000E+00 -0.21555196968E+03  0.21555196968E+03  0.00000000000E+00 0.  1.
    9000007    1    1    2  501    0 -0.10622894184E+03  0.13220503519E+02  0.65090550746E+03  0.77145145631E+03  0.40000000000E+03 0. -1.
   -9000007    1    1    2    0  503  0.10622894184E+03 -0.13220503519E+02  0.12077149296E+03  0.43132948347E+03  0.40000000000E+03 0. -1.
<mgrwt>
<rscale>  2 0.41407653E+03</rscale>
<asrwt>0</asrwt>
<pdfrwt beam="1">  1       21 0.15188138E+00 0.41407653E+03</pdfrwt>
<pdfrwt beam="2">  1       21 0.33161842E-01 0.41407653E+03</pdfrwt>
<totfact> 0.22028553E+03</totfact>
</mgrwt>
</event>
<event>
 4    1  0.4897983E-002  0.4851625E+03  0.7818608E-02  0.1017726E+00
         21   -1    0    0  501  502  0.00000000000E+00  0.00000000000E+00  0.11349323303E+04  0.11349323303E+04  0.00000000000E+00 0. -1.
         21   -1    0    0  502  503 -0.00000000000E+00 -0.00000000000E+00 -0.21275141654E+03  0.21275141654E+03  0.00000000000E+00 0. -1.
    9000007    1    1    2  501    0  0.10699107691E+03 -0.25285477351E+03  0.56798110952E+03  0.74698404789E+03  0.40000000000E+03 0.  1.
   -9000007    1    1    2    0  503 -0.10699107691E+03  0.25285477351E+03  0.35419980427E+03  0.60069969900E+03  0.40000000000E+03 0.  1.
<mgrwt>
<rscale>  2 0.48516247E+03</rscale>
<asrwt>0</asrwt>
<pdfrwt beam="1">  1       21 0.17460497E+00 0.48516247E+03</pdfrwt>
<pdfrwt beam="2">  1       21 0.32730988E-01 0.48516247E+03</pdfrwt>
<totfact> 0.14860493E+03</totfact>
</mgrwt>
</event>
<event>
 4    1  0.4897983E-002  0.4964264E+03  0.7818608E-02  0.1014716E+00
         21   -1    0    0  503  502  0.00000000000E+00  0.00000000000E+00  0.54251936958E+03  0.54251936958E+03  0.00000000000E+00 0. -1.
         21   -1    0    0  501  503 -0.00000000000E+00 -0.00000000000E+00 -0.47505211761E+03  0.47505211761E+03  0.00000000000E+00 0.  1.
    9000007    1    1    2  501    0 -0.72712415401E+02 -0.28487195196E+03  0.14020278811E+03  0.51584488576E+03  0.40000000000E+03 0. -1.
   -9000007    1    1    2    0  502  0.72712415401E+02  0.28487195196E+03 -0.72735536139E+02  0.50172660143E+03  0.40000000000E+03 0.  1.
<mgrwt>
<rscale>  2 0.49642635E+03</rscale>
<asrwt>0</asrwt>
<pdfrwt beam="1">  1       21 0.83464519E-01 0.49642635E+03</pdfrwt>
<pdfrwt beam="2">  1       21 0.73084941E-01 0.49642635E+03</pdfrwt>
<totfact> 0.17824417E+03</totfact>
</mgrwt>
</event>
<event>
 4    1  0.4897983E-002  0.6533813E+03  0.7818608E-02  0.9800455E-01
         21   -1    0    0  501  502  0.00000000000E+00  0.00000000000E+00  0.54371220774E+03  0.54371220774E+03  0.00000000000E+00 0.  1.
         21   -1    0    0  502  503 -0.00000000000E+00 -0.00000000000E+00 -0.13847433836E+04  0.13847433836E+04  0.00000000000E+00 0. -1.
    9000007    1    1    2  501    0  0.19963098438E+03 -0.47650249122E+03  0.21396120799E+03  0.68752203789E+03  0.40000000000E+03 0.  1.
   -9000007    1    1    2    0  503 -0.19963098438E+03  0.47650249122E+03 -0.10549923839E+04  0.12409335534E+04  0.40000000000E+03 0. -1.
<mgrwt>
<rscale>  2 0.65338132E+03</rscale>
<asrwt>0</asrwt>
<pdfrwt beam="1">  1       21 0.83648033E-01 0.65338132E+03</pdfrwt>
<pdfrwt beam="2">  1       21 0.21303744E+00 0.65338132E+03</pdfrwt>
<totfact> 0.99803836E+01</totfact>
</mgrwt>
</event>
<event>
 4    1  0.4897983E-002  0.4191031E+03  0.7818608E-02  0.1037359E+00
         21   -1    0    0  501  502  0.00000000000E+00  0.00000000000E+00  0.59736347348E+03  0.59736347348E+03  0.00000000000E+00 0.  1.
         21   -1    0    0  502  503 -0.00000000000E+00 -0.00000000000E+00 -0.41060285091E+03  0.41060285091E+03  0.00000000000E+00 0.  1.
    9000007    1    1    2  501    0 -0.70157777880E+02 -0.10356300127E+03  0.36190815667E+03  0.55373723272E+03  0.40000000000E+03 0.  1.
   -9000007    1    1    2    0  503  0.70157777880E+02  0.10356300127E+03 -0.17514753410E+03  0.45422909168E+03  0.40000000000E+03 0.  1.
<mgrwt>
<rscale>  2 0.41910310E+03</rscale>
<asrwt>0</asrwt>
<pdfrwt beam="1">  1       21 0.91902073E-01 0.41910310E+03</pdfrwt>
<pdfrwt beam="2">  1       21 0.63169669E-01 0.41910310E+03</pdfrwt>
<totfact> 0.20271980E+03</totfact>
</mgrwt>
</event>
<event>
 4    1  0.4897983E-002  0.4472367E+03  0.7818608E-02  0.1028549E+00
         21   -1    0    0  503  502  0.00000000000E+00  0.00000000000E+00  0.77071349284E+03  0.77071349284E+03  0.00000000000E+00 0. -1.
         21   -1    0    0  501  503 -0.00000000000E+00 -0.00000000000E+00 -0.39586076626E+03  0.39586076626E+03  0.00000000000E+00 0.  1.
    9000007    1    1    2  501    0 -0.13445879123E+03 -0.14812670739E+03 -0.15487879436E+03  0.47329497031E+03  0.40000000000E+03 0.  1.
   -9000007    1    1    2    0  502  0.13445879123E+03  0.14812670739E+03  0.52973152094E+03  0.69327928878E+03  0.40000000000E+03 0. -1.
<mgrwt>
<rscale>  2 0.44723672E+03</rscale>
<asrwt>0</asrwt>
<pdfrwt beam="1">  1       21 0.11857131E+00 0.44723672E+03</pdfrwt>
<pdfrwt beam="2">  1       21 0.60901656E-01 0.44723672E+03</pdfrwt>
<totfact> 0.11636909E+03</totfact>
</mgrwt>
</event>
<event>
 4    1  0.4897983E-002  0.5558038E+03  0.7818608E-02  0.1000159E+00
         21   -1    0    0  501  502  0.00000000000E+00  0.00000000000E+00  0.91110800313E+03  0.91110800313E+03  0.00000000000E+00 0. -1.
         21   -1    0    0  502  503 -0.00000000000E+00 -0.00000000000E+00 -0.38467189120E+03  0.38467189120E+03  0.00000000000E+00 0. -1.
    9000007    1    1    2  501    0  0.24491842161E+03 -0.29821609010E+03  0.40113906926E+02  0.55724949095E+03  0.40000000000E+03 0. -1.
   -9000007    1    1    2    0  503 -0.24491842161E+03  0.29821609010E+03  0.48632220500E+03  0.73853040338E+03  0.40000000000E+03 0. -1.
<mgrwt>
<rscale>  2 0.55580380E+03</rscale>
<asrwt>0</asrwt>
<pdfrwt beam="1">  1       21 0.14017046E+00 0.55580380E+03</pdfrwt>
<pdfrwt beam="2">  1       21 0.59180291E-01 0.55580380E+03</pdfrwt>
<totfact> 0.76968975E+02</totfact>
</mgrwt>
</event>
<event>
 4    1  0.4897983E-002  0.4538346E+03  0.7818608E-02  0.1026585E+00
         21   -1    0    0  503  502  0.00000000000E+00  0.00000000000E+00  0.33462568912E+03  0.33462568912E+03  0.00000000000E+00 0. -1.
         21   -1    0    0  501  503 -0.00000000000E+00 -0.00000000000E+00 -0.61894856488E+03  0.61894856488E+03  0.00000000000E+00 0.  1.
    9000007    1    1    2  501    0  0.17795236226E+03  0.11957751445E+03 -0.17769318211E+03  0.48738146473E+03  0.40000000000E+03 0.  1.
   -9000007    1    1    2    0  502 -0.17795236226E+03 -0.11957751445E+03 -0.10662969364E+03  0.46619278926E+03  0.40000000000E+03 0.  1.
<mgrwt>
<rscale>  2 0.45383458E+03</rscale>
<asrwt>0</asrwt>
<pdfrwt beam="1">  1       21 0.51480875E-01 0.45383458E+03</pdfrwt>
<pdfrwt beam="2">  1       21 0.95222857E-01 0.45383458E+03</pdfrwt>
<totfact> 0.28664852E+03</totfact>
</mgrwt>
</event>
<event>
 4    1  0.4897983E-002  0.6364090E+03  0.7818608E-02  0.9832621E-01
         21   -1    0    0  501  502  0.00000000000E+00  0.00000000000E+00  0.35983328443E+03  0.35983328443E+03  0.00000000000E+00 0.  1.
         21   -1    0    0  502  503 -0.00000000000E+00 -0.00000000000E+00 -0.12438626530E+04  0.12438626530E+04  0.00000000000E+00 0. -1.
    9000007    1    1    2  501    0  0.40888113276E+03 -0.27898502474E+03 -0.19473385683E+03  0.66553564874E+03  0.40000000000E+03 0.  1.
   -9000007    1    1    2    0  503 -0.40888113276E+03  0.27898502474E+03 -0.68929551174E+03  0.93816028868E+03  0.40000000000E+03 0. -1.
<mgrwt>
<rscale>  2 0.63640901E+03</rscale>
<asrwt>0</asrwt>
<pdfrwt beam="1">  1       21 0.55358967E-01 0.63640901E+03</pdfrwt>
<pdfrwt beam="2">  1       21 0.19136349E+00 0.63640901E+03</pdfrwt>
<totfact> 0.35737423E+02</totfact>
</mgrwt>
</event>
<event>
 4    1  0.4897983E-002  0.5176931E+03  0.7818608E-02  0.1009261E+00
         21   -1    0    0  503  502  0.00000000000E+00  0.00000000000E+00  0.34878639474E+03  0.34878639474E+03  0.00000000000E+00 0. -1.
         21   -1    0    0  501  503 -0.00000000000E+00 -0.00000000000E+00 -0.17183209026E+04  0.17183209026E+04  0.00000000000E+00 0.  1.
    9000007    1    1    2  501    0  0.23786177804E+03 -0.22677727739E+03 -0.14532346857E+04  0.15426915475E+04  0.40000000000E+03 0.  1.
   -9000007    1    1    2    0  502 -0.23786177804E+03  0.22677727739E+03  0.83700177771E+02  0.52441574991E+03  0.40000000000E+03 0. -1.
<mgrwt>
<rscale>  2 0.51769311E+03</rscale>
<asrwt>0</asrwt>
<pdfrwt beam="1">  1       21 0.53659446E-01 0.51769311E+03</pdfrwt>
<pdfrwt beam="2">  1       21 0.26435706E+00 0.51769311E+03</pdfrwt>
<totfact> 0.13654109E+02</totfact>
</mgrwt>
</event>
<event>
 4    1  0.4897983E-002  0.4372025E+03  0.7818608E-02  0.1031609E+00
         21   -1    0    0  503  502  0.00000000000E+00  0.00000000000E+00  0.67281632531E+03  0.67281632531E+03  0.00000000000E+00 0. -1.
         21   -1    0    0  501  503 -0.00000000000E+00 -0.00000000000E+00 -0.12770734100E+04  0.12770734100E+04  0.00000000000E+00 0. -1.
    9000007    1    1    2  501    0  0.17129048692E+03  0.42492514397E+02 -0.11618173735E+04  0.12413563767E+04  0.40000000000E+03 0. -1.
   -9000007    1    1    2    0  502 -0.17129048692E+03 -0.42492514397E+02  0.55756028876E+03  0.70853335863E+03  0.40000000000E+03 0. -1.
<mgrwt>
<rscale>  2 0.43720252E+03</rscale>
<asrwt>0</asrwt>
<pdfrwt beam="1">  1       21 0.10351020E+00 0.43720252E+03</pdfrwt>
<pdfrwt beam="2">  1       21 0.19647283E+00 0.43720252E+03</pdfrwt>
<totfact> 0.85538074E+01</totfact>
</mgrwt>
</event>
<event>
 4    1  0.4897983E-002  0.4810422E+03  0.7818608E-02  0.1018849E+00
         21   -1    0    0  501  502  0.00000000000E+00  0.00000000000E+00  0.52968779024E+03  0.52968779024E+03  0.00000000000E+00 0. -1.
         21   -1    0    0  502  503 -0.00000000000E+00 -0.00000000000E+00 -0.44562708952E+03  0.44562708952E+03  0.00000000000E+00 0. -1.
    9000007    1    1    2  501    0  0.25952543982E+03  0.63625016128E+02  0.11041433790E+03  0.49355133736E+03  0.40000000000E+03 0. -1.
   -9000007    1    1    2    0  503 -0.25952543982E+03 -0.63625016128E+02 -0.26353637189E+02  0.48176354240E+03  0.40000000000E+03 0. -1.
<mgrwt>
<rscale>  2 0.48104220E+03</rscale>
<asrwt>0</asrwt>
<pdfrwt beam="1">  1       21 0.81490429E-01 0.48104220E+03</pdfrwt>
<pdfrwt beam="2">  1       21 0.68558014E-01 0.48104220E+03</pdfrwt>
<totfact> 0.21894242E+03</totfact>
</mgrwt>
</event>
<event>
 4    1  0.4897983E-002  0.4305791E+03  0.7818608E-02  0.1033677E+00
         21   -1    0    0  503  502  0.00000000000E+00  0.00000000000E+00  0.81233622530E+03  0.81233622530E+03  0.00000000000E+00 0.  1.
         21   -1    0    0  501  503 -0.00000000000E+00 -0.00000000000E+00 -0.29035919610E+03  0.29035919610E+03  0.00000000000E+00 0.  1.
    9000007    1    1    2  501    0 -0.50636148815E+02  0.15111035454E+03  0.59471955669E+01  0.43062016668E+03  0.40000000000E+03 0.  1.
   -9000007    1    1    2    0  502  0.50636148815E+02 -0.15111035454E+03  0.51602983363E+03  0.67207525473E+03  0.40000000000E+03 0.  1.
<mgrwt>
<rscale>  2 0.43057910E+03</rscale>
<asrwt>0</asrwt>
<pdfrwt beam="1">  1       21 0.12497480E+00 0.43057910E+03</pdfrwt>
<pdfrwt beam="2">  1       21 0.44670646E-01 0.43057910E+03</pdfrwt>
<totfact> 0.19890724E+03</totfact>
</mgrwt>
</event>
<event>
 4    1  0.4897983E-002  0.6365239E+03  0.7818608E-02  0.9832400E-01
         21   -1    0    0  501  502  0.00000000000E+00  0.00000000000E+00  0.12834569108E+04  0.12834569108E+04  0.00000000000E+00 0. -1.
         21   -1    0    0  502  503 -0.00000000000E+00 -0.00000000000E+00 -0.35076766779E+03  0.35076766779E+03  0.00000000000E+00 0.  1.
    9000007    1    1    2  501    0  0.39760771850E+03  0.29507768616E+03  0.72477531889E+03  0.96460458300E+03  0.40000000000E+03 0. -1.
   -9000007    1    1    2    0  503 -0.39760771850E+03 -0.29507768616E+03  0.20791392416E+03  0.66961999562E+03  0.40000000000E+03 0.  1.
<mgrwt>
<rscale>  2 0.63652395E+03</rscale>
<asrwt>0</asrwt>
<pdfrwt beam="1">  1       21 0.19745491E+00 0.63652395E+03</pdfrwt>
<pdfrwt beam="2">  1       21 0.53964257E-01 0.63652395E+03</pdfrwt>
<totfact> 0.34306788E+02</totfact>
</mgrwt>
</event>
<event>
 4    1  0.4897983E-002  0.6054715E+03  0.7818608E-02  0.9894119E-01
         21   -1    0    0  503  502  0.00000000000E+00  0.00000000000E+00  0.36589560577E+03  0.36589560577E+03  0.00000000000E+00 0.  1.
         21   -1    0    0  501  503 -0.00000000000E+00 -0.00000000000E+00 -0.24491618470E+04  0.24491618470E+04  0.00000000000E+00 0. -1.
    9000007    1    1    2  501    0 -0.42590382461E+03 -0.15875036443E+03 -0.21236151707E+04  0.22082429983E+04  0.40000000000E+03 0. -1.
   -9000007    1    1    2    0  502  0.42590382461E+03  0.15875036443E+03  0.40348929555E+02  0.60681445446E+03  0.40000000000E+03 0.  1.
<mgrwt>
<rscale>  2 0.60547151E+03</rscale>
<asrwt>0</asrwt>
<pdfrwt beam="1">  1       21 0.56291633E-01 0.60547151E+03</pdfrwt>
<pdfrwt beam="2">  1       21 0.37679412E+00 0.60547151E+03</pdfrwt>
<totfact> 0.23959134E+01</totfact>
</mgrwt>
</event>
<event>
 4    1  0.4897983E-002  0.4083552E+03  0.7818608E-02  0.1040924E+00
         21   -1    0    0  503  502  0.00000000000E+00  0.00000000000E+00  0.33536850057E+03  0.33536850057E+03  0.00000000000E+00 0. -1.
         21   -1    0    0  501  503 -0.00000000000E+00 -0.00000000000E+00 -0.87738073220E+03  0.87738073220E+03  0.00000000000E+00 0. -1.
    9000007    1    1    2  501    0  0.19378091631E+02  0.79865500036E+02  0.12813553294E+03  0.42798682612E+03  0.40000000000E+03 0. -1.
   -9000007    1    1    2    0  502 -0.19378091631E+02 -0.79865500036E+02 -0.67014776457E+03  0.78476240665E+03  0.40000000000E+03 0. -1.
<mgrwt>
<rscale>  2 0.40835525E+03</rscale>
<asrwt>0</asrwt>
<pdfrwt beam="1">  1       21 0.51595154E-01 0.40835525E+03</pdfrwt>
<pdfrwt beam="2">  1       21 0.13498165E+00 0.40835525E+03</pdfrwt>
<totfact> 0.12134876E+03</totfact>
</mgrwt>
</event>
<event>
 4    1  0.4897983E-002  0.8797051E+03  0.7818608E-02  0.9451313E-01
         21   -1    0    0  503  502  0.00000000000E+00  0.00000000000E+00  0.55402199588E+03  0.55402199588E+03  0.00000000000E+00 0. -1.
         21   -1    0    0  501  503 -0.00000000000E+00 -0.00000000000E+00 -0.18200075120E+04  0.18200075120E+04  0.00000000000E+00 0.  1.
    9000007    1    1    2  501    0 -0.20961169641E+03  0.75494630372E+03 -0.12053601083E+04  0.14922379084E+04  0.40000000000E+03 0.  1.
   -9000007    1    1    2    0  502  0.20961169641E+03 -0.75494630372E+03 -0.60625407855E+02  0.88179159945E+03  0.40000000000E+03 0. -1.
<mgrwt>
<rscale>  2 0.87970506E+03</rscale>
<asrwt>0</asrwt>
<pdfrwt beam="1">  1       21 0.85234152E-01 0.87970506E+03</pdfrwt>
<pdfrwt beam="2">  1       21 0.28000116E+00 0.87970506E+03</pdfrwt>
<totfact> 0.33177969E+01</totfact>
</mgrwt>
</event>
<event>
 4    1  0.4897983E-002  0.4153899E+03  0.7818608E-02  0.1038577E+00
         21   -1    0    0  503  502  0.00000000000E+00  0.00000000000E+00  0.15866773197E+04  0.15866773197E+04  0.00000000000E+00 0. -1.
         21   -1    0    0  501  503 -0.00000000000E+00 -0.00000000000E+00 -0.11466493736E+03  0.11466493736E+03  0.00000000000E+00 0.  1.
    9000007    1    1    2  501    0  0.10840215452E+03  0.28244994954E+02  0.92923676954E+03  0.10178554812E+04  0.40000000000E+03 0. -1.
   -9000007    1    1    2    0  502 -0.10840215452E+03 -0.28244994954E+02  0.54277561276E+03  0.68348677577E+03  0.40000000000E+03 0.  1.
<mgrwt>
<rscale>  2 0.41538995E+03</rscale>
<asrwt>0</asrwt>
<pdfrwt beam="1">  1       21 0.24410419E+00 0.41538995E+03</pdfrwt>
<pdfrwt beam="2">  1       21 0.17640761E-01 0.41538995E+03</pdfrwt>
<totfact> 0.17752489E+03</totfact>
</mgrwt>
</event>
<event>
 4    1  0.4897983E-002  0.4876888E+03  0.7818608E-02  0.1017043E+00
         21   -1    0    0  503  502  0.00000000000E+00  0.00000000000E+00  0.16408682852E+04  0.16408682852E+04  0.00000000000E+00 0.  1.
         21   -1    0    0  501  503 -0.00000000000E+00 -0.00000000000E+00 -0.15027401870E+03  0.15027401870E+03  0.00000000000E+00 0.  1.
    9000007    1    1    2  501    0 -0.18459452990E+02  0.27838759580E+03  0.57669473613E+03  0.75525970605E+03  0.40000000000E+03 0.  1.
   -9000007    1    1    2    0  502  0.18459452990E+02 -0.27838759580E+03  0.91389953032E+03  0.10358825978E+04  0.40000000000E+03 0.  1.
<mgrwt>
<rscale>  2 0.48768884E+03</rscale>
<asrwt>0</asrwt>
<pdfrwt beam="1">  1       21 0.25244126E+00 0.48768884E+03</pdfrwt>
<pdfrwt beam="2">  1       21 0.23119081E-01 0.48768884E+03</pdfrwt>
<totfact> 0.90978618E+02</totfact>
</mgrwt>
</event>
<event>
 4    1  0.4897983E-002  0.5442632E+03  0.7818608E-02  0.1002831E+00
         21   -1    0    0  503  502  0.00000000000E+00  0.00000000000E+00  0.87519987963E+03  0.87519987963E+03  0.00000000000E+00 0. -1.
         21   -1    0    0  501  503 -0.00000000000E+00 -0.00000000000E+00 -0.33857588882E+03  0.33857588882E+03  0.00000000000E+00 0. -1.
    9000007    1    1    2  501    0 -0.47339011927E+02  0.36603470169E+03  0.25720834686E+03  0.60197883567E+03  0.40000000000E+03 0. -1.
   -9000007    1    1    2    0  502  0.47339011927E+02 -0.36603470169E+03  0.27941564395E+03  0.61179693279E+03  0.40000000000E+03 0. -1.
<mgrwt>
<rscale>  2 0.54426316E+03</rscale>
<asrwt>0</asrwt>
<pdfrwt beam="1">  1       21 0.13464613E+00 0.54426316E+03</pdfrwt>
<pdfrwt beam="2">  1       21 0.52088599E-01 0.54426316E+03</pdfrwt>
<totfact> 0.11346624E+03</totfact>
</mgrwt>
</event>
<event>
 4    1  0.4897983E-002  0.4366082E+03  0.7818608E-02  0.1031793E+00
         21   -1    0    0  501  502  0.00000000000E+00  0.00000000000E+00  0.82569953395E+03  0.82569953395E+03  0.00000000000E+00 0. -1.
         21   -1    0    0  502  503 -0.00000000000E+00 -0.00000000000E+00 -0.28081688871E+03  0.28081688871E+03  0.00000000000E+00 0. -1.
    9000007    1    1    2  501    0  0.17494214137E+03 -0.46850237374E+01  0.50577847765E+03  0.66816058753E+03  0.40000000000E+03 0. -1.
   -9000007    1    1    2    0  503 -0.17494214137E+03  0.46850237374E+01  0.39104167589E+02  0.43835583513E+03  0.40000000000E+03 0. -1.
<mgrwt>
<rscale>  2 0.43660818E+03</rscale>
<asrwt>0</asrwt>
<pdfrwt beam="1">  1       21 0.12703070E+00 0.43660818E+03</pdfrwt>
<pdfrwt beam="2">  1       21 0.43202599E-01 0.43660818E+03</pdfrwt>
<totfact> 0.20400572E+03</totfact>
</mgrwt>
</event>
<event>
 4    1  0.4897983E-002  0.4501273E+03  0.7818608E-02  0.1027684E+00
         21   -1    0    0  501  502  0.00000000000E+00  0.00000000000E+00  0.15521428080E+04  0.15521428080E+04  0.00000000000E+00 0. -1.
         21   -1    0    0  502  503 -0.00000000000E+00 -0.00000000000E+00 -0.93616107052E+03  0.93616107052E+03  0.00000000000E+00 0. -1.
    9000007    1    1    2  501    0  0.67359855991E+02 -0.19513387094E+03  0.14621452718E+04  0.15298638415E+04  0.40000000000E+03 0. -1.
   -9000007    1    1    2    0  503 -0.67359855991E+02  0.19513387094E+03 -0.84616353429E+03  0.95844003701E+03  0.40000000000E+03 0. -1.
<mgrwt>
<rscale>  2 0.45012729E+03</rscale>
<asrwt>0</asrwt>
<pdfrwt beam="1">  1       21 0.23879120E+00 0.45012729E+03</pdfrwt>
<pdfrwt beam="2">  1       21 0.14402478E+00 0.45012729E+03</pdfrwt>
<totfact> 0.19487602E+01</totfact>
</mgrwt>
</event>
<event>
 4    1  0.4897983E-002  0.4170504E+03  0.7818608E-02  0.1038031E+00
         21   -1    0    0  501  502  0.00000000000E+00  0.00000000000E+00  0.18262078157E+04  0.18262078157E+04  0.00000000000E+00 0.  1.
         21   -1    0    0  502  503 -0.00000000000E+00 -0.00000000000E+00 -0.12177080831E+03  0.12177080831E+03  0.00000000000E+00 0.  1.
    9000007    1    1    2  501    0 -0.10829039889E+03  0.46948768175E+02  0.13068343283E+04  0.13717678225E+04  0.40000000000E+03 0.  1.
   -9000007    1    1    2    0  503  0.10829039889E+03 -0.46948768175E+02  0.39760267915E+03  0.57621080153E+03  0.40000000000E+03 0.  1.
<mgrwt>
<rscale>  2 0.41705035E+03</rscale>
<asrwt>0</asrwt>
<pdfrwt beam="1">  1       21 0.28095503E+00 0.41705035E+03</pdfrwt>
<pdfrwt beam="2">  1       21 0.18733972E-01 0.41705035E+03</pdfrwt>
<totfact> 0.94667545E+02</totfact>
</mgrwt>
</event>
<event>
 4    1  0.4897983E-002  0.4446402E+03  0.7818608E-02  0.1029333E+00
         21   -1    0    0  501  502  0.00000000000E+00  0.00000000000E+00  0.15635026615E+04  0.15635026615E+04  0.00000000000E+00 0.  1.
         21   -1    0    0  502  503 -0.00000000000E+00 -0.00000000000E+00 -0.13693918618E+03  0.13693918618E+03  0.00000000000E+00 0.  1.
    9000007    1    1    2  501    0  0.24788850431E+02 -0.19258878050E+03  0.94859078738E+03  0.10476303773E+04  0.40000000000E+03 0.  1.
   -9000007    1    1    2    0  503 -0.24788850431E+02  0.19258878050E+03  0.47797268793E+03  0.65281147040E+03  0.40000000000E+03 0.  1.
<mgrwt>
<rscale>  2 0.44464022E+03</rscale>
<asrwt>0</asrwt>
<pdfrwt beam="1">  1       21 0.24053886E+00 0.44464022E+03</pdfrwt>
<pdfrwt beam="2">  1       21 0.21067568E-01 0.44464022E+03</pdfrwt>
<totfact> 0.13150566E+03</totfact>
</mgrwt>
</event>
<event>
 4    1  0.4897983E-002  0.4345415E+03  0.7818608E-02  0.1032435E+00
         21   -1    0    0  503  502  0.00000000000E+00  0.00000000000E+00  0.14330304319E+03  0.14330304319E+03  0.00000000000E+00 0.  1.
         21   -1    0    0  501  503 -0.00000000000E+00 -0.00000000000E+00 -0.13886727802E+04  0.13886727802E+04  0.00000000000E+00 0. -1.
    9000007    1    1    2  501    0  0.81095838345E+02 -0.14916348065E+03 -0.44948152994E+03  0.62518791152E+03  0.40000000000E+03 0. -1.
   -9000007    1    1    2    0  502 -0.81095838345E+02  0.14916348065E+03 -0.79588820711E+03  0.90678791190E+03  0.40000000000E+03 0.  1.
<mgrwt>
<rscale>  2 0.43454146E+03</rscale>
<asrwt>0</asrwt>
<pdfrwt beam="1">  1       21 0.22046623E-01 0.43454146E+03</pdfrwt>
<pdfrwt beam="2">  1       21 0.21364196E+00 0.43454146E+03</pdfrwt>
<totfact> 0.17913726E+03</totfact>
</mgrwt>
</event>
<event>
 4    1  0.4897983E-002  0.5582541E+03  0.7818608E-02  0.9996013E-01
         21   -1    0    0  501  502  0.00000000000E+00  0.00000000000E+00  0.67241360194E+03  0.67241360194E+03  0.00000000000E+00 0.  1.
         21   -1    0    0  502  503 -0.00000000000E+00 -0.00000000000E+00 -0.49540816158E+03  0.49540816158E+03  0.00000000000E+00 0.  1.
    9000007    1    1    2  501    0 -0.35017633161E+03  0.17036479263E+03  0.23674720682E+03  0.60638013302E+03  0.40000000000E+03 0.  1.
   -9000007    1    1    2    0  503  0.35017633161E+03 -0.17036479263E+03 -0.59741766465E+02  0.56144163049E+03  0.40000000000E+03 0.  1.
<mgrwt>
<rscale>  2 0.55825409E+03</rscale>
<asrwt>0</asrwt>
<pdfrwt beam="1">  1       21 0.10344825E+00 0.55825409E+03</pdfrwt>
<pdfrwt beam="2">  1       21 0.76216640E-01 0.55825409E+03</pdfrwt>
<totfact> 0.94814628E+02</totfact>
</mgrwt>
</event>
<event>
 4    1  0.4897983E-002  0.4837715E+03  0.7818608E-02  0.1018104E+00
         21   -1    0    0  501  502  0.00000000000E+00  0.00000000000E+00  0.17320487863E+04  0.17320487863E+04  0.00000000000E+00 0.  1.
         21   -1    0    0  502  503 -0.00000000000E+00 -0.00000000000E+00 -0.51047611833E+03  0.51047611833E+03  0.00000000000E+00 0.  1.
    9000007    1    1    2  501    0  0.53890859567E+02 -0.26670321472E+03 -0.35069571753E+03  0.59751344402E+03  0.40000000000E+03 0.  1.
   -9000007    1    1    2    0  503 -0.53890859567E+02  0.26670321472E+03  0.15722683855E+04  0.16450114606E+04  0.40000000000E+03 0.  1.
<mgrwt>
<rscale>  2 0.48377146E+03</rscale>
<asrwt>0</asrwt>
<pdfrwt beam="1">  1       21 0.26646904E+00 0.48377146E+03</pdfrwt>
<pdfrwt beam="2">  1       21 0.78534788E-01 0.48377146E+03</pdfrwt>
<totfact> 0.57796593E+01</totfact>
</mgrwt>
</event>
<event>
 4    1  0.4897983E-002  0.4143922E+03  0.7818608E-02  0.1038907E+00
         21   -1    0    0  503  502  0.00000000000E+00  0.00000000000E+00  0.14369536526E+03  0.14369536526E+03  0.00000000000E+00 0.  1.
         21   -1    0    0  501  503 -0.00000000000E+00 -0.00000000000E+00 -0.13518272189E+04  0.13518272189E+04  0.00000000000E+00 0.  1.
    9000007    1    1    2  501    0 -0.99005911108E+02 -0.43803214921E+02 -0.85872877487E+03  0.95348623527E+03  0.40000000000E+03 0.  1.
   -9000007    1    1    2    0  502  0.99005911108E+02  0.43803214921E+02 -0.34940307882E+03  0.54203634893E+03  0.40000000000E+03 0.  1.
<mgrwt>
<rscale>  2 0.41439220E+03</rscale>
<asrwt>0</asrwt>
<pdfrwt beam="1">  1       21 0.22106980E-01 0.41439220E+03</pdfrwt>
<pdfrwt beam="2">  1       21 0.20797341E+00 0.41439220E+03</pdfrwt>
<totfact> 0.19577491E+03</totfact>
</mgrwt>
</event>
<event>
 4    1  0.4897983E-002  0.4294622E+03  0.7818608E-02  0.1034030E+00
         21   -1    0    0  503  502  0.00000000000E+00  0.00000000000E+00  0.16346984150E+04  0.16346984150E+04  0.00000000000E+00 0. -1.
         21   -1    0    0  501  503 -0.00000000000E+00 -0.00000000000E+00 -0.25265245361E+03  0.25265245361E+03  0.00000000000E+00 0. -1.
    9000007    1    1    2  501    0 -0.29906965581E+02 -0.15343851580E+03  0.13930507732E+04  0.14577476673E+04  0.40000000000E+03 0. -1.
   -9000007    1    1    2    0  502  0.29906965581E+02  0.15343851580E+03 -0.11004811800E+02  0.42960320134E+03  0.40000000000E+03 0. -1.
<mgrwt>
<rscale>  2 0.42946223E+03</rscale>
<asrwt>0</asrwt>
<pdfrwt beam="1">  1       21 0.25149206E+00 0.42946223E+03</pdfrwt>
<pdfrwt beam="2">  1       21 0.38869609E-01 0.42946223E+03</pdfrwt>
<totfact> 0.33823943E+02</totfact>
</mgrwt>
</event>
<event>
 4    1  0.4897983E-002  0.4359586E+03  0.7818608E-02  0.1031994E+00
         21   -1    0    0  501  502  0.00000000000E+00  0.00000000000E+00  0.44011980232E+03  0.44011980232E+03  0.00000000000E+00 0. -1.
         21   -1    0    0  502  503 -0.00000000000E+00 -0.00000000000E+00 -0.46864352793E+03  0.46864352793E+03  0.00000000000E+00 0. -1.
    9000007    1    1    2  501    0  0.14105275345E+03  0.10081658746E+03  0.11307787268E+03  0.45038480087E+03  0.40000000000E+03 0. -1.
   -9000007    1    1    2    0  503 -0.14105275345E+03 -0.10081658746E+03 -0.14160159829E+03  0.45837852939E+03  0.40000000000E+03 0. -1.
<mgrwt>
<rscale>  2 0.43595856E+03</rscale>
<asrwt>0</asrwt>
<pdfrwt beam="1">  1       21 0.67710739E-01 0.43595856E+03</pdfrwt>
<pdfrwt beam="2">  1       21 0.72099004E-01 0.43595856E+03</pdfrwt>
<totfact> 0.30288895E+03</totfact>
</mgrwt>
</event>
<event>
 4    1  0.4897983E-002  0.4588534E+03  0.7818608E-02  0.1025114E+00
         21   -1    0    0  503  502  0.00000000000E+00  0.00000000000E+00  0.11266204998E+04  0.11266204998E+04  0.00000000000E+00 0.  1.
         21   -1    0    0  501  503 -0.00000000000E+00 -0.00000000000E+00 -0.19737560423E+03  0.19737560423E+03  0.00000000000E+00 0.  1.
    9000007    1    1    2  501    0  0.22389904574E+03 -0.20386870752E+02  0.31198954559E+03  0.55487285367E+03  0.40000000000E+03 0. -1.
   -9000007    1    1    2    0  502 -0.22389904574E+03  0.20386870752E+02  0.61725535001E+03  0.76912325040E+03  0.40000000000E+03 0. -1.
<mgrwt>
<rscale>  2 0.45885336E+03</rscale>
<asrwt>0</asrwt>
<pdfrwt beam="1">  1       21 0.17332623E+00 0.45885336E+03</pdfrwt>
<pdfrwt beam="2">  1       21 0.30365478E-01 0.45885336E+03</pdfrwt>
<totfact> 0.17824498E+03</totfact>
</mgrwt>
</event>
<event>
 4    1  0.4897983E-002  0.4027604E+03  0.7818608E-02  0.1042828E+00
         21   -1    0    0  501  502  0.00000000000E+00  0.00000000000E+00  0.97014405273E+03  0.97014405273E+03  0.00000000000E+00 0.  1.
         21   -1    0    0  502  503 -0.00000000000E+00 -0.00000000000E+00 -0.25933881100E+03  0.25933881100E+03  0.00000000000E+00 0.  1.
    9000007    1    1    2  501    0  0.53003028175E+01  0.46774076337E+02  0.72180731284E+03  0.82657226199E+03  0.40000000000E+03 0.  1.
   -9000007    1    1    2    0  503 -0.53003028175E+01 -0.46774076337E+02 -0.11002071111E+02  0.40291060174E+03  0.40000000000E+03 0.  1.
<mgrwt>
<rscale>  2 0.40276036E+03</rscale>
<asrwt>0</asrwt>
<pdfrwt beam="1">  1       21 0.14925293E+00 0.40276036E+03</pdfrwt>
<pdfrwt beam="2">  1       21 0.39898279E-01 0.40276036E+03</pdfrwt>
<totfact> 0.15947773E+03</totfact>
</mgrwt>
</event>
<event>
 4    1  0.4897983E-002  0.4046516E+03  0.7818608E-02  0.1042181E+00
         21   -1    0    0  503  502  0.00000000000E+00  0.00000000000E+00  0.96249298197E+03  0.96249298197E+03  0.00000000000E+00 0.  1.
         21   -1    0    0  501  503 -0.00000000000E+00 -0.00000000000E+00 -0.32834470337E+03  0.32834470337E+03  0.00000000000E+00 0.  1.
    9000007    1    1    2  501    0  0.53764033556E+02  0.29194351740E+02 -0.13095749532E+03  0.42531487989E+03  0.40000000000E+03 0.  1.
   -9000007    1    1    2    0  502 -0.53764033556E+02 -0.29194351740E+02  0.76510577392E+03  0.86552280545E+03  0.40000000000E+03 0.  1.
<mgrwt>
<rscale>  2 0.40465156E+03</rscale>
<asrwt>0</asrwt>
<pdfrwt beam="1">  1       21 0.14807584E+00 0.40465156E+03</pdfrwt>
<pdfrwt beam="2">  1       21 0.50514570E-01 0.40465156E+03</pdfrwt>
<totfact> 0.99422349E+02</totfact>
</mgrwt>
</event>
<event>
 4    1  0.4897983E-002  0.5291482E+03  0.7818608E-02  0.1006439E+00
         21   -1    0    0  503  502  0.00000000000E+00  0.00000000000E+00  0.19874857764E+03  0.19874857764E+03  0.00000000000E+00 0. -1.
         21   -1    0    0  501  503 -0.00000000000E+00 -0.00000000000E+00 -0.15248299899E+04  0.15248299899E+04  0.00000000000E+00 0.  1.
    9000007    1    1    2  501    0 -0.11264744062E+03 -0.32757954060E+03 -0.90076191105E+03  0.10446864705E+04  0.40000000000E+03 0.  1.
   -9000007    1    1    2    0  502  0.11264744062E+03  0.32757954060E+03 -0.42531950124E+03  0.67889209705E+03  0.40000000000E+03 0. -1.
<mgrwt>
<rscale>  2 0.52914818E+03</rscale>
<asrwt>0</asrwt>
<pdfrwt beam="1">  1       21 0.30576705E-01 0.52914818E+03</pdfrwt>
<pdfrwt beam="2">  1       21 0.23458922E+00 0.52914818E+03</pdfrwt>
<totfact> 0.66610696E+02</totfact>
</mgrwt>
</event>
<event>
 4    1  0.4897983E-002  0.4233706E+03  0.7818608E-02  0.1035975E+00
         21   -1    0    0  501  502  0.00000000000E+00  0.00000000000E+00  0.35430966815E+03  0.35430966815E+03  0.00000000000E+00 0. -1.
         21   -1    0    0  502  503 -0.00000000000E+00 -0.00000000000E+00 -0.51841146261E+03  0.51841146261E+03  0.00000000000E+00 0.  1.
    9000007    1    1    2  501    0  0.11139694139E+03  0.82664336550E+02 -0.14986016813E+03  0.44911105651E+03  0.40000000000E+03 0. -1.
   -9000007    1    1    2    0  503 -0.11139694139E+03 -0.82664336550E+02 -0.14241626330E+02  0.42361007425E+03  0.40000000000E+03 0. -1.
<mgrwt>
<rscale>  2 0.42337061E+03</rscale>
<asrwt>0</asrwt>
<pdfrwt beam="1">  1       21 0.54509180E-01 0.42337061E+03</pdfrwt>
<pdfrwt beam="2">  1       21 0.79755610E-01 0.42337061E+03</pdfrwt>
<totfact> 0.38890023E+03</totfact>
</mgrwt>
</event>
<event>
 4    1  0.4897983E-002  0.5210736E+03  0.7818608E-02  0.1008420E+00
         21   -1    0    0  501  502  0.00000000000E+00  0.00000000000E+00  0.36805914419E+03  0.36805914419E+03  0.00000000000E+00 0.  1.
         21   -1    0    0  502  503 -0.00000000000E+00 -0.00000000000E+00 -0.13439243738E+04  0.13439243738E+04  0.00000000000E+00 0.  1.
    9000007    1    1    2  501    0  0.23029371159E+03  0.24183158350E+03  0.86975448983E+02  0.52828253530E+03  0.40000000000E+03 0.  1.
   -9000007    1    1    2    0  503 -0.23029371159E+03 -0.24183158350E+03 -0.10628406786E+04  0.11837009827E+04  0.40000000000E+03 0.  1.
<mgrwt>
<rscale>  2 0.52107361E+03</rscale>
<asrwt>0</asrwt>
<pdfrwt beam="1">  1       21 0.56624483E-01 0.52107361E+03</pdfrwt>
<pdfrwt beam="2">  1       21 0.20675760E+00 0.52107361E+03</pdfrwt>
<totfact> 0.28012104E+02</totfact>
</mgrwt>
</event>
<event>
 4    1  0.4897983E-002  0.7593014E+03  0.7818608E-02  0.9620870E-01
         21   -1    0    0  503  502  0.00000000000E+00  0.00000000000E+00  0.81112027627E+03  0.81112027627E+03  0.00000000000E+00 0.  1.
         21   -1    0    0  501  503 -0.00000000000E+00 -0.00000000000E+00 -0.80212930157E+03  0.80212930157E+03  0.00000000000E+00 0. -1.
    9000007    1    1    2  501    0 -0.46514127597E+03 -0.44741733897E+03 -0.26769371166E+03  0.80510782202E+03  0.40000000000E+03 0. -1.
   -9000007    1    1    2    0  502  0.46514127597E+03  0.44741733897E+03  0.27668468637E+03  0.80814175582E+03  0.40000000000E+03 0.  1.
<mgrwt>
<rscale>  2 0.75930144E+03</rscale>
<asrwt>0</asrwt>
<pdfrwt beam="1">  1       21 0.12478773E+00 0.75930144E+03</pdfrwt>
<pdfrwt beam="2">  1       21 0.12340451E+00 0.75930144E+03</pdfrwt>
<totfact> 0.17129787E+02</totfact>
</mgrwt>
</event>
<event>
 4    1  0.4897983E-002  0.4453244E+03  0.7818608E-02  0.1029126E+00
         21   -1    0    0  503  502  0.00000000000E+00  0.00000000000E+00  0.18701954721E+04  0.18701954721E+04  0.00000000000E+00 0.  1.
         21   -1    0    0  501  503 -0.00000000000E+00 -0.00000000000E+00 -0.13177586182E+03  0.13177586182E+03  0.00000000000E+00 0.  1.
    9000007    1    1    2  501    0 -0.17783773257E+03  0.81777515080E+02  0.42683846321E+03  0.61685078810E+03  0.40000000000E+03 0.  1.
   -9000007    1    1    2    0  502  0.17783773257E+03 -0.81777515080E+02  0.13115811471E+04  0.13851205458E+04  0.40000000000E+03 0.  1.
<mgrwt>
<rscale>  2 0.44532440E+03</rscale>
<asrwt>0</asrwt>
<pdfrwt beam="1">  1       21 0.28772236E+00 0.44532440E+03</pdfrwt>
<pdfrwt beam="2">  1       21 0.20273211E-01 0.44532440E+03</pdfrwt>
<totfact> 0.73058449E+02</totfact>
</mgrwt>
</event>
<event>
 4    1  0.4897983E-002  0.6210976E+03  0.7818608E-02  0.9862577E-01
         21   -1    0    0  503  502  0.00000000000E+00  0.00000000000E+00  0.11446335608E+04  0.11446335608E+04  0.00000000000E+00 0. -1.
         21   -1    0    0  501  503 -0.00000000000E+00 -0.00000000000E+00 -0.33774579686E+03  0.33774579686E+03  0.00000000000E+00 0.  1.
    9000007    1    1    2  501    0  0.43507003041E+03  0.19098774656E+03  0.36904029861E+03  0.72246314279E+03  0.40000000000E+03 0. -1.
   -9000007    1    1    2    0  502 -0.43507003041E+03 -0.19098774656E+03  0.43784746529E+03  0.75991621483E+03  0.40000000000E+03 0.  1.
<mgrwt>
<rscale>  2 0.62109762E+03</rscale>
<asrwt>0</asrwt>
<pdfrwt beam="1">  1       21 0.17609747E+00 0.62109762E+03</pdfrwt>
<pdfrwt beam="2">  1       21 0.51960892E-01 0.62109762E+03</pdfrwt>
<totfact> 0.52807962E+02</totfact>
</mgrwt>
</event>
<event>
 4    1  0.4897983E-002  0.4987821E+03  0.7818608E-02  0.1014097E+00
         21   -1    0    0  501  502  0.00000000000E+00  0.00000000000E+00  0.25376381338E+03  0.25376381338E+03  0.00000000000E+00 0.  1.
         21   -1    0    0  502  503 -0.00000000000E+00 -0.00000000000E+00 -0.13397681726E+04  0.13397681726E+04  0.00000000000E+00 0.  1.
    9000007    1    1    2  501    0  0.11627201991E+03  0.27434366779E+03 -0.13033395062E+03  0.51552940688E+03  0.40000000000E+03 0.  1.
   -9000007    1    1    2    0  503 -0.11627201991E+03 -0.27434366779E+03 -0.95567040862E+03  0.10780025791E+04  0.40000000000E+03 0.  1.
<mgrwt>
<rscale>  2 0.49878215E+03</rscale>
<asrwt>0</asrwt>
<pdfrwt beam="1">  1       21 0.39040585E-01 0.49878215E+03</pdfrwt>
<pdfrwt beam="2">  1       21 0.20611819E+00 0.49878215E+03</pdfrwt>
<totfact> 0.62703152E+02</totfact>
</mgrwt>
</event>
<event>
 4    1  0.4897983E-002  0.5191699E+03  0.7818608E-02  0.1008893E+00
         21   -1    0    0  501  502  0.00000000000E+00  0.00000000000E+00  0.35966702488E+03  0.35966702488E+03  0.00000000000E+00 0.  1.
         21   -1    0    0  502  503 -0.00000000000E+00 -0.00000000000E+00 -0.12127753221E+04  0.12127753221E+04  0.00000000000E+00 0.  1.
    9000007    1    1    2  501    0 -0.25604126456E+03  0.20971474202E+03  0.59424498704E+02  0.52255973173E+03  0.40000000000E+03 0.  1.
   -9000007    1    1    2    0  503  0.25604126456E+03 -0.20971474202E+03 -0.91253279593E+03  0.10498826153E+04  0.40000000000E+03 0.  1.
<mgrwt>
<rscale>  2 0.51916992E+03</rscale>
<asrwt>0</asrwt>
<pdfrwt beam="1">  1       21 0.55333388E-01 0.51916992E+03</pdfrwt>
<pdfrwt beam="2">  1       21 0.18658082E+00 0.51916992E+03</pdfrwt>
<totfact> 0.40365614E+02</totfact>
</mgrwt>
</event>
<event>
 4    1  0.4897983E-002  0.5200393E+03  0.7818608E-02  0.1008677E+00
         21   -1    0    0  503  502  0.00000000000E+00  0.00000000000E+00  0.70013583662E+03  0.70013583662E+03  0.00000000000E+00 0. -1.
         21   -1    0    0  501  503 -0.00000000000E+00 -0.00000000000E+00 -0.41804777945E+03  0.41804777945E+03  0.00000000000E+00 0. -1.
    9000007    1    1    2  501    0 -0.31549099805E+03  0.10443332473E+03 -0.13103869352E+02  0.52020438344E+03  0.40000000000E+03 0. -1.
   -9000007    1    1    2    0  502  0.31549099805E+03 -0.10443332473E+03  0.29519192653E+03  0.59797923262E+03  0.40000000000E+03 0. -1.
<mgrwt>
<rscale>  2 0.52003932E+03</rscale>
<asrwt>0</asrwt>
<pdfrwt beam="1">  1       21 0.10771321E+00 0.52003932E+03</pdfrwt>
<pdfrwt beam="2">  1       21 0.64315043E-01 0.52003932E+03</pdfrwt>
<totfact> 0.12758178E+03</totfact>
</mgrwt>
</event>
<event>
 4    1  0.4897983E-002  0.5230659E+03  0.7818608E-02  0.1007928E+00
         21   -1    0    0  503  502  0.00000000000E+00  0.00000000000E+00  0.14453296437E+03  0.14453296437E+03  0.00000000000E+00 0. -1.
         21   -1    0    0  501  503 -0.00000000000E+00 -0.00000000000E+00 -0.20780031377E+04  0.20780031377E+04  0.00000000000E+00 0. -1.
    9000007    1    1    2  501    0  0.29722615379E+03  0.15891688569E+03 -0.63513919717E+03  0.82279995311E+03  0.40000000000E+03 0.  1.
   -9000007    1    1    2    0  502 -0.29722615379E+03 -0.15891688569E+03 -0.12983309761E+04  0.13997361490E+04  0.40000000000E+03 0.  1.
<mgrwt>
<rscale>  2 0.52306593E+03</rscale>
<asrwt>0</asrwt>
<pdfrwt beam="1">  1       21 0.22235839E-01 0.52306593E+03</pdfrwt>
<pdfrwt beam="2">  1       21 0.31969281E+00 0.52306593E+03</pdfrwt>
<totfact> 0.37662541E+02</totfact>
</mgrwt>
</event>
<event>
 4    1  0.4897983E-002  0.6895836E+03  0.7818608E-02  0.9735213E-01
         21   -1    0    0  501  502  0.00000000000E+00  0.00000000000E+00  0.61904887153E+03  0.61904887153E+03  0.00000000000E+00 0.  1.
         21   -1    0    0  502  503 -0.00000000000E+00 -0.00000000000E+00 -0.77849202838E+03  0.77849202838E+03  0.00000000000E+00 0. -1.
    9000007    1    1    2  501    0  0.55444524791E+02  0.55897350481E+03  0.79877833342E+00  0.68958401407E+03  0.40000000000E+03 0.  1.
   -9000007    1    1    2    0  503 -0.55444524791E+02 -0.55897350481E+03 -0.16024193519E+03  0.70795688584E+03  0.40000000000E+03 0. -1.
<mgrwt>
<rscale>  2 0.68958355E+03</rscale>
<asrwt>0</asrwt>
<pdfrwt beam="1">  1       21 0.95238288E-01 0.68958355E+03</pdfrwt>
<pdfrwt beam="2">  1       21 0.11976800E+00 0.68958355E+03</pdfrwt>
<totfact> 0.37243020E+02</totfact>
</mgrwt>
</event>
<event>
 4    1  0.4897983E-002  0.4658204E+03  0.7818608E-02  0.1023107E+00
         21   -1    0    0  501  502  0.00000000000E+00  0.00000000000E+00  0.11034586290E+04  0.11034586290E+04  0.00000000000E+00 0.  1.
         21   -1    0    0  502  503 -0.00000000000E+00 -0.00000000000E+00 -0.28431321800E+03  0.28431321800E+03  0.00000000000E+00 0.  1.
    9000007    1    1    2  501    0 -0.11534099244E+03  0.20900970755E+03  0.79488505640E+03  0.92132016980E+03  0.40000000000E+03 0.  1.
   -9000007    1    1    2    0  503  0.11534099244E+03 -0.20900970755E+03  0.24260354630E+02  0.46645167724E+03  0.40000000000E+03 0.  1.
<mgrwt>
<rscale>  2 0.46582035E+03</rscale>
<asrwt>0</asrwt>
<pdfrwt beam="1">  1       21 0.16976286E+00 0.46582035E+03</pdfrwt>
<pdfrwt beam="2">  1       21 0.43740496E-01 0.46582035E+03</pdfrwt>
<totfact> 0.89681846E+02</totfact>
</mgrwt>
</event>
<event>
 4    1  0.4897983E-002  0.4298999E+03  0.7818608E-02  0.1033892E+00
         21   -1    0    0  501  502  0.00000000000E+00  0.00000000000E+00  0.10362643783E+04  0.10362643783E+04  0.00000000000E+00 0.  1.
         21   -1    0    0  502  503 -0.00000000000E+00 -0.00000000000E+00 -0.19652484506E+03  0.19652484506E+03  0.00000000000E+00 0. -1.
    9000007    1    1    2  501    0 -0.38556152123E+02  0.15273285898E+03  0.23240060757E+03  0.48869616888E+03  0.40000000000E+03 0.  1.
   -9000007    1    1    2    0  503  0.38556152123E+02 -0.15273285898E+03  0.60733892565E+03  0.74409305445E+03  0.40000000000E+03 0.  1.
<mgrwt>
<rscale>  2 0.42989988E+03</rscale>
<asrwt>0</asrwt>
<pdfrwt beam="1">  1       21 0.15942529E+00 0.42989988E+03</pdfrwt>
<pdfrwt beam="2">  1       21 0.30234592E-01 0.42989988E+03</pdfrwt>
<totfact> 0.23035428E+03</totfact>
</mgrwt>
</event>
<event>
 4    1  0.4897983E-002  0.4251847E+03  0.7818608E-02  0.1035392E+00
         21   -1    0    0  501  502  0.00000000000E+00  0.00000000000E+00  0.60862251676E+03  0.60862251676E+03  0.00000000000E+00 0.  1.
         21   -1    0    0  502  503 -0.00000000000E+00 -0.00000000000E+00 -0.32039357887E+03  0.32039357887E+03  0.00000000000E+00 0.  1.
    9000007    1    1    2  501    0  0.14391537318E+03  0.83876847014E+01  0.26953759623E+03  0.50342080179E+03  0.40000000000E+03 0.  1.
   -9000007    1    1    2    0  503 -0.14391537318E+03 -0.83876847014E+01  0.18691341665E+02  0.42559529385E+03  0.40000000000E+03 0.  1.
<mgrwt>
<rscale>  2 0.42518465E+03</rscale>
<asrwt>0</asrwt>
<pdfrwt beam="1">  1       21 0.93634233E-01 0.42518465E+03</pdfrwt>
<pdfrwt beam="2">  1       21 0.49291320E-01 0.42518465E+03</pdfrwt>
<totfact> 0.33077090E+03</totfact>
</mgrwt>
</event>
<event>
 4    1  0.4897983E-002  0.4321016E+03  0.7818608E-02  0.1033198E+00
         21   -1    0    0  503  502  0.00000000000E+00  0.00000000000E+00  0.82436323865E+02  0.82436323865E+02  0.00000000000E+00 0.  1.
         21   -1    0    0  501  503 -0.00000000000E+00 -0.00000000000E+00 -0.22835154195E+04  0.22835154195E+04  0.00000000000E+00 0. -1.
    9000007    1    1    2  501    0  0.16026734870E+03  0.32034159480E+02 -0.12072871758E+04  0.12822847326E+04  0.40000000000E+03 0.  1.
   -9000007    1    1    2    0  502 -0.16026734870E+03 -0.32034159480E+02 -0.99379191977E+03  0.10836670108E+04  0.40000000000E+03 0.  1.
<mgrwt>
<rscale>  2 0.43210162E+03</rscale>
<asrwt>0</asrwt>
<pdfrwt beam="1">  1       21 0.12682513E-01 0.43210162E+03</pdfrwt>
<pdfrwt beam="2">  1       21 0.35131002E+00 0.43210162E+03</pdfrwt>
<totfact> 0.72893741E+02</totfact>
</mgrwt>
</event>
<event>
 4    1  0.4897983E-002  0.4326525E+03  0.7818608E-02  0.1033025E+00
         21   -1    0    0  503  502  0.00000000000E+00  0.00000000000E+00  0.88202006637E+03  0.88202006637E+03  0.00000000000E+00 0. -1.
         21   -1    0    0  501  503 -0.00000000000E+00 -0.00000000000E+00 -0.34781975076E+03  0.34781975076E+03  0.00000000000E+00 0.  1.
    9000007    1    1    2  501    0  0.15892540169E+03 -0.43941710669E+02 -0.11683708564E+03  0.44815071329E+03  0.40000000000E+03 0.  1.
   -9000007    1    1    2    0  502 -0.15892540169E+03  0.43941710669E+02  0.65103740125E+03  0.78168910384E+03  0.40000000000E+03 0. -1.
<mgrwt>
<rscale>  2 0.43265247E+03</rscale>
<asrwt>0</asrwt>
<pdfrwt beam="1">  1       21 0.13569539E+00 0.43265247E+03</pdfrwt>
<pdfrwt beam="2">  1       21 0.53510731E-01 0.43265247E+03</pdfrwt>
<totfact> 0.10951752E+03</totfact>
</mgrwt>
</event>
<event>
 4    1  0.4897983E-002  0.4383225E+03  0.7818608E-02  0.1031263E+00
         21   -1    0    0  503  502  0.00000000000E+00  0.00000000000E+00  0.15937898106E+04  0.15937898106E+04  0.00000000000E+00 0. -1.
         21   -1    0    0  501  503 -0.00000000000E+00 -0.00000000000E+00 -0.23575784544E+03  0.23575784544E+03  0.00000000000E+00 0. -1.
    9000007    1    1    2  501    0 -0.14295902557E+03 -0.10811706800E+03  0.39535444098E+02  0.44010184586E+03  0.40000000000E+03 0. -1.
   -9000007    1    1    2    0  502  0.14295902557E+03  0.10811706800E+03  0.13184965210E+04  0.13894458102E+04  0.40000000000E+03 0. -1.
<mgrwt>
<rscale>  2 0.43832247E+03</rscale>
<asrwt>0</asrwt>
<pdfrwt beam="1">  1       21 0.24519843E+00 0.43832247E+03</pdfrwt>
<pdfrwt beam="2">  1       21 0.36270439E-01 0.43832247E+03</pdfrwt>
<totfact> 0.42369681E+02</totfact>
</mgrwt>
</event>
<event>
 4    1  0.4897983E-002  0.4367905E+03  0.7818608E-02  0.1031736E+00
         21   -1    0    0  501  502  0.00000000000E+00  0.00000000000E+00  0.18588743938E+03  0.18588743938E+03  0.00000000000E+00 0.  1.
         21   -1    0    0  502  503 -0.00000000000E+00 -0.00000000000E+00 -0.13646008830E+04  0.13646008830E+04  0.00000000000E+00 0. -1.
    9000007    1    1    2  501    0  0.17543389328E+03  0.29864685406E+01 -0.20338651715E+03  0.48182159070E+03  0.40000000000E+03 0.  1.
   -9000007    1    1    2    0  503 -0.17543389328E+03 -0.29864685406E+01 -0.97532692643E+03  0.10686667316E+04  0.40000000000E+03 0. -1.
<mgrwt>
<rscale>  2 0.43679053E+03</rscale>
<asrwt>0</asrwt>
<pdfrwt beam="1">  1       21 0.28598068E-01 0.43679053E+03</pdfrwt>
<pdfrwt beam="2">  1       21 0.20993859E+00 0.43679053E+03</pdfrwt>
<totfact> 0.11399180E+03</totfact>
</mgrwt>
</event>
<event>
 4    1  0.4897983E-002  0.7014509E+03  0.7818608E-02  0.9714754E-01
         21   -1    0    0  501  502  0.00000000000E+00  0.00000000000E+00  0.80517257620E+03  0.80517257620E+03  0.00000000000E+00 0. -1.
         21   -1    0    0  502  503 -0.00000000000E+00 -0.00000000000E+00 -0.97432971942E+03  0.97432971942E+03  0.00000000000E+00 0.  1.
    9000007    1    1    2  501    0  0.50273470223E+03 -0.28158692142E+03  0.45868664825E+03  0.83810907192E+03  0.40000000000E+03 0. -1.
   -9000007    1    1    2    0  503 -0.50273470223E+03  0.28158692142E+03 -0.62784379147E+03  0.94139322370E+03  0.40000000000E+03 0.  1.
<mgrwt>
<rscale>  2 0.70145091E+03</rscale>
<asrwt>0</asrwt>
<pdfrwt beam="1">  1       21 0.12387270E+00 0.70145091E+03</pdfrwt>
<pdfrwt beam="2">  1       21 0.14989688E+00 0.70145091E+03</pdfrwt>
<totfact> 0.10570741E+02</totfact>
</mgrwt>
</event>
<event>
 4    1  0.4897983E-002  0.4312449E+03  0.7818608E-02  0.1033467E+00
         21   -1    0    0  501  502  0.00000000000E+00  0.00000000000E+00  0.47268108201E+03  0.47268108201E+03  0.00000000000E+00 0.  1.
         21   -1    0    0  502  503 -0.00000000000E+00 -0.00000000000E+00 -0.40030348306E+03  0.40030348306E+03  0.00000000000E+00 0.  1.
    9000007    1    1    2  501    0 -0.13212419255E+03 -0.92278799968E+02  0.93339085010E+02  0.44123051115E+03  0.40000000000E+03 0.  1.
   -9000007    1    1    2    0  503  0.13212419255E+03  0.92278799968E+02 -0.20961486065E+02  0.43175405392E+03  0.40000000000E+03 0.  1.
<mgrwt>
<rscale>  2 0.43124492E+03</rscale>
<asrwt>0</asrwt>
<pdfrwt beam="1">  1       21 0.72720166E-01 0.43124492E+03</pdfrwt>
<pdfrwt beam="2">  1       21 0.61585151E-01 0.43124492E+03</pdfrwt>
<totfact> 0.36721768E+03</totfact>
</mgrwt>
</event>
<event>
 4    1  0.4897983E-002  0.4147299E+03  0.7818608E-02  0.1038795E+00
         21   -1    0    0  503  502  0.00000000000E+00  0.00000000000E+00  0.68415702798E+03  0.68415702798E+03  0.00000000000E+00 0.  1.
         21   -1    0    0  501  503 -0.00000000000E+00 -0.00000000000E+00 -0.28813563354E+03  0.28813563354E+03  0.00000000000E+00 0.  1.
    9000007    1    1    2  501    0  0.14383790692E+01 -0.10953903212E+03  0.24438751541E+02  0.41544930024E+03  0.40000000000E+03 0.  1.
   -9000007    1    1    2    0  502 -0.14383790692E+01  0.10953903212E+03  0.37158264290E+03  0.55684336128E+03  0.40000000000E+03 0.  1.
<mgrwt>
<rscale>  2 0.41472987E+03</rscale>
<asrwt>0</asrwt>
<pdfrwt beam="1">  1       21 0.10525493E+00 0.41472987E+03</pdfrwt>
<pdfrwt beam="2">  1       21 0.44328559E-01 0.41472987E+03</pdfrwt>
<totfact> 0.31271761E+03</totfact>
</mgrwt>
</event>
<event>
 4    1  0.4897983E-002  0.4372335E+03  0.7818608E-02  0.1031599E+00
         21   -1    0    0  501  502  0.00000000000E+00  0.00000000000E+00  0.22229012346E+03  0.22229012346E+03  0.00000000000E+00 0. -1.
         21   -1    0    0  502  503 -0.00000000000E+00 -0.00000000000E+00 -0.10027366124E+04  0.10027366124E+04  0.00000000000E+00 0. -1.
    9000007    1    1    2  501    0 -0.82521278968E+02 -0.15608766490E+03 -0.15914179131E+03  0.46529477792E+03  0.40000000000E+03 0. -1.
   -9000007    1    1    2    0  503  0.82521278968E+02  0.15608766490E+03 -0.62130469760E+03  0.75973195792E+03  0.40000000000E+03 0. -1.
<mgrwt>
<rscale>  2 0.43723349E+03</rscale>
<asrwt>0</asrwt>
<pdfrwt beam="1">  1       21 0.34198481E-01 0.43723349E+03</pdfrwt>
<pdfrwt beam="2">  1       21 0.15426717E+00 0.43723349E+03</pdfrwt>
<totfact> 0.19653585E+03</totfact>
</mgrwt>
</event>
<event>
 4    1  0.4897983E-002  0.4575134E+03  0.7818608E-02  0.1025505E+00
         21   -1    0    0  501  502  0.00000000000E+00  0.00000000000E+00  0.43152246859E+03  0.43152246859E+03  0.00000000000E+00 0. -1.
         21   -1    0    0  502  503 -0.00000000000E+00 -0.00000000000E+00 -0.69829683890E+03  0.69829683890E+03  0.00000000000E+00 0. -1.
    9000007    1    1    2  501    0  0.84902913400E+02 -0.20520730211E+03  0.17877481856E+03  0.49120156483E+03  0.40000000000E+03 0. -1.
   -9000007    1    1    2    0  503 -0.84902913400E+02  0.20520730211E+03 -0.44554918886E+03  0.63861774266E+03  0.40000000000E+03 0. -1.
<mgrwt>
<rscale>  2 0.45751343E+03</rscale>
<asrwt>0</asrwt>
<pdfrwt beam="1">  1       21 0.66388072E-01 0.45751343E+03</pdfrwt>
<pdfrwt beam="2">  1       21 0.10743028E+00 0.45751343E+03</pdfrwt>
<totfact> 0.12244732E+03</totfact>
</mgrwt>
</event>
<event>
 4    1  0.4897983E-002  0.4486508E+03  0.7818608E-02  0.1028125E+00
         21   -1    0    0  503  502  0.00000000000E+00  0.00000000000E+00  0.80950956520E+03  0.80950956520E+03  0.00000000000E+00 0. -1.
         21   -1    0    0  501  503 -0.00000000000E+00 -0.00000000000E+00 -0.40733291368E+03  0.40733291368E+03  0.00000000000E+00 0.  1.
    9000007    1    1    2  501    0 -0.19296938799E+03 -0.63642725155E+02 -0.17865450139E+03  0.48291304811E+03  0.40000000000E+03 0. -1.
   -9000007    1    1    2    0  502  0.19296938799E+03  0.63642725155E+02  0.58083115291E+03  0.73392943077E+03  0.40000000000E+03 0. -1.
<mgrwt>
<rscale>  2 0.44865085E+03</rscale>
<asrwt>0</asrwt>
<pdfrwt beam="1">  1       21 0.12453993E+00 0.44865085E+03</pdfrwt>
<pdfrwt beam="2">  1       21 0.62666602E-01 0.44865085E+03</pdfrwt>
<totfact> 0.96330888E+02</totfact>
</mgrwt>
</event>
<event>
 4    1  0.4897983E-002  0.4101030E+03  0.7818608E-02  0.1040336E+00
         21   -1    0    0  503  502  0.00000000000E+00  0.00000000000E+00  0.38028544141E+03  0.38028544141E+03  0.00000000000E+00 0. -1.
         21   -1    0    0  501  503 -0.00000000000E+00 -0.00000000000E+00 -0.52373527983E+03  0.52373527983E+03  0.00000000000E+00 0. -1.
    9000007    1    1    2  501    0  0.77519366772E+02 -0.46639046437E+02 -0.25000774741E+03  0.48030024635E+03  0.40000000000E+03 0.  1.
   -9000007    1    1    2    0  502 -0.77519366772E+02  0.46639046437E+02  0.10655790899E+03  0.42372047490E+03  0.40000000000E+03 0.  1.
<mgrwt>
<rscale>  2 0.41010298E+03</rscale>
<asrwt>0</asrwt>
<pdfrwt beam="1">  1       21 0.58505453E-01 0.41010298E+03</pdfrwt>
<pdfrwt beam="2">  1       21 0.80574658E-01 0.41010298E+03</pdfrwt>
<totfact> 0.32750928E+03</totfact>
</mgrwt>
</event>
<event>
 4    1  0.4897983E-002  0.4097222E+03  0.7818608E-02  0.1040464E+00
         21   -1    0    0  501  502  0.00000000000E+00  0.00000000000E+00  0.35656205638E+03  0.35656205638E+03  0.00000000000E+00 0. -1.
         21   -1    0    0  502  503 -0.00000000000E+00 -0.00000000000E+00 -0.56959453839E+03  0.56959453839E+03  0.00000000000E+00 0. -1.
    9000007    1    1    2  501    0 -0.38341930757E+02  0.80013804501E+02  0.86333976310E+02  0.41871931891E+03  0.40000000000E+03 0. -1.
   -9000007    1    1    2    0  503  0.38341930757E+02 -0.80013804501E+02 -0.29936645832E+03  0.50743727586E+03  0.40000000000E+03 0. -1.
<mgrwt>
<rscale>  2 0.40972224E+03</rscale>
<asrwt>0</asrwt>
<pdfrwt beam="1">  1       21 0.54855702E-01 0.40972224E+03</pdfrwt>
<pdfrwt beam="2">  1       21 0.87629928E-01 0.40972224E+03</pdfrwt>
<totfact> 0.30971666E+03</totfact>
</mgrwt>
</event>
<event>
 4    1  0.4897983E-002  0.4432433E+03  0.7818608E-02  0.1029756E+00
         21   -1    0    0  501  502  0.00000000000E+00  0.00000000000E+00  0.26404257223E+03  0.26404257223E+03  0.00000000000E+00 0. -1.
         21   -1    0    0  502  503 -0.00000000000E+00 -0.00000000000E+00 -0.92438368881E+03  0.92438368881E+03  0.00000000000E+00 0. -1.
    9000007    1    1    2  501    0  0.17310916884E+03 -0.80608933917E+02 -0.67725966915E+02  0.44838754572E+03  0.40000000000E+03 0. -1.
   -9000007    1    1    2    0  503 -0.17310916884E+03  0.80608933917E+02 -0.59261514967E+03  0.74003871532E+03  0.40000000000E+03 0. -1.
<mgrwt>
<rscale>  2 0.44324326E+03</rscale>
<asrwt>0</asrwt>
<pdfrwt beam="1">  1       21 0.40621934E-01 0.44324326E+03</pdfrwt>
<pdfrwt beam="2">  1       21 0.14221288E+00 0.44324326E+03</pdfrwt>
<totfact> 0.17196719E+03</totfact>
</mgrwt>
</event>
<event>
 4    1  0.4897983E-002  0.4026789E+03  0.7818608E-02  0.1042856E+00
         21   -1    0    0  503  502  0.00000000000E+00  0.00000000000E+00  0.43397900561E+03  0.43397900561E+03  0.00000000000E+00 0.  1.
         21   -1    0    0  501  503 -0.00000000000E+00 -0.00000000000E+00 -0.46095225386E+03  0.46095225386E+03  0.00000000000E+00 0.  1.
    9000007    1    1    2  501    0 -0.18417117827E+02  0.42557451719E+02 -0.20823704950E+03  0.45333541193E+03  0.40000000000E+03 0.  1.
   -9000007    1    1    2    0  502  0.18417117827E+02 -0.42557451719E+02  0.18126380124E+03  0.44159584754E+03  0.40000000000E+03 0.  1.
<mgrwt>
<rscale>  2 0.40267894E+03</rscale>
<asrwt>0</asrwt>
<pdfrwt beam="1">  1       21 0.66766000E-01 0.40267894E+03</pdfrwt>
<pdfrwt beam="2">  1       21 0.70915732E-01 0.40267894E+03</pdfrwt>
<totfact> 0.32853478E+03</totfact>
</mgrwt>
</event>
<event>
 4    1  0.4897983E-002  0.6869469E+03  0.7818608E-02  0.9739819E-01
         21   -1    0    0  501  502  0.00000000000E+00  0.00000000000E+00  0.16346205118E+04  0.16346205118E+04  0.00000000000E+00 0. -1.
         21   -1    0    0  502  503 -0.00000000000E+00 -0.00000000000E+00 -0.30003764722E+03  0.30003764722E+03  0.00000000000E+00 0. -1.
    9000007    1    1    2  501    0 -0.48768359418E+03  0.27214118243E+03  0.47915696746E+03  0.83754851243E+03  0.40000000000E+03 0. -1.
   -9000007    1    1    2    0  503  0.48768359418E+03 -0.27214118243E+03  0.85542589716E+03  0.10971096466E+04  0.40000000000E+03 0. -1.
<mgrwt>
<rscale>  2 0.68694695E+03</rscale>
<asrwt>0</asrwt>
<pdfrwt beam="1">  1       21 0.25148007E+00 0.68694695E+03</pdfrwt>
<pdfrwt beam="2">  1       21 0.46159639E-01 0.68694695E+03</pdfrwt>
<totfact> 0.21046339E+02</totfact>
</mgrwt>
</event>
<event>
 4    1  0.4897983E-002  0.4124769E+03  0.7818608E-02  0.1039543E+00
         21   -1    0    0  503  502  0.00000000000E+00  0.00000000000E+00  0.18332999165E+03  0.18332999165E+03  0.00000000000E+00 0.  1.
         21   -1    0    0  501  503 -0.00000000000E+00 -0.00000000000E+00 -0.95678101654E+03  0.95678101654E+03  0.00000000000E+00 0.  1.
    9000007    1    1    2  501    0  0.32960240173E+01 -0.10062971826E+03 -0.48553003576E+03  0.63708446818E+03  0.40000000000E+03 0.  1.
   -9000007    1    1    2    0  502 -0.32960240173E+01  0.10062971826E+03 -0.28792098912E+03  0.50302654001E+03  0.40000000000E+03 0.  1.
<mgrwt>
<rscale>  2 0.41247691E+03</rscale>
<asrwt>0</asrwt>
<pdfrwt beam="1">  1       21 0.28204614E-01 0.41247691E+03</pdfrwt>
<pdfrwt beam="2">  1       21 0.14719708E+00 0.41247691E+03</pdfrwt>
<totfact> 0.33102569E+03</totfact>
</mgrwt>
</event>
<event>
 4    1  0.4897983E-002  0.5116696E+03  0.7818608E-02  0.1010777E+00
         21   -1    0    0  501  502  0.00000000000E+00  0.00000000000E+00  0.12148913407E+04  0.12148913407E+04  0.00000000000E+00 0. -1.
         21   -1    0    0  502  503 -0.00000000000E+00 -0.00000000000E+00 -0.22790522748E+03  0.22790522748E+03  0.00000000000E+00 0. -1.
    9000007    1    1    2  501    0 -0.31884023088E+03  0.12112233842E+02  0.66181768031E+03  0.83654554031E+03  0.40000000000E+03 0. -1.
   -9000007    1    1    2    0  503  0.31884023088E+03 -0.12112233842E+02  0.32516843290E+03  0.60625102787E+03  0.40000000000E+03 0. -1.
<mgrwt>
<rscale>  2 0.51166962E+03</rscale>
<asrwt>0</asrwt>
<pdfrwt beam="1">  1       21 0.18690636E+00 0.51166962E+03</pdfrwt>
<pdfrwt beam="2">  1       21 0.35062343E-01 0.51166962E+03</pdfrwt>
<totfact> 0.10478549E+03</totfact>
</mgrwt>
</event>
<event>
 4    1  0.4897983E-002  0.6506521E+03  0.7818608E-02  0.9805556E-01
         21   -1    0    0  501  502  0.00000000000E+00  0.00000000000E+00  0.59214908478E+03  0.59214908478E+03  0.00000000000E+00 0. -1.
         21   -1    0    0  502  503 -0.00000000000E+00 -0.00000000000E+00 -0.72741618460E+03  0.72741618460E+03  0.00000000000E+00 0.  1.
    9000007    1    1    2  501    0  0.48363150544E+03  0.17160612367E+03 -0.15405820067E+03  0.66864192505E+03  0.40000000000E+03 0. -1.
   -9000007    1    1    2    0  503 -0.48363150544E+03 -0.17160612367E+03  0.18791100854E+02  0.65092334434E+03  0.40000000000E+03 0.  1.
<mgrwt>
<rscale>  2 0.65065205E+03</rscale>
<asrwt>0</asrwt>
<pdfrwt beam="1">  1       21 0.91099859E-01 0.65065205E+03</pdfrwt>
<pdfrwt beam="2">  1       21 0.11191018E+00 0.65065205E+03</pdfrwt>
<totfact> 0.49813979E+02</totfact>
</mgrwt>
</event>
<event>
 4    1  0.4897983E-002  0.4294696E+03  0.7818608E-02  0.1034028E+00
         21   -1    0    0  501  502  0.00000000000E+00  0.00000000000E+00  0.20971619814E+03  0.20971619814E+03  0.00000000000E+00 0. -1.
         21   -1    0    0  502  503 -0.00000000000E+00 -0.00000000000E+00 -0.11611979529E+04  0.11611979529E+04  0.00000000000E+00 0. -1.
    9000007    1    1    2  501    0 -0.15627948220E+03  0.45661442316E+01 -0.13812439033E+03  0.45113465111E+03  0.40000000000E+03 0. -1.
   -9000007    1    1    2    0  503  0.15627948220E+03 -0.45661442316E+01 -0.81335736446E+03  0.91977949996E+03  0.40000000000E+03 0. -1.
<mgrwt>
<rscale>  2 0.42946959E+03</rscale>
<asrwt>0</asrwt>
<pdfrwt beam="1">  1       21 0.32264030E-01 0.42946959E+03</pdfrwt>
<pdfrwt beam="2">  1       21 0.17864584E+00 0.42946959E+03</pdfrwt>
<totfact> 0.14651740E+03</totfact>
</mgrwt>
</event>
<event>
 4    1  0.4897983E-002  0.5512724E+03  0.7818608E-02  0.1001200E+00
         21   -1    0    0  503  502  0.00000000000E+00  0.00000000000E+00  0.49925888250E+03  0.49925888250E+03  0.00000000000E+00 0.  1.
         21   -1    0    0  501  503 -0.00000000000E+00 -0.00000000000E+00 -0.65433204256E+03  0.65433204256E+03  0.00000000000E+00 0.  1.
    9000007    1    1    2  501    0  0.35036461890E+03 -0.14541635272E+03 -0.22984882475E+03  0.59727026048E+03  0.40000000000E+03 0.  1.
   -9000007    1    1    2    0  502 -0.35036461890E+03  0.14541635272E+03  0.74775664685E+02  0.55632066458E+03  0.40000000000E+03 0.  1.
<mgrwt>
<rscale>  2 0.55127242E+03</rscale>
<asrwt>0</asrwt>
<pdfrwt beam="1">  1       21 0.76809059E-01 0.55127242E+03</pdfrwt>
<pdfrwt beam="2">  1       21 0.10066647E+00 0.55127242E+03</pdfrwt>
<totfact> 0.99833257E+02</totfact>
</mgrwt>
</event>
<event>
 4    1  0.4897983E-002  0.4174787E+03  0.7818608E-02  0.1037890E+00
         21   -1    0    0  503  502  0.00000000000E+00  0.00000000000E+00  0.14136570374E+03  0.14136570374E+03  0.00000000000E+00 0. -1.
         21   -1    0    0  501  503 -0.00000000000E+00 -0.00000000000E+00 -0.12330338201E+04  0.12330338201E+04  0.00000000000E+00 0. -1.
    9000007    1    1    2  501    0  0.63036245120E+02  0.10156241037E+03 -0.55323222320E+03  0.69307603060E+03  0.40000000000E+03 0.  1.
   -9000007    1    1    2    0  502 -0.63036245120E+02 -0.10156241037E+03 -0.53843589318E+03  0.68132349326E+03  0.40000000000E+03 0.  1.
<mgrwt>
<rscale>  2 0.41747873E+03</rscale>
<asrwt>0</asrwt>
<pdfrwt beam="1">  1       21 0.21748570E-01 0.41747873E+03</pdfrwt>
<pdfrwt beam="2">  1       21 0.18969751E+00 0.41747873E+03</pdfrwt>
<totfact> 0.26709697E+03</totfact>
</mgrwt>
</event>
<event>
 4    1  0.4897983E-002  0.4148411E+03  0.7818608E-02  0.1038759E+00
         21   -1    0    0  503  502  0.00000000000E+00  0.00000000000E+00  0.43142059521E+03  0.43142059521E+03  0.00000000000E+00 0. -1.
         21   -1    0    0  501  503 -0.00000000000E+00 -0.00000000000E+00 -0.65029379879E+03  0.65029379879E+03  0.00000000000E+00 0. -1.
    9000007    1    1    2  501    0  0.27463981186E+02 -0.10648412009E+03  0.22684736596E+03  0.47281377469E+03  0.40000000000E+03 0. -1.
   -9000007    1    1    2    0  502 -0.27463981186E+02  0.10648412009E+03 -0.44572056954E+03  0.60890061931E+03  0.40000000000E+03 0. -1.
<mgrwt>
<rscale>  2 0.41484110E+03</rscale>
<asrwt>0</asrwt>
<pdfrwt beam="1">  1       21 0.66372400E-01 0.41484110E+03</pdfrwt>
<pdfrwt beam="2">  1       21 0.10004520E+00 0.41484110E+03</pdfrwt>
<totfact> 0.14847337E+03</totfact>
</mgrwt>
</event>
<event>
 4    1  0.4897983E-002  0.4262747E+03  0.7818608E-02  0.1035043E+00
         21   -1    0    0  503  502  0.00000000000E+00  0.00000000000E+00  0.36968978004E+03  0.36968978004E+03  0.00000000000E+00 0. -1.
         21   -1    0    0  501  503 -0.00000000000E+00 -0.00000000000E+00 -0.73623113582E+03  0.73623113582E+03  0.00000000000E+00 0.  1.
    9000007    1    1    2  501    0  0.99116899742E+02  0.10902273598E+03 -0.50206705827E+03  0.65862086801E+03  0.40000000000E+03 0.  1.
   -9000007    1    1    2    0  502 -0.99116899742E+02 -0.10902273598E+03  0.13552570249E+03  0.44730004785E+03  0.40000000000E+03 0. -1.
<mgrwt>
<rscale>  2 0.42627470E+03</rscale>
<asrwt>0</asrwt>
<pdfrwt beam="1">  1       21 0.56875351E-01 0.42627470E+03</pdfrwt>
<pdfrwt beam="2">  1       21 0.11326633E+00 0.42627470E+03</pdfrwt>
<totfact> 0.15283326E+03</totfact>
</mgrwt>
</event>
<event>
 4    1  0.4897983E-002  0.5145232E+03  0.7818608E-02  0.1010056E+00
         21   -1    0    0  501  502  0.00000000000E+00  0.00000000000E+00  0.27013071569E+03  0.27013071569E+03  0.00000000000E+00 0. -1.
         21   -1    0    0  502  503 -0.00000000000E+00 -0.00000000000E+00 -0.98380279163E+03  0.98380279163E+03  0.00000000000E+00 0. -1.
    9000007    1    1    2  501    0  0.29337823780E+03 -0.13661374877E+03 -0.39570192339E+03  0.64908714280E+03  0.40000000000E+03 0. -1.
   -9000007    1    1    2    0  503 -0.29337823780E+03  0.13661374877E+03 -0.31797015254E+03  0.60484636452E+03  0.40000000000E+03 0. -1.
<mgrwt>
<rscale>  2 0.51452318E+03</rscale>
<asrwt>0</asrwt>
<pdfrwt beam="1">  1       21 0.41558571E-01 0.51452318E+03</pdfrwt>
<pdfrwt beam="2">  1       21 0.15135428E+00 0.51452318E+03</pdfrwt>
<totfact> 0.13488412E+03</totfact>
</mgrwt>
</event>
<event>
 4    1  0.4897983E-002  0.5086313E+03  0.7818608E-02  0.1011550E+00
         21   -1    0    0  503  502  0.00000000000E+00  0.00000000000E+00  0.95268361280E+03  0.95268361280E+03  0.00000000000E+00 0.  1.
         21   -1    0    0  501  503 -0.00000000000E+00 -0.00000000000E+00 -0.28729828509E+03  0.28729828509E+03  0.00000000000E+00 0.  1.
    9000007    1    1    2  501    0  0.31416933309E+03  0.18602753888E+01  0.18755873738E+03  0.54211079167E+03  0.40000000000E+03 0.  1.
   -9000007    1    1    2    0  502 -0.31416933309E+03 -0.18602753888E+01  0.47782659033E+03  0.69787110622E+03  0.40000000000E+03 0.  1.
<mgrwt>
<rscale>  2 0.50863133E+03</rscale>
<asrwt>0</asrwt>
<pdfrwt beam="1">  1       21 0.14656671E+00 0.50863133E+03</pdfrwt>
<pdfrwt beam="2">  1       21 0.44199737E-01 0.50863133E+03</pdfrwt>
<totfact> 0.12972856E+03</totfact>
</mgrwt>
</event>
<event>
 4    1  0.4897983E-002  0.5037216E+03  0.7818608E-02  0.1012812E+00
         21   -1    0    0  503  502  0.00000000000E+00  0.00000000000E+00  0.37563978198E+03  0.37563978198E+03  0.00000000000E+00 0.  1.
         21   -1    0    0  501  503 -0.00000000000E+00 -0.00000000000E+00 -0.80033296924E+03  0.80033296924E+03  0.00000000000E+00 0. -1.
    9000007    1    1    2  501    0  0.25761322462E+03  0.16544157808E+03  0.19894507457E+02  0.50411435279E+03  0.40000000000E+03 0. -1.
   -9000007    1    1    2    0  502 -0.25761322462E+03 -0.16544157808E+03 -0.44458769471E+03  0.67185839844E+03  0.40000000000E+03 0. -1.
<mgrwt>
<rscale>  2 0.50372164E+03</rscale>
<asrwt>0</asrwt>
<pdfrwt beam="1">  1       21 0.57790736E-01 0.50372164E+03</pdfrwt>
<pdfrwt beam="2">  1       21 0.12312815E+00 0.50372164E+03</pdfrwt>
<totfact> 0.11596496E+03</totfact>
</mgrwt>
</event>
<event>
 4    1  0.4897983E-002  0.5405035E+03  0.7818608E-02  0.1003716E+00
         21   -1    0    0  501  502  0.00000000000E+00  0.00000000000E+00  0.77254096454E+03  0.77254096454E+03  0.00000000000E+00 0.  1.
         21   -1    0    0  502  503 -0.00000000000E+00 -0.00000000000E+00 -0.42371527020E+03  0.42371527020E+03  0.00000000000E+00 0. -1.
    9000007    1    1    2  501    0  0.36351072225E+03  0.20046917911E+01  0.37053499549E+03  0.65531690567E+03  0.40000000000E+03 0. -1.
   -9000007    1    1    2    0  503 -0.36351072225E+03 -0.20046917911E+01 -0.21709301139E+02  0.54093932907E+03  0.40000000000E+03 0.  1.
<mgrwt>
<rscale>  2 0.54050353E+03</rscale>
<asrwt>0</asrwt>
<pdfrwt beam="1">  1       21 0.11885246E+00 0.54050353E+03</pdfrwt>
<pdfrwt beam="2">  1       21 0.65186965E-01 0.54050353E+03</pdfrwt>
<totfact> 0.96071653E+02</totfact>
</mgrwt>
</event>
<event>
 4    1  0.4897983E-002  0.4204594E+03  0.7818608E-02  0.1036917E+00
         21   -1    0    0  503  502  0.00000000000E+00  0.00000000000E+00  0.26026615941E+03  0.26026615941E+03  0.00000000000E+00 0. -1.
         21   -1    0    0  501  503 -0.00000000000E+00 -0.00000000000E+00 -0.12347643017E+04  0.12347643017E+04  0.00000000000E+00 0. -1.
    9000007    1    1    2  501    0  0.66217926845E+02  0.11136123242E+03 -0.98863842827E+03  0.10743333188E+04  0.40000000000E+03 0. -1.
   -9000007    1    1    2    0  502 -0.66217926845E+02 -0.11136123242E+03  0.14140285957E+02  0.42069714238E+03  0.40000000000E+03 0. -1.
<mgrwt>
<rscale>  2 0.42045944E+03</rscale>
<asrwt>0</asrwt>
<pdfrwt beam="1">  1       21 0.40040948E-01 0.42045944E+03</pdfrwt>
<pdfrwt beam="2">  1       21 0.18996374E+00 0.42045944E+03</pdfrwt>
<totfact> 0.79238113E+02</totfact>
</mgrwt>
</event>
<event>
 4    1  0.4897983E-002  0.5035643E+03  0.7818608E-02  0.1012853E+00
         21   -1    0    0  501  502  0.00000000000E+00  0.00000000000E+00  0.87308278911E+03  0.87308278911E+03  0.00000000000E+00 0.  1.
         21   -1    0    0  502  503 -0.00000000000E+00 -0.00000000000E+00 -0.29605448054E+03  0.29605448054E+03  0.00000000000E+00 0. -1.
    9000007    1    1    2  501    0  0.27014091215E+03  0.14353020582E+03  0.20800325835E+03  0.54483244019E+03  0.40000000000E+03 0. -1.
   -9000007    1    1    2    0  503 -0.27014091215E+03 -0.14353020582E+03  0.36902505022E+03  0.62430482946E+03  0.40000000000E+03 0.  1.
<mgrwt>
<rscale>  2 0.50356433E+03</rscale>
<asrwt>0</asrwt>
<pdfrwt beam="1">  1       21 0.13432043E+00 0.50356433E+03</pdfrwt>
<pdfrwt beam="2">  1       21 0.45546844E-01 0.50356433E+03</pdfrwt>
<totfact> 0.15404218E+03</totfact>
</mgrwt>
</event>
<event>
 4    1  0.4897983E-002  0.4664627E+03  0.7818608E-02  0.1022923E+00
         21   -1    0    0  503  502  0.00000000000E+00  0.00000000000E+00  0.29086890711E+03  0.29086890711E+03  0.00000000000E+00 0.  1.
         21   -1    0    0  501  503 -0.00000000000E+00 -0.00000000000E+00 -0.11399354030E+04  0.11399354030E+04  0.00000000000E+00 0.  1.
    9000007    1    1    2  501    0 -0.19275871611E+03 -0.14293904714E+03 -0.84398685808E+03  0.96431390659E+03  0.40000000000E+03 0.  1.
   -9000007    1    1    2    0  502  0.19275871611E+03  0.14293904714E+03 -0.50796377952E+01  0.46649040350E+03  0.40000000000E+03 0.  1.
<mgrwt>
<rscale>  2 0.46646275E+03</rscale>
<asrwt>0</asrwt>
<pdfrwt beam="1">  1       21 0.44749064E-01 0.46646275E+03</pdfrwt>
<pdfrwt beam="2">  1       21 0.17537467E+00 0.46646275E+03</pdfrwt>
<totfact> 0.77864616E+02</totfact>
</mgrwt>
</event>
<event>
 4    1  0.4897983E-002  0.4759513E+03  0.7818608E-02  0.1020254E+00
         21   -1    0    0  501  502  0.00000000000E+00  0.00000000000E+00  0.27834538750E+03  0.27834538750E+03  0.00000000000E+00 0.  1.
         21   -1    0    0  502  503 -0.00000000000E+00 -0.00000000000E+00 -0.90376619815E+03  0.90376619815E+03  0.00000000000E+00 0. -1.
    9000007    1    1    2  501    0  0.17421300346E+03 -0.19020896888E+03 -0.12627226352E+03  0.49241680206E+03  0.40000000000E+03 0.  1.
   -9000007    1    1    2    0  503 -0.17421300346E+03  0.19020896888E+03 -0.49914854713E+03  0.68969478359E+03  0.40000000000E+03 0. -1.
<mgrwt>
<rscale>  2 0.47595128E+03</rscale>
<asrwt>0</asrwt>
<pdfrwt beam="1">  1       21 0.42822367E-01 0.47595128E+03</pdfrwt>
<pdfrwt beam="2">  1       21 0.13904095E+00 0.47595128E+03</pdfrwt>
<totfact> 0.16161655E+03</totfact>
</mgrwt>
</event>
<event>
 4    1  0.4897983E-002  0.4274766E+03  0.7818608E-02  0.1034660E+00
         21   -1    0    0  501  502  0.00000000000E+00  0.00000000000E+00  0.75236352080E+03  0.75236352080E+03  0.00000000000E+00 0.  1.
         21   -1    0    0  502  503 -0.00000000000E+00 -0.00000000000E+00 -0.32269314996E+03  0.32269314996E+03  0.00000000000E+00 0.  1.
    9000007    1    1    2  501    0  0.34941972016E+02  0.14668084543E+03 -0.52487554876E+02  0.43068684127E+03  0.40000000000E+03 0.  1.
   -9000007    1    1    2    0  503 -0.34941972016E+02 -0.14668084543E+03  0.48215792572E+03  0.64436982949E+03  0.40000000000E+03 0.  1.
<mgrwt>
<rscale>  2 0.42747656E+03</rscale>
<asrwt>0</asrwt>
<pdfrwt beam="1">  1       21 0.11574823E+00 0.42747656E+03</pdfrwt>
<pdfrwt beam="2">  1       21 0.49645100E-01 0.42747656E+03</pdfrwt>
<totfact> 0.19371314E+03</totfact>
</mgrwt>
</event>
<event>
 4    1  0.4897983E-002  0.4512574E+03  0.7818608E-02  0.1027348E+00
         21   -1    0    0  501  502  0.00000000000E+00  0.00000000000E+00  0.79142941986E+03  0.79142941986E+03  0.00000000000E+00 0.  1.
         21   -1    0    0  502  503 -0.00000000000E+00 -0.00000000000E+00 -0.40924721329E+03  0.40924721329E+03  0.00000000000E+00 0.  1.
    9000007    1    1    2  501    0 -0.99948995993E+02  0.18342156980E+03 -0.17471614307E+03  0.48389978789E+03  0.40000000000E+03 0.  1.
   -9000007    1    1    2    0  503  0.99948995993E+02 -0.18342156980E+03  0.55689834964E+03  0.71677684526E+03  0.40000000000E+03 0.  1.
<mgrwt>
<rscale>  2 0.45125744E+03</rscale>
<asrwt>0</asrwt>
<pdfrwt beam="1">  1       21 0.12175837E+00 0.45125744E+03</pdfrwt>
<pdfrwt beam="2">  1       21 0.62961110E-01 0.45125744E+03</pdfrwt>
<totfact> 0.10091030E+03</totfact>
</mgrwt>
</event>
<event>
 4    1  0.4897983E-002  0.4146858E+03  0.7818608E-02  0.1038810E+00
         21   -1    0    0  503  502  0.00000000000E+00  0.00000000000E+00  0.32163817994E+03  0.32163817994E+03  0.00000000000E+00 0.  1.
         21   -1    0    0  501  503 -0.00000000000E+00 -0.00000000000E+00 -0.54121345603E+03  0.54121345603E+03  0.00000000000E+00 0.  1.
    9000007    1    1    2  501    0  0.65355669049E+02 -0.87709400156E+02 -0.62282356930E+02  0.41933685068E+03  0.40000000000E+03 0.  1.
   -9000007    1    1    2    0  502 -0.65355669049E+02  0.87709400156E+02 -0.15729291915E+03  0.44351478529E+03  0.40000000000E+03 0.  1.
<mgrwt>
<rscale>  2 0.41468579E+03</rscale>
<asrwt>0</asrwt>
<pdfrwt beam="1">  1       21 0.49482798E-01 0.41468579E+03</pdfrwt>
<pdfrwt beam="2">  1       21 0.83263607E-01 0.41468579E+03</pdfrwt>
<totfact> 0.43419659E+03</totfact>
</mgrwt>
</event>
<event>
 4    1  0.4897983E-002  0.4462375E+03  0.7818608E-02  0.1028850E+00
         21   -1    0    0  503  502  0.00000000000E+00  0.00000000000E+00  0.85219571101E+03  0.85219571101E+03  0.00000000000E+00 0. -1.
         21   -1    0    0  501  503 -0.00000000000E+00 -0.00000000000E+00 -0.40648347031E+03  0.40648347031E+03  0.00000000000E+00 0.  1.
    9000007    1    1    2  501    0 -0.17135000311E+03  0.98828609830E+02 -0.18749844216E+03  0.48402849451E+03  0.40000000000E+03 0.  1.
   -9000007    1    1    2    0  502  0.17135000311E+03 -0.98828609830E+02  0.63321068286E+03  0.77465068681E+03  0.40000000000E+03 0. -1.
<mgrwt>
<rscale>  2 0.44623751E+03</rscale>
<asrwt>0</asrwt>
<pdfrwt beam="1">  1       21 0.13110703E+00 0.44623751E+03</pdfrwt>
<pdfrwt beam="2">  1       21 0.62535919E-01 0.44623751E+03</pdfrwt>
<totfact> 0.84829331E+02</totfact>
</mgrwt>
</event>
<event>
 4    1  0.4897983E-002  0.5370878E+03  0.7818608E-02  0.1004528E+00
         21   -1    0    0  501  502  0.00000000000E+00  0.00000000000E+00  0.17060712020E+03  0.17060712020E+03  0.00000000000E+00 0. -1.
         21   -1    0    0  502  503 -0.00000000000E+00 -0.00000000000E+00 -0.19637684756E+04  0.19637684756E+04  0.00000000000E+00 0.  1.
    9000007    1    1    2  501    0 -0.22729783275E+02 -0.35769626262E+03 -0.49870398133E+03  0.73291808569E+03  0.40000000000E+03 0.  1.
   -9000007    1    1    2    0  503  0.22729783275E+02  0.35769626262E+03 -0.12944573740E+04  0.14014575101E+04  0.40000000000E+03 0.  1.
<mgrwt>
<rscale>  2 0.53708776E+03</rscale>
<asrwt>0</asrwt>
<pdfrwt beam="1">  1       21 0.26247250E-01 0.53708776E+03</pdfrwt>
<pdfrwt beam="2">  1       21 0.30211822E+00 0.53708776E+03</pdfrwt>
<totfact> 0.34625043E+02</totfact>
</mgrwt>
</event>
<event>
 4    1  0.4897983E-002  0.4683376E+03  0.7818608E-02  0.1022390E+00
         21   -1    0    0  501  502  0.00000000000E+00  0.00000000000E+00  0.22597762895E+03  0.22597762895E+03  0.00000000000E+00 0. -1.
         21   -1    0    0  502  503 -0.00000000000E+00 -0.00000000000E+00 -0.10474136441E+04  0.10474136441E+04  0.00000000000E+00 0. -1.
    9000007    1    1    2  501    0 -0.61513173204E+02  0.23570367072E+03 -0.58310889971E+03  0.74790111631E+03  0.40000000000E+03 0. -1.
   -9000007    1    1    2    0  503  0.61513173204E+02 -0.23570367072E+03 -0.23832711544E+03  0.52549015673E+03  0.40000000000E+03 0. -1.
<mgrwt>
<rscale>  2 0.46833758E+03</rscale>
<asrwt>0</asrwt>
<pdfrwt beam="1">  1       21 0.34765789E-01 0.46833758E+03</pdfrwt>
<pdfrwt beam="2">  1       21 0.16114056E+00 0.46833758E+03</pdfrwt>
<totfact> 0.16637548E+03</totfact>
</mgrwt>
</event>
<event>
 4    1  0.4897983E-002  0.6588226E+03  0.7818608E-02  0.9790364E-01
         21   -1    0    0  501  502  0.00000000000E+00  0.00000000000E+00  0.48456772865E+03  0.48456772865E+03  0.00000000000E+00 0.  1.
         21   -1    0    0  502  503 -0.00000000000E+00 -0.00000000000E+00 -0.91919788696E+03  0.91919788696E+03  0.00000000000E+00 0.  1.
    9000007    1    1    2  501    0 -0.25909397759E+03 -0.45488193123E+03 -0.10519231935E+03  0.66716765857E+03  0.40000000000E+03 0.  1.
   -9000007    1    1    2    0  503  0.25909397759E+03  0.45488193123E+03 -0.32943783896E+03  0.73659795704E+03  0.40000000000E+03 0.  1.
<mgrwt>
<rscale>  2 0.65882263E+03</rscale>
<asrwt>0</asrwt>
<pdfrwt beam="1">  1       21 0.74548883E-01 0.65882263E+03</pdfrwt>
<pdfrwt beam="2">  1       21 0.14141506E+00 0.65882263E+03</pdfrwt>
<totfact> 0.43265116E+02</totfact>
</mgrwt>
</event>
<event>
 4    1  0.4897983E-002  0.4525252E+03  0.7818608E-02  0.1026972E+00
         21   -1    0    0  501  502  0.00000000000E+00  0.00000000000E+00  0.17726427996E+03  0.17726427996E+03  0.00000000000E+00 0. -1.
         21   -1    0    0  502  503 -0.00000000000E+00 -0.00000000000E+00 -0.12089903870E+04  0.12089903870E+04  0.00000000000E+00 0.  1.
    9000007    1    1    2  501    0  0.89349403090E+02 -0.19182213875E+03 -0.66203955847E+03  0.80191983747E+03  0.40000000000E+03 0.  1.
   -9000007    1    1    2    0  503 -0.89349403090E+02  0.19182213875E+03 -0.36968654853E+03  0.58433482945E+03  0.40000000000E+03 0. -1.
<mgrwt>
<rscale>  2 0.45252519E+03</rscale>
<asrwt>0</asrwt>
<pdfrwt beam="1">  1       21 0.27271428E-01 0.45252519E+03</pdfrwt>
<pdfrwt beam="2">  1       21 0.18599852E+00 0.45252519E+03</pdfrwt>
<totfact> 0.17987108E+03</totfact>
</mgrwt>
</event>
<event>
 4    1  0.4897983E-002  0.4452074E+03  0.7818608E-02  0.1029161E+00
         21   -1    0    0  501  502  0.00000000000E+00  0.00000000000E+00  0.34674797232E+03  0.34674797232E+03  0.00000000000E+00 0.  1.
         21   -1    0    0  502  503 -0.00000000000E+00 -0.00000000000E+00 -0.68043711971E+03  0.68043711971E+03  0.00000000000E+00 0. -1.
    9000007    1    1    2  501    0  0.40282698468E+02  0.19127705731E+03 -0.37222758003E+03  0.58031282925E+03  0.40000000000E+03 0. -1.
   -9000007    1    1    2    0  503 -0.40282698468E+02 -0.19127705731E+03  0.38538432642E+02  0.44687226278E+03  0.40000000000E+03 0.  1.
<mgrwt>
<rscale>  2 0.44520738E+03</rscale>
<asrwt>0</asrwt>
<pdfrwt beam="1">  1       21 0.53345842E-01 0.44520738E+03</pdfrwt>
<pdfrwt beam="2">  1       21 0.10468263E+00 0.44520738E+03</pdfrwt>
<totfact> 0.21168544E+03</totfact>
</mgrwt>
</event>
<event>
 4    1  0.4897983E-002  0.5001759E+03  0.7818608E-02  0.1013733E+00
         21   -1    0    0  503  502  0.00000000000E+00  0.00000000000E+00  0.82991257460E+03  0.82991257460E+03  0.00000000000E+00 0.  1.
         21   -1    0    0  501  503 -0.00000000000E+00 -0.00000000000E+00 -0.36939398766E+03  0.36939398766E+03  0.00000000000E+00 0.  1.
    9000007    1    1    2  501    0 -0.17021579990E+03  0.24739131690E+03 -0.26919813831E+02  0.50089974904E+03  0.40000000000E+03 0.  1.
   -9000007    1    1    2    0  502  0.17021579990E+03 -0.24739131690E+03  0.48743840077E+03  0.69840681323E+03  0.40000000000E+03 0.  1.
<mgrwt>
<rscale>  2 0.50017585E+03</rscale>
<asrwt>0</asrwt>
<pdfrwt beam="1">  1       21 0.12767886E+00 0.50017585E+03</pdfrwt>
<pdfrwt beam="2">  1       21 0.56829845E-01 0.50017585E+03</pdfrwt>
<totfact> 0.10966261E+03</totfact>
</mgrwt>
</event>
<event>
 4    1  0.4897983E-002  0.4094418E+03  0.7818608E-02  0.1040558E+00
         21   -1    0    0  503  502  0.00000000000E+00  0.00000000000E+00  0.54443558826E+03  0.54443558826E+03  0.00000000000E+00 0.  1.
         21   -1    0    0  501  503 -0.00000000000E+00 -0.00000000000E+00 -0.34699877448E+03  0.34699877448E+03  0.00000000000E+00 0.  1.
    9000007    1    1    2  501    0 -0.30311591667E+02 -0.81998774106E+02 -0.50859008235E+02  0.41258845144E+03  0.40000000000E+03 0.  1.
   -9000007    1    1    2    0  502  0.30311591667E+02  0.81998774106E+02  0.24829582201E+03  0.47884591130E+03  0.40000000000E+03 0.  1.
<mgrwt>
<rscale>  2 0.40944180E+03</rscale>
<asrwt>0</asrwt>
<pdfrwt beam="1">  1       21 0.83759321E-01 0.40944180E+03</pdfrwt>
<pdfrwt beam="2">  1       21 0.53384427E-01 0.40944180E+03</pdfrwt>
<totfact> 0.36497193E+03</totfact>
</mgrwt>
</event>
<event>
 4    1  0.4897983E-002  0.6288454E+03  0.7818608E-02  0.9847305E-01
         21   -1    0    0  503  502  0.00000000000E+00  0.00000000000E+00  0.69391636912E+03  0.69391636912E+03  0.00000000000E+00 0. -1.
         21   -1    0    0  501  503 -0.00000000000E+00 -0.00000000000E+00 -0.66247773922E+03  0.66247773922E+03  0.00000000000E+00 0.  1.
    9000007    1    1    2  501    0  0.45109275061E+03 -0.17877878109E+03  0.26927831103E+03  0.68407406837E+03  0.40000000000E+03 0. -1.
   -9000007    1    1    2    0  502 -0.45109275061E+03  0.17877878109E+03 -0.23783968113E+03  0.67232003997E+03  0.40000000000E+03 0. -1.
<mgrwt>
<rscale>  2 0.62884539E+03</rscale>
<asrwt>0</asrwt>
<pdfrwt beam="1">  1       21 0.10675636E+00 0.62884539E+03</pdfrwt>
<pdfrwt beam="2">  1       21 0.10191965E+00 0.62884539E+03</pdfrwt>
<totfact> 0.42969009E+02</totfact>
</mgrwt>
</event>
<event>
 4    1  0.4897983E-002  0.4011420E+03  0.7818608E-02  0.1043385E+00
         21   -1    0    0  501  502  0.00000000000E+00  0.00000000000E+00  0.97051013481E+03  0.97051013481E+03  0.00000000000E+00 0.  1.
         21   -1    0    0  502  503 -0.00000000000E+00 -0.00000000000E+00 -0.12813701417E+04  0.12813701417E+04  0.00000000000E+00 0.  1.
    9000007    1    1    2  501    0  0.26320123142E+02 -0.14903646486E+02  0.89514141786E+03  0.98091438237E+03  0.40000000000E+03 0.  1.
   -9000007    1    1    2    0  503 -0.26320123142E+02  0.14903646486E+02 -0.12060014248E+04  0.12709658942E+04  0.40000000000E+03 0.  1.
<mgrwt>
<rscale>  2 0.40114195E+03</rscale>
<asrwt>0</asrwt>
<pdfrwt beam="1">  1       21 0.14930925E+00 0.40114195E+03</pdfrwt>
<pdfrwt beam="2">  1       21 0.19713387E+00 0.40114195E+03</pdfrwt>
<totfact> 0.33899559E+01</totfact>
</mgrwt>
</event>
<event>
 4    1  0.4897983E-002  0.4462841E+03  0.7818608E-02  0.1028836E+00
         21   -1    0    0  501  502  0.00000000000E+00  0.00000000000E+00  0.38959215812E+03  0.38959215812E+03  0.00000000000E+00 0.  1.
         21   -1    0    0  502  503 -0.00000000000E+00 -0.00000000000E+00 -0.51824318355E+03  0.51824318355E+03  0.00000000000E+00 0.  1.
    9000007    1    1    2  501    0 -0.18855446651E+03 -0.60139423715E+02 -0.11505326271E+02  0.44643242451E+03  0.40000000000E+03 0. -1.
   -9000007    1    1    2    0  503  0.18855446651E+03  0.60139423715E+02 -0.11714569916E+03  0.46140291715E+03  0.40000000000E+03 0. -1.
<mgrwt>
<rscale>  2 0.44628414E+03</rscale>
<asrwt>0</asrwt>
<pdfrwt beam="1">  1       21 0.59937255E-01 0.44628414E+03</pdfrwt>
<pdfrwt beam="2">  1       21 0.79729720E-01 0.44628414E+03</pdfrwt>
<totfact> 0.31410261E+03</totfact>
</mgrwt>
</event>
<event>
 4    1  0.4897983E-002  0.4336218E+03  0.7818608E-02  0.1032722E+00
         21   -1    0    0  501  502  0.00000000000E+00  0.00000000000E+00  0.73803020766E+03  0.73803020766E+03  0.00000000000E+00 0.  1.
         21   -1    0    0  502  503 -0.00000000000E+00 -0.00000000000E+00 -0.29390449001E+03  0.29390449001E+03  0.00000000000E+00 0.  1.
    9000007    1    1    2  501    0  0.16722779002E+03 -0.79221049927E+01  0.41034079039E+03  0.59699870834E+03  0.40000000000E+03 0.  1.
   -9000007    1    1    2    0  503 -0.16722779002E+03  0.79221049927E+01  0.33784927265E+02  0.43493598933E+03  0.40000000000E+03 0.  1.
<mgrwt>
<rscale>  2 0.43362183E+03</rscale>
<asrwt>0</asrwt>
<pdfrwt beam="1">  1       21 0.11354311E+00 0.43362183E+03</pdfrwt>
<pdfrwt beam="2">  1       21 0.45216076E-01 0.43362183E+03</pdfrwt>
<totfact> 0.24690504E+03</totfact>
</mgrwt>
</event>
<event>
 4    1  0.4897983E-002  0.5425140E+03  0.7818608E-02  0.1003242E+00
         21   -1    0    0  503  502  0.00000000000E+00  0.00000000000E+00  0.64335298491E+03  0.64335298491E+03  0.00000000000E+00 0.  1.
         21   -1    0    0  501  503 -0.00000000000E+00 -0.00000000000E+00 -0.46051353512E+03  0.46051353512E+03  0.00000000000E+00 0. -1.
    9000007    1    1    2  501    0  0.25994714072E+03  0.25835809780E+03  0.46627091601E+02  0.54451401115E+03  0.40000000000E+03 0.  1.
   -9000007    1    1    2    0  502 -0.25994714072E+03 -0.25835809780E+03  0.13621235819E+03  0.55935250888E+03  0.40000000000E+03 0. -1.
<mgrwt>
<rscale>  2 0.54251398E+03</rscale>
<asrwt>0</asrwt>
<pdfrwt beam="1">  1       21 0.98977383E-01 0.54251398E+03</pdfrwt>
<pdfrwt beam="2">  1       21 0.70848236E-01 0.54251398E+03</pdfrwt>
<totfact> 0.12549101E+03</totfact>
</mgrwt>
</event>
<event>
 4    1  0.4897983E-002  0.7078080E+03  0.7818608E-02  0.9703972E-01
         21   -1    0    0  501  502  0.00000000000E+00  0.00000000000E+00  0.11923627383E+04  0.11923627383E+04  0.00000000000E+00 0. -1.
         21   -1    0    0  502  503 -0.00000000000E+00 -0.00000000000E+00 -0.42705306678E+03  0.42705306678E+03  0.00000000000E+00 0.  1.
    9000007    1    1    2  501    0 -0.35930112204E+03  0.46032045122E+03  0.48546913365E+03  0.85829627392E+03  0.40000000000E+03 0. -1.
   -9000007    1    1    2    0  503  0.35930112204E+03 -0.46032045122E+03  0.27984053789E+03  0.76111953118E+03  0.40000000000E+03 0.  1.
<mgrwt>
<rscale>  2 0.70780803E+03</rscale>
<asrwt>0</asrwt>
<pdfrwt beam="1">  1       21 0.18344042E+00 0.70780803E+03</pdfrwt>
<pdfrwt beam="2">  1       21 0.65700472E-01 0.70780803E+03</pdfrwt>
<totfact> 0.27150130E+02</totfact>
</mgrwt>
</event>
<event>
 4    1  0.4897983E-002  0.4913549E+03  0.7818608E-02  0.1016060E+00
         21   -1    0    0  503  502  0.00000000000E+00  0.00000000000E+00  0.90342714586E+03  0.90342714586E+03  0.00000000000E+00 0. -1.
         21   -1    0    0  501  503 -0.00000000000E+00 -0.00000000000E+00 -0.26992325058E+03  0.26992325058E+03  0.00000000000E+00 0.  1.
    9000007    1    1    2  501    0  0.21338065748E+03  0.18946846225E+03  0.25823102025E+03  0.55507915021E+03  0.40000000000E+03 0.  1.
   -9000007    1    1    2    0  502 -0.21338065748E+03 -0.18946846225E+03  0.37527287503E+03  0.61827124623E+03  0.40000000000E+03 0. -1.
<mgrwt>
<rscale>  2 0.49135486E+03</rscale>
<asrwt>0</asrwt>
<pdfrwt beam="1">  1       21 0.13898879E+00 0.49135486E+03</pdfrwt>
<pdfrwt beam="2">  1       21 0.41526654E-01 0.49135486E+03</pdfrwt>
<totfact> 0.17145793E+03</totfact>
</mgrwt>
</event>
<event>
 4    1  0.4897983E-002  0.5440863E+03  0.7818608E-02  0.1002872E+00
         21   -1    0    0  501  502  0.00000000000E+00  0.00000000000E+00  0.26142091155E+03  0.26142091155E+03  0.00000000000E+00 0. -1.
         21   -1    0    0  502  503 -0.00000000000E+00 -0.00000000000E+00 -0.11812090367E+04  0.11812090367E+04  0.00000000000E+00 0. -1.
    9000007    1    1    2  501    0 -0.36589009784E+03  0.46414590859E+02 -0.31324965823E+03  0.62781782893E+03  0.40000000000E+03 0. -1.
   -9000007    1    1    2    0  503  0.36589009784E+03 -0.46414590859E+02 -0.60653846691E+03  0.81481211932E+03  0.40000000000E+03 0. -1.
<mgrwt>
<rscale>  2 0.54408628E+03</rscale>
<asrwt>0</asrwt>
<pdfrwt beam="1">  1       21 0.40218602E-01 0.54408628E+03</pdfrwt>
<pdfrwt beam="2">  1       21 0.18172446E+00 0.54408628E+03</pdfrwt>
<totfact> 0.84947865E+02</totfact>
</mgrwt>
</event>
<event>
 4    1  0.4897983E-002  0.5722352E+03  0.7818608E-02  0.9964745E-01
         21   -1    0    0  503  502  0.00000000000E+00  0.00000000000E+00  0.16310865487E+04  0.16310865487E+04  0.00000000000E+00 0.  1.
         21   -1    0    0  501  503 -0.00000000000E+00 -0.00000000000E+00 -0.23149236796E+03  0.23149236796E+03  0.00000000000E+00 0. -1.
    9000007    1    1    2  501    0  0.38424116122E+03  0.14075453512E+03  0.10391338712E+04  0.11862766589E+04  0.40000000000E+03 0.  1.
   -9000007    1    1    2    0  502 -0.38424116122E+03 -0.14075453512E+03  0.36046030957E+03  0.67630225780E+03  0.40000000000E+03 0. -1.
<mgrwt>
<rscale>  2 0.57223519E+03</rscale>
<asrwt>0</asrwt>
<pdfrwt beam="1">  1       21 0.25093638E+00 0.57223519E+03</pdfrwt>
<pdfrwt beam="2">  1       21 0.35614211E-01 0.57223519E+03</pdfrwt>
<totfact> 0.38011237E+02</totfact>
</mgrwt>
</event>
<event>
 4    1  0.4897983E-002  0.4395873E+03  0.7818608E-02  0.1030874E+00
         21   -1    0    0  503  502  0.00000000000E+00  0.00000000000E+00  0.99314956936E+02  0.99314956936E+02  0.00000000000E+00 0.  1.
         21   -1    0    0  501  503 -0.00000000000E+00 -0.00000000000E+00 -0.20303334981E+04  0.20303334981E+04  0.00000000000E+00 0. -1.
    9000007    1    1    2  501    0  0.15492468218E+03 -0.96100694517E+02 -0.11829136305E+04  0.12619515275E+04  0.40000000000E+03 0. -1.
   -9000007    1    1    2    0  502 -0.15492468218E+03  0.96100694517E+02 -0.74810491070E+03  0.86769692753E+03  0.40000000000E+03 0. -1.
<mgrwt>
<rscale>  2 0.43958731E+03</rscale>
<asrwt>0</asrwt>
<pdfrwt beam="1">  1       21 0.15279225E-01 0.43958731E+03</pdfrwt>
<pdfrwt beam="2">  1       21 0.31235899E+00 0.43958731E+03</pdfrwt>
<totfact> 0.88697429E+02</totfact>
</mgrwt>
</event>
<event>
 4    1  0.4897983E-002  0.5008786E+03  0.7818608E-02  0.1013550E+00
         21   -1    0    0  501  502  0.00000000000E+00  0.00000000000E+00  0.28488424496E+03  0.28488424496E+03  0.00000000000E+00 0. -1.
         21   -1    0    0  502  503 -0.00000000000E+00 -0.00000000000E+00 -0.14598152536E+04  0.14598152536E+04  0.00000000000E+00 0. -1.
    9000007    1    1    2  501    0  0.17880196505E+02 -0.30093129337E+03 -0.37990222585E+02  0.50231723221E+03  0.40000000000E+03 0. -1.
   -9000007    1    1    2    0  503 -0.17880196505E+02  0.30093129337E+03 -0.11369407861E+04  0.12423822664E+04  0.40000000000E+03 0. -1.
<mgrwt>
<rscale>  2 0.50087857E+03</rscale>
<asrwt>0</asrwt>
<pdfrwt beam="1">  1       21 0.43828346E-01 0.50087857E+03</pdfrwt>
<pdfrwt beam="2">  1       21 0.22458696E+00 0.50087857E+03</pdfrwt>
<totfact> 0.37402812E+02</totfact>
</mgrwt>
</event>
<event>
 4    1  0.4897983E-002  0.4066304E+03  0.7818608E-02  0.1041508E+00
         21   -1    0    0  503  502  0.00000000000E+00  0.00000000000E+00  0.55862322898E+03  0.55862322898E+03  0.00000000000E+00 0.  1.
         21   -1    0    0  501  503 -0.00000000000E+00 -0.00000000000E+00 -0.62799469961E+03  0.62799469961E+03  0.00000000000E+00 0.  1.
    9000007    1    1    2  501    0 -0.70851842902E+02  0.18118157026E+02 -0.46607908158E+03  0.61852886880E+03  0.40000000000E+03 0.  1.
   -9000007    1    1    2    0  502  0.70851842902E+02 -0.18118157026E+02  0.39670761095E+03  0.56808905978E+03  0.40000000000E+03 0.  1.
<mgrwt>
<rscale>  2 0.40663036E+03</rscale>
<asrwt>0</asrwt>
<pdfrwt beam="1">  1       21 0.85942035E-01 0.40663036E+03</pdfrwt>
<pdfrwt beam="2">  1       21 0.96614570E-01 0.40663036E+03</pdfrwt>
<totfact> 0.89918583E+02</totfact>
</mgrwt>
</event>
<event>
 4    1  0.4897983E-002  0.4102520E+03  0.7818608E-02  0.1040286E+00
         21   -1    0    0  503  502  0.00000000000E+00  0.00000000000E+00  0.31380121317E+03  0.31380121317E+03  0.00000000000E+00 0.  1.
         21   -1    0    0  501  503 -0.00000000000E+00 -0.00000000000E+00 -0.57801736630E+03  0.57801736630E+03  0.00000000000E+00 0.  1.
    9000007    1    1    2  501    0  0.19553281546E+02  0.89018918462E+02 -0.25183277938E+03  0.48137973309E+03  0.40000000000E+03 0.  1.
   -9000007    1    1    2    0  502 -0.19553281546E+02 -0.89018918462E+02 -0.12383373750E+02  0.41043884637E+03  0.40000000000E+03 0.  1.
<mgrwt>
<rscale>  2 0.41025199E+03</rscale>
<asrwt>0</asrwt>
<pdfrwt beam="1">  1       21 0.48277110E-01 0.41025199E+03</pdfrwt>
<pdfrwt beam="2">  1       21 0.88925748E-01 0.41025199E+03</pdfrwt>
<totfact> 0.39280598E+03</totfact>
</mgrwt>
</event>
<event>
 4    1  0.4897983E-002  0.5273040E+03  0.7818608E-02  0.1006888E+00
         21   -1    0    0  503  502  0.00000000000E+00  0.00000000000E+00  0.42721372163E+03  0.42721372163E+03  0.00000000000E+00 0. -1.
         21   -1    0    0  501  503 -0.00000000000E+00 -0.00000000000E+00 -0.65511175069E+03  0.65511175069E+03  0.00000000000E+00 0. -1.
    9000007    1    1    2  501    0 -0.11992552414E+03  0.32197423056E+03 -0.15762712765E+03  0.55035974404E+03  0.40000000000E+03 0. -1.
   -9000007    1    1    2    0  502  0.11992552414E+03 -0.32197423056E+03 -0.70270901405E+02  0.53196572828E+03  0.40000000000E+03 0. -1.
<mgrwt>
<rscale>  2 0.52730403E+03</rscale>
<asrwt>0</asrwt>
<pdfrwt beam="1">  1       21 0.65725188E-01 0.52730403E+03</pdfrwt>
<pdfrwt beam="2">  1       21 0.10078642E+00 0.52730403E+03</pdfrwt>
<totfact> 0.14287169E+03</totfact>
</mgrwt>
</event>
<event>
 4    1  0.4897983E-002  0.5571190E+03  0.7818608E-02  0.9998595E-01
         21   -1    0    0  501  502  0.00000000000E+00  0.00000000000E+00  0.27531388130E+04  0.27531388130E+04  0.00000000000E+00 0.  1.
         21   -1    0    0  502  503 -0.00000000000E+00 -0.00000000000E+00 -0.11351811463E+03  0.11351811463E+03  0.00000000000E+00 0. -1.
    9000007    1    1    2  501    0  0.87010979160E+02 -0.37790299621E+03  0.14386803011E+04  0.15427840400E+04  0.40000000000E+03 0.  1.
   -9000007    1    1    2    0  503 -0.87010979160E+02  0.37790299621E+03  0.12009403972E+04  0.13238728877E+04  0.40000000000E+03 0. -1.
<mgrwt>
<rscale>  2 0.55711900E+03</rscale>
<asrwt>0</asrwt>
<pdfrwt beam="1">  1       21 0.42355977E+00 0.55711900E+03</pdfrwt>
<pdfrwt beam="2">  1       21 0.17464327E-01 0.55711900E+03</pdfrwt>
<totfact> 0.12983943E+02</totfact>
</mgrwt>
</event>
<event>
 4    1  0.4897983E-002  0.4116982E+03  0.7818608E-02  0.1039803E+00
         21   -1    0    0  503  502  0.00000000000E+00  0.00000000000E+00  0.10216594855E+04  0.10216594855E+04  0.00000000000E+00 0. -1.
         21   -1    0    0  501  503 -0.00000000000E+00 -0.00000000000E+00 -0.17538805355E+03  0.17538805355E+03  0.00000000000E+00 0. -1.
    9000007    1    1    2  501    0  0.83629021741E+01 -0.97084958604E+02  0.28394108118E+03  0.50011795099E+03  0.40000000000E+03 0.  1.
   -9000007    1    1    2    0  502 -0.83629021741E+01  0.97084958604E+02  0.56233035075E+03  0.69692958805E+03  0.40000000000E+03 0.  1.
<mgrwt>
<rscale>  2 0.41169822E+03</rscale>
<asrwt>0</asrwt>
<pdfrwt beam="1">  1       21 0.15717838E+00 0.41169822E+03</pdfrwt>
<pdfrwt beam="2">  1       21 0.26982778E-01 0.41169822E+03</pdfrwt>
<totfact> 0.30215833E+03</totfact>
</mgrwt>
</event>
<event>
 4    1  0.4897983E-002  0.4223481E+03  0.7818608E-02  0.1036305E+00
         21   -1    0    0  503  502  0.00000000000E+00  0.00000000000E+00  0.63865754263E+03  0.63865754263E+03  0.00000000000E+00 0.  1.
         21   -1    0    0  501  503 -0.00000000000E+00 -0.00000000000E+00 -0.32721027265E+03  0.32721027265E+03  0.00000000000E+00 0.  1.
    9000007    1    1    2  501    0  0.26097300422E+02 -0.13302953144E+03 -0.29068020049E+02  0.42334722760E+03  0.40000000000E+03 0.  1.
   -9000007    1    1    2    0  502 -0.26097300422E+02  0.13302953144E+03  0.34051529003E+03  0.54252058769E+03  0.40000000000E+03 0.  1.
<mgrwt>
<rscale>  2 0.42234811E+03</rscale>
<asrwt>0</asrwt>
<pdfrwt beam="1">  1       21 0.98255006E-01 0.42234811E+03</pdfrwt>
<pdfrwt beam="2">  1       21 0.50340042E-01 0.42234811E+03</pdfrwt>
<totfact> 0.28210047E+03</totfact>
</mgrwt>
</event>
<event>
 4    1  0.4897983E-002  0.4140733E+03  0.7818608E-02  0.1039013E+00
         21   -1    0    0  503  502  0.00000000000E+00  0.00000000000E+00  0.22864762141E+03  0.22864762141E+03  0.00000000000E+00 0.  1.
         21   -1    0    0  501  503 -0.00000000000E+00 -0.00000000000E+00 -0.76639020404E+03  0.76639020404E+03  0.00000000000E+00 0.  1.
    9000007    1    1    2  501    0  0.67630902177E+02 -0.82962294934E+02 -0.34190993296E+03  0.53699076674E+03  0.40000000000E+03 0.  1.
   -9000007    1    1    2    0  502 -0.67630902177E+02  0.82962294934E+02 -0.19583264967E+03  0.45804705870E+03  0.40000000000E+03 0.  1.
<mgrwt>
<rscale>  2 0.41407328E+03</rscale>
<asrwt>0</asrwt>
<pdfrwt beam="1">  1       21 0.35176557E-01 0.41407328E+03</pdfrwt>
<pdfrwt beam="2">  1       21 0.11790619E+00 0.41407328E+03</pdfrwt>
<totfact> 0.37943641E+03</totfact>
</mgrwt>
</event>
<event>
 4    1  0.4897983E-002  0.4106690E+03  0.7818608E-02  0.1040147E+00
         21   -1    0    0  501  502  0.00000000000E+00  0.00000000000E+00  0.31793885568E+03  0.31793885568E+03  0.00000000000E+00 0.  1.
         21   -1    0    0  502  503 -0.00000000000E+00 -0.00000000000E+00 -0.16463221401E+04  0.16463221401E+04  0.00000000000E+00 0.  1.
    9000007    1    1    2  501    0 -0.90352847662E+02  0.22032054488E+02  0.14438277296E+03  0.43531073228E+03  0.40000000000E+03 0.  1.
   -9000007    1    1    2    0  503  0.90352847662E+02 -0.22032054488E+02 -0.14727660573E+04  0.15289502635E+04  0.40000000000E+03 0.  1.
<mgrwt>
<rscale>  2 0.41066903E+03</rscale>
<asrwt>0</asrwt>
<pdfrwt beam="1">  1       21 0.48913669E-01 0.41066903E+03</pdfrwt>
<pdfrwt beam="2">  1       21 0.25328034E+00 0.41066903E+03</pdfrwt>
<totfact> 0.20667070E+02</totfact>
</mgrwt>
</event>
<event>
 4    1  0.4897983E-002  0.6989276E+03  0.7818608E-02  0.9719068E-01
         21   -1    0    0  503  502  0.00000000000E+00  0.00000000000E+00  0.19033648852E+04  0.19033648852E+04  0.00000000000E+00 0. -1.
         21   -1    0    0  501  503 -0.00000000000E+00 -0.00000000000E+00 -0.42968516066E+03  0.42968516066E+03  0.00000000000E+00 0.  1.
    9000007    1    1    2  501    0 -0.54204942749E+03  0.18623141465E+03  0.14771016314E+04  0.16341141181E+04  0.40000000000E+03 0. -1.
   -9000007    1    1    2    0  502  0.54204942749E+03 -0.18623141465E+03 -0.34219068230E+01  0.69893592775E+03  0.40000000000E+03 0.  1.
<mgrwt>
<rscale>  2 0.69892755E+03</rscale>
<asrwt>0</asrwt>
<pdfrwt beam="1">  1       21 0.29282536E+00 0.69892755E+03</pdfrwt>
<pdfrwt beam="2">  1       21 0.66105410E-01 0.69892755E+03</pdfrwt>
<totfact> 0.53147861E+01</totfact>
</mgrwt>
</event>
<event>
 4    1  0.4897983E-002  0.5040440E+03  0.7818608E-02  0.1012729E+00
         21   -1    0    0  503  502  0.00000000000E+00  0.00000000000E+00  0.25879480674E+03  0.25879480674E+03  0.00000000000E+00 0. -1.
         21   -1    0    0  501  503 -0.00000000000E+00 -0.00000000000E+00 -0.11296225631E+04  0.11296225631E+04  0.00000000000E+00 0. -1.
    9000007    1    1    2  501    0 -0.16333667783E+03 -0.25957943661E+03 -0.68662109344E+03  0.85176809062E+03  0.40000000000E+03 0. -1.
   -9000007    1    1    2    0  502  0.16333667783E+03  0.25957943661E+03 -0.18420666295E+03  0.53664927924E+03  0.40000000000E+03 0. -1.
<mgrwt>
<rscale>  2 0.50404400E+03</rscale>
<asrwt>0</asrwt>
<pdfrwt beam="1">  1       21 0.39814585E-01 0.50404400E+03</pdfrwt>
<pdfrwt beam="2">  1       21 0.17378809E+00 0.50404400E+03</pdfrwt>
<totfact> 0.10034453E+03</totfact>
</mgrwt>
</event>
<event>
 4    1  0.4897983E-002  0.4082473E+03  0.7818608E-02  0.1040961E+00
         21   -1    0    0  503  502  0.00000000000E+00  0.00000000000E+00  0.74473056197E+03  0.74473056197E+03  0.00000000000E+00 0.  1.
         21   -1    0    0  501  503 -0.00000000000E+00 -0.00000000000E+00 -0.73362396223E+03  0.73362396223E+03  0.00000000000E+00 0.  1.
    9000007    1    1    2  501    0 -0.39517701209E+02 -0.71443981354E+02 -0.61065098938E+03  0.73454783507E+03  0.40000000000E+03 0.  1.
   -9000007    1    1    2    0  502  0.39517701209E+02  0.71443981354E+02  0.62175758911E+03  0.74380668913E+03  0.40000000000E+03 0.  1.
<mgrwt>
<rscale>  2 0.40824734E+03</rscale>
<asrwt>0</asrwt>
<pdfrwt beam="1">  1       21 0.11457393E+00 0.40824734E+03</pdfrwt>
<pdfrwt beam="2">  1       21 0.11286522E+00 0.40824734E+03</pdfrwt>
<totfact> 0.30635872E+02</totfact>
</mgrwt>
</event>
<event>
 4    1  0.4897983E-002  0.4430556E+03  0.7818608E-02  0.1029813E+00
         21   -1    0    0  503  502  0.00000000000E+00  0.00000000000E+00  0.42892756977E+03  0.42892756977E+03  0.00000000000E+00 0. -1.
         21   -1    0    0  501  503 -0.00000000000E+00 -0.00000000000E+00 -0.53065344428E+03  0.53065344428E+03  0.00000000000E+00 0. -1.
    9000007    1    1    2  501    0  0.14889511036E+03  0.11886353493E+03 -0.22882222755E+03  0.49865609958E+03  0.40000000000E+03 0.  1.
   -9000007    1    1    2    0  502 -0.14889511036E+03 -0.11886353493E+03  0.12709635304E+03  0.46092491447E+03  0.40000000000E+03 0.  1.
<mgrwt>
<rscale>  2 0.44305563E+03</rscale>
<asrwt>0</asrwt>
<pdfrwt beam="1">  1       21 0.65988858E-01 0.44305563E+03</pdfrwt>
<pdfrwt beam="2">  1       21 0.81638990E-01 0.44305563E+03</pdfrwt>
<totfact> 0.24072736E+03</totfact>
</mgrwt>
</event>
<event>
 4    1  0.4897983E-002  0.4228254E+03  0.7818608E-02  0.1036151E+00
         21   -1    0    0  501  502  0.00000000000E+00  0.00000000000E+00  0.61632512473E+03  0.61632512473E+03  0.00000000000E+00 0. -1.
         21   -1    0    0  502  503 -0.00000000000E+00 -0.00000000000E+00 -0.30220157511E+03  0.30220157511E+03  0.00000000000E+00 0. -1.
    9000007    1    1    2  501    0 -0.13408602054E+03  0.28323558163E+02  0.24905588233E+03  0.49072407458E+03  0.40000000000E+03 0.  1.
   -9000007    1    1    2    0  503  0.13408602054E+03 -0.28323558163E+02  0.65067667299E+02  0.42780262526E+03  0.40000000000E+03 0.  1.
<mgrwt>
<rscale>  2 0.42282536E+03</rscale>
<asrwt>0</asrwt>
<pdfrwt beam="1">  1       21 0.94819250E-01 0.42282536E+03</pdfrwt>
<pdfrwt beam="2">  1       21 0.46492550E-01 0.42282536E+03</pdfrwt>
<totfact> 0.36345230E+03</totfact>
</mgrwt>
</event>
<event>
 4    1  0.4897983E-002  0.4236570E+03  0.7818608E-02  0.1035883E+00
         21   -1    0    0  501  502  0.00000000000E+00  0.00000000000E+00  0.43527109749E+03  0.43527109749E+03  0.00000000000E+00 0. -1.
         21   -1    0    0  502  503 -0.00000000000E+00 -0.00000000000E+00 -0.69919473693E+03  0.69919473693E+03  0.00000000000E+00 0.  1.
    9000007    1    1    2  501    0 -0.26171005819E+02  0.13711429881E+03  0.23135347354E+03  0.48271076454E+03  0.40000000000E+03 0. -1.
   -9000007    1    1    2    0  503  0.26171005819E+02 -0.13711429881E+03 -0.49527711298E+03  0.65175506989E+03  0.40000000000E+03 0.  1.
<mgrwt>
<rscale>  2 0.42365700E+03</rscale>
<asrwt>0</asrwt>
<pdfrwt beam="1">  1       21 0.66964785E-01 0.42365700E+03</pdfrwt>
<pdfrwt beam="2">  1       21 0.10756842E+00 0.42365700E+03</pdfrwt>
<totfact> 0.12141106E+03</totfact>
</mgrwt>
</event>
<event>
 4    1  0.4897983E-002  0.4693843E+03  0.7818608E-02  0.1022094E+00
         21   -1    0    0  503  502  0.00000000000E+00  0.00000000000E+00  0.48726473363E+03  0.48726473363E+03  0.00000000000E+00 0.  1.
         21   -1    0    0  501  503 -0.00000000000E+00 -0.00000000000E+00 -0.46435438269E+03  0.46435438269E+03  0.00000000000E+00 0.  1.
    9000007    1    1    2  501    0  0.10812675334E+03  0.22052261860E+03 -0.65650858548E+02  0.47395322061E+03  0.40000000000E+03 0.  1.
   -9000007    1    1    2    0  502 -0.10812675334E+03 -0.22052261860E+03  0.88561209488E+02  0.47766589571E+03  0.40000000000E+03 0.  1.
<mgrwt>
<rscale>  2 0.46938430E+03</rscale>
<asrwt>0</asrwt>
<pdfrwt beam="1">  1       21 0.74963805E-01 0.46938430E+03</pdfrwt>
<pdfrwt beam="2">  1       21 0.71439136E-01 0.46938430E+03</pdfrwt>
<totfact> 0.24281186E+03</totfact>
</mgrwt>
</event>
<event>
 4    1  0.4897983E-002  0.5296833E+03  0.7818608E-02  0.1006309E+00
         21   -1    0    0  501  502  0.00000000000E+00  0.00000000000E+00  0.32295988903E+03  0.32295988903E+03  0.00000000000E+00 0.  1.
         21   -1    0    0  502  503 -0.00000000000E+00 -0.00000000000E+00 -0.19728086693E+04  0.19728086693E+04  0.00000000000E+00 0.  1.
    9000007    1    1    2  501    0  0.33908629573E+03 -0.74731971201E+02  0.33804305103E+02  0.53076088261E+03  0.40000000000E+03 0.  1.
   -9000007    1    1    2    0  503 -0.33908629573E+03  0.74731971201E+02 -0.16836530854E+04  0.17650076757E+04  0.40000000000E+03 0.  1.
<mgrwt>
<rscale>  2 0.52968329E+03</rscale>
<asrwt>0</asrwt>
<pdfrwt beam="1">  1       21 0.49686136E-01 0.52968329E+03</pdfrwt>
<pdfrwt beam="2">  1       21 0.30350903E+00 0.52968329E+03</pdfrwt>
<totfact> 0.92577299E+01</totfact>
</mgrwt>
</event>
<event>
 4    1  0.4897983E-002  0.4009297E+03  0.7818608E-02  0.1043458E+00
         21   -1    0    0  501  502  0.00000000000E+00  0.00000000000E+00  0.16035843947E+04  0.16035843947E+04  0.00000000000E+00 0.  1.
         21   -1    0    0  502  503 -0.00000000000E+00 -0.00000000000E+00 -0.59504450507E+03  0.59504450507E+03  0.00000000000E+00 0.  1.
    9000007    1    1    2  501    0 -0.27177376057E+02  0.24498285207E+01  0.15067221502E+04  0.15591524138E+04  0.40000000000E+03 0.  1.
   -9000007    1    1    2    0  503  0.27177376057E+02 -0.24498285207E+01 -0.49818226056E+03  0.63947648602E+03  0.40000000000E+03 0.  1.
<mgrwt>
<rscale>  2 0.40092968E+03</rscale>
<asrwt>0</asrwt>
<pdfrwt beam="1">  1       21 0.24670529E+00 0.40092968E+03</pdfrwt>
<pdfrwt beam="2">  1       21 0.91545309E-01 0.40092968E+03</pdfrwt>
<totfact> 0.56308530E+01</totfact>
</mgrwt>
</event>
<event>
 4    1  0.4897983E-002  0.6586759E+03  0.7818608E-02  0.9790634E-01
         21   -1    0    0  503  502  0.00000000000E+00  0.00000000000E+00  0.37053503908E+03  0.37053503908E+03  0.00000000000E+00 0. -1.
         21   -1    0    0  501  503 -0.00000000000E+00 -0.00000000000E+00 -0.18849810740E+04  0.18849810740E+04  0.00000000000E+00 0.  1.
    9000007    1    1    2  501    0 -0.17293176691E+03  0.49391144172E+03 -0.14513529505E+04  0.15938253654E+04  0.40000000000E+03 0.  1.
   -9000007    1    1    2    0  502  0.17293176691E+03 -0.49391144172E+03 -0.63093084340E+02  0.66169074768E+03  0.40000000000E+03 0. -1.
<mgrwt>
<rscale>  2 0.65867587E+03</rscale>
<asrwt>0</asrwt>
<pdfrwt beam="1">  1       21 0.57005390E-01 0.65867587E+03</pdfrwt>
<pdfrwt beam="2">  1       21 0.28999709E+00 0.65867587E+03</pdfrwt>
<totfact> 0.78159823E+01</totfact>
</mgrwt>
</event>
<event>
 4    1  0.4897983E-002  0.4457724E+03  0.7818608E-02  0.1028990E+00
         21   -1    0    0  501  502  0.00000000000E+00  0.00000000000E+00  0.61250963222E+03  0.61250963222E+03  0.00000000000E+00 0. -1.
         21   -1    0    0  502  503 -0.00000000000E+00 -0.00000000000E+00 -0.32768857509E+03  0.32768857509E+03  0.00000000000E+00 0. -1.
    9000007    1    1    2  501    0  0.17801770919E+03 -0.83801825311E+02  0.18932940286E+03  0.48431257830E+03  0.40000000000E+03 0. -1.
   -9000007    1    1    2    0  503 -0.17801770919E+03  0.83801825311E+02  0.95491654273E+02  0.45588562902E+03  0.40000000000E+03 0. -1.
<mgrwt>
<rscale>  2 0.44577242E+03</rscale>
<asrwt>0</asrwt>
<pdfrwt beam="1">  1       21 0.94232251E-01 0.44577242E+03</pdfrwt>
<pdfrwt beam="2">  1       21 0.50413627E-01 0.44577242E+03</pdfrwt>
<totfact> 0.30823889E+03</totfact>
</mgrwt>
</event>
<event>
 4    1  0.4897983E-002  0.5088168E+03  0.7818608E-02  0.1011503E+00
         21   -1    0    0  501  502  0.00000000000E+00  0.00000000000E+00  0.14469462090E+04  0.14469462090E+04  0.00000000000E+00 0.  1.
         21   -1    0    0  502  503 -0.00000000000E+00 -0.00000000000E+00 -0.34331968479E+03  0.34331968479E+03  0.00000000000E+00 0. -1.
    9000007    1    1    2  501    0 -0.29874605712E+03  0.98210813047E+02  0.11712291365E+04  0.12769777840E+04  0.40000000000E+03 0.  1.
   -9000007    1    1    2    0  503  0.29874605712E+03 -0.98210813047E+02 -0.67602612372E+02  0.51328810978E+03  0.40000000000E+03 0. -1.
<mgrwt>
<rscale>  2 0.50881683E+03</rscale>
<asrwt>0</asrwt>
<pdfrwt beam="1">  1       21 0.22260711E+00 0.50881683E+03</pdfrwt>
<pdfrwt beam="2">  1       21 0.52818414E-01 0.50881683E+03</pdfrwt>
<totfact> 0.25829343E+02</totfact>
</mgrwt>
</event>
<event>
 4    1  0.4897983E-002  0.4423811E+03  0.7818608E-02  0.1030019E+00
         21   -1    0    0  501  502  0.00000000000E+00  0.00000000000E+00  0.12809534477E+03  0.12809534477E+03  0.00000000000E+00 0. -1.
         21   -1    0    0  502  503 -0.00000000000E+00 -0.00000000000E+00 -0.17323989726E+04  0.17323989726E+04  0.00000000000E+00 0. -1.
    9000007    1    1    2  501    0  0.16049593569E+03 -0.99710157239E+02 -0.48244563495E+03  0.65456462745E+03  0.40000000000E+03 0. -1.
   -9000007    1    1    2    0  503 -0.16049593569E+03  0.99710157239E+02 -0.11218579929E+04  0.12059296899E+04  0.40000000000E+03 0. -1.
<mgrwt>
<rscale>  2 0.44238113E+03</rscale>
<asrwt>0</asrwt>
<pdfrwt beam="1">  1       21 0.19706977E-01 0.44238113E+03</pdfrwt>
<pdfrwt beam="2">  1       21 0.26652291E+00 0.44238113E+03</pdfrwt>
<totfact> 0.10366942E+03</totfact>
</mgrwt>
</event>
<event>
 4    1  0.4897983E-002  0.5494887E+03  0.7818608E-02  0.1001612E+00
         21   -1    0    0  501  502  0.00000000000E+00  0.00000000000E+00  0.35611109952E+03  0.35611109952E+03  0.00000000000E+00 0. -1.
         21   -1    0    0  502  503 -0.00000000000E+00 -0.00000000000E+00 -0.85932406477E+03  0.85932406477E+03  0.00000000000E+00 0. -1.
    9000007    1    1    2  501    0  0.28783974774E+03 -0.24307630061E+03 -0.18146055340E+03  0.57867585118E+03  0.40000000000E+03 0. -1.
   -9000007    1    1    2    0  503 -0.28783974774E+03  0.24307630061E+03 -0.32175241185E+03  0.63675931311E+03  0.40000000000E+03 0. -1.
<mgrwt>
<rscale>  2 0.54948868E+03</rscale>
<asrwt>0</asrwt>
<pdfrwt beam="1">  1       21 0.54786324E-01 0.54948868E+03</pdfrwt>
<pdfrwt beam="2">  1       21 0.13220370E+00 0.54948868E+03</pdfrwt>
<totfact> 0.10657421E+03</totfact>
</mgrwt>
</event>
<event>
 4    1  0.4897983E-002  0.4225796E+03  0.7818608E-02  0.1036230E+00
         21   -1    0    0  501  502  0.00000000000E+00  0.00000000000E+00  0.40460019775E+03  0.40460019775E+03  0.00000000000E+00 0.  1.
         21   -1    0    0  502  503 -0.00000000000E+00 -0.00000000000E+00 -0.10681670366E+04  0.10681670366E+04  0.00000000000E+00 0.  1.
    9000007    1    1    2  501    0  0.38814278208E+02  0.13064066267E+03  0.23231146240E+03  0.48222623995E+03  0.40000000000E+03 0.  1.
   -9000007    1    1    2    0  503 -0.38814278208E+02 -0.13064066267E+03 -0.89587830122E+03  0.99054099437E+03  0.40000000000E+03 0.  1.
<mgrwt>
<rscale>  2 0.42257961E+03</rscale>
<asrwt>0</asrwt>
<pdfrwt beam="1">  1       21 0.62246186E-01 0.42257961E+03</pdfrwt>
<pdfrwt beam="2">  1       21 0.16433339E+00 0.42257961E+03</pdfrwt>
<totfact> 0.47110198E+02</totfact>
</mgrwt>
</event>
<event>
 4    1  0.4897983E-002  0.4575290E+03  0.7818608E-02  0.1025500E+00
         21   -1    0    0  501  502  0.00000000000E+00  0.00000000000E+00  0.51459649435E+03  0.51459649435E+03  0.00000000000E+00 0. -1.
         21   -1    0    0  502  503 -0.00000000000E+00 -0.00000000000E+00 -0.41967635208E+03  0.41967635208E+03  0.00000000000E+00 0. -1.
    9000007    1    1    2  501    0 -0.22179266245E+03 -0.11867719230E+02  0.12931551182E+03  0.47545276261E+03  0.40000000000E+03 0. -1.
   -9000007    1    1    2    0  503  0.22179266245E+03  0.11867719230E+02 -0.34395369541E+02  0.45882008382E+03  0.40000000000E+03 0. -1.
<mgrwt>
<rscale>  2 0.45752905E+03</rscale>
<asrwt>0</asrwt>
<pdfrwt beam="1">  1       21 0.79168691E-01 0.45752905E+03</pdfrwt>
<pdfrwt beam="2">  1       21 0.64565593E-01 0.45752905E+03</pdfrwt>
<totfact> 0.26987682E+03</totfact>
</mgrwt>
</event>
<event>
 4    1  0.4897983E-002  0.6528006E+03  0.7818608E-02  0.9801538E-01
         21   -1    0    0  501  502  0.00000000000E+00  0.00000000000E+00  0.29411911452E+03  0.29411911452E+03  0.00000000000E+00 0. -1.
         21   -1    0    0  502  503 -0.00000000000E+00 -0.00000000000E+00 -0.18349016555E+04  0.18349016555E+04  0.00000000000E+00 0.  1.
    9000007    1    1    2  501    0 -0.47227077038E+03  0.20762703061E+03 -0.28214482995E+03  0.71116409461E+03  0.40000000000E+03 0. -1.
   -9000007    1    1    2    0  503  0.47227077038E+03 -0.20762703061E+03 -0.12586377110E+04  0.14178566754E+04  0.40000000000E+03 0. -1.
<mgrwt>
<rscale>  2 0.65280063E+03</rscale>
<asrwt>0</asrwt>
<pdfrwt beam="1">  1       21 0.45249094E-01 0.65280063E+03</pdfrwt>
<pdfrwt beam="2">  1       21 0.28229257E+00 0.65280063E+03</pdfrwt>
<totfact> 0.14350052E+02</totfact>
</mgrwt>
</event>
<event>
 4    1  0.4897983E-002  0.4230859E+03  0.7818608E-02  0.1036067E+00
         21   -1    0    0  503  502  0.00000000000E+00  0.00000000000E+00  0.14697476823E+04  0.14697476823E+04  0.00000000000E+00 0.  1.
         21   -1    0    0  501  503 -0.00000000000E+00 -0.00000000000E+00 -0.14024929228E+03  0.14024929228E+03  0.00000000000E+00 0.  1.
    9000007    1    1    2  501    0  0.13191469983E+03  0.40002090795E+02  0.37270837221E+03  0.56383790757E+03  0.40000000000E+03 0.  1.
   -9000007    1    1    2    0  502 -0.13191469983E+03 -0.40002090795E+02  0.95679001779E+03  0.10461590670E+04  0.40000000000E+03 0.  1.
<mgrwt>
<rscale>  2 0.42308587E+03</rscale>
<asrwt>0</asrwt>
<pdfrwt beam="1">  1       21 0.22611502E+00 0.42308587E+03</pdfrwt>
<pdfrwt beam="2">  1       21 0.21576815E-01 0.42308587E+03</pdfrwt>
<totfact> 0.15625290E+03</totfact>
</mgrwt>
</event>
<event>
 4    1  0.4897983E-002  0.6456549E+03  0.7818608E-02  0.9814967E-01
         21   -1    0    0  503  502  0.00000000000E+00  0.00000000000E+00  0.12942822815E+04  0.12942822815E+04  0.00000000000E+00 0.  1.
         21   -1    0    0  501  503 -0.00000000000E+00 -0.00000000000E+00 -0.32296702169E+03  0.32296702169E+03  0.00000000000E+00 0. -1.
    9000007    1    1    2  501    0  0.34712057421E+03  0.36929332511E+03  0.44342465745E+03  0.78325965033E+03  0.40000000000E+03 0.  1.
   -9000007    1    1    2    0  502 -0.34712057421E+03 -0.36929332511E+03  0.52789060237E+03  0.83398965286E+03  0.40000000000E+03 0. -1.
<mgrwt>
<rscale>  2 0.64565490E+03</rscale>
<asrwt>0</asrwt>
<pdfrwt beam="1">  1       21 0.19912035E+00 0.64565490E+03</pdfrwt>
<pdfrwt beam="2">  1       21 0.49687235E-01 0.64565490E+03</pdfrwt>
<totfact> 0.39809095E+02</totfact>
</mgrwt>
</event>
<event>
 4    1  0.4897983E-002  0.4006705E+03  0.7818608E-02  0.1043548E+00
         21   -1    0    0  503  502  0.00000000000E+00  0.00000000000E+00  0.36709642200E+03  0.36709642200E+03  0.00000000000E+00 0. -1.
         21   -1    0    0  501  503 -0.00000000000E+00 -0.00000000000E+00 -0.48677294132E+03  0.48677294132E+03  0.00000000000E+00 0. -1.
    9000007    1    1    2  501    0 -0.14026401299E+02  0.18443128647E+02 -0.19592469487E+03  0.44600826785E+03  0.40000000000E+03 0. -1.
   -9000007    1    1    2    0  502  0.14026401299E+02 -0.18443128647E+02  0.76248175556E+02  0.40786109548E+03  0.40000000000E+03 0. -1.
<mgrwt>
<rscale>  2 0.40067055E+03</rscale>
<asrwt>0</asrwt>
<pdfrwt beam="1">  1       21 0.56476373E-01 0.40067055E+03</pdfrwt>
<pdfrwt beam="2">  1       21 0.74888144E-01 0.40067055E+03</pdfrwt>
<totfact> 0.41967075E+03</totfact>
</mgrwt>
</event>
<event>
 4    1  0.4897983E-002  0.4003201E+03  0.7818608E-02  0.1043669E+00
         21   -1    0    0  501  502  0.00000000000E+00  0.00000000000E+00  0.12466197936E+03  0.12466197936E+03  0.00000000000E+00 0. -1.
         21   -1    0    0  502  503 -0.00000000000E+00 -0.00000000000E+00 -0.12912801595E+04  0.12912801595E+04  0.00000000000E+00 0. -1.
    9000007    1    1    2  501    0 -0.98888363404E+01  0.12584303508E+02 -0.53604677837E+03  0.66903086803E+03  0.40000000000E+03 0. -1.
   -9000007    1    1    2    0  503  0.98888363404E+01 -0.12584303508E+02 -0.63057140181E+03  0.74691127087E+03  0.40000000000E+03 0. -1.
<mgrwt>
<rscale>  2 0.40032006E+03</rscale>
<asrwt>0</asrwt>
<pdfrwt beam="1">  1       21 0.19178766E-01 0.40032006E+03</pdfrwt>
<pdfrwt beam="2">  1       21 0.19865848E+00 0.40032006E+03</pdfrwt>
<totfact> 0.29755463E+03</totfact>
</mgrwt>
</event>
<event>
 4    1  0.4897983E-002  0.4086227E+03  0.7818608E-02  0.1040834E+00
         21   -1    0    0  501  502  0.00000000000E+00  0.00000000000E+00  0.76057455959E+03  0.76057455959E+03  0.00000000000E+00 0. -1.
         21   -1    0    0  502  503 -0.00000000000E+00 -0.00000000000E+00 -0.48085321699E+03  0.48085321699E+03  0.00000000000E+00 0. -1.
    9000007    1    1    2  501    0  0.17374566332E+02  0.81674113223E+02  0.59744407135E+03  0.72381762531E+03  0.40000000000E+03 0. -1.
   -9000007    1    1    2    0  503 -0.17374566332E+02 -0.81674113223E+02 -0.31772272876E+03  0.51761015127E+03  0.40000000000E+03 0. -1.
<mgrwt>
<rscale>  2 0.40862273E+03</rscale>
<asrwt>0</asrwt>
<pdfrwt beam="1">  1       21 0.11701147E+00 0.40862273E+03</pdfrwt>
<pdfrwt beam="2">  1       21 0.73977418E-01 0.40862273E+03</pdfrwt>
<totfact> 0.79261285E+02</totfact>
</mgrwt>
</event>
<event>
 4    1  0.4897983E-002  0.4518648E+03  0.7818608E-02  0.1027167E+00
         21   -1    0    0  501  502  0.00000000000E+00  0.00000000000E+00  0.11213770992E+04  0.11213770992E+04  0.00000000000E+00 0.  1.
         21   -1    0    0  502  503 -0.00000000000E+00 -0.00000000000E+00 -0.27161495400E+03  0.27161495400E+03  0.00000000000E+00 0.  1.
    9000007    1    1    2  501    0 -0.18551481948E+03  0.98823302071E+02  0.82476594387E+03  0.94043641754E+03  0.40000000000E+03 0.  1.
   -9000007    1    1    2    0  503  0.18551481948E+03 -0.98823302071E+02  0.24996201330E+02  0.45255563565E+03  0.40000000000E+03 0.  1.
<mgrwt>
<rscale>  2 0.45186480E+03</rscale>
<asrwt>0</asrwt>
<pdfrwt beam="1">  1       21 0.17251955E+00 0.45186480E+03</pdfrwt>
<pdfrwt beam="2">  1       21 0.41786917E-01 0.45186480E+03</pdfrwt>
<totfact> 0.94768567E+02</totfact>
</mgrwt>
</event>
<event>
 4    1  0.4897983E-002  0.4419043E+03  0.7818608E-02  0.1030164E+00
         21   -1    0    0  501  502  0.00000000000E+00  0.00000000000E+00  0.39059371668E+03  0.39059371668E+03  0.00000000000E+00 0.  1.
         21   -1    0    0  502  503 -0.00000000000E+00 -0.00000000000E+00 -0.50007604459E+03  0.50007604459E+03  0.00000000000E+00 0.  1.
    9000007    1    1    2  501    0 -0.14710164715E+03 -0.11679278412E+03 -0.47824905907E+02  0.44448472487E+03  0.40000000000E+03 0.  1.
   -9000007    1    1    2    0  503  0.14710164715E+03  0.11679278412E+03 -0.61657422001E+02  0.44618503640E+03  0.40000000000E+03 0.  1.
<mgrwt>
<rscale>  2 0.44190434E+03</rscale>
<asrwt>0</asrwt>
<pdfrwt beam="1">  1       21 0.60091341E-01 0.44190434E+03</pdfrwt>
<pdfrwt beam="2">  1       21 0.76934776E-01 0.44190434E+03</pdfrwt>
<totfact> 0.33957996E+03</totfact>
</mgrwt>
</event>
<event>
 4    1  0.4897983E-002  0.4631177E+03  0.7818608E-02  0.1023881E+00
         21   -1    0    0  503  502  0.00000000000E+00  0.00000000000E+00  0.13493447541E+03  0.13493447541E+03  0.00000000000E+00 0. -1.
         21   -1    0    0  501  503 -0.00000000000E+00 -0.00000000000E+00 -0.15951743356E+04  0.15951743356E+04  0.00000000000E+00 0.  1.
    9000007    1    1    2  501    0  0.23248084696E+03  0.20751438890E+02 -0.67851333151E+03  0.82149760040E+03  0.40000000000E+03 0.  1.
   -9000007    1    1    2    0  502 -0.23248084696E+03 -0.20751438890E+02 -0.78172652873E+03  0.90861121066E+03  0.40000000000E+03 0. -1.
<mgrwt>
<rscale>  2 0.46311766E+03</rscale>
<asrwt>0</asrwt>
<pdfrwt beam="1">  1       21 0.20759151E-01 0.46311766E+03</pdfrwt>
<pdfrwt beam="2">  1       21 0.24541143E+00 0.46311766E+03</pdfrwt>
<totfact> 0.12508801E+03</totfact>
</mgrwt>
</event>
<event>
 4    1  0.4897983E-002  0.4146997E+03  0.7818608E-02  0.1038805E+00
         21   -1    0    0  503  502  0.00000000000E+00  0.00000000000E+00  0.19967048592E+04  0.19967048592E+04  0.00000000000E+00 0. -1.
         21   -1    0    0  501  503 -0.00000000000E+00 -0.00000000000E+00 -0.93929302925E+02  0.93929302925E+02  0.00000000000E+00 0. -1.
    9000007    1    1    2  501    0 -0.79714181221E+02 -0.74976821121E+02  0.65017056518E+03  0.77116641409E+03  0.40000000000E+03 0. -1.
   -9000007    1    1    2    0  502  0.79714181221E+02  0.74976821121E+02  0.12526049911E+04  0.13194677481E+04  0.40000000000E+03 0. -1.
<mgrwt>
<rscale>  2 0.41469974E+03</rscale>
<asrwt>0</asrwt>
<pdfrwt beam="1">  1       21 0.30718533E+00 0.41469974E+03</pdfrwt>
<pdfrwt beam="2">  1       21 0.14450663E-01 0.41469974E+03</pdfrwt>
<totfact> 0.10714967E+03</totfact>
</mgrwt>
</event>
<event>
 4    1  0.4897983E-002  0.4268285E+03  0.7818608E-02  0.1034867E+00
         21   -1    0    0  503  502  0.00000000000E+00  0.00000000000E+00  0.84175210711E+03  0.84175210711E+03  0.00000000000E+00 0.  1.
         21   -1    0    0  501  503 -0.00000000000E+00 -0.00000000000E+00 -0.10082470487E+04  0.10082470487E+04  0.00000000000E+00 0. -1.
    9000007    1    1    2  501    0  0.11832155405E+03  0.90457475847E+02 -0.90297549553E+03  0.99877289242E+03  0.40000000000E+03 0. -1.
   -9000007    1    1    2    0  502 -0.11832155405E+03 -0.90457475847E+02  0.73648055397E+03  0.85122626338E+03  0.40000000000E+03 0.  1.
<mgrwt>
<rscale>  2 0.42682847E+03</rscale>
<asrwt>0</asrwt>
<pdfrwt beam="1">  1       21 0.12950032E+00 0.42682847E+03</pdfrwt>
<pdfrwt beam="2">  1       21 0.15511493E+00 0.42682847E+03</pdfrwt>
<totfact> 0.96875864E+01</totfact>
</mgrwt>
</event>
<event>
 4    1  0.4897983E-002  0.4172983E+03  0.7818608E-02  0.1037949E+00
         21   -1    0    0  501  502  0.00000000000E+00  0.00000000000E+00  0.16176950761E+03  0.16176950761E+03  0.00000000000E+00 0.  1.
         21   -1    0    0  502  503 -0.00000000000E+00 -0.00000000000E+00 -0.14600184150E+04  0.14600184150E+04  0.00000000000E+00 0.  1.
    9000007    1    1    2  501    0 -0.24428191615E+02 -0.11636649375E+03 -0.23349871874E+03  0.47818359347E+03  0.40000000000E+03 0.  1.
   -9000007    1    1    2    0  503  0.24428191615E+02  0.11636649375E+03 -0.10647501887E+04  0.11436043292E+04  0.40000000000E+03 0.  1.
<mgrwt>
<rscale>  2 0.41729833E+03</rscale>
<asrwt>0</asrwt>
<pdfrwt beam="1">  1       21 0.24887617E-01 0.41729833E+03</pdfrwt>
<pdfrwt beam="2">  1       21 0.22461822E+00 0.41729833E+03</pdfrwt>
<totfact> 0.12161101E+03</totfact>
</mgrwt>
</event>
<event>
 4    1  0.4897983E-002  0.4110962E+03  0.7818608E-02  0.1040004E+00
         21   -1    0    0  501  502  0.00000000000E+00  0.00000000000E+00  0.35086243024E+03  0.35086243024E+03  0.00000000000E+00 0.  1.
         21   -1    0    0  502  503 -0.00000000000E+00 -0.00000000000E+00 -0.51403409272E+03  0.51403409272E+03  0.00000000000E+00 0.  1.
    9000007    1    1    2  501    0 -0.48734963996E+02  0.81394247745E+02  0.26923185703E+02  0.41197691466E+03  0.40000000000E+03 0.  1.
   -9000007    1    1    2    0  503  0.48734963996E+02 -0.81394247745E+02 -0.19009484818E+03  0.45291960830E+03  0.40000000000E+03 0.  1.
<mgrwt>
<rscale>  2 0.41109624E+03</rscale>
<asrwt>0</asrwt>
<pdfrwt beam="1">  1       21 0.53978836E-01 0.41109624E+03</pdfrwt>
<pdfrwt beam="2">  1       21 0.79082168E-01 0.41109624E+03</pdfrwt>
<totfact> 0.40681455E+03</totfact>
</mgrwt>
</event>
<event>
 4    1  0.4897983E-002  0.5501369E+03  0.7818608E-02  0.1001462E+00
         21   -1    0    0  501  502  0.00000000000E+00  0.00000000000E+00  0.65737610671E+03  0.65737610671E+03  0.00000000000E+00 0. -1.
         21   -1    0    0  502  503 -0.00000000000E+00 -0.00000000000E+00 -0.48616619153E+03  0.48616619153E+03  0.00000000000E+00 0.  1.
    9000007    1    1    2  501    0 -0.19215529823E+03  0.32515685138E+03 -0.46045752206E+02  0.55206054734E+03  0.40000000000E+03 0. -1.
   -9000007    1    1    2    0  503  0.19215529823E+03 -0.32515685138E+03  0.21725566739E+03  0.59148175090E+03  0.40000000000E+03 0.  1.
<mgrwt>
<rscale>  2 0.55013693E+03</rscale>
<asrwt>0</asrwt>
<pdfrwt beam="1">  1       21 0.10113479E+00 0.55013693E+03</pdfrwt>
<pdfrwt beam="2">  1       21 0.74794798E-01 0.55013693E+03</pdfrwt>
<totfact> 0.10495324E+03</totfact>
</mgrwt>
</event>
<event>
 4    1  0.4897983E-002  0.4508750E+03  0.7818608E-02  0.1027461E+00
         21   -1    0    0  501  502  0.00000000000E+00  0.00000000000E+00  0.18200514381E+03  0.18200514381E+03  0.00000000000E+00 0.  1.
         21   -1    0    0  502  503 -0.00000000000E+00 -0.00000000000E+00 -0.11188550327E+04  0.11188550327E+04  0.00000000000E+00 0.  1.
    9000007    1    1    2  501    0 -0.49314221583E+02 -0.20212953081E+03 -0.44149308299E+03  0.63103437466E+03  0.40000000000E+03 0.  1.
   -9000007    1    1    2    0  503  0.49314221583E+02  0.20212953081E+03 -0.49535680594E+03  0.66982580188E+03  0.40000000000E+03 0.  1.
<mgrwt>
<rscale>  2 0.45087497E+03</rscale>
<asrwt>0</asrwt>
<pdfrwt beam="1">  1       21 0.28000792E-01 0.45087497E+03</pdfrwt>
<pdfrwt beam="2">  1       21 0.17213154E+00 0.45087497E+03</pdfrwt>
<totfact> 0.21418154E+03</totfact>
</mgrwt>
</event>
<event>
 4    1  0.4897983E-002  0.6720292E+03  0.7818608E-02  0.9766299E-01
         21   -1    0    0  501  502  0.00000000000E+00  0.00000000000E+00  0.92912857505E+03  0.92912857505E+03  0.00000000000E+00 0. -1.
         21   -1    0    0  502  503 -0.00000000000E+00 -0.00000000000E+00 -0.10546245549E+04  0.10546245549E+04  0.00000000000E+00 0.  1.
    9000007    1    1    2  501    0  0.39811496744E+03 -0.36486680074E+03  0.66552470709E+03  0.94580465495E+03  0.40000000000E+03 0. -1.
   -9000007    1    1    2    0  503 -0.39811496744E+03  0.36486680074E+03 -0.79102068693E+03  0.10379484750E+04  0.40000000000E+03 0.  1.
<mgrwt>
<rscale>  2 0.67202925E+03</rscale>
<asrwt>0</asrwt>
<pdfrwt beam="1">  1       21 0.14294286E+00 0.67202925E+03</pdfrwt>
<pdfrwt beam="2">  1       21 0.16224993E+00 0.67202925E+03</pdfrwt>
<totfact> 0.58586810E+01</totfact>
</mgrwt>
</event>
<event>
 4    1  0.4897983E-002  0.4042623E+03  0.7818608E-02  0.1042314E+00
         21   -1    0    0  503  502  0.00000000000E+00  0.00000000000E+00  0.65403885427E+03  0.65403885427E+03  0.00000000000E+00 0.  1.
         21   -1    0    0  501  503 -0.00000000000E+00 -0.00000000000E+00 -0.33718660998E+03  0.33718660998E+03  0.00000000000E+00 0.  1.
    9000007    1    1    2  501    0 -0.47390907290E+02 -0.34381917676E+02  0.41062496020E+03  0.57622987800E+03  0.40000000000E+03 0.  1.
   -9000007    1    1    2    0  502  0.47390907290E+02  0.34381917676E+02 -0.93772715914E+02  0.41499558625E+03  0.40000000000E+03 0.  1.
<mgrwt>
<rscale>  2 0.40426231E+03</rscale>
<asrwt>0</asrwt>
<pdfrwt beam="1">  1       21 0.10062136E+00 0.40426231E+03</pdfrwt>
<pdfrwt beam="2">  1       21 0.51874863E-01 0.40426231E+03</pdfrwt>
<totfact> 0.25161108E+03</totfact>
</mgrwt>
</event>
<event>
 4    1  0.4897983E-002  0.4020376E+03  0.7818608E-02  0.1043076E+00
         21   -1    0    0  501  502  0.00000000000E+00  0.00000000000E+00  0.93513278400E+03  0.93513278400E+03  0.00000000000E+00 0.  1.
         21   -1    0    0  502  503 -0.00000000000E+00 -0.00000000000E+00 -0.30505002680E+03  0.30505002680E+03  0.00000000000E+00 0.  1.
    9000007    1    1    2  501    0  0.11457240862E+02  0.38767847945E+02  0.72325930773E+03  0.82748911813E+03  0.40000000000E+03 0.  1.
   -9000007    1    1    2    0  503 -0.11457240862E+02 -0.38767847945E+02 -0.93176550530E+02  0.41269369267E+03  0.40000000000E+03 0.  1.
<mgrwt>
<rscale>  2 0.40203758E+03</rscale>
<asrwt>0</asrwt>
<pdfrwt beam="1">  1       21 0.14386658E+00 0.40203758E+03</pdfrwt>
<pdfrwt beam="2">  1       21 0.46930774E-01 0.40203758E+03</pdfrwt>
<totfact> 0.12566158E+03</totfact>
</mgrwt>
</event>
<event>
 4    1  0.4897983E-002  0.4699055E+03  0.7818608E-02  0.1021947E+00
         21   -1    0    0  501  502  0.00000000000E+00  0.00000000000E+00  0.55651631263E+03  0.55651631263E+03  0.00000000000E+00 0. -1.
         21   -1    0    0  502  503 -0.00000000000E+00 -0.00000000000E+00 -0.46863063982E+03  0.46863063982E+03  0.00000000000E+00 0. -1.
    9000007    1    1    2  501    0 -0.79804320035E+02 -0.23332903482E+03  0.24465534275E+03  0.52978052505E+03  0.40000000000E+03 0. -1.
   -9000007    1    1    2    0  503  0.79804320035E+02  0.23332903482E+03 -0.15676966994E+03  0.49536642740E+03  0.40000000000E+03 0. -1.
<mgrwt>
<rscale>  2 0.46990549E+03</rscale>
<asrwt>0</asrwt>
<pdfrwt beam="1">  1       21 0.85617894E-01 0.46990549E+03</pdfrwt>
<pdfrwt beam="2">  1       21 0.72097021E-01 0.46990549E+03</pdfrwt>
<totfact> 0.17483942E+03</totfact>
</mgrwt>
</event>
<event>
 4    1  0.4897983E-002  0.6640213E+03  0.7818608E-02  0.9780819E-01
         21   -1    0    0  501  502  0.00000000000E+00  0.00000000000E+00  0.48791957936E+03  0.48791957936E+03  0.00000000000E+00 0.  1.
         21   -1    0    0  502  503 -0.00000000000E+00 -0.00000000000E+00 -0.95559965033E+03  0.95559965033E+03  0.00000000000E+00 0.  1.
    9000007    1    1    2  501    0  0.47049180222E+03 -0.24405278513E+03 -0.65607202136E+02  0.66725452629E+03  0.40000000000E+03 0.  1.
   -9000007    1    1    2    0  503 -0.47049180222E+03  0.24405278513E+03 -0.40207286883E+03  0.77626470339E+03  0.40000000000E+03 0.  1.
<mgrwt>
<rscale>  2 0.66402131E+03</rscale>
<asrwt>0</asrwt>
<pdfrwt beam="1">  1       21 0.75064551E-01 0.66402131E+03</pdfrwt>
<pdfrwt beam="2">  1       21 0.14701533E+00 0.66402131E+03</pdfrwt>
<totfact> 0.38256776E+02</totfact>
</mgrwt>
</event>
<event>
 4    1  0.4897983E-002  0.4693037E+03  0.7818608E-02  0.1022117E+00
         21   -1    0    0  501  502  0.00000000000E+00  0.00000000000E+00  0.73445559568E+03  0.73445559568E+03  0.00000000000E+00 0. -1.
         21   -1    0    0  502  503 -0.00000000000E+00 -0.00000000000E+00 -0.32531674825E+03  0.32531674825E+03  0.00000000000E+00 0. -1.
    9000007    1    1    2  501    0  0.80060092511E+02  0.23202652757E+03  0.35274976015E+03  0.58709311118E+03  0.40000000000E+03 0. -1.
   -9000007    1    1    2    0  503 -0.80060092511E+02 -0.23202652757E+03  0.56389087270E+02  0.47267923275E+03  0.40000000000E+03 0. -1.
<mgrwt>
<rscale>  2 0.46930366E+03</rscale>
<asrwt>0</asrwt>
<pdfrwt beam="1">  1       21 0.11299317E+00 0.46930366E+03</pdfrwt>
<pdfrwt beam="2">  1       21 0.50048731E-01 0.46930366E+03</pdfrwt>
<totfact> 0.19899320E+03</totfact>
</mgrwt>
</event>
<event>
 4    1  0.4897983E-002  0.4340317E+03  0.7818608E-02  0.1032594E+00
         21   -1    0    0  503  502  0.00000000000E+00  0.00000000000E+00  0.75530088875E+02  0.75530088875E+02  0.00000000000E+00 0.  1.
         21   -1    0    0  501  503 -0.00000000000E+00 -0.00000000000E+00 -0.28655910955E+04  0.28655910955E+04  0.00000000000E+00 0.  1.
    9000007    1    1    2  501    0  0.57964654945E+02 -0.15818852573E+03 -0.19244741100E+04  0.19728112203E+04  0.40000000000E+03 0.  1.
   -9000007    1    1    2    0  502 -0.57964654945E+02  0.15818852573E+03 -0.86558689655E+03  0.96830996399E+03  0.40000000000E+03 0.  1.
<mgrwt>
<rscale>  2 0.43403169E+03</rscale>
<asrwt>0</asrwt>
<pdfrwt beam="1">  1       21 0.11620017E-01 0.43403169E+03</pdfrwt>
<pdfrwt beam="2">  1       21 0.44086004E+00 0.43403169E+03</pdfrwt>
<totfact> 0.22851760E+02</totfact>
</mgrwt>
</event>
<event>
 4    1  0.4897983E-002  0.9228637E+03  0.7818608E-02  0.9397444E-01
         21   -1    0    0  501  502  0.00000000000E+00  0.00000000000E+00  0.11169434976E+04  0.11169434976E+04  0.00000000000E+00 0. -1.
         21   -1    0    0  502  503 -0.00000000000E+00 -0.00000000000E+00 -0.80991282990E+03  0.80991282990E+03  0.00000000000E+00 0.  1.
    9000007    1    1    2  501    0  0.69683951504E+03 -0.45397360136E+03  0.38660104187E+03  0.10005686913E+04  0.40000000000E+03 0. -1.
   -9000007    1    1    2    0  503 -0.69683951504E+03  0.45397360136E+03 -0.79570374198E+02  0.92628763616E+03  0.40000000000E+03 0.  1.
<mgrwt>
<rscale>  2 0.92286366E+03</rscale>
<asrwt>0</asrwt>
<pdfrwt beam="1">  1       21 0.17183746E+00 0.92286366E+03</pdfrwt>
<pdfrwt beam="2">  1       21 0.12460197E+00 0.92286366E+03</pdfrwt>
<totfact> 0.66091663E+01</totfact>
</mgrwt>
</event>
<event>
 4    1  0.4897983E-002  0.4648637E+03  0.7818608E-02  0.1023380E+00
         21   -1    0    0  501  502  0.00000000000E+00  0.00000000000E+00  0.98264287381E+03  0.98264287381E+03  0.00000000000E+00 0. -1.
         21   -1    0    0  502  503 -0.00000000000E+00 -0.00000000000E+00 -0.71069516233E+03  0.71069516233E+03  0.00000000000E+00 0. -1.
    9000007    1    1    2  501    0  0.20204498276E+03  0.12359658312E+03  0.83955682098E+03  0.95966345459E+03  0.40000000000E+03 0. -1.
   -9000007    1    1    2    0  503 -0.20204498276E+03 -0.12359658312E+03 -0.56760910950E+03  0.73367458154E+03  0.40000000000E+03 0. -1.
<mgrwt>
<rscale>  2 0.46486373E+03</rscale>
<asrwt>0</asrwt>
<pdfrwt beam="1">  1       21 0.15117583E+00 0.46486373E+03</pdfrwt>
<pdfrwt beam="2">  1       21 0.10933772E+00 0.46486373E+03</pdfrwt>
<totfact> 0.15623727E+02</totfact>
</mgrwt>
</event>
<event>
 4    1  0.4897983E-002  0.4562661E+03  0.7818608E-02  0.1025870E+00
         21   -1    0    0  501  502  0.00000000000E+00  0.00000000000E+00  0.19286010078E+03  0.19286010078E+03  0.00000000000E+00 0. -1.
         21   -1    0    0  502  503 -0.00000000000E+00 -0.00000000000E+00 -0.10833254746E+04  0.10833254746E+04  0.00000000000E+00 0. -1.
    9000007    1    1    2  501    0  0.16456653606E+02 -0.21887880727E+03 -0.48350189986E+03  0.66479533760E+03  0.40000000000E+03 0. -1.
   -9000007    1    1    2    0  503 -0.16456653606E+02  0.21887880727E+03 -0.40696347395E+03  0.61139023778E+03  0.40000000000E+03 0. -1.
<mgrwt>
<rscale>  2 0.45626610E+03</rscale>
<asrwt>0</asrwt>
<pdfrwt beam="1">  1       21 0.29670785E-01 0.45626610E+03</pdfrwt>
<pdfrwt beam="2">  1       21 0.16666546E+00 0.45626610E+03</pdfrwt>
<totfact> 0.20889331E+03</totfact>
</mgrwt>
</event>
<event>
 4    1  0.4897983E-002  0.5354811E+03  0.7818608E-02  0.1004911E+00
         21   -1    0    0  501  502  0.00000000000E+00  0.00000000000E+00  0.17443044138E+03  0.17443044138E+03  0.00000000000E+00 0.  1.
         21   -1    0    0  502  503 -0.00000000000E+00 -0.00000000000E+00 -0.16450353623E+04  0.16450353623E+04  0.00000000000E+00 0. -1.
    9000007    1    1    2  501    0  0.35449222238E+03  0.32791948857E+02 -0.75957076803E+03  0.92934805067E+03  0.40000000000E+03 0.  1.
   -9000007    1    1    2    0  503 -0.35449222238E+03 -0.32791948857E+02 -0.71103415286E+03  0.89011775298E+03  0.40000000000E+03 0. -1.
<mgrwt>
<rscale>  2 0.53548114E+03</rscale>
<asrwt>0</asrwt>
<pdfrwt beam="1">  1       21 0.26835453E-01 0.53548114E+03</pdfrwt>
<pdfrwt beam="2">  1       21 0.25308236E+00 0.53548114E+03</pdfrwt>
<totfact> 0.66004916E+02</totfact>
</mgrwt>
</event>
<event>
 4    1  0.4897983E-002  0.4885907E+03  0.7818608E-02  0.1016801E+00
         21   -1    0    0  503  502  0.00000000000E+00  0.00000000000E+00  0.86910270041E+03  0.86910270041E+03  0.00000000000E+00 0. -1.
         21   -1    0    0  501  503 -0.00000000000E+00 -0.00000000000E+00 -0.29768351285E+03  0.29768351285E+03  0.00000000000E+00 0. -1.
    9000007    1    1    2  501    0  0.19114564512E+03 -0.20538803708E+03  0.12351854486E+03  0.50396203661E+03  0.40000000000E+03 0. -1.
   -9000007    1    1    2    0  502 -0.19114564512E+03  0.20538803708E+03  0.44790064270E+03  0.66282417665E+03  0.40000000000E+03 0. -1.
<mgrwt>
<rscale>  2 0.48859073E+03</rscale>
<asrwt>0</asrwt>
<pdfrwt beam="1">  1       21 0.13370811E+00 0.48859073E+03</pdfrwt>
<pdfrwt beam="2">  1       21 0.45797464E-01 0.48859073E+03</pdfrwt>
<totfact> 0.15494142E+03</totfact>
</mgrwt>
</event>
<event>
 4    1  0.4897983E-002  0.4890978E+03  0.7818608E-02  0.1016664E+00
         21   -1    0    0  503  502  0.00000000000E+00  0.00000000000E+00  0.75113919323E+03  0.75113919323E+03  0.00000000000E+00 0. -1.
         21   -1    0    0  501  503 -0.00000000000E+00 -0.00000000000E+00 -0.61469407851E+03  0.61469407851E+03  0.00000000000E+00 0. -1.
    9000007    1    1    2  501    0  0.26527207231E+03  0.94060602012E+02 -0.40585240449E+03  0.63555711264E+03  0.40000000000E+03 0. -1.
   -9000007    1    1    2    0  502 -0.26527207231E+03 -0.94060602012E+02  0.54229751922E+03  0.73027615910E+03  0.40000000000E+03 0. -1.
<mgrwt>
<rscale>  2 0.48909781E+03</rscale>
<asrwt>0</asrwt>
<pdfrwt beam="1">  1       21 0.11555988E+00 0.48909781E+03</pdfrwt>
<pdfrwt beam="2">  1       21 0.94568320E-01 0.48909781E+03</pdfrwt>
<totfact> 0.44492730E+02</totfact>
</mgrwt>
</event>
<event>
 4    1  0.4897983E-002  0.4363512E+03  0.7818608E-02  0.1031872E+00
         21   -1    0    0  501  502  0.00000000000E+00  0.00000000000E+00  0.56291586285E+03  0.56291586285E+03  0.00000000000E+00 0. -1.
         21   -1    0    0  502  503 -0.00000000000E+00 -0.00000000000E+00 -0.39616958130E+03  0.39616958130E+03  0.00000000000E+00 0. -1.
    9000007    1    1    2  501    0 -0.16018071433E+03  0.68880447533E+02  0.26674196894E+03  0.51142316655E+03  0.40000000000E+03 0. -1.
   -9000007    1    1    2    0  503  0.16018071433E+03 -0.68880447533E+02 -0.99995687385E+02  0.44766227761E+03  0.40000000000E+03 0. -1.
<mgrwt>
<rscale>  2 0.43635121E+03</rscale>
<asrwt>0</asrwt>
<pdfrwt beam="1">  1       21 0.86602440E-01 0.43635121E+03</pdfrwt>
<pdfrwt beam="2">  1       21 0.60949166E-01 0.43635121E+03</pdfrwt>
<totfact> 0.25067623E+03</totfact>
</mgrwt>
</event>
<event>
 4    1  0.4897983E-002  0.4271924E+03  0.7818608E-02  0.1034751E+00
         21   -1    0    0  503  502  0.00000000000E+00  0.00000000000E+00  0.28225974125E+03  0.28225974125E+03  0.00000000000E+00 0. -1.
         21   -1    0    0  501  503 -0.00000000000E+00 -0.00000000000E+00 -0.89316193125E+03  0.89316193125E+03  0.00000000000E+00 0. -1.
    9000007    1    1    2  501    0  0.14925166713E+03  0.14740022989E+02 -0.61427503847E+03  0.74821597905E+03  0.40000000000E+03 0. -1.
   -9000007    1    1    2    0  502 -0.14925166713E+03 -0.14740022989E+02  0.33728484696E+01  0.42720569346E+03  0.40000000000E+03 0. -1.
<mgrwt>
<rscale>  2 0.42719238E+03</rscale>
<asrwt>0</asrwt>
<pdfrwt beam="1">  1       21 0.43424577E-01 0.42719238E+03</pdfrwt>
<pdfrwt beam="2">  1       21 0.13740952E+00 0.42719238E+03</pdfrwt>
<totfact> 0.16516379E+03</totfact>
</mgrwt>
</event>
<event>
 4    1  0.4897983E-002  0.7332305E+03  0.7818608E-02  0.9662033E-01
         21   -1    0    0  501  502  0.00000000000E+00  0.00000000000E+00  0.88561481534E+03  0.88561481534E+03  0.00000000000E+00 0. -1.
         21   -1    0    0  502  503 -0.00000000000E+00 -0.00000000000E+00 -0.66834098856E+03  0.66834098856E+03  0.00000000000E+00 0.  1.
    9000007    1    1    2  501    0 -0.32360124238E+03  0.52240706009E+03  0.34389806024E+03  0.80987207406E+03  0.40000000000E+03 0. -1.
   -9000007    1    1    2    0  503  0.32360124238E+03 -0.52240706009E+03 -0.12662423346E+03  0.74408372984E+03  0.40000000000E+03 0.  1.
<mgrwt>
<rscale>  2 0.73323046E+03</rscale>
<asrwt>0</asrwt>
<pdfrwt beam="1">  1       21 0.13624843E+00 0.73323046E+03</pdfrwt>
<pdfrwt beam="2">  1       21 0.10282169E+00 0.73323046E+03</pdfrwt>
<totfact> 0.21736244E+02</totfact>
</mgrwt>
</event>
<event>
 4    1  0.4897983E-002  0.4459567E+03  0.7818608E-02  0.1028935E+00
         21   -1    0    0  503  502  0.00000000000E+00  0.00000000000E+00  0.14649559655E+04  0.14649559655E+04  0.00000000000E+00 0. -1.
         21   -1    0    0  501  503 -0.00000000000E+00 -0.00000000000E+00 -0.15374730217E+03  0.15374730217E+03  0.00000000000E+00 0. -1.
    9000007    1    1    2  501    0 -0.19635738102E+03 -0.17920550739E+02  0.93246302251E+03  0.10336172674E+04  0.40000000000E+03 0. -1.
   -9000007    1    1    2    0  502  0.19635738102E+03  0.17920550739E+02  0.37874564086E+03  0.58508600025E+03  0.40000000000E+03 0. -1.
<mgrwt>
<rscale>  2 0.44595669E+03</rscale>
<asrwt>0</asrwt>
<pdfrwt beam="1">  1       21 0.22537783E+00 0.44595669E+03</pdfrwt>
<pdfrwt beam="2">  1       21 0.23653432E-01 0.44595669E+03</pdfrwt>
<totfact> 0.13090195E+03</totfact>
</mgrwt>
</event>
<event>
 4    1  0.4897983E-002  0.6256068E+03  0.7818608E-02  0.9853660E-01
         21   -1    0    0  501  502  0.00000000000E+00  0.00000000000E+00  0.45519622857E+03  0.45519622857E+03  0.00000000000E+00 0.  1.
         21   -1    0    0  502  503 -0.00000000000E+00 -0.00000000000E+00 -0.89636248745E+03  0.89636248745E+03  0.00000000000E+00 0. -1.
    9000007    1    1    2  501    0 -0.46143709572E+03 -0.13586617935E+03 -0.84124369917E+02  0.63123745264E+03  0.40000000000E+03 0.  1.
   -9000007    1    1    2    0  503  0.46143709572E+03  0.13586617935E+03 -0.35704188896E+03  0.72032126338E+03  0.40000000000E+03 0. -1.
<mgrwt>
<rscale>  2 0.62560676E+03</rscale>
<asrwt>0</asrwt>
<pdfrwt beam="1">  1       21 0.70030189E-01 0.62560676E+03</pdfrwt>
<pdfrwt beam="2">  1       21 0.13790192E+00 0.62560676E+03</pdfrwt>
<totfact> 0.53955293E+02</totfact>
</mgrwt>
</event>
<event>
 4    1  0.4897983E-002  0.4764097E+03  0.7818608E-02  0.1020127E+00
         21   -1    0    0  503  502  0.00000000000E+00  0.00000000000E+00  0.15084513627E+04  0.15084513627E+04  0.00000000000E+00 0.  1.
         21   -1    0    0  501  503 -0.00000000000E+00 -0.00000000000E+00 -0.19464146926E+03  0.19464146926E+03  0.00000000000E+00 0.  1.
    9000007    1    1    2  501    0 -0.23197610909E+03 -0.11468798473E+03  0.25121378974E+03  0.53858575658E+03  0.40000000000E+03 0.  1.
   -9000007    1    1    2    0  502  0.23197610909E+03  0.11468798473E+03  0.10625961037E+04  0.11645070754E+04  0.40000000000E+03 0.  1.
<mgrwt>
<rscale>  2 0.47640975E+03</rscale>
<asrwt>0</asrwt>
<pdfrwt beam="1">  1       21 0.23206943E+00 0.47640975E+03</pdfrwt>
<pdfrwt beam="2">  1       21 0.29944842E-01 0.47640975E+03</pdfrwt>
<totfact> 0.73727719E+02</totfact>
</mgrwt>
</event>
<event>
 4    1  0.4897983E-002  0.4524623E+03  0.7818608E-02  0.1026990E+00
         21   -1    0    0  503  502  0.00000000000E+00  0.00000000000E+00  0.42896025181E+03  0.42896025181E+03  0.00000000000E+00 0. -1.
         21   -1    0    0  501  503 -0.00000000000E+00 -0.00000000000E+00 -0.50427120356E+03  0.50427120356E+03  0.00000000000E+00 0.  1.
    9000007    1    1    2  501    0 -0.10990214725E+03  0.18067561092E+03 -0.14566528059E+03  0.47533202324E+03  0.40000000000E+03 0. -1.
   -9000007    1    1    2    0  502  0.10990214725E+03 -0.18067561092E+03  0.70354328845E+02  0.45789943212E+03  0.40000000000E+03 0. -1.
<mgrwt>
<rscale>  2 0.45246233E+03</rscale>
<asrwt>0</asrwt>
<pdfrwt beam="1">  1       21 0.65993885E-01 0.45246233E+03</pdfrwt>
<pdfrwt beam="2">  1       21 0.77580185E-01 0.45246233E+03</pdfrwt>
<totfact> 0.26981637E+03</totfact>
</mgrwt>
</event>
<event>
 4    1  0.4897983E-002  0.4520113E+03  0.7818608E-02  0.1027124E+00
         21   -1    0    0  503  502  0.00000000000E+00  0.00000000000E+00  0.70619722575E+03  0.70619722575E+03  0.00000000000E+00 0. -1.
         21   -1    0    0  501  503 -0.00000000000E+00 -0.00000000000E+00 -0.40866768293E+03  0.40866768293E+03  0.00000000000E+00 0.  1.
    9000007    1    1    2  501    0 -0.11840389289E+03 -0.17405390179E+03 -0.15248113531E+03  0.47703746100E+03  0.40000000000E+03 0.  1.
   -9000007    1    1    2    0  502  0.11840389289E+03  0.17405390179E+03  0.45001067813E+03  0.63782744767E+03  0.40000000000E+03 0. -1.
<mgrwt>
<rscale>  2 0.45201133E+03</rscale>
<asrwt>0</asrwt>
<pdfrwt beam="1">  1       21 0.10864573E+00 0.45201133E+03</pdfrwt>
<pdfrwt beam="2">  1       21 0.62871952E-01 0.45201133E+03</pdfrwt>
<totfact> 0.13467472E+03</totfact>
</mgrwt>
</event>
<event>
 4    1  0.4897983E-002  0.4970330E+03  0.7818608E-02  0.1014556E+00
         21   -1    0    0  501  502  0.00000000000E+00  0.00000000000E+00  0.72461481703E+03  0.72461481703E+03  0.00000000000E+00 0. -1.
         21   -1    0    0  502  503 -0.00000000000E+00 -0.00000000000E+00 -0.37173047936E+03  0.37173047936E+03  0.00000000000E+00 0.  1.
    9000007    1    1    2  501    0  0.23219239934E+03  0.18201225635E+03  0.18647154024E+02  0.49738263754E+03  0.40000000000E+03 0.  1.
   -9000007    1    1    2    0  503 -0.23219239934E+03 -0.18201225635E+03  0.33423718364E+03  0.59896265885E+03  0.40000000000E+03 0. -1.
<mgrwt>
<rscale>  2 0.49703297E+03</rscale>
<asrwt>0</asrwt>
<pdfrwt beam="1">  1       21 0.11147920E+00 0.49703297E+03</pdfrwt>
<pdfrwt beam="2">  1       21 0.57189305E-01 0.49703297E+03</pdfrwt>
<totfact> 0.15289613E+03</totfact>
</mgrwt>
</event>
<event>
 4    1  0.4897983E-002  0.4831133E+03  0.7818608E-02  0.1018283E+00
         21   -1    0    0  503  502  0.00000000000E+00  0.00000000000E+00  0.59444887789E+03  0.59444887789E+03  0.00000000000E+00 0. -1.
         21   -1    0    0  501  503 -0.00000000000E+00 -0.00000000000E+00 -0.55943601852E+03  0.55943601852E+03  0.00000000000E+00 0.  1.
    9000007    1    1    2  501    0  0.25354709641E+03  0.95458633507E+02 -0.29753168508E+03  0.56738310200E+03  0.40000000000E+03 0.  1.
   -9000007    1    1    2    0  502 -0.25354709641E+03 -0.95458633507E+02  0.33254454445E+03  0.58650179442E+03  0.40000000000E+03 0. -1.
<mgrwt>
<rscale>  2 0.48311332E+03</rscale>
<asrwt>0</asrwt>
<pdfrwt beam="1">  1       21 0.91453673E-01 0.48311332E+03</pdfrwt>
<pdfrwt beam="2">  1       21 0.86067080E-01 0.48311332E+03</pdfrwt>
<totfact> 0.98933644E+02</totfact>
</mgrwt>
</event>
<event>
 4    1  0.4897983E-002  0.4969641E+03  0.7818608E-02  0.1014574E+00
         21   -1    0    0  501  502  0.00000000000E+00  0.00000000000E+00  0.20965439774E+03  0.20965439774E+03  0.00000000000E+00 0. -1.
         21   -1    0    0  502  503 -0.00000000000E+00 -0.00000000000E+00 -0.12090463439E+04  0.12090463439E+04  0.00000000000E+00 0. -1.
    9000007    1    1    2  501    0 -0.29091404869E+03  0.48397923139E+02 -0.38603034932E+03  0.62927956688E+03  0.40000000000E+03 0. -1.
   -9000007    1    1    2    0  503  0.29091404869E+03 -0.48397923139E+02 -0.61336159685E+03  0.78942117477E+03  0.40000000000E+03 0. -1.
<mgrwt>
<rscale>  2 0.49696413E+03</rscale>
<asrwt>0</asrwt>
<pdfrwt beam="1">  1       21 0.32254522E-01 0.49696413E+03</pdfrwt>
<pdfrwt beam="2">  1       21 0.18600713E+00 0.49696413E+03</pdfrwt>
<totfact> 0.12652840E+03</totfact>
</mgrwt>
</event>
<event>
 4    1  0.4897983E-002  0.5174532E+03  0.7818608E-02  0.1009321E+00
         21   -1    0    0  501  502  0.00000000000E+00  0.00000000000E+00  0.57906498808E+03  0.57906498808E+03  0.00000000000E+00 0. -1.
         21   -1    0    0  502  503 -0.00000000000E+00 -0.00000000000E+00 -0.46283681539E+03  0.46283681539E+03  0.00000000000E+00 0. -1.
    9000007    1    1    2  501    0  0.18336612540E+03 -0.27227675856E+03  0.74177612451E+02  0.52274285015E+03  0.40000000000E+03 0. -1.
   -9000007    1    1    2    0  503 -0.18336612540E+03  0.27227675856E+03  0.42050560247E+02  0.51915895332E+03  0.40000000000E+03 0. -1.
<mgrwt>
<rscale>  2 0.51745316E+03</rscale>
<asrwt>0</asrwt>
<pdfrwt beam="1">  1       21 0.89086921E-01 0.51745316E+03</pdfrwt>
<pdfrwt beam="2">  1       21 0.71205664E-01 0.51745316E+03</pdfrwt>
<totfact> 0.16106766E+03</totfact>
</mgrwt>
</event>
<event>
 4    1  0.4897983E-002  0.4985391E+03  0.7818608E-02  0.1014161E+00
         21   -1    0    0  501  502  0.00000000000E+00  0.00000000000E+00  0.20634325110E+04  0.20634325110E+04  0.00000000000E+00 0. -1.
         21   -1    0    0  502  503 -0.00000000000E+00 -0.00000000000E+00 -0.12895321670E+03  0.12895321670E+03  0.00000000000E+00 0. -1.
    9000007    1    1    2  501    0  0.13291676051E+03 -0.26622237429E+03  0.12487231530E+04  0.13445633978E+04  0.40000000000E+03 0. -1.
   -9000007    1    1    2    0  503 -0.13291676051E+03  0.26622237429E+03  0.68575614131E+03  0.84782232994E+03  0.40000000000E+03 0. -1.
<mgrwt>
<rscale>  2 0.49853908E+03</rscale>
<asrwt>0</asrwt>
<pdfrwt beam="1">  1       21 0.31745113E+00 0.49853908E+03</pdfrwt>
<pdfrwt beam="2">  1       21 0.19838958E-01 0.49853908E+03</pdfrwt>
<totfact> 0.48960253E+02</totfact>
</mgrwt>
</event>
<event>
 4    1  0.4897983E-002  0.4203696E+03  0.7818608E-02  0.1036946E+00
         21   -1    0    0  503  502  0.00000000000E+00  0.00000000000E+00  0.22490522347E+04  0.22490522347E+04  0.00000000000E+00 0.  1.
         21   -1    0    0  501  503 -0.00000000000E+00 -0.00000000000E+00 -0.10831235029E+03  0.10831235029E+03  0.00000000000E+00 0.  1.
    9000007    1    1    2  501    0  0.41242897056E+02 -0.12251377054E+03  0.45272757346E+03  0.61779677589E+03  0.40000000000E+03 0.  1.
   -9000007    1    1    2    0  502 -0.41242897056E+02  0.12251377054E+03  0.16880123110E+04  0.17395678091E+04  0.40000000000E+03 0.  1.
<mgrwt>
<rscale>  2 0.42036960E+03</rscale>
<asrwt>0</asrwt>
<pdfrwt beam="1">  1       21 0.34600800E+00 0.42036960E+03</pdfrwt>
<pdfrwt beam="2">  1       21 0.16663440E-01 0.42036960E+03</pdfrwt>
<totfact> 0.47767907E+02</totfact>
</mgrwt>
</event>
<event>
 4    1  0.4897983E-002  0.4413524E+03  0.7818608E-02  0.1030333E+00
         21   -1    0    0  501  502  0.00000000000E+00  0.00000000000E+00  0.50442137467E+03  0.50442137467E+03  0.00000000000E+00 0. -1.
         21   -1    0    0  502  503 -0.00000000000E+00 -0.00000000000E+00 -0.45133149521E+03  0.45133149521E+03  0.00000000000E+00 0. -1.
    9000007    1    1    2  501    0 -0.14438697085E+03 -0.11808633956E+03 -0.15503426040E+03  0.46779012691E+03  0.40000000000E+03 0. -1.
   -9000007    1    1    2    0  503  0.14438697085E+03  0.11808633956E+03  0.20812413985E+03  0.48796274297E+03  0.40000000000E+03 0. -1.
<mgrwt>
<rscale>  2 0.44135245E+03</rscale>
<asrwt>0</asrwt>
<pdfrwt beam="1">  1       21 0.77603289E-01 0.44135245E+03</pdfrwt>
<pdfrwt beam="2">  1       21 0.69435615E-01 0.44135245E+03</pdfrwt>
<totfact> 0.24161248E+03</totfact>
</mgrwt>
</event>
<event>
 4    1  0.4897983E-002  0.4314443E+03  0.7818608E-02  0.1033405E+00
         21   -1    0    0  503  502  0.00000000000E+00  0.00000000000E+00  0.16194607477E+04  0.16194607477E+04  0.00000000000E+00 0.  1.
         21   -1    0    0  501  503 -0.00000000000E+00 -0.00000000000E+00 -0.16840418214E+03  0.16840418214E+03  0.00000000000E+00 0.  1.
    9000007    1    1    2  501    0 -0.11427921615E+03  0.11438724477E+03  0.22185222896E+03  0.48514182720E+03  0.40000000000E+03 0.  1.
   -9000007    1    1    2    0  502  0.11427921615E+03 -0.11438724477E+03  0.12292043366E+04  0.13027231026E+04  0.40000000000E+03 0.  1.
<mgrwt>
<rscale>  2 0.43144430E+03</rscale>
<asrwt>0</asrwt>
<pdfrwt beam="1">  1       21 0.24914780E+00 0.43144430E+03</pdfrwt>
<pdfrwt beam="2">  1       21 0.25908337E-01 0.43144430E+03</pdfrwt>
<totfact> 0.78570676E+02</totfact>
</mgrwt>
</event>
<event>
 4    1  0.4897983E-002  0.5170055E+03  0.7818608E-02  0.1009433E+00
         21   -1    0    0  503  502  0.00000000000E+00  0.00000000000E+00  0.21909977868E+03  0.21909977868E+03  0.00000000000E+00 0. -1.
         21   -1    0    0  501  503 -0.00000000000E+00 -0.00000000000E+00 -0.12953773845E+04  0.12953773845E+04  0.00000000000E+00 0. -1.
    9000007    1    1    2  501    0 -0.36302785632E+02 -0.32554069989E+03 -0.72084291320E+03  0.88707899595E+03  0.40000000000E+03 0. -1.
   -9000007    1    1    2    0  502  0.36302785632E+02  0.32554069989E+03 -0.35543469263E+03  0.62739816724E+03  0.40000000000E+03 0. -1.
<mgrwt>
<rscale>  2 0.51700545E+03</rscale>
<asrwt>0</asrwt>
<pdfrwt beam="1">  1       21 0.33707658E-01 0.51700545E+03</pdfrwt>
<pdfrwt beam="2">  1       21 0.19928883E+00 0.51700545E+03</pdfrwt>
<totfact> 0.93225783E+02</totfact>
</mgrwt>
</event>
<event>
 4    1  0.4897983E-002  0.4668130E+03  0.7818608E-02  0.1022824E+00
         21   -1    0    0  503  502  0.00000000000E+00  0.00000000000E+00  0.74893059829E+03  0.74893059829E+03  0.00000000000E+00 0. -1.
         21   -1    0    0  501  503 -0.00000000000E+00 -0.00000000000E+00 -0.33780899231E+03  0.33780899231E+03  0.00000000000E+00 0. -1.
    9000007    1    1    2  501    0  0.23316429651E+03  0.59571825192E+02  0.32236199917E+01  0.46682414596E+03  0.40000000000E+03 0. -1.
   -9000007    1    1    2    0  502 -0.23316429651E+03 -0.59571825192E+02  0.40789798599E+03  0.61991544464E+03  0.40000000000E+03 0. -1.
<mgrwt>
<rscale>  2 0.46681302E+03</rscale>
<asrwt>0</asrwt>
<pdfrwt beam="1">  1       21 0.11522009E+00 0.46681302E+03</pdfrwt>
<pdfrwt beam="2">  1       21 0.51970614E-01 0.46681302E+03</pdfrwt>
<totfact> 0.17502625E+03</totfact>
</mgrwt>
</event>
<event>
 4    1  0.4897983E-002  0.6359364E+03  0.7818608E-02  0.9833532E-01
         21   -1    0    0  503  502  0.00000000000E+00  0.00000000000E+00  0.27920638662E+03  0.27920638662E+03  0.00000000000E+00 0. -1.
         21   -1    0    0  501  503 -0.00000000000E+00 -0.00000000000E+00 -0.15021469461E+04  0.15021469461E+04  0.00000000000E+00 0.  1.
    9000007    1    1    2  501    0 -0.35484566377E+03 -0.34423783049E+03 -0.77987659736E+03  0.10062915264E+04  0.40000000000E+03 0. -1.
   -9000007    1    1    2    0  502  0.35484566377E+03  0.34423783049E+03 -0.44306396208E+03  0.77506180627E+03  0.40000000000E+03 0.  1.
<mgrwt>
<rscale>  2 0.63593642E+03</rscale>
<asrwt>0</asrwt>
<pdfrwt beam="1">  1       21 0.42954828E-01 0.63593642E+03</pdfrwt>
<pdfrwt beam="2">  1       21 0.23109953E+00 0.63593642E+03</pdfrwt>
<totfact> 0.33547202E+02</totfact>
</mgrwt>
</event>
<event>
 4    1  0.4897983E-002  0.4341719E+03  0.7818608E-02  0.1032550E+00
         21   -1    0    0  503  502  0.00000000000E+00  0.00000000000E+00  0.10300977076E+04  0.10300977076E+04  0.00000000000E+00 0.  1.
         21   -1    0    0  501  503 -0.00000000000E+00 -0.00000000000E+00 -0.41799150335E+03  0.41799150335E+03  0.00000000000E+00 0.  1.
    9000007    1    1    2  501    0  0.15486580620E+03 -0.67244291782E+02 -0.23683468053E+03  0.49456635410E+03  0.40000000000E+03 0.  1.
   -9000007    1    1    2    0  502 -0.15486580620E+03  0.67244291782E+02  0.84894088480E+03  0.95352285688E+03  0.40000000000E+03 0.  1.
<mgrwt>
<rscale>  2 0.43417187E+03</rscale>
<asrwt>0</asrwt>
<pdfrwt beam="1">  1       21 0.15847657E+00 0.43417187E+03</pdfrwt>
<pdfrwt beam="2">  1       21 0.64306386E-01 0.43417187E+03</pdfrwt>
<totfact> 0.48234816E+02</totfact>
</mgrwt>
</event>
<event>
 4    1  0.4897983E-002  0.5393200E+03  0.7818608E-02  0.1003997E+00
         21   -1    0    0  503  502  0.00000000000E+00  0.00000000000E+00  0.30504452369E+03  0.30504452369E+03  0.00000000000E+00 0. -1.
         21   -1    0    0  501  503 -0.00000000000E+00 -0.00000000000E+00 -0.11508221271E+04  0.11508221271E+04  0.00000000000E+00 0.  1.
    9000007    1    1    2  501    0  0.33420482370E+03 -0.13846715535E+03 -0.12148167468E+03  0.55283253756E+03  0.40000000000E+03 0. -1.
   -9000007    1    1    2    0  502 -0.33420482370E+03  0.13846715535E+03 -0.72429592877E+03  0.90303411327E+03  0.40000000000E+03 0.  1.
<mgrwt>
<rscale>  2 0.53931996E+03</rscale>
<asrwt>0</asrwt>
<pdfrwt beam="1">  1       21 0.46929927E-01 0.53931996E+03</pdfrwt>
<pdfrwt beam="2">  1       21 0.17704956E+00 0.53931996E+03</pdfrwt>
<totfact> 0.66516077E+02</totfact>
</mgrwt>
</event>
<event>
 4    1  0.4897983E-002  0.5570335E+03  0.7818608E-02  0.9998789E-01
         21   -1    0    0  503  502  0.00000000000E+00  0.00000000000E+00  0.14897099615E+03  0.14897099615E+03  0.00000000000E+00 0.  1.
         21   -1    0    0  501  503 -0.00000000000E+00 -0.00000000000E+00 -0.25181751789E+04  0.25181751789E+04  0.00000000000E+00 0. -1.
    9000007    1    1    2  501    0 -0.15775041364E+02 -0.38734674799E+03 -0.17390664851E+04  0.18260992840E+04  0.40000000000E+03 0.  1.
   -9000007    1    1    2    0  502  0.15775041364E+02  0.38734674799E+03 -0.63013769765E+03  0.84104689115E+03  0.40000000000E+03 0. -1.
<mgrwt>
<rscale>  2 0.55703353E+03</rscale>
<asrwt>0</asrwt>
<pdfrwt beam="1">  1       21 0.22918615E-01 0.55703353E+03</pdfrwt>
<pdfrwt beam="2">  1       21 0.38741156E+00 0.55703353E+03</pdfrwt>
<totfact> 0.13258533E+02</totfact>
</mgrwt>
</event>
<event>
 4    1  0.4897983E-002  0.4016187E+03  0.7818608E-02  0.1043221E+00
         21   -1    0    0  501  502  0.00000000000E+00  0.00000000000E+00  0.15955833708E+03  0.15955833708E+03  0.00000000000E+00 0.  1.
         21   -1    0    0  502  503 -0.00000000000E+00 -0.00000000000E+00 -0.10534677366E+04  0.10534677366E+04  0.00000000000E+00 0.  1.
    9000007    1    1    2  501    0 -0.13494915882E+02 -0.33398049071E+02 -0.32503632154E+03  0.51666831987E+03  0.40000000000E+03 0. -1.
   -9000007    1    1    2    0  503  0.13494915882E+02  0.33398049071E+02 -0.56887307799E+03  0.69635775382E+03  0.40000000000E+03 0. -1.
<mgrwt>
<rscale>  2 0.40161865E+03</rscale>
<asrwt>0</asrwt>
<pdfrwt beam="1">  1       21 0.24547438E-01 0.40161865E+03</pdfrwt>
<pdfrwt beam="2">  1       21 0.16207195E+00 0.40161865E+03</pdfrwt>
<totfact> 0.33510187E+03</totfact>
</mgrwt>
</event>
<event>
 4    1  0.4897983E-002  0.4742208E+03  0.7818608E-02  0.1020736E+00
         21   -1    0    0  501  502  0.00000000000E+00  0.00000000000E+00  0.84238756903E+03  0.84238756903E+03  0.00000000000E+00 0.  1.
         21   -1    0    0  502  503 -0.00000000000E+00 -0.00000000000E+00 -0.26741230578E+03  0.26741230578E+03  0.00000000000E+00 0.  1.
    9000007    1    1    2  501    0  0.16211326564E+03 -0.19648059457E+03  0.31026246245E+03  0.56669932993E+03  0.40000000000E+03 0.  1.
   -9000007    1    1    2    0  503 -0.16211326564E+03  0.19648059457E+03  0.26471280080E+03  0.54310054488E+03  0.40000000000E+03 0.  1.
<mgrwt>
<rscale>  2 0.47422077E+03</rscale>
<asrwt>0</asrwt>
<pdfrwt beam="1">  1       21 0.12959809E+00 0.47422077E+03</pdfrwt>
<pdfrwt beam="2">  1       21 0.41140355E-01 0.47422077E+03</pdfrwt>
<totfact> 0.21136697E+03</totfact>
</mgrwt>
</event>
<event>
 4    1  0.4897983E-002  0.4463146E+03  0.7818608E-02  0.1028827E+00
         21   -1    0    0  501  502  0.00000000000E+00  0.00000000000E+00  0.23193289521E+04  0.23193289521E+04  0.00000000000E+00 0. -1.
         21   -1    0    0  502  503 -0.00000000000E+00 -0.00000000000E+00 -0.12067765679E+03  0.12067765679E+03  0.00000000000E+00 0.  1.
    9000007    1    1    2  501    0 -0.17115593071E+03  0.99510538674E+02  0.17543965676E+04  0.18102773313E+04  0.40000000000E+03 0. -1.
   -9000007    1    1    2    0  503  0.17115593071E+03 -0.99510538674E+02  0.44425472769E+03  0.62972927755E+03  0.40000000000E+03 0.  1.
<mgrwt>
<rscale>  2 0.44631458E+03</rscale>
<asrwt>0</asrwt>
<pdfrwt beam="1">  1       21 0.35681980E+00 0.44631458E+03</pdfrwt>
<pdfrwt beam="2">  1       21 0.18565795E-01 0.44631458E+03</pdfrwt>
<totfact> 0.32920587E+02</totfact>
</mgrwt>
</event>
<event>
 4    1  0.4897983E-002  0.4889903E+03  0.7818608E-02  0.1016693E+00
         21   -1    0    0  503  502  0.00000000000E+00  0.00000000000E+00  0.26834478097E+03  0.26834478097E+03  0.00000000000E+00 0. -1.
         21   -1    0    0  501  503 -0.00000000000E+00 -0.00000000000E+00 -0.14395025789E+04  0.14395025789E+04  0.00000000000E+00 0. -1.
    9000007    1    1    2  501    0  0.16944299990E+02  0.28075679932E+03 -0.11126608399E+04  0.12153705748E+04  0.40000000000E+03 0. -1.
   -9000007    1    1    2    0  502 -0.16944299990E+02 -0.28075679932E+03 -0.58496958066E+02  0.49247678500E+03  0.40000000000E+03 0. -1.
<mgrwt>
<rscale>  2 0.48899028E+03</rscale>
<asrwt>0</asrwt>
<pdfrwt beam="1">  1       21 0.41283813E-01 0.48899028E+03</pdfrwt>
<pdfrwt beam="2">  1       21 0.22146193E+00 0.48899028E+03</pdfrwt>
<totfact> 0.44603017E+02</totfact>
</mgrwt>
</event>
<event>
 4    1  0.4897983E-002  0.4432025E+03  0.7818608E-02  0.1029769E+00
         21   -1    0    0  501  502  0.00000000000E+00  0.00000000000E+00  0.32303211064E+03  0.32303211064E+03  0.00000000000E+00 0. -1.
         21   -1    0    0  502  503 -0.00000000000E+00 -0.00000000000E+00 -0.14783237746E+04  0.14783237746E+04  0.00000000000E+00 0. -1.
    9000007    1    1    2  501    0  0.18635112753E+03  0.41252035260E+02  0.11339848313E+03  0.45747971444E+03  0.40000000000E+03 0. -1.
   -9000007    1    1    2    0  503 -0.18635112753E+03 -0.41252035260E+02 -0.12686901471E+04  0.13438761708E+04  0.40000000000E+03 0. -1.
<mgrwt>
<rscale>  2 0.44320252E+03</rscale>
<asrwt>0</asrwt>
<pdfrwt beam="1">  1       21 0.49697247E-01 0.44320252E+03</pdfrwt>
<pdfrwt beam="2">  1       21 0.22743443E+00 0.44320252E+03</pdfrwt>
<totfact> 0.28349310E+02</totfact>
</mgrwt>
</event>
<event>
 4    1  0.4897983E-002  0.4096266E+03  0.7818608E-02  0.1040496E+00
         21   -1    0    0  501  502  0.00000000000E+00  0.00000000000E+00  0.25101966561E+03  0.25101966561E+03  0.00000000000E+00 0.  1.
         21   -1    0    0  502  503 -0.00000000000E+00 -0.00000000000E+00 -0.68626082284E+03  0.68626082284E+03  0.00000000000E+00 0.  1.
    9000007    1    1    2  501    0  0.30300780828E+02 -0.82920403939E+02 -0.14212092278E+03  0.43358077379E+03  0.40000000000E+03 0.  1.
   -9000007    1    1    2    0  503 -0.30300780828E+02  0.82920403939E+02 -0.29312023445E+03  0.50369971466E+03  0.40000000000E+03 0.  1.
<mgrwt>
<rscale>  2 0.40962657E+03</rscale>
<asrwt>0</asrwt>
<pdfrwt beam="1">  1       21 0.38618411E-01 0.40962657E+03</pdfrwt>
<pdfrwt beam="2">  1       21 0.10557859E+00 0.40962657E+03</pdfrwt>
<totfact> 0.41349310E+03</totfact>
</mgrwt>
</event>
<event>
 4    1  0.4897983E-002  0.4048914E+03  0.7818608E-02  0.1042099E+00
         21   -1    0    0  501  502  0.00000000000E+00  0.00000000000E+00  0.41204722434E+03  0.41204722434E+03  0.00000000000E+00 0.  1.
         21   -1    0    0  502  503 -0.00000000000E+00 -0.00000000000E+00 -0.56713142820E+03  0.56713142820E+03  0.00000000000E+00 0.  1.
    9000007    1    1    2  501    0 -0.26315055446E+02 -0.56961115580E+02  0.18993221860E+03  0.44722622742E+03  0.40000000000E+03 0.  1.
   -9000007    1    1    2    0  503  0.26315055446E+02  0.56961115580E+02 -0.34501642245E+03  0.53195242512E+03  0.40000000000E+03 0.  1.
<mgrwt>
<rscale>  2 0.40489141E+03</rscale>
<asrwt>0</asrwt>
<pdfrwt beam="1">  1       21 0.63391880E-01 0.40489141E+03</pdfrwt>
<pdfrwt beam="2">  1       21 0.87250990E-01 0.40489141E+03</pdfrwt>
<totfact> 0.22871427E+03</totfact>
</mgrwt>
</event>
<event>
 4    1  0.4897983E-002  0.4926970E+03  0.7818608E-02  0.1015703E+00
         21   -1    0    0  503  502  0.00000000000E+00  0.00000000000E+00  0.11979328351E+04  0.11979328351E+04  0.00000000000E+00 0. -1.
         21   -1    0    0  501  503 -0.00000000000E+00 -0.00000000000E+00 -0.20684268653E+03  0.20684268653E+03  0.00000000000E+00 0. -1.
    9000007    1    1    2  501    0  0.27770642928E+03 -0.75029804174E+02  0.59565280290E+03  0.77301526115E+03  0.40000000000E+03 0. -1.
   -9000007    1    1    2    0  502 -0.27770642928E+03  0.75029804174E+02  0.39543734570E+03  0.63176026050E+03  0.40000000000E+03 0. -1.
<mgrwt>
<rscale>  2 0.49269700E+03</rscale>
<asrwt>0</asrwt>
<pdfrwt beam="1">  1       21 0.18429735E+00 0.49269700E+03</pdfrwt>
<pdfrwt beam="2">  1       21 0.31821953E-01 0.49269700E+03</pdfrwt>
<totfact> 0.13383897E+03</totfact>
</mgrwt>
</event>
<event>
 4    1  0.4897983E-002  0.4749387E+03  0.7818608E-02  0.1020535E+00
         21   -1    0    0  503  502  0.00000000000E+00  0.00000000000E+00  0.10776803974E+04  0.10776803974E+04  0.00000000000E+00 0. -1.
         21   -1    0    0  501  503 -0.00000000000E+00 -0.00000000000E+00 -0.36423064369E+03  0.36423064369E+03  0.00000000000E+00 0. -1.
    9000007    1    1    2  501    0 -0.17839576674E+03  0.18368929873E+03 -0.11347022175E+03  0.48830553886E+03  0.40000000000E+03 0. -1.
   -9000007    1    1    2    0  502  0.17839576674E+03 -0.18368929873E+03  0.82691997542E+03  0.95360550219E+03  0.40000000000E+03 0. -1.
<mgrwt>
<rscale>  2 0.47493874E+03</rscale>
<asrwt>0</asrwt>
<pdfrwt beam="1">  1       21 0.16579698E+00 0.47493874E+03</pdfrwt>
<pdfrwt beam="2">  1       21 0.56035484E-01 0.47493874E+03</pdfrwt>
<totfact> 0.56404376E+02</totfact>
</mgrwt>
</event>
<event>
 4    1  0.4897983E-002  0.4632688E+03  0.7818608E-02  0.1023837E+00
         21   -1    0    0  503  502  0.00000000000E+00  0.00000000000E+00  0.93931394613E+03  0.93931394613E+03  0.00000000000E+00 0.  1.
         21   -1    0    0  501  503 -0.00000000000E+00 -0.00000000000E+00 -0.53105166130E+03  0.53105166130E+03  0.00000000000E+00 0.  1.
    9000007    1    1    2  501    0 -0.18066511498E+03 -0.14825014329E+03 -0.35079907725E+03  0.58110066370E+03  0.40000000000E+03 0.  1.
   -9000007    1    1    2    0  502  0.18066511498E+03  0.14825014329E+03  0.75906136207E+03  0.88926494373E+03  0.40000000000E+03 0.  1.
<mgrwt>
<rscale>  2 0.46326881E+03</rscale>
<asrwt>0</asrwt>
<pdfrwt beam="1">  1       21 0.14450984E+00 0.46326881E+03</pdfrwt>
<pdfrwt beam="2">  1       21 0.81700256E-01 0.46326881E+03</pdfrwt>
<totfact> 0.35550893E+02</totfact>
</mgrwt>
</event>
<event>
 4    1  0.4897983E-002  0.4439102E+03  0.7818608E-02  0.1029554E+00
         21   -1    0    0  503  502  0.00000000000E+00  0.00000000000E+00  0.59982915026E+03  0.59982915026E+03  0.00000000000E+00 0. -1.
         21   -1    0    0  501  503 -0.00000000000E+00 -0.00000000000E+00 -0.81104971746E+03  0.81104971746E+03  0.00000000000E+00 0. -1.
    9000007    1    1    2  501    0  0.13257147387E+03  0.13957457407E+03 -0.64973410330E+03  0.78689939789E+03  0.40000000000E+03 0. -1.
   -9000007    1    1    2    0  502 -0.13257147387E+03 -0.13957457407E+03  0.43851353611E+03  0.62397946982E+03  0.40000000000E+03 0. -1.
<mgrwt>
<rscale>  2 0.44391019E+03</rscale>
<asrwt>0</asrwt>
<pdfrwt beam="1">  1       21 0.92281408E-01 0.44391019E+03</pdfrwt>
<pdfrwt beam="2">  1       21 0.12477688E+00 0.44391019E+03</pdfrwt>
<totfact> 0.39605949E+02</totfact>
</mgrwt>
</event>
<event>
 4    1  0.4897983E-002  0.4263266E+03  0.7818608E-02  0.1035027E+00
         21   -1    0    0  501  502  0.00000000000E+00  0.00000000000E+00  0.38984524174E+03  0.38984524174E+03  0.00000000000E+00 0.  1.
         21   -1    0    0  502  503 -0.00000000000E+00 -0.00000000000E+00 -0.15236734569E+04  0.15236734569E+04  0.00000000000E+00 0.  1.
    9000007    1    1    2  501    0 -0.64387490891E+02 -0.13269743961E+03  0.23013856068E+03  0.48447715795E+03  0.40000000000E+03 0.  1.
   -9000007    1    1    2    0  503  0.64387490891E+02  0.13269743961E+03 -0.13639667758E+04  0.14290415407E+04  0.40000000000E+03 0.  1.
<mgrwt>
<rscale>  2 0.42632659E+03</rscale>
<asrwt>0</asrwt>
<pdfrwt beam="1">  1       21 0.59976190E-01 0.42632659E+03</pdfrwt>
<pdfrwt beam="2">  1       21 0.23441131E+00 0.42632659E+03</pdfrwt>
<totfact> 0.17256531E+02</totfact>
</mgrwt>
</event>
<event>
 4    1  0.4897983E-002  0.4127182E+03  0.7818608E-02  0.1039463E+00
         21   -1    0    0  501  502  0.00000000000E+00  0.00000000000E+00  0.82608413955E+03  0.82608413955E+03  0.00000000000E+00 0.  1.
         21   -1    0    0  502  503 -0.00000000000E+00 -0.00000000000E+00 -0.39090258490E+03  0.39090258490E+03  0.00000000000E+00 0.  1.
    9000007    1    1    2  501    0 -0.61255308835E+02  0.81142330855E+02  0.63586516813E+03  0.75806385137E+03  0.40000000000E+03 0.  1.
   -9000007    1    1    2    0  503  0.61255308835E+02 -0.81142330855E+02 -0.20068361348E+03  0.45892287308E+03  0.40000000000E+03 0.  1.
<mgrwt>
<rscale>  2 0.41271817E+03</rscale>
<asrwt>0</asrwt>
<pdfrwt beam="1">  1       21 0.12708987E+00 0.41271817E+03</pdfrwt>
<pdfrwt beam="2">  1       21 0.60138859E-01 0.41271817E+03</pdfrwt>
<totfact> 0.10168618E+03</totfact>
</mgrwt>
</event>
<event>
 4    1  0.4897983E-002  0.6892677E+03  0.7818608E-02  0.9735764E-01
         21   -1    0    0  503  502  0.00000000000E+00  0.00000000000E+00  0.15367823417E+04  0.15367823417E+04  0.00000000000E+00 0.  1.
         21   -1    0    0  501  503 -0.00000000000E+00 -0.00000000000E+00 -0.33215388771E+03  0.33215388771E+03  0.00000000000E+00 0.  1.
    9000007    1    1    2  501    0  0.53597934048E+03 -0.16678181410E+03  0.84825680742E+03  0.10929911428E+04  0.40000000000E+03 0.  1.
   -9000007    1    1    2    0  502 -0.53597934048E+03  0.16678181410E+03  0.35637164658E+03  0.77594508660E+03  0.40000000000E+03 0.  1.
<mgrwt>
<rscale>  2 0.68926775E+03</rscale>
<asrwt>0</asrwt>
<pdfrwt beam="1">  1       21 0.23642805E+00 0.68926775E+03</pdfrwt>
<pdfrwt beam="2">  1       21 0.51100599E-01 0.68926775E+03</pdfrwt>
<totfact> 0.21048788E+02</totfact>
</mgrwt>
</event>
<event>
 4    1  0.4897983E-002  0.4073764E+03  0.7818608E-02  0.1041255E+00
         21   -1    0    0  501  502  0.00000000000E+00  0.00000000000E+00  0.25062658612E+03  0.25062658612E+03  0.00000000000E+00 0. -1.
         21   -1    0    0  502  503 -0.00000000000E+00 -0.00000000000E+00 -0.76526228330E+03  0.76526228330E+03  0.00000000000E+00 0. -1.
    9000007    1    1    2  501    0 -0.68386314768E+02  0.35761201533E+02 -0.70877579972E+02  0.41349629131E+03  0.40000000000E+03 0. -1.
   -9000007    1    1    2    0  503  0.68386314768E+02 -0.35761201533E+02 -0.44375811720E+03  0.60239257811E+03  0.40000000000E+03 0. -1.
<mgrwt>
<rscale>  2 0.40737642E+03</rscale>
<asrwt>0</asrwt>
<pdfrwt beam="1">  1       21 0.38557937E-01 0.40737642E+03</pdfrwt>
<pdfrwt beam="2">  1       21 0.11773266E+00 0.40737642E+03</pdfrwt>
<totfact> 0.31684883E+03</totfact>
</mgrwt>
</event>
<event>
 4    1  0.4897983E-002  0.5807188E+03  0.7818608E-02  0.9946236E-01
         21   -1    0    0  503  502  0.00000000000E+00  0.00000000000E+00  0.33475224122E+03  0.33475224122E+03  0.00000000000E+00 0.  1.
         21   -1    0    0  501  503 -0.00000000000E+00 -0.00000000000E+00 -0.10475976830E+04  0.10475976830E+04  0.00000000000E+00 0.  1.
    9000007    1    1    2  501    0 -0.24621204627E+03  0.34148779895E+03 -0.22105582601E+03  0.62136942858E+03  0.40000000000E+03 0.  1.
   -9000007    1    1    2    0  502  0.24621204627E+03 -0.34148779895E+03 -0.49178961574E+03  0.76098049561E+03  0.40000000000E+03 0.  1.
<mgrwt>
<rscale>  2 0.58071877E+03</rscale>
<asrwt>0</asrwt>
<pdfrwt beam="1">  1       21 0.51500345E-01 0.58071877E+03</pdfrwt>
<pdfrwt beam="2">  1       21 0.16116887E+00 0.58071877E+03</pdfrwt>
<totfact> 0.70360091E+02</totfact>
</mgrwt>
</event>
<event>
 4    1  0.4897983E-002  0.4424269E+03  0.7818608E-02  0.1030005E+00
         21   -1    0    0  501  502  0.00000000000E+00  0.00000000000E+00  0.58843124894E+03  0.58843124894E+03  0.00000000000E+00 0.  1.
         21   -1    0    0  502  503 -0.00000000000E+00 -0.00000000000E+00 -0.33484851382E+03  0.33484851382E+03  0.00000000000E+00 0. -1.
    9000007    1    1    2  501    0  0.45722684889E+02  0.18344214952E+03  0.89384160388E+02  0.45136583196E+03  0.40000000000E+03 0.  1.
   -9000007    1    1    2    0  503 -0.45722684889E+02 -0.18344214952E+03  0.16419857474E+03  0.47191393080E+03  0.40000000000E+03 0. -1.
<mgrwt>
<rscale>  2 0.44242693E+03</rscale>
<asrwt>0</asrwt>
<pdfrwt beam="1">  1       21 0.90527884E-01 0.44242693E+03</pdfrwt>
<pdfrwt beam="2">  1       21 0.51515156E-01 0.44242693E+03</pdfrwt>
<totfact> 0.32423532E+03</totfact>
</mgrwt>
</event>
<event>
 4    1  0.4897983E-002  0.4439146E+03  0.7818608E-02  0.1029552E+00
         21   -1    0    0  501  502  0.00000000000E+00  0.00000000000E+00  0.77172280607E+03  0.77172280607E+03  0.00000000000E+00 0.  1.
         21   -1    0    0  502  503 -0.00000000000E+00 -0.00000000000E+00 -0.54643214439E+03  0.54643214439E+03  0.00000000000E+00 0.  1.
    9000007    1    1    2  501    0  0.17039364192E+03  0.89589026137E+02  0.59367890558E+03  0.74129267482E+03  0.40000000000E+03 0.  1.
   -9000007    1    1    2    0  503 -0.17039364192E+03 -0.89589026137E+02 -0.36838824390E+03  0.57686227564E+03  0.40000000000E+03 0.  1.
<mgrwt>
<rscale>  2 0.44391462E+03</rscale>
<asrwt>0</asrwt>
<pdfrwt beam="1">  1       21 0.11872658E+00 0.44391462E+03</pdfrwt>
<pdfrwt beam="2">  1       21 0.84066484E-01 0.44391462E+03</pdfrwt>
<totfact> 0.56020347E+02</totfact>
</mgrwt>
</event>
<event>
 4    1  0.4897983E-002  0.5723006E+03  0.7818608E-02  0.9964601E-01
         21   -1    0    0  501  502  0.00000000000E+00  0.00000000000E+00  0.57890424360E+03  0.57890424360E+03  0.00000000000E+00 0. -1.
         21   -1    0    0  502  503 -0.00000000000E+00 -0.00000000000E+00 -0.56763062473E+03  0.56763062473E+03  0.00000000000E+00 0.  1.
    9000007    1    1    2  501    0 -0.37483070190E+03 -0.16440766822E+03 -0.27164791487E+02  0.57294490342E+03  0.40000000000E+03 0.  1.
   -9000007    1    1    2    0  503  0.37483070190E+03  0.16440766822E+03  0.38438410351E+02  0.57358996491E+03  0.40000000000E+03 0.  1.
<mgrwt>
<rscale>  2 0.57230056E+03</rscale>
<asrwt>0</asrwt>
<pdfrwt beam="1">  1       21 0.89062191E-01 0.57230056E+03</pdfrwt>
<pdfrwt beam="2">  1       21 0.87327789E-01 0.57230056E+03</pdfrwt>
<totfact> 0.98710044E+02</totfact>
</mgrwt>
</event>
<event>
 4    1  0.4897983E-002  0.6559802E+03  0.7818608E-02  0.9795622E-01
         21   -1    0    0  501  502  0.00000000000E+00  0.00000000000E+00  0.12671481136E+04  0.12671481136E+04  0.00000000000E+00 0.  1.
         21   -1    0    0  502  503 -0.00000000000E+00 -0.00000000000E+00 -0.62820734700E+03  0.62820734700E+03  0.00000000000E+00 0.  1.
    9000007    1    1    2  501    0  0.49879171390E+03 -0.14668611911E+03  0.96181913033E+03  0.11642190648E+04  0.40000000000E+03 0.  1.
   -9000007    1    1    2    0  503 -0.49879171390E+03  0.14668611911E+03 -0.32287836377E+03  0.73113639575E+03  0.40000000000E+03 0.  1.
<mgrwt>
<rscale>  2 0.65598018E+03</rscale>
<asrwt>0</asrwt>
<pdfrwt beam="1">  1       21 0.19494586E+00 0.65598018E+03</pdfrwt>
<pdfrwt beam="2">  1       21 0.96647285E-01 0.65598018E+03</pdfrwt>
<totfact> 0.93363969E+01</totfact>
</mgrwt>
</event>
<event>
 4    1  0.4897983E-002  0.4909628E+03  0.7818608E-02  0.1016165E+00
         21   -1    0    0  503  502  0.00000000000E+00  0.00000000000E+00  0.14688365928E+04  0.14688365928E+04  0.00000000000E+00 0. -1.
         21   -1    0    0  501  503 -0.00000000000E+00 -0.00000000000E+00 -0.18103201666E+03  0.18103201666E+03  0.00000000000E+00 0. -1.
    9000007    1    1    2  501    0 -0.11296492031E+03 -0.26131096204E+03  0.39165727112E+03  0.62804451285E+03  0.40000000000E+03 0. -1.
   -9000007    1    1    2    0  502  0.11296492031E+03  0.26131096204E+03  0.89614730506E+03  0.10218240966E+04  0.40000000000E+03 0. -1.
<mgrwt>
<rscale>  2 0.49096282E+03</rscale>
<asrwt>0</asrwt>
<pdfrwt beam="1">  1       21 0.22597485E+00 0.49096282E+03</pdfrwt>
<pdfrwt beam="2">  1       21 0.27851080E-01 0.49096282E+03</pdfrwt>
<totfact> 0.92390122E+02</totfact>
</mgrwt>
</event>
<event>
 4    1  0.4897983E-002  0.4024366E+03  0.7818608E-02  0.1042939E+00
         21   -1    0    0  501  502  0.00000000000E+00  0.00000000000E+00  0.26743522288E+03  0.26743522288E+03  0.00000000000E+00 0.  1.
         21   -1    0    0  502  503 -0.00000000000E+00 -0.00000000000E+00 -0.10652021169E+04  0.10652021169E+04  0.00000000000E+00 0.  1.
    9000007    1    1    2  501    0  0.44206905588E+02 -0.99325561640E+00  0.38803127160E+02  0.40430300486E+03  0.40000000000E+03 0.  1.
   -9000007    1    1    2    0  503 -0.44206905588E+02  0.99325561640E+00 -0.83657002114E+03  0.92833433488E+03  0.40000000000E+03 0.  1.
<mgrwt>
<rscale>  2 0.40243662E+03</rscale>
<asrwt>0</asrwt>
<pdfrwt beam="1">  1       21 0.41143881E-01 0.40243662E+03</pdfrwt>
<pdfrwt beam="2">  1       21 0.16387725E+00 0.40243662E+03</pdfrwt>
<totfact> 0.11578732E+03</totfact>
</mgrwt>
</event>
<event>
 4    1  0.4897983E-002  0.4005169E+03  0.7818608E-02  0.1043601E+00
         21   -1    0    0  501  502  0.00000000000E+00  0.00000000000E+00  0.33250960424E+03  0.33250960424E+03  0.00000000000E+00 0. -1.
         21   -1    0    0  502  503 -0.00000000000E+00 -0.00000000000E+00 -0.48247279086E+03  0.48247279086E+03  0.00000000000E+00 0. -1.
    9000007    1    1    2  501    0 -0.72294527278E+01  0.19014564977E+02 -0.78652329374E+02  0.40816664193E+03  0.40000000000E+03 0.  1.
   -9000007    1    1    2    0  503  0.72294527278E+01 -0.19014564977E+02 -0.71310857239E+02  0.40681575317E+03  0.40000000000E+03 0.  1.
<mgrwt>
<rscale>  2 0.40051694E+03</rscale>
<asrwt>0</asrwt>
<pdfrwt beam="1">  1       21 0.51155324E-01 0.40051694E+03</pdfrwt>
<pdfrwt beam="2">  1       21 0.74226583E-01 0.40051694E+03</pdfrwt>
<totfact> 0.52953462E+03</totfact>
</mgrwt>
</event>
<event>
 4    1  0.4897983E-002  0.4312514E+03  0.7818608E-02  0.1033465E+00
         21   -1    0    0  503  502  0.00000000000E+00  0.00000000000E+00  0.23369570845E+04  0.23369570845E+04  0.00000000000E+00 0. -1.
         21   -1    0    0  501  503 -0.00000000000E+00 -0.00000000000E+00 -0.81081690814E+02  0.81081690814E+02  0.00000000000E+00 0. -1.
    9000007    1    1    2  501    0  0.10043513294E+03  0.12605787118E+03  0.96346591198E+03  0.10555777406E+04  0.40000000000E+03 0. -1.
   -9000007    1    1    2    0  502 -0.10043513294E+03 -0.12605787118E+03  0.12924094817E+04  0.13624610347E+04  0.40000000000E+03 0. -1.
<mgrwt>
<rscale>  2 0.43125144E+03</rscale>
<asrwt>0</asrwt>
<pdfrwt beam="1">  1       21 0.35953181E+00 0.43125144E+03</pdfrwt>
<pdfrwt beam="2">  1       21 0.12474108E-01 0.43125144E+03</pdfrwt>
<totfact> 0.66910701E+02</totfact>
</mgrwt>
</event>
<event>
 4    1  0.4897983E-002  0.4072578E+03  0.7818608E-02  0.1041295E+00
         21   -1    0    0  501  502  0.00000000000E+00  0.00000000000E+00  0.19290106200E+03  0.19290106200E+03  0.00000000000E+00 0. -1.
         21   -1    0    0  502  503 -0.00000000000E+00 -0.00000000000E+00 -0.95898553032E+03  0.95898553032E+03  0.00000000000E+00 0. -1.
    9000007    1    1    2  501    0 -0.21328441676E+02 -0.73512205350E+02 -0.56825383902E+03  0.69912185799E+03  0.40000000000E+03 0. -1.
   -9000007    1    1    2    0  503  0.21328441676E+02  0.73512205350E+02 -0.19783062931E+03  0.45276473433E+03  0.40000000000E+03 0. -1.
<mgrwt>
<rscale>  2 0.40725784E+03</rscale>
<asrwt>0</asrwt>
<pdfrwt beam="1">  1       21 0.29677087E-01 0.40725784E+03</pdfrwt>
<pdfrwt beam="2">  1       21 0.14753623E+00 0.40725784E+03</pdfrwt>
<totfact> 0.29816687E+03</totfact>
</mgrwt>
</event>
<event>
 4    1  0.4897983E-002  0.4030356E+03  0.7818608E-02  0.1042734E+00
         21   -1    0    0  503  502  0.00000000000E+00  0.00000000000E+00  0.12639198957E+04  0.12639198957E+04  0.00000000000E+00 0.  1.
         21   -1    0    0  501  503 -0.00000000000E+00 -0.00000000000E+00 -0.12946989908E+03  0.12946989908E+03  0.00000000000E+00 0.  1.
    9000007    1    1    2  501    0 -0.42287214484E+02  0.25485036867E+02  0.62693265658E+03  0.74530681702E+03  0.40000000000E+03 0. -1.
   -9000007    1    1    2    0  502  0.42287214484E+02 -0.25485036867E+02  0.50751733999E+03  0.64808297772E+03  0.40000000000E+03 0. -1.
<mgrwt>
<rscale>  2 0.40303560E+03</rscale>
<asrwt>0</asrwt>
<pdfrwt beam="1">  1       21 0.19444921E+00 0.40303560E+03</pdfrwt>
<pdfrwt beam="2">  1       21 0.19918447E-01 0.40303560E+03</pdfrwt>
<totfact> 0.29517075E+03</totfact>
</mgrwt>
</event>
<event>
 4    1  0.4897983E-002  0.4318383E+03  0.7818608E-02  0.1033281E+00
         21   -1    0    0  501  502  0.00000000000E+00  0.00000000000E+00  0.40756928768E+03  0.40756928768E+03  0.00000000000E+00 0.  1.
         21   -1    0    0  502  503 -0.00000000000E+00 -0.00000000000E+00 -0.79024605199E+03  0.79024605199E+03  0.00000000000E+00 0.  1.
    9000007    1    1    2  501    0  0.10785855067E+03  0.12186416296E+03  0.19725992816E+03  0.47475869705E+03  0.40000000000E+03 0.  1.
   -9000007    1    1    2    0  503 -0.10785855067E+03 -0.12186416296E+03 -0.57993669247E+03  0.72305664262E+03  0.40000000000E+03 0.  1.
<mgrwt>
<rscale>  2 0.43183833E+03</rscale>
<asrwt>0</asrwt>
<pdfrwt beam="1">  1       21 0.62702967E-01 0.43183833E+03</pdfrwt>
<pdfrwt beam="2">  1       21 0.12157632E+00 0.43183833E+03</pdfrwt>
<totfact> 0.10306644E+03</totfact>
</mgrwt>
</event>
<event>
 4    1  0.4897983E-002  0.6609305E+03  0.7818608E-02  0.9786482E-01
         21   -1    0    0  501  502  0.00000000000E+00  0.00000000000E+00  0.58680155137E+03  0.58680155137E+03  0.00000000000E+00 0.  1.
         21   -1    0    0  502  503 -0.00000000000E+00 -0.00000000000E+00 -0.91403806268E+03  0.91403806268E+03  0.00000000000E+00 0. -1.
    9000007    1    1    2  501    0 -0.38127629612E+03 -0.36257062755E+03  0.15964270548E+03  0.67993739959E+03  0.40000000000E+03 0.  1.
   -9000007    1    1    2    0  503  0.38127629612E+03  0.36257062755E+03 -0.48687921680E+03  0.82090221446E+03  0.40000000000E+03 0.  1.
<mgrwt>
<rscale>  2 0.66093046E+03</rscale>
<asrwt>0</asrwt>
<pdfrwt beam="1">  1       21 0.90277162E-01 0.66093046E+03</pdfrwt>
<pdfrwt beam="2">  1       21 0.14062124E+00 0.66093046E+03</pdfrwt>
<totfact> 0.28026036E+02</totfact>
</mgrwt>
</event>
<event>
 4    1  0.4897983E-002  0.4120725E+03  0.7818608E-02  0.1039678E+00
         21   -1    0    0  501  502  0.00000000000E+00  0.00000000000E+00  0.15791917107E+03  0.15791917107E+03  0.00000000000E+00 0.  1.
         21   -1    0    0  502  503 -0.00000000000E+00 -0.00000000000E+00 -0.12656218757E+04  0.12656218757E+04  0.00000000000E+00 0.  1.
    9000007    1    1    2  501    0 -0.70675652959E+02  0.69344904587E+02 -0.27780569499E+03  0.49697059056E+03  0.40000000000E+03 0.  1.
   -9000007    1    1    2    0  503  0.70675652959E+02 -0.69344904587E+02 -0.82989700966E+03  0.92657045623E+03  0.40000000000E+03 0.  1.
<mgrwt>
<rscale>  2 0.41207252E+03</rscale>
<asrwt>0</asrwt>
<pdfrwt beam="1">  1       21 0.24295257E-01 0.41207252E+03</pdfrwt>
<pdfrwt beam="2">  1       21 0.19471106E+00 0.41207252E+03</pdfrwt>
<totfact> 0.20002833E+03</totfact>
</mgrwt>
</event>
<event>
 4    1  0.4897983E-002  0.7190554E+03  0.7818608E-02  0.9685189E-01
         21   -1    0    0  503  502  0.00000000000E+00  0.00000000000E+00  0.72257051686E+03  0.72257051686E+03  0.00000000000E+00 0. -1.
         21   -1    0    0  501  503 -0.00000000000E+00 -0.00000000000E+00 -0.74191561261E+03  0.74191561261E+03  0.00000000000E+00 0. -1.
    9000007    1    1    2  501    0  0.72320615937E+02  0.59313604320E+03  0.12834569117E+03  0.73041991599E+03  0.40000000000E+03 0. -1.
   -9000007    1    1    2    0  502 -0.72320615937E+02 -0.59313604320E+03 -0.14769078692E+03  0.73406621348E+03  0.40000000000E+03 0. -1.
<mgrwt>
<rscale>  2 0.71905538E+03</rscale>
<asrwt>0</asrwt>
<pdfrwt beam="1">  1       21 0.11116469E+00 0.71905538E+03</pdfrwt>
<pdfrwt beam="2">  1       21 0.11414086E+00 0.71905538E+03</pdfrwt>
<totfact> 0.28460891E+02</totfact>
</mgrwt>
</event>
<event>
 4    1  0.4897983E-002  0.4212794E+03  0.7818608E-02  0.1036651E+00
         21   -1    0    0  501  502  0.00000000000E+00  0.00000000000E+00  0.98195601463E+03  0.98195601463E+03  0.00000000000E+00 0.  1.
         21   -1    0    0  502  503 -0.00000000000E+00 -0.00000000000E+00 -0.31894655818E+03  0.31894655818E+03  0.00000000000E+00 0.  1.
    9000007    1    1    2  501    0  0.13111332200E+03 -0.16900477232E+02  0.75968236819E+03  0.86867348865E+03  0.40000000000E+03 0.  1.
   -9000007    1    1    2    0  503 -0.13111332200E+03  0.16900477232E+02 -0.96672911738E+02  0.43222908417E+03  0.40000000000E+03 0.  1.
<mgrwt>
<rscale>  2 0.42127940E+03</rscale>
<asrwt>0</asrwt>
<pdfrwt beam="1">  1       21 0.15107015E+00 0.42127940E+03</pdfrwt>
<pdfrwt beam="2">  1       21 0.49068702E-01 0.42127940E+03</pdfrwt>
<totfact> 0.99388623E+02</totfact>
</mgrwt>
</event>
<event>
 4    1  0.4897983E-002  0.4440805E+03  0.7818608E-02  0.1029502E+00
         21   -1    0    0  503  502  0.00000000000E+00  0.00000000000E+00  0.41958167742E+03  0.41958167742E+03  0.00000000000E+00 0. -1.
         21   -1    0    0  501  503 -0.00000000000E+00 -0.00000000000E+00 -0.98945745043E+03  0.98945745043E+03  0.00000000000E+00 0.  1.
    9000007    1    1    2  501    0  0.12458618063E+03  0.14726101421E+03 -0.79540217751E+03  0.91097318660E+03  0.40000000000E+03 0.  1.
   -9000007    1    1    2    0  502 -0.12458618063E+03 -0.14726101421E+03  0.22552640449E+03  0.49806594125E+03  0.40000000000E+03 0. -1.
<mgrwt>
<rscale>  2 0.44408054E+03</rscale>
<asrwt>0</asrwt>
<pdfrwt beam="1">  1       21 0.64551028E-01 0.44408054E+03</pdfrwt>
<pdfrwt beam="2">  1       21 0.15222422E+00 0.44408054E+03</pdfrwt>
<totfact> 0.53177051E+02</totfact>
</mgrwt>
</event>
<event>
 4    1  0.4897983E-002  0.5754949E+03  0.7818608E-02  0.9957592E-01
         21   -1    0    0  503  502  0.00000000000E+00  0.00000000000E+00  0.49901842665E+03  0.49901842665E+03  0.00000000000E+00 0. -1.
         21   -1    0    0  501  503 -0.00000000000E+00 -0.00000000000E+00 -0.75513209362E+03  0.75513209362E+03  0.00000000000E+00 0. -1.
    9000007    1    1    2  501    0 -0.33111842262E+03  0.24810283702E+03 -0.34626804354E+03  0.67163679583E+03  0.40000000000E+03 0. -1.
   -9000007    1    1    2    0  502  0.33111842262E+03 -0.24810283702E+03  0.90154376572E+02  0.58251372443E+03  0.40000000000E+03 0. -1.
<mgrwt>
<rscale>  2 0.57549494E+03</rscale>
<asrwt>0</asrwt>
<pdfrwt beam="1">  1       21 0.76772065E-01 0.57549494E+03</pdfrwt>
<pdfrwt beam="2">  1       21 0.11617417E+00 0.57549494E+03</pdfrwt>
<totfact> 0.69403046E+02</totfact>
</mgrwt>
</event>
<event>
 4    1  0.4897983E-002  0.6713304E+03  0.7818608E-02  0.9767558E-01
         21   -1    0    0  501  502  0.00000000000E+00  0.00000000000E+00  0.36067788567E+03  0.36067788567E+03  0.00000000000E+00 0.  1.
         21   -1    0    0  502  503 -0.00000000000E+00 -0.00000000000E+00 -0.13275371526E+04  0.13275371526E+04  0.00000000000E+00 0. -1.
    9000007    1    1    2  501    0  0.46398927588E+03  0.27458767797E+03 -0.27883667814E+03  0.72693488986E+03  0.40000000000E+03 0.  1.
   -9000007    1    1    2    0  503 -0.46398927588E+03 -0.27458767797E+03 -0.68802258874E+03  0.96128014837E+03  0.40000000000E+03 0. -1.
<mgrwt>
<rscale>  2 0.67133035E+03</rscale>
<asrwt>0</asrwt>
<pdfrwt beam="1">  1       21 0.55488906E-01 0.67133035E+03</pdfrwt>
<pdfrwt beam="2">  1       21 0.20423648E+00 0.67133035E+03</pdfrwt>
<totfact> 0.28713314E+02</totfact>
</mgrwt>
</event>
<event>
 4    1  0.4897983E-002  0.6649543E+03  0.7818608E-02  0.9779116E-01
         21   -1    0    0  501  502  0.00000000000E+00  0.00000000000E+00  0.55055641668E+03  0.55055641668E+03  0.00000000000E+00 0. -1.
         21   -1    0    0  502  503 -0.00000000000E+00 -0.00000000000E+00 -0.15327075879E+04  0.15327075879E+04  0.00000000000E+00 0.  1.
    9000007    1    1    2  501    0  0.48355544415E+03  0.21985970193E+03  0.22758310782E+03  0.70282161824E+03  0.40000000000E+03 0. -1.
   -9000007    1    1    2    0  503 -0.48355544415E+03 -0.21985970193E+03 -0.12097342790E+04  0.13804423863E+04  0.40000000000E+03 0.  1.
<mgrwt>
<rscale>  2 0.66495425E+03</rscale>
<asrwt>0</asrwt>
<pdfrwt beam="1">  1       21 0.84700989E-01 0.66495425E+03</pdfrwt>
<pdfrwt beam="2">  1       21 0.23580116E+00 0.66495425E+03</pdfrwt>
<totfact> 0.68766702E+01</totfact>
</mgrwt>
</event>
<event>
 4    1  0.4897983E-002  0.4142869E+03  0.7818608E-02  0.1038942E+00
         21   -1    0    0  501  502  0.00000000000E+00  0.00000000000E+00  0.13452307148E+04  0.13452307148E+04  0.00000000000E+00 0. -1.
         21   -1    0    0  502  503 -0.00000000000E+00 -0.00000000000E+00 -0.12768709565E+03  0.12768709565E+03  0.00000000000E+00 0. -1.
    9000007    1    1    2  501    0  0.44679848750E+02  0.98170127680E+02  0.62941358927E+03  0.75352181734E+03  0.40000000000E+03 0.  1.
   -9000007    1    1    2    0  503 -0.44679848750E+02 -0.98170127680E+02  0.58813002988E+03  0.71939599311E+03  0.40000000000E+03 0.  1.
<mgrwt>
<rscale>  2 0.41428693E+03</rscale>
<asrwt>0</asrwt>
<pdfrwt beam="1">  1       21 0.20695856E+00 0.41428693E+03</pdfrwt>
<pdfrwt beam="2">  1       21 0.19644169E-01 0.41428693E+03</pdfrwt>
<totfact> 0.24903685E+03</totfact>
</mgrwt>
</event>
<event>
 4    1  0.4897983E-002  0.4514397E+03  0.7818608E-02  0.1027294E+00
         21   -1    0    0  501  502  0.00000000000E+00  0.00000000000E+00  0.24404023774E+03  0.24404023774E+03  0.00000000000E+00 0.  1.
         21   -1    0    0  502  503 -0.00000000000E+00 -0.00000000000E+00 -0.14861467057E+04  0.14861467057E+04  0.00000000000E+00 0.  1.
    9000007    1    1    2  501    0  0.20416997894E+03 -0.45961402922E+02 -0.48470166790E+02  0.45403434664E+03  0.40000000000E+03 0.  1.
   -9000007    1    1    2    0  503 -0.20416997894E+03  0.45961402922E+02 -0.11936363011E+04  0.12761525968E+04  0.40000000000E+03 0.  1.
<mgrwt>
<rscale>  2 0.45143973E+03</rscale>
<asrwt>0</asrwt>
<pdfrwt beam="1">  1       21 0.37544651E-01 0.45143973E+03</pdfrwt>
<pdfrwt beam="2">  1       21 0.22863796E+00 0.45143973E+03</pdfrwt>
<totfact> 0.49739273E+02</totfact>
</mgrwt>
</event>
<event>
 4    1  0.4897983E-002  0.5070010E+03  0.7818608E-02  0.1011968E+00
         21   -1    0    0  501  502  0.00000000000E+00  0.00000000000E+00  0.56066458290E+03  0.56066458290E+03  0.00000000000E+00 0. -1.
         21   -1    0    0  502  503 -0.00000000000E+00 -0.00000000000E+00 -0.70275349510E+03  0.70275349510E+03  0.00000000000E+00 0. -1.
    9000007    1    1    2  501    0 -0.16068137190E+03 -0.26689224228E+03  0.30139814178E+03  0.58982269551E+03  0.40000000000E+03 0. -1.
   -9000007    1    1    2    0  503  0.16068137190E+03  0.26689224228E+03 -0.44348705398E+03  0.67359538249E+03  0.40000000000E+03 0. -1.
<mgrwt>
<rscale>  2 0.50700096E+03</rscale>
<asrwt>0</asrwt>
<pdfrwt beam="1">  1       21 0.86256090E-01 0.50700096E+03</pdfrwt>
<pdfrwt beam="2">  1       21 0.10811592E+00 0.50700096E+03</pdfrwt>
<totfact> 0.64908545E+02</totfact>
</mgrwt>
</event>
<event>
 4    1  0.4897983E-002  0.5636955E+03  0.7818608E-02  0.9983727E-01
         21   -1    0    0  501  502  0.00000000000E+00  0.00000000000E+00  0.37751932200E+03  0.37751932200E+03  0.00000000000E+00 0.  1.
         21   -1    0    0  502  503 -0.00000000000E+00 -0.00000000000E+00 -0.13179884726E+04  0.13179884726E+04  0.00000000000E+00 0. -1.
    9000007    1    1    2  501    0 -0.15226010736E+03  0.36683713526E+03 -0.97986521746E+03  0.11304372908E+04  0.40000000000E+03 0. -1.
   -9000007    1    1    2    0  503  0.15226010736E+03 -0.36683713526E+03  0.39396066900E+02  0.56507050373E+03  0.40000000000E+03 0.  1.
<mgrwt>
<rscale>  2 0.56369551E+03</rscale>
<asrwt>0</asrwt>
<pdfrwt beam="1">  1       21 0.58079896E-01 0.56369551E+03</pdfrwt>
<pdfrwt beam="2">  1       21 0.20276746E+00 0.56369551E+03</pdfrwt>
<totfact> 0.27662344E+02</totfact>
</mgrwt>
</event>
<event>
 4    1  0.4897983E-002  0.4100841E+03  0.7818608E-02  0.1040343E+00
         21   -1    0    0  503  502  0.00000000000E+00  0.00000000000E+00  0.26460386404E+03  0.26460386404E+03  0.00000000000E+00 0.  1.
         21   -1    0    0  501  503 -0.00000000000E+00 -0.00000000000E+00 -0.10908209616E+04  0.10908209616E+04  0.00000000000E+00 0.  1.
    9000007    1    1    2  501    0  0.90205444698E+02 -0.56557368250E+01 -0.85093665257E+03  0.94459631393E+03  0.40000000000E+03 0.  1.
   -9000007    1    1    2    0  502 -0.90205444698E+02  0.56557368250E+01  0.24719555037E+02  0.41082851169E+03  0.40000000000E+03 0.  1.
<mgrwt>
<rscale>  2 0.41008415E+03</rscale>
<asrwt>0</asrwt>
<pdfrwt beam="1">  1       21 0.40708287E-01 0.41008415E+03</pdfrwt>
<pdfrwt beam="2">  1       21 0.16781861E+00 0.41008415E+03</pdfrwt>
<totfact> 0.11029467E+03</totfact>
</mgrwt>
</event>
<event>
 4    1  0.4897983E-002  0.4279752E+03  0.7818608E-02  0.1034501E+00
         21   -1    0    0  501  502  0.00000000000E+00  0.00000000000E+00  0.10565370607E+04  0.10565370607E+04  0.00000000000E+00 0. -1.
         21   -1    0    0  502  503 -0.00000000000E+00 -0.00000000000E+00 -0.18281930597E+03  0.18281930597E+03  0.00000000000E+00 0. -1.
    9000007    1    1    2  501    0  0.97613807294E+01 -0.15187995499E+03  0.57780441890E+03  0.71904155081E+03  0.40000000000E+03 0. -1.
   -9000007    1    1    2    0  503 -0.97613807294E+01  0.15187995499E+03  0.29591333581E+03  0.52031481585E+03  0.40000000000E+03 0. -1.
<mgrwt>
<rscale>  2 0.42797524E+03</rscale>
<asrwt>0</asrwt>
<pdfrwt beam="1">  1       21 0.16254416E+00 0.42797524E+03</pdfrwt>
<pdfrwt beam="2">  1       21 0.28126048E-01 0.42797524E+03</pdfrwt>
<totfact> 0.25200004E+03</totfact>
</mgrwt>
</event>
<event>
 4    1  0.4897983E-002  0.4275024E+03  0.7818608E-02  0.1034652E+00
         21   -1    0    0  503  502  0.00000000000E+00  0.00000000000E+00  0.12088120054E+03  0.12088120054E+03  0.00000000000E+00 0.  1.
         21   -1    0    0  501  503 -0.00000000000E+00 -0.00000000000E+00 -0.18095943984E+04  0.18095943984E+04  0.00000000000E+00 0.  1.
    9000007    1    1    2  501    0 -0.27689427005E+01 -0.15083327341E+03 -0.12358647056E+04  0.13077155325E+04  0.40000000000E+03 0.  1.
   -9000007    1    1    2    0  502  0.27689427005E+01  0.15083327341E+03 -0.45284849233E+03  0.62276006649E+03  0.40000000000E+03 0.  1.
<mgrwt>
<rscale>  2 0.42750245E+03</rscale>
<asrwt>0</asrwt>
<pdfrwt beam="1">  1       21 0.18597110E-01 0.42750245E+03</pdfrwt>
<pdfrwt beam="2">  1       21 0.27839911E+00 0.42750245E+03</pdfrwt>
<totfact> 0.98869779E+02</totfact>
</mgrwt>
</event>
<event>
 4    1  0.4897983E-002  0.4216284E+03  0.7818608E-02  0.1036538E+00
         21   -1    0    0  501  502  0.00000000000E+00  0.00000000000E+00  0.29598428935E+03  0.29598428935E+03  0.00000000000E+00 0.  1.
         21   -1    0    0  502  503 -0.00000000000E+00 -0.00000000000E+00 -0.80028665599E+03  0.80028665599E+03  0.00000000000E+00 0.  1.
    9000007    1    1    2  501    0  0.33203594098E+02  0.12910486747E+03  0.21647209064E+02  0.42218378359E+03  0.40000000000E+03 0.  1.
   -9000007    1    1    2    0  503 -0.33203594098E+02 -0.12910486747E+03 -0.52594957571E+03  0.67408716176E+03  0.40000000000E+03 0.  1.
<mgrwt>
<rscale>  2 0.42162844E+03</rscale>
<asrwt>0</asrwt>
<pdfrwt beam="1">  1       21 0.45536045E-01 0.42162844E+03</pdfrwt>
<pdfrwt beam="2">  1       21 0.12312102E+00 0.42162844E+03</pdfrwt>
<totfact> 0.19926018E+03</totfact>
</mgrwt>
</event>
<event>
 4    1  0.4897983E-002  0.4648455E+03  0.7818608E-02  0.1023385E+00
         21   -1    0    0  501  502  0.00000000000E+00  0.00000000000E+00  0.12569704733E+04  0.12569704733E+04  0.00000000000E+00 0.  1.
         21   -1    0    0  502  503 -0.00000000000E+00 -0.00000000000E+00 -0.18648536457E+03  0.18648536457E+03  0.00000000000E+00 0.  1.
    9000007    1    1    2  501    0 -0.21053840016E+03 -0.10841996808E+03  0.33344587603E+03  0.57207294960E+03  0.40000000000E+03 0.  1.
   -9000007    1    1    2    0  503  0.21053840016E+03  0.10841996808E+03  0.73703923269E+03  0.87138288825E+03  0.40000000000E+03 0.  1.
<mgrwt>
<rscale>  2 0.46484547E+03</rscale>
<asrwt>0</asrwt>
<pdfrwt beam="1">  1       21 0.19338007E+00 0.46484547E+03</pdfrwt>
<pdfrwt beam="2">  1       21 0.28690057E-01 0.46484547E+03</pdfrwt>
<totfact> 0.14410997E+03</totfact>
</mgrwt>
</event>
<event>
 4    1  0.4897983E-002  0.4449954E+03  0.7818608E-02  0.1029225E+00
         21   -1    0    0  503  502  0.00000000000E+00  0.00000000000E+00  0.47469734445E+03  0.47469734445E+03  0.00000000000E+00 0. -1.
         21   -1    0    0  501  503 -0.00000000000E+00 -0.00000000000E+00 -0.50498633916E+03  0.50498633916E+03  0.00000000000E+00 0. -1.
    9000007    1    1    2  501    0 -0.35213254863E+02 -0.19178364276E+03 -0.21943504543E+03  0.49615791651E+03  0.40000000000E+03 0. -1.
   -9000007    1    1    2    0  502  0.35213254863E+02  0.19178364276E+03  0.18914605072E+03  0.48352576710E+03  0.40000000000E+03 0. -1.
<mgrwt>
<rscale>  2 0.44499544E+03</rscale>
<asrwt>0</asrwt>
<pdfrwt beam="1">  1       21 0.73030362E-01 0.44499544E+03</pdfrwt>
<pdfrwt beam="2">  1       21 0.77690205E-01 0.44499544E+03</pdfrwt>
<totfact> 0.21473782E+03</totfact>
</mgrwt>
</event>
<event>
 4    1  0.4897983E-002  0.5213315E+03  0.7818608E-02  0.1008356E+00
         21   -1    0    0  503  502  0.00000000000E+00  0.00000000000E+00  0.49963622793E+03  0.49963622793E+03  0.00000000000E+00 0. -1.
         21   -1    0    0  501  503 -0.00000000000E+00 -0.00000000000E+00 -0.54815769596E+03  0.54815769596E+03  0.00000000000E+00 0. -1.
    9000007    1    1    2  501    0  0.77305638923E+02 -0.32528512259E+03  0.21536301202E+02  0.52177618292E+03  0.40000000000E+03 0. -1.
   -9000007    1    1    2    0  502 -0.77305638923E+02  0.32528512259E+03 -0.70057769236E+02  0.52601774097E+03  0.40000000000E+03 0. -1.
<mgrwt>
<rscale>  2 0.52133154E+03</rscale>
<asrwt>0</asrwt>
<pdfrwt beam="1">  1       21 0.76867112E-01 0.52133154E+03</pdfrwt>
<pdfrwt beam="2">  1       21 0.84331953E-01 0.52133154E+03</pdfrwt>
<totfact> 0.15373462E+03</totfact>
</mgrwt>
</event>
<event>
 4    1  0.4897983E-002  0.4046590E+03  0.7818608E-02  0.1042178E+00
         21   -1    0    0  501  502  0.00000000000E+00  0.00000000000E+00  0.45164070227E+03  0.45164070227E+03  0.00000000000E+00 0. -1.
         21   -1    0    0  502  503 -0.00000000000E+00 -0.00000000000E+00 -0.62219618233E+03  0.62219618233E+03  0.00000000000E+00 0. -1.
    9000007    1    1    2  501    0  0.30749098535E+02  0.52947414702E+02  0.26155764663E+03  0.48183123425E+03  0.40000000000E+03 0. -1.
   -9000007    1    1    2    0  503 -0.30749098535E+02 -0.52947414702E+02 -0.43211312669E+03  0.59200565035E+03  0.40000000000E+03 0. -1.
<mgrwt>
<rscale>  2 0.40465904E+03</rscale>
<asrwt>0</asrwt>
<pdfrwt beam="1">  1       21 0.69483185E-01 0.40465904E+03</pdfrwt>
<pdfrwt beam="2">  1       21 0.95722489E-01 0.40465904E+03</pdfrwt>
<totfact> 0.14972433E+03</totfact>
</mgrwt>
</event>
<event>
 4    1  0.4897983E-002  0.4756991E+03  0.7818608E-02  0.1020324E+00
         21   -1    0    0  501  502  0.00000000000E+00  0.00000000000E+00  0.18354093339E+04  0.18354093339E+04  0.00000000000E+00 0. -1.
         21   -1    0    0  502  503 -0.00000000000E+00 -0.00000000000E+00 -0.16996910859E+03  0.16996910859E+03  0.00000000000E+00 0. -1.
    9000007    1    1    2  501    0  0.89575961738E+02 -0.24138312414E+03  0.13581774155E+04  0.14390745489E+04  0.40000000000E+03 0. -1.
   -9000007    1    1    2    0  503 -0.89575961738E+02  0.24138312414E+03  0.30726280987E+03  0.56630389357E+03  0.40000000000E+03 0. -1.
<mgrwt>
<rscale>  2 0.47569913E+03</rscale>
<asrwt>0</asrwt>
<pdfrwt beam="1">  1       21 0.28237065E+00 0.47569913E+03</pdfrwt>
<pdfrwt beam="2">  1       21 0.26149095E-01 0.47569913E+03</pdfrwt>
<totfact> 0.47356019E+02</totfact>
</mgrwt>
</event>
<event>
 4    1  0.4897983E-002  0.4123052E+03  0.7818608E-02  0.1039600E+00
         21   -1    0    0  501  502  0.00000000000E+00  0.00000000000E+00  0.55876089683E+03  0.55876089683E+03  0.00000000000E+00 0.  1.
         21   -1    0    0  502  503 -0.00000000000E+00 -0.00000000000E+00 -0.36614680828E+03  0.36614680828E+03  0.00000000000E+00 0. -1.
    9000007    1    1    2  501    0 -0.16216894925E+02  0.98653904612E+02  0.28646806471E+03  0.50205530838E+03  0.40000000000E+03 0.  1.
   -9000007    1    1    2    0  503  0.16216894925E+02 -0.98653904612E+02 -0.93853976165E+02  0.42285239673E+03  0.40000000000E+03 0. -1.
<mgrwt>
<rscale>  2 0.41230520E+03</rscale>
<asrwt>0</asrwt>
<pdfrwt beam="1">  1       21 0.85963215E-01 0.41230520E+03</pdfrwt>
<pdfrwt beam="2">  1       21 0.56330278E-01 0.41230520E+03</pdfrwt>
<totfact> 0.30565224E+03</totfact>
</mgrwt>
</event>
<event>
 4    1  0.4897983E-002  0.4122496E+03  0.7818608E-02  0.1039619E+00
         21   -1    0    0  503  502  0.00000000000E+00  0.00000000000E+00  0.33393853606E+03  0.33393853606E+03  0.00000000000E+00 0.  1.
         21   -1    0    0  501  503 -0.00000000000E+00 -0.00000000000E+00 -0.50932968602E+03  0.50932968602E+03  0.00000000000E+00 0.  1.
    9000007    1    1    2  501    0  0.65183548732E+02  0.75503952090E+02 -0.75813861768E+02  0.41916283643E+03  0.40000000000E+03 0. -1.
   -9000007    1    1    2    0  502 -0.65183548732E+02 -0.75503952090E+02 -0.99577288193E+02  0.42410538564E+03  0.40000000000E+03 0. -1.
<mgrwt>
<rscale>  2 0.41224961E+03</rscale>
<asrwt>0</asrwt>
<pdfrwt beam="1">  1       21 0.51375159E-01 0.41224961E+03</pdfrwt>
<pdfrwt beam="2">  1       21 0.78358413E-01 0.41224961E+03</pdfrwt>
<totfact> 0.46167197E+03</totfact>
</mgrwt>
</event>
<event>
 4    1  0.4897983E-002  0.4515105E+03  0.7818608E-02  0.1027273E+00
         21   -1    0    0  503  502  0.00000000000E+00  0.00000000000E+00  0.10494920674E+04  0.10494920674E+04  0.00000000000E+00 0. -1.
         21   -1    0    0  501  503 -0.00000000000E+00 -0.00000000000E+00 -0.29500042335E+03  0.29500042335E+03  0.00000000000E+00 0. -1.
    9000007    1    1    2  501    0  0.15885398059E+03  0.13648139080E+03 -0.15620472588E+02  0.45178065070E+03  0.40000000000E+03 0. -1.
   -9000007    1    1    2    0  502 -0.15885398059E+03 -0.13648139080E+03  0.77011211668E+03  0.89271184009E+03  0.40000000000E+03 0. -1.
<mgrwt>
<rscale>  2 0.45151053E+03</rscale>
<asrwt>0</asrwt>
<pdfrwt beam="1">  1       21 0.16146032E+00 0.45151053E+03</pdfrwt>
<pdfrwt beam="2">  1       21 0.45384681E-01 0.45151053E+03</pdfrwt>
<totfact> 0.96231511E+02</totfact>
</mgrwt>
</event>
<event>
 4    1  0.4897983E-002  0.4569623E+03  0.7818608E-02  0.1025666E+00
         21   -1    0    0  501  502  0.00000000000E+00  0.00000000000E+00  0.32057438016E+03  0.32057438016E+03  0.00000000000E+00 0. -1.
         21   -1    0    0  502  503 -0.00000000000E+00 -0.00000000000E+00 -0.65182489608E+03  0.65182489608E+03  0.00000000000E+00 0. -1.
    9000007    1    1    2  501    0 -0.15295348500E+02 -0.22041014701E+03 -0.15287155862E+03  0.48185505500E+03  0.40000000000E+03 0. -1.
   -9000007    1    1    2    0  503  0.15295348500E+02  0.22041014701E+03 -0.17837895729E+03  0.49054422124E+03  0.40000000000E+03 0. -1.
<mgrwt>
<rscale>  2 0.45696234E+03</rscale>
<asrwt>0</asrwt>
<pdfrwt beam="1">  1       21 0.49319135E-01 0.45696234E+03</pdfrwt>
<pdfrwt beam="2">  1       21 0.10028075E+00 0.45696234E+03</pdfrwt>
<totfact> 0.27688622E+03</totfact>
</mgrwt>
</event>
<event>
 4    1  0.4897983E-002  0.4549440E+03  0.7818608E-02  0.1026258E+00
         21   -1    0    0  503  502  0.00000000000E+00  0.00000000000E+00  0.17538569311E+03  0.17538569311E+03  0.00000000000E+00 0.  1.
         21   -1    0    0  501  503 -0.00000000000E+00 -0.00000000000E+00 -0.11809860810E+04  0.11809860810E+04  0.00000000000E+00 0.  1.
    9000007    1    1    2  501    0 -0.37779133981E+02  0.21341681813E+03 -0.48430427799E+03  0.66447320104E+03  0.40000000000E+03 0.  1.
   -9000007    1    1    2    0  502  0.37779133981E+02 -0.21341681813E+03 -0.52129610989E+03  0.69189857307E+03  0.40000000000E+03 0.  1.
<mgrwt>
<rscale>  2 0.45494395E+03</rscale>
<asrwt>0</asrwt>
<pdfrwt beam="1">  1       21 0.26982414E-01 0.45494395E+03</pdfrwt>
<pdfrwt beam="2">  1       21 0.18169017E+00 0.45494395E+03</pdfrwt>
<totfact> 0.19661897E+03</totfact>
</mgrwt>
</event>
<event>
 4    1  0.4897983E-002  0.4052606E+03  0.7818608E-02  0.1041973E+00
         21   -1    0    0  503  502  0.00000000000E+00  0.00000000000E+00  0.21605117206E+04  0.21605117206E+04  0.00000000000E+00 0. -1.
         21   -1    0    0  501  503 -0.00000000000E+00 -0.00000000000E+00 -0.12067152434E+03  0.12067152434E+03  0.00000000000E+00 0. -1.
    9000007    1    1    2  501    0  0.16626797760E+02  0.62925925031E+02  0.32608002414E+03  0.52015796119E+03  0.40000000000E+03 0. -1.
   -9000007    1    1    2    0  502 -0.16626797760E+02 -0.62925925031E+02  0.17137601722E+04  0.17610252838E+04  0.40000000000E+03 0. -1.
<mgrwt>
<rscale>  2 0.40526056E+03</rscale>
<asrwt>0</asrwt>
<pdfrwt beam="1">  1       21 0.33238639E+00 0.40526056E+03</pdfrwt>
<pdfrwt beam="2">  1       21 0.18564852E-01 0.40526056E+03</pdfrwt>
<totfact> 0.47650545E+02</totfact>
</mgrwt>
</event>
<event>
 4    1  0.4897983E-002  0.4814662E+03  0.7818608E-02  0.1018733E+00
         21   -1    0    0  501  502  0.00000000000E+00  0.00000000000E+00  0.16958188748E+04  0.16958188748E+04  0.00000000000E+00 0. -1.
         21   -1    0    0  502  503 -0.00000000000E+00 -0.00000000000E+00 -0.20750227122E+03  0.20750227122E+03  0.00000000000E+00 0.  1.
    9000007    1    1    2  501    0 -0.94149741957E+02 -0.25088942594E+03  0.13000754754E+04  0.13863642810E+04  0.40000000000E+03 0. -1.
   -9000007    1    1    2    0  503  0.94149741957E+02  0.25088942594E+03  0.18824112823E+03  0.51695686504E+03  0.40000000000E+03 0.  1.
<mgrwt>
<rscale>  2 0.48146618E+03</rscale>
<asrwt>0</asrwt>
<pdfrwt beam="1">  1       21 0.26089520E+00 0.48146618E+03</pdfrwt>
<pdfrwt beam="2">  1       21 0.31923427E-01 0.48146618E+03</pdfrwt>
<totfact> 0.42925690E+02</totfact>
</mgrwt>
</event>
<event>
 4    1  0.4897983E-002  0.4629455E+03  0.7818608E-02  0.1023930E+00
         21   -1    0    0  503  502  0.00000000000E+00  0.00000000000E+00  0.12783193378E+04  0.12783193378E+04  0.00000000000E+00 0. -1.
         21   -1    0    0  501  503 -0.00000000000E+00 -0.00000000000E+00 -0.20506949699E+03  0.20506949699E+03  0.00000000000E+00 0. -1.
    9000007    1    1    2  501    0 -0.14726799349E+03  0.18063966309E+03  0.21982452885E+03  0.51248548591E+03  0.40000000000E+03 0. -1.
   -9000007    1    1    2    0  502  0.14726799349E+03 -0.18063966309E+03  0.85342531196E+03  0.97090334889E+03  0.40000000000E+03 0. -1.
<mgrwt>
<rscale>  2 0.46294551E+03</rscale>
<asrwt>0</asrwt>
<pdfrwt beam="1">  1       21 0.19666451E+00 0.46294551E+03</pdfrwt>
<pdfrwt beam="2">  1       21 0.31549154E-01 0.46294551E+03</pdfrwt>
<totfact> 0.11344035E+03</totfact>
</mgrwt>
</event>
<event>
 4    1  0.4897983E-002  0.4808245E+03  0.7818608E-02  0.1018909E+00
         21   -1    0    0  501  502  0.00000000000E+00  0.00000000000E+00  0.21418143004E+04  0.21418143004E+04  0.00000000000E+00 0. -1.
         21   -1    0    0  502  503 -0.00000000000E+00 -0.00000000000E+00 -0.11392849739E+03  0.11392849739E+03  0.00000000000E+00 0.  1.
    9000007    1    1    2  501    0 -0.26673637846E+03 -0.66294723102E+01  0.75540698514E+03  0.89545070143E+03  0.40000000000E+03 0.  1.
   -9000007    1    1    2    0  503  0.26673637846E+03  0.66294723102E+01  0.12724788179E+04  0.13602920964E+04  0.40000000000E+03 0.  1.
<mgrwt>
<rscale>  2 0.48082455E+03</rscale>
<asrwt>0</asrwt>
<pdfrwt beam="1">  1       21 0.32950986E+00 0.48082455E+03</pdfrwt>
<pdfrwt beam="2">  1       21 0.17527463E-01 0.48082455E+03</pdfrwt>
<totfact> 0.52810412E+02</totfact>
</mgrwt>
</event>
<event>
 4    1  0.4897983E-002  0.4117593E+03  0.7818608E-02  0.1039782E+00
         21   -1    0    0  501  502  0.00000000000E+00  0.00000000000E+00  0.24815364724E+03  0.24815364724E+03  0.00000000000E+00 0. -1.
         21   -1    0    0  502  503 -0.00000000000E+00 -0.00000000000E+00 -0.69198517585E+03  0.69198517585E+03  0.00000000000E+00 0. -1.
    9000007    1    1    2  501    0 -0.58174114242E+02  0.78494962529E+02 -0.16903728190E+03  0.44510593052E+03  0.40000000000E+03 0. -1.
   -9000007    1    1    2    0  503  0.58174114242E+02 -0.78494962529E+02 -0.27479424671E+03  0.49503289258E+03  0.40000000000E+03 0. -1.
<mgrwt>
<rscale>  2 0.41175926E+03</rscale>
<asrwt>0</asrwt>
<pdfrwt beam="1">  1       21 0.38177484E-01 0.41175926E+03</pdfrwt>
<pdfrwt beam="2">  1       21 0.10645926E+00 0.41175926E+03</pdfrwt>
<totfact> 0.41441990E+03</totfact>
</mgrwt>
</event>
<event>
 4    1  0.4897983E-002  0.4299852E+03  0.7818608E-02  0.1033865E+00
         21   -1    0    0  503  502  0.00000000000E+00  0.00000000000E+00  0.51141314377E+03  0.51141314377E+03  0.00000000000E+00 0.  1.
         21   -1    0    0  501  503 -0.00000000000E+00 -0.00000000000E+00 -0.42622183048E+03  0.42622183048E+03  0.00000000000E+00 0.  1.
    9000007    1    1    2  501    0  0.15644674165E+03 -0.20290947487E+02 -0.14006129152E+03  0.45222170548E+03  0.40000000000E+03 0.  1.
   -9000007    1    1    2    0  502 -0.15644674165E+03  0.20290947487E+02  0.22525260481E+03  0.48541326877E+03  0.40000000000E+03 0.  1.
<mgrwt>
<rscale>  2 0.42998524E+03</rscale>
<asrwt>0</asrwt>
<pdfrwt beam="1">  1       21 0.78678945E-01 0.42998524E+03</pdfrwt>
<pdfrwt beam="2">  1       21 0.65572590E-01 0.42998524E+03</pdfrwt>
<totfact> 0.26717742E+03</totfact>
</mgrwt>
</event>
<event>
 4    1  0.4897983E-002  0.4480054E+03  0.7818608E-02  0.1028319E+00
         21   -1    0    0  501  502  0.00000000000E+00  0.00000000000E+00  0.12436805708E+04  0.12436805708E+04  0.00000000000E+00 0. -1.
         21   -1    0    0  502  503 -0.00000000000E+00 -0.00000000000E+00 -0.59993512883E+03  0.59993512883E+03  0.00000000000E+00 0. -1.
    9000007    1    1    2  501    0 -0.12892712882E+03 -0.15519874266E+03  0.11100045852E+04  0.11970041911E+04  0.40000000000E+03 0. -1.
   -9000007    1    1    2    0  503  0.12892712882E+03  0.15519874266E+03 -0.46625914327E+03  0.64661150852E+03  0.40000000000E+03 0. -1.
<mgrwt>
<rscale>  2 0.44800542E+03</rscale>
<asrwt>0</asrwt>
<pdfrwt beam="1">  1       21 0.19133547E+00 0.44800542E+03</pdfrwt>
<pdfrwt beam="2">  1       21 0.92297712E-01 0.44800542E+03</pdfrwt>
<totfact> 0.12147182E+02</totfact>
</mgrwt>
</event>
<event>
 4    1  0.4897983E-002  0.4301284E+03  0.7818608E-02  0.1033819E+00
         21   -1    0    0  503  502  0.00000000000E+00  0.00000000000E+00  0.41309546895E+03  0.41309546895E+03  0.00000000000E+00 0.  1.
         21   -1    0    0  501  503 -0.00000000000E+00 -0.00000000000E+00 -0.61922657054E+03  0.61922657054E+03  0.00000000000E+00 0.  1.
    9000007    1    1    2  501    0 -0.85055705880E+01 -0.15791807239E+03 -0.37459615443E+03  0.57037947126E+03  0.40000000000E+03 0.  1.
   -9000007    1    1    2    0  502  0.85055705880E+01  0.15791807239E+03  0.16846505284E+03  0.46194256823E+03  0.40000000000E+03 0.  1.
<mgrwt>
<rscale>  2 0.43012843E+03</rscale>
<asrwt>0</asrwt>
<pdfrwt beam="1">  1       21 0.63553149E-01 0.43012843E+03</pdfrwt>
<pdfrwt beam="2">  1       21 0.95265626E-01 0.43012843E+03</pdfrwt>
<totfact> 0.18278461E+03</totfact>
</mgrwt>
</event>
<event>
 4    1  0.4897983E-002  0.4018236E+03  0.7818608E-02  0.1043150E+00
         21   -1    0    0  501  502  0.00000000000E+00  0.00000000000E+00  0.11199876125E+04  0.11199876125E+04  0.00000000000E+00 0. -1.
         21   -1    0    0  502  503 -0.00000000000E+00 -0.00000000000E+00 -0.21718032710E+03  0.21718032710E+03  0.00000000000E+00 0. -1.
    9000007    1    1    2  501    0 -0.31604476443E+02 -0.21526013277E+02  0.83906710056E+03  0.93032027357E+03  0.40000000000E+03 0. -1.
   -9000007    1    1    2    0  503  0.31604476443E+02  0.21526013277E+02  0.63740184836E+02  0.40684766601E+03  0.40000000000E+03 0. -1.
<mgrwt>
<rscale>  2 0.40182361E+03</rscale>
<asrwt>0</asrwt>
<pdfrwt beam="1">  1       21 0.17230578E+00 0.40182361E+03</pdfrwt>
<pdfrwt beam="2">  1       21 0.33412359E-01 0.40182361E+03</pdfrwt>
<totfact> 0.15353122E+03</totfact>
</mgrwt>
</event>
<event>
 4    1  0.4897983E-002  0.4276273E+03  0.7818608E-02  0.1034612E+00
         21   -1    0    0  501  502  0.00000000000E+00  0.00000000000E+00  0.17012830122E+04  0.17012830122E+04  0.00000000000E+00 0. -1.
         21   -1    0    0  502  503 -0.00000000000E+00 -0.00000000000E+00 -0.18486873254E+03  0.18486873254E+03  0.00000000000E+00 0. -1.
    9000007    1    1    2  501    0  0.33494257722E+02 -0.14745585444E+03  0.13683552950E+04  0.14336182573E+04  0.40000000000E+03 0. -1.
   -9000007    1    1    2    0  503 -0.33494257722E+02  0.14745585444E+03  0.14805898466E+03  0.45253348743E+03  0.40000000000E+03 0. -1.
<mgrwt>
<rscale>  2 0.42762728E+03</rscale>
<asrwt>0</asrwt>
<pdfrwt beam="1">  1       21 0.26173584E+00 0.42762728E+03</pdfrwt>
<pdfrwt beam="2">  1       21 0.28441345E-01 0.42762728E+03</pdfrwt>
<totfact> 0.54939796E+02</totfact>
</mgrwt>
</event>
<event>
 4    1  0.4897983E-002  0.5600436E+03  0.7818608E-02  0.9991956E-01
         21   -1    0    0  501  502  0.00000000000E+00  0.00000000000E+00  0.22730249282E+03  0.22730249282E+03  0.00000000000E+00 0.  1.
         21   -1    0    0  502  503 -0.00000000000E+00 -0.00000000000E+00 -0.15409236877E+04  0.15409236877E+04  0.00000000000E+00 0. -1.
    9000007    1    1    2  501    0  0.47088942364E+02 -0.38914195668E+03 -0.37098770162E+03  0.67177429669E+03  0.40000000000E+03 0.  1.
   -9000007    1    1    2    0  503 -0.47088942364E+02  0.38914195668E+03 -0.94263349324E+03  0.10964518838E+04  0.40000000000E+03 0. -1.
<mgrwt>
<rscale>  2 0.56004360E+03</rscale>
<asrwt>0</asrwt>
<pdfrwt beam="1">  1       21 0.34969615E-01 0.56004360E+03</pdfrwt>
<pdfrwt beam="2">  1       21 0.23706518E+00 0.56004360E+03</pdfrwt>
<totfact> 0.48404846E+02</totfact>
</mgrwt>
</event>
<event>
 4    1  0.4897983E-002  0.4515194E+03  0.7818608E-02  0.1027270E+00
         21   -1    0    0  501  502  0.00000000000E+00  0.00000000000E+00  0.18070396408E+04  0.18070396408E+04  0.00000000000E+00 0.  1.
         21   -1    0    0  502  503 -0.00000000000E+00 -0.00000000000E+00 -0.11435973689E+03  0.11435973689E+03  0.00000000000E+00 0.  1.
    9000007    1    1    2  501    0 -0.12129908915E+02 -0.20909947453E+03  0.73485599761E+03  0.86248655767E+03  0.40000000000E+03 0.  1.
   -9000007    1    1    2    0  503  0.12129908915E+02  0.20909947453E+03  0.95782390633E+03  0.10589128201E+04  0.40000000000E+03 0.  1.
<mgrwt>
<rscale>  2 0.45151935E+03</rscale>
<asrwt>0</asrwt>
<pdfrwt beam="1">  1       21 0.27800608E+00 0.45151935E+03</pdfrwt>
<pdfrwt beam="2">  1       21 0.17593807E-01 0.45151935E+03</pdfrwt>
<totfact> 0.10896241E+03</totfact>
</mgrwt>
</event>
<event>
 4    1  0.4897983E-002  0.5131792E+03  0.7818608E-02  0.1010395E+00
         21   -1    0    0  503  502  0.00000000000E+00  0.00000000000E+00  0.22823321981E+03  0.22823321981E+03  0.00000000000E+00 0. -1.
         21   -1    0    0  501  503 -0.00000000000E+00 -0.00000000000E+00 -0.13923842509E+04  0.13923842509E+04  0.00000000000E+00 0.  1.
    9000007    1    1    2  501    0 -0.31549590812E+03 -0.61767511602E+02 -0.91744414717E+03  0.10512167506E+04  0.40000000000E+03 0.  1.
   -9000007    1    1    2    0  502  0.31549590812E+03  0.61767511602E+02 -0.24670688396E+03  0.56940072017E+03  0.40000000000E+03 0. -1.
<mgrwt>
<rscale>  2 0.51317920E+03</rscale>
<asrwt>0</asrwt>
<pdfrwt beam="1">  1       21 0.35112804E-01 0.51317920E+03</pdfrwt>
<pdfrwt beam="2">  1       21 0.21421296E+00 0.51317920E+03</pdfrwt>
<totfact> 0.68503949E+02</totfact>
</mgrwt>
</event>
<event>
 4    1  0.4897983E-002  0.4549931E+03  0.7818608E-02  0.1026243E+00
         21   -1    0    0  501  502  0.00000000000E+00  0.00000000000E+00  0.85362501914E+03  0.85362501914E+03  0.00000000000E+00 0.  1.
         21   -1    0    0  502  503 -0.00000000000E+00 -0.00000000000E+00 -0.24651174918E+03  0.24651174918E+03  0.00000000000E+00 0. -1.
    9000007    1    1    2  501    0  0.21237546980E+03  0.43764653538E+02  0.23353441737E+03  0.51142644551E+03  0.40000000000E+03 0. -1.
   -9000007    1    1    2    0  503 -0.21237546980E+03 -0.43764653538E+02  0.37357885259E+03  0.58871032280E+03  0.40000000000E+03 0.  1.
<mgrwt>
<rscale>  2 0.45499306E+03</rscale>
<asrwt>0</asrwt>
<pdfrwt beam="1">  1       21 0.13132692E+00 0.45499306E+03</pdfrwt>
<pdfrwt beam="2">  1       21 0.37924885E-01 0.45499306E+03</pdfrwt>
<totfact> 0.24316739E+03</totfact>
</mgrwt>
</event>
<event>
 4    1  0.4897983E-002  0.6279073E+03  0.7818608E-02  0.9849141E-01
         21   -1    0    0  503  502  0.00000000000E+00  0.00000000000E+00  0.96743665614E+03  0.96743665614E+03  0.00000000000E+00 0. -1.
         21   -1    0    0  501  503 -0.00000000000E+00 -0.00000000000E+00 -0.58206224260E+03  0.58206224260E+03  0.00000000000E+00 0. -1.
    9000007    1    1    2  501    0 -0.50360443088E+02 -0.48138485238E+03 -0.23154534813E+03  0.66923896970E+03  0.40000000000E+03 0. -1.
   -9000007    1    1    2    0  502  0.50360443088E+02  0.48138485238E+03  0.61691976167E+03  0.88025992903E+03  0.40000000000E+03 0. -1.
<mgrwt>
<rscale>  2 0.62790728E+03</rscale>
<asrwt>0</asrwt>
<pdfrwt beam="1">  1       21 0.14883641E+00 0.62790728E+03</pdfrwt>
<pdfrwt beam="2">  1       21 0.89548038E-01 0.62790728E+03</pdfrwt>
<totfact> 0.24758355E+02</totfact>
</mgrwt>
</event>
<event>
 4    1  0.4897983E-002  0.4052344E+03  0.7818608E-02  0.1041982E+00
         21   -1    0    0  503  502  0.00000000000E+00  0.00000000000E+00  0.56982427151E+03  0.56982427151E+03  0.00000000000E+00 0. -1.
         21   -1    0    0  501  503 -0.00000000000E+00 -0.00000000000E+00 -0.98591854608E+03  0.98591854608E+03  0.00000000000E+00 0. -1.
    9000007    1    1    2  501    0  0.18782140519E+02  0.62146418269E+02 -0.86243015048E+03  0.95289071281E+03  0.40000000000E+03 0. -1.
   -9000007    1    1    2    0  502 -0.18782140519E+02 -0.62146418269E+02  0.44633587591E+03  0.60285210477E+03  0.40000000000E+03 0. -1.
<mgrwt>
<rscale>  2 0.40523443E+03</rscale>
<asrwt>0</asrwt>
<pdfrwt beam="1">  1       21 0.87665273E-01 0.40523443E+03</pdfrwt>
<pdfrwt beam="2">  1       21 0.15167978E+00 0.40523443E+03</pdfrwt>
<totfact> 0.27247981E+02</totfact>
</mgrwt>
</event>
<event>
 4    1  0.4897983E-002  0.5175879E+03  0.7818608E-02  0.1009288E+00
         21   -1    0    0  501  502  0.00000000000E+00  0.00000000000E+00  0.84765922748E+03  0.84765922748E+03  0.00000000000E+00 0. -1.
         21   -1    0    0  502  503 -0.00000000000E+00 -0.00000000000E+00 -0.67761049617E+03  0.67761049617E+03  0.00000000000E+00 0. -1.
    9000007    1    1    2  501    0 -0.20931270494E+03  0.25315099765E+03  0.64210870398E+03  0.82474288344E+03  0.40000000000E+03 0. -1.
   -9000007    1    1    2    0  503  0.20931270494E+03 -0.25315099765E+03 -0.47205997267E+03  0.70052684021E+03  0.40000000000E+03 0. -1.
<mgrwt>
<rscale>  2 0.51758790E+03</rscale>
<asrwt>0</asrwt>
<pdfrwt beam="1">  1       21 0.13040911E+00 0.51758790E+03</pdfrwt>
<pdfrwt beam="2">  1       21 0.10424777E+00 0.51758790E+03</pdfrwt>
<totfact> 0.25438080E+02</totfact>
</mgrwt>
</event>
<event>
 4    1  0.4897983E-002  0.4367803E+03  0.7818608E-02  0.1031739E+00
         21   -1    0    0  503  502  0.00000000000E+00  0.00000000000E+00  0.79969531717E+02  0.79969531717E+02  0.00000000000E+00 0.  1.
         21   -1    0    0  501  503 -0.00000000000E+00 -0.00000000000E+00 -0.24033033806E+04  0.24033033806E+04  0.00000000000E+00 0.  1.
    9000007    1    1    2  501    0  0.15120592522E+03  0.88959325226E+02 -0.12681696339E+04  0.13412796925E+04  0.40000000000E+03 0.  1.
   -9000007    1    1    2    0  502 -0.15120592522E+03 -0.88959325226E+02 -0.10551642151E+04  0.11419932198E+04  0.40000000000E+03 0.  1.
<mgrwt>
<rscale>  2 0.43678026E+03</rscale>
<asrwt>0</asrwt>
<pdfrwt beam="1">  1       21 0.12303008E-01 0.43678026E+03</pdfrwt>
<pdfrwt beam="2">  1       21 0.36973890E+00 0.43678026E+03</pdfrwt>
<totfact> 0.59112554E+02</totfact>
</mgrwt>
</event>
<event>
 4    1  0.4897983E-002  0.4715907E+03  0.7818608E-02  0.1021472E+00
         21   -1    0    0  503  502  0.00000000000E+00  0.00000000000E+00  0.15570935906E+03  0.15570935906E+03  0.00000000000E+00 0. -1.
         21   -1    0    0  501  503 -0.00000000000E+00 -0.00000000000E+00 -0.15170191974E+04  0.15170191974E+04  0.00000000000E+00 0.  1.
    9000007    1    1    2  501    0 -0.24711254823E+03 -0.36512771605E+02 -0.88292811906E+03  0.10009794490E+04  0.40000000000E+03 0.  1.
   -9000007    1    1    2    0  502  0.24711254823E+03  0.36512771605E+02 -0.47838171930E+03  0.67174910744E+03  0.40000000000E+03 0. -1.
<mgrwt>
<rscale>  2 0.47159071E+03</rscale>
<asrwt>0</asrwt>
<pdfrwt beam="1">  1       21 0.23955286E-01 0.47159071E+03</pdfrwt>
<pdfrwt beam="2">  1       21 0.23338757E+00 0.47159071E+03</pdfrwt>
<totfact> 0.11235880E+03</totfact>
</mgrwt>
</event>
<event>
 4    1  0.4897983E-002  0.4314419E+03  0.7818608E-02  0.1033405E+00
         21   -1    0    0  503  502  0.00000000000E+00  0.00000000000E+00  0.60439004982E+03  0.60439004982E+03  0.00000000000E+00 0.  1.
         21   -1    0    0  501  503 -0.00000000000E+00 -0.00000000000E+00 -0.36367211490E+03  0.36367211490E+03  0.00000000000E+00 0.  1.
    9000007    1    1    2  501    0  0.11353215951E+03 -0.11511969610E+03 -0.69050591057E+02  0.43693258038E+03  0.40000000000E+03 0.  1.
   -9000007    1    1    2    0  502 -0.11353215951E+03  0.11511969610E+03  0.30976852598E+03  0.53112958434E+03  0.40000000000E+03 0.  1.
<mgrwt>
<rscale>  2 0.43144188E+03</rscale>
<asrwt>0</asrwt>
<pdfrwt beam="1">  1       21 0.92983084E-01 0.43144188E+03</pdfrwt>
<pdfrwt beam="2">  1       21 0.55949556E-01 0.43144188E+03</pdfrwt>
<totfact> 0.25581368E+03</totfact>
</mgrwt>
</event>
<event>
 4    1  0.4897983E-002  0.9006534E+03  0.7818608E-02  0.9424765E-01
         21   -1    0    0  503  502  0.00000000000E+00  0.00000000000E+00  0.81589985200E+03  0.81589985200E+03  0.00000000000E+00 0.  1.
         21   -1    0    0  501  503 -0.00000000000E+00 -0.00000000000E+00 -0.10045710407E+04  0.10045710407E+04  0.00000000000E+00 0.  1.
    9000007    1    1    2  501    0 -0.80584594368E+03 -0.42295701340E+02 -0.18677221427E+03  0.91981545504E+03  0.40000000000E+03 0.  1.
   -9000007    1    1    2    0  502  0.80584594368E+03  0.42295701340E+02 -0.18989744306E+01  0.90065543767E+03  0.40000000000E+03 0.  1.
<mgrwt>
<rscale>  2 0.90065344E+03</rscale>
<asrwt>0</asrwt>
<pdfrwt beam="1">  1       21 0.12552305E+00 0.90065344E+03</pdfrwt>
<pdfrwt beam="2">  1       21 0.15454939E+00 0.90065344E+03</pdfrwt>
<totfact> 0.88419083E+01</totfact>
</mgrwt>
</event>
<event>
 4    1  0.4897983E-002  0.6941949E+03  0.7818608E-02  0.9727211E-01
         21   -1    0    0  503  502  0.00000000000E+00  0.00000000000E+00  0.75973479171E+03  0.75973479171E+03  0.00000000000E+00 0. -1.
         21   -1    0    0  501  503 -0.00000000000E+00 -0.00000000000E+00 -0.88205493269E+03  0.88205493269E+03  0.00000000000E+00 0.  1.
    9000007    1    1    2  501    0  0.45808584429E+03  0.33475953637E+03 -0.49621392426E+03  0.85330817795E+03  0.40000000000E+03 0.  1.
   -9000007    1    1    2    0  502 -0.45808584429E+03 -0.33475953637E+03  0.37389378328E+03  0.78848154646E+03  0.40000000000E+03 0. -1.
<mgrwt>
<rscale>  2 0.69419492E+03</rscale>
<asrwt>0</asrwt>
<pdfrwt beam="1">  1       21 0.11688228E+00 0.69419492E+03</pdfrwt>
<pdfrwt beam="2">  1       21 0.13570076E+00 0.69419492E+03</pdfrwt>
<totfact> 0.16119371E+02</totfact>
</mgrwt>
</event>
<event>
 4    1  0.4897983E-002  0.4740381E+03  0.7818608E-02  0.1020787E+00
         21   -1    0    0  501  502  0.00000000000E+00  0.00000000000E+00  0.29885177310E+03  0.29885177310E+03  0.00000000000E+00 0.  1.
         21   -1    0    0  502  503 -0.00000000000E+00 -0.00000000000E+00 -0.80203931874E+03  0.80203931874E+03  0.00000000000E+00 0.  1.
    9000007    1    1    2  501    0 -0.14050768412E+03 -0.21206066253E+03 -0.11399130121E+03  0.48755117746E+03  0.40000000000E+03 0.  1.
   -9000007    1    1    2    0  503  0.14050768412E+03  0.21206066253E+03 -0.38919624443E+03  0.61333991438E+03  0.40000000000E+03 0.  1.
<mgrwt>
<rscale>  2 0.47403811E+03</rscale>
<asrwt>0</asrwt>
<pdfrwt beam="1">  1       21 0.45977195E-01 0.47403811E+03</pdfrwt>
<pdfrwt beam="2">  1       21 0.12339067E+00 0.47403811E+03</pdfrwt>
<totfact> 0.19026517E+03</totfact>
</mgrwt>
</event>
<event>
 4    1  0.4897983E-002  0.4602741E+03  0.7818608E-02  0.1024702E+00
         21   -1    0    0  503  502  0.00000000000E+00  0.00000000000E+00  0.12361957612E+04  0.12361957612E+04  0.00000000000E+00 0. -1.
         21   -1    0    0  501  503 -0.00000000000E+00 -0.00000000000E+00 -0.17221147148E+03  0.17221147148E+03  0.00000000000E+00 0.  1.
    9000007    1    1    2  501    0  0.20594227062E+03 -0.97159986606E+02  0.58108900691E+03  0.74129394695E+03  0.40000000000E+03 0. -1.
   -9000007    1    1    2    0  502 -0.20594227062E+03  0.97159986606E+02  0.48289528280E+03  0.66711328571E+03  0.40000000000E+03 0.  1.
<mgrwt>
<rscale>  2 0.46027414E+03</rscale>
<asrwt>0</asrwt>
<pdfrwt beam="1">  1       21 0.19018396E+00 0.46027414E+03</pdfrwt>
<pdfrwt beam="2">  1       21 0.26494073E-01 0.46027414E+03</pdfrwt>
<totfact> 0.17758279E+03</totfact>
</mgrwt>
</event>
<event>
 4    1  0.4897983E-002  0.4394101E+03  0.7818608E-02  0.1030928E+00
         21   -1    0    0  503  502  0.00000000000E+00  0.00000000000E+00  0.61264600388E+03  0.61264600388E+03  0.00000000000E+00 0.  1.
         21   -1    0    0  501  503 -0.00000000000E+00 -0.00000000000E+00 -0.45634042385E+03  0.45634042385E+03  0.00000000000E+00 0. -1.
    9000007    1    1    2  501    0 -0.37885720845E+02 -0.17789306909E+03 -0.21914082019E+03  0.49102339145E+03  0.40000000000E+03 0. -1.
   -9000007    1    1    2    0  502  0.37885720845E+02  0.17789306909E+03  0.37544640022E+03  0.57796303628E+03  0.40000000000E+03 0.  1.
<mgrwt>
<rscale>  2 0.43941014E+03</rscale>
<asrwt>0</asrwt>
<pdfrwt beam="1">  1       21 0.94253232E-01 0.43941014E+03</pdfrwt>
<pdfrwt beam="2">  1       21 0.70206219E-01 0.43941014E+03</pdfrwt>
<totfact> 0.14960878E+03</totfact>
</mgrwt>
</event>
<event>
 4    1  0.4897983E-002  0.5409271E+03  0.7818608E-02  0.1003616E+00
         21   -1    0    0  501  502  0.00000000000E+00  0.00000000000E+00  0.19160229465E+04  0.19160229465E+04  0.00000000000E+00 0.  1.
         21   -1    0    0  502  503 -0.00000000000E+00 -0.00000000000E+00 -0.18944053675E+03  0.18944053675E+03  0.00000000000E+00 0.  1.
    9000007    1    1    2  501    0  0.36339054083E+03  0.23439803165E+02  0.39976357516E+03  0.67261655166E+03  0.40000000000E+03 0.  1.
   -9000007    1    1    2    0  503 -0.36339054083E+03 -0.23439803165E+02  0.13268188346E+04  0.14328469316E+04  0.40000000000E+03 0.  1.
<mgrwt>
<rscale>  2 0.54092708E+03</rscale>
<asrwt>0</asrwt>
<pdfrwt beam="1">  1       21 0.29477275E+00 0.54092708E+03</pdfrwt>
<pdfrwt beam="2">  1       21 0.29144699E-01 0.54092708E+03</pdfrwt>
<totfact> 0.31135797E+02</totfact>
</mgrwt>
</event>
<event>
 4    1  0.4897983E-002  0.5416404E+03  0.7818608E-02  0.1003448E+00
         21   -1    0    0  501  502  0.00000000000E+00  0.00000000000E+00  0.17675188413E+04  0.17675188413E+04  0.00000000000E+00 0. -1.
         21   -1    0    0  502  503 -0.00000000000E+00 -0.00000000000E+00 -0.16692221210E+03  0.16692221210E+03  0.00000000000E+00 0.  1.
    9000007    1    1    2  501    0  0.44245808110E+02 -0.36251433587E+03  0.87293224427E+03  0.10273193458E+04  0.40000000000E+03 0. -1.
   -9000007    1    1    2    0  503 -0.44245808110E+02  0.36251433587E+03  0.72766438491E+03  0.90712170755E+03  0.40000000000E+03 0. -1.
<mgrwt>
<rscale>  2 0.54164041E+03</rscale>
<asrwt>0</asrwt>
<pdfrwt beam="1">  1       21 0.27192596E+00 0.54164041E+03</pdfrwt>
<pdfrwt beam="2">  1       21 0.25680342E-01 0.54164041E+03</pdfrwt>
<totfact> 0.55001359E+02</totfact>
</mgrwt>
</event>
<event>
 4    1  0.4897983E-002  0.4310753E+03  0.7818608E-02  0.1033521E+00
         21   -1    0    0  501  502  0.00000000000E+00  0.00000000000E+00  0.59539225152E+03  0.59539225152E+03  0.00000000000E+00 0. -1.
         21   -1    0    0  502  503 -0.00000000000E+00 -0.00000000000E+00 -0.31215064652E+03  0.31215064652E+03  0.00000000000E+00 0. -1.
    9000007    1    1    2  501    0 -0.11164982788E+03 -0.11558659577E+03  0.13624018715E+03  0.45209217399E+03  0.40000000000E+03 0. -1.
   -9000007    1    1    2    0  503  0.11164982788E+03  0.11558659577E+03  0.14700141785E+03  0.45545072405E+03  0.40000000000E+03 0. -1.
<mgrwt>
<rscale>  2 0.43107534E+03</rscale>
<asrwt>0</asrwt>
<pdfrwt beam="1">  1       21 0.91598808E-01 0.43107534E+03</pdfrwt>
<pdfrwt beam="2">  1       21 0.48023177E-01 0.43107534E+03</pdfrwt>
<totfact> 0.36750820E+03</totfact>
</mgrwt>
</event>
<event>
 4    1  0.4897983E-002  0.4046010E+03  0.7818608E-02  0.1042198E+00
         21   -1    0    0  501  502  0.00000000000E+00  0.00000000000E+00  0.30655004232E+03  0.30655004232E+03  0.00000000000E+00 0.  1.
         21   -1    0    0  502  503 -0.00000000000E+00 -0.00000000000E+00 -0.71891482212E+03  0.71891482212E+03  0.00000000000E+00 0.  1.
    9000007    1    1    2  501    0  0.11049139617E+02 -0.59832161176E+02 -0.46621131287E+03  0.61729649217E+03  0.40000000000E+03 0.  1.
   -9000007    1    1    2    0  503 -0.11049139617E+02  0.59832161176E+02  0.53846533069E+02  0.40816837227E+03  0.40000000000E+03 0.  1.
<mgrwt>
<rscale>  2 0.40460100E+03</rscale>
<asrwt>0</asrwt>
<pdfrwt beam="1">  1       21 0.47161546E-01 0.40460100E+03</pdfrwt>
<pdfrwt beam="2">  1       21 0.11060228E+00 0.40460100E+03</pdfrwt>
<totfact> 0.24404122E+03</totfact>
</mgrwt>
</event>
<event>
 4    1  0.4897983E-002  0.4315292E+03  0.7818608E-02  0.1033378E+00
         21   -1    0    0  503  502  0.00000000000E+00  0.00000000000E+00  0.28697459687E+03  0.28697459687E+03  0.00000000000E+00 0.  1.
         21   -1    0    0  501  503 -0.00000000000E+00 -0.00000000000E+00 -0.82963326529E+03  0.82963326529E+03  0.00000000000E+00 0.  1.
    9000007    1    1    2  501    0 -0.15719542165E+02 -0.16115320086E+03 -0.53191357790E+03  0.68494489742E+03  0.40000000000E+03 0.  1.
   -9000007    1    1    2    0  502  0.15719542165E+02  0.16115320086E+03 -0.10745090530E+02  0.43166296474E+03  0.40000000000E+03 0.  1.
<mgrwt>
<rscale>  2 0.43152921E+03</rscale>
<asrwt>0</asrwt>
<pdfrwt beam="1">  1       21 0.44149940E-01 0.43152921E+03</pdfrwt>
<pdfrwt beam="2">  1       21 0.12763588E+00 0.43152921E+03</pdfrwt>
<totfact> 0.19300325E+03</totfact>
</mgrwt>
</event>
<event>
 4    1  0.4897983E-002  0.4282566E+03  0.7818608E-02  0.1034412E+00
         21   -1    0    0  501  502  0.00000000000E+00  0.00000000000E+00  0.62314393229E+03  0.62314393229E+03  0.00000000000E+00 0. -1.
         21   -1    0    0  502  503 -0.00000000000E+00 -0.00000000000E+00 -0.75317109331E+03  0.75317109331E+03  0.00000000000E+00 0. -1.
    9000007    1    1    2  501    0 -0.81202949118E+02 -0.12965255655E+03  0.47211335636E+03  0.63741252389E+03  0.40000000000E+03 0. -1.
   -9000007    1    1    2    0  503  0.81202949118E+02  0.12965255655E+03 -0.60214051737E+03  0.73890250171E+03  0.40000000000E+03 0. -1.
<mgrwt>
<rscale>  2 0.42825659E+03</rscale>
<asrwt>0</asrwt>
<pdfrwt beam="1">  1       21 0.95868298E-01 0.42825659E+03</pdfrwt>
<pdfrwt beam="2">  1       21 0.11587247E+00 0.42825659E+03</pdfrwt>
<totfact> 0.43964183E+02</totfact>
</mgrwt>
</event>
<event>
 4    1  0.4897983E-002  0.4035155E+03  0.7818608E-02  0.1042569E+00
         21   -1    0    0  501  502  0.00000000000E+00  0.00000000000E+00  0.30776567879E+03  0.30776567879E+03  0.00000000000E+00 0. -1.
         21   -1    0    0  502  503 -0.00000000000E+00 -0.00000000000E+00 -0.52906147915E+03  0.52906147915E+03  0.00000000000E+00 0. -1.
    9000007    1    1    2  501    0 -0.31488616114E+02  0.42816068872E+02 -0.10910413402E+03  0.41800533580E+03  0.40000000000E+03 0.  1.
   -9000007    1    1    2    0  503  0.31488616114E+02 -0.42816068872E+02 -0.11219166634E+03  0.41882182213E+03  0.40000000000E+03 0.  1.
<mgrwt>
<rscale>  2 0.40351549E+03</rscale>
<asrwt>0</asrwt>
<pdfrwt beam="1">  1       21 0.47348567E-01 0.40351549E+03</pdfrwt>
<pdfrwt beam="2">  1       21 0.81394073E-01 0.40351549E+03</pdfrwt>
<totfact> 0.50441959E+03</totfact>
</mgrwt>
</event>
<event>
 4    1  0.4897983E-002  0.5291703E+03  0.7818608E-02  0.1006434E+00
         21   -1    0    0  503  502  0.00000000000E+00  0.00000000000E+00  0.30181070093E+03  0.30181070093E+03  0.00000000000E+00 0.  1.
         21   -1    0    0  501  503 -0.00000000000E+00 -0.00000000000E+00 -0.10189020625E+04  0.10189020625E+04  0.00000000000E+00 0. -1.
    9000007    1    1    2  501    0  0.34128502667E+03 -0.59546481945E+02 -0.55599976330E+03  0.76756562568E+03  0.40000000000E+03 0. -1.
   -9000007    1    1    2    0  502 -0.34128502667E+03  0.59546481945E+02 -0.16109159823E+03  0.55314713771E+03  0.40000000000E+03 0.  1.
<mgrwt>
<rscale>  2 0.52917034E+03</rscale>
<asrwt>0</asrwt>
<pdfrwt beam="1">  1       21 0.46432415E-01 0.52917034E+03</pdfrwt>
<pdfrwt beam="2">  1       21 0.15675417E+00 0.52917034E+03</pdfrwt>
<totfact> 0.96573969E+02</totfact>
</mgrwt>
</event>
<event>
 4    1  0.4897983E-002  0.6708394E+03  0.7818608E-02  0.9768443E-01
         21   -1    0    0  501  502  0.00000000000E+00  0.00000000000E+00  0.74175856560E+03  0.74175856560E+03  0.00000000000E+00 0. -1.
         21   -1    0    0  502  503 -0.00000000000E+00 -0.00000000000E+00 -0.66891612169E+03  0.66891612169E+03  0.00000000000E+00 0.  1.
    9000007    1    1    2  501    0  0.31091492508E+03  0.43972423122E+03  0.25153084513E+03  0.71644487311E+03  0.40000000000E+03 0. -1.
   -9000007    1    1    2    0  503 -0.31091492508E+03 -0.43972423122E+03 -0.17868840122E+03  0.69422981418E+03  0.40000000000E+03 0.  1.
<mgrwt>
<rscale>  2 0.67083939E+03</rscale>
<asrwt>0</asrwt>
<pdfrwt beam="1">  1       21 0.11411670E+00 0.67083939E+03</pdfrwt>
<pdfrwt beam="2">  1       21 0.10291017E+00 0.67083939E+03</pdfrwt>
<totfact> 0.35032890E+02</totfact>
</mgrwt>
</event>
<event>
 4    1  0.4897983E-002  0.4843493E+03  0.7818608E-02  0.1017947E+00
         21   -1    0    0  501  502  0.00000000000E+00  0.00000000000E+00  0.47492398092E+03  0.47492398092E+03  0.00000000000E+00 0. -1.
         21   -1    0    0  502  503 -0.00000000000E+00 -0.00000000000E+00 -0.55348388447E+03  0.55348388447E+03  0.00000000000E+00 0. -1.
    9000007    1    1    2  501    0  0.26313232300E+03  0.73182151307E+02  0.12934522334E+03  0.50132268398E+03  0.40000000000E+03 0. -1.
   -9000007    1    1    2    0  503 -0.26313232300E+03 -0.73182151307E+02 -0.20790512688E+03  0.52708518141E+03  0.40000000000E+03 0. -1.
<mgrwt>
<rscale>  2 0.48434930E+03</rscale>
<asrwt>0</asrwt>
<pdfrwt beam="1">  1       21 0.73065228E-01 0.48434930E+03</pdfrwt>
<pdfrwt beam="2">  1       21 0.85151367E-01 0.48434930E+03</pdfrwt>
<totfact> 0.17091474E+03</totfact>
</mgrwt>
</event>
<event>
 4    1  0.4897983E-002  0.5077350E+03  0.7818608E-02  0.1011779E+00
         21   -1    0    0  503  502  0.00000000000E+00  0.00000000000E+00  0.67733274569E+03  0.67733274569E+03  0.00000000000E+00 0.  1.
         21   -1    0    0  501  503 -0.00000000000E+00 -0.00000000000E+00 -0.47831753939E+03  0.47831753939E+03  0.00000000000E+00 0. -1.
    9000007    1    1    2  501    0  0.31146073198E+03 -0.28055147252E+02 -0.16165913438E+03  0.53284946709E+03  0.40000000000E+03 0. -1.
   -9000007    1    1    2    0  502 -0.31146073198E+03  0.28055147252E+02  0.36067434068E+03  0.62280081798E+03  0.40000000000E+03 0.  1.
<mgrwt>
<rscale>  2 0.50773505E+03</rscale>
<asrwt>0</asrwt>
<pdfrwt beam="1">  1       21 0.10420504E+00 0.50773505E+03</pdfrwt>
<pdfrwt beam="2">  1       21 0.73587314E-01 0.50773505E+03</pdfrwt>
<totfact> 0.10268745E+03</totfact>
</mgrwt>
</event>
<event>
 4    1  0.4897983E-002  0.4034018E+03  0.7818608E-02  0.1042608E+00
         21   -1    0    0  501  502  0.00000000000E+00  0.00000000000E+00  0.35108646063E+03  0.35108646063E+03  0.00000000000E+00 0. -1.
         21   -1    0    0  502  503 -0.00000000000E+00 -0.00000000000E+00 -0.68883004725E+03  0.68883004725E+03  0.00000000000E+00 0. -1.
    9000007    1    1    2  501    0  0.30412529491E+02  0.42521293625E+02  0.12850692800E+03  0.42337573490E+03  0.40000000000E+03 0. -1.
   -9000007    1    1    2    0  503 -0.30412529491E+02 -0.42521293625E+02 -0.46625051462E+03  0.61654077298E+03  0.40000000000E+03 0. -1.
<mgrwt>
<rscale>  2 0.40340176E+03</rscale>
<asrwt>0</asrwt>
<pdfrwt beam="1">  1       21 0.54013302E-01 0.40340176E+03</pdfrwt>
<pdfrwt beam="2">  1       21 0.10597385E+00 0.40340176E+03</pdfrwt>
<totfact> 0.20336692E+03</totfact>
</mgrwt>
</event>
<event>
 4    1  0.4897983E-002  0.6367865E+03  0.7818608E-02  0.9831894E-01
         21   -1    0    0  503  502  0.00000000000E+00  0.00000000000E+00  0.14306610028E+04  0.14306610028E+04  0.00000000000E+00 0. -1.
         21   -1    0    0  501  503 -0.00000000000E+00 -0.00000000000E+00 -0.28913395282E+03  0.28913395282E+03  0.00000000000E+00 0.  1.
    9000007    1    1    2  501    0 -0.24923268218E+03  0.42822904529E+03  0.45002179234E+03  0.77975422966E+03  0.40000000000E+03 0.  1.
   -9000007    1    1    2    0  502  0.24923268218E+03 -0.42822904529E+03  0.69150525759E+03  0.94004072591E+03  0.40000000000E+03 0. -1.
<mgrwt>
<rscale>  2 0.63678650E+03</rscale>
<asrwt>0</asrwt>
<pdfrwt beam="1">  1       21 0.22010169E+00 0.63678650E+03</pdfrwt>
<pdfrwt beam="2">  1       21 0.44482148E-01 0.63678650E+03</pdfrwt>
<totfact> 0.36673288E+02</totfact>
</mgrwt>
</event>
<event>
 4    1  0.4897983E-002  0.4735477E+03  0.7818608E-02  0.1020924E+00
         21   -1    0    0  503  502  0.00000000000E+00  0.00000000000E+00  0.92854791804E+03  0.92854791804E+03  0.00000000000E+00 0. -1.
         21   -1    0    0  501  503 -0.00000000000E+00 -0.00000000000E+00 -0.64548128587E+03  0.64548128587E+03  0.00000000000E+00 0. -1.
    9000007    1    1    2  501    0  0.75808692595E+02  0.24186866469E+03 -0.48108199896E+03  0.67504614550E+03  0.40000000000E+03 0. -1.
   -9000007    1    1    2    0  502 -0.75808692595E+02 -0.24186866469E+03  0.76414863114E+03  0.89898305841E+03  0.40000000000E+03 0. -1.
<mgrwt>
<rscale>  2 0.47354768E+03</rscale>
<asrwt>0</asrwt>
<pdfrwt beam="1">  1       21 0.14285353E+00 0.47354768E+03</pdfrwt>
<pdfrwt beam="2">  1       21 0.99304813E-01 0.47354768E+03</pdfrwt>
<totfact> 0.22969870E+02</totfact>
</mgrwt>
</event>
<event>
 4    1  0.4897983E-002  0.4136075E+03  0.7818608E-02  0.1039167E+00
         21   -1    0    0  501  502  0.00000000000E+00  0.00000000000E+00  0.34258138329E+04  0.34258138329E+04  0.00000000000E+00 0.  1.
         21   -1    0    0  502  503 -0.00000000000E+00 -0.00000000000E+00 -0.10836813017E+03  0.10836813017E+03  0.00000000000E+00 0.  1.
    9000007    1    1    2  501    0  0.19561650885E+02  0.10338520570E+03  0.29563032738E+04  0.29850963478E+04  0.40000000000E+03 0.  1.
   -9000007    1    1    2    0  503 -0.19561650885E+02 -0.10338520570E+03  0.36114242894E+03  0.54908561530E+03  0.40000000000E+03 0.  1.
<mgrwt>
<rscale>  2 0.41360749E+03</rscale>
<asrwt>0</asrwt>
<pdfrwt beam="1">  1       21 0.52704820E+00 0.41360749E+03</pdfrwt>
<pdfrwt beam="2">  1       21 0.16672023E-01 0.41360749E+03</pdfrwt>
<totfact> 0.29673838E+01</totfact>
</mgrwt>
</event>
<event>
 4    1  0.4897983E-002  0.5829627E+03  0.7818608E-02  0.9941397E-01
         21   -1    0    0  503  502  0.00000000000E+00  0.00000000000E+00  0.17285401297E+04  0.17285401297E+04  0.00000000000E+00 0. -1.
         21   -1    0    0  501  503 -0.00000000000E+00 -0.00000000000E+00 -0.20087274294E+03  0.20087274294E+03  0.00000000000E+00 0. -1.
    9000007    1    1    2  501    0 -0.77827234970E+02 -0.41687938580E+03  0.62327394178E+03  0.85341426477E+03  0.40000000000E+03 0. -1.
   -9000007    1    1    2    0  502  0.77827234970E+02  0.41687938580E+03  0.90439344497E+03  0.10759986079E+04  0.40000000000E+03 0. -1.
<mgrwt>
<rscale>  2 0.58296269E+03</rscale>
<asrwt>0</asrwt>
<pdfrwt beam="1">  1       21 0.26592924E+00 0.58296269E+03</pdfrwt>
<pdfrwt beam="2">  1       21 0.30903500E-01 0.58296269E+03</pdfrwt>
<totfact> 0.40738156E+02</totfact>
</mgrwt>
</event>
<event>
 4    1  0.4897983E-002  0.4368103E+03  0.7818608E-02  0.1031730E+00
         21   -1    0    0  501  502  0.00000000000E+00  0.00000000000E+00  0.96022494539E+03  0.96022494539E+03  0.00000000000E+00 0.  1.
         21   -1    0    0  502  503 -0.00000000000E+00 -0.00000000000E+00 -0.20359461246E+03  0.20359461246E+03  0.00000000000E+00 0.  1.
    9000007    1    1    2  501    0  0.18179799913E+02 -0.17456452891E+03  0.28815238572E+03  0.52329253509E+03  0.40000000000E+03 0.  1.
   -9000007    1    1    2    0  503 -0.18179799913E+02  0.17456452891E+03  0.46847794721E+03  0.64052702277E+03  0.40000000000E+03 0.  1.
<mgrwt>
<rscale>  2 0.43681035E+03</rscale>
<asrwt>0</asrwt>
<pdfrwt beam="1">  1       21 0.14772691E+00 0.43681035E+03</pdfrwt>
<pdfrwt beam="2">  1       21 0.31322249E-01 0.43681035E+03</pdfrwt>
<totfact> 0.26374550E+03</totfact>
</mgrwt>
</event>
<event>
 4    1  0.4897983E-002  0.4770644E+03  0.7818608E-02  0.1019945E+00
         21   -1    0    0  503  502  0.00000000000E+00  0.00000000000E+00  0.63258197099E+03  0.63258197099E+03  0.00000000000E+00 0.  1.
         21   -1    0    0  501  503 -0.00000000000E+00 -0.00000000000E+00 -0.44240615614E+03  0.44240615614E+03  0.00000000000E+00 0.  1.
    9000007    1    1    2  501    0 -0.20611989007E+03  0.15844575740E+03 -0.13719718793E+03  0.49640057967E+03  0.40000000000E+03 0.  1.
   -9000007    1    1    2    0  502  0.20611989007E+03 -0.15844575740E+03  0.32737300278E+03  0.57858754746E+03  0.40000000000E+03 0.  1.
<mgrwt>
<rscale>  2 0.47706443E+03</rscale>
<asrwt>0</asrwt>
<pdfrwt beam="1">  1       21 0.97320303E-01 0.47706443E+03</pdfrwt>
<pdfrwt beam="2">  1       21 0.68062485E-01 0.47706443E+03</pdfrwt>
<totfact> 0.14638892E+03</totfact>
</mgrwt>
</event>
<event>
 4    1  0.4897983E-002  0.5264301E+03  0.7818608E-02  0.1007102E+00
         21   -1    0    0  503  502  0.00000000000E+00  0.00000000000E+00  0.16471686026E+04  0.16471686026E+04  0.00000000000E+00 0.  1.
         21   -1    0    0  501  503 -0.00000000000E+00 -0.00000000000E+00 -0.21272006208E+03  0.21272006208E+03  0.00000000000E+00 0.  1.
    9000007    1    1    2  501    0  0.24552040093E+03 -0.23842903731E+03  0.29200918693E+03  0.60199504845E+03  0.40000000000E+03 0.  1.
   -9000007    1    1    2    0  502 -0.24552040093E+03  0.23842903731E+03  0.11424393536E+04  0.12578936162E+04  0.40000000000E+03 0.  1.
<mgrwt>
<rscale>  2 0.52643012E+03</rscale>
<asrwt>0</asrwt>
<pdfrwt beam="1">  1       21 0.25341055E+00 0.52643012E+03</pdfrwt>
<pdfrwt beam="2">  1       21 0.32726164E-01 0.52643012E+03</pdfrwt>
<totfact> 0.44429408E+02</totfact>
</mgrwt>
</event>
<event>
 4    1  0.4897983E-002  0.4730067E+03  0.7818608E-02  0.1021075E+00
         21   -1    0    0  501  502  0.00000000000E+00  0.00000000000E+00  0.36739209988E+03  0.36739209988E+03  0.00000000000E+00 0.  1.
         21   -1    0    0  502  503 -0.00000000000E+00 -0.00000000000E+00 -0.93400439814E+03  0.93400439814E+03  0.00000000000E+00 0. -1.
    9000007    1    1    2  501    0  0.50071934745E+02 -0.24744325162E+03  0.10054379789E+03  0.48357462373E+03  0.40000000000E+03 0.  1.
   -9000007    1    1    2    0  503 -0.50071934745E+02  0.24744325162E+03 -0.66715609616E+03  0.81782187429E+03  0.40000000000E+03 0. -1.
<mgrwt>
<rscale>  2 0.47300672E+03</rscale>
<asrwt>0</asrwt>
<pdfrwt beam="1">  1       21 0.56521863E-01 0.47300672E+03</pdfrwt>
<pdfrwt beam="2">  1       21 0.14369298E+00 0.47300672E+03</pdfrwt>
<totfact> 0.82145578E+02</totfact>
</mgrwt>
</event>
<event>
 4    1  0.4897983E-002  0.5641607E+03  0.7818608E-02  0.9982684E-01
         21   -1    0    0  501  502  0.00000000000E+00  0.00000000000E+00  0.11446899933E+04  0.11446899933E+04  0.00000000000E+00 0. -1.
         21   -1    0    0  502  503 -0.00000000000E+00 -0.00000000000E+00 -0.30735401700E+03  0.30735401700E+03  0.00000000000E+00 0.  1.
    9000007    1    1    2  501    0 -0.11339241752E+03  0.38133907394E+03  0.64285890617E+03  0.85530398275E+03  0.40000000000E+03 0.  1.
   -9000007    1    1    2    0  503  0.11339241752E+03 -0.38133907394E+03  0.19447707013E+03  0.59674002754E+03  0.40000000000E+03 0.  1.
<mgrwt>
<rscale>  2 0.56416073E+03</rscale>
<asrwt>0</asrwt>
<pdfrwt beam="1">  1       21 0.17610615E+00 0.56416073E+03</pdfrwt>
<pdfrwt beam="2">  1       21 0.47285234E-01 0.56416073E+03</pdfrwt>
<totfact> 0.65879816E+02</totfact>
</mgrwt>
</event>
<event>
 4    1  0.4897983E-002  0.4288120E+03  0.7818608E-02  0.1034236E+00
         21   -1    0    0  503  502  0.00000000000E+00  0.00000000000E+00  0.76964445357E+03  0.76964445357E+03  0.00000000000E+00 0.  1.
         21   -1    0    0  501  503 -0.00000000000E+00 -0.00000000000E+00 -0.26154314942E+03  0.26154314942E+03  0.00000000000E+00 0.  1.
    9000007    1    1    2  501    0 -0.13321392729E+03 -0.78318515132E+02  0.10239491608E+03  0.44086784763E+03  0.40000000000E+03 0.  1.
   -9000007    1    1    2    0  502  0.13321392729E+03  0.78318515132E+02  0.40570638807E+03  0.59031975535E+03  0.40000000000E+03 0.  1.
<mgrwt>
<rscale>  2 0.42881201E+03</rscale>
<asrwt>0</asrwt>
<pdfrwt beam="1">  1       21 0.11840684E+00 0.42881201E+03</pdfrwt>
<pdfrwt beam="2">  1       21 0.40237408E-01 0.42881201E+03</pdfrwt>
<totfact> 0.28378764E+03</totfact>
</mgrwt>
</event>
<event>
 4    1  0.4897983E-002  0.1009149E+04  0.7818608E-02  0.9298567E-01
         21   -1    0    0  501  502  0.00000000000E+00  0.00000000000E+00  0.97926372933E+03  0.97926372933E+03  0.00000000000E+00 0. -1.
         21   -1    0    0  502  503 -0.00000000000E+00 -0.00000000000E+00 -0.12139438374E+04  0.12139438374E+04  0.00000000000E+00 0.  1.
    9000007    1    1    2  501    0 -0.20500078640E+03  0.90352408325E+03  0.29782688188E+03  0.10521796154E+04  0.40000000000E+03 0. -1.
   -9000007    1    1    2    0  503  0.20500078640E+03 -0.90352408325E+03 -0.53250698994E+03  0.11410279514E+04  0.40000000000E+03 0.  1.
<mgrwt>
<rscale>  2 0.10091487E+04</rscale>
<asrwt>0</asrwt>
<pdfrwt beam="1">  1       21 0.15065596E+00 0.10091487E+04</pdfrwt>
<pdfrwt beam="2">  1       21 0.18676059E+00 0.10091487E+04</pdfrwt>
<totfact> 0.30134822E+01</totfact>
</mgrwt>
</event>
<event>
 4    1  0.4897983E-002  0.4999292E+03  0.7818608E-02  0.1013797E+00
         21   -1    0    0  503  502  0.00000000000E+00  0.00000000000E+00  0.50310464910E+03  0.50310464910E+03  0.00000000000E+00 0.  1.
         21   -1    0    0  501  503 -0.00000000000E+00 -0.00000000000E+00 -0.66021506467E+03  0.66021506467E+03  0.00000000000E+00 0.  1.
    9000007    1    1    2  501    0  0.22291016965E+03 -0.20059974368E+03 -0.36796102332E+03  0.62074512932E+03  0.40000000000E+03 0.  1.
   -9000007    1    1    2    0  502 -0.22291016965E+03  0.20059974368E+03  0.21085060774E+03  0.54257458444E+03  0.40000000000E+03 0.  1.
<mgrwt>
<rscale>  2 0.49992920E+03</rscale>
<asrwt>0</asrwt>
<pdfrwt beam="1">  1       21 0.77400716E-01 0.49992920E+03</pdfrwt>
<pdfrwt beam="2">  1       21 0.10157155E+00 0.49992920E+03</pdfrwt>
<totfact> 0.97684973E+02</totfact>
</mgrwt>
</event>
<event>
 4    1  0.4897983E-002  0.4777801E+03  0.7818608E-02  0.1019747E+00
         21   -1    0    0  503  502  0.00000000000E+00  0.00000000000E+00  0.82682463724E+03  0.82682463724E+03  0.00000000000E+00 0. -1.
         21   -1    0    0  501  503 -0.00000000000E+00 -0.00000000000E+00 -0.27624793269E+03  0.27624793269E+03  0.00000000000E+00 0. -1.
    9000007    1    1    2  501    0  0.24761908040E+03  0.83418508552E+02  0.26189262077E+03  0.54485007237E+03  0.40000000000E+03 0. -1.
   -9000007    1    1    2    0  502 -0.24761908040E+03 -0.83418508552E+02  0.28868408378E+03  0.55822249756E+03  0.40000000000E+03 0. -1.
<mgrwt>
<rscale>  2 0.47778013E+03</rscale>
<asrwt>0</asrwt>
<pdfrwt beam="1">  1       21 0.12720379E+00 0.47778013E+03</pdfrwt>
<pdfrwt beam="2">  1       21 0.42499682E-01 0.47778013E+03</pdfrwt>
<totfact> 0.20708789E+03</totfact>
</mgrwt>
</event>
<event>
 4    1  0.4897983E-002  0.4304684E+03  0.7818608E-02  0.1033712E+00
         21   -1    0    0  503  502  0.00000000000E+00  0.00000000000E+00  0.81203917190E+03  0.81203917190E+03  0.00000000000E+00 0. -1.
         21   -1    0    0  501  503 -0.00000000000E+00 -0.00000000000E+00 -0.32455928307E+03  0.32455928307E+03  0.00000000000E+00 0. -1.
    9000007    1    1    2  501    0  0.61435696751E+02 -0.14672669866E+03 -0.65922599897E+02  0.43548692071E+03  0.40000000000E+03 0. -1.
   -9000007    1    1    2    0  502 -0.61435696751E+02  0.14672669866E+03  0.55340248873E+03  0.70111153426E+03  0.40000000000E+03 0. -1.
<mgrwt>
<rscale>  2 0.43046843E+03</rscale>
<asrwt>0</asrwt>
<pdfrwt beam="1">  1       21 0.12492910E+00 0.43046843E+03</pdfrwt>
<pdfrwt beam="2">  1       21 0.49932198E-01 0.43046843E+03</pdfrwt>
<totfact> 0.15745773E+03</totfact>
</mgrwt>
</event>
<event>
 4    1  0.4897983E-002  0.4125979E+03  0.7818608E-02  0.1039503E+00
         21   -1    0    0  501  502  0.00000000000E+00  0.00000000000E+00  0.19087098884E+03  0.19087098884E+03  0.00000000000E+00 0. -1.
         21   -1    0    0  502  503 -0.00000000000E+00 -0.00000000000E+00 -0.13882534781E+04  0.13882534781E+04  0.00000000000E+00 0. -1.
    9000007    1    1    2  501    0 -0.31608160408E+02  0.96114425417E+02 -0.12657461732E+03  0.43157640381E+03  0.40000000000E+03 0.  1.
   -9000007    1    1    2    0  503  0.31608160408E+02 -0.96114425417E+02 -0.10708078720E+04  0.11475480632E+04  0.40000000000E+03 0.  1.
<mgrwt>
<rscale>  2 0.41259794E+03</rscale>
<asrwt>0</asrwt>
<pdfrwt beam="1">  1       21 0.29364769E-01 0.41259794E+03</pdfrwt>
<pdfrwt beam="2">  1       21 0.21357745E+00 0.41259794E+03</pdfrwt>
<totfact> 0.10368010E+03</totfact>
</mgrwt>
</event>
<event>
 4    1  0.4897983E-002  0.4003946E+03  0.7818608E-02  0.1043643E+00
         21   -1    0    0  503  502  0.00000000000E+00  0.00000000000E+00  0.12260554807E+03  0.12260554807E+03  0.00000000000E+00 0. -1.
         21   -1    0    0  501  503 -0.00000000000E+00 -0.00000000000E+00 -0.13260729213E+04  0.13260729213E+04  0.00000000000E+00 0. -1.
    9000007    1    1    2  501    0  0.10072417293E+02 -0.14641611259E+02 -0.51618148746E+03  0.65326806011E+03  0.40000000000E+03 0.  1.
   -9000007    1    1    2    0  502 -0.10072417293E+02  0.14641611259E+02 -0.68728588574E+03  0.79541040923E+03  0.40000000000E+03 0.  1.
<mgrwt>
<rscale>  2 0.40039459E+03</rscale>
<asrwt>0</asrwt>
<pdfrwt beam="1">  1       21 0.18862392E-01 0.40039459E+03</pdfrwt>
<pdfrwt beam="2">  1       21 0.20401121E+00 0.40039459E+03</pdfrwt>
<totfact> 0.28300369E+03</totfact>
</mgrwt>
</event>
<event>
 4    1  0.4897983E-002  0.4063486E+03  0.7818608E-02  0.1041603E+00
         21   -1    0    0  503  502  0.00000000000E+00  0.00000000000E+00  0.31591167798E+03  0.31591167798E+03  0.00000000000E+00 0.  1.
         21   -1    0    0  501  503 -0.00000000000E+00 -0.00000000000E+00 -0.92470358469E+03  0.92470358469E+03  0.00000000000E+00 0.  1.
    9000007    1    1    2  501    0 -0.71540901312E+02  0.10346009080E+01 -0.71340626829E+03  0.82101624503E+03  0.40000000000E+03 0.  1.
   -9000007    1    1    2    0  502  0.71540901312E+02 -0.10346009080E+01  0.10461436159E+03  0.41959901765E+03  0.40000000000E+03 0.  1.
<mgrwt>
<rscale>  2 0.40634858E+03</rscale>
<asrwt>0</asrwt>
<pdfrwt beam="1">  1       21 0.48601797E-01 0.40634858E+03</pdfrwt>
<pdfrwt beam="2">  1       21 0.14226209E+00 0.40634858E+03</pdfrwt>
<totfact> 0.12002877E+03</totfact>
</mgrwt>
</event>
<event>
 4    1  0.4897983E-002  0.4015957E+03  0.7818608E-02  0.1043229E+00
         21   -1    0    0  503  502  0.00000000000E+00  0.00000000000E+00  0.13783523340E+03  0.13783523340E+03  0.00000000000E+00 0. -1.
         21   -1    0    0  501  503 -0.00000000000E+00 -0.00000000000E+00 -0.14452527235E+04  0.14452527235E+04  0.00000000000E+00 0. -1.
    9000007    1    1    2  501    0 -0.30885861562E+02  0.18031933482E+02 -0.99909181810E+03  0.10767838911E+04  0.40000000000E+03 0. -1.
   -9000007    1    1    2    0  502  0.30885861562E+02 -0.18031933482E+02 -0.30832567204E+03  0.50630406586E+03  0.40000000000E+03 0. -1.
<mgrwt>
<rscale>  2 0.40159568E+03</rscale>
<asrwt>0</asrwt>
<pdfrwt beam="1">  1       21 0.21205420E-01 0.40159568E+03</pdfrwt>
<pdfrwt beam="2">  1       21 0.22234658E+00 0.40159568E+03</pdfrwt>
<totfact> 0.17247317E+03</totfact>
</mgrwt>
</event>
<event>
 4    1  0.4897983E-002  0.5930376E+03  0.7818608E-02  0.9919957E-01
         21   -1    0    0  501  502  0.00000000000E+00  0.00000000000E+00  0.80747982614E+03  0.80747982614E+03  0.00000000000E+00 0. -1.
         21   -1    0    0  502  503 -0.00000000000E+00 -0.00000000000E+00 -0.95530876180E+03  0.95530876180E+03  0.00000000000E+00 0.  1.
    9000007    1    1    2  501    0  0.20700785576E+02 -0.43733867191E+03  0.57621737469E+03  0.82687369009E+03  0.40000000000E+03 0. -1.
   -9000007    1    1    2    0  503 -0.20700785576E+02  0.43733867191E+03 -0.72404631035E+03  0.93591489784E+03  0.40000000000E+03 0.  1.
<mgrwt>
<rscale>  2 0.59303763E+03</rscale>
<asrwt>0</asrwt>
<pdfrwt beam="1">  1       21 0.12422767E+00 0.59303763E+03</pdfrwt>
<pdfrwt beam="2">  1       21 0.14697058E+00 0.59303763E+03</pdfrwt>
<totfact> 0.11525498E+02</totfact>
</mgrwt>
</event>
<event>
 4    1  0.4897983E-002  0.4321358E+03  0.7818608E-02  0.1033187E+00
         21   -1    0    0  501  502  0.00000000000E+00  0.00000000000E+00  0.47866794584E+03  0.47866794584E+03  0.00000000000E+00 0. -1.
         21   -1    0    0  502  503 -0.00000000000E+00 -0.00000000000E+00 -0.41405331275E+03  0.41405331275E+03  0.00000000000E+00 0. -1.
    9000007    1    1    2  501    0 -0.67067057666E+02  0.14914211516E+03  0.13960597454E+03  0.45412684227E+03  0.40000000000E+03 0. -1.
   -9000007    1    1    2    0  503  0.67067057666E+02 -0.14914211516E+03 -0.74991341458E+02  0.43859441633E+03  0.40000000000E+03 0. -1.
<mgrwt>
<rscale>  2 0.43213581E+03</rscale>
<asrwt>0</asrwt>
<pdfrwt beam="1">  1       21 0.73641222E-01 0.43213581E+03</pdfrwt>
<pdfrwt beam="2">  1       21 0.63700510E-01 0.43213581E+03</pdfrwt>
<totfact> 0.33115523E+03</totfact>
</mgrwt>
</event>
<event>
 4    1  0.4897983E-002  0.4158409E+03  0.7818608E-02  0.1038428E+00
         21   -1    0    0  501  502  0.00000000000E+00  0.00000000000E+00  0.13040637479E+04  0.13040637479E+04  0.00000000000E+00 0. -1.
         21   -1    0    0  502  503 -0.00000000000E+00 -0.00000000000E+00 -0.19535964824E+03  0.19535964824E+03  0.00000000000E+00 0. -1.
    9000007    1    1    2  501    0  0.69707503869E+02 -0.89802808900E+02  0.97926923547E+03  0.10639040916E+04  0.40000000000E+03 0. -1.
   -9000007    1    1    2    0  503 -0.69707503869E+02  0.89802808900E+02  0.12943486423E+03  0.43551930458E+03  0.40000000000E+03 0. -1.
<mgrwt>
<rscale>  2 0.41584093E+03</rscale>
<asrwt>0</asrwt>
<pdfrwt beam="1">  1       21 0.20062519E+00 0.41584093E+03</pdfrwt>
<pdfrwt beam="2">  1       21 0.30055331E-01 0.41584093E+03</pdfrwt>
<totfact> 0.12013921E+03</totfact>
</mgrwt>
</event>
<event>
 4    1  0.4897983E-002  0.4179174E+03  0.7818608E-02  0.1037746E+00
         21   -1    0    0  501  502  0.00000000000E+00  0.00000000000E+00  0.21795052027E+03  0.21795052027E+03  0.00000000000E+00 0.  1.
         21   -1    0    0  502  503 -0.00000000000E+00 -0.00000000000E+00 -0.87193140222E+03  0.87193140222E+03  0.00000000000E+00 0. -1.
    9000007    1    1    2  501    0 -0.11922034359E+03 -0.21010760449E+02 -0.17194846323E+03  0.45190841593E+03  0.40000000000E+03 0.  1.
   -9000007    1    1    2    0  503  0.11922034359E+03  0.21010760449E+02 -0.48203241871E+03  0.63797350656E+03  0.40000000000E+03 0. -1.
<mgrwt>
<rscale>  2 0.41791739E+03</rscale>
<asrwt>0</asrwt>
<pdfrwt beam="1">  1       21 0.33530850E-01 0.41791739E+03</pdfrwt>
<pdfrwt beam="2">  1       21 0.13414329E+00 0.41791739E+03</pdfrwt>
<totfact> 0.29958594E+03</totfact>
</mgrwt>
</event>
<event>
 4    1  0.4897983E-002  0.5198075E+03  0.7818608E-02  0.1008734E+00
         21   -1    0    0  503  502  0.00000000000E+00  0.00000000000E+00  0.11586682188E+04  0.11586682188E+04  0.00000000000E+00 0. -1.
         21   -1    0    0  501  503 -0.00000000000E+00 -0.00000000000E+00 -0.24683190633E+03  0.24683190633E+03  0.00000000000E+00 0. -1.
    9000007    1    1    2  501    0 -0.19954961520E+03  0.26529195564E+03  0.29076002556E+03  0.59560159765E+03  0.40000000000E+03 0. -1.
   -9000007    1    1    2    0  502  0.19954961520E+03 -0.26529195564E+03  0.62107628692E+03  0.80989852749E+03  0.40000000000E+03 0. -1.
<mgrwt>
<rscale>  2 0.51980753E+03</rscale>
<asrwt>0</asrwt>
<pdfrwt beam="1">  1       21 0.17825665E+00 0.51980753E+03</pdfrwt>
<pdfrwt beam="2">  1       21 0.37974140E-01 0.51980753E+03</pdfrwt>
<totfact> 0.10211289E+03</totfact>
</mgrwt>
</event>
<event>
 4    1  0.4897983E-002  0.4439281E+03  0.7818608E-02  0.1029548E+00
         21   -1    0    0  501  502  0.00000000000E+00  0.00000000000E+00  0.60368006619E+03  0.60368006619E+03  0.00000000000E+00 0.  1.
         21   -1    0    0  502  503 -0.00000000000E+00 -0.00000000000E+00 -0.90112332235E+03  0.90112332235E+03  0.00000000000E+00 0.  1.
    9000007    1    1    2  501    0  0.10714780397E+03  0.15997356560E+03  0.45213055702E+03  0.63363572672E+03  0.40000000000E+03 0.  1.
   -9000007    1    1    2    0  503 -0.10714780397E+03 -0.15997356560E+03 -0.74957381318E+03  0.87116766182E+03  0.40000000000E+03 0.  1.
<mgrwt>
<rscale>  2 0.44392814E+03</rscale>
<asrwt>0</asrwt>
<pdfrwt beam="1">  1       21 0.92873856E-01 0.44392814E+03</pdfrwt>
<pdfrwt beam="2">  1       21 0.13863436E+00 0.44392814E+03</pdfrwt>
<totfact> 0.29652907E+02</totfact>
</mgrwt>
</event>
<event>
 4    1  0.4897983E-002  0.4107890E+03  0.7818608E-02  0.1040107E+00
         21   -1    0    0  501  502  0.00000000000E+00  0.00000000000E+00  0.11456689506E+04  0.11456689506E+04  0.00000000000E+00 0.  1.
         21   -1    0    0  502  503 -0.00000000000E+00 -0.00000000000E+00 -0.18597542669E+03  0.18597542669E+03  0.00000000000E+00 0.  1.
    9000007    1    1    2  501    0 -0.77182911265E+02  0.52823881278E+02  0.78351156336E+03  0.88466826220E+03  0.40000000000E+03 0.  1.
   -9000007    1    1    2    0  503  0.77182911265E+02 -0.52823881278E+02  0.17618196053E+03  0.44697611507E+03  0.40000000000E+03 0.  1.
<mgrwt>
<rscale>  2 0.41078895E+03</rscale>
<asrwt>0</asrwt>
<pdfrwt beam="1">  1       21 0.17625676E+00 0.41078895E+03</pdfrwt>
<pdfrwt beam="2">  1       21 0.28611605E-01 0.41078895E+03</pdfrwt>
<totfact> 0.19504670E+03</totfact>
</mgrwt>
</event>
<event>
 4    1  0.4897983E-002  0.4845678E+03  0.7818608E-02  0.1017887E+00
         21   -1    0    0  501  502  0.00000000000E+00  0.00000000000E+00  0.88701476849E+03  0.88701476849E+03  0.00000000000E+00 0.  1.
         21   -1    0    0  502  503 -0.00000000000E+00 -0.00000000000E+00 -0.30932141935E+03  0.30932141935E+03  0.00000000000E+00 0.  1.
    9000007    1    1    2  501    0  0.11592052585E+03  0.24772651633E+03  0.61694142173E+02  0.48847943906E+03  0.40000000000E+03 0.  1.
   -9000007    1    1    2    0  503 -0.11592052585E+03 -0.24772651633E+03  0.51599920697E+03  0.70785674878E+03  0.40000000000E+03 0.  1.
<mgrwt>
<rscale>  2 0.48456784E+03</rscale>
<asrwt>0</asrwt>
<pdfrwt beam="1">  1       21 0.13646381E+00 0.48456784E+03</pdfrwt>
<pdfrwt beam="2">  1       21 0.47587911E-01 0.48456784E+03</pdfrwt>
<totfact> 0.13565608E+03</totfact>
</mgrwt>
</event>
<event>
 4    1  0.4897983E-002  0.4518797E+03  0.7818608E-02  0.1027163E+00
         21   -1    0    0  503  502  0.00000000000E+00  0.00000000000E+00  0.16729193403E+03  0.16729193403E+03  0.00000000000E+00 0.  1.
         21   -1    0    0  501  503 -0.00000000000E+00 -0.00000000000E+00 -0.12502064284E+04  0.12502064284E+04  0.00000000000E+00 0. -1.
    9000007    1    1    2  501    0  0.15721049482E+03 -0.13957113042E+03 -0.65053883833E+03  0.79208334176E+03  0.40000000000E+03 0. -1.
   -9000007    1    1    2    0  502 -0.15721049482E+03  0.13957113042E+03 -0.43237565602E+03  0.62541502064E+03  0.40000000000E+03 0.  1.
<mgrwt>
<rscale>  2 0.45187967E+03</rscale>
<asrwt>0</asrwt>
<pdfrwt beam="1">  1       21 0.25737220E-01 0.45187967E+03</pdfrwt>
<pdfrwt beam="2">  1       21 0.19233946E+00 0.45187967E+03</pdfrwt>
<totfact> 0.18232724E+03</totfact>
</mgrwt>
</event>
<event>
 4    1  0.4897983E-002  0.4651535E+03  0.7818608E-02  0.1023297E+00
         21   -1    0    0  501  502  0.00000000000E+00  0.00000000000E+00  0.24569956701E+03  0.24569956701E+03  0.00000000000E+00 0.  1.
         21   -1    0    0  502  503 -0.00000000000E+00 -0.00000000000E+00 -0.11265522825E+04  0.11265522825E+04  0.00000000000E+00 0.  1.
    9000007    1    1    2  501    0  0.68909963632E+02  0.22719858946E+03 -0.11984627518E+03  0.48034457612E+03  0.40000000000E+03 0.  1.
   -9000007    1    1    2    0  503 -0.68909963632E+02 -0.22719858946E+03 -0.76100644033E+03  0.89190727341E+03  0.40000000000E+03 0.  1.
<mgrwt>
<rscale>  2 0.46515350E+03</rscale>
<asrwt>0</asrwt>
<pdfrwt beam="1">  1       21 0.37799933E-01 0.46515350E+03</pdfrwt>
<pdfrwt beam="2">  1       21 0.17331574E+00 0.46515350E+03</pdfrwt>
<totfact> 0.11431568E+03</totfact>
</mgrwt>
</event>
<event>
 4    1  0.4897983E-002  0.7400964E+03  0.7818608E-02  0.9651017E-01
         21   -1    0    0  501  502  0.00000000000E+00  0.00000000000E+00  0.70538029151E+03  0.70538029151E+03  0.00000000000E+00 0.  1.
         21   -1    0    0  502  503 -0.00000000000E+00 -0.00000000000E+00 -0.78654570882E+03  0.78654570882E+03  0.00000000000E+00 0. -1.
    9000007    1    1    2  501    0 -0.22315036147E+02  0.62228984766E+03  0.43632591993E+02  0.74138142573E+03  0.40000000000E+03 0.  1.
   -9000007    1    1    2    0  503  0.22315036147E+02 -0.62228984766E+03 -0.12479800931E+03  0.75054457460E+03  0.40000000000E+03 0. -1.
<mgrwt>
<rscale>  2 0.74009636E+03</rscale>
<asrwt>0</asrwt>
<pdfrwt beam="1">  1       21 0.10852005E+00 0.74009636E+03</pdfrwt>
<pdfrwt beam="2">  1       21 0.12100703E+00 0.74009636E+03</pdfrwt>
<totfact> 0.25889348E+02</totfact>
</mgrwt>
</event>
<event>
 4    1  0.4897983E-002  0.4649227E+03  0.7818608E-02  0.1023363E+00
         21   -1    0    0  503  502  0.00000000000E+00  0.00000000000E+00  0.22634086128E+04  0.22634086128E+04  0.00000000000E+00 0.  1.
         21   -1    0    0  501  503 -0.00000000000E+00 -0.00000000000E+00 -0.10471015736E+03  0.10471015736E+03  0.00000000000E+00 0. -1.
    9000007    1    1    2  501    0 -0.23157310181E+03 -0.50269431366E+02  0.72816285359E+03  0.86392954491E+03  0.40000000000E+03 0.  1.
   -9000007    1    1    2    0  502  0.23157310181E+03  0.50269431366E+02  0.14305356018E+04  0.15041892252E+04  0.40000000000E+03 0.  1.
<mgrwt>
<rscale>  2 0.46492270E+03</rscale>
<asrwt>0</asrwt>
<pdfrwt beam="1">  1       21 0.34821667E+00 0.46492270E+03</pdfrwt>
<pdfrwt beam="2">  1       21 0.16109257E-01 0.46492270E+03</pdfrwt>
<totfact> 0.47992478E+02</totfact>
</mgrwt>
</event>
<event>
 4    1  0.4897983E-002  0.5673252E+03  0.7818608E-02  0.9975615E-01
         21   -1    0    0  501  502  0.00000000000E+00  0.00000000000E+00  0.16588746138E+03  0.16588746138E+03  0.00000000000E+00 0.  1.
         21   -1    0    0  502  503 -0.00000000000E+00 -0.00000000000E+00 -0.19463403425E+04  0.19463403425E+04  0.00000000000E+00 0.  1.
    9000007    1    1    2  501    0 -0.34794110126E+03 -0.20197740630E+03 -0.94945767113E+03  0.11060414784E+04  0.40000000000E+03 0.  1.
   -9000007    1    1    2    0  503  0.34794110126E+03  0.20197740630E+03 -0.83099520997E+03  0.10061863255E+04  0.40000000000E+03 0.  1.
<mgrwt>
<rscale>  2 0.56732520E+03</rscale>
<asrwt>0</asrwt>
<pdfrwt beam="1">  1       21 0.25521148E-01 0.56732520E+03</pdfrwt>
<pdfrwt beam="2">  1       21 0.29943697E+00 0.56732520E+03</pdfrwt>
<totfact> 0.37445206E+02</totfact>
</mgrwt>
</event>
<event>
 4    1  0.4897983E-002  0.7906098E+03  0.7818608E-02  0.9573709E-01
         21   -1    0    0  503  502  0.00000000000E+00  0.00000000000E+00  0.76656773049E+03  0.76656773049E+03  0.00000000000E+00 0.  1.
         21   -1    0    0  501  503 -0.00000000000E+00 -0.00000000000E+00 -0.10927531802E+04  0.10927531802E+04  0.00000000000E+00 0.  1.
    9000007    1    1    2  501    0  0.65239128664E+03  0.19861870243E+03 -0.63144792431E+03  0.10118252127E+04  0.40000000000E+03 0.  1.
   -9000007    1    1    2    0  502 -0.65239128664E+03 -0.19861870243E+03  0.30526247459E+03  0.84749569806E+03  0.40000000000E+03 0.  1.
<mgrwt>
<rscale>  2 0.79060975E+03</rscale>
<asrwt>0</asrwt>
<pdfrwt beam="1">  1       21 0.11793350E+00 0.79060975E+03</pdfrwt>
<pdfrwt beam="2">  1       21 0.16811587E+00 0.79060975E+03</pdfrwt>
<totfact> 0.84381036E+01</totfact>
</mgrwt>
</event>
<event>
 4    1  0.4897983E-002  0.6386960E+03  0.7818608E-02  0.9828225E-01
         21   -1    0    0  501  502  0.00000000000E+00  0.00000000000E+00  0.28241041437E+03  0.28241041437E+03  0.00000000000E+00 0. -1.
         21   -1    0    0  502  503 -0.00000000000E+00 -0.00000000000E+00 -0.23572493994E+04  0.23572493994E+04  0.00000000000E+00 0.  1.
    9000007    1    1    2  501    0 -0.40203152480E+03 -0.29377417951E+03 -0.21612530393E+03  0.67427202410E+03  0.40000000000E+03 0. -1.
   -9000007    1    1    2    0  503  0.40203152480E+03  0.29377417951E+03 -0.18587136811E+04  0.19653877897E+04  0.40000000000E+03 0.  1.
<mgrwt>
<rscale>  2 0.63869603E+03</rscale>
<asrwt>0</asrwt>
<pdfrwt beam="1">  1       21 0.43447758E-01 0.63869603E+03</pdfrwt>
<pdfrwt beam="2">  1       21 0.36265374E+00 0.63869603E+03</pdfrwt>
<totfact> 0.50345592E+01</totfact>
</mgrwt>
</event>
<event>
 4    1  0.4897983E-002  0.4424204E+03  0.7818608E-02  0.1030007E+00
         21   -1    0    0  503  502  0.00000000000E+00  0.00000000000E+00  0.48713238314E+03  0.48713238314E+03  0.00000000000E+00 0.  1.
         21   -1    0    0  501  503 -0.00000000000E+00 -0.00000000000E+00 -0.53109431098E+03  0.53109431098E+03  0.00000000000E+00 0.  1.
    9000007    1    1    2  501    0 -0.18200873844E+03 -0.51074549649E+02  0.22920633894E+03  0.49826833765E+03  0.40000000000E+03 0.  1.
   -9000007    1    1    2    0  502  0.18200873844E+03  0.51074549649E+02 -0.27316826679E+03  0.51995835647E+03  0.40000000000E+03 0.  1.
<mgrwt>
<rscale>  2 0.44242038E+03</rscale>
<asrwt>0</asrwt>
<pdfrwt beam="1">  1       21 0.74943444E-01 0.44242038E+03</pdfrwt>
<pdfrwt beam="2">  1       21 0.81706817E-01 0.44242038E+03</pdfrwt>
<totfact> 0.18041587E+03</totfact>
</mgrwt>
</event>
<event>
 4    1  0.4897983E-002  0.4346058E+03  0.7818608E-02  0.1032415E+00
         21   -1    0    0  503  502  0.00000000000E+00  0.00000000000E+00  0.31039878673E+03  0.31039878673E+03  0.00000000000E+00 0.  1.
         21   -1    0    0  501  503 -0.00000000000E+00 -0.00000000000E+00 -0.12912048724E+04  0.12912048724E+04  0.00000000000E+00 0.  1.
    9000007    1    1    2  501    0 -0.13817030201E+03 -0.98950220045E+02 -0.10726930691E+04  0.11573904263E+04  0.40000000000E+03 0.  1.
   -9000007    1    1    2    0  502  0.13817030201E+03  0.98950220045E+02  0.91886983517E+02  0.44421323274E+03  0.40000000000E+03 0.  1.
<mgrwt>
<rscale>  2 0.43460577E+03</rscale>
<asrwt>0</asrwt>
<pdfrwt beam="1">  1       21 0.47753659E-01 0.43460577E+03</pdfrwt>
<pdfrwt beam="2">  1       21 0.19864690E+00 0.43460577E+03</pdfrwt>
<totfact> 0.47616160E+02</totfact>
</mgrwt>
</event>
<event>
 4    1  0.4897983E-002  0.5311252E+03  0.7818608E-02  0.1005960E+00
         21   -1    0    0  501  502  0.00000000000E+00  0.00000000000E+00  0.76278501373E+03  0.76278501373E+03  0.00000000000E+00 0. -1.
         21   -1    0    0  502  503 -0.00000000000E+00 -0.00000000000E+00 -0.38987961702E+03  0.38987961702E+03  0.00000000000E+00 0.  1.
    9000007    1    1    2  501    0  0.29095736704E+03  0.19348834040E+03  0.31717751665E+03  0.61862387957E+03  0.40000000000E+03 0. -1.
   -9000007    1    1    2    0  503 -0.29095736704E+03 -0.19348834040E+03  0.55727880058E+02  0.53404075118E+03  0.40000000000E+03 0. -1.
<mgrwt>
<rscale>  2 0.53112515E+03</rscale>
<asrwt>0</asrwt>
<pdfrwt beam="1">  1       21 0.11735154E+00 0.53112515E+03</pdfrwt>
<pdfrwt beam="2">  1       21 0.59981480E-01 0.53112515E+03</pdfrwt>
<totfact> 0.11969251E+03</totfact>
</mgrwt>
</event>
<event>
 4    1  0.4897983E-002  0.4336787E+03  0.7818608E-02  0.1032704E+00
         21   -1    0    0  501  502  0.00000000000E+00  0.00000000000E+00  0.18846416490E+04  0.18846416490E+04  0.00000000000E+00 0. -1.
         21   -1    0    0  502  503 -0.00000000000E+00 -0.00000000000E+00 -0.22658618406E+03  0.22658618406E+03  0.00000000000E+00 0. -1.
    9000007    1    1    2  501    0  0.16057765548E+03  0.47874863899E+02  0.16186756478E+04  0.16757649115E+04  0.40000000000E+03 0. -1.
   -9000007    1    1    2    0  503 -0.16057765548E+03 -0.47874863899E+02  0.39379817179E+02  0.43546292154E+03  0.40000000000E+03 0. -1.
<mgrwt>
<rscale>  2 0.43367867E+03</rscale>
<asrwt>0</asrwt>
<pdfrwt beam="1">  1       21 0.28994486E+00 0.43367867E+03</pdfrwt>
<pdfrwt beam="2">  1       21 0.34859414E-01 0.43367867E+03</pdfrwt>
<totfact> 0.24651820E+02</totfact>
</mgrwt>
</event>
<event>
 4    1  0.4897983E-002  0.4404145E+03  0.7818608E-02  0.1030620E+00
         21   -1    0    0  501  502  0.00000000000E+00  0.00000000000E+00  0.79523686339E+03  0.79523686339E+03  0.00000000000E+00 0.  1.
         21   -1    0    0  502  503 -0.00000000000E+00 -0.00000000000E+00 -0.29153213322E+03  0.29153213322E+03  0.00000000000E+00 0. -1.
    9000007    1    1    2  501    0  0.12500800597E+02 -0.18387126959E+03  0.47147442516E+03  0.64517675669E+03  0.40000000000E+03 0.  1.
   -9000007    1    1    2    0  503 -0.12500800597E+02  0.18387126959E+03  0.32230305004E+02  0.44159223992E+03  0.40000000000E+03 0. -1.
<mgrwt>
<rscale>  2 0.44041448E+03</rscale>
<asrwt>0</asrwt>
<pdfrwt beam="1">  1       21 0.12234413E+00 0.44041448E+03</pdfrwt>
<pdfrwt beam="2">  1       21 0.44851098E-01 0.44041448E+03</pdfrwt>
<totfact> 0.20748039E+03</totfact>
</mgrwt>
</event>
<event>
 4    1  0.4897983E-002  0.4022651E+03  0.7818608E-02  0.1042998E+00
         21   -1    0    0  503  502  0.00000000000E+00  0.00000000000E+00  0.16986750169E+04  0.16986750169E+04  0.00000000000E+00 0.  1.
         21   -1    0    0  501  503 -0.00000000000E+00 -0.00000000000E+00 -0.33942080428E+03  0.33942080428E+03  0.00000000000E+00 0.  1.
    9000007    1    1    2  501    0 -0.80876915831E+01  0.41854249430E+02 -0.18466910773E+03  0.44262836364E+03  0.40000000000E+03 0.  1.
   -9000007    1    1    2    0  502  0.80876915831E+01 -0.41854249430E+02  0.15439233204E+04  0.15954674576E+04  0.40000000000E+03 0.  1.
<mgrwt>
<rscale>  2 0.40226507E+03</rscale>
<asrwt>0</asrwt>
<pdfrwt beam="1">  1       21 0.26133461E+00 0.40226507E+03</pdfrwt>
<pdfrwt beam="2">  1       21 0.52218586E-01 0.40226507E+03</pdfrwt>
<totfact> 0.16159072E+02</totfact>
</mgrwt>
</event>
<event>
 4    1  0.4897983E-002  0.5168948E+03  0.7818608E-02  0.1009461E+00
         21   -1    0    0  503  502  0.00000000000E+00  0.00000000000E+00  0.82920608088E+03  0.82920608088E+03  0.00000000000E+00 0. -1.
         21   -1    0    0  501  503 -0.00000000000E+00 -0.00000000000E+00 -0.42036420792E+03  0.42036420792E+03  0.00000000000E+00 0. -1.
    9000007    1    1    2  501    0  0.11110567425E+03 -0.30795408669E+03 -0.97482292258E+02  0.52600664222E+03  0.40000000000E+03 0. -1.
   -9000007    1    1    2    0  502 -0.11110567425E+03  0.30795408669E+03  0.50632416521E+03  0.72356364657E+03  0.40000000000E+03 0. -1.
<mgrwt>
<rscale>  2 0.51689476E+03</rscale>
<asrwt>0</asrwt>
<pdfrwt beam="1">  1       21 0.12757017E+00 0.51689476E+03</pdfrwt>
<pdfrwt beam="2">  1       21 0.64671417E-01 0.51689476E+03</pdfrwt>
<totfact> 0.82179159E+02</totfact>
</mgrwt>
</event>
<event>
 4    1  0.4897983E-002  0.4135440E+03  0.7818608E-02  0.1039188E+00
         21   -1    0    0  503  502  0.00000000000E+00  0.00000000000E+00  0.12001801241E+03  0.12001801241E+03  0.00000000000E+00 0.  1.
         21   -1    0    0  501  503 -0.00000000000E+00 -0.00000000000E+00 -0.15307378449E+04  0.15307378449E+04  0.00000000000E+00 0.  1.
    9000007    1    1    2  501    0 -0.89914972791E+02  0.54165694280E+02 -0.92234913054E+03  0.10108147918E+04  0.40000000000E+03 0.  1.
   -9000007    1    1    2    0  502  0.89914972791E+02 -0.54165694280E+02 -0.48837070197E+03  0.63994106550E+03  0.40000000000E+03 0.  1.
<mgrwt>
<rscale>  2 0.41354398E+03</rscale>
<asrwt>0</asrwt>
<pdfrwt beam="1">  1       21 0.18464309E-01 0.41354398E+03</pdfrwt>
<pdfrwt beam="2">  1       21 0.23549814E+00 0.41354398E+03</pdfrwt>
<totfact> 0.18433981E+03</totfact>
</mgrwt>
</event>
<event>
 4    1  0.4897983E-002  0.4580145E+03  0.7818608E-02  0.1025359E+00
         21   -1    0    0  501  502  0.00000000000E+00  0.00000000000E+00  0.43272160907E+03  0.43272160907E+03  0.00000000000E+00 0.  1.
         21   -1    0    0  502  503 -0.00000000000E+00 -0.00000000000E+00 -0.12746346590E+04  0.12746346590E+04  0.00000000000E+00 0.  1.
    9000007    1    1    2  501    0 -0.23815919016E+02 -0.22183346809E+03  0.25104970182E+03  0.52230569435E+03  0.40000000000E+03 0.  1.
   -9000007    1    1    2    0  503  0.23815919016E+02  0.22183346809E+03 -0.10929627518E+04  0.11850505738E+04  0.40000000000E+03 0.  1.
<mgrwt>
<rscale>  2 0.45801450E+03</rscale>
<asrwt>0</asrwt>
<pdfrwt beam="1">  1       21 0.66572557E-01 0.45801450E+03</pdfrwt>
<pdfrwt beam="2">  1       21 0.19609764E+00 0.45801450E+03</pdfrwt>
<totfact> 0.23804182E+02</totfact>
</mgrwt>
</event>
<event>
 4    1  0.4897983E-002  0.4136524E+03  0.7818608E-02  0.1039152E+00
         21   -1    0    0  503  502  0.00000000000E+00  0.00000000000E+00  0.40835573824E+03  0.40835573824E+03  0.00000000000E+00 0. -1.
         21   -1    0    0  501  503 -0.00000000000E+00 -0.00000000000E+00 -0.71992076447E+03  0.71992076447E+03  0.00000000000E+00 0. -1.
    9000007    1    1    2  501    0  0.88590180766E+02  0.57097234553E+02 -0.52049988244E+03  0.66485219556E+03  0.40000000000E+03 0. -1.
   -9000007    1    1    2    0  502 -0.88590180766E+02 -0.57097234553E+02  0.20893485620E+03  0.46342430715E+03  0.40000000000E+03 0. -1.
<mgrwt>
<rscale>  2 0.41365241E+03</rscale>
<asrwt>0</asrwt>
<pdfrwt beam="1">  1       21 0.62823960E-01 0.41365241E+03</pdfrwt>
<pdfrwt beam="2">  1       21 0.11075704E+00 0.41365241E+03</pdfrwt>
<totfact> 0.13068771E+03</totfact>
</mgrwt>
</event>
<event>
 4    1  0.4897983E-002  0.4533905E+03  0.7818608E-02  0.1026716E+00
         21   -1    0    0  503  502  0.00000000000E+00  0.00000000000E+00  0.81920871352E+03  0.81920871352E+03  0.00000000000E+00 0. -1.
         21   -1    0    0  501  503 -0.00000000000E+00 -0.00000000000E+00 -0.25748333705E+03  0.25748333705E+03  0.00000000000E+00 0. -1.
    9000007    1    1    2  501    0  0.15802805714E+03  0.14349248833E+03  0.19496886460E+03  0.49353401019E+03  0.40000000000E+03 0. -1.
   -9000007    1    1    2    0  502 -0.15802805714E+03 -0.14349248833E+03  0.36675651188E+03  0.58315804038E+03  0.40000000000E+03 0. -1.
<mgrwt>
<rscale>  2 0.45339052E+03</rscale>
<asrwt>0</asrwt>
<pdfrwt beam="1">  1       21 0.12603211E+00 0.45339052E+03</pdfrwt>
<pdfrwt beam="2">  1       21 0.39612821E-01 0.45339052E+03</pdfrwt>
<totfact> 0.24754645E+03</totfact>
</mgrwt>
</event>
<event>
 4    1  0.4897983E-002  0.4527410E+03  0.7818608E-02  0.1026908E+00
         21   -1    0    0  503  502  0.00000000000E+00  0.00000000000E+00  0.16328091740E+04  0.16328091740E+04  0.00000000000E+00 0.  1.
         21   -1    0    0  501  503 -0.00000000000E+00 -0.00000000000E+00 -0.86573024330E+03  0.86573024330E+03  0.00000000000E+00 0.  1.
    9000007    1    1    2  501    0 -0.20964201941E+03  0.32009854253E+02 -0.77160981658E+03  0.89462624381E+03  0.40000000000E+03 0.  1.
   -9000007    1    1    2    0  502  0.20964201941E+03 -0.32009854253E+02  0.15386887472E+04  0.16039131734E+04  0.40000000000E+03 0.  1.
<mgrwt>
<rscale>  2 0.45274099E+03</rscale>
<asrwt>0</asrwt>
<pdfrwt beam="1">  1       21 0.25120141E+00 0.45274099E+03</pdfrwt>
<pdfrwt beam="2">  1       21 0.13318927E+00 0.45274099E+03</pdfrwt>
<totfact> 0.20059042E+01</totfact>
</mgrwt>
</event>
<event>
 4    1  0.4897983E-002  0.4313820E+03  0.7818608E-02  0.1033424E+00
         21   -1    0    0  501  502  0.00000000000E+00  0.00000000000E+00  0.61390672906E+03  0.61390672906E+03  0.00000000000E+00 0.  1.
         21   -1    0    0  502  503 -0.00000000000E+00 -0.00000000000E+00 -0.32202072525E+03  0.32202072525E+03  0.00000000000E+00 0.  1.
    9000007    1    1    2  501    0  0.89842737564E+02 -0.13423392487E+03  0.25930103680E+03  0.50331649264E+03  0.40000000000E+03 0.  1.
   -9000007    1    1    2    0  503 -0.89842737564E+02  0.13423392487E+03  0.32584967021E+02  0.43261096167E+03  0.40000000000E+03 0.  1.
<mgrwt>
<rscale>  2 0.43138204E+03</rscale>
<asrwt>0</asrwt>
<pdfrwt beam="1">  1       21 0.94447189E-01 0.43138204E+03</pdfrwt>
<pdfrwt beam="2">  1       21 0.49541650E-01 0.43138204E+03</pdfrwt>
<totfact> 0.31981537E+03</totfact>
</mgrwt>
</event>
<event>
 4    1  0.4897983E-002  0.4322977E+03  0.7818608E-02  0.1033137E+00
         21   -1    0    0  501  502  0.00000000000E+00  0.00000000000E+00  0.62924503316E+03  0.62924503316E+03  0.00000000000E+00 0. -1.
         21   -1    0    0  502  503 -0.00000000000E+00 -0.00000000000E+00 -0.48962284516E+03  0.48962284516E+03  0.00000000000E+00 0.  1.
    9000007    1    1    2  501    0 -0.16119657923E+03 -0.29948958501E+02  0.42070831414E+03  0.60322198473E+03  0.40000000000E+03 0. -1.
   -9000007    1    1    2    0  503  0.16119657923E+03  0.29948958501E+02 -0.28108612614E+03  0.51564589359E+03  0.40000000000E+03 0.  1.
<mgrwt>
<rscale>  2 0.43229767E+03</rscale>
<asrwt>0</asrwt>
<pdfrwt beam="1">  1       21 0.96806929E-01 0.43229767E+03</pdfrwt>
<pdfrwt beam="2">  1       21 0.75326591E-01 0.43229767E+03</pdfrwt>
<totfact> 0.11997646E+03</totfact>
</mgrwt>
</event>
<event>
 4    1  0.4897983E-002  0.4407597E+03  0.7818608E-02  0.1030514E+00
         21   -1    0    0  501  502  0.00000000000E+00  0.00000000000E+00  0.34767168858E+03  0.34767168858E+03  0.00000000000E+00 0.  1.
         21   -1    0    0  502  503 -0.00000000000E+00 -0.00000000000E+00 -0.71635252809E+03  0.71635252809E+03  0.00000000000E+00 0. -1.
    9000007    1    1    2  501    0 -0.17362205269E+03  0.64222538805E+02  0.65182017617E+02  0.44555341665E+03  0.40000000000E+03 0.  1.
   -9000007    1    1    2    0  503  0.17362205269E+03 -0.64222538805E+02 -0.43386285713E+03  0.61847080001E+03  0.40000000000E+03 0. -1.
<mgrwt>
<rscale>  2 0.44075974E+03</rscale>
<asrwt>0</asrwt>
<pdfrwt beam="1">  1       21 0.53487952E-01 0.44075974E+03</pdfrwt>
<pdfrwt beam="2">  1       21 0.11020808E+00 0.44075974E+03</pdfrwt>
<totfact> 0.18568447E+03</totfact>
</mgrwt>
</event>
<event>
 4    1  0.4897983E-002  0.5924413E+03  0.7818608E-02  0.9921213E-01
         21   -1    0    0  503  502  0.00000000000E+00  0.00000000000E+00  0.19304224405E+04  0.19304224405E+04  0.00000000000E+00 0. -1.
         21   -1    0    0  501  503 -0.00000000000E+00 -0.00000000000E+00 -0.18868661119E+03  0.18868661119E+03  0.00000000000E+00 0.  1.
    9000007    1    1    2  501    0  0.37760750860E+03 -0.21999828423E+03  0.66872023722E+03  0.89340552454E+03  0.40000000000E+03 0.  1.
   -9000007    1    1    2    0  502 -0.37760750860E+03  0.21999828423E+03  0.10730155921E+04  0.12257035272E+04  0.40000000000E+03 0.  1.
<mgrwt>
<rscale>  2 0.59244128E+03</rscale>
<asrwt>0</asrwt>
<pdfrwt beam="1">  1       21 0.29698805E+00 0.59244128E+03</pdfrwt>
<pdfrwt beam="2">  1       21 0.29028711E-01 0.59244128E+03</pdfrwt>
<totfact> 0.29711289E+02</totfact>
</mgrwt>
</event>
<event>
 4    1  0.4897983E-002  0.4957832E+03  0.7818608E-02  0.1014885E+00
         21   -1    0    0  501  502  0.00000000000E+00  0.00000000000E+00  0.12025564009E+04  0.12025564009E+04  0.00000000000E+00 0. -1.
         21   -1    0    0  502  503 -0.00000000000E+00 -0.00000000000E+00 -0.40861022632E+03  0.40861022632E+03  0.00000000000E+00 0.  1.
    9000007    1    1    2  501    0 -0.28725816409E+03  0.57303529235E+02  0.96647604964E+03  0.10862213871E+04  0.40000000000E+03 0. -1.
   -9000007    1    1    2    0  503  0.28725816409E+03 -0.57303529235E+02 -0.17252987508E+03  0.52494524009E+03  0.40000000000E+03 0.  1.
<mgrwt>
<rscale>  2 0.49578317E+03</rscale>
<asrwt>0</asrwt>
<pdfrwt beam="1">  1       21 0.18500868E+00 0.49578317E+03</pdfrwt>
<pdfrwt beam="2">  1       21 0.62863112E-01 0.49578317E+03</pdfrwt>
<totfact> 0.31617723E+02</totfact>
</mgrwt>
</event>
<event>
 4    1  0.4897983E-002  0.7348294E+03  0.7818608E-02  0.9659456E-01
         21   -1    0    0  501  502  0.00000000000E+00  0.00000000000E+00  0.75650892097E+03  0.75650892097E+03  0.00000000000E+00 0.  1.
         21   -1    0    0  502  503 -0.00000000000E+00 -0.00000000000E+00 -0.81157351941E+03  0.81157351941E+03  0.00000000000E+00 0.  1.
    9000007    1    1    2  501    0 -0.27347246980E+03  0.55243738340E+03  0.24464356798E+03  0.77448352447E+03  0.40000000000E+03 0.  1.
   -9000007    1    1    2    0  503  0.27347246980E+03 -0.55243738340E+03 -0.29970816642E+03  0.79359891591E+03  0.40000000000E+03 0.  1.
<mgrwt>
<rscale>  2 0.73482940E+03</rscale>
<asrwt>0</asrwt>
<pdfrwt beam="1">  1       21 0.11638599E+00 0.73482940E+03</pdfrwt>
<pdfrwt beam="2">  1       21 0.12485746E+00 0.73482940E+03</pdfrwt>
<totfact> 0.20031837E+02</totfact>
</mgrwt>
</event>
<event>
 4    1  0.4897983E-002  0.4144765E+03  0.7818608E-02  0.1038879E+00
         21   -1    0    0  503  502  0.00000000000E+00  0.00000000000E+00  0.62739305242E+03  0.62739305242E+03  0.00000000000E+00 0.  1.
         21   -1    0    0  501  503 -0.00000000000E+00 -0.00000000000E+00 -0.35054221035E+03  0.35054221035E+03  0.00000000000E+00 0. -1.
    9000007    1    1    2  501    0  0.84692114783E+02 -0.67955820647E+02 -0.90334325014E+02  0.42420636268E+03  0.40000000000E+03 0. -1.
   -9000007    1    1    2    0  502 -0.84692114783E+02  0.67955820647E+02  0.36718516708E+03  0.55372890009E+03  0.40000000000E+03 0.  1.
<mgrwt>
<rscale>  2 0.41447647E+03</rscale>
<asrwt>0</asrwt>
<pdfrwt beam="1">  1       21 0.96522008E-01 0.41447647E+03</pdfrwt>
<pdfrwt beam="2">  1       21 0.53929571E-01 0.41447647E+03</pdfrwt>
<totfact> 0.25491417E+03</totfact>
</mgrwt>
</event>
<event>
 4    1  0.4897983E-002  0.4852300E+03  0.7818608E-02  0.1017708E+00
         21   -1    0    0  503  502  0.00000000000E+00  0.00000000000E+00  0.71643708824E+03  0.71643708824E+03  0.00000000000E+00 0. -1.
         21   -1    0    0  501  503 -0.00000000000E+00 -0.00000000000E+00 -0.35367100696E+03  0.35367100696E+03  0.00000000000E+00 0. -1.
    9000007    1    1    2  501    0  0.26639912711E+03 -0.66930024124E+02  0.39032731439E+02  0.48679736768E+03  0.40000000000E+03 0. -1.
   -9000007    1    1    2    0  502 -0.26639912711E+03  0.66930024124E+02  0.32373334984E+03  0.58331072753E+03  0.40000000000E+03 0. -1.
<mgrwt>
<rscale>  2 0.48522997E+03</rscale>
<asrwt>0</asrwt>
<pdfrwt beam="1">  1       21 0.11022109E+00 0.48522997E+03</pdfrwt>
<pdfrwt beam="2">  1       21 0.54410924E-01 0.48522997E+03</pdfrwt>
<totfact> 0.17595123E+03</totfact>
</mgrwt>
</event>
<event>
 4    1  0.4897983E-002  0.4140317E+03  0.7818608E-02  0.1039026E+00
         21   -1    0    0  503  502  0.00000000000E+00  0.00000000000E+00  0.58870132866E+03  0.58870132866E+03  0.00000000000E+00 0.  1.
         21   -1    0    0  501  503 -0.00000000000E+00 -0.00000000000E+00 -0.42368632738E+03  0.42368632738E+03  0.00000000000E+00 0.  1.
    9000007    1    1    2  501    0  0.96165175501E+02  0.46631189425E+02 -0.20056739784E+03  0.46005379021E+03  0.40000000000E+03 0.  1.
   -9000007    1    1    2    0  502 -0.96165175501E+02 -0.46631189425E+02  0.36558239912E+03  0.55233386584E+03  0.40000000000E+03 0.  1.
<mgrwt>
<rscale>  2 0.41403165E+03</rscale>
<asrwt>0</asrwt>
<pdfrwt beam="1">  1       21 0.90569435E-01 0.41403165E+03</pdfrwt>
<pdfrwt beam="2">  1       21 0.65182512E-01 0.41403165E+03</pdfrwt>
<totfact> 0.19618941E+03</totfact>
</mgrwt>
</event>
<event>
 4    1  0.4897983E-002  0.6415408E+03  0.7818608E-02  0.9822783E-01
         21   -1    0    0  503  502  0.00000000000E+00  0.00000000000E+00  0.28461987031E+04  0.28461987031E+04  0.00000000000E+00 0.  1.
         21   -1    0    0  501  503 -0.00000000000E+00 -0.00000000000E+00 -0.34157797508E+03  0.34157797508E+03  0.00000000000E+00 0. -1.
    9000007    1    1    2  501    0 -0.23625231834E+03 -0.44244704484E+03  0.41945542297E+02  0.64291054893E+03  0.40000000000E+03 0. -1.
   -9000007    1    1    2    0  502  0.23625231834E+03  0.44244704484E+03  0.24626751857E+04  0.25448661293E+04  0.40000000000E+03 0.  1.
<mgrwt>
<rscale>  2 0.64154076E+03</rscale>
<asrwt>0</asrwt>
<pdfrwt beam="1">  1       21 0.43787671E+00 0.64154076E+03</pdfrwt>
<pdfrwt beam="2">  1       21 0.52550460E-01 0.64154076E+03</pdfrwt>
<totfact> 0.10893125E+01</totfact>
</mgrwt>
</event>
<event>
 4    1  0.4897983E-002  0.4187134E+03  0.7818608E-02  0.1037486E+00
         21   -1    0    0  501  502  0.00000000000E+00  0.00000000000E+00  0.21157746924E+03  0.21157746924E+03  0.00000000000E+00 0.  1.
         21   -1    0    0  502  503 -0.00000000000E+00 -0.00000000000E+00 -0.88672664323E+03  0.88672664323E+03  0.00000000000E+00 0.  1.
    9000007    1    1    2  501    0 -0.12092052024E+03  0.26441685411E+02 -0.47812975377E+03  0.63555408612E+03  0.40000000000E+03 0.  1.
   -9000007    1    1    2    0  503  0.12092052024E+03 -0.26441685411E+02 -0.19701942022E+03  0.46275002635E+03  0.40000000000E+03 0.  1.
<mgrwt>
<rscale>  2 0.41871343E+03</rscale>
<asrwt>0</asrwt>
<pdfrwt beam="1">  1       21 0.32550379E-01 0.41871343E+03</pdfrwt>
<pdfrwt beam="2">  1       21 0.13641949E+00 0.41871343E+03</pdfrwt>
<totfact> 0.30419343E+03</totfact>
</mgrwt>
</event>
<event>
 4    1  0.4897983E-002  0.4685282E+03  0.7818608E-02  0.1022336E+00
         21   -1    0    0  503  502  0.00000000000E+00  0.00000000000E+00  0.67630570828E+03  0.67630570828E+03  0.00000000000E+00 0. -1.
         21   -1    0    0  501  503 -0.00000000000E+00 -0.00000000000E+00 -0.38624576131E+03  0.38624576131E+03  0.00000000000E+00 0. -1.
    9000007    1    1    2  501    0  0.16027828668E+02 -0.24343739027E+03 -0.67242038314E+02  0.47332879269E+03  0.40000000000E+03 0. -1.
   -9000007    1    1    2    0  502 -0.16027828668E+02  0.24343739027E+03  0.35730198529E+03  0.58922267690E+03  0.40000000000E+03 0. -1.
<mgrwt>
<rscale>  2 0.46852818E+03</rscale>
<asrwt>0</asrwt>
<pdfrwt beam="1">  1       21 0.10404703E+00 0.46852818E+03</pdfrwt>
<pdfrwt beam="2">  1       21 0.59422425E-01 0.46852818E+03</pdfrwt>
<totfact> 0.16857508E+03</totfact>
</mgrwt>
</event>
<event>
 4    1  0.4897983E-002  0.4458115E+03  0.7818608E-02  0.1028979E+00
         21   -1    0    0  503  502  0.00000000000E+00  0.00000000000E+00  0.38569355999E+03  0.38569355999E+03  0.00000000000E+00 0. -1.
         21   -1    0    0  501  503 -0.00000000000E+00 -0.00000000000E+00 -0.54848443099E+03  0.54848443099E+03  0.00000000000E+00 0. -1.
    9000007    1    1    2  501    0 -0.18660010123E+03 -0.62675955246E+02 -0.19628616360E+03  0.48710997851E+03  0.40000000000E+03 0. -1.
   -9000007    1    1    2    0  502  0.18660010123E+03  0.62675955246E+02  0.33495292606E+02  0.44706801247E+03  0.40000000000E+03 0. -1.
<mgrwt>
<rscale>  2 0.44581148E+03</rscale>
<asrwt>0</asrwt>
<pdfrwt beam="1">  1       21 0.59337471E-01 0.44581148E+03</pdfrwt>
<pdfrwt beam="2">  1       21 0.84382220E-01 0.44581148E+03</pdfrwt>
<totfact> 0.28152822E+03</totfact>
</mgrwt>
</event>
<event>
 4    1  0.4897983E-002  0.4871924E+03  0.7818608E-02  0.1017177E+00
         21   -1    0    0  503  502  0.00000000000E+00  0.00000000000E+00  0.40640632903E+03  0.40640632903E+03  0.00000000000E+00 0.  1.
         21   -1    0    0  501  503 -0.00000000000E+00 -0.00000000000E+00 -0.61362497763E+03  0.61362497763E+03  0.00000000000E+00 0. -1.
    9000007    1    1    2  501    0 -0.99118788056E+02  0.25986900781E+03 -0.21560152702E+03  0.53276679122E+03  0.40000000000E+03 0. -1.
   -9000007    1    1    2    0  502  0.99118788056E+02 -0.25986900781E+03  0.83828784222E+01  0.48726451545E+03  0.40000000000E+03 0. -1.
<mgrwt>
<rscale>  2 0.48719240E+03</rscale>
<asrwt>0</asrwt>
<pdfrwt beam="1">  1       21 0.62524051E-01 0.48719240E+03</pdfrwt>
<pdfrwt beam="2">  1       21 0.94403843E-01 0.48719240E+03</pdfrwt>
<totfact> 0.18958603E+03</totfact>
</mgrwt>
</event>
<event>
 4    1  0.4897983E-002  0.4078661E+03  0.7818608E-02  0.1041089E+00
         21   -1    0    0  503  502  0.00000000000E+00  0.00000000000E+00  0.73527881824E+03  0.73527881824E+03  0.00000000000E+00 0.  1.
         21   -1    0    0  501  503 -0.00000000000E+00 -0.00000000000E+00 -0.27473309947E+03  0.27473309947E+03  0.00000000000E+00 0.  1.
    9000007    1    1    2  501    0  0.79386632865E+02 -0.72446840555E+01  0.18119922459E+02  0.40826836090E+03  0.40000000000E+03 0.  1.
   -9000007    1    1    2    0  502 -0.79386632865E+02  0.72446840555E+01  0.44242579630E+03  0.60174355681E+03  0.40000000000E+03 0.  1.
<mgrwt>
<rscale>  2 0.40786606E+03</rscale>
<asrwt>0</asrwt>
<pdfrwt beam="1">  1       21 0.11311982E+00 0.40786606E+03</pdfrwt>
<pdfrwt beam="2">  1       21 0.42266631E-01 0.40786606E+03</pdfrwt>
<totfact> 0.28972195E+03</totfact>
</mgrwt>
</event>
<event>
 4    1  0.4897983E-002  0.4936068E+03  0.7818608E-02  0.1015461E+00
         21   -1    0    0  503  502  0.00000000000E+00  0.00000000000E+00  0.14652229588E+04  0.14652229588E+04  0.00000000000E+00 0.  1.
         21   -1    0    0  501  503 -0.00000000000E+00 -0.00000000000E+00 -0.25117222213E+03  0.25117222213E+03  0.00000000000E+00 0.  1.
    9000007    1    1    2  501    0 -0.25266413738E+03  0.14074256209E+03  0.10812095194E+03  0.50530958367E+03  0.40000000000E+03 0.  1.
   -9000007    1    1    2    0  502  0.25266413738E+03 -0.14074256209E+03  0.11059297847E+04  0.12110855972E+04  0.40000000000E+03 0.  1.
<mgrwt>
<rscale>  2 0.49360676E+03</rscale>
<asrwt>0</asrwt>
<pdfrwt beam="1">  1       21 0.22541891E+00 0.49360676E+03</pdfrwt>
<pdfrwt beam="2">  1       21 0.38641881E-01 0.49360676E+03</pdfrwt>
<totfact> 0.48132807E+02</totfact>
</mgrwt>
</event>
<event>
 4    1  0.4897983E-002  0.4634997E+03  0.7818608E-02  0.1023771E+00
         21   -1    0    0  501  502  0.00000000000E+00  0.00000000000E+00  0.32370610324E+03  0.32370610324E+03  0.00000000000E+00 0.  1.
         21   -1    0    0  502  503 -0.00000000000E+00 -0.00000000000E+00 -0.67838355394E+03  0.67838355394E+03  0.00000000000E+00 0.  1.
    9000007    1    1    2  501    0  0.25965525723E+02 -0.23271828367E+03 -0.10353303213E+03  0.47492220081E+03  0.40000000000E+03 0.  1.
   -9000007    1    1    2    0  503 -0.25965525723E+02  0.23271828367E+03 -0.25114441856E+03  0.52716745637E+03  0.40000000000E+03 0.  1.
<mgrwt>
<rscale>  2 0.46349974E+03</rscale>
<asrwt>0</asrwt>
<pdfrwt beam="1">  1       21 0.49800940E-01 0.46349974E+03</pdfrwt>
<pdfrwt beam="2">  1       21 0.10436670E+00 0.46349974E+03</pdfrwt>
<totfact> 0.24536820E+03</totfact>
</mgrwt>
</event>
<event>
 4    1  0.4897983E-002  0.7214530E+03  0.7818608E-02  0.9681232E-01
         21   -1    0    0  501  502  0.00000000000E+00  0.00000000000E+00  0.67158319166E+03  0.67158319166E+03  0.00000000000E+00 0. -1.
         21   -1    0    0  502  503 -0.00000000000E+00 -0.00000000000E+00 -0.13888726408E+04  0.13888726408E+04  0.00000000000E+00 0.  1.
    9000007    1    1    2  501    0  0.21538217694E+02 -0.60002549157E+03  0.32626292614E+03  0.79179667992E+03  0.40000000000E+03 0. -1.
   -9000007    1    1    2    0  503 -0.21538217694E+02  0.60002549157E+03 -0.10435523753E+04  0.12686591525E+04  0.40000000000E+03 0.  1.
<mgrwt>
<rscale>  2 0.72145304E+03</rscale>
<asrwt>0</asrwt>
<pdfrwt beam="1">  1       21 0.10332049E+00 0.72145304E+03</pdfrwt>
<pdfrwt beam="2">  1       21 0.21367271E+00 0.72145304E+03</pdfrwt>
<totfact> 0.57865460E+01</totfact>
</mgrwt>
</event>
<event>
 4    1  0.4897983E-002  0.4042888E+03  0.7818608E-02  0.1042305E+00
         21   -1    0    0  501  502  0.00000000000E+00  0.00000000000E+00  0.45354024155E+03  0.45354024155E+03  0.00000000000E+00 0. -1.
         21   -1    0    0  502  503 -0.00000000000E+00 -0.00000000000E+00 -0.39476756620E+03  0.39476756620E+03  0.00000000000E+00 0. -1.
    9000007    1    1    2  501    0  0.54949075955E+02  0.20737437268E+02 -0.95788522153E+02  0.41548150769E+03  0.40000000000E+03 0. -1.
   -9000007    1    1    2    0  503 -0.54949075955E+02 -0.20737437268E+02  0.15456119751E+03  0.43282630007E+03  0.40000000000E+03 0. -1.
<mgrwt>
<rscale>  2 0.40428881E+03</rscale>
<asrwt>0</asrwt>
<pdfrwt beam="1">  1       21 0.69775422E-01 0.40428881E+03</pdfrwt>
<pdfrwt beam="2">  1       21 0.60733472E-01 0.40428881E+03</pdfrwt>
<totfact> 0.41974116E+03</totfact>
</mgrwt>
</event>
<event>
 4    1  0.4897983E-002  0.4197710E+03  0.7818608E-02  0.1037141E+00
         21   -1    0    0  503  502  0.00000000000E+00  0.00000000000E+00  0.60419132757E+03  0.60419132757E+03  0.00000000000E+00 0. -1.
         21   -1    0    0  501  503 -0.00000000000E+00 -0.00000000000E+00 -0.82820772126E+03  0.82820772126E+03  0.00000000000E+00 0.  1.
    9000007    1    1    2  501    0  0.26264098743E+02 -0.12457066680E+03 -0.68847698038E+03  0.80635488864E+03  0.40000000000E+03 0.  1.
   -9000007    1    1    2    0  502 -0.26264098743E+02  0.12457066680E+03  0.46446058670E+03  0.62604416019E+03  0.40000000000E+03 0. -1.
<mgrwt>
<rscale>  2 0.41977095E+03</rscale>
<asrwt>0</asrwt>
<pdfrwt beam="1">  1       21 0.92952512E-01 0.41977095E+03</pdfrwt>
<pdfrwt beam="2">  1       21 0.12741657E+00 0.41977095E+03</pdfrwt>
<totfact> 0.37324305E+02</totfact>
</mgrwt>
</event>
<event>
 4    1  0.4897983E-002  0.4186806E+03  0.7818608E-02  0.1037497E+00
         21   -1    0    0  501  502  0.00000000000E+00  0.00000000000E+00  0.67319534079E+03  0.67319534079E+03  0.00000000000E+00 0.  1.
         21   -1    0    0  502  503 -0.00000000000E+00 -0.00000000000E+00 -0.34510140951E+03  0.34510140951E+03  0.00000000000E+00 0.  1.
    9000007    1    1    2  501    0  0.12366580465E+03  0.46731647456E+00  0.41630296996E+03  0.59042494224E+03  0.40000000000E+03 0.  1.
   -9000007    1    1    2    0  503 -0.12366580465E+03 -0.46731647456E+00 -0.88209038682E+02  0.42787180806E+03  0.40000000000E+03 0.  1.
<mgrwt>
<rscale>  2 0.41868061E+03</rscale>
<asrwt>0</asrwt>
<pdfrwt beam="1">  1       21 0.10356851E+00 0.41868061E+03</pdfrwt>
<pdfrwt beam="2">  1       21 0.53092525E-01 0.41868061E+03</pdfrwt>
<totfact> 0.22183038E+03</totfact>
</mgrwt>
</event>
<event>
 4    1  0.4897983E-002  0.5264790E+03  0.7818608E-02  0.1007090E+00
         21   -1    0    0  503  502  0.00000000000E+00  0.00000000000E+00  0.56943934380E+03  0.56943934380E+03  0.00000000000E+00 0. -1.
         21   -1    0    0  501  503 -0.00000000000E+00 -0.00000000000E+00 -0.50028324012E+03  0.50028324012E+03  0.00000000000E+00 0.  1.
    9000007    1    1    2  501    0  0.20703095383E+03 -0.27261384221E+03 -0.53360321314E+02  0.52917619627E+03  0.40000000000E+03 0. -1.
   -9000007    1    1    2    0  502 -0.20703095383E+03  0.27261384221E+03  0.12251642499E+03  0.54054638765E+03  0.40000000000E+03 0.  1.
<mgrwt>
<rscale>  2 0.52647899E+03</rscale>
<asrwt>0</asrwt>
<pdfrwt beam="1">  1       21 0.87606053E-01 0.52647899E+03</pdfrwt>
<pdfrwt beam="2">  1       21 0.76966653E-01 0.52647899E+03</pdfrwt>
<totfact> 0.13989319E+03</totfact>
</mgrwt>
</event>
<event>
 4    1  0.4897983E-002  0.4830288E+03  0.7818608E-02  0.1018306E+00
         21   -1    0    0  501  502  0.00000000000E+00  0.00000000000E+00  0.15266496683E+04  0.15266496683E+04  0.00000000000E+00 0.  1.
         21   -1    0    0  502  503 -0.00000000000E+00 -0.00000000000E+00 -0.32726584848E+03  0.32726584848E+03  0.00000000000E+00 0.  1.
    9000007    1    1    2  501    0  0.26570583628E+03 -0.52126711499E+02  0.12764420502E+04  0.13647787707E+04  0.40000000000E+03 0.  1.
   -9000007    1    1    2    0  503 -0.26570583628E+03  0.52126711499E+02 -0.77058230369E+02  0.48913674607E+03  0.40000000000E+03 0.  1.
<mgrwt>
<rscale>  2 0.48302876E+03</rscale>
<asrwt>0</asrwt>
<pdfrwt beam="1">  1       21 0.23486918E+00 0.48302876E+03</pdfrwt>
<pdfrwt beam="2">  1       21 0.50348593E-01 0.48302876E+03</pdfrwt>
<totfact> 0.24238086E+02</totfact>
</mgrwt>
</event>
<event>
 4    1  0.4897983E-002  0.5202017E+03  0.7818608E-02  0.1008636E+00
         21   -1    0    0  503  502  0.00000000000E+00  0.00000000000E+00  0.16389118063E+04  0.16389118063E+04  0.00000000000E+00 0.  1.
         21   -1    0    0  501  503 -0.00000000000E+00 -0.00000000000E+00 -0.22688072084E+03  0.22688072084E+03  0.00000000000E+00 0.  1.
    9000007    1    1    2  501    0 -0.33219578726E+03 -0.15993981766E+02  0.21926512992E+03  0.56452373353E+03  0.40000000000E+03 0.  1.
   -9000007    1    1    2    0  502  0.33219578726E+03  0.15993981766E+02  0.11927659555E+04  0.13012687936E+04  0.40000000000E+03 0.  1.
<mgrwt>
<rscale>  2 0.52020174E+03</rscale>
<asrwt>0</asrwt>
<pdfrwt beam="1">  1       21 0.25214027E+00 0.52020174E+03</pdfrwt>
<pdfrwt beam="2">  1       21 0.34904727E-01 0.52020174E+03</pdfrwt>
<totfact> 0.39824931E+02</totfact>
</mgrwt>
</event>
<event>
 4    1  0.4897983E-002  0.4482158E+03  0.7818608E-02  0.1028255E+00
         21   -1    0    0  503  502  0.00000000000E+00  0.00000000000E+00  0.25730594673E+03  0.25730594673E+03  0.00000000000E+00 0.  1.
         21   -1    0    0  501  503 -0.00000000000E+00 -0.00000000000E+00 -0.88626576744E+03  0.88626576744E+03  0.00000000000E+00 0.  1.
    9000007    1    1    2  501    0 -0.45946222401E+02 -0.19694256727E+03 -0.51175107600E+03  0.68028420086E+03  0.40000000000E+03 0.  1.
   -9000007    1    1    2    0  502  0.45946222401E+02  0.19694256727E+03 -0.11720874471E+03  0.46328751331E+03  0.40000000000E+03 0.  1.
<mgrwt>
<rscale>  2 0.44821583E+03</rscale>
<asrwt>0</asrwt>
<pdfrwt beam="1">  1       21 0.39585530E-01 0.44821583E+03</pdfrwt>
<pdfrwt beam="2">  1       21 0.13634858E+00 0.44821583E+03</pdfrwt>
<totfact> 0.20243957E+03</totfact>
</mgrwt>
</event>
<event>
 4    1  0.4897983E-002  0.4839676E+03  0.7818608E-02  0.1018050E+00
         21   -1    0    0  501  502  0.00000000000E+00  0.00000000000E+00  0.97966585073E+03  0.97966585073E+03  0.00000000000E+00 0.  1.
         21   -1    0    0  502  503 -0.00000000000E+00 -0.00000000000E+00 -0.24784505516E+03  0.24784505516E+03  0.00000000000E+00 0. -1.
    9000007    1    1    2  501    0  0.25510870874E+03  0.95625206895E+02  0.48128964290E+03  0.68254256558E+03  0.40000000000E+03 0.  1.
   -9000007    1    1    2    0  503 -0.25510870874E+03 -0.95625206895E+02  0.25053115268E+03  0.54496834030E+03  0.40000000000E+03 0. -1.
<mgrwt>
<rscale>  2 0.48396760E+03</rscale>
<asrwt>0</asrwt>
<pdfrwt beam="1">  1       21 0.15071782E+00 0.48396760E+03</pdfrwt>
<pdfrwt beam="2">  1       21 0.38130009E-01 0.48396760E+03</pdfrwt>
<totfact> 0.16480438E+03</totfact>
</mgrwt>
</event>
<event>
 4    1  0.4897983E-002  0.5248353E+03  0.7818608E-02  0.1007492E+00
         21   -1    0    0  501  502  0.00000000000E+00  0.00000000000E+00  0.66204107645E+03  0.66204107645E+03  0.00000000000E+00 0.  1.
         21   -1    0    0  502  503 -0.00000000000E+00 -0.00000000000E+00 -0.15039340836E+04  0.15039340836E+04  0.00000000000E+00 0.  1.
    9000007    1    1    2  501    0  0.23418721046E+03  0.24618787201E+03  0.50013358324E+03  0.72497290912E+03  0.40000000000E+03 0.  1.
   -9000007    1    1    2    0  503 -0.23418721046E+03 -0.24618787201E+03 -0.13420265904E+04  0.14410022509E+04  0.40000000000E+03 0.  1.
<mgrwt>
<rscale>  2 0.52483532E+03</rscale>
<asrwt>0</asrwt>
<pdfrwt beam="1">  1       21 0.10185247E+00 0.52483532E+03</pdfrwt>
<pdfrwt beam="2">  1       21 0.23137447E+00 0.52483532E+03</pdfrwt>
<totfact> 0.50237009E+01</totfact>
</mgrwt>
</event>
<event>
 4    1  0.4897983E-002  0.5155922E+03  0.7818608E-02  0.1009787E+00
         21   -1    0    0  501  502  0.00000000000E+00  0.00000000000E+00  0.55438657682E+03  0.55438657682E+03  0.00000000000E+00 0.  1.
         21   -1    0    0  502  503 -0.00000000000E+00 -0.00000000000E+00 -0.13687640313E+04  0.13687640313E+04  0.00000000000E+00 0. -1.
    9000007    1    1    2  501    0 -0.12860298874E+03 -0.29882529207E+03  0.36786413398E+03  0.63337137997E+03  0.40000000000E+03 0.  1.
   -9000007    1    1    2    0  503  0.12860298874E+03  0.29882529207E+03 -0.11822415885E+04  0.12897792282E+04  0.40000000000E+03 0. -1.
<mgrwt>
<rscale>  2 0.51559217E+03</rscale>
<asrwt>0</asrwt>
<pdfrwt beam="1">  1       21 0.85290243E-01 0.51559217E+03</pdfrwt>
<pdfrwt beam="2">  1       21 0.21057908E+00 0.51559217E+03</pdfrwt>
<totfact> 0.10508746E+02</totfact>
</mgrwt>
</event>
<event>
 4    1  0.4897983E-002  0.5388828E+03  0.7818608E-02  0.1004100E+00
         21   -1    0    0  503  502  0.00000000000E+00  0.00000000000E+00  0.42653744111E+03  0.42653744111E+03  0.00000000000E+00 0.  1.
         21   -1    0    0  501  503 -0.00000000000E+00 -0.00000000000E+00 -0.69079976723E+03  0.69079976723E+03  0.00000000000E+00 0.  1.
    9000007    1    1    2  501    0  0.12150216813E+03 -0.34004693841E+03 -0.64978215100E+02  0.54278620618E+03  0.40000000000E+03 0.  1.
   -9000007    1    1    2    0  502 -0.12150216813E+03  0.34004693841E+03 -0.19928411102E+03  0.57455100216E+03  0.40000000000E+03 0.  1.
<mgrwt>
<rscale>  2 0.53888282E+03</rscale>
<asrwt>0</asrwt>
<pdfrwt beam="1">  1       21 0.65621145E-01 0.53888282E+03</pdfrwt>
<pdfrwt beam="2">  1       21 0.10627689E+00 0.53888282E+03</pdfrwt>
<totfact> 0.12532264E+03</totfact>
</mgrwt>
</event>
<event>
 4    1  0.4897983E-002  0.4585733E+03  0.7818608E-02  0.1025196E+00
         21   -1    0    0  503  502  0.00000000000E+00  0.00000000000E+00  0.39864701851E+03  0.39864701851E+03  0.00000000000E+00 0. -1.
         21   -1    0    0  501  503 -0.00000000000E+00 -0.00000000000E+00 -0.63569266324E+03  0.63569266324E+03  0.00000000000E+00 0. -1.
    9000007    1    1    2  501    0  0.21950323628E+03 -0.45910449676E+02 -0.33187284748E+03  0.56606450783E+03  0.40000000000E+03 0. -1.
   -9000007    1    1    2    0  502 -0.21950323628E+03  0.45910449676E+02  0.94827202751E+02  0.46827517392E+03  0.40000000000E+03 0. -1.
<mgrwt>
<rscale>  2 0.45857327E+03</rscale>
<asrwt>0</asrwt>
<pdfrwt beam="1">  1       21 0.61330311E-01 0.45857327E+03</pdfrwt>
<pdfrwt beam="2">  1       21 0.97798871E-01 0.45857327E+03</pdfrwt>
<totfact> 0.18359947E+03</totfact>
</mgrwt>
</event>
<event>
 4    1  0.4897983E-002  0.5194180E+03  0.7818608E-02  0.1008831E+00
         21   -1    0    0  503  502  0.00000000000E+00  0.00000000000E+00  0.27916238227E+03  0.27916238227E+03  0.00000000000E+00 0.  1.
         21   -1    0    0  501  503 -0.00000000000E+00 -0.00000000000E+00 -0.17235207438E+04  0.17235207438E+04  0.00000000000E+00 0.  1.
    9000007    1    1    2  501    0  0.75909535280E+02 -0.32254112891E+03 -0.13858362182E+04  0.14799787367E+04  0.40000000000E+03 0.  1.
   -9000007    1    1    2    0  502 -0.75909535280E+02  0.32254112891E+03 -0.58522143287E+02  0.52270438934E+03  0.40000000000E+03 0.  1.
<mgrwt>
<rscale>  2 0.51941798E+03</rscale>
<asrwt>0</asrwt>
<pdfrwt beam="1">  1       21 0.42948059E-01 0.51941798E+03</pdfrwt>
<pdfrwt beam="2">  1       21 0.26515704E+00 0.51941798E+03</pdfrwt>
<totfact> 0.21634313E+02</totfact>
</mgrwt>
</event>
<event>
 4    1  0.4897983E-002  0.4850193E+03  0.7818608E-02  0.1017765E+00
         21   -1    0    0  501  502  0.00000000000E+00  0.00000000000E+00  0.63558642552E+03  0.63558642552E+03  0.00000000000E+00 0. -1.
         21   -1    0    0  502  503 -0.00000000000E+00 -0.00000000000E+00 -0.39428195980E+03  0.39428195980E+03  0.00000000000E+00 0. -1.
    9000007    1    1    2  501    0 -0.62387885950E+02 -0.26711691602E+03  0.24812224613E+03  0.54480119692E+03  0.40000000000E+03 0. -1.
   -9000007    1    1    2    0  503  0.62387885950E+02  0.26711691602E+03 -0.68177804048E+01  0.48506718840E+03  0.40000000000E+03 0. -1.
<mgrwt>
<rscale>  2 0.48501927E+03</rscale>
<asrwt>0</asrwt>
<pdfrwt beam="1">  1       21 0.97782527E-01 0.48501927E+03</pdfrwt>
<pdfrwt beam="2">  1       21 0.60658763E-01 0.48501927E+03</pdfrwt>
<totfact> 0.18637054E+03</totfact>
</mgrwt>
</event>
<event>
 4    1  0.4897983E-002  0.4874952E+03  0.7818608E-02  0.1017095E+00
         21   -1    0    0  503  502  0.00000000000E+00  0.00000000000E+00  0.33966398733E+03  0.33966398733E+03  0.00000000000E+00 0.  1.
         21   -1    0    0  501  503 -0.00000000000E+00 -0.00000000000E+00 -0.70193434011E+03  0.70193434011E+03  0.00000000000E+00 0.  1.
    9000007    1    1    2  501    0  0.25059544085E+03  0.12187490778E+03 -0.21073661141E+03  0.53109461258E+03  0.40000000000E+03 0. -1.
   -9000007    1    1    2    0  502 -0.25059544085E+03 -0.12187490778E+03 -0.15153374136E+03  0.51050371486E+03  0.40000000000E+03 0. -1.
<mgrwt>
<rscale>  2 0.48749520E+03</rscale>
<asrwt>0</asrwt>
<pdfrwt beam="1">  1       21 0.52255999E-01 0.48749520E+03</pdfrwt>
<pdfrwt beam="2">  1       21 0.10798990E+00 0.48749520E+03</pdfrwt>
<totfact> 0.20177322E+03</totfact>
</mgrwt>
</event>
<event>
 4    1  0.4897983E-002  0.4012463E+03  0.7818608E-02  0.1043349E+00
         21   -1    0    0  501  502  0.00000000000E+00  0.00000000000E+00  0.70021595737E+03  0.70021595737E+03  0.00000000000E+00 0. -1.
         21   -1    0    0  502  503 -0.00000000000E+00 -0.00000000000E+00 -0.25469322210E+03  0.25469322210E+03  0.00000000000E+00 0. -1.
    9000007    1    1    2  501    0  0.27531253975E+02 -0.15512656816E+02  0.37164691216E+03  0.54691867749E+03  0.40000000000E+03 0.  1.
   -9000007    1    1    2    0  503 -0.27531253975E+02  0.15512656816E+02  0.73875823107E+02  0.40799050198E+03  0.40000000000E+03 0.  1.
<mgrwt>
<rscale>  2 0.40124632E+03</rscale>
<asrwt>0</asrwt>
<pdfrwt beam="1">  1       21 0.10772553E+00 0.40124632E+03</pdfrwt>
<pdfrwt beam="2">  1       21 0.39183573E-01 0.40124632E+03</pdfrwt>
<totfact> 0.38323495E+03</totfact>
</mgrwt>
</event>
<event>
 4    1  0.4897983E-002  0.4957463E+03  0.7818608E-02  0.1014895E+00
         21   -1    0    0  503  502  0.00000000000E+00  0.00000000000E+00  0.56112532133E+03  0.56112532133E+03  0.00000000000E+00 0. -1.
         21   -1    0    0  501  503 -0.00000000000E+00 -0.00000000000E+00 -0.44232904734E+03  0.44232904734E+03  0.00000000000E+00 0. -1.
    9000007    1    1    2  501    0  0.22291394546E+03 -0.18993102420E+03  0.10911994164E+03  0.50761361556E+03  0.40000000000E+03 0. -1.
   -9000007    1    1    2    0  502 -0.22291394546E+03  0.18993102420E+03  0.96763323436E+01  0.49584075311E+03  0.40000000000E+03 0. -1.
<mgrwt>
<rscale>  2 0.49574633E+03</rscale>
<asrwt>0</asrwt>
<pdfrwt beam="1">  1       21 0.86326973E-01 0.49574633E+03</pdfrwt>
<pdfrwt beam="2">  1       21 0.68050622E-01 0.49574633E+03</pdfrwt>
<totfact> 0.19356625E+03</totfact>
</mgrwt>
</event>
<event>
 4    1  0.4897983E-002  0.4125057E+03  0.7818608E-02  0.1039533E+00
         21   -1    0    0  501  502  0.00000000000E+00  0.00000000000E+00  0.51103994382E+03  0.51103994382E+03  0.00000000000E+00 0. -1.
         21   -1    0    0  502  503 -0.00000000000E+00 -0.00000000000E+00 -0.45673698033E+03  0.45673698033E+03  0.00000000000E+00 0. -1.
    9000007    1    1    2  501    0  0.95598194444E+02  0.31968356498E+02  0.27904355784E+03  0.49802238682E+03  0.40000000000E+03 0. -1.
   -9000007    1    1    2    0  503 -0.95598194444E+02 -0.31968356498E+02 -0.22474059435E+03  0.46975453733E+03  0.40000000000E+03 0. -1.
<mgrwt>
<rscale>  2 0.41250575E+03</rscale>
<asrwt>0</asrwt>
<pdfrwt beam="1">  1       21 0.78621530E-01 0.41250575E+03</pdfrwt>
<pdfrwt beam="2">  1       21 0.70267228E-01 0.41250575E+03</pdfrwt>
<totfact> 0.23084309E+03</totfact>
</mgrwt>
</event>
<event>
 4    1  0.4897983E-002  0.4175429E+03  0.7818608E-02  0.1037869E+00
         21   -1    0    0  501  502  0.00000000000E+00  0.00000000000E+00  0.36265623146E+03  0.36265623146E+03  0.00000000000E+00 0. -1.
         21   -1    0    0  502  503 -0.00000000000E+00 -0.00000000000E+00 -0.90652206666E+03  0.90652206666E+03  0.00000000000E+00 0. -1.
    9000007    1    1    2  501    0 -0.37027191767E+02 -0.11389054349E+03  0.16297663372E+03  0.44822254736E+03  0.40000000000E+03 0. -1.
   -9000007    1    1    2    0  503  0.37027191767E+02  0.11389054349E+03 -0.70684246892E+03  0.82095575075E+03  0.40000000000E+03 0. -1.
<mgrwt>
<rscale>  2 0.41754289E+03</rscale>
<asrwt>0</asrwt>
<pdfrwt beam="1">  1       21 0.55793267E-01 0.41754289E+03</pdfrwt>
<pdfrwt beam="2">  1       21 0.13946493E+00 0.41754289E+03</pdfrwt>
<totfact> 0.93742214E+02</totfact>
</mgrwt>
</event>
<event>
 4    1  0.4897983E-002  0.4263021E+03  0.7818608E-02  0.1035035E+00
         21   -1    0    0  503  502  0.00000000000E+00  0.00000000000E+00  0.38576790813E+03  0.38576790813E+03  0.00000000000E+00 0.  1.
         21   -1    0    0  501  503 -0.00000000000E+00 -0.00000000000E+00 -0.49477157012E+03  0.49477157012E+03  0.00000000000E+00 0.  1.
    9000007    1    1    2  501    0 -0.61957384067E+02  0.13377122964E+03 -0.15081215670E+03  0.45219217809E+03  0.40000000000E+03 0.  1.
   -9000007    1    1    2    0  502  0.61957384067E+02 -0.13377122964E+03  0.41808494710E+02  0.42834730016E+03  0.40000000000E+03 0.  1.
<mgrwt>
<rscale>  2 0.42630208E+03</rscale>
<asrwt>0</asrwt>
<pdfrwt beam="1">  1       21 0.59348909E-01 0.42630208E+03</pdfrwt>
<pdfrwt beam="2">  1       21 0.76118703E-01 0.42630208E+03</pdfrwt>
<totfact> 0.35956844E+03</totfact>
</mgrwt>
</event>
<event>
 4    1  0.4897983E-002  0.5043373E+03  0.7818608E-02  0.1012653E+00
         21   -1    0    0  501  502  0.00000000000E+00  0.00000000000E+00  0.10446050429E+04  0.10446050429E+04  0.00000000000E+00 0.  1.
         21   -1    0    0  502  503 -0.00000000000E+00 -0.00000000000E+00 -0.24415856664E+03  0.24415856664E+03  0.00000000000E+00 0. -1.
    9000007    1    1    2  501    0 -0.27353695996E+03 -0.13976285899E+03  0.43381580566E+03  0.66524602851E+03  0.40000000000E+03 0.  1.
   -9000007    1    1    2    0  503  0.27353695996E+03  0.13976285899E+03  0.36663067061E+03  0.62351758103E+03  0.40000000000E+03 0.  1.
<mgrwt>
<rscale>  2 0.50433731E+03</rscale>
<asrwt>0</asrwt>
<pdfrwt beam="1">  1       21 0.16070847E+00 0.50433731E+03</pdfrwt>
<pdfrwt beam="2">  1       21 0.37562857E-01 0.50433731E+03</pdfrwt>
<totfact> 0.14124251E+03</totfact>
</mgrwt>
</event>
<event>
 4    1  0.4897983E-002  0.4194497E+03  0.7818608E-02  0.1037246E+00
         21   -1    0    0  501  502  0.00000000000E+00  0.00000000000E+00  0.33156517927E+03  0.33156517927E+03  0.00000000000E+00 0.  1.
         21   -1    0    0  502  503 -0.00000000000E+00 -0.00000000000E+00 -0.53597523780E+03  0.53597523780E+03  0.00000000000E+00 0.  1.
    9000007    1    1    2  501    0  0.88414626207E+02 -0.90115975312E+02 -0.58881943694E+02  0.42356241385E+03  0.40000000000E+03 0. -1.
   -9000007    1    1    2    0  503 -0.88414626207E+02  0.90115975312E+02 -0.14552811484E+03  0.44397800322E+03  0.40000000000E+03 0. -1.
<mgrwt>
<rscale>  2 0.41944968E+03</rscale>
<asrwt>0</asrwt>
<pdfrwt beam="1">  1       21 0.51010028E-01 0.41944968E+03</pdfrwt>
<pdfrwt beam="2">  1       21 0.82457729E-01 0.41944968E+03</pdfrwt>
<totfact> 0.41561476E+03</totfact>
</mgrwt>
</event>
<event>
 4    1  0.4897983E-002  0.6042184E+03  0.7818608E-02  0.9896693E-01
         21   -1    0    0  501  502  0.00000000000E+00  0.00000000000E+00  0.29520373329E+03  0.29520373329E+03  0.00000000000E+00 0.  1.
         21   -1    0    0  502  503 -0.00000000000E+00 -0.00000000000E+00 -0.14300396123E+04  0.14300396123E+04  0.00000000000E+00 0. -1.
    9000007    1    1    2  501    0  0.19227956785E+03 -0.41001032439E+03 -0.25024124459E+03  0.65398820999E+03  0.40000000000E+03 0.  1.
   -9000007    1    1    2    0  503 -0.19227956785E+03  0.41001032439E+03 -0.88459463446E+03  0.10712551356E+04  0.40000000000E+03 0. -1.
<mgrwt>
<rscale>  2 0.60421842E+03</rscale>
<asrwt>0</asrwt>
<pdfrwt beam="1">  1       21 0.45415960E-01 0.60421842E+03</pdfrwt>
<pdfrwt beam="2">  1       21 0.22000609E+00 0.60421842E+03</pdfrwt>
<totfact> 0.35568272E+02</totfact>
</mgrwt>
</event>
<event>
 4    1  0.4897983E-002  0.4571962E+03  0.7818608E-02  0.1025598E+00
         21   -1    0    0  501  502  0.00000000000E+00  0.00000000000E+00  0.40224901549E+03  0.40224901549E+03  0.00000000000E+00 0. -1.
         21   -1    0    0  502  503 -0.00000000000E+00 -0.00000000000E+00 -0.62118249408E+03  0.62118249408E+03  0.00000000000E+00 0. -1.
    9000007    1    1    2  501    0  0.68545713492E+02  0.21054660591E+03  0.97415579187E+02  0.46745928504E+03  0.40000000000E+03 0. -1.
   -9000007    1    1    2    0  503 -0.68545713492E+02 -0.21054660591E+03 -0.31634905778E+03  0.55597222454E+03  0.40000000000E+03 0. -1.
<mgrwt>
<rscale>  2 0.45719622E+03</rscale>
<asrwt>0</asrwt>
<pdfrwt beam="1">  1       21 0.61884464E-01 0.45719622E+03</pdfrwt>
<pdfrwt beam="2">  1       21 0.95566538E-01 0.45719622E+03</pdfrwt>
<totfact> 0.19038526E+03</totfact>
</mgrwt>
</event>
<event>
 4    1  0.4897983E-002  0.4050138E+03  0.7818608E-02  0.1042057E+00
         21   -1    0    0  501  502  0.00000000000E+00  0.00000000000E+00  0.64331126359E+03  0.64331126359E+03  0.00000000000E+00 0. -1.
         21   -1    0    0  502  503 -0.00000000000E+00 -0.00000000000E+00 -0.41068673076E+03  0.41068673076E+03  0.00000000000E+00 0. -1.
    9000007    1    1    2  501    0  0.57673525127E+02  0.26644100740E+02  0.44079985693E+03  0.59861561747E+03  0.40000000000E+03 0. -1.
   -9000007    1    1    2    0  503 -0.57673525127E+02 -0.26644100740E+02 -0.20817532410E+03  0.45538237688E+03  0.40000000000E+03 0. -1.
<mgrwt>
<rscale>  2 0.40501376E+03</rscale>
<asrwt>0</asrwt>
<pdfrwt beam="1">  1       21 0.98970964E-01 0.40501376E+03</pdfrwt>
<pdfrwt beam="2">  1       21 0.63182574E-01 0.40501376E+03</pdfrwt>
<totfact> 0.17069464E+03</totfact>
</mgrwt>
</event>
<event>
 4    1  0.4897983E-002  0.4190204E+03  0.7818608E-02  0.1037386E+00
         21   -1    0    0  503  502  0.00000000000E+00  0.00000000000E+00  0.74068218632E+03  0.74068218632E+03  0.00000000000E+00 0. -1.
         21   -1    0    0  501  503 -0.00000000000E+00 -0.00000000000E+00 -0.24381803831E+03  0.24381803831E+03  0.00000000000E+00 0. -1.
    9000007    1    1    2  501    0  0.63913174551E+02  0.10720625177E+03  0.16641355089E+03  0.45085645634E+03  0.40000000000E+03 0. -1.
   -9000007    1    1    2    0  502 -0.63913174551E+02 -0.10720625177E+03  0.33045059712E+03  0.53364376829E+03  0.40000000000E+03 0. -1.
<mgrwt>
<rscale>  2 0.41902037E+03</rscale>
<asrwt>0</asrwt>
<pdfrwt beam="1">  1       21 0.11395110E+00 0.41902037E+03</pdfrwt>
<pdfrwt beam="2">  1       21 0.37510468E-01 0.41902037E+03</pdfrwt>
<totfact> 0.36201628E+03</totfact>
</mgrwt>
</event>
<event>
 4    1  0.4897983E-002  0.5167252E+03  0.7818608E-02  0.1009503E+00
         21   -1    0    0  503  502  0.00000000000E+00  0.00000000000E+00  0.93547249675E+03  0.93547249675E+03  0.00000000000E+00 0.  1.
         21   -1    0    0  501  503 -0.00000000000E+00 -0.00000000000E+00 -0.28545545143E+03  0.28545545143E+03  0.00000000000E+00 0. -1.
    9000007    1    1    2  501    0  0.24939193420E+03 -0.21168043725E+03  0.33156251871E+03  0.61395329478E+03  0.40000000000E+03 0. -1.
   -9000007    1    1    2    0  502 -0.24939193420E+03  0.21168043725E+03  0.31845452660E+03  0.60697465340E+03  0.40000000000E+03 0. -1.
<mgrwt>
<rscale>  2 0.51672521E+03</rscale>
<asrwt>0</asrwt>
<pdfrwt beam="1">  1       21 0.14391884E+00 0.51672521E+03</pdfrwt>
<pdfrwt beam="2">  1       21 0.43916224E-01 0.51672521E+03</pdfrwt>
<totfact> 0.13773083E+03</totfact>
</mgrwt>
</event>
<event>
 4    1  0.4897983E-002  0.5532078E+03  0.7818608E-02  0.1000754E+00
         21   -1    0    0  501  502  0.00000000000E+00  0.00000000000E+00  0.17076896221E+04  0.17076896221E+04  0.00000000000E+00 0.  1.
         21   -1    0    0  502  503 -0.00000000000E+00 -0.00000000000E+00 -0.18301131508E+03  0.18301131508E+03  0.00000000000E+00 0. -1.
    9000007    1    1    2  501    0  0.10333409763E+03 -0.36791432112E+03  0.62613423919E+03  0.83551359588E+03  0.40000000000E+03 0. -1.
   -9000007    1    1    2    0  503 -0.10333409763E+03  0.36791432112E+03  0.89854406787E+03  0.10551873413E+04  0.40000000000E+03 0.  1.
<mgrwt>
<rscale>  2 0.55320781E+03</rscale>
<asrwt>0</asrwt>
<pdfrwt beam="1">  1       21 0.26272147E+00 0.55320781E+03</pdfrwt>
<pdfrwt beam="2">  1       21 0.28155588E-01 0.55320781E+03</pdfrwt>
<totfact> 0.51973368E+02</totfact>
</mgrwt>
</event>
<event>
 4    1  0.4897983E-002  0.7875255E+03  0.7818608E-02  0.9578251E-01
         21   -1    0    0  501  502  0.00000000000E+00  0.00000000000E+00  0.19037101794E+04  0.19037101794E+04  0.00000000000E+00 0. -1.
         21   -1    0    0  502  503 -0.00000000000E+00 -0.00000000000E+00 -0.32775508349E+03  0.32775508349E+03  0.00000000000E+00 0.  1.
    9000007    1    1    2  501    0  0.66711778066E+03 -0.12308661216E+03  0.70143172760E+03  0.10546103147E+04  0.40000000000E+03 0.  1.
   -9000007    1    1    2    0  503 -0.66711778066E+03  0.12308661216E+03  0.87452336828E+03  0.11768549482E+04  0.40000000000E+03 0. -1.
<mgrwt>
<rscale>  2 0.78752552E+03</rscale>
<asrwt>0</asrwt>
<pdfrwt beam="1">  1       21 0.29287848E+00 0.78752552E+03</pdfrwt>
<pdfrwt beam="2">  1       21 0.50423860E-01 0.78752552E+03</pdfrwt>
<totfact> 0.93253978E+01</totfact>
</mgrwt>
</event>
<event>
 4    1  0.4897983E-002  0.4870278E+03  0.7818608E-02  0.1017221E+00
         21   -1    0    0  503  502  0.00000000000E+00  0.00000000000E+00  0.40046406518E+03  0.40046406518E+03  0.00000000000E+00 0. -1.
         21   -1    0    0  501  503 -0.00000000000E+00 -0.00000000000E+00 -0.12012366007E+04  0.12012366007E+04  0.00000000000E+00 0. -1.
    9000007    1    1    2  501    0 -0.16916914686E+03 -0.22040383503E+03 -0.97057951067E+03  0.10859192591E+04  0.40000000000E+03 0. -1.
   -9000007    1    1    2    0  502  0.16916914686E+03  0.22040383503E+03  0.16980697517E+03  0.51578140676E+03  0.40000000000E+03 0. -1.
<mgrwt>
<rscale>  2 0.48702777E+03</rscale>
<asrwt>0</asrwt>
<pdfrwt beam="1">  1       21 0.61609858E-01 0.48702777E+03</pdfrwt>
<pdfrwt beam="2">  1       21 0.18480563E+00 0.48702777E+03</pdfrwt>
<totfact> 0.33299095E+02</totfact>
</mgrwt>
</event>
<event>
 4    1  0.4897983E-002  0.4887634E+03  0.7818608E-02  0.1016754E+00
         21   -1    0    0  501  502  0.00000000000E+00  0.00000000000E+00  0.74789647586E+03  0.74789647586E+03  0.00000000000E+00 0. -1.
         21   -1    0    0  502  503 -0.00000000000E+00 -0.00000000000E+00 -0.33999900383E+03  0.33999900383E+03  0.00000000000E+00 0. -1.
    9000007    1    1    2  501    0 -0.99274693237E+01 -0.28069749613E+03  0.33778667653E+03  0.59412917604E+03  0.40000000000E+03 0. -1.
   -9000007    1    1    2    0  503  0.99274693237E+01  0.28069749613E+03  0.70110795499E+02  0.49376630366E+03  0.40000000000E+03 0. -1.
<mgrwt>
<rscale>  2 0.48876338E+03</rscale>
<asrwt>0</asrwt>
<pdfrwt beam="1">  1       21 0.11506100E+00 0.48876338E+03</pdfrwt>
<pdfrwt beam="2">  1       21 0.52307539E-01 0.48876338E+03</pdfrwt>
<totfact> 0.17182380E+03</totfact>
</mgrwt>
</event>
<event>
 4    1  0.4897983E-002  0.4757732E+03  0.7818608E-02  0.1020303E+00
         21   -1    0    0  503  502  0.00000000000E+00  0.00000000000E+00  0.14982292765E+03  0.14982292765E+03  0.00000000000E+00 0.  1.
         21   -1    0    0  501  503 -0.00000000000E+00 -0.00000000000E+00 -0.17161263945E+04  0.17161263945E+04  0.00000000000E+00 0.  1.
    9000007    1    1    2  501    0 -0.73596143729E+02 -0.24686794458E+03 -0.11058252166E+04  0.12038312108E+04  0.40000000000E+03 0.  1.
   -9000007    1    1    2    0  502  0.73596143729E+02  0.24686794458E+03 -0.46047825032E+03  0.66211811140E+03  0.40000000000E+03 0.  1.
<mgrwt>
<rscale>  2 0.47577324E+03</rscale>
<asrwt>0</asrwt>
<pdfrwt beam="1">  1       21 0.23049682E-01 0.47577324E+03</pdfrwt>
<pdfrwt beam="2">  1       21 0.26401943E+00 0.47577324E+03</pdfrwt>
<totfact> 0.78186513E+02</totfact>
</mgrwt>
</event>
<event>
 4    1  0.4897983E-002  0.5446105E+03  0.7818608E-02  0.1002749E+00
         21   -1    0    0  501  502  0.00000000000E+00  0.00000000000E+00  0.21281956527E+03  0.21281956527E+03  0.00000000000E+00 0.  1.
         21   -1    0    0  502  503 -0.00000000000E+00 -0.00000000000E+00 -0.17716280218E+04  0.17716280218E+04  0.00000000000E+00 0. -1.
    9000007    1    1    2  501    0 -0.30100777225E+03 -0.21446422843E+03 -0.32111016583E+03  0.63222806236E+03  0.40000000000E+03 0.  1.
   -9000007    1    1    2    0  503  0.30100777225E+03  0.21446422843E+03 -0.12376982907E+04  0.13522195247E+04  0.40000000000E+03 0. -1.
<mgrwt>
<rscale>  2 0.54461049E+03</rscale>
<asrwt>0</asrwt>
<pdfrwt beam="1">  1       21 0.32741472E-01 0.54461049E+03</pdfrwt>
<pdfrwt beam="2">  1       21 0.27255815E+00 0.54461049E+03</pdfrwt>
<totfact> 0.33599254E+02</totfact>
</mgrwt>
</event>
<event>
 4    1  0.4897983E-002  0.4259309E+03  0.7818608E-02  0.1035153E+00
         21   -1    0    0  501  502  0.00000000000E+00  0.00000000000E+00  0.39250332670E+03  0.39250332670E+03  0.00000000000E+00 0. -1.
         21   -1    0    0  502  503 -0.00000000000E+00 -0.00000000000E+00 -0.68451575631E+03  0.68451575631E+03  0.00000000000E+00 0.  1.
    9000007    1    1    2  501    0  0.81829533374E+02  0.12133054540E+03  0.16088289961E+03  0.45530262592E+03  0.40000000000E+03 0. -1.
   -9000007    1    1    2    0  503 -0.81829533374E+02 -0.12133054540E+03 -0.45289532923E+03  0.62171645709E+03  0.40000000000E+03 0.  1.
<mgrwt>
<rscale>  2 0.42593095E+03</rscale>
<asrwt>0</asrwt>
<pdfrwt beam="1">  1       21 0.60385128E-01 0.42593095E+03</pdfrwt>
<pdfrwt beam="2">  1       21 0.10531011E+00 0.42593095E+03</pdfrwt>
<totfact> 0.16063930E+03</totfact>
</mgrwt>
</event>
<event>
 4    1  0.4897983E-002  0.4734879E+03  0.7818608E-02  0.1020940E+00
         21   -1    0    0  501  502  0.00000000000E+00  0.00000000000E+00  0.15528470510E+04  0.15528470510E+04  0.00000000000E+00 0.  1.
         21   -1    0    0  502  503 -0.00000000000E+00 -0.00000000000E+00 -0.14687584713E+03  0.14687584713E+03  0.00000000000E+00 0.  1.
    9000007    1    1    2  501    0 -0.18422357592E+03  0.17393245531E+03  0.81390272128E+03  0.94160950751E+03  0.40000000000E+03 0.  1.
   -9000007    1    1    2    0  503  0.18422357592E+03 -0.17393245531E+03  0.59206848256E+03  0.75811339058E+03  0.40000000000E+03 0.  1.
<mgrwt>
<rscale>  2 0.47348794E+03</rscale>
<asrwt>0</asrwt>
<pdfrwt beam="1">  1       21 0.23889953E+00 0.47348794E+03</pdfrwt>
<pdfrwt beam="2">  1       21 0.22596285E-01 0.47348794E+03</pdfrwt>
<totfact> 0.11609083E+03</totfact>
</mgrwt>
</event>
<event>
 4    1  0.4897983E-002  0.5847206E+03  0.7818608E-02  0.9937623E-01
         21   -1    0    0  501  502  0.00000000000E+00  0.00000000000E+00  0.29275169138E+03  0.29275169138E+03  0.00000000000E+00 0. -1.
         21   -1    0    0  502  503 -0.00000000000E+00 -0.00000000000E+00 -0.11731465940E+04  0.11731465940E+04  0.00000000000E+00 0. -1.
    9000007    1    1    2  501    0  0.12172863382E+03  0.40875463354E+03 -0.39107817286E+03  0.70344889510E+03  0.40000000000E+03 0. -1.
   -9000007    1    1    2    0  503 -0.12172863382E+03 -0.40875463354E+03 -0.48931672977E+03  0.76244939029E+03  0.40000000000E+03 0. -1.
<mgrwt>
<rscale>  2 0.58472063E+03</rscale>
<asrwt>0</asrwt>
<pdfrwt beam="1">  1       21 0.45038721E-01 0.58472063E+03</pdfrwt>
<pdfrwt beam="2">  1       21 0.18048409E+00 0.58472063E+03</pdfrwt>
<totfact> 0.67434603E+02</totfact>
</mgrwt>
</event>
<event>
 4    1  0.4897983E-002  0.4380694E+03  0.7818608E-02  0.1031341E+00
         21   -1    0    0  501  502  0.00000000000E+00  0.00000000000E+00  0.68937802839E+03  0.68937802839E+03  0.00000000000E+00 0. -1.
         21   -1    0    0  502  503 -0.00000000000E+00 -0.00000000000E+00 -0.27842663258E+03  0.27842663258E+03  0.00000000000E+00 0. -1.
    9000007    1    1    2  501    0  0.12979194993E+03  0.12271453261E+03  0.21213918942E+03  0.48673179726E+03  0.40000000000E+03 0. -1.
   -9000007    1    1    2    0  503 -0.12979194993E+03 -0.12271453261E+03  0.19881220639E+03  0.48107286370E+03  0.40000000000E+03 0. -1.
<mgrwt>
<rscale>  2 0.43806941E+03</rscale>
<asrwt>0</asrwt>
<pdfrwt beam="1">  1       21 0.10605816E+00 0.43806941E+03</pdfrwt>
<pdfrwt beam="2">  1       21 0.42834867E-01 0.43806941E+03</pdfrwt>
<totfact> 0.32676361E+03</totfact>
</mgrwt>
</event>
<event>
 4    1  0.4897983E-002  0.6230273E+03  0.7818608E-02  0.9858751E-01
         21   -1    0    0  501  502  0.00000000000E+00  0.00000000000E+00  0.52372632470E+03  0.52372632470E+03  0.00000000000E+00 0.  1.
         21   -1    0    0  502  503 -0.00000000000E+00 -0.00000000000E+00 -0.10230872588E+04  0.10230872588E+04  0.00000000000E+00 0. -1.
    9000007    1    1    2  501    0 -0.22618485908E+03 -0.42071767805E+03  0.15631687400E+03  0.64233785518E+03  0.40000000000E+03 0.  1.
   -9000007    1    1    2    0  503  0.22618485908E+03  0.42071767805E+03 -0.65567780814E+03  0.90447572836E+03  0.40000000000E+03 0. -1.
<mgrwt>
<rscale>  2 0.62302725E+03</rscale>
<asrwt>0</asrwt>
<pdfrwt beam="1">  1       21 0.80573281E-01 0.62302725E+03</pdfrwt>
<pdfrwt beam="2">  1       21 0.15739804E+00 0.62302725E+03</pdfrwt>
<totfact> 0.27253855E+02</totfact>
</mgrwt>
</event>
<event>
 4    1  0.4897983E-002  0.4226425E+03  0.7818608E-02  0.1036210E+00
         21   -1    0    0  503  502  0.00000000000E+00  0.00000000000E+00  0.13754036978E+03  0.13754036978E+03  0.00000000000E+00 0. -1.
         21   -1    0    0  501  503 -0.00000000000E+00 -0.00000000000E+00 -0.14366035708E+04  0.14366035708E+04  0.00000000000E+00 0.  1.
    9000007    1    1    2  501    0  0.11486685886E+03  0.73704171875E+02 -0.89336833386E+03  0.98829837608E+03  0.40000000000E+03 0.  1.
   -9000007    1    1    2    0  502 -0.11486685886E+03 -0.73704171875E+02 -0.40569486717E+03  0.58584556451E+03  0.40000000000E+03 0. -1.
<mgrwt>
<rscale>  2 0.42264252E+03</rscale>
<asrwt>0</asrwt>
<pdfrwt beam="1">  1       21 0.21160058E-01 0.42264252E+03</pdfrwt>
<pdfrwt beam="2">  1       21 0.22101593E+00 0.42264252E+03</pdfrwt>
<totfact> 0.17475542E+03</totfact>
</mgrwt>
</event>
<event>
 4    1  0.4897983E-002  0.4666586E+03  0.7818608E-02  0.1022868E+00
         21   -1    0    0  501  502  0.00000000000E+00  0.00000000000E+00  0.55975986045E+03  0.55975986045E+03  0.00000000000E+00 0. -1.
         21   -1    0    0  502  503 -0.00000000000E+00 -0.00000000000E+00 -0.40240478535E+03  0.40240478535E+03  0.00000000000E+00 0. -1.
    9000007    1    1    2  501    0 -0.23821786161E+03  0.31977176166E+02  0.16634343885E+03  0.49541944757E+03  0.40000000000E+03 0. -1.
   -9000007    1    1    2    0  503  0.23821786161E+03 -0.31977176166E+02 -0.89883637396E+01  0.46674519823E+03  0.40000000000E+03 0. -1.
<mgrwt>
<rscale>  2 0.46665864E+03</rscale>
<asrwt>0</asrwt>
<pdfrwt beam="1">  1       21 0.86116901E-01 0.46665864E+03</pdfrwt>
<pdfrwt beam="2">  1       21 0.61908429E-01 0.46665864E+03</pdfrwt>
<totfact> 0.24273493E+03</totfact>
</mgrwt>
</event>
<event>
 4    1  0.4897983E-002  0.4748786E+03  0.7818608E-02  0.1020552E+00
         21   -1    0    0  503  502  0.00000000000E+00  0.00000000000E+00  0.10405992933E+04  0.10405992933E+04  0.00000000000E+00 0.  1.
         21   -1    0    0  501  503 -0.00000000000E+00 -0.00000000000E+00 -0.23619330421E+03  0.23619330421E+03  0.00000000000E+00 0.  1.
    9000007    1    1    2  501    0  0.25497054968E+03  0.22354960006E+02  0.21885662412E+03  0.52288425809E+03  0.40000000000E+03 0. -1.
   -9000007    1    1    2    0  502 -0.25497054968E+03 -0.22354960006E+02  0.58554936501E+03  0.75390833945E+03  0.40000000000E+03 0. -1.
<mgrwt>
<rscale>  2 0.47487864E+03</rscale>
<asrwt>0</asrwt>
<pdfrwt beam="1">  1       21 0.16009220E+00 0.47487864E+03</pdfrwt>
<pdfrwt beam="2">  1       21 0.36337432E-01 0.47487864E+03</pdfrwt>
<totfact> 0.15449546E+03</totfact>
</mgrwt>
</event>
<event>
 4    1  0.4897983E-002  0.4229146E+03  0.7818608E-02  0.1036122E+00
         21   -1    0    0  501  502  0.00000000000E+00  0.00000000000E+00  0.10505727369E+04  0.10505727369E+04  0.00000000000E+00 0.  1.
         21   -1    0    0  502  503 -0.00000000000E+00 -0.00000000000E+00 -0.19204318167E+03  0.19204318167E+03  0.00000000000E+00 0.  1.
    9000007    1    1    2  501    0  0.10895710327E+03  0.83576980390E+02  0.63857892294E+03  0.76592414953E+03  0.40000000000E+03 0.  1.
   -9000007    1    1    2    0  503 -0.10895710327E+03 -0.83576980390E+02  0.21995063225E+03  0.47669176900E+03  0.40000000000E+03 0.  1.
<mgrwt>
<rscale>  2 0.42291460E+03</rscale>
<asrwt>0</asrwt>
<pdfrwt beam="1">  1       21 0.16162657E+00 0.42291460E+03</pdfrwt>
<pdfrwt beam="2">  1       21 0.29545106E-01 0.42291460E+03</pdfrwt>
<totfact> 0.23278122E+03</totfact>
</mgrwt>
</event>
<event>
 4    1  0.4897983E-002  0.8766617E+03  0.7818608E-02  0.9455235E-01
         21   -1    0    0  501  502  0.00000000000E+00  0.00000000000E+00  0.40303896414E+03  0.40303896414E+03  0.00000000000E+00 0. -1.
         21   -1    0    0  502  503 -0.00000000000E+00 -0.00000000000E+00 -0.37860821757E+04  0.37860821757E+04  0.00000000000E+00 0.  1.
    9000007    1    1    2  501    0  0.36483623877E+03  0.68951444889E+03 -0.21585620729E+03  0.90284525727E+03  0.40000000000E+03 0. -1.
   -9000007    1    1    2    0  503 -0.36483623877E+03 -0.68951444889E+03 -0.31671870043E+04  0.32862758826E+04  0.40000000000E+03 0.  1.
<mgrwt>
<rscale>  2 0.87666165E+03</rscale>
<asrwt>0</asrwt>
<pdfrwt beam="1">  1       21 0.62005993E-01 0.87666165E+03</pdfrwt>
<pdfrwt beam="2">  1       21 0.58247419E+00 0.87666165E+03</pdfrwt>
<totfact> 0.60762410E-01</totfact>
</mgrwt>
</event>
<event>
 4    1  0.4897983E-002  0.4464851E+03  0.7818608E-02  0.1028775E+00
         21   -1    0    0  503  502  0.00000000000E+00  0.00000000000E+00  0.90915638579E+03  0.90915638579E+03  0.00000000000E+00 0.  1.
         21   -1    0    0  501  503 -0.00000000000E+00 -0.00000000000E+00 -0.26940239425E+03  0.26940239425E+03  0.00000000000E+00 0.  1.
    9000007    1    1    2  501    0  0.19090472932E+03 -0.53892045239E+02  0.65669648416E+02  0.45128867805E+03  0.40000000000E+03 0.  1.
   -9000007    1    1    2    0  502 -0.19090472932E+03  0.53892045239E+02  0.57408434312E+03  0.72727010198E+03  0.40000000000E+03 0.  1.
<mgrwt>
<rscale>  2 0.44648513E+03</rscale>
<asrwt>0</asrwt>
<pdfrwt beam="1">  1       21 0.13987021E+00 0.44648513E+03</pdfrwt>
<pdfrwt beam="2">  1       21 0.41446522E-01 0.44648513E+03</pdfrwt>
<totfact> 0.17221509E+03</totfact>
</mgrwt>
</event>
<event>
 4    1  0.4897983E-002  0.6089903E+03  0.7818608E-02  0.9886928E-01
         21   -1    0    0  501  502  0.00000000000E+00  0.00000000000E+00  0.44629752320E+03  0.44629752320E+03  0.00000000000E+00 0.  1.
         21   -1    0    0  502  503 -0.00000000000E+00 -0.00000000000E+00 -0.15645193000E+04  0.15645193000E+04  0.00000000000E+00 0. -1.
    9000007    1    1    2  501    0  0.18205620848E+03 -0.42157413994E+03  0.12932023021E+03  0.62256962699E+03  0.40000000000E+03 0.  1.
   -9000007    1    1    2    0  503 -0.18205620848E+03  0.42157413994E+03 -0.12475420070E+04  0.13882471962E+04  0.40000000000E+03 0. -1.
<mgrwt>
<rscale>  2 0.60899033E+03</rscale>
<asrwt>0</asrwt>
<pdfrwt beam="1">  1       21 0.68661156E-01 0.60899033E+03</pdfrwt>
<pdfrwt beam="2">  1       21 0.24069528E+00 0.60899033E+03</pdfrwt>
<totfact> 0.10637589E+02</totfact>
</mgrwt>
</event>
<event>
 4    1  0.4897983E-002  0.4322574E+03  0.7818608E-02  0.1033149E+00
         21   -1    0    0  503  502  0.00000000000E+00  0.00000000000E+00  0.59088902753E+03  0.59088902753E+03  0.00000000000E+00 0.  1.
         21   -1    0    0  501  503 -0.00000000000E+00 -0.00000000000E+00 -0.96429415243E+03  0.96429415243E+03  0.00000000000E+00 0.  1.
    9000007    1    1    2  501    0 -0.34881834651E+02  0.16009293840E+03 -0.82417535614E+03  0.93065112098E+03  0.40000000000E+03 0.  1.
   -9000007    1    1    2    0  502  0.34881834651E+02 -0.16009293840E+03  0.45077023124E+03  0.62453205898E+03  0.40000000000E+03 0.  1.
<mgrwt>
<rscale>  2 0.43225744E+03</rscale>
<asrwt>0</asrwt>
<pdfrwt beam="1">  1       21 0.90906005E-01 0.43225744E+03</pdfrwt>
<pdfrwt beam="2">  1       21 0.14835295E+00 0.43225744E+03</pdfrwt>
<totfact> 0.26178126E+02</totfact>
</mgrwt>
</event>
<event>
 4    1  0.4897983E-002  0.4365859E+03  0.7818608E-02  0.1031799E+00
         21   -1    0    0  503  502  0.00000000000E+00  0.00000000000E+00  0.52074584489E+03  0.52074584489E+03  0.00000000000E+00 0. -1.
         21   -1    0    0  501  503 -0.00000000000E+00 -0.00000000000E+00 -0.43697517090E+03  0.43697517090E+03  0.00000000000E+00 0. -1.
    9000007    1    1    2  501    0 -0.15587361127E+03 -0.79439748621E+02 -0.15106696658E+03  0.46198320829E+03  0.40000000000E+03 0. -1.
   -9000007    1    1    2    0  502  0.15587361127E+03  0.79439748621E+02  0.23483764057E+03  0.49573780749E+03  0.40000000000E+03 0. -1.
<mgrwt>
<rscale>  2 0.43658591E+03</rscale>
<asrwt>0</asrwt>
<pdfrwt beam="1">  1       21 0.80114745E-01 0.43658591E+03</pdfrwt>
<pdfrwt beam="2">  1       21 0.67226950E-01 0.43658591E+03</pdfrwt>
<totfact> 0.24182799E+03</totfact>
</mgrwt>
</event>
<event>
 4    1  0.4897983E-002  0.5025185E+03  0.7818608E-02  0.1013124E+00
         21   -1    0    0  501  502  0.00000000000E+00  0.00000000000E+00  0.10457587707E+04  0.10457587707E+04  0.00000000000E+00 0. -1.
         21   -1    0    0  502  503 -0.00000000000E+00 -0.00000000000E+00 -0.25907516686E+03  0.25907516686E+03  0.00000000000E+00 0. -1.
    9000007    1    1    2  501    0  0.15386967312E+03 -0.26239080195E+03  0.56338852562E+03  0.75493803723E+03  0.40000000000E+03 0. -1.
   -9000007    1    1    2    0  503 -0.15386967312E+03  0.26239080195E+03  0.22329507825E+03  0.54989590036E+03  0.40000000000E+03 0. -1.
<mgrwt>
<rscale>  2 0.50251847E+03</rscale>
<asrwt>0</asrwt>
<pdfrwt beam="1">  1       21 0.16088596E+00 0.50251847E+03</pdfrwt>
<pdfrwt beam="2">  1       21 0.39857719E-01 0.50251847E+03</pdfrwt>
<totfact> 0.12473516E+03</totfact>
</mgrwt>
</event>
<event>
 4    1  0.4897983E-002  0.4873403E+03  0.7818608E-02  0.1017137E+00
         21   -1    0    0  503  502  0.00000000000E+00  0.00000000000E+00  0.34661525135E+03  0.34661525135E+03  0.00000000000E+00 0. -1.
         21   -1    0    0  501  503 -0.00000000000E+00 -0.00000000000E+00 -0.80931114584E+03  0.80931114584E+03  0.00000000000E+00 0. -1.
    9000007    1    1    2  501    0  0.24983435526E+03  0.12281424737E+03 -0.50143856830E+01  0.48736607236E+03  0.40000000000E+03 0. -1.
   -9000007    1    1    2    0  502 -0.24983435526E+03 -0.12281424737E+03 -0.45768150881E+03  0.66856032482E+03  0.40000000000E+03 0. -1.
<mgrwt>
<rscale>  2 0.48734028E+03</rscale>
<asrwt>0</asrwt>
<pdfrwt beam="1">  1       21 0.53325424E-01 0.48734028E+03</pdfrwt>
<pdfrwt beam="2">  1       21 0.12450941E+00 0.48734028E+03</pdfrwt>
<totfact> 0.13493939E+03</totfact>
</mgrwt>
</event>
<event>
 4    1  0.4897983E-002  0.4821602E+03  0.7818608E-02  0.1018543E+00
         21   -1    0    0  503  502  0.00000000000E+00  0.00000000000E+00  0.17355515734E+04  0.17355515734E+04  0.00000000000E+00 0. -1.
         21   -1    0    0  501  503 -0.00000000000E+00 -0.00000000000E+00 -0.16403613193E+03  0.16403613193E+03  0.00000000000E+00 0.  1.
    9000007    1    1    2  501    0  0.26407808269E+03  0.52356983074E+02  0.37899874911E+03  0.61328503916E+03  0.40000000000E+03 0.  1.
   -9000007    1    1    2    0  502 -0.26407808269E+03 -0.52356983074E+02  0.11925166924E+04  0.12863026662E+04  0.40000000000E+03 0. -1.
<mgrwt>
<rscale>  2 0.48216023E+03</rscale>
<asrwt>0</asrwt>
<pdfrwt beam="1">  1       21 0.26700792E+00 0.48216023E+03</pdfrwt>
<pdfrwt beam="2">  1       21 0.25236329E-01 0.48216023E+03</pdfrwt>
<totfact> 0.62682703E+02</totfact>
</mgrwt>
</event>
<event>
 4    1  0.4897983E-002  0.6331508E+03  0.7818608E-02  0.9838919E-01
         21   -1    0    0  503  502  0.00000000000E+00  0.00000000000E+00  0.20283286965E+04  0.20283286965E+04  0.00000000000E+00 0.  1.
         21   -1    0    0  501  503 -0.00000000000E+00 -0.00000000000E+00 -0.37277262315E+03  0.37277262315E+03  0.00000000000E+00 0. -1.
    9000007    1    1    2  501    0  0.17392733999E+03  0.45894361005E+03  0.48888486519E+01  0.63316969103E+03  0.40000000000E+03 0. -1.
   -9000007    1    1    2    0  502 -0.17392733999E+03 -0.45894361005E+03  0.16506672247E+04  0.17679316287E+04  0.40000000000E+03 0.  1.
<mgrwt>
<rscale>  2 0.63315082E+03</rscale>
<asrwt>0</asrwt>
<pdfrwt beam="1">  1       21 0.31205056E+00 0.63315082E+03</pdfrwt>
<pdfrwt beam="2">  1       21 0.57349635E-01 0.63315082E+03</pdfrwt>
<totfact> 0.57199334E+01</totfact>
</mgrwt>
</event>
<event>
 4    1  0.4897983E-002  0.5232186E+03  0.7818608E-02  0.1007890E+00
         21   -1    0    0  503  502  0.00000000000E+00  0.00000000000E+00  0.50294117816E+03  0.50294117816E+03  0.00000000000E+00 0.  1.
         21   -1    0    0  501  503 -0.00000000000E+00 -0.00000000000E+00 -0.54482810448E+03  0.54482810448E+03  0.00000000000E+00 0. -1.
    9000007    1    1    2  501    0 -0.29733103132E+03 -0.15922304942E+03 -0.48443536300E+01  0.52324104332E+03  0.40000000000E+03 0.  1.
   -9000007    1    1    2    0  502  0.29733103132E+03  0.15922304942E+03 -0.37042572697E+02  0.52452823932E+03  0.40000000000E+03 0.  1.
<mgrwt>
<rscale>  2 0.52321862E+03</rscale>
<asrwt>0</asrwt>
<pdfrwt beam="1">  1       21 0.77375567E-01 0.52321862E+03</pdfrwt>
<pdfrwt beam="2">  1       21 0.83819707E-01 0.52321862E+03</pdfrwt>
<totfact> 0.15350147E+03</totfact>
</mgrwt>
</event>
<event>
 4    1  0.4897983E-002  0.4921163E+03  0.7818608E-02  0.1015857E+00
         21   -1    0    0  501  502  0.00000000000E+00  0.00000000000E+00  0.50378329143E+03  0.50378329143E+03  0.00000000000E+00 0.  1.
         21   -1    0    0  502  503 -0.00000000000E+00 -0.00000000000E+00 -0.74487231411E+03  0.74487231411E+03  0.00000000000E+00 0.  1.
    9000007    1    1    2  501    0  0.91412370223E+02  0.27170250523E+03  0.25124689415E+03  0.55254273554E+03  0.40000000000E+03 0.  1.
   -9000007    1    1    2    0  503 -0.91412370223E+02 -0.27170250523E+03 -0.49233591682E+03  0.69611287000E+03  0.40000000000E+03 0.  1.
<mgrwt>
<rscale>  2 0.49211632E+03</rscale>
<asrwt>0</asrwt>
<pdfrwt beam="1">  1       21 0.77505122E-01 0.49211632E+03</pdfrwt>
<pdfrwt beam="2">  1       21 0.11459574E+00 0.49211632E+03</pdfrwt>
<totfact> 0.72418886E+02</totfact>
</mgrwt>
</event>
<event>
 4    1  0.4897983E-002  0.4006726E+03  0.7818608E-02  0.1043547E+00
         21   -1    0    0  501  502  0.00000000000E+00  0.00000000000E+00  0.25055553692E+04  0.25055553692E+04  0.00000000000E+00 0. -1.
         21   -1    0    0  502  503 -0.00000000000E+00 -0.00000000000E+00 -0.96483593791E+02  0.96483593791E+02  0.00000000000E+00 0. -1.
    9000007    1    1    2  501    0  0.73998071101E+00 -0.23194451503E+02  0.19585862298E+04  0.19991494565E+04  0.40000000000E+03 0.  1.
   -9000007    1    1    2    0  503 -0.73998071101E+00  0.23194451503E+02  0.45048554563E+03  0.60288950644E+03  0.40000000000E+03 0.  1.
<mgrwt>
<rscale>  2 0.40067260E+03</rscale>
<asrwt>0</asrwt>
<pdfrwt beam="1">  1       21 0.38547001E+00 0.40067260E+03</pdfrwt>
<pdfrwt beam="2">  1       21 0.14843632E-01 0.40067260E+03</pdfrwt>
<totfact> 0.34196977E+02</totfact>
</mgrwt>
</event>
<event>
 4    1  0.4897983E-002  0.4942838E+03  0.7818608E-02  0.1015282E+00
         21   -1    0    0  503  502  0.00000000000E+00  0.00000000000E+00  0.64536695997E+03  0.64536695997E+03  0.00000000000E+00 0.  1.
         21   -1    0    0  501  503 -0.00000000000E+00 -0.00000000000E+00 -0.37866838576E+03  0.37866838576E+03  0.00000000000E+00 0.  1.
    9000007    1    1    2  501    0  0.20467907889E+03 -0.20596824140E+03  0.14161080139E+03  0.51416929203E+03  0.40000000000E+03 0.  1.
   -9000007    1    1    2    0  502 -0.20467907889E+03  0.20596824140E+03  0.12508777282E+03  0.50986605369E+03  0.40000000000E+03 0.  1.
<mgrwt>
<rscale>  2 0.49428377E+03</rscale>
<asrwt>0</asrwt>
<pdfrwt beam="1">  1       21 0.99287225E-01 0.49428377E+03</pdfrwt>
<pdfrwt beam="2">  1       21 0.58256675E-01 0.49428377E+03</pdfrwt>
<totfact> 0.19560339E+03</totfact>
</mgrwt>
</event>
<event>
 4    1  0.4897983E-002  0.4771851E+03  0.7818608E-02  0.1019912E+00
         21   -1    0    0  503  502  0.00000000000E+00  0.00000000000E+00  0.63567454176E+03  0.63567454176E+03  0.00000000000E+00 0.  1.
         21   -1    0    0  501  503 -0.00000000000E+00 -0.00000000000E+00 -0.65062946231E+03  0.65062946231E+03  0.00000000000E+00 0.  1.
    9000007    1    1    2  501    0  0.11757741926E+03 -0.23212320216E+03 -0.43864805765E+03  0.64816490879E+03  0.40000000000E+03 0.  1.
   -9000007    1    1    2    0  502 -0.11757741926E+03  0.23212320216E+03  0.42369313710E+03  0.63813909528E+03  0.40000000000E+03 0.  1.
<mgrwt>
<rscale>  2 0.47718511E+03</rscale>
<asrwt>0</asrwt>
<pdfrwt beam="1">  1       21 0.97796084E-01 0.47718511E+03</pdfrwt>
<pdfrwt beam="2">  1       21 0.10009684E+00 0.47718511E+03</pdfrwt>
<totfact> 0.58864299E+02</totfact>
</mgrwt>
</event>
<event>
 4    1  0.4897983E-002  0.4214457E+03  0.7818608E-02  0.1036597E+00
         21   -1    0    0  503  502  0.00000000000E+00  0.00000000000E+00  0.12024883366E+04  0.12024883366E+04  0.00000000000E+00 0.  1.
         21   -1    0    0  501  503 -0.00000000000E+00 -0.00000000000E+00 -0.19297918243E+03  0.19297918243E+03  0.00000000000E+00 0.  1.
    9000007    1    1    2  501    0 -0.33736075229E+02  0.12836803713E+03  0.16680796033E+03  0.45325640796E+03  0.40000000000E+03 0.  1.
   -9000007    1    1    2    0  502  0.33736075229E+02 -0.12836803713E+03  0.84270119387E+03  0.94221111110E+03  0.40000000000E+03 0.  1.
<mgrwt>
<rscale>  2 0.42144570E+03</rscale>
<asrwt>0</asrwt>
<pdfrwt beam="1">  1       21 0.18499820E+00 0.42144570E+03</pdfrwt>
<pdfrwt beam="2">  1       21 0.29689106E-01 0.42144570E+03</pdfrwt>
<totfact> 0.15666469E+03</totfact>
</mgrwt>
</event>
<event>
 4    1  0.4897983E-002  0.4505583E+03  0.7818608E-02  0.1027556E+00
         21   -1    0    0  501  502  0.00000000000E+00  0.00000000000E+00  0.13743889580E+04  0.13743889580E+04  0.00000000000E+00 0. -1.
         21   -1    0    0  502  503 -0.00000000000E+00 -0.00000000000E+00 -0.16359572385E+03  0.16359572385E+03  0.00000000000E+00 0. -1.
    9000007    1    1    2  501    0 -0.16937270957E+03 -0.11964799072E+03  0.84507090633E+03  0.95767823049E+03  0.40000000000E+03 0. -1.
   -9000007    1    1    2    0  503  0.16937270957E+03  0.11964799072E+03  0.36572232786E+03  0.58030645139E+03  0.40000000000E+03 0. -1.
<mgrwt>
<rscale>  2 0.45055827E+03</rscale>
<asrwt>0</asrwt>
<pdfrwt beam="1">  1       21 0.21144445E+00 0.45055827E+03</pdfrwt>
<pdfrwt beam="2">  1       21 0.25168574E-01 0.45055827E+03</pdfrwt>
<totfact> 0.14225943E+03</totfact>
</mgrwt>
</event>
<event>
 4    1  0.4897983E-002  0.6514473E+03  0.7818608E-02  0.9804067E-01
         21   -1    0    0  501  502  0.00000000000E+00  0.00000000000E+00  0.22665687721E+04  0.22665687721E+04  0.00000000000E+00 0.  1.
         21   -1    0    0  502  503 -0.00000000000E+00 -0.00000000000E+00 -0.32155728966E+03  0.32155728966E+03  0.00000000000E+00 0. -1.
    9000007    1    1    2  501    0 -0.50371719447E+03  0.10321121499E+03  0.18088757781E+04  0.19226063424E+04  0.40000000000E+03 0.  1.
   -9000007    1    1    2    0  503  0.50371719447E+03 -0.10321121499E+03  0.13613570428E+03  0.66551971938E+03  0.40000000000E+03 0. -1.
<mgrwt>
<rscale>  2 0.65144729E+03</rscale>
<asrwt>0</asrwt>
<pdfrwt beam="1">  1       21 0.34870288E+00 0.65144729E+03</pdfrwt>
<pdfrwt beam="2">  1       21 0.49470354E-01 0.65144729E+03</pdfrwt>
<totfact> 0.46447597E+01</totfact>
</mgrwt>
</event>
<event>
 4    1  0.4897983E-002  0.4017386E+03  0.7818608E-02  0.1043179E+00
         21   -1    0    0  503  502  0.00000000000E+00  0.00000000000E+00  0.36321166635E+03  0.36321166635E+03  0.00000000000E+00 0. -1.
         21   -1    0    0  501  503 -0.00000000000E+00 -0.00000000000E+00 -0.82846147693E+03  0.82846147693E+03  0.00000000000E+00 0. -1.
    9000007    1    1    2  501    0 -0.25508844518E+02  0.27261405734E+02 -0.63833743684E+03  0.75423376262E+03  0.40000000000E+03 0. -1.
   -9000007    1    1    2    0  502  0.25508844518E+02 -0.27261405734E+02  0.17308762626E+03  0.43743938066E+03  0.40000000000E+03 0. -1.
<mgrwt>
<rscale>  2 0.40173858E+03</rscale>
<asrwt>0</asrwt>
<pdfrwt beam="1">  1       21 0.55878719E-01 0.40173858E+03</pdfrwt>
<pdfrwt beam="2">  1       21 0.12745561E+00 0.40173858E+03</pdfrwt>
<totfact> 0.11902384E+03</totfact>
</mgrwt>
</event>
<event>
 4    1  0.4897983E-002  0.7311511E+03  0.7818608E-02  0.9665394E-01
         21   -1    0    0  501  502  0.00000000000E+00  0.00000000000E+00  0.70655093774E+03  0.70655093774E+03  0.00000000000E+00 0.  1.
         21   -1    0    0  502  503 -0.00000000000E+00 -0.00000000000E+00 -0.75915498435E+03  0.75915498435E+03  0.00000000000E+00 0. -1.
    9000007    1    1    2  501    0 -0.51198462914E+03  0.33534110926E+03 -0.68752786126E+02  0.73437651490E+03  0.40000000000E+03 0. -1.
   -9000007    1    1    2    0  503  0.51198462914E+03 -0.33534110926E+03  0.16148739513E+02  0.73132940719E+03  0.40000000000E+03 0.  1.
<mgrwt>
<rscale>  2 0.73115109E+03</rscale>
<asrwt>0</asrwt>
<pdfrwt beam="1">  1       21 0.10870014E+00 0.73115109E+03</pdfrwt>
<pdfrwt beam="2">  1       21 0.11679307E+00 0.73115109E+03</pdfrwt>
<totfact> 0.28309669E+02</totfact>
</mgrwt>
</event>
<event>
 4    1  0.4897983E-002  0.6613071E+03  0.7818608E-02  0.9785791E-01
         21   -1    0    0  501  502  0.00000000000E+00  0.00000000000E+00  0.51438353960E+03  0.51438353960E+03  0.00000000000E+00 0.  1.
         21   -1    0    0  502  503 -0.00000000000E+00 -0.00000000000E+00 -0.11673827760E+04  0.11673827760E+04  0.00000000000E+00 0.  1.
    9000007    1    1    2  501    0 -0.48892724218E+03  0.19564571474E+03  0.11181524283E+03  0.67069347870E+03  0.40000000000E+03 0.  1.
   -9000007    1    1    2    0  503  0.48892724218E+03 -0.19564571474E+03 -0.76481447919E+03  0.10110728369E+04  0.40000000000E+03 0.  1.
<mgrwt>
<rscale>  2 0.66130711E+03</rscale>
<asrwt>0</asrwt>
<pdfrwt beam="1">  1       21 0.79135929E-01 0.66130711E+03</pdfrwt>
<pdfrwt beam="2">  1       21 0.17959735E+00 0.66130711E+03</pdfrwt>
<totfact> 0.19190474E+02</totfact>
</mgrwt>
</event>
<event>
 4    1  0.4897983E-002  0.5701347E+03  0.7818608E-02  0.9969381E-01
         21   -1    0    0  501  502  0.00000000000E+00  0.00000000000E+00  0.15758299215E+04  0.15758299215E+04  0.00000000000E+00 0. -1.
         21   -1    0    0  502  503 -0.00000000000E+00 -0.00000000000E+00 -0.31459204845E+03  0.31459204845E+03  0.00000000000E+00 0. -1.
    9000007    1    1    2  501    0 -0.12571478151E+03 -0.38632804975E+03  0.75987794966E+02  0.57517624542E+03  0.40000000000E+03 0. -1.
   -9000007    1    1    2    0  503  0.12571478151E+03  0.38632804975E+03  0.11852500781E+04  0.13152457245E+04  0.40000000000E+03 0. -1.
<mgrwt>
<rscale>  2 0.57013469E+03</rscale>
<asrwt>0</asrwt>
<pdfrwt beam="1">  1       21 0.24243537E+00 0.57013469E+03</pdfrwt>
<pdfrwt beam="2">  1       21 0.48398778E-01 0.57013469E+03</pdfrwt>
<totfact> 0.22695117E+02</totfact>
</mgrwt>
</event>
<event>
 4    1  0.4897983E-002  0.4278263E+03  0.7818608E-02  0.1034549E+00
         21   -1    0    0  501  502  0.00000000000E+00  0.00000000000E+00  0.61150076454E+03  0.61150076454E+03  0.00000000000E+00 0.  1.
         21   -1    0    0  502  503 -0.00000000000E+00 -0.00000000000E+00 -0.38458223441E+03  0.38458223441E+03  0.00000000000E+00 0. -1.
    9000007    1    1    2  501    0 -0.14413205889E+03 -0.47552641707E+02  0.34796072394E+03  0.55146347979E+03  0.40000000000E+03 0.  1.
   -9000007    1    1    2    0  503  0.14413205889E+03  0.47552641707E+02 -0.12104219381E+03  0.44461951916E+03  0.40000000000E+03 0. -1.
<mgrwt>
<rscale>  2 0.42782625E+03</rscale>
<asrwt>0</asrwt>
<pdfrwt beam="1">  1       21 0.94077041E-01 0.42782625E+03</pdfrwt>
<pdfrwt beam="2">  1       21 0.59166498E-01 0.42782625E+03</pdfrwt>
<totfact> 0.22061620E+03</totfact>
</mgrwt>
</event>
<event>
 4    1  0.4897983E-002  0.4657914E+03  0.7818608E-02  0.1023115E+00
         21   -1    0    0  501  502  0.00000000000E+00  0.00000000000E+00  0.49397647511E+03  0.49397647511E+03  0.00000000000E+00 0. -1.
         21   -1    0    0  502  503 -0.00000000000E+00 -0.00000000000E+00 -0.50248801964E+03  0.50248801964E+03  0.00000000000E+00 0. -1.
    9000007    1    1    2  501    0  0.23323725388E+03 -0.50616085528E+02  0.17254336980E+03  0.49672207438E+03  0.40000000000E+03 0. -1.
   -9000007    1    1    2    0  503 -0.23323725388E+03  0.50616085528E+02 -0.18105491434E+03  0.49974242037E+03  0.40000000000E+03 0. -1.
<mgrwt>
<rscale>  2 0.46579137E+03</rscale>
<asrwt>0</asrwt>
<pdfrwt beam="1">  1       21 0.75996381E-01 0.46579137E+03</pdfrwt>
<pdfrwt beam="2">  1       21 0.77305849E-01 0.46579137E+03</pdfrwt>
<totfact> 0.19684212E+03</totfact>
</mgrwt>
</event>
<event>
 4    1  0.4897983E-002  0.4244140E+03  0.7818608E-02  0.1035639E+00
         21   -1    0    0  501  502  0.00000000000E+00  0.00000000000E+00  0.39191120384E+03  0.39191120384E+03  0.00000000000E+00 0. -1.
         21   -1    0    0  502  503 -0.00000000000E+00 -0.00000000000E+00 -0.46863106278E+03  0.46863106278E+03  0.00000000000E+00 0.  1.
    9000007    1    1    2  501    0  0.13056932740E+03  0.55487665004E+02  0.21329702486E+02  0.42494962811E+03  0.40000000000E+03 0. -1.
   -9000007    1    1    2    0  503 -0.13056932740E+03 -0.55487665004E+02 -0.98049561421E+02  0.43559263851E+03  0.40000000000E+03 0. -1.
<mgrwt>
<rscale>  2 0.42441398E+03</rscale>
<asrwt>0</asrwt>
<pdfrwt beam="1">  1       21 0.60294032E-01 0.42441398E+03</pdfrwt>
<pdfrwt beam="2">  1       21 0.72097086E-01 0.42441398E+03</pdfrwt>
<totfact> 0.39322800E+03</totfact>
</mgrwt>
</event>
<event>
 4    1  0.4897983E-002  0.4110599E+03  0.7818608E-02  0.1040016E+00
         21   -1    0    0  501  502  0.00000000000E+00  0.00000000000E+00  0.51041440631E+03  0.51041440631E+03  0.00000000000E+00 0. -1.
         21   -1    0    0  502  503 -0.00000000000E+00 -0.00000000000E+00 -0.52403905226E+03  0.52403905226E+03  0.00000000000E+00 0. -1.
    9000007    1    1    2  501    0 -0.16702984340E+02 -0.93226748020E+02  0.30707293731E+03  0.51309258917E+03  0.40000000000E+03 0. -1.
   -9000007    1    1    2    0  503  0.16702984340E+02  0.93226748020E+02 -0.32069758326E+03  0.52136086940E+03  0.40000000000E+03 0. -1.
<mgrwt>
<rscale>  2 0.41105987E+03</rscale>
<asrwt>0</asrwt>
<pdfrwt beam="1">  1       21 0.78525294E-01 0.41105987E+03</pdfrwt>
<pdfrwt beam="2">  1       21 0.80621392E-01 0.41105987E+03</pdfrwt>
<totfact> 0.16935118E+03</totfact>
</mgrwt>
</event>
<event>
 4    1  0.4897983E-002  0.4295105E+03  0.7818608E-02  0.1034015E+00
         21   -1    0    0  503  502  0.00000000000E+00  0.00000000000E+00  0.13208941957E+04  0.13208941957E+04  0.00000000000E+00 0. -1.
         21   -1    0    0  501  503 -0.00000000000E+00 -0.00000000000E+00 -0.14034418421E+03  0.14034418421E+03  0.00000000000E+00 0. -1.
    9000007    1    1    2  501    0 -0.11085959562E+03  0.11040553736E+03  0.64119898962E+03  0.77176121755E+03  0.40000000000E+03 0. -1.
   -9000007    1    1    2    0  502  0.11085959562E+03 -0.11040553736E+03  0.53935102190E+03  0.68947716238E+03  0.40000000000E+03 0. -1.
<mgrwt>
<rscale>  2 0.42951046E+03</rscale>
<asrwt>0</asrwt>
<pdfrwt beam="1">  1       21 0.20321448E+00 0.42951046E+03</pdfrwt>
<pdfrwt beam="2">  1       21 0.21591414E-01 0.42951046E+03</pdfrwt>
<totfact> 0.21859499E+03</totfact>
</mgrwt>
</event>
<event>
 4    1  0.4897983E-002  0.4723589E+03  0.7818608E-02  0.1021257E+00
         21   -1    0    0  503  502  0.00000000000E+00  0.00000000000E+00  0.23408152597E+04  0.23408152597E+04  0.00000000000E+00 0.  1.
         21   -1    0    0  501  503 -0.00000000000E+00 -0.00000000000E+00 -0.23663650997E+03  0.23663650997E+03  0.00000000000E+00 0. -1.
    9000007    1    1    2  501    0  0.22684393939E+03  0.10800350176E+03  0.56183077627E+02  0.47568841424E+03  0.40000000000E+03 0. -1.
   -9000007    1    1    2    0  502 -0.22684393939E+03 -0.10800350176E+03  0.20479956721E+04  0.21017633554E+04  0.40000000000E+03 0.  1.
<mgrwt>
<rscale>  2 0.47235890E+03</rscale>
<asrwt>0</asrwt>
<pdfrwt beam="1">  1       21 0.36012541E+00 0.47235890E+03</pdfrwt>
<pdfrwt beam="2">  1       21 0.36405619E-01 0.47235890E+03</pdfrwt>
<totfact> 0.82612702E+01</totfact>
</mgrwt>
</event>
<event>
 4    1  0.4897983E-002  0.5137852E+03  0.7818608E-02  0.1010242E+00
         21   -1    0    0  503  502  0.00000000000E+00  0.00000000000E+00  0.11011140471E+04  0.11011140471E+04  0.00000000000E+00 0.  1.
         21   -1    0    0  501  503 -0.00000000000E+00 -0.00000000000E+00 -0.37610900674E+03  0.37610900674E+03  0.00000000000E+00 0. -1.
    9000007    1    1    2  501    0 -0.10118961018E+03 -0.30616316015E+03 -0.82257286221E+02  0.52032824157E+03  0.40000000000E+03 0. -1.
   -9000007    1    1    2    0  502  0.10118961018E+03  0.30616316015E+03  0.80726232660E+03  0.95689481229E+03  0.40000000000E+03 0.  1.
<mgrwt>
<rscale>  2 0.51378519E+03</rscale>
<asrwt>0</asrwt>
<pdfrwt beam="1">  1       21 0.16940216E+00 0.51378519E+03</pdfrwt>
<pdfrwt beam="2">  1       21 0.57862925E-01 0.51378519E+03</pdfrwt>
<totfact> 0.48671354E+02</totfact>
</mgrwt>
</event>
<event>
 4    1  0.4897983E-002  0.4178161E+03  0.7818608E-02  0.1037779E+00
         21   -1    0    0  501  502  0.00000000000E+00  0.00000000000E+00  0.31466587171E+03  0.31466587171E+03  0.00000000000E+00 0.  1.
         21   -1    0    0  502  503 -0.00000000000E+00 -0.00000000000E+00 -0.14302918498E+04  0.14302918498E+04  0.00000000000E+00 0. -1.
    9000007    1    1    2  501    0 -0.84284735353E+02 -0.86408412120E+02  0.12479850553E+03  0.43605618592E+03  0.40000000000E+03 0.  1.
   -9000007    1    1    2    0  503  0.84284735353E+02  0.86408412120E+02 -0.12404244837E+04  0.13089015356E+04  0.40000000000E+03 0. -1.
<mgrwt>
<rscale>  2 0.41781614E+03</rscale>
<asrwt>0</asrwt>
<pdfrwt beam="1">  1       21 0.48410135E-01 0.41781614E+03</pdfrwt>
<pdfrwt beam="2">  1       21 0.22004489E+00 0.41781614E+03</pdfrwt>
<totfact> 0.33856299E+02</totfact>
</mgrwt>
</event>
<event>
 4    1  0.4897983E-002  0.4835805E+03  0.7818608E-02  0.1018156E+00
         21   -1    0    0  501  502  0.00000000000E+00  0.00000000000E+00  0.47672721071E+03  0.47672721071E+03  0.00000000000E+00 0.  1.
         21   -1    0    0  502  503 -0.00000000000E+00 -0.00000000000E+00 -0.84181756536E+03  0.84181756536E+03  0.00000000000E+00 0.  1.
    9000007    1    1    2  501    0 -0.26104170506E+03 -0.75547025513E+02  0.24333342822E+03  0.54135134814E+03  0.40000000000E+03 0.  1.
   -9000007    1    1    2    0  503  0.26104170506E+03  0.75547025513E+02 -0.60842378288E+03  0.77719342793E+03  0.40000000000E+03 0.  1.
<mgrwt>
<rscale>  2 0.48358053E+03</rscale>
<asrwt>0</asrwt>
<pdfrwt beam="1">  1       21 0.73342648E-01 0.48358053E+03</pdfrwt>
<pdfrwt beam="2">  1       21 0.12951039E+00 0.48358053E+03</pdfrwt>
<totfact> 0.60307730E+02</totfact>
</mgrwt>
</event>
<event>
 4    1  0.4897983E-002  0.4677037E+03  0.7818608E-02  0.1022570E+00
         21   -1    0    0  503  502  0.00000000000E+00  0.00000000000E+00  0.21610794618E+03  0.21610794618E+03  0.00000000000E+00 0.  1.
         21   -1    0    0  501  503 -0.00000000000E+00 -0.00000000000E+00 -0.12269050622E+04  0.12269050622E+04  0.00000000000E+00 0.  1.
    9000007    1    1    2  501    0 -0.86375620691E+02 -0.22646421128E+03 -0.80721648934E+03  0.93292295904E+03  0.40000000000E+03 0.  1.
   -9000007    1    1    2    0  502  0.86375620691E+02  0.22646421128E+03 -0.20358062664E+03  0.51009004929E+03  0.40000000000E+03 0.  1.
<mgrwt>
<rscale>  2 0.46770374E+03</rscale>
<asrwt>0</asrwt>
<pdfrwt beam="1">  1       21 0.33247376E-01 0.46770374E+03</pdfrwt>
<pdfrwt beam="2">  1       21 0.18875463E+00 0.46770374E+03</pdfrwt>
<totfact> 0.11534730E+03</totfact>
</mgrwt>
</event>
<event>
 4    1  0.4897983E-002  0.5355502E+03  0.7818608E-02  0.1004895E+00
         21   -1    0    0  501  502  0.00000000000E+00  0.00000000000E+00  0.26261715743E+04  0.26261715743E+04  0.00000000000E+00 0. -1.
         21   -1    0    0  502  503 -0.00000000000E+00 -0.00000000000E+00 -0.12555590423E+03  0.12555590423E+03  0.00000000000E+00 0. -1.
    9000007    1    1    2  501    0  0.28218761544E+03 -0.21721914933E+03  0.17466848840E+04  0.18269433744E+04  0.40000000000E+03 0. -1.
   -9000007    1    1    2    0  503 -0.28218761544E+03  0.21721914933E+03  0.75393078609E+03  0.92478410419E+03  0.40000000000E+03 0. -1.
<mgrwt>
<rscale>  2 0.53555019E+03</rscale>
<asrwt>0</asrwt>
<pdfrwt beam="1">  1       21 0.40402636E+00 0.53555019E+03</pdfrwt>
<pdfrwt beam="2">  1       21 0.19316295E-01 0.53555019E+03</pdfrwt>
<totfact> 0.14570777E+02</totfact>
</mgrwt>
</event>
<event>
 4    1  0.4897983E-002  0.4070781E+03  0.7818608E-02  0.1041356E+00
         21   -1    0    0  503  502  0.00000000000E+00  0.00000000000E+00  0.76378244298E+03  0.76378244298E+03  0.00000000000E+00 0. -1.
         21   -1    0    0  501  503 -0.00000000000E+00 -0.00000000000E+00 -0.29335049926E+03  0.29335049926E+03  0.00000000000E+00 0. -1.
    9000007    1    1    2  501    0  0.27049375611E+02  0.70575494671E+02  0.50493848408E+03  0.64859497521E+03  0.40000000000E+03 0. -1.
   -9000007    1    1    2    0  502 -0.27049375611E+02 -0.70575494671E+02 -0.34506540361E+02  0.40853796702E+03  0.40000000000E+03 0. -1.
<mgrwt>
<rscale>  2 0.40707809E+03</rscale>
<asrwt>0</asrwt>
<pdfrwt beam="1">  1       21 0.11750499E+00 0.40707809E+03</pdfrwt>
<pdfrwt beam="2">  1       21 0.45130846E-01 0.40707809E+03</pdfrwt>
<totfact> 0.22995124E+03</totfact>
</mgrwt>
</event>
<event>
 4    1  0.4897983E-002  0.4693371E+03  0.7818608E-02  0.1022107E+00
         21   -1    0    0  503  502  0.00000000000E+00  0.00000000000E+00  0.33992856531E+03  0.33992856531E+03  0.00000000000E+00 0. -1.
         21   -1    0    0  501  503 -0.00000000000E+00 -0.00000000000E+00 -0.12962498824E+04  0.12962498824E+04  0.00000000000E+00 0. -1.
    9000007    1    1    2  501    0  0.24439731653E+03 -0.23393705848E+02 -0.10566881208E+04  0.11562296910E+04  0.40000000000E+03 0. -1.
   -9000007    1    1    2    0  502 -0.24439731653E+03  0.23393705848E+02  0.10036680365E+03  0.47994875672E+03  0.40000000000E+03 0. -1.
<mgrwt>
<rscale>  2 0.46933710E+03</rscale>
<asrwt>0</asrwt>
<pdfrwt beam="1">  1       21 0.52296702E-01 0.46933710E+03</pdfrwt>
<pdfrwt beam="2">  1       21 0.19942306E+00 0.46933710E+03</pdfrwt>
<totfact> 0.38114465E+02</totfact>
</mgrwt>
</event>
<event>
 4    1  0.4897983E-002  0.4302327E+03  0.7818608E-02  0.1033786E+00
         21   -1    0    0  501  502  0.00000000000E+00  0.00000000000E+00  0.14671258390E+04  0.14671258390E+04  0.00000000000E+00 0.  1.
         21   -1    0    0  502  503 -0.00000000000E+00 -0.00000000000E+00 -0.37945758667E+03  0.37945758667E+03  0.00000000000E+00 0.  1.
    9000007    1    1    2  501    0 -0.39525875592E+02  0.15342048821E+03  0.12981763790E+04  0.13676118060E+04  0.40000000000E+03 0.  1.
   -9000007    1    1    2    0  503  0.39525875592E+02 -0.15342048821E+03 -0.21050812665E+03  0.47897161965E+03  0.40000000000E+03 0.  1.
<mgrwt>
<rscale>  2 0.43023266E+03</rscale>
<asrwt>0</asrwt>
<pdfrwt beam="1">  1       21 0.22571166E+00 0.43023266E+03</pdfrwt>
<pdfrwt beam="2">  1       21 0.58378091E-01 0.43023266E+03</pdfrwt>
<totfact> 0.20711126E+02</totfact>
</mgrwt>
</event>
<event>
 4    1  0.4897983E-002  0.4256469E+03  0.7818608E-02  0.1035244E+00
         21   -1    0    0  501  502  0.00000000000E+00  0.00000000000E+00  0.61383146124E+03  0.61383146124E+03  0.00000000000E+00 0. -1.
         21   -1    0    0  502  503 -0.00000000000E+00 -0.00000000000E+00 -0.52564639771E+03  0.52564639771E+03  0.00000000000E+00 0. -1.
    9000007    1    1    2  501    0 -0.10467856496E+03  0.10108239712E+03  0.42136635542E+03  0.59893643941E+03  0.40000000000E+03 0. -1.
   -9000007    1    1    2    0  503  0.10467856496E+03 -0.10108239712E+03 -0.33318129190E+03  0.54054141954E+03  0.40000000000E+03 0. -1.
<mgrwt>
<rscale>  2 0.42564686E+03</rscale>
<asrwt>0</asrwt>
<pdfrwt beam="1">  1       21 0.94435609E-01 0.42564686E+03</pdfrwt>
<pdfrwt beam="2">  1       21 0.80868677E-01 0.42564686E+03</pdfrwt>
<totfact> 0.10847824E+03</totfact>
</mgrwt>
</event>
<event>
 4    1  0.4897983E-002  0.4170802E+03  0.7818608E-02  0.1038021E+00
         21   -1    0    0  503  502  0.00000000000E+00  0.00000000000E+00  0.51013693284E+03  0.51013693284E+03  0.00000000000E+00 0.  1.
         21   -1    0    0  501  503 -0.00000000000E+00 -0.00000000000E+00 -0.52562496875E+03  0.52562496875E+03  0.00000000000E+00 0.  1.
    9000007    1    1    2  501    0  0.67362346754E+02 -0.97047394414E+02 -0.31467380039E+03  0.52247055723E+03  0.40000000000E+03 0. -1.
   -9000007    1    1    2    0  502 -0.67362346754E+02  0.97047394414E+02  0.29918576448E+03  0.51329134436E+03  0.40000000000E+03 0. -1.
<mgrwt>
<rscale>  2 0.41708019E+03</rscale>
<asrwt>0</asrwt>
<pdfrwt beam="1">  1       21 0.78482605E-01 0.41708019E+03</pdfrwt>
<pdfrwt beam="2">  1       21 0.80865380E-01 0.41708019E+03</pdfrwt>
<totfact> 0.16796322E+03</totfact>
</mgrwt>
</event>
<event>
 4    1  0.4897983E-002  0.4124349E+03  0.7818608E-02  0.1039557E+00
         21   -1    0    0  501  502  0.00000000000E+00  0.00000000000E+00  0.27996799273E+03  0.27996799273E+03  0.00000000000E+00 0.  1.
         21   -1    0    0  502  503 -0.00000000000E+00 -0.00000000000E+00 -0.64780911542E+03  0.64780911542E+03  0.00000000000E+00 0.  1.
    9000007    1    1    2  501    0  0.91873039710E+02  0.40766397539E+02 -0.68317841334E+02  0.41805487922E+03  0.40000000000E+03 0. -1.
   -9000007    1    1    2    0  503 -0.91873039710E+02 -0.40766397539E+02 -0.29952328136E+03  0.50972222893E+03  0.40000000000E+03 0. -1.
<mgrwt>
<rscale>  2 0.41243491E+03</rscale>
<asrwt>0</asrwt>
<pdfrwt beam="1">  1       21 0.43071999E-01 0.41243491E+03</pdfrwt>
<pdfrwt beam="2">  1       21 0.99662940E-01 0.41243491E+03</pdfrwt>
<totfact> 0.37970894E+03</totfact>
</mgrwt>
</event>
<event>
 4    1  0.4897983E-002  0.4037468E+03  0.7818608E-02  0.1042490E+00
         21   -1    0    0  501  502  0.00000000000E+00  0.00000000000E+00  0.30655382903E+04  0.30655382903E+04  0.00000000000E+00 0.  1.
         21   -1    0    0  502  503 -0.00000000000E+00 -0.00000000000E+00 -0.54099332477E+02  0.54099332477E+02  0.00000000000E+00 0.  1.
    9000007    1    1    2  501    0  0.51262194731E+02  0.19586743394E+02  0.17095554429E+04  0.17565851148E+04  0.40000000000E+03 0.  1.
   -9000007    1    1    2    0  503 -0.51262194731E+02 -0.19586743394E+02  0.13018835150E+04  0.13630525080E+04  0.40000000000E+03 0.  1.
<mgrwt>
<rscale>  2 0.40374677E+03</rscale>
<asrwt>0</asrwt>
<pdfrwt beam="1">  1       21 0.47162114E+00 0.40374677E+03</pdfrwt>
<pdfrwt beam="2">  1       21 0.83229766E-02 0.40374677E+03</pdfrwt>
<totfact> 0.26250350E+02</totfact>
</mgrwt>
</event>
<event>
 4    1  0.4897983E-002  0.5915209E+03  0.7818608E-02  0.9923155E-01
         21   -1    0    0  501  502  0.00000000000E+00  0.00000000000E+00  0.51952276297E+03  0.51952276297E+03  0.00000000000E+00 0.  1.
         21   -1    0    0  502  503 -0.00000000000E+00 -0.00000000000E+00 -0.20565230932E+04  0.20565230932E+04  0.00000000000E+00 0.  1.
    9000007    1    1    2  501    0 -0.76343299907E+02 -0.42903222220E+03  0.28776269190E+03  0.65780264060E+03  0.40000000000E+03 0.  1.
   -9000007    1    1    2    0  503  0.76343299907E+02  0.42903222220E+03 -0.18247630221E+04  0.19182432155E+04  0.40000000000E+03 0.  1.
<mgrwt>
<rscale>  2 0.59152088E+03</rscale>
<asrwt>0</asrwt>
<pdfrwt beam="1">  1       21 0.79926582E-01 0.59152088E+03</pdfrwt>
<pdfrwt beam="2">  1       21 0.31638816E+00 0.59152088E+03</pdfrwt>
<totfact> 0.25980094E+01</totfact>
</mgrwt>
</event>
<event>
 4    1  0.4897983E-002  0.5385755E+03  0.7818608E-02  0.1004173E+00
         21   -1    0    0  503  502  0.00000000000E+00  0.00000000000E+00  0.10292689394E+04  0.10292689394E+04  0.00000000000E+00 0.  1.
         21   -1    0    0  501  503 -0.00000000000E+00 -0.00000000000E+00 -0.29264327377E+03  0.29264327377E+03  0.00000000000E+00 0. -1.
    9000007    1    1    2  501    0  0.25525097850E+03  0.25477539725E+03  0.24117340482E+03  0.59010861396E+03  0.40000000000E+03 0. -1.
   -9000007    1    1    2    0  502 -0.25525097850E+03 -0.25477539725E+03  0.49545226077E+03  0.73180359918E+03  0.40000000000E+03 0.  1.
<mgrwt>
<rscale>  2 0.53857550E+03</rscale>
<asrwt>0</asrwt>
<pdfrwt beam="1">  1       21 0.15834907E+00 0.53857550E+03</pdfrwt>
<pdfrwt beam="2">  1       21 0.45022043E-01 0.53857550E+03</pdfrwt>
<totfact> 0.99853244E+02</totfact>
</mgrwt>
</event>
<event>
 4    1  0.4897983E-002  0.5132344E+03  0.7818608E-02  0.1010381E+00
         21   -1    0    0  503  502  0.00000000000E+00  0.00000000000E+00  0.32001439688E+03  0.32001439688E+03  0.00000000000E+00 0. -1.
         21   -1    0    0  501  503 -0.00000000000E+00 -0.00000000000E+00 -0.86645212607E+03  0.86645212607E+03  0.00000000000E+00 0.  1.
    9000007    1    1    2  501    0 -0.20610071389E+03  0.24684415131E+03 -0.40588782949E+03  0.65433513541E+03  0.40000000000E+03 0. -1.
   -9000007    1    1    2    0  502  0.20610071389E+03 -0.24684415131E+03 -0.14054989969E+03  0.53213138754E+03  0.40000000000E+03 0. -1.
<mgrwt>
<rscale>  2 0.51323439E+03</rscale>
<asrwt>0</asrwt>
<pdfrwt beam="1">  1       21 0.49232984E-01 0.51323439E+03</pdfrwt>
<pdfrwt beam="2">  1       21 0.13330033E+00 0.51323439E+03</pdfrwt>
<totfact> 0.13284208E+03</totfact>
</mgrwt>
</event>
<event>
 4    1  0.4897983E-002  0.4155580E+03  0.7818608E-02  0.1038522E+00
         21   -1    0    0  503  502  0.00000000000E+00  0.00000000000E+00  0.10474817136E+04  0.10474817136E+04  0.00000000000E+00 0. -1.
         21   -1    0    0  501  503 -0.00000000000E+00 -0.00000000000E+00 -0.36140084574E+03  0.36140084574E+03  0.00000000000E+00 0. -1.
    9000007    1    1    2  501    0  0.90817565001E+02  0.66637893137E+02 -0.17644812673E+03  0.45146692054E+03  0.40000000000E+03 0. -1.
   -9000007    1    1    2    0  502 -0.90817565001E+02 -0.66637893137E+02  0.86252899458E+03  0.95741563879E+03  0.40000000000E+03 0. -1.
<mgrwt>
<rscale>  2 0.41555799E+03</rscale>
<asrwt>0</asrwt>
<pdfrwt beam="1">  1       21 0.16115103E+00 0.41555799E+03</pdfrwt>
<pdfrwt beam="2">  1       21 0.55600131E-01 0.41555799E+03</pdfrwt>
<totfact> 0.63872185E+02</totfact>
</mgrwt>
</event>
<event>
 4    1  0.4897983E-002  0.4899825E+03  0.7818608E-02  0.1016427E+00
         21   -1    0    0  503  502  0.00000000000E+00  0.00000000000E+00  0.31126411906E+03  0.31126411906E+03  0.00000000000E+00 0.  1.
         21   -1    0    0  501  503 -0.00000000000E+00 -0.00000000000E+00 -0.82118693785E+03  0.82118693785E+03  0.00000000000E+00 0. -1.
    9000007    1    1    2  501    0 -0.15557995469E+03  0.23638472442E+03 -0.11542289792E+03  0.50339378781E+03  0.40000000000E+03 0.  1.
   -9000007    1    1    2    0  502  0.15557995469E+03 -0.23638472442E+03 -0.39449992088E+03  0.62905726910E+03  0.40000000000E+03 0. -1.
<mgrwt>
<rscale>  2 0.48998251E+03</rscale>
<asrwt>0</asrwt>
<pdfrwt beam="1">  1       21 0.47886789E-01 0.48998251E+03</pdfrwt>
<pdfrwt beam="2">  1       21 0.12633645E+00 0.48998251E+03</pdfrwt>
<totfact> 0.16334853E+03</totfact>
</mgrwt>
</event>
<event>
 4    1  0.4897983E-002  0.4693403E+03  0.7818608E-02  0.1022107E+00
         21   -1    0    0  503  502  0.00000000000E+00  0.00000000000E+00  0.10559697550E+04  0.10559697550E+04  0.00000000000E+00 0. -1.
         21   -1    0    0  501  503 -0.00000000000E+00 -0.00000000000E+00 -0.43307364259E+03  0.43307364259E+03  0.00000000000E+00 0. -1.
    9000007    1    1    2  501    0  0.97529553741E+02 -0.22531820064E+03 -0.22456401025E+03  0.52029731893E+03  0.40000000000E+03 0. -1.
   -9000007    1    1    2    0  502 -0.97529553741E+02  0.22531820064E+03  0.84746012264E+03  0.96874607862E+03  0.40000000000E+03 0. -1.
<mgrwt>
<rscale>  2 0.46934029E+03</rscale>
<asrwt>0</asrwt>
<pdfrwt beam="1">  1       21 0.16245688E+00 0.46934029E+03</pdfrwt>
<pdfrwt beam="2">  1       21 0.66626714E-01 0.46934029E+03</pdfrwt>
<totfact> 0.40908821E+02</totfact>
</mgrwt>
</event>
<event>
 4    1  0.4897983E-002  0.5118964E+03  0.7818608E-02  0.1010720E+00
         21   -1    0    0  503  502  0.00000000000E+00  0.00000000000E+00  0.38500729954E+03  0.38500729954E+03  0.00000000000E+00 0.  1.
         21   -1    0    0  501  503 -0.00000000000E+00 -0.00000000000E+00 -0.74954367553E+03  0.74954367553E+03  0.00000000000E+00 0.  1.
    9000007    1    1    2  501    0  0.24960153593E+03  0.19934152654E+03 -0.35430697688E+03  0.62255233098E+03  0.40000000000E+03 0.  1.
   -9000007    1    1    2    0  502 -0.24960153593E+03 -0.19934152654E+03 -0.10229399116E+02  0.51199864409E+03  0.40000000000E+03 0.  1.
<mgrwt>
<rscale>  2 0.51189645E+03</rscale>
<asrwt>0</asrwt>
<pdfrwt beam="1">  1       21 0.59231893E-01 0.51189645E+03</pdfrwt>
<pdfrwt beam="2">  1       21 0.11531441E+00 0.51189645E+03</pdfrwt>
<totfact> 0.12944018E+03</totfact>
</mgrwt>
</event>
<event>
 4    1  0.4897983E-002  0.5180114E+03  0.7818608E-02  0.1009182E+00
         21   -1    0    0  503  502  0.00000000000E+00  0.00000000000E+00  0.50488593745E+03  0.50488593745E+03  0.00000000000E+00 0. -1.
         21   -1    0    0  501  503 -0.00000000000E+00 -0.00000000000E+00 -0.64245072292E+03  0.64245072292E+03  0.00000000000E+00 0.  1.
    9000007    1    1    2  501    0 -0.29487711748E+03  0.14623024727E+03 -0.30720584031E+03  0.60225511866E+03  0.40000000000E+03 0.  1.
   -9000007    1    1    2    0  502  0.29487711748E+03 -0.14623024727E+03  0.16964105485E+03  0.54508154171E+03  0.40000000000E+03 0. -1.
<mgrwt>
<rscale>  2 0.51801139E+03</rscale>
<asrwt>0</asrwt>
<pdfrwt beam="1">  1       21 0.77674760E-01 0.51801139E+03</pdfrwt>
<pdfrwt beam="2">  1       21 0.98838572E-01 0.51801139E+03</pdfrwt>
<totfact> 0.10289598E+03</totfact>
</mgrwt>
</event>
<event>
 4    1  0.4897983E-002  0.4677233E+03  0.7818608E-02  0.1022565E+00
         21   -1    0    0  501  502  0.00000000000E+00  0.00000000000E+00  0.16692303686E+04  0.16692303686E+04  0.00000000000E+00 0.  1.
         21   -1    0    0  502  503 -0.00000000000E+00 -0.00000000000E+00 -0.21170709296E+03  0.21170709296E+03  0.00000000000E+00 0.  1.
    9000007    1    1    2  501    0 -0.22647307740E+03 -0.86458146537E+02  0.13092291209E+04  0.13902683040E+04  0.40000000000E+03 0.  1.
   -9000007    1    1    2    0  503  0.22647307740E+03  0.86458146537E+02  0.14829415468E+03  0.49066915758E+03  0.40000000000E+03 0.  1.
<mgrwt>
<rscale>  2 0.46772328E+03</rscale>
<asrwt>0</asrwt>
<pdfrwt beam="1">  1       21 0.25680466E+00 0.46772328E+03</pdfrwt>
<pdfrwt beam="2">  1       21 0.32570323E-01 0.46772328E+03</pdfrwt>
<totfact> 0.43988174E+02</totfact>
</mgrwt>
</event>
<event>
 4    1  0.4897983E-002  0.4574789E+03  0.7818608E-02  0.1025515E+00
         21   -1    0    0  501  502  0.00000000000E+00  0.00000000000E+00  0.56541184515E+03  0.56541184515E+03  0.00000000000E+00 0. -1.
         21   -1    0    0  502  503 -0.00000000000E+00 -0.00000000000E+00 -0.38671372854E+03  0.38671372854E+03  0.00000000000E+00 0. -1.
    9000007    1    1    2  501    0 -0.19882732333E+03  0.98765476643E+02 -0.91778297460E+01  0.45757093050E+03  0.40000000000E+03 0.  1.
   -9000007    1    1    2    0  503  0.19882732333E+03 -0.98765476643E+02  0.18787594636E+03  0.49455464319E+03  0.40000000000E+03 0.  1.
<mgrwt>
<rscale>  2 0.45747888E+03</rscale>
<asrwt>0</asrwt>
<pdfrwt beam="1">  1       21 0.86986438E-01 0.45747888E+03</pdfrwt>
<pdfrwt beam="2">  1       21 0.59494420E-01 0.45747888E+03</pdfrwt>
<totfact> 0.25956722E+03</totfact>
</mgrwt>
</event>
<event>
 4    1  0.4897983E-002  0.5309702E+03  0.7818608E-02  0.1005997E+00
         21   -1    0    0  501  502  0.00000000000E+00  0.00000000000E+00  0.67974904184E+03  0.67974904184E+03  0.00000000000E+00 0. -1.
         21   -1    0    0  502  503 -0.00000000000E+00 -0.00000000000E+00 -0.41728824775E+03  0.41728824775E+03  0.00000000000E+00 0.  1.
    9000007    1    1    2  501    0  0.31743107701E+03  0.14548829380E+03  0.17396796705E+03  0.55874339893E+03  0.40000000000E+03 0. -1.
   -9000007    1    1    2    0  503 -0.31743107701E+03 -0.14548829380E+03  0.88492827037E+02  0.53829389066E+03  0.40000000000E+03 0.  1.
<mgrwt>
<rscale>  2 0.53097018E+03</rscale>
<asrwt>0</asrwt>
<pdfrwt beam="1">  1       21 0.10457678E+00 0.53097018E+03</pdfrwt>
<pdfrwt beam="2">  1       21 0.64198192E-01 0.53097018E+03</pdfrwt>
<totfact> 0.13731909E+03</totfact>
</mgrwt>
</event>
<event>
 4    1  0.4897983E-002  0.4243047E+03  0.7818608E-02  0.1035674E+00
         21   -1    0    0  501  502  0.00000000000E+00  0.00000000000E+00  0.14556470022E+04  0.14556470022E+04  0.00000000000E+00 0.  1.
         21   -1    0    0  502  503 -0.00000000000E+00 -0.00000000000E+00 -0.48588836911E+03  0.48588836911E+03  0.00000000000E+00 0.  1.
    9000007    1    1    2  501    0 -0.13903018397E+03  0.26554246848E+02  0.13230380206E+04  0.13894114308E+04  0.40000000000E+03 0.  1.
   -9000007    1    1    2    0  503  0.13903018397E+03 -0.26554246848E+02 -0.35327938749E+03  0.55212394053E+03  0.40000000000E+03 0.  1.
<mgrwt>
<rscale>  2 0.42430475E+03</rscale>
<asrwt>0</asrwt>
<pdfrwt beam="1">  1       21 0.22394569E+00 0.42430475E+03</pdfrwt>
<pdfrwt beam="2">  1       21 0.74752057E-01 0.42430475E+03</pdfrwt>
<totfact> 0.12297425E+02</totfact>
</mgrwt>
</event>
<event>
 4    1  0.4897983E-002  0.4321444E+03  0.7818608E-02  0.1033185E+00
         21   -1    0    0  503  502  0.00000000000E+00  0.00000000000E+00  0.17736947570E+04  0.17736947570E+04  0.00000000000E+00 0. -1.
         21   -1    0    0  501  503 -0.00000000000E+00 -0.00000000000E+00 -0.14518484262E+03  0.14518484262E+03  0.00000000000E+00 0.  1.
    9000007    1    1    2  501    0 -0.24667488008E+01  0.16353196657E+03  0.31130322569E+03  0.53259598878E+03  0.40000000000E+03 0.  1.
   -9000007    1    1    2    0  502  0.24667488008E+01 -0.16353196657E+03  0.13172066886E+04  0.13862836108E+04  0.40000000000E+03 0. -1.
<mgrwt>
<rscale>  2 0.43214441E+03</rscale>
<asrwt>0</asrwt>
<pdfrwt beam="1">  1       21 0.27287610E+00 0.43214441E+03</pdfrwt>
<pdfrwt beam="2">  1       21 0.22336131E-01 0.43214441E+03</pdfrwt>
<totfact> 0.75101797E+02</totfact>
</mgrwt>
</event>
<event>
 4    1  0.4897983E-002  0.4948057E+03  0.7818608E-02  0.1015144E+00
         21   -1    0    0  503  502  0.00000000000E+00  0.00000000000E+00  0.92064778499E+03  0.92064778499E+03  0.00000000000E+00 0.  1.
         21   -1    0    0  501  503 -0.00000000000E+00 -0.00000000000E+00 -0.27141838679E+03  0.27141838679E+03  0.00000000000E+00 0. -1.
    9000007    1    1    2  501    0 -0.14480938843E+03  0.25271123681E+03  0.23989897744E+03  0.54989476045E+03  0.40000000000E+03 0. -1.
   -9000007    1    1    2    0  502  0.14480938843E+03 -0.25271123681E+03  0.40933042075E+03  0.64217141134E+03  0.40000000000E+03 0. -1.
<mgrwt>
<rscale>  2 0.49480575E+03</rscale>
<asrwt>0</asrwt>
<pdfrwt beam="1">  1       21 0.14163812E+00 0.49480575E+03</pdfrwt>
<pdfrwt beam="2">  1       21 0.41756675E-01 0.49480575E+03</pdfrwt>
<totfact> 0.16095956E+03</totfact>
</mgrwt>
</event>
<event>
 4    1  0.4897983E-002  0.4765585E+03  0.7818608E-02  0.1020085E+00
         21   -1    0    0  501  502  0.00000000000E+00  0.00000000000E+00  0.14977654475E+04  0.14977654475E+04  0.00000000000E+00 0. -1.
         21   -1    0    0  502  503 -0.00000000000E+00 -0.00000000000E+00 -0.18119168401E+03  0.18119168401E+03  0.00000000000E+00 0. -1.
    9000007    1    1    2  501    0 -0.15250618206E+03  0.20940351951E+03  0.99736226727E+03  0.11053684733E+04  0.40000000000E+03 0. -1.
   -9000007    1    1    2    0  503  0.15250618206E+03 -0.20940351951E+03  0.31921149627E+03  0.57358865827E+03  0.40000000000E+03 0. -1.
<mgrwt>
<rscale>  2 0.47655846E+03</rscale>
<asrwt>0</asrwt>
<pdfrwt beam="1">  1       21 0.23042545E+00 0.47655846E+03</pdfrwt>
<pdfrwt beam="2">  1       21 0.27875645E-01 0.47655846E+03</pdfrwt>
<totfact> 0.87007962E+02</totfact>
</mgrwt>
</event>
<event>
 4    1  0.4897983E-002  0.4682014E+03  0.7818608E-02  0.1022429E+00
         21   -1    0    0  501  502  0.00000000000E+00  0.00000000000E+00  0.53621589813E+03  0.53621589813E+03  0.00000000000E+00 0. -1.
         21   -1    0    0  502  503 -0.00000000000E+00 -0.00000000000E+00 -0.40927752359E+03  0.40927752359E+03  0.00000000000E+00 0. -1.
    9000007    1    1    2  501    0  0.24323258399E+03 -0.71007779261E+01  0.47557958269E+02  0.47061052937E+03  0.40000000000E+03 0. -1.
   -9000007    1    1    2    0  503 -0.24323258399E+03  0.71007779261E+01  0.79380416271E+02  0.47488289235E+03  0.40000000000E+03 0. -1.
<mgrwt>
<rscale>  2 0.46820136E+03</rscale>
<asrwt>0</asrwt>
<pdfrwt beam="1">  1       21 0.82494753E-01 0.46820136E+03</pdfrwt>
<pdfrwt beam="2">  1       21 0.62965773E-01 0.46820136E+03</pdfrwt>
<totfact> 0.25839513E+03</totfact>
</mgrwt>
</event>
<event>
 4    1  0.4897983E-002  0.4468443E+03  0.7818608E-02  0.1028667E+00
         21   -1    0    0  501  502  0.00000000000E+00  0.00000000000E+00  0.60910496588E+03  0.60910496588E+03  0.00000000000E+00 0. -1.
         21   -1    0    0  502  503 -0.00000000000E+00 -0.00000000000E+00 -0.32855811546E+03  0.32855811546E+03  0.00000000000E+00 0. -1.
    9000007    1    1    2  501    0  0.19035508296E+03  0.58606930791E+02  0.16266624110E+03  0.47553142477E+03  0.40000000000E+03 0.  1.
   -9000007    1    1    2    0  503 -0.19035508296E+03 -0.58606930791E+02  0.11788060932E+03  0.46213165657E+03  0.40000000000E+03 0.  1.
<mgrwt>
<rscale>  2 0.44684430E+03</rscale>
<asrwt>0</asrwt>
<pdfrwt beam="1">  1       21 0.93708456E-01 0.44684430E+03</pdfrwt>
<pdfrwt beam="2">  1       21 0.50547402E-01 0.44684430E+03</pdfrwt>
<totfact> 0.31049635E+03</totfact>
</mgrwt>
</event>
<event>
 4    1  0.4897983E-002  0.5404722E+03  0.7818608E-02  0.1003724E+00
         21   -1    0    0  501  502  0.00000000000E+00  0.00000000000E+00  0.36873808817E+03  0.36873808817E+03  0.00000000000E+00 0. -1.
         21   -1    0    0  502  503 -0.00000000000E+00 -0.00000000000E+00 -0.93349058394E+03  0.93349058394E+03  0.00000000000E+00 0. -1.
    9000007    1    1    2  501    0  0.32896857035E+03 -0.15456360244E+03 -0.29052487411E+02  0.54125250531E+03  0.40000000000E+03 0. -1.
   -9000007    1    1    2    0  503 -0.32896857035E+03  0.15456360244E+03 -0.53570000836E+03  0.76097616680E+03  0.40000000000E+03 0. -1.
<mgrwt>
<rscale>  2 0.54047223E+03</rscale>
<asrwt>0</asrwt>
<pdfrwt beam="1">  1       21 0.56728936E-01 0.54047223E+03</pdfrwt>
<pdfrwt beam="2">  1       21 0.14361394E+00 0.54047223E+03</pdfrwt>
<totfact> 0.79528901E+02</totfact>
</mgrwt>
</event>
<event>
 4    1  0.4897983E-002  0.7219489E+03  0.7818608E-02  0.9680416E-01
         21   -1    0    0  503  502  0.00000000000E+00  0.00000000000E+00  0.80339046388E+03  0.80339046388E+03  0.00000000000E+00 0.  1.
         21   -1    0    0  501  503 -0.00000000000E+00 -0.00000000000E+00 -0.64980458332E+03  0.64980458332E+03  0.00000000000E+00 0.  1.
    9000007    1    1    2  501    0  0.27630428112E+02  0.60037217242E+03  0.10588022773E+03  0.72967171289E+03  0.40000000000E+03 0.  1.
   -9000007    1    1    2    0  502 -0.27630428112E+02 -0.60037217242E+03  0.47705652822E+02  0.72352333431E+03  0.40000000000E+03 0.  1.
<mgrwt>
<rscale>  2 0.72194888E+03</rscale>
<asrwt>0</asrwt>
<pdfrwt beam="1">  1       21 0.12359853E+00 0.72194888E+03</pdfrwt>
<pdfrwt beam="2">  1       21 0.99969935E-01 0.72194888E+03</pdfrwt>
<totfact> 0.30209930E+02</totfact>
</mgrwt>
</event>
<event>
 4    1  0.4897983E-002  0.4092192E+03  0.7818608E-02  0.1040633E+00
         21   -1    0    0  503  502  0.00000000000E+00  0.00000000000E+00  0.24445922996E+03  0.24445922996E+03  0.00000000000E+00 0.  1.
         21   -1    0    0  501  503 -0.00000000000E+00 -0.00000000000E+00 -0.74149900310E+03  0.74149900310E+03  0.00000000000E+00 0.  1.
    9000007    1    1    2  501    0  0.44571436802E+02 -0.73984786058E+02 -0.11246861818E+03  0.42439315690E+03  0.40000000000E+03 0.  1.
   -9000007    1    1    2    0  502 -0.44571436802E+02  0.73984786058E+02 -0.38457115496E+03  0.56156507617E+03  0.40000000000E+03 0.  1.
<mgrwt>
<rscale>  2 0.40921921E+03</rscale>
<asrwt>0</asrwt>
<pdfrwt beam="1">  1       21 0.37609113E-01 0.40921921E+03</pdfrwt>
<pdfrwt beam="2">  1       21 0.11407677E+00 0.40921921E+03</pdfrwt>
<totfact> 0.36044334E+03</totfact>
</mgrwt>
</event>
<event>
 4    1  0.4897983E-002  0.4568235E+03  0.7818608E-02  0.1025707E+00
         21   -1    0    0  501  502  0.00000000000E+00  0.00000000000E+00  0.32204467379E+03  0.32204467379E+03  0.00000000000E+00 0. -1.
         21   -1    0    0  502  503 -0.00000000000E+00 -0.00000000000E+00 -0.82859034985E+03  0.82859034985E+03  0.00000000000E+00 0.  1.
    9000007    1    1    2  501    0 -0.13972734967E+03  0.17077455538E+03 -0.52185349103E+03  0.69355515073E+03  0.40000000000E+03 0.  1.
   -9000007    1    1    2    0  503  0.13972734967E+03 -0.17077455538E+03  0.15307814961E+02  0.45707987290E+03  0.40000000000E+03 0. -1.
<mgrwt>
<rscale>  2 0.45682347E+03</rscale>
<asrwt>0</asrwt>
<pdfrwt beam="1">  1       21 0.49545335E-01 0.45682347E+03</pdfrwt>
<pdfrwt beam="2">  1       21 0.12747544E+00 0.45682347E+03</pdfrwt>
<totfact> 0.15036397E+03</totfact>
</mgrwt>
</event>
<event>
 4    1  0.4897983E-002  0.4748200E+03  0.7818608E-02  0.1020569E+00
         21   -1    0    0  503  502  0.00000000000E+00  0.00000000000E+00  0.58661543515E+03  0.58661543515E+03  0.00000000000E+00 0. -1.
         21   -1    0    0  501  503 -0.00000000000E+00 -0.00000000000E+00 -0.77280259674E+03  0.77280259674E+03  0.00000000000E+00 0. -1.
    9000007    1    1    2  501    0 -0.22707265330E+03 -0.11786457407E+03 -0.57500676461E+03  0.74571229509E+03  0.40000000000E+03 0. -1.
   -9000007    1    1    2    0  502  0.22707265330E+03  0.11786457407E+03  0.38881960302E+03  0.61370573681E+03  0.40000000000E+03 0. -1.
<mgrwt>
<rscale>  2 0.47482002E+03</rscale>
<asrwt>0</asrwt>
<pdfrwt beam="1">  1       21 0.90248529E-01 0.47482002E+03</pdfrwt>
<pdfrwt beam="2">  1       21 0.11889271E+00 0.47482002E+03</pdfrwt>
<totfact> 0.46592326E+02</totfact>
</mgrwt>
</event>
<event>
 4    1  0.4897983E-002  0.4090592E+03  0.7818608E-02  0.1040687E+00
         21   -1    0    0  503  502  0.00000000000E+00  0.00000000000E+00  0.11641544807E+04  0.11641544807E+04  0.00000000000E+00 0.  1.
         21   -1    0    0  501  503 -0.00000000000E+00 -0.00000000000E+00 -0.23979116639E+03  0.23979116639E+03  0.00000000000E+00 0.  1.
    9000007    1    1    2  501    0  0.20101127574E+02 -0.83218946073E+02  0.17891278357E+02  0.40945029754E+03  0.40000000000E+03 0.  1.
   -9000007    1    1    2    0  502 -0.20101127574E+02  0.83218946073E+02  0.90647203598E+03  0.99449534958E+03  0.40000000000E+03 0.  1.
<mgrwt>
<rscale>  2 0.40905922E+03</rscale>
<asrwt>0</asrwt>
<pdfrwt beam="1">  1       21 0.17910069E+00 0.40905922E+03</pdfrwt>
<pdfrwt beam="2">  1       21 0.36890949E-01 0.40905922E+03</pdfrwt>
<totfact> 0.11204090E+03</totfact>
</mgrwt>
</event>
<event>
 4    1  0.4897983E-002  0.4196857E+03  0.7818608E-02  0.1037169E+00
         21   -1    0    0  501  502  0.00000000000E+00  0.00000000000E+00  0.13278498104E+04  0.13278498104E+04  0.00000000000E+00 0.  1.
         21   -1    0    0  502  503 -0.00000000000E+00 -0.00000000000E+00 -0.83727095880E+03  0.83727095880E+03  0.00000000000E+00 0.  1.
    9000007    1    1    2  501    0  0.40115523187E+02 -0.12052730545E+03  0.12384000675E+04  0.13075820485E+04  0.40000000000E+03 0.  1.
   -9000007    1    1    2    0  503 -0.40115523187E+02  0.12052730545E+03 -0.74782121586E+03  0.85753872067E+03  0.40000000000E+03 0.  1.
<mgrwt>
<rscale>  2 0.41968570E+03</rscale>
<asrwt>0</asrwt>
<pdfrwt beam="1">  1       21 0.20428459E+00 0.41968570E+03</pdfrwt>
<pdfrwt beam="2">  1       21 0.12881092E+00 0.41968570E+03</pdfrwt>
<totfact> 0.44307171E+01</totfact>
</mgrwt>
</event>
<event>
 4    1  0.4897983E-002  0.4002460E+03  0.7818608E-02  0.1043695E+00
         21   -1    0    0  501  502  0.00000000000E+00  0.00000000000E+00  0.85706590375E+03  0.85706590375E+03  0.00000000000E+00 0. -1.
         21   -1    0    0  502  503 -0.00000000000E+00 -0.00000000000E+00 -0.30814561690E+03  0.30814561690E+03  0.00000000000E+00 0. -1.
    9000007    1    1    2  501    0 -0.13280455854E+02  0.45299696543E+01  0.63989186278E+03  0.75475723725E+03  0.40000000000E+03 0. -1.
   -9000007    1    1    2    0  503  0.13280455854E+02 -0.45299696543E+01 -0.90971575928E+02  0.41045428340E+03  0.40000000000E+03 0. -1.
<mgrwt>
<rscale>  2 0.40024604E+03</rscale>
<asrwt>0</asrwt>
<pdfrwt beam="1">  1       21 0.13185629E+00 0.40024604E+03</pdfrwt>
<pdfrwt beam="2">  1       21 0.47407018E-01 0.40024604E+03</pdfrwt>
<totfact> 0.15489506E+03</totfact>
</mgrwt>
</event>
<event>
 4    1  0.4897983E-002  0.5447635E+03  0.7818608E-02  0.1002713E+00
         21   -1    0    0  501  502  0.00000000000E+00  0.00000000000E+00  0.38231122042E+03  0.38231122042E+03  0.00000000000E+00 0. -1.
         21   -1    0    0  502  503 -0.00000000000E+00 -0.00000000000E+00 -0.11723624153E+04  0.11723624153E+04  0.00000000000E+00 0. -1.
    9000007    1    1    2  501    0  0.49221846690E+02 -0.36653026412E+03  0.56820139581E+02  0.54771868050E+03  0.40000000000E+03 0. -1.
   -9000007    1    1    2    0  503 -0.49221846690E+02  0.36653026412E+03 -0.84687133448E+03  0.10069549552E+04  0.40000000000E+03 0. -1.
<mgrwt>
<rscale>  2 0.54476346E+03</rscale>
<asrwt>0</asrwt>
<pdfrwt beam="1">  1       21 0.58817111E-01 0.54476346E+03</pdfrwt>
<pdfrwt beam="2">  1       21 0.18036345E+00 0.54476346E+03</pdfrwt>
<totfact> 0.38662095E+02</totfact>
</mgrwt>
</event>
<event>
 4    1  0.4897983E-002  0.4512379E+03  0.7818608E-02  0.1027354E+00
         21   -1    0    0  501  502  0.00000000000E+00  0.00000000000E+00  0.41909591046E+03  0.41909591046E+03  0.00000000000E+00 0.  1.
         21   -1    0    0  502  503 -0.00000000000E+00 -0.00000000000E+00 -0.75264109168E+03  0.75264109168E+03  0.00000000000E+00 0.  1.
    9000007    1    1    2  501    0 -0.98969174576E+02 -0.18390429502E+03  0.18204297006E+03  0.48657510231E+03  0.40000000000E+03 0.  1.
   -9000007    1    1    2    0  503  0.98969174576E+02  0.18390429502E+03 -0.51558815127E+03  0.68516189983E+03  0.40000000000E+03 0.  1.
<mgrwt>
<rscale>  2 0.45123795E+03</rscale>
<asrwt>0</asrwt>
<pdfrwt beam="1">  1       21 0.64476294E-01 0.45123795E+03</pdfrwt>
<pdfrwt beam="2">  1       21 0.11579094E+00 0.45123795E+03</pdfrwt>
<totfact> 0.10871957E+03</totfact>
</mgrwt>
</event>
<event>
 4    1  0.4897983E-002  0.4748270E+03  0.7818608E-02  0.1020567E+00
         21   -1    0    0  503  502  0.00000000000E+00  0.00000000000E+00  0.23250792645E+03  0.23250792645E+03  0.00000000000E+00 0.  1.
         21   -1    0    0  501  503 -0.00000000000E+00 -0.00000000000E+00 -0.11986936966E+04  0.11986936966E+04  0.00000000000E+00 0.  1.
    9000007    1    1    2  501    0  0.16567056673E+03  0.19497154158E+03 -0.79587207301E+03  0.92675401014E+03  0.40000000000E+03 0.  1.
   -9000007    1    1    2    0  502 -0.16567056673E+03 -0.19497154158E+03 -0.17031369710E+03  0.50444761287E+03  0.40000000000E+03 0.  1.
<mgrwt>
<rscale>  2 0.47482696E+03</rscale>
<asrwt>0</asrwt>
<pdfrwt beam="1">  1       21 0.35770451E-01 0.47482696E+03</pdfrwt>
<pdfrwt beam="2">  1       21 0.18441441E+00 0.47482696E+03</pdfrwt>
<totfact> 0.10628544E+03</totfact>
</mgrwt>
</event>
<event>
 4    1  0.4897983E-002  0.4312294E+03  0.7818608E-02  0.1033472E+00
         21   -1    0    0  501  502  0.00000000000E+00  0.00000000000E+00  0.29215817644E+03  0.29215817644E+03  0.00000000000E+00 0.  1.
         21   -1    0    0  502  503 -0.00000000000E+00 -0.00000000000E+00 -0.67466730433E+03  0.67466730433E+03  0.00000000000E+00 0.  1.
    9000007    1    1    2  501    0  0.15543721367E+03 -0.42403168359E+02 -0.76275833515E+02  0.43792323398E+03  0.40000000000E+03 0.  1.
   -9000007    1    1    2    0  503 -0.15543721367E+03  0.42403168359E+02 -0.30623329438E+03  0.52890224680E+03  0.40000000000E+03 0.  1.
<mgrwt>
<rscale>  2 0.43122935E+03</rscale>
<asrwt>0</asrwt>
<pdfrwt beam="1">  1       21 0.44947412E-01 0.43122935E+03</pdfrwt>
<pdfrwt beam="2">  1       21 0.10379497E+00 0.43122935E+03</pdfrwt>
<totfact> 0.31242728E+03</totfact>
</mgrwt>
</event>
<event>
 4    1  0.4897983E-002  0.5642130E+03  0.7818608E-02  0.9982567E-01
         21   -1    0    0  503  502  0.00000000000E+00  0.00000000000E+00  0.53379210621E+03  0.53379210621E+03  0.00000000000E+00 0.  1.
         21   -1    0    0  501  503 -0.00000000000E+00 -0.00000000000E+00 -0.63754975879E+03  0.63754975879E+03  0.00000000000E+00 0. -1.
    9000007    1    1    2  501    0 -0.10029220729E+03 -0.38506857302E+03 -0.20072957673E+03  0.59885615614E+03  0.40000000000E+03 0. -1.
   -9000007    1    1    2    0  502  0.10029220729E+03  0.38506857302E+03  0.96971924154E+02  0.57248570886E+03  0.40000000000E+03 0.  1.
<mgrwt>
<rscale>  2 0.56421302E+03</rscale>
<asrwt>0</asrwt>
<pdfrwt beam="1">  1       21 0.82121863E-01 0.56421302E+03</pdfrwt>
<pdfrwt beam="2">  1       21 0.98084578E-01 0.56421302E+03</pdfrwt>
<totfact> 0.90695170E+02</totfact>
</mgrwt>
</event>
<event>
 4    1  0.4897983E-002  0.5019032E+03  0.7818608E-02  0.1013283E+00
         21   -1    0    0  503  502  0.00000000000E+00  0.00000000000E+00  0.47036539624E+03  0.47036539624E+03  0.00000000000E+00 0.  1.
         21   -1    0    0  501  503 -0.00000000000E+00 -0.00000000000E+00 -0.60641321019E+03  0.60641321019E+03  0.00000000000E+00 0. -1.
    9000007    1    1    2  501    0  0.29852672409E+03  0.52807620391E+02 -0.25206091558E+03  0.56164183866E+03  0.40000000000E+03 0. -1.
   -9000007    1    1    2    0  502 -0.29852672409E+03 -0.52807620391E+02  0.11601310163E+03  0.51513676778E+03  0.40000000000E+03 0.  1.
<mgrwt>
<rscale>  2 0.50190323E+03</rscale>
<asrwt>0</asrwt>
<pdfrwt beam="1">  1       21 0.72363907E-01 0.50190323E+03</pdfrwt>
<pdfrwt beam="2">  1       21 0.93294340E-01 0.50190323E+03</pdfrwt>
<totfact> 0.13984238E+03</totfact>
</mgrwt>
</event>
<event>
 4    1  0.4897983E-002  0.4004298E+03  0.7818608E-02  0.1043631E+00
         21   -1    0    0  503  502  0.00000000000E+00  0.00000000000E+00  0.10042813660E+04  0.10042813660E+04  0.00000000000E+00 0. -1.
         21   -1    0    0  501  503 -0.00000000000E+00 -0.00000000000E+00 -0.17011958395E+03  0.17011958395E+03  0.00000000000E+00 0. -1.
    9000007    1    1    2  501    0  0.15747184809E+02 -0.98002012109E+01  0.56267943892E+03  0.69061723751E+03  0.40000000000E+03 0.  1.
   -9000007    1    1    2    0  502 -0.15747184809E+02  0.98002012109E+01  0.27148234313E+03  0.48378371242E+03  0.40000000000E+03 0.  1.
<mgrwt>
<rscale>  2 0.40042979E+03</rscale>
<asrwt>0</asrwt>
<pdfrwt beam="1">  1       21 0.15450482E+00 0.40042979E+03</pdfrwt>
<pdfrwt beam="2">  1       21 0.26172244E-01 0.40042979E+03</pdfrwt>
<totfact> 0.33781737E+03</totfact>
</mgrwt>
</event>
<event>
 4    1  0.4897983E-002  0.5268672E+03  0.7818608E-02  0.1006995E+00
         21   -1    0    0  501  502  0.00000000000E+00  0.00000000000E+00  0.51859392554E+03  0.51859392554E+03  0.00000000000E+00 0. -1.
         21   -1    0    0  502  503 -0.00000000000E+00 -0.00000000000E+00 -0.82231830523E+03  0.82231830523E+03  0.00000000000E+00 0.  1.
    9000007    1    1    2  501    0 -0.34019133510E+03 -0.43115521389E+02  0.24425705490E+03  0.58073281424E+03  0.40000000000E+03 0. -1.
   -9000007    1    1    2    0  503  0.34019133510E+03  0.43115521389E+02 -0.54798143459E+03  0.76017941653E+03  0.40000000000E+03 0.  1.
<mgrwt>
<rscale>  2 0.52686724E+03</rscale>
<asrwt>0</asrwt>
<pdfrwt beam="1">  1       21 0.79783681E-01 0.52686724E+03</pdfrwt>
<pdfrwt beam="2">  1       21 0.12651051E+00 0.52686724E+03</pdfrwt>
<totfact> 0.51929105E+02</totfact>
</mgrwt>
</event>
<event>
 4    1  0.4897983E-002  0.4306345E+03  0.7818608E-02  0.1033660E+00
         21   -1    0    0  503  502  0.00000000000E+00  0.00000000000E+00  0.12822803581E+04  0.12822803581E+04  0.00000000000E+00 0.  1.
         21   -1    0    0  501  503 -0.00000000000E+00 -0.00000000000E+00 -0.15404256968E+03  0.15404256968E+03  0.00000000000E+00 0.  1.
    9000007    1    1    2  501    0 -0.34587388006E+02 -0.15572338642E+03  0.74171699455E+03  0.85766552950E+03  0.40000000000E+03 0. -1.
   -9000007    1    1    2    0  502  0.34587388006E+02  0.15572338642E+03  0.38652079387E+03  0.57865739827E+03  0.40000000000E+03 0. -1.
<mgrwt>
<rscale>  2 0.43063449E+03</rscale>
<asrwt>0</asrwt>
<pdfrwt beam="1">  1       21 0.19727389E+00 0.43063449E+03</pdfrwt>
<pdfrwt beam="2">  1       21 0.23698858E-01 0.43063449E+03</pdfrwt>
<totfact> 0.20004040E+03</totfact>
</mgrwt>
</event>
<event>
 4    1  0.4897983E-002  0.5237579E+03  0.7818608E-02  0.1007757E+00
         21   -1    0    0  503  502  0.00000000000E+00  0.00000000000E+00  0.18906423284E+04  0.18906423284E+04  0.00000000000E+00 0.  1.
         21   -1    0    0  501  503 -0.00000000000E+00 -0.00000000000E+00 -0.40805002680E+03  0.40805002680E+03  0.00000000000E+00 0. -1.
    9000007    1    1    2  501    0  0.11636228595E+02 -0.33791551665E+03 -0.18134981238E+03  0.55426532695E+03  0.40000000000E+03 0. -1.
   -9000007    1    1    2    0  502 -0.11636228595E+02  0.33791551665E+03  0.16639421139E+04  0.17444270282E+04  0.40000000000E+03 0.  1.
<mgrwt>
<rscale>  2 0.52375786E+03</rscale>
<asrwt>0</asrwt>
<pdfrwt beam="1">  1       21 0.29086805E+00 0.52375786E+03</pdfrwt>
<pdfrwt beam="2">  1       21 0.62776928E-01 0.52375786E+03</pdfrwt>
<totfact> 0.66641833E+01</totfact>
</mgrwt>
</event>
<event>
 4    1  0.4897983E-002  0.4037266E+03  0.7818608E-02  0.1042497E+00
         21   -1    0    0  501  502  0.00000000000E+00  0.00000000000E+00  0.55831430819E+03  0.55831430819E+03  0.00000000000E+00 0. -1.
         21   -1    0    0  502  503 -0.00000000000E+00 -0.00000000000E+00 -0.48321358372E+03  0.48321358372E+03  0.00000000000E+00 0. -1.
    9000007    1    1    2  501    0 -0.27336092821E+02  0.47412284989E+02  0.36519042002E+03  0.54438885883E+03  0.40000000000E+03 0. -1.
   -9000007    1    1    2    0  503  0.27336092821E+02 -0.47412284989E+02 -0.29008969555E+03  0.49713903307E+03  0.40000000000E+03 0. -1.
<mgrwt>
<rscale>  2 0.40372662E+03</rscale>
<asrwt>0</asrwt>
<pdfrwt beam="1">  1       21 0.85894509E-01 0.40372662E+03</pdfrwt>
<pdfrwt beam="2">  1       21 0.74340551E-01 0.40372662E+03</pdfrwt>
<totfact> 0.16616863E+03</totfact>
</mgrwt>
</event>
<event>
 4    1  0.4897983E-002  0.5092037E+03  0.7818608E-02  0.1011404E+00
         21   -1    0    0  503  502  0.00000000000E+00  0.00000000000E+00  0.21865098034E+03  0.21865098034E+03  0.00000000000E+00 0.  1.
         21   -1    0    0  501  503 -0.00000000000E+00 -0.00000000000E+00 -0.17895904039E+04  0.17895904039E+04  0.00000000000E+00 0.  1.
    9000007    1    1    2  501    0 -0.30410105174E+03 -0.82528811075E+02 -0.13686895120E+04  0.14603422320E+04  0.40000000000E+03 0. -1.
   -9000007    1    1    2    0  502  0.30410105174E+03  0.82528811075E+02 -0.20224991161E+03  0.54789915228E+03  0.40000000000E+03 0. -1.
<mgrwt>
<rscale>  2 0.50920375E+03</rscale>
<asrwt>0</asrwt>
<pdfrwt beam="1">  1       21 0.33638611E-01 0.50920375E+03</pdfrwt>
<pdfrwt beam="2">  1       21 0.27532162E+00 0.50920375E+03</pdfrwt>
<totfact> 0.31125748E+02</totfact>
</mgrwt>
</event>
<event>
 4    1  0.4897983E-002  0.4264357E+03  0.7818608E-02  0.1034992E+00
         21   -1    0    0  503  502  0.00000000000E+00  0.00000000000E+00  0.66132341869E+03  0.66132341869E+03  0.00000000000E+00 0. -1.
         21   -1    0    0  501  503 -0.00000000000E+00 -0.00000000000E+00 -0.34838404174E+03  0.34838404174E+03  0.00000000000E+00 0. -1.
    9000007    1    1    2  501    0  0.86892422820E+02  0.11957071396E+03 -0.75275664172E+02  0.43302872237E+03  0.40000000000E+03 0. -1.
   -9000007    1    1    2    0  502 -0.86892422820E+02 -0.11957071396E+03  0.38821504113E+03  0.57667873807E+03  0.40000000000E+03 0. -1.
<mgrwt>
<rscale>  2 0.42643575E+03</rscale>
<asrwt>0</asrwt>
<pdfrwt beam="1">  1       21 0.10174206E+00 0.42643575E+03</pdfrwt>
<pdfrwt beam="2">  1       21 0.53597545E-01 0.42643575E+03</pdfrwt>
<totfact> 0.22634439E+03</totfact>
</mgrwt>
</event>
<event>
 4    1  0.4897983E-002  0.4638895E+03  0.7818608E-02  0.1023659E+00
         21   -1    0    0  501  502  0.00000000000E+00  0.00000000000E+00  0.83784207925E+03  0.83784207925E+03  0.00000000000E+00 0. -1.
         21   -1    0    0  502  503 -0.00000000000E+00 -0.00000000000E+00 -0.62691497416E+03  0.62691497416E+03  0.00000000000E+00 0. -1.
    9000007    1    1    2  501    0 -0.23464543826E+03 -0.11620172719E+02  0.66816059614E+03  0.81340770364E+03  0.40000000000E+03 0. -1.
   -9000007    1    1    2    0  503  0.23464543826E+03  0.11620172719E+02 -0.45723349105E+03  0.65134934977E+03  0.40000000000E+03 0. -1.
<mgrwt>
<rscale>  2 0.46388955E+03</rscale>
<asrwt>0</asrwt>
<pdfrwt beam="1">  1       21 0.12889878E+00 0.46388955E+03</pdfrwt>
<pdfrwt beam="2">  1       21 0.96448457E-01 0.46388955E+03</pdfrwt>
<totfact> 0.32458920E+02</totfact>
</mgrwt>
</event>
<event>
 4    1  0.4897983E-002  0.4783417E+03  0.7818608E-02  0.1019592E+00
         21   -1    0    0  501  502  0.00000000000E+00  0.00000000000E+00  0.12370558240E+04  0.12370558240E+04  0.00000000000E+00 0.  1.
         21   -1    0    0  502  503 -0.00000000000E+00 -0.00000000000E+00 -0.21686529399E+03  0.21686529399E+03  0.00000000000E+00 0. -1.
    9000007    1    1    2  501    0 -0.19645637495E+03 -0.17382657953E+03  0.23127777942E+03  0.53131929973E+03  0.40000000000E+03 0. -1.
   -9000007    1    1    2    0  503  0.19645637495E+03  0.17382657953E+03  0.78891275055E+03  0.92260181823E+03  0.40000000000E+03 0.  1.
<mgrwt>
<rscale>  2 0.47834171E+03</rscale>
<asrwt>0</asrwt>
<pdfrwt beam="1">  1       21 0.19031628E+00 0.47834171E+03</pdfrwt>
<pdfrwt beam="2">  1       21 0.33363892E-01 0.47834171E+03</pdfrwt>
<totfact> 0.11124079E+03</totfact>
</mgrwt>
</event>
<event>
 4    1  0.4897983E-002  0.4522864E+03  0.7818608E-02  0.1027042E+00
         21   -1    0    0  503  502  0.00000000000E+00  0.00000000000E+00  0.37046475736E+03  0.37046475736E+03  0.00000000000E+00 0.  1.
         21   -1    0    0  501  503 -0.00000000000E+00 -0.00000000000E+00 -0.72802729036E+03  0.72802729036E+03  0.00000000000E+00 0.  1.
    9000007    1    1    2  501    0 -0.18481021177E+03 -0.10202056443E+03 -0.44871779904E+03  0.63711119368E+03  0.40000000000E+03 0.  1.
   -9000007    1    1    2    0  502  0.18481021177E+03  0.10202056443E+03  0.91155266045E+02  0.46138085403E+03  0.40000000000E+03 0.  1.
<mgrwt>
<rscale>  2 0.45228642E+03</rscale>
<asrwt>0</asrwt>
<pdfrwt beam="1">  1       21 0.56994578E-01 0.45228642E+03</pdfrwt>
<pdfrwt beam="2">  1       21 0.11200420E+00 0.45228642E+03</pdfrwt>
<totfact> 0.15481313E+03</totfact>
</mgrwt>
</event>
<event>
 4    1  0.4897983E-002  0.4052448E+03  0.7818608E-02  0.1041979E+00
         21   -1    0    0  503  502  0.00000000000E+00  0.00000000000E+00  0.14813360217E+04  0.14813360217E+04  0.00000000000E+00 0.  1.
         21   -1    0    0  501  503 -0.00000000000E+00 -0.00000000000E+00 -0.16064612719E+03  0.16064612719E+03  0.00000000000E+00 0.  1.
    9000007    1    1    2  501    0  0.64408415090E+02  0.86557350195E+01  0.20330911454E+03  0.45338500387E+03  0.40000000000E+03 0.  1.
   -9000007    1    1    2    0  502 -0.64408415090E+02 -0.86557350195E+01  0.11173807800E+04  0.11885971450E+04  0.40000000000E+03 0.  1.
<mgrwt>
<rscale>  2 0.40524482E+03</rscale>
<asrwt>0</asrwt>
<pdfrwt beam="1">  1       21 0.22789784E+00 0.40524482E+03</pdfrwt>
<pdfrwt beam="2">  1       21 0.24714790E-01 0.40524482E+03</pdfrwt>
<totfact> 0.11827686E+03</totfact>
</mgrwt>
</event>
<event>
 4    1  0.4897983E-002  0.4739318E+03  0.7818608E-02  0.1020816E+00
         21   -1    0    0  503  502  0.00000000000E+00  0.00000000000E+00  0.15683345578E+03  0.15683345578E+03  0.00000000000E+00 0. -1.
         21   -1    0    0  501  503 -0.00000000000E+00 -0.00000000000E+00 -0.14658787684E+04  0.14658787684E+04  0.00000000000E+00 0. -1.
    9000007    1    1    2  501    0  0.10728746908E+03 -0.23043606302E+03 -0.53147697302E+03  0.71209490450E+03  0.40000000000E+03 0. -1.
   -9000007    1    1    2    0  502 -0.10728746908E+03  0.23043606302E+03 -0.77756833961E+03  0.91061731969E+03  0.40000000000E+03 0. -1.
<mgrwt>
<rscale>  2 0.47393183E+03</rscale>
<asrwt>0</asrwt>
<pdfrwt beam="1">  1       21 0.24128224E-01 0.47393183E+03</pdfrwt>
<pdfrwt beam="2">  1       21 0.22551981E+00 0.47393183E+03</pdfrwt>
<totfact> 0.12409326E+03</totfact>
</mgrwt>
</event>
<event>
 4    1  0.4897983E-002  0.4010769E+03  0.7818608E-02  0.1043407E+00
         21   -1    0    0  501  502  0.00000000000E+00  0.00000000000E+00  0.31117592530E+03  0.31117592530E+03  0.00000000000E+00 0. -1.
         21   -1    0    0  502  503 -0.00000000000E+00 -0.00000000000E+00 -0.93028609244E+03  0.93028609244E+03  0.00000000000E+00 0. -1.
    9000007    1    1    2  501    0 -0.29227560293E+02  0.29007115910E+01  0.10420289960E+03  0.41439221601E+03  0.40000000000E+03 0. -1.
   -9000007    1    1    2    0  503  0.29227560293E+02 -0.29007115910E+01 -0.72331306674E+03  0.82706980172E+03  0.40000000000E+03 0. -1.
<mgrwt>
<rscale>  2 0.40107688E+03</rscale>
<asrwt>0</asrwt>
<pdfrwt beam="1">  1       21 0.47873220E-01 0.40107688E+03</pdfrwt>
<pdfrwt beam="2">  1       21 0.14312094E+00 0.40107688E+03</pdfrwt>
<totfact> 0.12225040E+03</totfact>
</mgrwt>
</event>
<event>
 4    1  0.4897983E-002  0.4248247E+03  0.7818608E-02  0.1035507E+00
         21   -1    0    0  501  502  0.00000000000E+00  0.00000000000E+00  0.47863436321E+03  0.47863436321E+03  0.00000000000E+00 0.  1.
         21   -1    0    0  502  503 -0.00000000000E+00 -0.00000000000E+00 -0.38327622217E+03  0.38327622217E+03  0.00000000000E+00 0. -1.
    9000007    1    1    2  501    0  0.87340968230E+02  0.11334710721E+03  0.10254255872E+03  0.43702515693E+03  0.40000000000E+03 0. -1.
   -9000007    1    1    2    0  503 -0.87340968230E+02 -0.11334710721E+03 -0.71844176779E+01  0.42488542844E+03  0.40000000000E+03 0. -1.
<mgrwt>
<rscale>  2 0.42482468E+03</rscale>
<asrwt>0</asrwt>
<pdfrwt beam="1">  1       21 0.73636056E-01 0.42482468E+03</pdfrwt>
<pdfrwt beam="2">  1       21 0.58965573E-01 0.42482468E+03</pdfrwt>
<totfact> 0.39351031E+03</totfact>
</mgrwt>
</event>
<event>
 4    1  0.4897983E-002  0.4666597E+03  0.7818608E-02  0.1022867E+00
         21   -1    0    0  501  502  0.00000000000E+00  0.00000000000E+00  0.83176941775E+03  0.83176941775E+03  0.00000000000E+00 0. -1.
         21   -1    0    0  502  503 -0.00000000000E+00 -0.00000000000E+00 -0.36470262567E+03  0.36470262567E+03  0.00000000000E+00 0. -1.
    9000007    1    1    2  501    0  0.23170623566E+03 -0.63902107657E+02  0.55127988261E+03  0.72227471780E+03  0.40000000000E+03 0. -1.
   -9000007    1    1    2    0  503 -0.23170623566E+03  0.63902107657E+02 -0.84213090533E+02  0.47419732562E+03  0.40000000000E+03 0. -1.
<mgrwt>
<rscale>  2 0.46665968E+03</rscale>
<asrwt>0</asrwt>
<pdfrwt beam="1">  1       21 0.12796452E+00 0.46665968E+03</pdfrwt>
<pdfrwt beam="2">  1       21 0.56108097E-01 0.46665968E+03</pdfrwt>
<totfact> 0.11355870E+03</totfact>
</mgrwt>
</event>
<event>
 4    1  0.4897983E-002  0.4003862E+03  0.7818608E-02  0.1043646E+00
         21   -1    0    0  501  502  0.00000000000E+00  0.00000000000E+00  0.17770790392E+03  0.17770790392E+03  0.00000000000E+00 0. -1.
         21   -1    0    0  502  503 -0.00000000000E+00 -0.00000000000E+00 -0.12603691020E+04  0.12603691020E+04  0.00000000000E+00 0. -1.
    9000007    1    1    2  501    0  0.16593921261E+02  0.58109790946E+01 -0.15796604476E+03  0.43042118558E+03  0.40000000000E+03 0. -1.
   -9000007    1    1    2    0  503 -0.16593921261E+02 -0.58109790946E+01 -0.92469515331E+03  0.10076558203E+04  0.40000000000E+03 0. -1.
<mgrwt>
<rscale>  2 0.40038622E+03</rscale>
<asrwt>0</asrwt>
<pdfrwt beam="1">  1       21 0.27339678E-01 0.40038622E+03</pdfrwt>
<pdfrwt beam="2">  1       21 0.19390294E+00 0.40038622E+03</pdfrwt>
<totfact> 0.16185163E+03</totfact>
</mgrwt>
</event>
<event>
 4    1  0.4897983E-002  0.5310428E+03  0.7818608E-02  0.1005980E+00
         21   -1    0    0  501  502  0.00000000000E+00  0.00000000000E+00  0.94841960547E+03  0.94841960547E+03  0.00000000000E+00 0.  1.
         21   -1    0    0  502  503 -0.00000000000E+00 -0.00000000000E+00 -0.29789995994E+03  0.29789995994E+03  0.00000000000E+00 0. -1.
    9000007    1    1    2  501    0 -0.30023121536E+03 -0.17851510311E+03  0.35219209640E+03  0.63721715096E+03  0.40000000000E+03 0.  1.
   -9000007    1    1    2    0  503  0.30023121536E+03  0.17851510311E+03  0.29832754913E+03  0.60910241445E+03  0.40000000000E+03 0.  1.
<mgrwt>
<rscale>  2 0.53104277E+03</rscale>
<asrwt>0</asrwt>
<pdfrwt beam="1">  1       21 0.14591071E+00 0.53104277E+03</pdfrwt>
<pdfrwt beam="2">  1       21 0.45830764E-01 0.53104277E+03</pdfrwt>
<totfact> 0.12072545E+03</totfact>
</mgrwt>
</event>
<event>
 4    1  0.4897983E-002  0.4009458E+03  0.7818608E-02  0.1043453E+00
         21   -1    0    0  501  502  0.00000000000E+00  0.00000000000E+00  0.40712517894E+03  0.40712517894E+03  0.00000000000E+00 0. -1.
         21   -1    0    0  502  503 -0.00000000000E+00 -0.00000000000E+00 -0.49600064083E+03  0.49600064083E+03  0.00000000000E+00 0. -1.
    9000007    1    1    2  501    0  0.26628285897E+02 -0.69636686584E+01 -0.24834814847E+03  0.47162947442E+03  0.40000000000E+03 0.  1.
   -9000007    1    1    2    0  503 -0.26628285897E+02  0.69636686584E+01  0.15947268658E+03  0.43149634536E+03  0.40000000000E+03 0.  1.
<mgrwt>
<rscale>  2 0.40094583E+03</rscale>
<asrwt>0</asrwt>
<pdfrwt beam="1">  1       21 0.62634643E-01 0.40094583E+03</pdfrwt>
<pdfrwt beam="2">  1       21 0.76307790E-01 0.40094583E+03</pdfrwt>
<totfact> 0.32075238E+03</totfact>
</mgrwt>
</event>
<event>
 4    1  0.4897983E-002  0.5036360E+03  0.7818608E-02  0.1012834E+00
         21   -1    0    0  501  502  0.00000000000E+00  0.00000000000E+00  0.49081154385E+03  0.49081154385E+03  0.00000000000E+00 0. -1.
         21   -1    0    0  502  503 -0.00000000000E+00 -0.00000000000E+00 -0.72364621797E+03  0.72364621797E+03  0.00000000000E+00 0. -1.
    9000007    1    1    2  501    0 -0.28567410694E+03  0.10972484557E+03  0.20823437827E+03  0.54498696627E+03  0.40000000000E+03 0. -1.
   -9000007    1    1    2    0  503  0.28567410694E+03 -0.10972484557E+03 -0.44106905240E+03  0.66947079555E+03  0.40000000000E+03 0. -1.
<mgrwt>
<rscale>  2 0.50363602E+03</rscale>
<asrwt>0</asrwt>
<pdfrwt beam="1">  1       21 0.75509468E-01 0.50363602E+03</pdfrwt>
<pdfrwt beam="2">  1       21 0.11133019E+00 0.50363602E+03</pdfrwt>
<totfact> 0.82288229E+02</totfact>
</mgrwt>
</event>
<event>
 4    1  0.4897983E-002  0.4072239E+03  0.7818608E-02  0.1041307E+00
         21   -1    0    0  501  502  0.00000000000E+00  0.00000000000E+00  0.21152821358E+04  0.21152821358E+04  0.00000000000E+00 0.  1.
         21   -1    0    0  502  503 -0.00000000000E+00 -0.00000000000E+00 -0.16899066881E+03  0.16899066881E+03  0.00000000000E+00 0.  1.
    9000007    1    1    2  501    0  0.63421301525E+02 -0.42532661437E+02  0.18093956445E+04  0.18546546544E+04  0.40000000000E+03 0.  1.
   -9000007    1    1    2    0  503 -0.63421301525E+02  0.42532661437E+02  0.13689582250E+03  0.42961815022E+03  0.40000000000E+03 0.  1.
<mgrwt>
<rscale>  2 0.40722388E+03</rscale>
<asrwt>0</asrwt>
<pdfrwt beam="1">  1       21 0.32542800E+00 0.40722388E+03</pdfrwt>
<pdfrwt beam="2">  1       21 0.25998566E-01 0.40722388E+03</pdfrwt>
<totfact> 0.27482566E+02</totfact>
</mgrwt>
</event>
<event>
 4    1  0.4897983E-002  0.4150985E+03  0.7818608E-02  0.1038673E+00
         21   -1    0    0  503  502  0.00000000000E+00  0.00000000000E+00  0.12963700848E+04  0.12963700848E+04  0.00000000000E+00 0.  1.
         21   -1    0    0  501  503 -0.00000000000E+00 -0.00000000000E+00 -0.22908881063E+03  0.22908881063E+03  0.00000000000E+00 0.  1.
    9000007    1    1    2  501    0  0.71107299628E+01  0.11070762326E+03  0.39446610567E+02  0.41696855447E+03  0.40000000000E+03 0.  1.
   -9000007    1    1    2    0  502 -0.71107299628E+01 -0.11070762326E+03  0.10278346636E+04  0.11084903410E+04  0.40000000000E+03 0.  1.
<mgrwt>
<rscale>  2 0.41509847E+03</rscale>
<asrwt>0</asrwt>
<pdfrwt beam="1">  1       21 0.19944155E+00 0.41509847E+03</pdfrwt>
<pdfrwt beam="2">  1       21 0.35244433E-01 0.41509847E+03</pdfrwt>
<totfact> 0.88957680E+02</totfact>
</mgrwt>
</event>
<event>
 4    1  0.4897983E-002  0.4214656E+03  0.7818608E-02  0.1036590E+00
         21   -1    0    0  501  502  0.00000000000E+00  0.00000000000E+00  0.30858810488E+03  0.30858810488E+03  0.00000000000E+00 0.  1.
         21   -1    0    0  502  503 -0.00000000000E+00 -0.00000000000E+00 -0.58907016355E+03  0.58907016355E+03  0.00000000000E+00 0.  1.
    9000007    1    1    2  501    0  0.11630701095E+03  0.64077611314E+02 -0.72451337268E+02  0.42764758545E+03  0.40000000000E+03 0.  1.
   -9000007    1    1    2    0  503 -0.11630701095E+03 -0.64077611314E+02 -0.20803072140E+03  0.47001068298E+03  0.40000000000E+03 0.  1.
<mgrwt>
<rscale>  2 0.42146561E+03</rscale>
<asrwt>0</asrwt>
<pdfrwt beam="1">  1       21 0.47475093E-01 0.42146561E+03</pdfrwt>
<pdfrwt beam="2">  1       21 0.90626179E-01 0.42146561E+03</pdfrwt>
<totfact> 0.38752172E+03</totfact>
</mgrwt>
</event>
<event>
 4    1  0.4897983E-002  0.5480404E+03  0.7818608E-02  0.1001949E+00
         21   -1    0    0  503  502  0.00000000000E+00  0.00000000000E+00  0.91001275350E+03  0.91001275350E+03  0.00000000000E+00 0.  1.
         21   -1    0    0  501  503 -0.00000000000E+00 -0.00000000000E+00 -0.55555403961E+03  0.55555403961E+03  0.00000000000E+00 0.  1.
    9000007    1    1    2  501    0  0.25191379072E+03  0.27728631378E+03 -0.28963547931E+03  0.61986850915E+03  0.40000000000E+03 0.  1.
   -9000007    1    1    2    0  502 -0.25191379072E+03 -0.27728631378E+03  0.64409419320E+03  0.84569828395E+03  0.40000000000E+03 0.  1.
<mgrwt>
<rscale>  2 0.54804038E+03</rscale>
<asrwt>0</asrwt>
<pdfrwt beam="1">  1       21 0.14000196E+00 0.54804038E+03</pdfrwt>
<pdfrwt beam="2">  1       21 0.85469852E-01 0.54804038E+03</pdfrwt>
<totfact> 0.33604639E+02</totfact>
</mgrwt>
</event>
<event>
 4    1  0.4897983E-002  0.4609271E+03  0.7818608E-02  0.1024513E+00
         21   -1    0    0  503  502  0.00000000000E+00  0.00000000000E+00  0.31338701404E+03  0.31338701404E+03  0.00000000000E+00 0. -1.
         21   -1    0    0  501  503 -0.00000000000E+00 -0.00000000000E+00 -0.83891960527E+03  0.83891960527E+03  0.00000000000E+00 0. -1.
    9000007    1    1    2  501    0 -0.14081267720E+03  0.18062562716E+03 -0.10372006810E+02  0.46104382197E+03  0.40000000000E+03 0. -1.
   -9000007    1    1    2    0  502  0.14081267720E+03 -0.18062562716E+03 -0.51516058443E+03  0.69126279735E+03  0.40000000000E+03 0. -1.
<mgrwt>
<rscale>  2 0.46092714E+03</rscale>
<asrwt>0</asrwt>
<pdfrwt beam="1">  1       21 0.48213387E-01 0.46092714E+03</pdfrwt>
<pdfrwt beam="2">  1       21 0.12906456E+00 0.46092714E+03</pdfrwt>
<totfact> 0.15403514E+03</totfact>
</mgrwt>
</event>
<event>
 4    1  0.4897983E-002  0.5323076E+03  0.7818608E-02  0.1005674E+00
         21   -1    0    0  503  502  0.00000000000E+00  0.00000000000E+00  0.49837797094E+03  0.49837797094E+03  0.00000000000E+00 0.  1.
         21   -1    0    0  501  503 -0.00000000000E+00 -0.00000000000E+00 -0.11851064267E+04  0.11851064267E+04  0.00000000000E+00 0. -1.
    9000007    1    1    2  501    0  0.34811785624E+03 -0.46533132821E+02 -0.95050282415E+03  0.10894067161E+04  0.40000000000E+03 0. -1.
   -9000007    1    1    2    0  502 -0.34811785624E+03  0.46533132821E+02  0.26377436842E+03  0.59407768155E+03  0.40000000000E+03 0.  1.
<mgrwt>
<rscale>  2 0.53230759E+03</rscale>
<asrwt>0</asrwt>
<pdfrwt beam="1">  1       21 0.76673536E-01 0.53230759E+03</pdfrwt>
<pdfrwt beam="2">  1       21 0.18232406E+00 0.53230759E+03</pdfrwt>
<totfact> 0.20757544E+02</totfact>
</mgrwt>
</event>
<event>
 4    1  0.4897983E-002  0.4552683E+03  0.7818608E-02  0.1026163E+00
         21   -1    0    0  501  502  0.00000000000E+00  0.00000000000E+00  0.11827073051E+04  0.11827073051E+04  0.00000000000E+00 0. -1.
         21   -1    0    0  502  503 -0.00000000000E+00 -0.00000000000E+00 -0.27956405446E+03  0.27956405446E+03  0.00000000000E+00 0. -1.
    9000007    1    1    2  501    0 -0.21267119656E+03 -0.45167991560E+02  0.89818240475E+03  0.10069760759E+04  0.40000000000E+03 0. -1.
   -9000007    1    1    2    0  503  0.21267119656E+03  0.45167991560E+02  0.49608458987E+01  0.45529528363E+03  0.40000000000E+03 0. -1.
<mgrwt>
<rscale>  2 0.45526826E+03</rscale>
<asrwt>0</asrwt>
<pdfrwt beam="1">  1       21 0.18195497E+00 0.45526826E+03</pdfrwt>
<pdfrwt beam="2">  1       21 0.43009855E-01 0.45526826E+03</pdfrwt>
<totfact> 0.76352263E+02</totfact>
</mgrwt>
</event>
<event>
 4    1  0.4897983E-002  0.5428088E+03  0.7818608E-02  0.1003172E+00
         21   -1    0    0  503  502  0.00000000000E+00  0.00000000000E+00  0.32631481077E+03  0.32631481077E+03  0.00000000000E+00 0.  1.
         21   -1    0    0  501  503 -0.00000000000E+00 -0.00000000000E+00 -0.14139887184E+04  0.14139887184E+04  0.00000000000E+00 0. -1.
    9000007    1    1    2  501    0  0.30011981165E+03  0.21111495574E+03 -0.10669611856E+04  0.11970996606E+04  0.40000000000E+03 0.  1.
   -9000007    1    1    2    0  502 -0.30011981165E+03 -0.21111495574E+03 -0.20712721959E+02  0.54320386848E+03  0.40000000000E+03 0. -1.
<mgrwt>
<rscale>  2 0.54280883E+03</rscale>
<asrwt>0</asrwt>
<pdfrwt beam="1">  1       21 0.50202278E-01 0.54280883E+03</pdfrwt>
<pdfrwt beam="2">  1       21 0.21753673E+00 0.54280883E+03</pdfrwt>
<totfact> 0.30581429E+02</totfact>
</mgrwt>
</event>
<event>
 4    1  0.4897983E-002  0.5054400E+03  0.7818608E-02  0.1012369E+00
         21   -1    0    0  501  502  0.00000000000E+00  0.00000000000E+00  0.24338583797E+03  0.24338583797E+03  0.00000000000E+00 0.  1.
         21   -1    0    0  502  503 -0.00000000000E+00 -0.00000000000E+00 -0.11125560559E+04  0.11125560559E+04  0.00000000000E+00 0.  1.
    9000007    1    1    2  501    0  0.22606660951E+03  0.21062645714E+03 -0.27337175300E+03  0.57463182275E+03  0.40000000000E+03 0.  1.
   -9000007    1    1    2    0  503 -0.22606660951E+03 -0.21062645714E+03 -0.59579846489E+03  0.78131007107E+03  0.40000000000E+03 0.  1.
<mgrwt>
<rscale>  2 0.50544002E+03</rscale>
<asrwt>0</asrwt>
<pdfrwt beam="1">  1       21 0.37443975E-01 0.50544002E+03</pdfrwt>
<pdfrwt beam="2">  1       21 0.17116247E+00 0.50544002E+03</pdfrwt>
<totfact> 0.11886336E+03</totfact>
</mgrwt>
</event>
<event>
 4    1  0.4897983E-002  0.4194514E+03  0.7818608E-02  0.1037245E+00
         21   -1    0    0  501  502  0.00000000000E+00  0.00000000000E+00  0.91456558082E+03  0.91456558082E+03  0.00000000000E+00 0.  1.
         21   -1    0    0  502  503 -0.00000000000E+00 -0.00000000000E+00 -0.55046602125E+03  0.55046602125E+03  0.00000000000E+00 0.  1.
    9000007    1    1    2  501    0 -0.43559947987E+02  0.11849907715E+03  0.77286066772E+03  0.87934811767E+03  0.40000000000E+03 0.  1.
   -9000007    1    1    2    0  503  0.43559947987E+02 -0.11849907715E+03 -0.40876110816E+03  0.58568348440E+03  0.40000000000E+03 0.  1.
<mgrwt>
<rscale>  2 0.41945143E+03</rscale>
<asrwt>0</asrwt>
<pdfrwt beam="1">  1       21 0.14070240E+00 0.41945143E+03</pdfrwt>
<pdfrwt beam="2">  1       21 0.84687080E-01 0.41945143E+03</pdfrwt>
<totfact> 0.35879346E+02</totfact>
</mgrwt>
</event>
<event>
 4    1  0.4897983E-002  0.5897919E+03  0.7818608E-02  0.9926814E-01
         21   -1    0    0  503  502  0.00000000000E+00  0.00000000000E+00  0.18817268005E+04  0.18817268005E+04  0.00000000000E+00 0. -1.
         21   -1    0    0  501  503 -0.00000000000E+00 -0.00000000000E+00 -0.31849931331E+03  0.31849931331E+03  0.00000000000E+00 0.  1.
    9000007    1    1    2  501    0 -0.82592728944E+02 -0.42547962727E+03  0.69004387244E+02  0.59381485124E+03  0.40000000000E+03 0.  1.
   -9000007    1    1    2    0  502  0.82592728944E+02  0.42547962727E+03  0.14942230999E+04  0.16064112625E+04  0.40000000000E+03 0. -1.
<mgrwt>
<rscale>  2 0.58979189E+03</rscale>
<asrwt>0</asrwt>
<pdfrwt beam="1">  1       21 0.28949642E+00 0.58979189E+03</pdfrwt>
<pdfrwt beam="2">  1       21 0.48999895E-01 0.58979189E+03</pdfrwt>
<totfact> 0.11251753E+02</totfact>
</mgrwt>
</event>
<event>
 4    1  0.4897983E-002  0.5433506E+03  0.7818608E-02  0.1003045E+00
         21   -1    0    0  501  502  0.00000000000E+00  0.00000000000E+00  0.68152683517E+03  0.68152683517E+03  0.00000000000E+00 0. -1.
         21   -1    0    0  502  503 -0.00000000000E+00 -0.00000000000E+00 -0.47863153015E+03  0.47863153015E+03  0.00000000000E+00 0. -1.
    9000007    1    1    2  501    0  0.32910513129E+03 -0.16407210136E+03  0.28018630731E+03  0.61133804780E+03  0.40000000000E+03 0. -1.
   -9000007    1    1    2    0  503 -0.32910513129E+03  0.16407210136E+03 -0.77291002284E+02  0.54882031752E+03  0.40000000000E+03 0. -1.
<mgrwt>
<rscale>  2 0.54335057E+03</rscale>
<asrwt>0</asrwt>
<pdfrwt beam="1">  1       21 0.10485028E+00 0.54335057E+03</pdfrwt>
<pdfrwt beam="2">  1       21 0.73635620E-01 0.54335057E+03</pdfrwt>
<totfact> 0.99741610E+02</totfact>
</mgrwt>
</event>
<event>
 4    1  0.4897983E-002  0.4374029E+03  0.7818608E-02  0.1031547E+00
         21   -1    0    0  501  502  0.00000000000E+00  0.00000000000E+00  0.18668013252E+03  0.18668013252E+03  0.00000000000E+00 0.  1.
         21   -1    0    0  502  503 -0.00000000000E+00 -0.00000000000E+00 -0.10690968375E+04  0.10690968375E+04  0.00000000000E+00 0. -1.
    9000007    1    1    2  501    0 -0.17584292057E+03  0.20015073921E+02 -0.31348885087E+03  0.53814179871E+03  0.40000000000E+03 0.  1.
   -9000007    1    1    2    0  503  0.17584292057E+03 -0.20015073921E+02 -0.56892785406E+03  0.71763517126E+03  0.40000000000E+03 0. -1.
<mgrwt>
<rscale>  2 0.43740294E+03</rscale>
<asrwt>0</asrwt>
<pdfrwt beam="1">  1       21 0.28720019E-01 0.43740294E+03</pdfrwt>
<pdfrwt beam="2">  1       21 0.16447644E+00 0.43740294E+03</pdfrwt>
<totfact> 0.23303819E+03</totfact>
</mgrwt>
</event>
<event>
 4    1  0.4897983E-002  0.4731189E+03  0.7818608E-02  0.1021044E+00
         21   -1    0    0  501  502  0.00000000000E+00  0.00000000000E+00  0.15450015164E+03  0.15450015164E+03  0.00000000000E+00 0.  1.
         21   -1    0    0  502  503 -0.00000000000E+00 -0.00000000000E+00 -0.14564761113E+04  0.14564761113E+04  0.00000000000E+00 0.  1.
    9000007    1    1    2  501    0 -0.69918910891E+01 -0.25257196490E+03 -0.59255296628E+03  0.75826149964E+03  0.40000000000E+03 0.  1.
   -9000007    1    1    2    0  503  0.69918910891E+01  0.25257196490E+03 -0.70942299335E+03  0.85271476326E+03  0.40000000000E+03 0.  1.
<mgrwt>
<rscale>  2 0.47311889E+03</rscale>
<asrwt>0</asrwt>
<pdfrwt beam="1">  1       21 0.23769255E-01 0.47311889E+03</pdfrwt>
<pdfrwt beam="2">  1       21 0.22407324E+00 0.47311889E+03</pdfrwt>
<totfact> 0.13053317E+03</totfact>
</mgrwt>
</event>
<event>
 4    1  0.4897983E-002  0.4916944E+03  0.7818608E-02  0.1015970E+00
         21   -1    0    0  503  502  0.00000000000E+00  0.00000000000E+00  0.13022152951E+04  0.13022152951E+04  0.00000000000E+00 0. -1.
         21   -1    0    0  501  503 -0.00000000000E+00 -0.00000000000E+00 -0.21246016465E+03  0.21246016465E+03  0.00000000000E+00 0. -1.
    9000007    1    1    2  501    0 -0.26120513383E+03  0.11634095078E+03  0.27587488694E+03  0.56379986876E+03  0.40000000000E+03 0. -1.
   -9000007    1    1    2    0  502  0.26120513383E+03 -0.11634095078E+03  0.81388024351E+03  0.95087559099E+03  0.40000000000E+03 0. -1.
<mgrwt>
<rscale>  2 0.49169436E+03</rscale>
<asrwt>0</asrwt>
<pdfrwt beam="1">  1       21 0.20034081E+00 0.49169436E+03</pdfrwt>
<pdfrwt beam="2">  1       21 0.32686180E-01 0.49169436E+03</pdfrwt>
<totfact> 0.98592965E+02</totfact>
</mgrwt>
</event>
<event>
 4    1  0.4897983E-002  0.4794425E+03  0.7818608E-02  0.1019288E+00
         21   -1    0    0  501  502  0.00000000000E+00  0.00000000000E+00  0.14249376380E+04  0.14249376380E+04  0.00000000000E+00 0.  1.
         21   -1    0    0  502  503 -0.00000000000E+00 -0.00000000000E+00 -0.25853980412E+03  0.25853980412E+03  0.00000000000E+00 0. -1.
    9000007    1    1    2  501    0  0.23770828791E+03 -0.11558494680E+03  0.10993776492E+04  0.11993733054E+04  0.40000000000E+03 0.  1.
   -9000007    1    1    2    0  503 -0.23770828791E+03  0.11558494680E+03  0.67020184691E+02  0.48410413676E+03  0.40000000000E+03 0. -1.
<mgrwt>
<rscale>  2 0.47944250E+03</rscale>
<asrwt>0</asrwt>
<pdfrwt beam="1">  1       21 0.21922117E+00 0.47944250E+03</pdfrwt>
<pdfrwt beam="2">  1       21 0.39775355E-01 0.47944250E+03</pdfrwt>
<totfact> 0.50019828E+02</totfact>
</mgrwt>
</event>
<event>
 4    1  0.4897983E-002  0.4538707E+03  0.7818608E-02  0.1026574E+00
         21   -1    0    0  501  502  0.00000000000E+00  0.00000000000E+00  0.12011073751E+04  0.12011073751E+04  0.00000000000E+00 0.  1.
         21   -1    0    0  502  503 -0.00000000000E+00 -0.00000000000E+00 -0.22052180094E+03  0.22052180094E+03  0.00000000000E+00 0. -1.
    9000007    1    1    2  501    0 -0.14226073040E+03  0.16050081199E+03  0.82540717096E+03  0.94196370628E+03  0.40000000000E+03 0.  1.
   -9000007    1    1    2    0  503  0.14226073040E+03 -0.16050081199E+03  0.15517840319E+03  0.47966546976E+03  0.40000000000E+03 0. -1.
<mgrwt>
<rscale>  2 0.45387072E+03</rscale>
<asrwt>0</asrwt>
<pdfrwt beam="1">  1       21 0.18478575E+00 0.45387072E+03</pdfrwt>
<pdfrwt beam="2">  1       21 0.33926432E-01 0.45387072E+03</pdfrwt>
<totfact> 0.11867039E+03</totfact>
</mgrwt>
</event>
<event>
 4    1  0.4897983E-002  0.4694114E+03  0.7818608E-02  0.1022086E+00
         21   -1    0    0  503  502  0.00000000000E+00  0.00000000000E+00  0.25331925389E+03  0.25331925389E+03  0.00000000000E+00 0. -1.
         21   -1    0    0  501  503 -0.00000000000E+00 -0.00000000000E+00 -0.11927035436E+04  0.11927035436E+04  0.00000000000E+00 0. -1.
    9000007    1    1    2  501    0  0.22523825431E+03 -0.98054803450E+02 -0.84586628414E+03  0.96738657543E+03  0.40000000000E+03 0. -1.
   -9000007    1    1    2    0  502 -0.22523825431E+03  0.98054803450E+02 -0.93518005544E+02  0.47863622204E+03  0.40000000000E+03 0. -1.
<mgrwt>
<rscale>  2 0.46941135E+03</rscale>
<asrwt>0</asrwt>
<pdfrwt beam="1">  1       21 0.38972192E-01 0.46941135E+03</pdfrwt>
<pdfrwt beam="2">  1       21 0.18349286E+00 0.46941135E+03</pdfrwt>
<totfact> 0.90756229E+02</totfact>
</mgrwt>
</event>
<event>
 4    1  0.4897983E-002  0.7464890E+03  0.7818608E-02  0.9640875E-01
         21   -1    0    0  501  502  0.00000000000E+00  0.00000000000E+00  0.14100679888E+04  0.14100679888E+04  0.00000000000E+00 0.  1.
         21   -1    0    0  502  503 -0.00000000000E+00 -0.00000000000E+00 -0.42010967495E+03  0.42010967495E+03  0.00000000000E+00 0.  1.
    9000007    1    1    2  501    0 -0.25901912517E+03  0.57459106773E+03  0.71784664144E+03  0.10356397071E+04  0.40000000000E+03 0.  1.
   -9000007    1    1    2    0  503  0.25901912517E+03 -0.57459106773E+03  0.27211167245E+03  0.79453795668E+03  0.40000000000E+03 0.  1.
<mgrwt>
<rscale>  2 0.74648898E+03</rscale>
<asrwt>0</asrwt>
<pdfrwt beam="1">  1       21 0.21693354E+00 0.74648898E+03</pdfrwt>
<pdfrwt beam="2">  1       21 0.64632258E-01 0.74648898E+03</pdfrwt>
<totfact> 0.16463863E+02</totfact>
</mgrwt>
</event>
<event>
 4    1  0.4897983E-002  0.5132435E+03  0.7818608E-02  0.1010379E+00
         21   -1    0    0  503  502  0.00000000000E+00  0.00000000000E+00  0.27117194558E+03  0.27117194558E+03  0.00000000000E+00 0. -1.
         21   -1    0    0  501  503 -0.00000000000E+00 -0.00000000000E+00 -0.10539021866E+04  0.10539021866E+04  0.00000000000E+00 0. -1.
    9000007    1    1    2  501    0  0.14398387195E+03  0.28755449239E+03 -0.20600412256E+03  0.55304307245E+03  0.40000000000E+03 0. -1.
   -9000007    1    1    2    0  502 -0.14398387195E+03 -0.28755449239E+03 -0.57672611847E+03  0.77203105973E+03  0.40000000000E+03 0. -1.
<mgrwt>
<rscale>  2 0.51324355E+03</rscale>
<asrwt>0</asrwt>
<pdfrwt beam="1">  1       21 0.41718761E-01 0.51324355E+03</pdfrwt>
<pdfrwt beam="2">  1       21 0.16213880E+00 0.51324355E+03</pdfrwt>
<totfact> 0.11059785E+03</totfact>
</mgrwt>
</event>
<event>
 4    1  0.4897983E-002  0.4854373E+03  0.7818608E-02  0.1017651E+00
         21   -1    0    0  501  502  0.00000000000E+00  0.00000000000E+00  0.27424068774E+03  0.27424068774E+03  0.00000000000E+00 0.  1.
         21   -1    0    0  502  503 -0.00000000000E+00 -0.00000000000E+00 -0.87971400482E+03  0.87971400482E+03  0.00000000000E+00 0. -1.
    9000007    1    1    2  501    0 -0.27434121295E+03  0.19653130277E+02 -0.21479955120E+03  0.53083725741E+03  0.40000000000E+03 0.  1.
   -9000007    1    1    2    0  503  0.27434121295E+03 -0.19653130277E+02 -0.39067376588E+03  0.62311743516E+03  0.40000000000E+03 0. -1.
<mgrwt>
<rscale>  2 0.48543727E+03</rscale>
<asrwt>0</asrwt>
<pdfrwt beam="1">  1       21 0.42190874E-01 0.48543727E+03</pdfrwt>
<pdfrwt beam="2">  1       21 0.13534062E+00 0.48543727E+03</pdfrwt>
<totfact> 0.17838614E+03</totfact>
</mgrwt>
</event>
<event>
 4    1  0.4897983E-002  0.4295187E+03  0.7818608E-02  0.1034012E+00
         21   -1    0    0  501  502  0.00000000000E+00  0.00000000000E+00  0.18902974716E+03  0.18902974716E+03  0.00000000000E+00 0. -1.
         21   -1    0    0  502  503 -0.00000000000E+00 -0.00000000000E+00 -0.15224508877E+04  0.15224508877E+04  0.00000000000E+00 0.  1.
    9000007    1    1    2  501    0 -0.15627354993E+03 -0.80574298631E+01 -0.15401451463E+03  0.45629684998E+03  0.40000000000E+03 0. -1.
   -9000007    1    1    2    0  503  0.15627354993E+03  0.80574298631E+01 -0.11794066259E+04  0.12551837848E+04  0.40000000000E+03 0.  1.
<mgrwt>
<rscale>  2 0.42951874E+03</rscale>
<asrwt>0</asrwt>
<pdfrwt beam="1">  1       21 0.29081499E-01 0.42951874E+03</pdfrwt>
<pdfrwt beam="2">  1       21 0.23422322E+00 0.42951874E+03</pdfrwt>
<totfact> 0.77519929E+02</totfact>
</mgrwt>
</event>
<event>
 4    1  0.4897983E-002  0.4488621E+03  0.7818608E-02  0.1028062E+00
         21   -1    0    0  503  502  0.00000000000E+00  0.00000000000E+00  0.52425272564E+03  0.52425272564E+03  0.00000000000E+00 0. -1.
         21   -1    0    0  501  503 -0.00000000000E+00 -0.00000000000E+00 -0.40924105385E+03  0.40924105385E+03  0.00000000000E+00 0. -1.
    9000007    1    1    2  501    0  0.19553630602E+03 -0.56944715292E+02 -0.57689755668E+02  0.45255414646E+03  0.40000000000E+03 0. -1.
   -9000007    1    1    2    0  502 -0.19553630602E+03  0.56944715292E+02  0.17270142745E+03  0.48093963302E+03  0.40000000000E+03 0. -1.
<mgrwt>
<rscale>  2 0.44886206E+03</rscale>
<asrwt>0</asrwt>
<pdfrwt beam="1">  1       21 0.80654265E-01 0.44886206E+03</pdfrwt>
<pdfrwt beam="2">  1       21 0.62960162E-01 0.44886206E+03</pdfrwt>
<totfact> 0.27420827E+03</totfact>
</mgrwt>
</event>
<event>
 4    1  0.4897983E-002  0.4917512E+03  0.7818608E-02  0.1015955E+00
         21   -1    0    0  503  502  0.00000000000E+00  0.00000000000E+00  0.33570121886E+03  0.33570121886E+03  0.00000000000E+00 0.  1.
         21   -1    0    0  501  503 -0.00000000000E+00 -0.00000000000E+00 -0.73364081006E+03  0.73364081006E+03  0.00000000000E+00 0. -1.
    9000007    1    1    2  501    0 -0.12068441423E+03 -0.25933484225E+03 -0.12698003899E+03  0.50788110670E+03  0.40000000000E+03 0. -1.
   -9000007    1    1    2    0  502  0.12068441423E+03  0.25933484225E+03 -0.27095955221E+03  0.56146092222E+03  0.40000000000E+03 0. -1.
<mgrwt>
<rscale>  2 0.49175125E+03</rscale>
<asrwt>0</asrwt>
<pdfrwt beam="1">  1       21 0.51646342E-01 0.49175125E+03</pdfrwt>
<pdfrwt beam="2">  1       21 0.11286782E+00 0.49175125E+03</pdfrwt>
<totfact> 0.18508928E+03</totfact>
</mgrwt>
</event>
<event>
 4    1  0.4897983E-002  0.4073997E+03  0.7818608E-02  0.1041247E+00
         21   -1    0    0  503  502  0.00000000000E+00  0.00000000000E+00  0.25802414084E+04  0.25802414084E+04  0.00000000000E+00 0.  1.
         21   -1    0    0  501  503 -0.00000000000E+00 -0.00000000000E+00 -0.83526451023E+02  0.83526451023E+02  0.00000000000E+00 0.  1.
    9000007    1    1    2  501    0 -0.58603298560E+02  0.50400331992E+02  0.60977184043E+03  0.73334591936E+03  0.40000000000E+03 0.  1.
   -9000007    1    1    2    0  502  0.58603298560E+02 -0.50400331992E+02  0.18869431170E+04  0.19304219401E+04  0.40000000000E+03 0.  1.
<mgrwt>
<rscale>  2 0.40739973E+03</rscale>
<asrwt>0</asrwt>
<pdfrwt beam="1">  1       21 0.39696016E+00 0.40739973E+03</pdfrwt>
<pdfrwt beam="2">  1       21 0.12850225E-01 0.40739973E+03</pdfrwt>
<totfact> 0.37511218E+02</totfact>
</mgrwt>
</event>
<event>
 4    1  0.4897983E-002  0.5269373E+03  0.7818608E-02  0.1006978E+00
         21   -1    0    0  501  502  0.00000000000E+00  0.00000000000E+00  0.32806345332E+04  0.32806345332E+04  0.00000000000E+00 0.  1.
         21   -1    0    0  502  503 -0.00000000000E+00 -0.00000000000E+00 -0.98039277788E+02  0.98039277788E+02  0.00000000000E+00 0.  1.
    9000007    1    1    2  501    0 -0.61744503467E+02 -0.33741748191E+03  0.22159036094E+04  0.22776943928E+04  0.40000000000E+03 0.  1.
   -9000007    1    1    2    0  503  0.61744503467E+02  0.33741748191E+03  0.96669164597E+03  0.11009794182E+04  0.40000000000E+03 0.  1.
<mgrwt>
<rscale>  2 0.52693732E+03</rscale>
<asrwt>0</asrwt>
<pdfrwt beam="1">  1       21 0.50471292E+00 0.52693732E+03</pdfrwt>
<pdfrwt beam="2">  1       21 0.15082968E-01 0.52693732E+03</pdfrwt>
<totfact> 0.47939901E+01</totfact>
</mgrwt>
</event>
<event>
 4    1  0.4897983E-002  0.5547623E+03  0.7818608E-02  0.1000398E+00
         21   -1    0    0  501  502  0.00000000000E+00  0.00000000000E+00  0.68347389918E+03  0.68347389918E+03  0.00000000000E+00 0. -1.
         21   -1    0    0  502  503 -0.00000000000E+00 -0.00000000000E+00 -0.45121289173E+03  0.45121289173E+03  0.00000000000E+00 0.  1.
    9000007    1    1    2  501    0 -0.12560153934E+03 -0.36329800681E+03  0.14179453091E+03  0.57259660970E+03  0.40000000000E+03 0.  1.
   -9000007    1    1    2    0  503  0.12560153934E+03  0.36329800681E+03  0.90466476534E+02  0.56209018121E+03  0.40000000000E+03 0.  1.
<mgrwt>
<rscale>  2 0.55476228E+03</rscale>
<asrwt>0</asrwt>
<pdfrwt beam="1">  1       21 0.10514983E+00 0.55476228E+03</pdfrwt>
<pdfrwt beam="2">  1       21 0.69417368E-01 0.55476228E+03</pdfrwt>
<totfact> 0.11281158E+03</totfact>
</mgrwt>
</event>
<event>
 4    1  0.4897983E-002  0.4236604E+03  0.7818608E-02  0.1035882E+00
         21   -1    0    0  503  502  0.00000000000E+00  0.00000000000E+00  0.40889994492E+03  0.40889994492E+03  0.00000000000E+00 0. -1.
         21   -1    0    0  501  503 -0.00000000000E+00 -0.00000000000E+00 -0.47352133534E+03  0.47352133534E+03  0.00000000000E+00 0.  1.
    9000007    1    1    2  501    0 -0.11011840736E+03  0.85802283519E+02 -0.15152044560E+03  0.44994059711E+03  0.40000000000E+03 0.  1.
   -9000007    1    1    2    0  502  0.11011840736E+03 -0.85802283519E+02  0.86899055178E+02  0.43248068314E+03  0.40000000000E+03 0. -1.
<mgrwt>
<rscale>  2 0.42366035E+03</rscale>
<asrwt>0</asrwt>
<pdfrwt beam="1">  1       21 0.62907684E-01 0.42366035E+03</pdfrwt>
<pdfrwt beam="2">  1       21 0.72849436E-01 0.42366035E+03</pdfrwt>
<totfact> 0.34997689E+03</totfact>
</mgrwt>
</event>
<event>
 4    1  0.4897983E-002  0.4213795E+03  0.7818608E-02  0.1036618E+00
         21   -1    0    0  503  502  0.00000000000E+00  0.00000000000E+00  0.43067218185E+03  0.43067218185E+03  0.00000000000E+00 0. -1.
         21   -1    0    0  501  503 -0.00000000000E+00 -0.00000000000E+00 -0.45916799425E+03  0.45916799425E+03  0.00000000000E+00 0. -1.
    9000007    1    1    2  501    0 -0.59313685072E+00 -0.13251552185E+03  0.12791711396E+03  0.44036746404E+03  0.40000000000E+03 0.  1.
   -9000007    1    1    2    0  502  0.59313685072E+00  0.13251552185E+03 -0.15641292637E+03  0.44947271205E+03  0.40000000000E+03 0.  1.
<mgrwt>
<rscale>  2 0.42137954E+03</rscale>
<asrwt>0</asrwt>
<pdfrwt beam="1">  1       21 0.66257258E-01 0.42137954E+03</pdfrwt>
<pdfrwt beam="2">  1       21 0.70641230E-01 0.42137954E+03</pdfrwt>
<totfact> 0.33470655E+03</totfact>
</mgrwt>
</event>
<event>
 4    1  0.4897983E-002  0.5163096E+03  0.7818608E-02  0.1009607E+00
         21   -1    0    0  501  502  0.00000000000E+00  0.00000000000E+00  0.73588957454E+03  0.73588957454E+03  0.00000000000E+00 0. -1.
         21   -1    0    0  502  503 -0.00000000000E+00 -0.00000000000E+00 -0.56045325899E+03  0.56045325899E+03  0.00000000000E+00 0.  1.
    9000007    1    1    2  501    0  0.14790732280E+03 -0.29103099779E+03  0.47317533637E+03  0.70033600276E+03  0.40000000000E+03 0. -1.
   -9000007    1    1    2    0  503 -0.14790732280E+03  0.29103099779E+03 -0.29773902082E+03  0.59600683078E+03  0.40000000000E+03 0.  1.
<mgrwt>
<rscale>  2 0.51630961E+03</rscale>
<asrwt>0</asrwt>
<pdfrwt beam="1">  1       21 0.11321378E+00 0.51630961E+03</pdfrwt>
<pdfrwt beam="2">  1       21 0.86223578E-01 0.51630961E+03</pdfrwt>
<totfact> 0.57713088E+02</totfact>
</mgrwt>
</event>
<event>
 4    1  0.4897983E-002  0.4715752E+03  0.7818608E-02  0.1021477E+00
         21   -1    0    0  503  502  0.00000000000E+00  0.00000000000E+00  0.16907090011E+04  0.16907090011E+04  0.00000000000E+00 0. -1.
         21   -1    0    0  501  503 -0.00000000000E+00 -0.00000000000E+00 -0.17963794499E+03  0.17963794499E+03  0.00000000000E+00 0. -1.
    9000007    1    1    2  501    0 -0.86964158074E+02  0.23413760726E+03  0.27159694079E+03  0.54419489355E+03  0.40000000000E+03 0. -1.
   -9000007    1    1    2    0  502  0.86964158074E+02 -0.23413760726E+03  0.12394741153E+04  0.13261520525E+04  0.40000000000E+03 0. -1.
<mgrwt>
<rscale>  2 0.47157522E+03</rscale>
<asrwt>0</asrwt>
<pdfrwt beam="1">  1       21 0.26010907E+00 0.47157522E+03</pdfrwt>
<pdfrwt beam="2">  1       21 0.27636608E-01 0.47157522E+03</pdfrwt>
<totfact> 0.58098786E+02</totfact>
</mgrwt>
</event>
<event>
 4    1  0.4897983E-002  0.5302978E+03  0.7818608E-02  0.1006160E+00
         21   -1    0    0  503  502  0.00000000000E+00  0.00000000000E+00  0.14722819561E+04  0.14722819561E+04  0.00000000000E+00 0.  1.
         21   -1    0    0  501  503 -0.00000000000E+00 -0.00000000000E+00 -0.19176002588E+03  0.19176002588E+03  0.00000000000E+00 0.  1.
    9000007    1    1    2  501    0  0.33065105189E+03  0.10902127013E+03  0.58811276397E+03  0.79189164574E+03  0.40000000000E+03 0.  1.
   -9000007    1    1    2    0  502 -0.33065105189E+03 -0.10902127013E+03  0.69240916621E+03  0.87215033619E+03  0.40000000000E+03 0.  1.
<mgrwt>
<rscale>  2 0.53029780E+03</rscale>
<asrwt>0</asrwt>
<pdfrwt beam="1">  1       21 0.22650491E+00 0.53029780E+03</pdfrwt>
<pdfrwt beam="2">  1       21 0.29501543E-01 0.53029780E+03</pdfrwt>
<totfact> 0.80454403E+02</totfact>
</mgrwt>
</event>
<event>
 4    1  0.4897983E-002  0.4770740E+03  0.7818608E-02  0.1019942E+00
         21   -1    0    0  501  502  0.00000000000E+00  0.00000000000E+00  0.54984214645E+03  0.54984214645E+03  0.00000000000E+00 0.  1.
         21   -1    0    0  502  503 -0.00000000000E+00 -0.00000000000E+00 -0.41395866633E+03  0.41395866633E+03  0.00000000000E+00 0. -1.
    9000007    1    1    2  501    0  0.14050353664E+03  0.21876542649E+03  0.71493752544E+02  0.48240119432E+03  0.40000000000E+03 0. -1.
   -9000007    1    1    2    0  503 -0.14050353664E+03 -0.21876542649E+03  0.64389727568E+02  0.48139961846E+03  0.40000000000E+03 0. -1.
<mgrwt>
<rscale>  2 0.47707395E+03</rscale>
<asrwt>0</asrwt>
<pdfrwt beam="1">  1       21 0.84591100E-01 0.47707395E+03</pdfrwt>
<pdfrwt beam="2">  1       21 0.63685949E-01 0.47707395E+03</pdfrwt>
<totfact> 0.23690114E+03</totfact>
</mgrwt>
</event>
<event>
 4    1  0.4897983E-002  0.4994847E+03  0.7818608E-02  0.1013914E+00
         21   -1    0    0  501  502  0.00000000000E+00  0.00000000000E+00  0.59511384690E+03  0.59511384690E+03  0.00000000000E+00 0.  1.
         21   -1    0    0  502  503 -0.00000000000E+00 -0.00000000000E+00 -0.52909920941E+03  0.52909920941E+03  0.00000000000E+00 0.  1.
    9000007    1    1    2  501    0 -0.21280015794E+03  0.21024046902E+03  0.28916265176E+03  0.57714816226E+03  0.40000000000E+03 0.  1.
   -9000007    1    1    2    0  503  0.21280015794E+03 -0.21024046902E+03 -0.22314801426E+03  0.54706489405E+03  0.40000000000E+03 0.  1.
<mgrwt>
<rscale>  2 0.49948470E+03</rscale>
<asrwt>0</asrwt>
<pdfrwt beam="1">  1       21 0.91555976E-01 0.49948470E+03</pdfrwt>
<pdfrwt beam="2">  1       21 0.81399879E-01 0.49948470E+03</pdfrwt>
<totfact> 0.11171747E+03</totfact>
</mgrwt>
</event>
<event>
 4    1  0.4897983E-002  0.5054107E+03  0.7818608E-02  0.1012376E+00
         21   -1    0    0  501  502  0.00000000000E+00  0.00000000000E+00  0.42799685567E+03  0.42799685567E+03  0.00000000000E+00 0. -1.
         21   -1    0    0  502  503 -0.00000000000E+00 -0.00000000000E+00 -0.71836822625E+03  0.71836822625E+03  0.00000000000E+00 0.  1.
    9000007    1    1    2  501    0  0.31144621984E+02  0.30735970914E+03  0.90580558691E+02  0.51346354875E+03  0.40000000000E+03 0. -1.
   -9000007    1    1    2    0  503 -0.31144621984E+02 -0.30735970914E+03 -0.38095192927E+03  0.63290153317E+03  0.40000000000E+03 0. -1.
<mgrwt>
<rscale>  2 0.50541070E+03</rscale>
<asrwt>0</asrwt>
<pdfrwt beam="1">  1       21 0.65845670E-01 0.50541070E+03</pdfrwt>
<pdfrwt beam="2">  1       21 0.11051819E+00 0.50541070E+03</pdfrwt>
<totfact> 0.11414724E+03</totfact>
</mgrwt>
</event>
<event>
 4    1  0.4897983E-002  0.4161834E+03  0.7818608E-02  0.1038316E+00
         21   -1    0    0  501  502  0.00000000000E+00  0.00000000000E+00  0.13502434669E+04  0.13502434669E+04  0.00000000000E+00 0.  1.
         21   -1    0    0  502  503 -0.00000000000E+00 -0.00000000000E+00 -0.13934201067E+03  0.13934201067E+03  0.00000000000E+00 0. -1.
    9000007    1    1    2  501    0 -0.45363611720E+02  0.10559737911E+03  0.39559554779E+03  0.57419900834E+03  0.40000000000E+03 0. -1.
   -9000007    1    1    2    0  503  0.45363611720E+02 -0.10559737911E+03  0.81530590847E+03  0.91538646928E+03  0.40000000000E+03 0.  1.
<mgrwt>
<rscale>  2 0.41618345E+03</rscale>
<asrwt>0</asrwt>
<pdfrwt beam="1">  1       21 0.20772976E+00 0.41618345E+03</pdfrwt>
<pdfrwt beam="2">  1       21 0.21437233E-01 0.41618345E+03</pdfrwt>
<totfact> 0.20824858E+03</totfact>
</mgrwt>
</event>
<event>
 4    1  0.4897983E-002  0.4277535E+03  0.7818608E-02  0.1034572E+00
         21   -1    0    0  501  502  0.00000000000E+00  0.00000000000E+00  0.41320009067E+03  0.41320009067E+03  0.00000000000E+00 0.  1.
         21   -1    0    0  502  503 -0.00000000000E+00 -0.00000000000E+00 -0.46992638309E+03  0.46992638309E+03  0.00000000000E+00 0.  1.
    9000007    1    1    2  501    0  0.53828437014E+02 -0.14168831430E+03  0.77688488899E+02  0.43475117061E+03  0.40000000000E+03 0.  1.
   -9000007    1    1    2    0  503 -0.53828437014E+02  0.14168831430E+03 -0.13441478132E+03  0.44837530315E+03  0.40000000000E+03 0.  1.
<mgrwt>
<rscale>  2 0.42775353E+03</rscale>
<asrwt>0</asrwt>
<pdfrwt beam="1">  1       21 0.63569245E-01 0.42775353E+03</pdfrwt>
<pdfrwt beam="2">  1       21 0.72296367E-01 0.42775353E+03</pdfrwt>
<totfact> 0.34741534E+03</totfact>
</mgrwt>
</event>
<event>
 4    1  0.4897983E-002  0.4006294E+03  0.7818608E-02  0.1043562E+00
         21   -1    0    0  501  502  0.00000000000E+00  0.00000000000E+00  0.39868898723E+03  0.39868898723E+03  0.00000000000E+00 0. -1.
         21   -1    0    0  502  503 -0.00000000000E+00 -0.00000000000E+00 -0.55056246522E+03  0.55056246522E+03  0.00000000000E+00 0. -1.
    9000007    1    1    2  501    0 -0.22383249396E+02 -0.17134525462E+01  0.17013066375E+03  0.43525669268E+03  0.40000000000E+03 0. -1.
   -9000007    1    1    2    0  503  0.22383249396E+02  0.17134525462E+01 -0.32200414174E+03  0.51399475977E+03  0.40000000000E+03 0. -1.
<mgrwt>
<rscale>  2 0.40062944E+03</rscale>
<asrwt>0</asrwt>
<pdfrwt beam="1">  1       21 0.61336767E-01 0.40062944E+03</pdfrwt>
<pdfrwt beam="2">  1       21 0.84701917E-01 0.40062944E+03</pdfrwt>
<totfact> 0.26404741E+03</totfact>
</mgrwt>
</event>
<event>
 4    1  0.4897983E-002  0.4976494E+03  0.7818608E-02  0.1014394E+00
         21   -1    0    0  503  502  0.00000000000E+00  0.00000000000E+00  0.88032573070E+02  0.88032573070E+02  0.00000000000E+00 0. -1.
         21   -1    0    0  501  503 -0.00000000000E+00 -0.00000000000E+00 -0.28833293130E+04  0.28833293130E+04  0.00000000000E+00 0. -1.
    9000007    1    1    2  501    0  0.16211325292E+03  0.24773823341E+03 -0.11659791906E+04  0.12677390946E+04  0.40000000000E+03 0. -1.
   -9000007    1    1    2    0  502 -0.16211325292E+03 -0.24773823341E+03 -0.16293175493E+04  0.17036227915E+04  0.40000000000E+03 0. -1.
<mgrwt>
<rscale>  2 0.49764941E+03</rscale>
<asrwt>0</asrwt>
<pdfrwt beam="1">  1       21 0.13543475E-01 0.49764941E+03</pdfrwt>
<pdfrwt beam="2">  1       21 0.44358906E+00 0.49764941E+03</pdfrwt>
<totfact> 0.15866140E+02</totfact>
</mgrwt>
</event>
<event>
 4    1  0.4897983E-002  0.4189846E+03  0.7818608E-02  0.1037397E+00
         21   -1    0    0  503  502  0.00000000000E+00  0.00000000000E+00  0.61173819210E+03  0.61173819210E+03  0.00000000000E+00 0. -1.
         21   -1    0    0  501  503 -0.00000000000E+00 -0.00000000000E+00 -0.31330082794E+03  0.31330082794E+03  0.00000000000E+00 0. -1.
    9000007    1    1    2  501    0  0.83461822851E+02  0.92640213354E+02  0.15123177543E+02  0.41925743345E+03  0.40000000000E+03 0. -1.
   -9000007    1    1    2    0  502 -0.83461822851E+02 -0.92640213354E+02  0.28331418662E+03  0.50578158660E+03  0.40000000000E+03 0. -1.
<mgrwt>
<rscale>  2 0.41898459E+03</rscale>
<asrwt>0</asrwt>
<pdfrwt beam="1">  1       21 0.94113568E-01 0.41898459E+03</pdfrwt>
<pdfrwt beam="2">  1       21 0.48200127E-01 0.41898459E+03</pdfrwt>
<totfact> 0.34341002E+03</totfact>
</mgrwt>
</event>
<event>
 4    1  0.4897983E-002  0.4011214E+03  0.7818608E-02  0.1043392E+00
         21   -1    0    0  501  502  0.00000000000E+00  0.00000000000E+00  0.50148056955E+03  0.50148056955E+03  0.00000000000E+00 0. -1.
         21   -1    0    0  502  503 -0.00000000000E+00 -0.00000000000E+00 -0.82987322213E+03  0.82987322213E+03  0.00000000000E+00 0. -1.
    9000007    1    1    2  501    0  0.26746349365E+02 -0.13528131403E+02  0.35715180462E+03  0.53708080312E+03  0.40000000000E+03 0. -1.
   -9000007    1    1    2    0  503 -0.26746349365E+02  0.13528131403E+02 -0.68554445721E+03  0.79427298856E+03  0.40000000000E+03 0. -1.
<mgrwt>
<rscale>  2 0.40112140E+03</rscale>
<asrwt>0</asrwt>
<pdfrwt beam="1">  1       21 0.77150858E-01 0.40112140E+03</pdfrwt>
<pdfrwt beam="2">  1       21 0.12767280E+00 0.40112140E+03</pdfrwt>
<totfact> 0.57896855E+02</totfact>
</mgrwt>
</event>
<event>
 4    1  0.4897983E-002  0.4061680E+03  0.7818608E-02  0.1041665E+00
         21   -1    0    0  503  502  0.00000000000E+00  0.00000000000E+00  0.21119126879E+03  0.21119126879E+03  0.00000000000E+00 0. -1.
         21   -1    0    0  501  503 -0.00000000000E+00 -0.00000000000E+00 -0.15793594494E+04  0.15793594494E+04  0.00000000000E+00 0. -1.
    9000007    1    1    2  501    0 -0.61140888495E+02  0.35131437495E+02 -0.13205484658E+04  0.13816007660E+04  0.40000000000E+03 0.  1.
   -9000007    1    1    2    0  502  0.61140888495E+02 -0.35131437495E+02 -0.47619714808E+02  0.40894995218E+03  0.40000000000E+03 0.  1.
<mgrwt>
<rscale>  2 0.40616798E+03</rscale>
<asrwt>0</asrwt>
<pdfrwt beam="1">  1       21 0.32490965E-01 0.40616798E+03</pdfrwt>
<pdfrwt beam="2">  1       21 0.24297838E+00 0.40616798E+03</pdfrwt>
<totfact> 0.55577394E+02</totfact>
</mgrwt>
</event>
<event>
 4    1  0.4897983E-002  0.6538867E+03  0.7818608E-02  0.9799513E-01
         21   -1    0    0  501  502  0.00000000000E+00  0.00000000000E+00  0.39130210531E+03  0.39130210531E+03  0.00000000000E+00 0.  1.
         21   -1    0    0  502  503 -0.00000000000E+00 -0.00000000000E+00 -0.11318093719E+04  0.11318093719E+04  0.00000000000E+00 0. -1.
    9000007    1    1    2  501    0  0.51358063932E+03 -0.61666350637E+02 -0.22865177996E+03  0.69271166322E+03  0.40000000000E+03 0.  1.
   -9000007    1    1    2    0  503 -0.51358063932E+03  0.61666350637E+02 -0.51185548665E+03  0.83039981401E+03  0.40000000000E+03 0. -1.
<mgrwt>
<rscale>  2 0.65388670E+03</rscale>
<asrwt>0</asrwt>
<pdfrwt beam="1">  1       21 0.60200324E-01 0.65388670E+03</pdfrwt>
<pdfrwt beam="2">  1       21 0.17412452E+00 0.65388670E+03</pdfrwt>
<totfact> 0.39165625E+02</totfact>
</mgrwt>
</event>
<event>
 4    1  0.4897983E-002  0.4272211E+03  0.7818608E-02  0.1034741E+00
         21   -1    0    0  501  502  0.00000000000E+00  0.00000000000E+00  0.22940018436E+03  0.22940018436E+03  0.00000000000E+00 0. -1.
         21   -1    0    0  502  503 -0.00000000000E+00 -0.00000000000E+00 -0.92016882021E+03  0.92016882021E+03  0.00000000000E+00 0.  1.
    9000007    1    1    2  501    0 -0.12920286339E+03 -0.76318195153E+02 -0.13392719791E+03  0.44772127620E+03  0.40000000000E+03 0. -1.
   -9000007    1    1    2    0  503  0.12920286339E+03  0.76318195153E+02 -0.55684143794E+03  0.70184772838E+03  0.40000000000E+03 0.  1.
<mgrwt>
<rscale>  2 0.42722107E+03</rscale>
<asrwt>0</asrwt>
<pdfrwt beam="1">  1       21 0.35292336E-01 0.42722107E+03</pdfrwt>
<pdfrwt beam="2">  1       21 0.14156443E+00 0.42722107E+03</pdfrwt>
<totfact> 0.23353489E+03</totfact>
</mgrwt>
</event>
<event>
 4    1  0.4897983E-002  0.4619818E+03  0.7818608E-02  0.1024208E+00
         21   -1    0    0  501  502  0.00000000000E+00  0.00000000000E+00  0.82094054416E+03  0.82094054416E+03  0.00000000000E+00 0. -1.
         21   -1    0    0  502  503 -0.00000000000E+00 -0.00000000000E+00 -0.26005576300E+03  0.26005576300E+03  0.00000000000E+00 0. -1.
    9000007    1    1    2  501    0  0.76305793641E+02  0.21818486458E+03  0.27114940411E+03  0.53567640290E+03  0.40000000000E+03 0. -1.
   -9000007    1    1    2    0  503 -0.76305793641E+02 -0.21818486458E+03  0.28973537704E+03  0.54531990426E+03  0.40000000000E+03 0. -1.
<mgrwt>
<rscale>  2 0.46198183E+03</rscale>
<asrwt>0</asrwt>
<pdfrwt beam="1">  1       21 0.12629854E+00 0.46198183E+03</pdfrwt>
<pdfrwt beam="2">  1       21 0.40008579E-01 0.46198183E+03</pdfrwt>
<totfact> 0.24044439E+03</totfact>
</mgrwt>
</event>
<event>
 4    1  0.4897983E-002  0.4728831E+03  0.7818608E-02  0.1021110E+00
         21   -1    0    0  503  502  0.00000000000E+00  0.00000000000E+00  0.58636389553E+03  0.58636389553E+03  0.00000000000E+00 0.  1.
         21   -1    0    0  501  503 -0.00000000000E+00 -0.00000000000E+00 -0.73678316337E+03  0.73678316337E+03  0.00000000000E+00 0. -1.
    9000007    1    1    2  501    0  0.13625807742E+03  0.21225498179E+03 -0.53470201886E+03  0.71380998167E+03  0.40000000000E+03 0. -1.
   -9000007    1    1    2    0  502 -0.13625807742E+03 -0.21225498179E+03  0.38428275102E+03  0.60933707723E+03  0.40000000000E+03 0.  1.
<mgrwt>
<rscale>  2 0.47288312E+03</rscale>
<asrwt>0</asrwt>
<pdfrwt beam="1">  1       21 0.90209830E-01 0.47288312E+03</pdfrwt>
<pdfrwt beam="2">  1       21 0.11335126E+00 0.47288312E+03</pdfrwt>
<totfact> 0.52623439E+02</totfact>
</mgrwt>
</event>
<event>
 4    1  0.4897983E-002  0.6549313E+03  0.7818608E-02  0.9797570E-01
         21   -1    0    0  503  502  0.00000000000E+00  0.00000000000E+00  0.31809707411E+03  0.31809707411E+03  0.00000000000E+00 0.  1.
         21   -1    0    0  501  503 -0.00000000000E+00 -0.00000000000E+00 -0.25641565169E+04  0.25641565169E+04  0.00000000000E+00 0. -1.
    9000007    1    1    2  501    0  0.49546508602E+03  0.15313192413E+03 -0.21153365118E+04  0.22144036660E+04  0.40000000000E+03 0. -1.
   -9000007    1    1    2    0  502 -0.49546508602E+03 -0.15313192413E+03 -0.13072293094E+03  0.66784992500E+03  0.40000000000E+03 0.  1.
<mgrwt>
<rscale>  2 0.65493132E+03</rscale>
<asrwt>0</asrwt>
<pdfrwt beam="1">  1       21 0.48938012E-01 0.65493132E+03</pdfrwt>
<pdfrwt beam="2">  1       21 0.39448561E+00 0.65493132E+03</pdfrwt>
<totfact> 0.24351497E+01</totfact>
</mgrwt>
</event>
<event>
 4    1  0.4897983E-002  0.4049725E+03  0.7818608E-02  0.1042071E+00
         21   -1    0    0  501  502  0.00000000000E+00  0.00000000000E+00  0.14131002663E+03  0.14131002663E+03  0.00000000000E+00 0. -1.
         21   -1    0    0  502  503 -0.00000000000E+00 -0.00000000000E+00 -0.20014086599E+04  0.20014086599E+04  0.00000000000E+00 0. -1.
    9000007    1    1    2  501    0 -0.28193432054E+02 -0.56637889258E+02 -0.23563452484E+03  0.46853639070E+03  0.40000000000E+03 0. -1.
   -9000007    1    1    2    0  503  0.28193432054E+02  0.56637889258E+02 -0.16244641084E+04  0.16741822958E+04  0.40000000000E+03 0. -1.
<mgrwt>
<rscale>  2 0.40497249E+03</rscale>
<asrwt>0</asrwt>
<pdfrwt beam="1">  1       21 0.21740004E-01 0.40497249E+03</pdfrwt>
<pdfrwt beam="2">  1       21 0.30790903E+00 0.40497249E+03</pdfrwt>
<totfact> 0.49544538E+02</totfact>
</mgrwt>
</event>
<event>
 4    1  0.4897983E-002  0.5132697E+03  0.7818608E-02  0.1010372E+00
         21   -1    0    0  501  502  0.00000000000E+00  0.00000000000E+00  0.14470939306E+04  0.14470939306E+04  0.00000000000E+00 0.  1.
         21   -1    0    0  502  503 -0.00000000000E+00 -0.00000000000E+00 -0.35280223269E+03  0.35280223269E+03  0.00000000000E+00 0.  1.
    9000007    1    1    2  501    0 -0.23088980909E+03  0.22391005652E+03  0.11732302857E+04  0.12805917073E+04  0.40000000000E+03 0.  1.
   -9000007    1    1    2    0  503  0.23088980909E+03 -0.22391005652E+03 -0.78938587858E+02  0.51930445599E+03  0.40000000000E+03 0.  1.
<mgrwt>
<rscale>  2 0.51326973E+03</rscale>
<asrwt>0</asrwt>
<pdfrwt beam="1">  1       21 0.22262983E+00 0.51326973E+03</pdfrwt>
<pdfrwt beam="2">  1       21 0.54277267E-01 0.51326973E+03</pdfrwt>
<totfact> 0.24297613E+02</totfact>
</mgrwt>
</event>
<event>
 4    1  0.4897983E-002  0.4105650E+03  0.7818608E-02  0.1040182E+00
         21   -1    0    0  501  502  0.00000000000E+00  0.00000000000E+00  0.55681421097E+03  0.55681421097E+03  0.00000000000E+00 0. -1.
         21   -1    0    0  502  503 -0.00000000000E+00 -0.00000000000E+00 -0.42258253580E+03  0.42258253580E+03  0.00000000000E+00 0. -1.
    9000007    1    1    2  501    0  0.20679836934E+02  0.90199366025E+02  0.32791071471E+03  0.52544173617E+03  0.40000000000E+03 0. -1.
   -9000007    1    1    2    0  503 -0.20679836934E+02 -0.90199366025E+02 -0.19367903955E+03  0.45395501060E+03  0.40000000000E+03 0. -1.
<mgrwt>
<rscale>  2 0.41056495E+03</rscale>
<asrwt>0</asrwt>
<pdfrwt beam="1">  1       21 0.85663725E-01 0.41056495E+03</pdfrwt>
<pdfrwt beam="2">  1       21 0.65012698E-01 0.41056495E+03</pdfrwt>
<totfact> 0.22526436E+03</totfact>
</mgrwt>
</event>
<event>
 4    1  0.4897983E-002  0.4664820E+03  0.7818608E-02  0.1022918E+00
         21   -1    0    0  501  502  0.00000000000E+00  0.00000000000E+00  0.95964387457E+03  0.95964387457E+03  0.00000000000E+00 0.  1.
         21   -1    0    0  502  503 -0.00000000000E+00 -0.00000000000E+00 -0.53299845624E+03  0.53299845624E+03  0.00000000000E+00 0.  1.
    9000007    1    1    2  501    0 -0.25236633638E+02 -0.23868093416E+03  0.77903437597E+03  0.90801984282E+03  0.40000000000E+03 0.  1.
   -9000007    1    1    2    0  503  0.25236633638E+02  0.23868093416E+03 -0.35238895763E+03  0.58462248799E+03  0.40000000000E+03 0.  1.
<mgrwt>
<rscale>  2 0.46648202E+03</rscale>
<asrwt>0</asrwt>
<pdfrwt beam="1">  1       21 0.14763752E+00 0.46648202E+03</pdfrwt>
<pdfrwt beam="2">  1       21 0.81999762E-01 0.46648202E+03</pdfrwt>
<totfact> 0.33221806E+02</totfact>
</mgrwt>
</event>
<event>
 4    1  0.4897983E-002  0.4499198E+03  0.7818608E-02  0.1027746E+00
         21   -1    0    0  501  502  0.00000000000E+00  0.00000000000E+00  0.45394176189E+03  0.45394176189E+03  0.00000000000E+00 0.  1.
         21   -1    0    0  502  503 -0.00000000000E+00 -0.00000000000E+00 -0.45246950813E+03  0.45246950813E+03  0.00000000000E+00 0.  1.
    9000007    1    1    2  501    0  0.22441623751E+01 -0.20596787983E+03 -0.53734138105E+02  0.45311716077E+03  0.40000000000E+03 0.  1.
   -9000007    1    1    2    0  503 -0.22441623751E+01  0.20596787983E+03  0.55206391864E+02  0.45329410926E+03  0.40000000000E+03 0.  1.
<mgrwt>
<rscale>  2 0.44991977E+03</rscale>
<asrwt>0</asrwt>
<pdfrwt beam="1">  1       21 0.69837195E-01 0.44991977E+03</pdfrwt>
<pdfrwt beam="2">  1       21 0.69610693E-01 0.44991977E+03</pdfrwt>
<totfact> 0.30436146E+03</totfact>
</mgrwt>
</event>
<event>
 4    1  0.4897983E-002  0.5503130E+03  0.7818608E-02  0.1001422E+00
         21   -1    0    0  503  502  0.00000000000E+00  0.00000000000E+00  0.11144659839E+04  0.11144659839E+04  0.00000000000E+00 0.  1.
         21   -1    0    0  501  503 -0.00000000000E+00 -0.00000000000E+00 -0.47989745400E+03  0.47989745400E+03  0.00000000000E+00 0.  1.
    9000007    1    1    2  501    0  0.24009920500E+03 -0.29188488182E+03 -0.20774030620E+03  0.58821802701E+03  0.40000000000E+03 0.  1.
   -9000007    1    1    2    0  502 -0.24009920500E+03  0.29188488182E+03  0.84230883610E+03  0.10061454109E+04  0.40000000000E+03 0.  1.
<mgrwt>
<rscale>  2 0.55031301E+03</rscale>
<asrwt>0</asrwt>
<pdfrwt beam="1">  1       21 0.17145630E+00 0.55031301E+03</pdfrwt>
<pdfrwt beam="2">  1       21 0.73830378E-01 0.55031301E+03</pdfrwt>
<totfact> 0.26880372E+02</totfact>
</mgrwt>
</event>
<event>
 4    1  0.4897983E-002  0.4543837E+03  0.7818608E-02  0.1026423E+00
         21   -1    0    0  501  502  0.00000000000E+00  0.00000000000E+00  0.26304374564E+03  0.26304374564E+03  0.00000000000E+00 0.  1.
         21   -1    0    0  502  503 -0.00000000000E+00 -0.00000000000E+00 -0.16707132587E+04  0.16707132587E+04  0.00000000000E+00 0. -1.
    9000007    1    1    2  501    0  0.19522215924E+03  0.91393716833E+02  0.19443295789E+00  0.45438369330E+03  0.40000000000E+03 0.  1.
   -9000007    1    1    2    0  503 -0.19522215924E+03 -0.91393716833E+02 -0.14078639460E+04  0.14793733110E+04  0.40000000000E+03 0. -1.
<mgrwt>
<rscale>  2 0.45438365E+03</rscale>
<asrwt>0</asrwt>
<pdfrwt beam="1">  1       21 0.40468268E-01 0.45438365E+03</pdfrwt>
<pdfrwt beam="2">  1       21 0.25703281E+00 0.45438365E+03</pdfrwt>
<totfact> 0.28393820E+02</totfact>
</mgrwt>
</event>
<event>
 4    1  0.4897983E-002  0.4051683E+03  0.7818608E-02  0.1042005E+00
         21   -1    0    0  501  502  0.00000000000E+00  0.00000000000E+00  0.73822404720E+02  0.73822404720E+02  0.00000000000E+00 0. -1.
         21   -1    0    0  502  503 -0.00000000000E+00 -0.00000000000E+00 -0.22331003643E+04  0.22331003643E+04  0.00000000000E+00 0. -1.
    9000007    1    1    2  501    0  0.55742845474E+02  0.32466437432E+02 -0.10049335193E+04  0.10835371302E+04  0.40000000000E+03 0.  1.
   -9000007    1    1    2    0  503 -0.55742845474E+02 -0.32466437432E+02 -0.11543444403E+04  0.12233856388E+04  0.40000000000E+03 0.  1.
<mgrwt>
<rscale>  2 0.40516828E+03</rscale>
<asrwt>0</asrwt>
<pdfrwt beam="1">  1       21 0.11357292E-01 0.40516828E+03</pdfrwt>
<pdfrwt beam="2">  1       21 0.34355394E+00 0.40516828E+03</pdfrwt>
<totfact> 0.10104943E+03</totfact>
</mgrwt>
</event>
<event>
 4    1  0.4897983E-002  0.4100146E+03  0.7818608E-02  0.1040366E+00
         21   -1    0    0  503  502  0.00000000000E+00  0.00000000000E+00  0.10908964045E+04  0.10908964045E+04  0.00000000000E+00 0.  1.
         21   -1    0    0  501  503 -0.00000000000E+00 -0.00000000000E+00 -0.16830134127E+03  0.16830134127E+03  0.00000000000E+00 0. -1.
    9000007    1    1    2  501    0 -0.13448701837E+02  0.89056957518E+02  0.27843845714E+03  0.49562080634E+03  0.40000000000E+03 0. -1.
   -9000007    1    1    2    0  502  0.13448701837E+02 -0.89056957518E+02  0.64415660605E+03  0.76357693940E+03  0.40000000000E+03 0.  1.
<mgrwt>
<rscale>  2 0.41001465E+03</rscale>
<asrwt>0</asrwt>
<pdfrwt beam="1">  1       21 0.16783021E+00 0.41001465E+03</pdfrwt>
<pdfrwt beam="2">  1       21 0.25892515E-01 0.41001465E+03</pdfrwt>
<totfact> 0.27291073E+03</totfact>
</mgrwt>
</event>
<event>
 4    1  0.4897983E-002  0.5572074E+03  0.7818608E-02  0.9998393E-01
         21   -1    0    0  503  502  0.00000000000E+00  0.00000000000E+00  0.52549374831E+03  0.52549374831E+03  0.00000000000E+00 0.  1.
         21   -1    0    0  501  503 -0.00000000000E+00 -0.00000000000E+00 -0.76837059912E+03  0.76837059912E+03  0.00000000000E+00 0. -1.
    9000007    1    1    2  501    0 -0.38789374231E+03  0.43070022863E+01 -0.43240670443E+03  0.70530536906E+03  0.40000000000E+03 0. -1.
   -9000007    1    1    2    0  502  0.38789374231E+03 -0.43070022863E+01  0.18952985362E+03  0.58855897836E+03  0.40000000000E+03 0.  1.
<mgrwt>
<rscale>  2 0.55720742E+03</rscale>
<asrwt>0</asrwt>
<pdfrwt beam="1">  1       21 0.80845192E-01 0.55720742E+03</pdfrwt>
<pdfrwt beam="2">  1       21 0.11821086E+00 0.55720742E+03</pdfrwt>
<totfact> 0.59300633E+02</totfact>
</mgrwt>
</event>
<event>
 4    1  0.4897983E-002  0.4669554E+03  0.7818608E-02  0.1022783E+00
         21   -1    0    0  503  502  0.00000000000E+00  0.00000000000E+00  0.51727349185E+03  0.51727349185E+03  0.00000000000E+00 0.  1.
         21   -1    0    0  501  503 -0.00000000000E+00 -0.00000000000E+00 -0.44778433631E+03  0.44778433631E+03  0.00000000000E+00 0. -1.
    9000007    1    1    2  501    0 -0.91306243933E+02 -0.22295854029E+03 -0.82090349426E+02  0.47411619498E+03  0.40000000000E+03 0.  1.
   -9000007    1    1    2    0  502  0.91306243933E+02  0.22295854029E+03  0.15157950497E+03  0.49094163319E+03  0.40000000000E+03 0. -1.
<mgrwt>
<rscale>  2 0.46695539E+03</rscale>
<asrwt>0</asrwt>
<pdfrwt beam="1">  1       21 0.79580538E-01 0.46695539E+03</pdfrwt>
<pdfrwt beam="2">  1       21 0.68889898E-01 0.46695539E+03</pdfrwt>
<totfact> 0.22994434E+03</totfact>
</mgrwt>
</event>
<event>
 4    1  0.4897983E-002  0.4215471E+03  0.7818608E-02  0.1036564E+00
         21   -1    0    0  503  502  0.00000000000E+00  0.00000000000E+00  0.55685944475E+03  0.55685944475E+03  0.00000000000E+00 0.  1.
         21   -1    0    0  501  503 -0.00000000000E+00 -0.00000000000E+00 -0.34348636956E+03  0.34348636956E+03  0.00000000000E+00 0.  1.
    9000007    1    1    2  501    0  0.11981886833E+03 -0.57839150955E+02 -0.13227199497E+02  0.42175453453E+03  0.40000000000E+03 0. -1.
   -9000007    1    1    2    0  502 -0.11981886833E+03  0.57839150955E+02  0.22660027468E+03  0.47859127978E+03  0.40000000000E+03 0. -1.
<mgrwt>
<rscale>  2 0.42154707E+03</rscale>
<asrwt>0</asrwt>
<pdfrwt beam="1">  1       21 0.85670684E-01 0.42154707E+03</pdfrwt>
<pdfrwt beam="2">  1       21 0.52844057E-01 0.42154707E+03</pdfrwt>
<totfact> 0.35228910E+03</totfact>
</mgrwt>
</event>
<event>
 4    1  0.4897983E-002  0.4217241E+03  0.7818608E-02  0.1036507E+00
         21   -1    0    0  503  502  0.00000000000E+00  0.00000000000E+00  0.14115359302E+03  0.14115359302E+03  0.00000000000E+00 0.  1.
         21   -1    0    0  501  503 -0.00000000000E+00 -0.00000000000E+00 -0.15023258810E+04  0.15023258810E+04  0.00000000000E+00 0.  1.
    9000007    1    1    2  501    0 -0.18036161799E+02  0.13238562131E+03 -0.10106261096E+04  0.10950873889E+04  0.40000000000E+03 0. -1.
   -9000007    1    1    2    0  502  0.18036161799E+02 -0.13238562131E+03 -0.35054617836E+03  0.54839208513E+03  0.40000000000E+03 0. -1.
<mgrwt>
<rscale>  2 0.42172415E+03</rscale>
<asrwt>0</asrwt>
<pdfrwt beam="1">  1       21 0.21715938E-01 0.42172415E+03</pdfrwt>
<pdfrwt beam="2">  1       21 0.23112705E+00 0.42172415E+03</pdfrwt>
<totfact> 0.14363480E+03</totfact>
</mgrwt>
</event>
<event>
 4    1  0.4897983E-002  0.4065896E+03  0.7818608E-02  0.1041522E+00
         21   -1    0    0  503  502  0.00000000000E+00  0.00000000000E+00  0.50410287795E+03  0.50410287795E+03  0.00000000000E+00 0. -1.
         21   -1    0    0  501  503 -0.00000000000E+00 -0.00000000000E+00 -0.33286205286E+03  0.33286205286E+03  0.00000000000E+00 0. -1.
    9000007    1    1    2  501    0 -0.31624955610E+02 -0.65688232937E+02  0.34727809432E+02  0.40806997257E+03  0.40000000000E+03 0. -1.
   -9000007    1    1    2    0  502  0.31624955610E+02  0.65688232937E+02  0.13651301565E+03  0.42889495824E+03  0.40000000000E+03 0. -1.
<mgrwt>
<rscale>  2 0.40658957E+03</rscale>
<asrwt>0</asrwt>
<pdfrwt beam="1">  1       21 0.77554289E-01 0.40658957E+03</pdfrwt>
<pdfrwt beam="2">  1       21 0.51209546E-01 0.40658957E+03</pdfrwt>
<totfact> 0.47697787E+03</totfact>
</mgrwt>
</event>
<event>
 4    1  0.4897983E-002  0.4327379E+03  0.7818608E-02  0.1032999E+00
         21   -1    0    0  503  502  0.00000000000E+00  0.00000000000E+00  0.16358193802E+03  0.16358193802E+03  0.00000000000E+00 0.  1.
         21   -1    0    0  501  503 -0.00000000000E+00 -0.00000000000E+00 -0.15728966155E+04  0.15728966155E+04  0.00000000000E+00 0.  1.
    9000007    1    1    2  501    0 -0.85606204070E+01  0.16489037500E+03 -0.11576387047E+04  0.12358760013E+04  0.40000000000E+03 0.  1.
   -9000007    1    1    2    0  502  0.85606204070E+01 -0.16489037500E+03 -0.25167597273E+03  0.50060255217E+03  0.40000000000E+03 0.  1.
<mgrwt>
<rscale>  2 0.43273793E+03</rscale>
<asrwt>0</asrwt>
<pdfrwt beam="1">  1       21 0.25166451E-01 0.43273793E+03</pdfrwt>
<pdfrwt beam="2">  1       21 0.24198410E+00 0.43273793E+03</pdfrwt>
<totfact> 0.91972102E+02</totfact>
</mgrwt>
</event>
<event>
 4    1  0.4897983E-002  0.4210272E+03  0.7818608E-02  0.1036733E+00
         21   -1    0    0  501  502  0.00000000000E+00  0.00000000000E+00  0.17371671904E+03  0.17371671904E+03  0.00000000000E+00 0.  1.
         21   -1    0    0  502  503 -0.00000000000E+00 -0.00000000000E+00 -0.10455067618E+04  0.10455067618E+04  0.00000000000E+00 0.  1.
    9000007    1    1    2  501    0  0.10677066134E+03  0.76576067667E+02 -0.34146295648E+03  0.54208930898E+03  0.40000000000E+03 0.  1.
   -9000007    1    1    2    0  503 -0.10677066134E+03 -0.76576067667E+02 -0.53032708626E+03  0.67713417185E+03  0.40000000000E+03 0.  1.
<mgrwt>
<rscale>  2 0.42102716E+03</rscale>
<asrwt>0</asrwt>
<pdfrwt beam="1">  1       21 0.26725649E-01 0.42102716E+03</pdfrwt>
<pdfrwt beam="2">  1       21 0.16084720E+00 0.42102716E+03</pdfrwt>
<totfact> 0.28768636E+03</totfact>
</mgrwt>
</event>
<event>
 4    1  0.4897983E-002  0.4200842E+03  0.7818608E-02  0.1037039E+00
         21   -1    0    0  501  502  0.00000000000E+00  0.00000000000E+00  0.44383110746E+03  0.44383110746E+03  0.00000000000E+00 0. -1.
         21   -1    0    0  502  503 -0.00000000000E+00 -0.00000000000E+00 -0.40069023469E+03  0.40069023469E+03  0.00000000000E+00 0. -1.
    9000007    1    1    2  501    0  0.30555799141E+02 -0.12464786945E+03 -0.15464974140E+02  0.42036878291E+03  0.40000000000E+03 0. -1.
   -9000007    1    1    2    0  503 -0.30555799141E+02  0.12464786945E+03  0.58605846902E+02  0.42415255924E+03  0.40000000000E+03 0. -1.
<mgrwt>
<rscale>  2 0.42008422E+03</rscale>
<asrwt>0</asrwt>
<pdfrwt beam="1">  1       21 0.68281709E-01 0.42008422E+03</pdfrwt>
<pdfrwt beam="2">  1       21 0.61644651E-01 0.42008422E+03</pdfrwt>
<totfact> 0.42396084E+03</totfact>
</mgrwt>
</event>
<event>
 4    1  0.4897983E-002  0.5254152E+03  0.7818608E-02  0.1007350E+00
         21   -1    0    0  501  502  0.00000000000E+00  0.00000000000E+00  0.66386214708E+03  0.66386214708E+03  0.00000000000E+00 0.  1.
         21   -1    0    0  502  503 -0.00000000000E+00 -0.00000000000E+00 -0.63644284297E+03  0.63644284297E+03  0.00000000000E+00 0.  1.
    9000007    1    1    2  501    0 -0.51075605578E+02 -0.33682702534E+03 -0.36906220943E+03  0.64208105167E+03  0.40000000000E+03 0.  1.
   -9000007    1    1    2    0  503  0.51075605578E+02  0.33682702534E+03  0.39648151354E+03  0.65822393838E+03  0.40000000000E+03 0.  1.
<mgrwt>
<rscale>  2 0.52541523E+03</rscale>
<asrwt>0</asrwt>
<pdfrwt beam="1">  1       21 0.10213264E+00 0.52541523E+03</pdfrwt>
<pdfrwt beam="2">  1       21 0.97914284E-01 0.52541523E+03</pdfrwt>
<totfact> 0.54814351E+02</totfact>
</mgrwt>
</event>
