<event>
 6    1  0.8938744E-004  0.4249649E+03  0.7818608E-02  0.1035462E+00
          2   -1    0    0  502    0  0.00000000000E+00  0.00000000000E+00  0.17345197296E+04  0.17345197296E+04  0.00000000000E+00 0.  1.
         -2   -1    0    0    0  501 -0.00000000000E+00 -0.00000000000E+00 -0.22166341750E+03  0.22166341750E+03  0.00000000000E+00 0. -1.
    9000007    2    1    2  502    0 -0.13684036950E+02  0.13954033013E+03  0.45101030873E+02  0.42845138982E+03  0.40234032094E+03 0.  0.
    9000005    1    3    3    0    0  0.12658295471E+03  0.25746071785E+02 -0.12542416476E+03  0.18005089762E+03  0.99999687468E+00 0.  0.
          4    1    3    3  502    0 -0.14026699166E+03  0.11379425835E+03  0.17052519563E+03  0.24840049220E+03  0.00000000000E+00 0.  1.
   -9000007    1    1    2    0  501  0.13684036950E+02 -0.13954033013E+03  0.14677552813E+04  0.15277317573E+04  0.40000000000E+03 0.  1.
<mgrwt>
<rscale>  2 0.42496492E+03</rscale>
<asrwt>0</asrwt>
<pdfrwt beam="1">  1        2 0.26684918E+00 0.42496492E+03</pdfrwt>
<pdfrwt beam="2">  1       -2 0.34102065E-01 0.42496492E+03</pdfrwt>
<totfact> 0.80744703E+01</totfact>
</mgrwt>
</event>
<event>
 6    1  0.8938744E-004  0.4022135E+03  0.7818608E-02  0.1043016E+00
         -2   -1    0    0    0  501 -0.00000000000E+00  0.00000000000E+00  0.72808619144E+02  0.72808619144E+02  0.00000000000E+00 0. -1.
          2   -1    0    0  502    0  0.00000000000E+00 -0.00000000000E+00 -0.24081477829E+04  0.24081477829E+04  0.00000000000E+00 0.  1.
    9000007    2    1    2  502    0  0.36501826028E+02 -0.22849519835E+02 -0.82245617818E+03  0.91549499661E+03  0.39980300141E+03 0.  0.
    9000005    1    3    3    0    0  0.15615542523E+02 -0.19235126131E+03 -0.23698666098E+03  0.30562481963E+03  0.99999687468E+00 0.  0.
          4    1    3    3  502    0  0.20886283504E+02  0.16950174148E+03 -0.58546951719E+03  0.60987017698E+03  0.00000000000E+00 0.  1.
   -9000007    1    1    2    0  501 -0.36501826028E+02  0.22849519835E+02 -0.15128829856E+04  0.15654614055E+04  0.40000000000E+03 0. -1.
<mgrwt>
<rscale>  2 0.40221348E+03</rscale>
<asrwt>0</asrwt>
<pdfrwt beam="1">  1        2 0.37048431E+00 0.40221348E+03</pdfrwt>
<pdfrwt beam="2">  1       -2 0.11201325E-01 0.40221348E+03</pdfrwt>
<totfact> 0.24262579E+02</totfact>
</mgrwt>
</event>
<event>
 6    1  0.8938744E-004  0.4305553E+03  0.7818608E-02  0.1033685E+00
          1   -1    0    0  502    0  0.00000000000E+00  0.00000000000E+00  0.37040339171E+03  0.37040339171E+03  0.00000000000E+00 0.  1.
         -1   -1    0    0    0  501 -0.00000000000E+00 -0.00000000000E+00 -0.59630100162E+03  0.59630100162E+03  0.00000000000E+00 0. -1.
    9000007    2    1    2  502    0 -0.69540449442E+02 -0.14370855439E+03  0.80842342697E+02  0.43795358128E+03  0.39972469560E+03 0.  0.
    9000005    1    3    3    0    0  0.52774066067E+02 -0.18135010208E+03  0.19135223143E+03  0.26886732423E+03  0.99999687468E+00 0.  0.
          4    1    3    3  502    0 -0.12231451551E+03  0.37641547691E+02 -0.11050988873E+03  0.16908625705E+03  0.00000000000E+00 0.  1.
   -9000007    1    1    2    0  501  0.69540449442E+02  0.14370855439E+03 -0.30673995261E+03  0.52875081205E+03  0.40000000000E+03 0. -1.
<mgrwt>
<rscale>  2 0.43055535E+03</rscale>
<asrwt>0</asrwt>
<pdfrwt beam="1">  1        1 0.56985137E-01 0.43055535E+03</pdfrwt>
<pdfrwt beam="2">  1       -1 0.91738617E-01 0.43055535E+03</pdfrwt>
<totfact> 0.80612891E+01</totfact>
</mgrwt>
</event>
<event>
 6    1  0.8938744E-004  0.4988539E+03  0.7818608E-02  0.1014079E+00
          1   -1    0    0  502    0  0.00000000000E+00  0.00000000000E+00  0.14969070018E+04  0.14969070018E+04  0.00000000000E+00 0.  1.
         -1   -1    0    0    0  501 -0.00000000000E+00 -0.00000000000E+00 -0.22575600534E+03  0.22575600534E+03  0.00000000000E+00 0. -1.
    9000007    2    1    2  502    0 -0.29819977627E+03  0.11448358662E+02  0.10776148027E+04  0.11873963168E+04  0.39950241384E+03 0.  0.
    9000005    1    3    3    0    0 -0.12903255140E+03  0.90257324915E+02  0.88105835245E+02  0.18044229610E+03  0.99999687468E+00 0.  0.
          4    1    3    3  502    0 -0.16916722487E+03 -0.78808966254E+02  0.98950896749E+03  0.10069540207E+04  0.00000000000E+00 0.  1.
   -9000007    1    1    2    0  501  0.29819977627E+03 -0.11448358662E+02  0.19353619373E+03  0.53526669032E+03  0.40000000000E+03 0. -1.
<mgrwt>
<rscale>  2 0.49885387E+03</rscale>
<asrwt>0</asrwt>
<pdfrwt beam="1">  1        1 0.23029338E+00 0.49885387E+03</pdfrwt>
<pdfrwt beam="2">  1       -1 0.34731694E-01 0.49885387E+03</pdfrwt>
<totfact> 0.54923745E+01</totfact>
</mgrwt>
</event>
<event>
 6    1  0.8938744E-004  0.5266563E+03  0.7818608E-02  0.1007046E+00
         -1   -1    0    0    0  501 -0.00000000000E+00  0.00000000000E+00  0.15489147754E+04  0.15489147754E+04  0.00000000000E+00 0. -1.
          1   -1    0    0  502    0  0.00000000000E+00 -0.00000000000E+00 -0.56652355576E+03  0.56652355576E+03  0.00000000000E+00 0.  1.
    9000007    2    1    2  502    0  0.14684512175E+03  0.30957620014E+03  0.13659084657E+04  0.14639121295E+04  0.39991483171E+03 0.  0.
    9000005    1    3    3    0    0  0.27082065898E+03  0.11141649215E+03  0.75151662074E+03  0.80655793053E+03  0.99999687468E+00 0.  0.
          4    1    3    3  502    0 -0.12397553722E+03  0.19815970798E+03  0.61439184497E+03  0.65735419894E+03  0.00000000000E+00 0.  1.
   -9000007    1    1    2    0  501 -0.14684512175E+03 -0.30957620014E+03 -0.38351724606E+03  0.65152620170E+03  0.40000000000E+03 0.  1.
<mgrwt>
<rscale>  2 0.52665629E+03</rscale>
<asrwt>0</asrwt>
<pdfrwt beam="1">  1        1 0.87157471E-01 0.52665629E+03</pdfrwt>
<pdfrwt beam="2">  1       -1 0.23829458E+00 0.52665629E+03</pdfrwt>
<totfact> 0.33615701E+00</totfact>
</mgrwt>
</event>
<event>
 6    1  0.8938744E-004  0.5138255E+03  0.7818608E-02  0.1010232E+00
         -2   -1    0    0    0  501 -0.00000000000E+00  0.00000000000E+00  0.47896987615E+03  0.47896987615E+03  0.00000000000E+00 0. -1.
          2   -1    0    0  502    0  0.00000000000E+00 -0.00000000000E+00 -0.55121770934E+03  0.55121770934E+03  0.00000000000E+00 0.  1.
    9000007    2    1    2  502    0  0.19094884942E+03  0.25959749359E+03 -0.36285082881E+02  0.51526463864E+03  0.40041068770E+03 0.  0.
    9000005    1    3    3    0    0 -0.51867744807E+02  0.16469475223E+03  0.12094702586E+03  0.21081699984E+03  0.99999687468E+00 0.  0.
          4    1    3    3  502    0  0.24281659423E+03  0.94902741365E+02 -0.15723210874E+03  0.30444763880E+03  0.00000000000E+00 0.  1.
   -9000007    1    1    2    0  501 -0.19094884942E+03 -0.25959749359E+03 -0.35962750307E+02  0.51492294684E+03  0.40000000000E+03 0. -1.
<mgrwt>
<rscale>  2 0.51382549E+03</rscale>
<asrwt>0</asrwt>
<pdfrwt beam="1">  1        2 0.84802724E-01 0.51382549E+03</pdfrwt>
<pdfrwt beam="2">  1       -2 0.73687673E-01 0.51382549E+03</pdfrwt>
<totfact> 0.93693096E+01</totfact>
</mgrwt>
</event>
<event>
 6    1  0.8938744E-004  0.4021511E+03  0.7818608E-02  0.1043037E+00
         -2   -1    0    0    0  501 -0.00000000000E+00  0.00000000000E+00  0.58417060936E+02  0.58417060936E+02  0.00000000000E+00 0.  1.
          2   -1    0    0  502    0  0.00000000000E+00 -0.00000000000E+00 -0.37507282871E+04  0.37507282871E+04  0.00000000000E+00 0. -1.
    9000007    2    1    2  502    0 -0.12174790689E+02 -0.36472391062E+02 -0.28218582881E+04  0.28504134886E+04  0.40061751991E+03 0.  0.
    9000005    1    3    3    0    0  0.91913182035E+02 -0.88294992310E+02 -0.25683596121E+04  0.25715201994E+04  0.99999687468E+00 0.  0.
          4    1    3    3  502    0 -0.10408797272E+03  0.51822601249E+02 -0.25349867599E+03  0.27889328926E+03  0.00000000000E+00 0.  1.
   -9000007    1    1    2    0  501  0.12174790689E+02  0.36472391062E+02 -0.87045293806E+03  0.95873185939E+03  0.40000000000E+03 0.  1.
<mgrwt>
<rscale>  2 0.40215105E+03</rscale>
<asrwt>0</asrwt>
<pdfrwt beam="1">  1        2 0.57703525E+00 0.40215105E+03</pdfrwt>
<pdfrwt beam="2">  1       -2 0.89872381E-02 0.40215105E+03</pdfrwt>
<totfact> 0.51258137E+01</totfact>
</mgrwt>
</event>
<event>
 6    1  0.8938744E-004  0.4375811E+03  0.7818608E-02  0.1031492E+00
         -1   -1    0    0    0  501 -0.00000000000E+00  0.00000000000E+00  0.12390554884E+03  0.12390554884E+03  0.00000000000E+00 0. -1.
          1   -1    0    0  502    0  0.00000000000E+00 -0.00000000000E+00 -0.20044126028E+04  0.20044126028E+04  0.00000000000E+00 0.  1.
    9000007    2    1    2  502    0 -0.83712960945E+02 -0.15813200160E+03 -0.42996992090E+03  0.61303878330E+03  0.39865878541E+03 0.  0.
    9000005    1    3    3    0    0 -0.12746183862E+03 -0.26062303462E+03 -0.18547155162E+03  0.34434224680E+03  0.99999687468E+00 0.  0.
          4    1    3    3  502    0  0.43748877676E+02  0.10249103301E+03 -0.24449836928E+03  0.26869653650E+03  0.00000000000E+00 0.  1.
   -9000007    1    1    2    0  501  0.83712960945E+02  0.15813200160E+03 -0.14505371330E+04  0.15152793683E+04  0.40000000000E+03 0.  1.
<mgrwt>
<rscale>  2 0.43758114E+03</rscale>
<asrwt>0</asrwt>
<pdfrwt beam="1">  1        1 0.30837119E+00 0.43758114E+03</pdfrwt>
<pdfrwt beam="2">  1       -1 0.19062391E-01 0.43758114E+03</pdfrwt>
<totfact> 0.70748511E+01</totfact>
</mgrwt>
</event>
<event>
 6    1  0.8938744E-004  0.4218161E+03  0.7818608E-02  0.1036477E+00
          1   -1    0    0  502    0  0.00000000000E+00  0.00000000000E+00  0.69780099842E+03  0.69780099842E+03  0.00000000000E+00 0.  1.
         -1   -1    0    0    0  501 -0.00000000000E+00 -0.00000000000E+00 -0.28110901538E+03  0.28110901538E+03  0.00000000000E+00 0. -1.
    9000007    2    1    2  502    0  0.13242452837E+03  0.21077784624E+02  0.35752745848E+03  0.55290418087E+03  0.39987075530E+03 0.  0.
    9000005    1    3    3    0    0  0.11277532791E+03 -0.95185173327E+02 -0.27594249665E+02  0.15013638604E+03  0.99999687468E+00 0.  0.
          4    1    3    3  502    0  0.19649200466E+02  0.11626295795E+03  0.38512170814E+03  0.40276779483E+03  0.00000000000E+00 0.  1.
   -9000007    1    1    2    0  501 -0.13242452837E+03 -0.21077784624E+02  0.59164524558E+02  0.42600583292E+03  0.40000000000E+03 0. -1.
<mgrwt>
<rscale>  2 0.42181611E+03</rscale>
<asrwt>0</asrwt>
<pdfrwt beam="1">  1        1 0.10735400E+00 0.42181611E+03</pdfrwt>
<pdfrwt beam="2">  1       -1 0.43247541E-01 0.42181611E+03</pdfrwt>
<totfact> 0.15060703E+02</totfact>
</mgrwt>
</event>
<event>
 6    1  0.8938744E-004  0.4027810E+03  0.7818608E-02  0.1042821E+00
          2   -1    0    0  502    0  0.00000000000E+00  0.00000000000E+00  0.12900088750E+03  0.12900088750E+03  0.00000000000E+00 0. -1.
         -2   -1    0    0    0  501 -0.00000000000E+00 -0.00000000000E+00 -0.15055170093E+04  0.15055170093E+04  0.00000000000E+00 0.  1.
    9000007    2    1    2  502    0 -0.30160352104E+01 -0.46806203239E+02 -0.35667891383E+03  0.53803814418E+03  0.40008159155E+03 0.  0.
    9000005    1    3    3    0    0 -0.13568333727E+02 -0.17864461056E+03 -0.24919201557E+02  0.18088660305E+03  0.99999687468E+00 0.  0.
          4    1    3    3  502    0  0.10552298517E+02  0.13183840732E+03 -0.33175971227E+03  0.35715154113E+03  0.00000000000E+00 0.  1.
   -9000007    1    1    2    0  501  0.30160352104E+01  0.46806203239E+02 -0.10198372080E+04  0.10964797527E+04  0.40000000000E+03 0.  1.
<mgrwt>
<rscale>  2 0.40278102E+03</rscale>
<asrwt>0</asrwt>
<pdfrwt beam="1">  1        2 0.19846290E-01 0.40278102E+03</pdfrwt>
<pdfrwt beam="2">  1       -2 0.23161800E+00 0.40278102E+03</pdfrwt>
<totfact> 0.25363986E+01</totfact>
</mgrwt>
</event>
<event>
 6    1  0.8938744E-004  0.4075869E+03  0.7818608E-02  0.1041184E+00
          4   -1    0    0  502    0  0.00000000000E+00  0.00000000000E+00  0.27101928815E+03  0.27101928815E+03  0.00000000000E+00 0. -1.
         -4   -1    0    0    0  501 -0.00000000000E+00 -0.00000000000E+00 -0.64741516336E+03  0.64741516336E+03  0.00000000000E+00 0.  1.
    9000007    2    1    2  502    0  0.77342674036E+02  0.14180901669E+02 -0.29408892692E+03  0.50255295284E+03  0.39986020842E+03 0.  0.
    9000005    1    3    3    0    0 -0.72528781758E+01 -0.18810770100E+03 -0.13686241338E+03  0.23274327403E+03  0.99999687468E+00 0.  0.
          4    1    3    3  502    0  0.84595552212E+02  0.20228860267E+03 -0.15722651354E+03  0.26980967881E+03  0.00000000000E+00 0.  1.
   -9000007    1    1    2    0  501 -0.77342674036E+02 -0.14180901669E+02 -0.82306948288E+02  0.41588149867E+03  0.40000000000E+03 0.  1.
<mgrwt>
<rscale>  2 0.40758689E+03</rscale>
<asrwt>0</asrwt>
<pdfrwt beam="1">  1        4 0.41695276E-01 0.40758689E+03</pdfrwt>
<pdfrwt beam="2">  1       -4 0.99602331E-01 0.40758689E+03</pdfrwt>
<totfact> 0.90079580E+00</totfact>
</mgrwt>
</event>
<event>
 6    1  0.8938744E-004  0.4043721E+03  0.7818608E-02  0.1042276E+00
          1   -1    0    0  502    0  0.00000000000E+00  0.00000000000E+00  0.84734766869E+03  0.84734766869E+03  0.00000000000E+00 0. -1.
         -1   -1    0    0    0  501 -0.00000000000E+00 -0.00000000000E+00 -0.20405942538E+03  0.20405942538E+03  0.00000000000E+00 0.  1.
    9000007    2    1    2  502    0 -0.54036140396E+02 -0.21008663726E+02  0.44431292553E+03  0.60090465733E+03  0.40038876481E+03 0.  0.
    9000005    1    3    3    0    0 -0.92885942882E+02  0.45451838232E+02  0.49698294894E+03  0.50762852512E+03  0.99999687468E+00 0.  0.
          4    1    3    3  502    0  0.38849802485E+02 -0.66460501957E+02 -0.52670023411E+02  0.93276132208E+02  0.00000000000E+00 0.  1.
   -9000007    1    1    2    0  501  0.54036140396E+02  0.21008663726E+02  0.19897531778E+03  0.45050243674E+03  0.40000000000E+03 0.  1.
<mgrwt>
<rscale>  2 0.40437208E+03</rscale>
<asrwt>0</asrwt>
<pdfrwt beam="1">  1        1 0.13036118E+00 0.40437208E+03</pdfrwt>
<pdfrwt beam="2">  1       -1 0.31393758E-01 0.40437208E+03</pdfrwt>
<totfact> 0.19751614E+02</totfact>
</mgrwt>
</event>
<event>
 6    1  0.8938744E-004  0.4163693E+03  0.7818608E-02  0.1038254E+00
         -2   -1    0    0    0  501 -0.00000000000E+00  0.00000000000E+00  0.36976988368E+03  0.36976988368E+03  0.00000000000E+00 0.  1.
          2   -1    0    0  502    0  0.00000000000E+00 -0.00000000000E+00 -0.79375667774E+03  0.79375667774E+03  0.00000000000E+00 0. -1.
    9000007    2    1    2  502    0 -0.11275056695E+03  0.23361123448E+02 -0.58424104186E+03  0.71749981741E+03  0.40026236465E+03 0.  0.
    9000005    1    3    3    0    0  0.78909745262E+02  0.12915415722E+03 -0.87911331265E+02  0.17503412920E+03  0.99999687468E+00 0.  0.
          4    1    3    3  502    0 -0.19166031221E+03 -0.10579303377E+03 -0.49632971059E+03  0.54246568821E+03  0.00000000000E+00 0.  1.
   -9000007    1    1    2    0  501  0.11275056695E+03 -0.23361123448E+02  0.16025424780E+03  0.44602674401E+03  0.40000000000E+03 0.  1.
<mgrwt>
<rscale>  2 0.41636928E+03</rscale>
<asrwt>0</asrwt>
<pdfrwt beam="1">  1        2 0.12211641E+00 0.41636928E+03</pdfrwt>
<pdfrwt beam="2">  1       -2 0.56887675E-01 0.41636928E+03</pdfrwt>
<totfact> 0.10502152E+02</totfact>
</mgrwt>
</event>
<event>
 6    1  0.8938744E-004  0.4290002E+03  0.7818608E-02  0.1034176E+00
          2   -1    0    0  502    0  0.00000000000E+00  0.00000000000E+00  0.79793517537E+03  0.79793517537E+03  0.00000000000E+00 0.  1.
         -2   -1    0    0    0  501 -0.00000000000E+00 -0.00000000000E+00 -0.29882902033E+03  0.29882902033E+03  0.00000000000E+00 0. -1.
    9000007    2    1    2  502    0  0.18086118157E+02  0.15416789110E+03  0.51146847440E+03  0.66752338537E+03  0.39986575672E+03 0.  0.
    9000005    1    3    3    0    0  0.11409795123E+03 -0.10178787782E+03  0.21998466304E+03  0.26790551788E+03  0.99999687468E+00 0.  0.
          4    1    3    3  502    0 -0.96011833071E+02  0.25595576892E+03  0.29148381136E+03  0.39961786749E+03  0.00000000000E+00 0.  1.
   -9000007    1    1    2    0  501 -0.18086118157E+02 -0.15416789110E+03 -0.12362319363E+02  0.42924081033E+03  0.40000000000E+03 0. -1.
<mgrwt>
<rscale>  2 0.42900018E+03</rscale>
<asrwt>0</asrwt>
<pdfrwt beam="1">  1        2 0.12275926E+00 0.42900018E+03</pdfrwt>
<pdfrwt beam="2">  1       -2 0.45973696E-01 0.42900018E+03</pdfrwt>
<totfact> 0.16042427E+02</totfact>
</mgrwt>
</event>
<event>
 6    1  0.8938744E-004  0.5211821E+03  0.7818608E-02  0.1008393E+00
         -2   -1    0    0    0  501 -0.00000000000E+00  0.00000000000E+00  0.19691245378E+03  0.19691245378E+03  0.00000000000E+00 0. -1.
          2   -1    0    0  502    0  0.00000000000E+00 -0.00000000000E+00 -0.17677956313E+04  0.17677956313E+04  0.00000000000E+00 0.  1.
    9000007    2    1    2  502    0  0.10475812763E+02 -0.33504947398E+03 -0.12450370562E+04  0.13494491255E+04  0.39815546978E+03 0.  0.
    9000005    1    3    3    0    0 -0.29606726165E+02 -0.13671192496E+03 -0.68715706848E+02  0.15585107321E+03  0.99999687468E+00 0.  0.
          4    1    3    3  502    0  0.40082538927E+02 -0.19833754902E+03 -0.11763213494E+04  0.11935980522E+04  0.00000000000E+00 0.  1.
   -9000007    1    1    2    0  501 -0.10475812763E+02  0.33504947398E+03 -0.32584612131E+03  0.61525895966E+03  0.40000000000E+03 0. -1.
<mgrwt>
<rscale>  2 0.52118210E+03</rscale>
<asrwt>0</asrwt>
<pdfrwt beam="1">  1        2 0.27196857E+00 0.52118210E+03</pdfrwt>
<pdfrwt beam="2">  1       -2 0.30294223E-01 0.52118210E+03</pdfrwt>
<totfact> 0.95114235E+01</totfact>
</mgrwt>
</event>
<event>
 6    1  0.8938744E-004  0.4108731E+03  0.7818608E-02  0.1040078E+00
          1   -1    0    0  502    0  0.00000000000E+00  0.00000000000E+00  0.77092206683E+03  0.77092206683E+03  0.00000000000E+00 0. -1.
         -1   -1    0    0    0  501 -0.00000000000E+00 -0.00000000000E+00 -0.37129155918E+03  0.37129155918E+03  0.00000000000E+00 0.  1.
    9000007    2    1    2  502    0  0.72329033277E+01  0.93209174103E+02 -0.16594299256E+03  0.44320457802E+03  0.40019114954E+03 0.  0.
    9000005    1    3    3    0    0  0.17199837928E+03 -0.52252339682E+02 -0.23494586803E+02  0.18129187814E+03  0.99999687468E+00 0.  0.
          4    1    3    3  502    0 -0.16476547595E+03  0.14546151378E+03 -0.14244840575E+03  0.26191269988E+03  0.00000000000E+00 0.  1.
   -9000007    1    1    2    0  501 -0.72329033277E+01 -0.93209174103E+02  0.56557350021E+03  0.69900904799E+03  0.40000000000E+03 0. -1.
<mgrwt>
<rscale>  2 0.41087313E+03</rscale>
<asrwt>0</asrwt>
<pdfrwt beam="1">  1        1 0.11860339E+00 0.41087313E+03</pdfrwt>
<pdfrwt beam="2">  1       -1 0.57121778E-01 0.41087313E+03</pdfrwt>
<totfact> 0.77067989E+01</totfact>
</mgrwt>
</event>
<event>
 6    1  0.8938744E-004  0.4149260E+03  0.7818608E-02  0.1038730E+00
         -2   -1    0    0    0  501 -0.00000000000E+00  0.00000000000E+00  0.88368189356E+02  0.88368189356E+02  0.00000000000E+00 0.  1.
          2   -1    0    0  502    0  0.00000000000E+00 -0.00000000000E+00 -0.19596569883E+04  0.19596569883E+04  0.00000000000E+00 0. -1.
    9000007    2    1    2  502    0  0.10750567090E+03 -0.24092907228E+02 -0.10138294057E+04  0.10954630807E+04  0.40006419475E+03 0.  0.
    9000005    1    3    3    0    0  0.11826515081E+03 -0.16811843242E+03 -0.27882177383E+03  0.34640010793E+03  0.99999687468E+00 0.  0.
          4    1    3    3  502    0 -0.10759479910E+02  0.14402552519E+03 -0.73500763187E+03  0.74906297280E+03  0.00000000000E+00 0.  1.
   -9000007    1    1    2    0  501 -0.10750567090E+03  0.24092907228E+02 -0.85745939329E+03  0.95256209697E+03  0.40000000000E+03 0.  1.
<mgrwt>
<rscale>  2 0.41492604E+03</rscale>
<asrwt>0</asrwt>
<pdfrwt beam="1">  1        2 0.30148568E+00 0.41492604E+03</pdfrwt>
<pdfrwt beam="2">  1       -2 0.13595106E-01 0.41492604E+03</pdfrwt>
<totfact> 0.30795181E+02</totfact>
</mgrwt>
</event>
<event>
 6    1  0.8938744E-004  0.4274124E+03  0.7818608E-02  0.1034681E+00
         -1   -1    0    0    0  501 -0.00000000000E+00  0.00000000000E+00  0.61018915232E+03  0.61018915232E+03  0.00000000000E+00 0. -1.
          1   -1    0    0  502    0  0.00000000000E+00 -0.00000000000E+00 -0.45552783340E+03  0.45552783340E+03  0.00000000000E+00 0.  1.
    9000007    2    1    2  502    0  0.78335105595E+02  0.12775607322E+03 -0.23461020903E+03  0.48779802471E+03  0.40055831000E+03 0.  0.
    9000005    1    3    3    0    0 -0.16225369159E+03  0.71408092319E+02 -0.68467616236E+02  0.19003733989E+03  0.99999687468E+00 0.  0.
          4    1    3    3  502    0  0.24058879719E+03  0.56347980903E+02 -0.16614259280E+03  0.29776068482E+03  0.00000000000E+00 0.  1.
   -9000007    1    1    2    0  501 -0.78335105595E+02 -0.12775607322E+03  0.38927152796E+03  0.57791896101E+03  0.40000000000E+03 0. -1.
<mgrwt>
<rscale>  2 0.42741238E+03</rscale>
<asrwt>0</asrwt>
<pdfrwt beam="1">  1        1 0.70081205E-01 0.42741238E+03</pdfrwt>
<pdfrwt beam="2">  1       -1 0.93875254E-01 0.42741238E+03</pdfrwt>
<totfact> 0.58449019E+01</totfact>
</mgrwt>
</event>
<event>
 6    1  0.8938744E-004  0.5298315E+03  0.7818608E-02  0.1006273E+00
         -2   -1    0    0    0  501 -0.00000000000E+00  0.00000000000E+00  0.59949840465E+03  0.59949840465E+03  0.00000000000E+00 0. -1.
          2   -1    0    0  502    0  0.00000000000E+00 -0.00000000000E+00 -0.48081963935E+03  0.48081963935E+03  0.00000000000E+00 0.  1.
    9000007    2    1    2  502    0  0.20891287075E+02 -0.34694676938E+03 -0.27968902301E+02  0.53048711992E+03  0.39978221351E+03 0.  0.
    9000005    1    3    3    0    0  0.14724057282E+02 -0.25635076777E+03  0.17323043951E+03  0.30974553938E+03  0.99999687468E+00 0.  0.
          4    1    3    3  502    0  0.61672297927E+01 -0.90596001608E+02 -0.20119934181E+03  0.22074158053E+03  0.00000000000E+00 0.  1.
   -9000007    1    1    2    0  501 -0.20891287075E+02  0.34694676938E+03  0.14664766760E+03  0.54983092408E+03  0.40000000000E+03 0. -1.
<mgrwt>
<rscale>  2 0.52983148E+03</rscale>
<asrwt>0</asrwt>
<pdfrwt beam="1">  1        2 0.73972253E-01 0.52983148E+03</pdfrwt>
<pdfrwt beam="2">  1       -2 0.92230523E-01 0.52983148E+03</pdfrwt>
<totfact> 0.66108057E+01</totfact>
</mgrwt>
</event>
<event>
 6    1  0.8938744E-004  0.5085577E+03  0.7818608E-02  0.1011569E+00
          1   -1    0    0  502    0  0.00000000000E+00  0.00000000000E+00  0.62100849165E+03  0.62100849165E+03  0.00000000000E+00 0.  1.
         -1   -1    0    0    0  501 -0.00000000000E+00 -0.00000000000E+00 -0.41894938195E+03  0.41894938195E+03  0.00000000000E+00 0. -1.
    9000007    2    1    2  502    0 -0.19101864533E+03 -0.24738981651E+03  0.14120869696E+03  0.52869217271E+03  0.40235018728E+03 0.  0.
    9000005    1    3    3    0    0 -0.26700498865E+03 -0.24408438464E+02  0.35396845859E+02  0.27044661677E+03  0.99999687468E+00 0.  0.
          4    1    3    3  502    0  0.75986343316E+02 -0.22298137805E+03  0.10581185110E+03  0.25824555594E+03  0.00000000000E+00 0.  1.
   -9000007    1    1    2    0  501  0.19101864533E+03  0.24738981651E+03  0.60850412747E+02  0.51126570089E+03  0.40000000000E+03 0.  1.
<mgrwt>
<rscale>  2 0.50855773E+03</rscale>
<asrwt>0</asrwt>
<pdfrwt beam="1">  1        1 0.95539768E-01 0.50855773E+03</pdfrwt>
<pdfrwt beam="2">  1       -1 0.64453751E-01 0.50855773E+03</pdfrwt>
<totfact> 0.82849595E+01</totfact>
</mgrwt>
</event>
<event>
 6    1  0.8938744E-004  0.9039560E+03  0.7818608E-02  0.9420650E-01
         -1   -1    0    0    0  501 -0.00000000000E+00  0.00000000000E+00  0.96949508250E+03  0.96949508250E+03  0.00000000000E+00 0.  1.
          1   -1    0    0  502    0  0.00000000000E+00 -0.00000000000E+00 -0.10918120185E+04  0.10918120185E+04  0.00000000000E+00 0. -1.
    9000007    2    1    2  502    0  0.77195236179E+03  0.24769274139E+03  0.43100649205E+03  0.10013877838E+04  0.39968581950E+03 0.  0.
    9000005    1    3    3    0    0  0.78641296736E+03  0.18349106894E+03  0.31261542540E+03  0.86593517760E+03  0.99999687468E+00 0.  0.
          4    1    3    3  502    0 -0.14460605569E+02  0.64201672454E+02  0.11839106665E+03  0.13545260619E+03  0.00000000000E+00 0.  1.
   -9000007    1    1    2    0  501 -0.77195236179E+03 -0.24769274139E+03 -0.55332342810E+03  0.10599193173E+04  0.40000000000E+03 0. -1.
<mgrwt>
<rscale>  2 0.90395603E+03</rscale>
<asrwt>0</asrwt>
<pdfrwt beam="1">  1        1 0.16797108E+00 0.90395603E+03</pdfrwt>
<pdfrwt beam="2">  1       -1 0.14915309E+00 0.90395603E+03</pdfrwt>
<totfact> 0.46239209E+00</totfact>
</mgrwt>
</event>
<event>
 6    1  0.8938744E-004  0.4380467E+03  0.7818608E-02  0.1031348E+00
          2   -1    0    0  502    0  0.00000000000E+00  0.00000000000E+00  0.98410247114E+03  0.98410247114E+03  0.00000000000E+00 0. -1.
         -2   -1    0    0    0  501 -0.00000000000E+00 -0.00000000000E+00 -0.25389888093E+03  0.25389888093E+03  0.00000000000E+00 0.  1.
    9000007    2    1    2  502    0  0.10793404945E+02  0.17666628554E+03  0.66368303724E+03  0.79556213816E+03  0.40139315854E+03 0.  0.
    9000005    1    3    3    0    0  0.85536176614E+02  0.28619243924E+03  0.38811840705E+03  0.48975447692E+03  0.99999687468E+00 0.  0.
          4    1    3    3  502    0 -0.74742771669E+02 -0.10952615369E+03  0.27556463019E+03  0.30580766124E+03  0.00000000000E+00 0.  1.
   -9000007    1    1    2    0  501 -0.10793404945E+02 -0.17666628554E+03  0.66520552974E+02  0.44243921391E+03  0.40000000000E+03 0.  1.
<mgrwt>
<rscale>  2 0.43804668E+03</rscale>
<asrwt>0</asrwt>
<pdfrwt beam="1">  1        2 0.15140038E+00 0.43804668E+03</pdfrwt>
<pdfrwt beam="2">  1       -2 0.39061367E-01 0.43804668E+03</pdfrwt>
<totfact> 0.16567752E+02</totfact>
</mgrwt>
</event>
<event>
 6    1  0.8938744E-004  0.4036158E+03  0.7818608E-02  0.1042535E+00
          1   -1    0    0  502    0  0.00000000000E+00  0.00000000000E+00  0.26806488140E+04  0.26806488140E+04  0.00000000000E+00 0. -1.
         -1   -1    0    0    0  501 -0.00000000000E+00 -0.00000000000E+00 -0.61818896496E+02  0.61818896496E+02  0.00000000000E+00 0.  1.
    9000007    2    1    2  502    0 -0.53546730596E+02 -0.21886218913E+02  0.11291583923E+04  0.11989433304E+04  0.39889870353E+03 0.  0.
    9000005    1    3    3    0    0 -0.14971916279E+03 -0.15785842580E+03  0.45246717226E+03  0.50205841519E+03  0.99999687468E+00 0.  0.
          4    1    3    3  502    0  0.96172432195E+02  0.13597220689E+03  0.67669122005E+03  0.69688491522E+03  0.00000000000E+00 0.  1.
   -9000007    1    1    2    0  501  0.53546730596E+02  0.21886218913E+02  0.14896715252E+04  0.15435243801E+04  0.40000000000E+03 0. -1.
<mgrwt>
<rscale>  2 0.40361585E+03</rscale>
<asrwt>0</asrwt>
<pdfrwt beam="1">  1        1 0.41240742E+00 0.40361585E+03</pdfrwt>
<pdfrwt beam="2">  1       -1 0.95106015E-02 0.40361585E+03</pdfrwt>
<totfact> 0.76497299E+01</totfact>
</mgrwt>
</event>
<event>
 6    1  0.8938744E-004  0.4335065E+03  0.7818608E-02  0.1032758E+00
          2   -1    0    0  502    0  0.00000000000E+00  0.00000000000E+00  0.13088455294E+04  0.13088455294E+04  0.00000000000E+00 0. -1.
         -2   -1    0    0    0  501 -0.00000000000E+00 -0.00000000000E+00 -0.14513271921E+03  0.14513271921E+03  0.00000000000E+00 0.  1.
    9000007    2    1    2  502    0 -0.16130506231E+03 -0.46797524727E+02  0.50630369642E+03  0.66632599391E+03  0.39929633820E+03 0.  0.
    9000005    1    3    3    0    0 -0.27025639872E+03 -0.52759381626E+02  0.19764763394E+03  0.33895082327E+03  0.99999687468E+00 0.  0.
          4    1    3    3  502    0  0.10895133641E+03  0.59618568996E+01  0.30865606248E+03  0.32737517064E+03  0.00000000000E+00 0.  1.
   -9000007    1    1    2    0  501  0.16130506231E+03  0.46797524727E+02  0.65740911373E+03  0.78765225466E+03  0.40000000000E+03 0. -1.
<mgrwt>
<rscale>  2 0.43350652E+03</rscale>
<asrwt>0</asrwt>
<pdfrwt beam="1">  1        2 0.20136084E+00 0.43350652E+03</pdfrwt>
<pdfrwt beam="2">  1       -2 0.22328112E-01 0.43350652E+03</pdfrwt>
<totfact> 0.29724849E+02</totfact>
</mgrwt>
</event>
<event>
 6    1  0.8938744E-004  0.5390241E+03  0.7818608E-02  0.1004067E+00
          1   -1    0    0  502    0  0.00000000000E+00  0.00000000000E+00  0.40596768186E+04  0.40596768186E+04  0.00000000000E+00 0.  1.
         -1   -1    0    0    0  501 -0.00000000000E+00 -0.00000000000E+00 -0.87868591552E+02  0.87868591552E+02  0.00000000000E+00 0. -1.
    9000007    2    1    2  502    0 -0.35605252570E+03  0.61961816807E+02  0.10925542544E+04  0.12182594721E+04  0.39983580978E+03 0.  0.
    9000005    1    3    3    0    0 -0.18269435806E+03 -0.31805842760E+01  0.99449588051E+02  0.20803500941E+03  0.99999687468E+00 0.  0.
          4    1    3    3  502    0 -0.17335816764E+03  0.65142401083E+02  0.99310466637E+03  0.10102244627E+04  0.00000000000E+00 0.  1.
   -9000007    1    1    2    0  501  0.35605252570E+03 -0.61961816807E+02  0.28792539726E+04  0.29292859380E+04  0.40000000000E+03 0.  1.
<mgrwt>
<rscale>  2 0.53902412E+03</rscale>
<asrwt>0</asrwt>
<pdfrwt beam="1">  1        1 0.62456552E+00 0.53902412E+03</pdfrwt>
<pdfrwt beam="2">  1       -1 0.13518248E-01 0.53902412E+03</pdfrwt>
<totfact> 0.38230546E+00</totfact>
</mgrwt>
</event>
<event>
 6    1  0.8938744E-004  0.5461492E+03  0.7818608E-02  0.1002389E+00
          2   -1    0    0  502    0  0.00000000000E+00  0.00000000000E+00  0.63227302093E+03  0.63227302093E+03  0.00000000000E+00 0.  1.
         -2   -1    0    0    0  501 -0.00000000000E+00 -0.00000000000E+00 -0.54838681060E+03  0.54838681060E+03  0.00000000000E+00 0. -1.
    9000007    2    1    2  502    0  0.74603695392E+02  0.36398985771E+03 -0.17871725573E+03  0.57484227791E+03  0.40056142987E+03 0.  0.
    9000005    1    3    3    0    0  0.11460790664E+02 -0.88592197333E+02 -0.32209373038E+02  0.94965103360E+02  0.99999687468E+00 0.  0.
          4    1    3    3  502    0  0.63142904728E+02  0.45258205504E+03 -0.14650788269E+03  0.47987717455E+03  0.00000000000E+00 0.  1.
   -9000007    1    1    2    0  501 -0.74603695392E+02 -0.36398985771E+03  0.26260346606E+03  0.60581755362E+03  0.40000000000E+03 0.  1.
<mgrwt>
<rscale>  2 0.54614922E+03</rscale>
<asrwt>0</asrwt>
<pdfrwt beam="1">  1        2 0.97272773E-01 0.54614922E+03</pdfrwt>
<pdfrwt beam="2">  1       -2 0.84367202E-01 0.54614922E+03</pdfrwt>
<totfact> 0.58679899E+01</totfact>
</mgrwt>
</event>
<event>
 6    1  0.8938744E-004  0.6670627E+03  0.7818608E-02  0.9775279E-01
          1   -1    0    0  502    0  0.00000000000E+00  0.00000000000E+00  0.47051325798E+03  0.47051325798E+03  0.00000000000E+00 0.  1.
         -1   -1    0    0    0  501 -0.00000000000E+00 -0.00000000000E+00 -0.96704195512E+03  0.96704195512E+03  0.00000000000E+00 0. -1.
    9000007    2    1    2  502    0  0.18588521229E+03 -0.50031139250E+03 -0.14155769958E+03  0.68199634000E+03  0.40026943907E+03 0.  0.
    9000005    1    3    3    0    0 -0.53711142009E+02 -0.47862859483E+02 -0.15388580436E+03  0.16987519204E+03  0.99999687468E+00 0.  0.
          4    1    3    3  502    0  0.23959635430E+03 -0.45244853302E+03  0.12328104777E+02  0.51212114796E+03  0.00000000000E+00 0.  1.
   -9000007    1    1    2    0  501 -0.18588521229E+03  0.50031139250E+03 -0.35497099756E+03  0.75555887310E+03  0.40000000000E+03 0. -1.
<mgrwt>
<rscale>  2 0.66706267E+03</rscale>
<asrwt>0</asrwt>
<pdfrwt beam="1">  1        1 0.72386655E-01 0.66706267E+03</pdfrwt>
<pdfrwt beam="2">  1       -1 0.14877569E+00 0.66706267E+03</pdfrwt>
<totfact> 0.17818180E+01</totfact>
</mgrwt>
</event>
<event>
 6    1  0.8938744E-004  0.6391461E+03  0.7818608E-02  0.9827362E-01
         -2   -1    0    0    0  501 -0.00000000000E+00  0.00000000000E+00  0.12282877313E+04  0.12282877313E+04  0.00000000000E+00 0.  1.
          2   -1    0    0  502    0  0.00000000000E+00 -0.00000000000E+00 -0.34643854200E+03  0.34643854200E+03  0.00000000000E+00 0. -1.
    9000007    2    1    2  502    0 -0.45233726321E+03 -0.20916588294E+03  0.28354075872E+03  0.69932216984E+03  0.40037078953E+03 0.  0.
    9000005    1    3    3    0    0  0.32446054810E+02 -0.14635766648E+03  0.54795532031E+02  0.15961473408E+03  0.99999687468E+00 0.  0.
          4    1    3    3  502    0 -0.48478331802E+03 -0.62808216451E+02  0.22874522669E+03  0.53970743576E+03  0.00000000000E+00 0.  1.
   -9000007    1    1    2    0  501  0.45233726321E+03  0.20916588294E+03  0.59830843061E+03  0.87540410349E+03  0.40000000000E+03 0. -1.
<mgrwt>
<rscale>  2 0.63914609E+03</rscale>
<asrwt>0</asrwt>
<pdfrwt beam="1">  1        2 0.53298238E-01 0.63914609E+03</pdfrwt>
<pdfrwt beam="2">  1       -2 0.18896734E+00 0.63914609E+03</pdfrwt>
<totfact> 0.15127474E+01</totfact>
</mgrwt>
</event>
<event>
 6    1  0.8938744E-004  0.5025736E+03  0.7818608E-02  0.1013109E+00
          2   -1    0    0  502    0  0.00000000000E+00  0.00000000000E+00  0.50074004264E+03  0.50074004264E+03  0.00000000000E+00 0.  1.
         -2   -1    0    0    0  501 -0.00000000000E+00 -0.00000000000E+00 -0.58004509935E+03  0.58004509935E+03  0.00000000000E+00 0. -1.
    9000007    2    1    2  502    0  0.20591316731E+03  0.22410312144E+03 -0.23478199489E+03  0.55467154226E+03  0.39989435250E+03 0.  0.
    9000005    1    3    3    0    0  0.23608023595E+03  0.30497821381E+03 -0.10660423122E+03  0.40013878944E+03  0.99999687468E+00 0.  0.
          4    1    3    3  502    0 -0.30167068642E+02 -0.80875092371E+02 -0.12817776367E+03  0.15453275282E+03  0.00000000000E+00 0.  1.
   -9000007    1    1    2    0  501 -0.20591316731E+03 -0.22410312144E+03  0.15547693818E+03  0.52611359972E+03  0.40000000000E+03 0.  1.
<mgrwt>
<rscale>  2 0.50257356E+03</rscale>
<asrwt>0</asrwt>
<pdfrwt beam="1">  1        2 0.77036930E-01 0.50257356E+03</pdfrwt>
<pdfrwt beam="2">  1       -2 0.89237707E-01 0.50257356E+03</pdfrwt>
<totfact> 0.68238209E+01</totfact>
</mgrwt>
</event>
<event>
 6    1  0.8938744E-004  0.4269497E+03  0.7818608E-02  0.1034828E+00
         -1   -1    0    0    0  501 -0.00000000000E+00  0.00000000000E+00  0.99951348519E+03  0.99951348519E+03  0.00000000000E+00 0.  1.
          1   -1    0    0  502    0  0.00000000000E+00 -0.00000000000E+00 -0.18419983732E+03  0.18419983732E+03  0.00000000000E+00 0. -1.
    9000007    2    1    2  502    0 -0.14739915834E+03 -0.19723151202E+02  0.46675780608E+03  0.63270815973E+03  0.40042633689E+03 0.  0.
    9000005    1    3    3    0    0 -0.27484762312E+03  0.11591520464E+02  0.40000117869E+03  0.48546629361E+03  0.99999687468E+00 0.  0.
          4    1    3    3  502    0  0.12744846478E+03 -0.31314671666E+02  0.66756627386E+02  0.14724186612E+03  0.00000000000E+00 0.  1.
   -9000007    1    1    2    0  501  0.14739915834E+03  0.19723151202E+02  0.34855584179E+03  0.55100516279E+03  0.40000000000E+03 0. -1.
<mgrwt>
<rscale>  2 0.42694972E+03</rscale>
<asrwt>0</asrwt>
<pdfrwt beam="1">  1        1 0.28338437E-01 0.42694972E+03</pdfrwt>
<pdfrwt beam="2">  1       -1 0.15377130E+00 0.42694972E+03</pdfrwt>
<totfact> 0.56756183E+01</totfact>
</mgrwt>
</event>
<event>
 6    1  0.8938744E-004  0.4281205E+03  0.7818608E-02  0.1034455E+00
         -2   -1    0    0    0  501 -0.00000000000E+00  0.00000000000E+00  0.11837294810E+04  0.11837294810E+04  0.00000000000E+00 0.  1.
          2   -1    0    0  502    0  0.00000000000E+00 -0.00000000000E+00 -0.30290461064E+03  0.30290461064E+03  0.00000000000E+00 0. -1.
    9000007    2    1    2  502    0  0.14272206637E+03  0.55534408356E+02 -0.79384749054E+02  0.43522733307E+03  0.39958382641E+03 0.  0.
    9000005    1    3    3    0    0  0.18017129379E+03 -0.45032012539E+01 -0.21603504316E+03  0.28134340902E+03  0.99999687468E+00 0.  0.
          4    1    3    3  502    0 -0.37449227423E+02  0.60037609610E+02  0.13665029411E+03  0.15388392406E+03  0.00000000000E+00 0.  1.
   -9000007    1    1    2    0  501 -0.14272206637E+03 -0.55534408356E+02  0.96020961943E+03  0.10514067586E+04  0.40000000000E+03 0.  1.
<mgrwt>
<rscale>  2 0.42812054E+03</rscale>
<asrwt>0</asrwt>
<pdfrwt beam="1">  1        2 0.46600710E-01 0.42812054E+03</pdfrwt>
<pdfrwt beam="2">  1       -2 0.18211223E+00 0.42812054E+03</pdfrwt>
<totfact> 0.20009788E+01</totfact>
</mgrwt>
</event>
<event>
 6    1  0.8938744E-004  0.4044836E+03  0.7818608E-02  0.1042238E+00
         -1   -1    0    0    0  501 -0.00000000000E+00  0.00000000000E+00  0.67627378081E+03  0.67627378081E+03  0.00000000000E+00 0. -1.
          1   -1    0    0  502    0  0.00000000000E+00 -0.00000000000E+00 -0.24709961118E+03  0.24709961118E+03  0.00000000000E+00 0.  1.
    9000007    2    1    2  502    0  0.97118300246E+01  0.59880470704E+02  0.14772388622E+03  0.43053036176E+03  0.39981752765E+03 0.  0.
    9000005    1    3    3    0    0  0.93541915215E+01  0.10519923398E+03  0.27544839656E+03  0.29500372691E+03  0.99999687468E+00 0.  0.
          4    1    3    3  502    0  0.35763850311E+00 -0.45318763276E+02 -0.12772451034E+03  0.13552663485E+03  0.00000000000E+00 0.  1.
   -9000007    1    1    2    0  501 -0.97118300246E+01 -0.59880470704E+02  0.28145028341E+03  0.49284303023E+03  0.40000000000E+03 0. -1.
<mgrwt>
<rscale>  2 0.40448362E+03</rscale>
<asrwt>0</asrwt>
<pdfrwt beam="1">  1        1 0.38015325E-01 0.40448362E+03</pdfrwt>
<pdfrwt beam="2">  1       -1 0.10404212E+00 0.40448362E+03</pdfrwt>
<totfact> 0.10250426E+02</totfact>
</mgrwt>
</event>
<event>
 6    1  0.8938744E-004  0.6269882E+03  0.7818608E-02  0.9850944E-01
         -2   -1    0    0    0  501 -0.00000000000E+00  0.00000000000E+00  0.12284868026E+03  0.12284868026E+03  0.00000000000E+00 0.  1.
          2   -1    0    0  502    0  0.00000000000E+00 -0.00000000000E+00 -0.32001949913E+04  0.32001949913E+04  0.00000000000E+00 0. -1.
    9000007    2    1    2  502    0 -0.48145341479E+03  0.32186806081E+02 -0.15258580434E+04  0.16497387903E+04  0.40070179242E+03 0.  0.
    9000005    1    3    3    0    0 -0.19631277995E+03  0.18182559032E+03 -0.42040225182E+03  0.49833553575E+03  0.99999687468E+00 0.  0.
          4    1    3    3  502    0 -0.28514063484E+03 -0.14963878424E+03 -0.11054557916E+04  0.11514032545E+04  0.00000000000E+00 0.  1.
   -9000007    1    1    2    0  501  0.48145341479E+03 -0.32186806081E+02 -0.15514882677E+04  0.16733048813E+04  0.40000000000E+03 0. -1.
<mgrwt>
<rscale>  2 0.62698823E+03</rscale>
<asrwt>0</asrwt>
<pdfrwt beam="1">  1        2 0.49233771E+00 0.62698823E+03</pdfrwt>
<pdfrwt beam="2">  1       -2 0.18899796E-01 0.62698823E+03</pdfrwt>
<totfact> 0.33195871E+01</totfact>
</mgrwt>
</event>
<event>
 6    1  0.8938744E-004  0.4602522E+03  0.7818608E-02  0.1024708E+00
         -2   -1    0    0    0  501 -0.00000000000E+00  0.00000000000E+00  0.24151946933E+03  0.24151946933E+03  0.00000000000E+00 0.  1.
          2   -1    0    0  502    0  0.00000000000E+00 -0.00000000000E+00 -0.91661179497E+03  0.91661179497E+03  0.00000000000E+00 0. -1.
    9000007    2    1    2  502    0 -0.16530345493E+03 -0.15718381779E+03 -0.45764885460E+03  0.64890278131E+03  0.39950013852E+03 0.  0.
    9000005    1    3    3    0    0 -0.19484551180E+03 -0.16341154956E+03 -0.52043084526E+03  0.57923861464E+03  0.99999687468E+00 0.  0.
          4    1    3    3  502    0  0.29542056863E+02  0.62277317677E+01  0.62781990657E+02  0.69664166668E+02  0.00000000000E+00 0.  1.
   -9000007    1    1    2    0  501  0.16530345493E+03  0.15718381779E+03 -0.21744347104E+03  0.50922848299E+03  0.40000000000E+03 0.  1.
<mgrwt>
<rscale>  2 0.46025218E+03</rscale>
<asrwt>0</asrwt>
<pdfrwt beam="1">  1        2 0.14101720E+00 0.46025218E+03</pdfrwt>
<pdfrwt beam="2">  1       -2 0.37156842E-01 0.46025218E+03</pdfrwt>
<totfact> 0.20106217E+02</totfact>
</mgrwt>
</event>
<event>
 6    1  0.8938744E-004  0.4001874E+03  0.7818608E-02  0.1043715E+00
         -2   -1    0    0    0  501 -0.00000000000E+00  0.00000000000E+00  0.26475542291E+03  0.26475542291E+03  0.00000000000E+00 0.  1.
          2   -1    0    0  502    0  0.00000000000E+00 -0.00000000000E+00 -0.62621964588E+03  0.62621964588E+03  0.00000000000E+00 0. -1.
    9000007    2    1    2  502    0 -0.55779922983E+01 -0.35072117031E+00 -0.26299932857E+03  0.47899621930E+03  0.40029675775E+03 0.  0.
    9000005    1    3    3    0    0  0.12543984826E+03 -0.12769160341E+03 -0.23303777747E+03  0.29385014351E+03  0.99999687468E+00 0.  0.
          4    1    3    3  502    0 -0.13101784056E+03  0.12734088224E+03 -0.29961551099E+02  0.18514607579E+03  0.00000000000E+00 0.  1.
   -9000007    1    1    2    0  501  0.55779922983E+01  0.35072117031E+00 -0.98464894401E+02  0.41197884950E+03  0.40000000000E+03 0.  1.
<mgrwt>
<rscale>  2 0.40018738E+03</rscale>
<asrwt>0</asrwt>
<pdfrwt beam="1">  1        2 0.96341484E-01 0.40018738E+03</pdfrwt>
<pdfrwt beam="2">  1       -2 0.40731603E-01 0.40018738E+03</pdfrwt>
<totfact> 0.27561664E+02</totfact>
</mgrwt>
</event>
<event>
 6    1  0.8938744E-004  0.4462288E+03  0.7818608E-02  0.1028853E+00
          1   -1    0    0  502    0  0.00000000000E+00  0.00000000000E+00  0.68546813214E+03  0.68546813214E+03  0.00000000000E+00 0. -1.
         -1   -1    0    0    0  501 -0.00000000000E+00 -0.00000000000E+00 -0.29404699722E+03  0.29404699722E+03  0.00000000000E+00 0.  1.
    9000007    2    1    2  502    0 -0.18352317796E+03  0.73177078108E+02  0.14186910797E+03  0.46832841615E+03  0.40021121919E+03 0.  0.
    9000005    1    3    3    0    0 -0.23456057656E+03  0.18475740798E+03  0.26253405736E+02  0.29974022951E+03  0.99999687468E+00 0.  0.
          4    1    3    3  502    0  0.51037398597E+02 -0.11158032987E+03  0.11561570224E+03  0.16858818664E+03  0.00000000000E+00 0.  1.
   -9000007    1    1    2    0  501  0.18352317796E+03 -0.73177078108E+02  0.24955202694E+03  0.51118671321E+03  0.40000000000E+03 0. -1.
<mgrwt>
<rscale>  2 0.44622879E+03</rscale>
<asrwt>0</asrwt>
<pdfrwt beam="1">  1        1 0.10545664E+00 0.44622879E+03</pdfrwt>
<pdfrwt beam="2">  1       -1 0.45238000E-01 0.44622879E+03</pdfrwt>
<totfact> 0.14203352E+02</totfact>
</mgrwt>
</event>
<event>
 6    1  0.8938744E-004  0.4299945E+03  0.7818608E-02  0.1033862E+00
         -1   -1    0    0    0  501 -0.00000000000E+00  0.00000000000E+00  0.21563385494E+03  0.21563385494E+03  0.00000000000E+00 0.  1.
          1   -1    0    0  502    0  0.00000000000E+00 -0.00000000000E+00 -0.86008763812E+03  0.86008763812E+03  0.00000000000E+00 0. -1.
    9000007    2    1    2  502    0  0.31432594304E+02  0.15510114760E+03 -0.29231371242E+03  0.51980153173E+03  0.39962726627E+03 0.  0.
    9000005    1    3    3    0    0  0.13965072522E+03 -0.87066670199E+02 -0.11258460685E+03  0.19939715095E+03  0.99999687468E+00 0.  0.
          4    1    3    3  502    0 -0.10821813091E+03  0.24216781780E+03 -0.17972910558E+03  0.32040438078E+03  0.00000000000E+00 0.  1.
   -9000007    1    1    2    0  501 -0.31432594304E+02 -0.15510114760E+03 -0.35214007076E+03  0.55591996133E+03  0.40000000000E+03 0. -1.
<mgrwt>
<rscale>  2 0.42999452E+03</rscale>
<asrwt>0</asrwt>
<pdfrwt beam="1">  1        1 0.13232118E+00 0.42999452E+03</pdfrwt>
<pdfrwt beam="2">  1       -1 0.33174439E-01 0.42999452E+03</pdfrwt>
<totfact> 0.17467742E+02</totfact>
</mgrwt>
</event>
<event>
 6    1  0.8938744E-004  0.4203843E+03  0.7818608E-02  0.1036941E+00
         -2   -1    0    0    0  501 -0.00000000000E+00  0.00000000000E+00  0.16377250610E+03  0.16377250610E+03  0.00000000000E+00 0. -1.
          2   -1    0    0  502    0  0.00000000000E+00 -0.00000000000E+00 -0.12120993371E+04  0.12120993371E+04  0.00000000000E+00 0.  1.
    9000007    2    1    2  502    0 -0.28942810913E+02 -0.12691776078E+03 -0.75176842433E+03  0.86119457261E+03  0.39944276658E+03 0.  0.
    9000005    1    3    3    0    0  0.17279461569E+03  0.40162004293E+01 -0.39232324896E+03  0.42871043928E+03  0.99999687468E+00 0.  0.
          4    1    3    3  502    0 -0.20173742660E+03 -0.13093396121E+03 -0.35944517537E+03  0.43248413333E+03  0.00000000000E+00 0.  1.
   -9000007    1    1    2    0  501  0.28942810913E+02  0.12691776078E+03 -0.29655840668E+03  0.51467727061E+03  0.40000000000E+03 0. -1.
<mgrwt>
<rscale>  2 0.42038426E+03</rscale>
<asrwt>0</asrwt>
<pdfrwt beam="1">  1        2 0.18647682E+00 0.42038426E+03</pdfrwt>
<pdfrwt beam="2">  1       -2 0.25195770E-01 0.42038426E+03</pdfrwt>
<totfact> 0.27281160E+02</totfact>
</mgrwt>
</event>
<event>
 6    1  0.8938744E-004  0.4597475E+03  0.7818608E-02  0.1024854E+00
          2   -1    0    0  502    0  0.00000000000E+00  0.00000000000E+00  0.35255691594E+03  0.35255691594E+03  0.00000000000E+00 0. -1.
         -2   -1    0    0    0  501 -0.00000000000E+00 -0.00000000000E+00 -0.70525957699E+03  0.70525957699E+03  0.00000000000E+00 0.  1.
    9000007    2    1    2  502    0 -0.21614714785E+03 -0.65956304275E+02 -0.38124651598E+03  0.59750727593E+03  0.40074457606E+03 0.  0.
    9000005    1    3    3    0    0 -0.20503155446E+03 -0.83717746319E+02 -0.58682200773E+01  0.22154465774E+03  0.99999687468E+00 0.  0.
          4    1    3    3  502    0 -0.11115593394E+02  0.17761442044E+02 -0.37537829590E+03  0.37596261819E+03  0.00000000000E+00 0.  1.
   -9000007    1    1    2    0  501  0.21614714785E+03  0.65956304275E+02  0.28543854924E+02  0.46030921700E+03  0.40000000000E+03 0.  1.
<mgrwt>
<rscale>  2 0.45974745E+03</rscale>
<asrwt>0</asrwt>
<pdfrwt beam="1">  1        2 0.54239526E-01 0.45974745E+03</pdfrwt>
<pdfrwt beam="2">  1       -2 0.10850147E+00 0.45974745E+03</pdfrwt>
<totfact> 0.64194362E+01</totfact>
</mgrwt>
</event>
<event>
 6    1  0.8938744E-004  0.5335106E+03  0.7818608E-02  0.1005384E+00
         -1   -1    0    0    0  501 -0.00000000000E+00  0.00000000000E+00  0.21572850717E+03  0.21572850717E+03  0.00000000000E+00 0.  1.
          1   -1    0    0  502    0  0.00000000000E+00 -0.00000000000E+00 -0.14690533614E+04  0.14690533614E+04  0.00000000000E+00 0. -1.
    9000007    2    1    2  502    0  0.34392886358E+03 -0.80465446024E+02 -0.89539739234E+03  0.10422292877E+04  0.39967942989E+03 0.  0.
    9000005    1    3    3    0    0  0.14601786328E+03  0.85113189698E+02 -0.69571250939E+03  0.71594857858E+03  0.99999687468E+00 0.  0.
          4    1    3    3  502    0  0.19791100031E+03 -0.16557863572E+03 -0.19968488295E+03  0.32628070910E+03  0.00000000000E+00 0.  1.
   -9000007    1    1    2    0  501 -0.34392886358E+03  0.80465446024E+02 -0.35792746185E+03  0.64255258085E+03  0.40000000000E+03 0.  1.
<mgrwt>
<rscale>  2 0.53351059E+03</rscale>
<asrwt>0</asrwt>
<pdfrwt beam="1">  1        1 0.22600822E+00 0.53351059E+03</pdfrwt>
<pdfrwt beam="2">  1       -1 0.33189000E-01 0.53351059E+03</pdfrwt>
<totfact> 0.61814501E+01</totfact>
</mgrwt>
</event>
<event>
 6    1  0.8938744E-004  0.4136210E+03  0.7818608E-02  0.1039163E+00
          1   -1    0    0  502    0  0.00000000000E+00  0.00000000000E+00  0.12753190024E+04  0.12753190024E+04  0.00000000000E+00 0. -1.
         -1   -1    0    0    0  501 -0.00000000000E+00 -0.00000000000E+00 -0.13942975723E+03  0.13942975723E+03  0.00000000000E+00 0.  1.
    9000007    2    1    2  502    0 -0.10520860181E+03 -0.55614367501E+01  0.70558513793E+03  0.81787238700E+03  0.39995634148E+03 0.  0.
    9000005    1    3    3    0    0  0.16754041536E+02  0.13297776848E+03  0.57838492230E+03  0.59371196987E+03  0.99999687468E+00 0.  0.
          4    1    3    3  502    0 -0.12196264334E+03 -0.13853920523E+03  0.12720021562E+03  0.22416041714E+03  0.00000000000E+00 0.  1.
   -9000007    1    1    2    0  501  0.10520860181E+03  0.55614367501E+01  0.43030410719E+03  0.59687637258E+03  0.40000000000E+03 0.  1.
<mgrwt>
<rscale>  2 0.41362098E+03</rscale>
<asrwt>0</asrwt>
<pdfrwt beam="1">  1        1 0.19620292E+00 0.41362098E+03</pdfrwt>
<pdfrwt beam="2">  1       -1 0.21450733E-01 0.41362098E+03</pdfrwt>
<totfact> 0.17981014E+02</totfact>
</mgrwt>
</event>
<event>
 6    1  0.8938744E-004  0.4895476E+03  0.7818608E-02  0.1016544E+00
         -2   -1    0    0    0  501 -0.00000000000E+00  0.00000000000E+00  0.36423299855E+03  0.36423299855E+03  0.00000000000E+00 0. -1.
          2   -1    0    0  502    0  0.00000000000E+00 -0.00000000000E+00 -0.11920271083E+04  0.11920271083E+04  0.00000000000E+00 0.  1.
    9000007    2    1    2  502    0 -0.27120572635E+03 -0.75541430061E+02 -0.93492157912E+03  0.10555252984E+04  0.40099406835E+03 0.  0.
    9000005    1    3    3    0    0  0.75305570840E+02 -0.11422764464E+03 -0.20305449937E+03  0.24484896060E+03  0.99999687468E+00 0.  0.
          4    1    3    3  502    0 -0.34651129719E+03  0.38686214583E+02 -0.73186707976E+03  0.81067633783E+03  0.00000000000E+00 0.  1.
   -9000007    1    1    2    0  501  0.27120572635E+03  0.75541430061E+02  0.10712746937E+03  0.50073480841E+03  0.40000000000E+03 0. -1.
<mgrwt>
<rscale>  2 0.48954759E+03</rscale>
<asrwt>0</asrwt>
<pdfrwt beam="1">  1        2 0.18338879E+00 0.48954759E+03</pdfrwt>
<pdfrwt beam="2">  1       -2 0.56035846E-01 0.48954759E+03</pdfrwt>
<totfact> 0.59970803E+01</totfact>
</mgrwt>
</event>
<event>
 6    1  0.8938744E-004  0.4017206E+03  0.7818608E-02  0.1043186E+00
          2   -1    0    0  502    0  0.00000000000E+00  0.00000000000E+00  0.28855070942E+03  0.28855070942E+03  0.00000000000E+00 0.  1.
         -2   -1    0    0    0  501 -0.00000000000E+00 -0.00000000000E+00 -0.65365136154E+03  0.65365136154E+03  0.00000000000E+00 0. -1.
    9000007    2    1    2  502    0 -0.23417573882E+01  0.36662887544E+02 -0.36157191534E+03  0.54050305039E+03  0.40007455101E+03 0.  0.
    9000005    1    3    3    0    0 -0.30028047728E+02  0.15796756487E+03 -0.38195304084E+03  0.41442075310E+03  0.99999687468E+00 0.  0.
          4    1    3    3  502    0  0.27686290340E+02 -0.12130467732E+03  0.20381125497E+02  0.12608229729E+03  0.00000000000E+00 0.  1.
   -9000007    1    1    2    0  501  0.23417573882E+01 -0.36662887544E+02 -0.35287367791E+01  0.40169902058E+03  0.40000000000E+03 0.  1.
<mgrwt>
<rscale>  2 0.40172064E+03</rscale>
<asrwt>0</asrwt>
<pdfrwt beam="1">  1        2 0.44392418E-01 0.40172064E+03</pdfrwt>
<pdfrwt beam="2">  1       -2 0.10056175E+00 0.40172064E+03</pdfrwt>
<totfact> 0.96277447E+01</totfact>
</mgrwt>
</event>
<event>
 6    1  0.8938744E-004  0.4096278E+03  0.7818608E-02  0.1040496E+00
         -2   -1    0    0    0  501 -0.00000000000E+00  0.00000000000E+00  0.19162349415E+03  0.19162349415E+03  0.00000000000E+00 0.  1.
          2   -1    0    0  502    0  0.00000000000E+00 -0.00000000000E+00 -0.35378076046E+04  0.35378076046E+04  0.00000000000E+00 0. -1.
    9000007    2    1    2  502    0  0.50130872116E+02  0.74078980673E+02 -0.32904056078E+04  0.33157741864E+04  0.39948540931E+03 0.  0.
    9000005    1    3    3    0    0  0.59082551315E+02  0.23584429056E+03 -0.17348524102E+04  0.17518068279E+04  0.99999687468E+00 0.  0.
          4    1    3    3  502    0 -0.89516791989E+01 -0.16176530988E+03 -0.15555531976E+04  0.15639673585E+04  0.00000000000E+00 0.  1.
   -9000007    1    1    2    0  501 -0.50130872116E+02 -0.74078980673E+02 -0.55778502683E+02  0.41365691228E+03  0.40000000000E+03 0.  1.
<mgrwt>
<rscale>  2 0.40962784E+03</rscale>
<asrwt>0</asrwt>
<pdfrwt beam="1">  1        2 0.54427812E+00 0.40962784E+03</pdfrwt>
<pdfrwt beam="2">  1       -2 0.29480536E-01 0.40962784E+03</pdfrwt>
<totfact> 0.95884562E+00</totfact>
</mgrwt>
</event>
<event>
 6    1  0.8938744E-004  0.4027257E+03  0.7818608E-02  0.1042840E+00
          2   -1    0    0  502    0  0.00000000000E+00  0.00000000000E+00  0.37926980990E+03  0.37926980990E+03  0.00000000000E+00 0.  1.
         -2   -1    0    0    0  501 -0.00000000000E+00 -0.00000000000E+00 -0.49688335052E+03  0.49688335052E+03  0.00000000000E+00 0. -1.
    9000007    2    1    2  502    0 -0.10591796089E+02 -0.45534030457E+02 -0.22235173141E+03  0.46003343884E+03  0.40000617284E+03 0.  0.
    9000005    1    3    3    0    0 -0.41964311074E+02 -0.15779301239E+03  0.44160060489E+02  0.16914712265E+03  0.99999687468E+00 0.  0.
          4    1    3    3  502    0  0.31372514985E+02  0.11225898193E+03 -0.26651179190E+03  0.29088631619E+03  0.00000000000E+00 0.  1.
   -9000007    1    1    2    0  501  0.10591796089E+02  0.45534030457E+02  0.10473819080E+03  0.41611972158E+03  0.40000000000E+03 0.  1.
<mgrwt>
<rscale>  2 0.40272572E+03</rscale>
<asrwt>0</asrwt>
<pdfrwt beam="1">  1        2 0.58349202E-01 0.40272572E+03</pdfrwt>
<pdfrwt beam="2">  1       -2 0.76443592E-01 0.40272572E+03</pdfrwt>
<totfact> 0.13304900E+02</totfact>
</mgrwt>
</event>
<event>
 6    1  0.8938744E-004  0.4056162E+03  0.7818608E-02  0.1041852E+00
          2   -1    0    0  502    0  0.00000000000E+00  0.00000000000E+00  0.14007888893E+04  0.14007888893E+04  0.00000000000E+00 0. -1.
         -2   -1    0    0    0  501 -0.00000000000E+00 -0.00000000000E+00 -0.16893836603E+03  0.16893836603E+03  0.00000000000E+00 0.  1.
    9000007    2    1    2  502    0 -0.27435069703E+02 -0.63693821322E+02  0.18226476664E+03  0.44436515961E+03  0.39928732011E+03 0.  0.
    9000005    1    3    3    0    0 -0.89977832115E+02  0.13366712592E+03  0.17402455210E+03  0.23716756851E+03  0.99999687468E+00 0.  0.
          4    1    3    3  502    0  0.62542762411E+02 -0.19736094724E+03  0.82402145303E+01  0.20719759111E+03  0.00000000000E+00 0.  1.
   -9000007    1    1    2    0  501  0.27435069703E+02  0.63693821322E+02  0.10495857566E+04  0.11253620957E+04  0.40000000000E+03 0. -1.
<mgrwt>
<rscale>  2 0.40561622E+03</rscale>
<asrwt>0</asrwt>
<pdfrwt beam="1">  1        2 0.21550598E+00 0.40561622E+03</pdfrwt>
<pdfrwt beam="2">  1       -2 0.25990519E-01 0.40561622E+03</pdfrwt>
<totfact> 0.20229381E+02</totfact>
</mgrwt>
</event>
<event>
 6    1  0.8938744E-004  0.4299741E+03  0.7818608E-02  0.1033868E+00
          2   -1    0    0  502    0  0.00000000000E+00  0.00000000000E+00  0.82062008148E+03  0.82062008148E+03  0.00000000000E+00 0.  1.
         -2   -1    0    0    0  501 -0.00000000000E+00 -0.00000000000E+00 -0.24484592585E+03  0.24484592585E+03  0.00000000000E+00 0. -1.
    9000007    2    1    2  502    0  0.15759682551E+03 -0.30270095610E+02  0.13671049073E+03  0.45021813864E+03  0.39781098023E+03 0.  0.
    9000005    1    3    3    0    0 -0.68000276670E+02  0.10097200501E+03 -0.47590040932E+02  0.13071034929E+03  0.99999687468E+00 0.  0.
          4    1    3    3  502    0  0.22559710218E+03 -0.13124210062E+03  0.18430053166E+03  0.31950778935E+03  0.00000000000E+00 0.  1.
   -9000007    1    1    2    0  501 -0.15759682551E+03  0.30270095610E+02  0.43906366490E+03  0.61524786870E+03  0.40000000000E+03 0. -1.
<mgrwt>
<rscale>  2 0.42997414E+03</rscale>
<asrwt>0</asrwt>
<pdfrwt beam="1">  1        2 0.12624924E+00 0.42997414E+03</pdfrwt>
<pdfrwt beam="2">  1       -2 0.37668604E-01 0.42997414E+03</pdfrwt>
<totfact> 0.22795252E+02</totfact>
</mgrwt>
</event>
<event>
 6    1  0.8938744E-004  0.4782671E+03  0.7818608E-02  0.1019613E+00
         -3   -1    0    0    0  501 -0.00000000000E+00  0.00000000000E+00  0.84766336005E+03  0.84766336005E+03  0.00000000000E+00 0.  1.
          3   -1    0    0  502    0  0.00000000000E+00 -0.00000000000E+00 -0.27274940090E+03  0.27274940090E+03  0.00000000000E+00 0. -1.
    9000007    2    1    2  502    0 -0.26113017344E+03 -0.23450937976E+02  0.22966863874E+03  0.53055409547E+03  0.40000131328E+03 0.  0.
    9000005    1    3    3    0    0  0.49380310789E+02  0.70654510171E+00 -0.78283397015E+02  0.92564596588E+02  0.99999687468E+00 0.  0.
          4    1    3    3  502    0 -0.31051048423E+03 -0.24157483077E+02  0.30795203576E+03  0.43798949888E+03  0.00000000000E+00 0.  1.
   -9000007    1    1    2    0  501  0.26113017344E+03  0.23450937976E+02  0.34524532041E+03  0.58985866547E+03  0.40000000000E+03 0. -1.
<mgrwt>
<rscale>  2 0.47826712E+03</rscale>
<asrwt>0</asrwt>
<pdfrwt beam="1">  1        3 0.41961447E-01 0.47826712E+03</pdfrwt>
<pdfrwt beam="2">  1       -3 0.13040975E+00 0.47826712E+03</pdfrwt>
<totfact> 0.68079380E+00</totfact>
</mgrwt>
</event>
<event>
 6    1  0.8938744E-004  0.4032459E+03  0.7818608E-02  0.1042661E+00
         -1   -1    0    0    0  501 -0.00000000000E+00  0.00000000000E+00  0.11310109792E+03  0.11310109792E+03  0.00000000000E+00 0. -1.
          1   -1    0    0  502    0  0.00000000000E+00 -0.00000000000E+00 -0.15788167093E+04  0.15788167093E+04  0.00000000000E+00 0.  1.
    9000007    2    1    2  502    0  0.40037265332E+02 -0.11939125837E+02 -0.98752030952E+03  0.10670848119E+04  0.40215433438E+03 0.  0.
    9000005    1    3    3    0    0 -0.39119940698E+02 -0.14922846032E+03 -0.15166650776E+03  0.21634054798E+03  0.99999687468E+00 0.  0.
          4    1    3    3  502    0  0.79157206030E+02  0.13728933448E+03 -0.83585380176E+03  0.85074426389E+03  0.00000000000E+00 0.  1.
   -9000007    1    1    2    0  501 -0.40037265332E+02  0.11939125837E+02 -0.47819530184E+03  0.62483299532E+03  0.40000000000E+03 0. -1.
<mgrwt>
<rscale>  2 0.40324593E+03</rscale>
<asrwt>0</asrwt>
<pdfrwt beam="1">  1        1 0.24289488E+00 0.40324593E+03</pdfrwt>
<pdfrwt beam="2">  1       -1 0.17400169E-01 0.40324593E+03</pdfrwt>
<totfact> 0.15783195E+02</totfact>
</mgrwt>
</event>
<event>
 6    1  0.8938744E-004  0.6242389E+03  0.7818608E-02  0.9856356E-01
          1   -1    0    0  502    0  0.00000000000E+00  0.00000000000E+00  0.26888188840E+04  0.26888188840E+04  0.00000000000E+00 0.  1.
         -1   -1    0    0    0  501 -0.00000000000E+00 -0.00000000000E+00 -0.20907652743E+03  0.20907652743E+03  0.00000000000E+00 0. -1.
    9000007    2    1    2  502    0 -0.47936940505E+03  0.51383686180E+01  0.20423236807E+04  0.21355591816E+04  0.39963179544E+03 0.  0.
    9000005    1    3    3    0    0 -0.31598846676E+03  0.15891928138E+03  0.82335314500E+03  0.89611129359E+03  0.99999687468E+00 0.  0.
          4    1    3    3  502    0 -0.16338093829E+03 -0.15378091277E+03  0.12189705357E+04  0.12394478880E+04  0.00000000000E+00 0.  1.
   -9000007    1    1    2    0  501  0.47936940505E+03 -0.51383686180E+01  0.43741867584E+03  0.76233622982E+03  0.40000000000E+03 0. -1.
<mgrwt>
<rscale>  2 0.62423889E+03</rscale>
<asrwt>0</asrwt>
<pdfrwt beam="1">  1        1 0.41366442E+00 0.62423889E+03</pdfrwt>
<pdfrwt beam="2">  1       -1 0.32165622E-01 0.62423889E+03</pdfrwt>
<totfact> 0.97509137E+00</totfact>
</mgrwt>
</event>
<event>
 6    1  0.8938744E-004  0.4000877E+03  0.7818608E-02  0.1043749E+00
          2   -1    0    0  502    0  0.00000000000E+00  0.00000000000E+00  0.12958890859E+04  0.12958890859E+04  0.00000000000E+00 0.  1.
         -2   -1    0    0    0  501 -0.00000000000E+00 -0.00000000000E+00 -0.13045731952E+03  0.13045731952E+03  0.00000000000E+00 0. -1.
    9000007    2    1    2  502    0 -0.22392309185E+01  0.14063431594E+02  0.74692809440E+03  0.84725391044E+03  0.39966838290E+03 0.  0.
    9000005    1    3    3    0    0  0.11257270061E+03 -0.15662174900E+03  0.32699991527E+03  0.37964842916E+03  0.99999687468E+00 0.  0.
          4    1    3    3  502    0 -0.11481193153E+03  0.17068518060E+03  0.41992817912E+03  0.46760548128E+03  0.00000000000E+00 0.  1.
   -9000007    1    1    2    0  501  0.22392309185E+01 -0.14063431594E+02  0.41850367196E+03  0.57909249495E+03  0.40000000000E+03 0. -1.
<mgrwt>
<rscale>  2 0.40008767E+03</rscale>
<asrwt>0</asrwt>
<pdfrwt beam="1">  1        2 0.19936754E+00 0.40008767E+03</pdfrwt>
<pdfrwt beam="2">  1       -2 0.20070358E-01 0.40008767E+03</pdfrwt>
<totfact> 0.36532692E+02</totfact>
</mgrwt>
</event>
<event>
 6    1  0.8938744E-004  0.4306298E+03  0.7818608E-02  0.1033661E+00
          1   -1    0    0  502    0  0.00000000000E+00  0.00000000000E+00  0.30706902298E+03  0.30706902298E+03  0.00000000000E+00 0.  1.
         -1   -1    0    0    0  501 -0.00000000000E+00 -0.00000000000E+00 -0.64914724961E+03  0.64914724961E+03  0.00000000000E+00 0. -1.
    9000007    2    1    2  502    0 -0.33610678306E+02  0.15715068147E+03 -0.44662963818E+02  0.43249702248E+03  0.39903994754E+03 0.  0.
    9000005    1    3    3    0    0 -0.15404116415E+03  0.16916708894E+03 -0.14872275900E+03  0.27288393736E+03  0.99999687468E+00 0.  0.
          4    1    3    3  502    0  0.12043048584E+03 -0.12016407464E+02  0.10405979518E+03  0.15961308512E+03  0.00000000000E+00 0.  1.
   -9000007    1    1    2    0  501  0.33610678306E+02 -0.15715068147E+03 -0.29741526281E+03  0.52371925011E+03  0.40000000000E+03 0.  1.
<mgrwt>
<rscale>  2 0.43062984E+03</rscale>
<asrwt>0</asrwt>
<pdfrwt beam="1">  1        1 0.47241389E-01 0.43062984E+03</pdfrwt>
<pdfrwt beam="2">  1       -1 0.99868806E-01 0.43062984E+03</pdfrwt>
<totfact> 0.85000736E+01</totfact>
</mgrwt>
</event>
<event>
 6    1  0.8938744E-004  0.7456778E+03  0.7818608E-02  0.9642156E-01
          1   -1    0    0  502    0  0.00000000000E+00  0.00000000000E+00  0.68557531465E+03  0.68557531465E+03  0.00000000000E+00 0.  1.
         -1   -1    0    0    0  501 -0.00000000000E+00 -0.00000000000E+00 -0.10174213331E+04  0.10174213331E+04  0.00000000000E+00 0. -1.
    9000007    2    1    2  502    0  0.56893004315E+02 -0.62653986089E+03  0.21754185202E+03  0.77692103343E+03  0.40061555585E+03 0.  0.
    9000005    1    3    3    0    0  0.19064087784E+03 -0.37763109188E+03  0.25178563487E+03  0.49228669674E+03  0.99999687468E+00 0.  0.
          4    1    3    3  502    0 -0.13374787353E+03 -0.24890876901E+03 -0.34243782858E+02  0.28463433670E+03  0.00000000000E+00 0.  1.
   -9000007    1    1    2    0  501 -0.56893004315E+02  0.62653986089E+03 -0.54938787046E+03  0.92607561432E+03  0.40000000000E+03 0. -1.
<mgrwt>
<rscale>  2 0.74567779E+03</rscale>
<asrwt>0</asrwt>
<pdfrwt beam="1">  1        1 0.10547313E+00 0.74567779E+03</pdfrwt>
<pdfrwt beam="2">  1       -1 0.15652636E+00 0.74567779E+03</pdfrwt>
<totfact> 0.90136188E+00</totfact>
</mgrwt>
</event>
<event>
 6    1  0.8938744E-004  0.4537197E+03  0.7818608E-02  0.1026619E+00
          2   -1    0    0  502    0  0.00000000000E+00  0.00000000000E+00  0.77315812285E+03  0.77315812285E+03  0.00000000000E+00 0. -1.
         -2   -1    0    0    0  501 -0.00000000000E+00 -0.00000000000E+00 -0.39190688835E+03  0.39190688835E+03  0.00000000000E+00 0.  1.
    9000007    2    1    2  502    0 -0.86914521092E+02  0.18883063006E+03  0.52128550863E+03  0.69302609462E+03  0.40661461545E+03 0.  0.
    9000005    1    3    3    0    0 -0.33043508747E+02  0.59459872547E+02 -0.62665501344E+02  0.92494945625E+02  0.99999687468E+00 0.  0.
          4    1    3    3  502    0 -0.53871012345E+02  0.12937075751E+03  0.58395100997E+03  0.60053114900E+03  0.00000000000E+00 0.  1.
   -9000007    1    1    2    0  501  0.86914521092E+02 -0.18883063006E+03 -0.14003427413E+03  0.47203891657E+03  0.40000000000E+03 0.  1.
<mgrwt>
<rscale>  2 0.45371971E+03</rscale>
<asrwt>0</asrwt>
<pdfrwt beam="1">  1        2 0.11894740E+00 0.45371971E+03</pdfrwt>
<pdfrwt beam="2">  1       -2 0.60293368E-01 0.45371971E+03</pdfrwt>
<totfact> 0.95852082E+01</totfact>
</mgrwt>
</event>
<event>
 6    1  0.8938744E-004  0.4498660E+03  0.7818608E-02  0.1027762E+00
         -2   -1    0    0    0  501 -0.00000000000E+00  0.00000000000E+00  0.16394337934E+03  0.16394337934E+03  0.00000000000E+00 0.  1.
          2   -1    0    0  502    0  0.00000000000E+00 -0.00000000000E+00 -0.12516566922E+04  0.12516566922E+04  0.00000000000E+00 0. -1.
    9000007    2    1    2  502    0 -0.10234989182E+03  0.17851200962E+03 -0.46091044253E+03  0.64409253678E+03  0.40009339156E+03 0.  0.
    9000005    1    3    3    0    0  0.30051456757E+02 -0.63084428689E+02 -0.33317073042E+03  0.34042101991E+03  0.99999687468E+00 0.  0.
          4    1    3    3  502    0 -0.13240134858E+03  0.24159643831E+03 -0.12773971211E+03  0.30367151687E+03  0.00000000000E+00 0.  1.
   -9000007    1    1    2    0  501  0.10234989182E+03 -0.17851200962E+03 -0.62680287033E+03  0.77150753476E+03  0.40000000000E+03 0.  1.
<mgrwt>
<rscale>  2 0.44986598E+03</rscale>
<asrwt>0</asrwt>
<pdfrwt beam="1">  1        2 0.19256256E+00 0.44986598E+03</pdfrwt>
<pdfrwt beam="2">  1       -2 0.25222059E-01 0.44986598E+03</pdfrwt>
<totfact> 0.25762608E+02</totfact>
</mgrwt>
</event>
<event>
 6    1  0.8938744E-004  0.5374308E+03  0.7818608E-02  0.1004446E+00
          2   -1    0    0  502    0  0.00000000000E+00  0.00000000000E+00  0.87578692324E+03  0.87578692324E+03  0.00000000000E+00 0.  1.
         -2   -1    0    0    0  501 -0.00000000000E+00 -0.00000000000E+00 -0.35960936853E+03  0.35960936853E+03  0.00000000000E+00 0. -1.
    9000007    2    1    2  502    0 -0.23257026639E+03  0.27356340367E+03  0.80197915365E+02  0.54329506322E+03  0.39976487522E+03 0.  0.
    9000005    1    3    3    0    0 -0.22696370300E+03  0.27914546320E+03 -0.91652551145E+02  0.37126257855E+03  0.99999687468E+00 0.  0.
          4    1    3    3  502    0 -0.56065633871E+01 -0.55820595358E+01  0.17185046651E+03  0.17203248467E+03  0.00000000000E+00 0.  1.
   -9000007    1    1    2    0  501  0.23257026639E+03 -0.27356340367E+03  0.43597963935E+03  0.69210122855E+03  0.40000000000E+03 0.  1.
<mgrwt>
<rscale>  2 0.53743076E+03</rscale>
<asrwt>0</asrwt>
<pdfrwt beam="1">  1        2 0.13473645E+00 0.53743076E+03</pdfrwt>
<pdfrwt beam="2">  1       -2 0.55324518E-01 0.53743076E+03</pdfrwt>
<totfact> 0.96408784E+01</totfact>
</mgrwt>
</event>
<event>
 6    1  0.8938744E-004  0.4519319E+03  0.7818608E-02  0.1027147E+00
          2   -1    0    0  502    0  0.00000000000E+00  0.00000000000E+00  0.13520018472E+04  0.13520018472E+04  0.00000000000E+00 0. -1.
         -2   -1    0    0    0  501 -0.00000000000E+00 -0.00000000000E+00 -0.38317260783E+03  0.38317260783E+03  0.00000000000E+00 0.  1.
    9000007    2    1    2  502    0  0.18935467990E+03  0.90658009385E+02  0.11597346684E+04  0.12447471390E+04  0.40042086550E+03 0.  0.
    9000005    1    3    3    0    0  0.22436039376E+03 -0.97381392279E+02  0.48151434140E+03  0.54007201632E+03  0.99999687468E+00 0.  0.
          4    1    3    3  502    0 -0.35005713854E+02  0.18803940166E+03  0.67822032703E+03  0.70467512272E+03  0.00000000000E+00 0.  1.
   -9000007    1    1    2    0  501 -0.18935467990E+03 -0.90658009385E+02 -0.19090542903E+03  0.49042731602E+03  0.40000000000E+03 0.  1.
<mgrwt>
<rscale>  2 0.45193189E+03</rscale>
<asrwt>0</asrwt>
<pdfrwt beam="1">  1        2 0.20800028E+00 0.45193189E+03</pdfrwt>
<pdfrwt beam="2">  1       -2 0.58949633E-01 0.45193189E+03</pdfrwt>
<totfact> 0.43984436E+01</totfact>
</mgrwt>
</event>
<event>
 6    1  0.8938744E-004  0.4105794E+03  0.7818608E-02  0.1040177E+00
         -2   -1    0    0    0  501 -0.00000000000E+00  0.00000000000E+00  0.14070065877E+04  0.14070065877E+04  0.00000000000E+00 0.  1.
          2   -1    0    0  502    0  0.00000000000E+00 -0.00000000000E+00 -0.16504933425E+03  0.16504933425E+03  0.00000000000E+00 0. -1.
    9000007    2    1    2  502    0 -0.87232511858E+02 -0.32110057580E+02  0.20937957769E+03  0.46081462349E+03  0.39983714528E+03 0.  0.
    9000005    1    3    3    0    0 -0.22584479268E+03 -0.11810642143E+02  0.22602307081E+03  0.31973862792E+03  0.99999687468E+00 0.  0.
          4    1    3    3  502    0  0.13861228083E+03 -0.20299415437E+02 -0.16643493119E+02  0.14107599557E+03  0.00000000000E+00 0.  1.
   -9000007    1    1    2    0  501  0.87232511858E+02  0.32110057580E+02  0.10325776757E+04  0.11112412984E+04  0.40000000000E+03 0.  1.
<mgrwt>
<rscale>  2 0.41057938E+03</rscale>
<asrwt>0</asrwt>
<pdfrwt beam="1">  1        2 0.25392206E-01 0.41057938E+03</pdfrwt>
<pdfrwt beam="2">  1       -2 0.21646254E+00 0.41057938E+03</pdfrwt>
<totfact> 0.23639705E+01</totfact>
</mgrwt>
</event>
<event>
 6    1  0.8938744E-004  0.4151764E+03  0.7818608E-02  0.1038648E+00
         -1   -1    0    0    0  501 -0.00000000000E+00  0.00000000000E+00  0.87702573988E+02  0.87702573988E+02  0.00000000000E+00 0. -1.
          1   -1    0    0  502    0  0.00000000000E+00 -0.00000000000E+00 -0.20630705055E+04  0.20630705055E+04  0.00000000000E+00 0.  1.
    9000007    2    1    2  502    0  0.10640600268E+03  0.28971556211E+02 -0.12222310664E+04  0.12909028997E+04  0.40052456644E+03 0.  0.
    9000005    1    3    3    0    0 -0.12340253361E+03  0.51467492480E+02 -0.18488224591E+03  0.22816558226E+03  0.99999687468E+00 0.  0.
          4    1    3    3  502    0  0.22980853630E+03 -0.22495936270E+02 -0.10373488205E+04  0.10627373175E+04  0.00000000000E+00 0.  1.
   -9000007    1    1    2    0  501 -0.10640600268E+03 -0.28971556211E+02 -0.75313686505E+03  0.85987017972E+03  0.40000000000E+03 0.  1.
<mgrwt>
<rscale>  2 0.41517638E+03</rscale>
<asrwt>0</asrwt>
<pdfrwt beam="1">  1        1 0.31739548E+00 0.41517638E+03</pdfrwt>
<pdfrwt beam="2">  1       -1 0.13492703E-01 0.41517638E+03</pdfrwt>
<totfact> 0.11366591E+02</totfact>
</mgrwt>
</event>
<event>
 6    1  0.8938744E-004  0.4706534E+03  0.7818608E-02  0.1021736E+00
         -3   -1    0    0    0  501 -0.00000000000E+00  0.00000000000E+00  0.94008104580E+03  0.94008104580E+03  0.00000000000E+00 0. -1.
          3   -1    0    0  502    0  0.00000000000E+00 -0.00000000000E+00 -0.25707553275E+03  0.25707553275E+03  0.00000000000E+00 0.  1.
    9000007    2    1    2  502    0 -0.65590370780E+02  0.24141493121E+03  0.16788387657E+03  0.49863416222E+03  0.39732576807E+03 0.  0.
    9000005    1    3    3    0    0 -0.18754917854E+03  0.24296153151E+02  0.16282513576E+03  0.24955564963E+03  0.99999687468E+00 0.  0.
          4    1    3    3  502    0  0.12195880776E+03  0.21711877806E+03  0.50587408104E+01  0.24907851260E+03  0.00000000000E+00 0.  1.
   -9000007    1    1    2    0  501  0.65590370780E+02 -0.24141493121E+03  0.51512163647E+03  0.69852241633E+03  0.40000000000E+03 0. -1.
<mgrwt>
<rscale>  2 0.47065336E+03</rscale>
<asrwt>0</asrwt>
<pdfrwt beam="1">  1        3 0.39550082E-01 0.47065336E+03</pdfrwt>
<pdfrwt beam="2">  1       -3 0.14462785E+00 0.47065336E+03</pdfrwt>
<totfact> 0.59025286E+00</totfact>
</mgrwt>
</event>
<event>
 6    1  0.8938744E-004  0.1397767E+04  0.7818608E-02  0.8955436E-01
          1   -1    0    0  502    0  0.00000000000E+00  0.00000000000E+00  0.15704889528E+04  0.15704889528E+04  0.00000000000E+00 0.  1.
         -1   -1    0    0    0  501 -0.00000000000E+00 -0.00000000000E+00 -0.13400793589E+04  0.13400793589E+04  0.00000000000E+00 0. -1.
    9000007    2    1    2  502    0 -0.30012517820E+03  0.13057985451E+04 -0.27441993101E+03  0.14239487194E+04  0.39640723270E+03 0.  0.
    9000005    1    3    3    0    0 -0.15214106799E+03  0.12160849966E+03 -0.96467195370E+02  0.21735328738E+03  0.99999687468E+00 0.  0.
          4    1    3    3  502    0 -0.14798411020E+03  0.11841900454E+04 -0.17795273564E+03  0.12065954321E+04  0.00000000000E+00 0.  1.
   -9000007    1    1    2    0  501  0.30012517820E+03 -0.13057985451E+04  0.50482952493E+03  0.14866195923E+04  0.40000000000E+03 0. -1.
<mgrwt>
<rscale>  2 0.13977674E+04</rscale>
<asrwt>0</asrwt>
<pdfrwt beam="1">  1        1 0.24161369E+00 0.13977674E+04</pdfrwt>
<pdfrwt beam="2">  1       -1 0.20616605E+00 0.13977674E+04</pdfrwt>
<totfact> 0.76415975E-01</totfact>
</mgrwt>
</event>
<event>
 6    1  0.8938744E-004  0.4734389E+03  0.7818608E-02  0.1020954E+00
         -1   -1    0    0    0  501 -0.00000000000E+00  0.00000000000E+00  0.57897527917E+03  0.57897527917E+03  0.00000000000E+00 0. -1.
          1   -1    0    0  502    0  0.00000000000E+00 -0.00000000000E+00 -0.50475626943E+03  0.50475626943E+03  0.00000000000E+00 0.  1.
    9000007    2    1    2  502    0 -0.23638249688E+03  0.90795194015E+02 -0.22445716108E+03  0.52397454140E+03  0.40005980902E+03 0.  0.
    9000005    1    3    3    0    0 -0.29536938006E+03 -0.67482909108E+02 -0.16434686976E+03  0.34468522929E+03  0.99999687468E+00 0.  0.
          4    1    3    3  502    0  0.58986883180E+02  0.15827810312E+03 -0.60110291320E+02  0.17928931211E+03  0.00000000000E+00 0.  1.
   -9000007    1    1    2    0  501  0.23638249688E+03 -0.90795194015E+02  0.29867617082E+03  0.55975700719E+03  0.40000000000E+03 0. -1.
<mgrwt>
<rscale>  2 0.47343888E+03</rscale>
<asrwt>0</asrwt>
<pdfrwt beam="1">  1        1 0.77654811E-01 0.47343888E+03</pdfrwt>
<pdfrwt beam="2">  1       -1 0.89073119E-01 0.47343888E+03</pdfrwt>
<totfact> 0.56767317E+01</totfact>
</mgrwt>
</event>
<event>
 6    1  0.8938744E-004  0.4125518E+03  0.7818608E-02  0.1039518E+00
         -2   -1    0    0    0  501 -0.00000000000E+00  0.00000000000E+00  0.97327128599E+02  0.97327128599E+02  0.00000000000E+00 0. -1.
          2   -1    0    0  502    0  0.00000000000E+00 -0.00000000000E+00 -0.46776727472E+04  0.46776727472E+04  0.00000000000E+00 0.  1.
    9000007    2    1    2  502    0  0.99045781024E+02  0.22778353528E+02 -0.41790714859E+04  0.41993699168E+04  0.39967523537E+03 0.  0.
    9000005    1    3    3    0    0  0.18611205817E+03 -0.69905460518E+02 -0.11099084215E+04  0.11275735788E+04  0.99999687468E+00 0.  0.
          4    1    3    3  502    0 -0.87066277142E+02  0.92683814046E+02 -0.30691630644E+04  0.30717963379E+04  0.00000000000E+00 0.  1.
   -9000007    1    1    2    0  501 -0.99045781024E+02 -0.22778353528E+02 -0.40127413273E+03  0.57562995902E+03  0.40000000000E+03 0. -1.
<mgrwt>
<rscale>  2 0.41255184E+03</rscale>
<asrwt>0</asrwt>
<pdfrwt beam="1">  1        2 0.71964173E+00 0.41255184E+03</pdfrwt>
<pdfrwt beam="2">  1       -2 0.14973409E-01 0.41255184E+03</pdfrwt>
<totfact> 0.36426678E+00</totfact>
</mgrwt>
</event>
<event>
 6    1  0.8938744E-004  0.5646340E+03  0.7818608E-02  0.9981624E-01
         -2   -1    0    0    0  501 -0.00000000000E+00  0.00000000000E+00  0.17685051245E+03  0.17685051245E+03  0.00000000000E+00 0. -1.
          2   -1    0    0  502    0  0.00000000000E+00 -0.00000000000E+00 -0.18791464834E+04  0.18791464834E+04  0.00000000000E+00 0.  1.
    9000007    2    1    2  502    0 -0.37781937241E+03 -0.12698056433E+03 -0.10583907214E+04  0.11995593085E+04  0.39985006393E+03 0.  0.
    9000005    1    3    3    0    0 -0.88980351690E+02 -0.23191723429E+03 -0.36954139749E+03  0.44526952624E+03  0.99999687468E+00 0.  0.
          4    1    3    3  502    0 -0.28883902072E+03  0.10493666997E+03 -0.68884932387E+03  0.75428978224E+03  0.00000000000E+00 0.  1.
   -9000007    1    1    2    0  501  0.37781937241E+03  0.12698056433E+03 -0.64390524958E+03  0.85643768736E+03  0.40000000000E+03 0. -1.
<mgrwt>
<rscale>  2 0.56463402E+03</rscale>
<asrwt>0</asrwt>
<pdfrwt beam="1">  1        2 0.28909946E+00 0.56463402E+03</pdfrwt>
<pdfrwt beam="2">  1       -2 0.27207771E-01 0.56463402E+03</pdfrwt>
<totfact> 0.10025880E+02</totfact>
</mgrwt>
</event>
<event>
 6    1  0.8938744E-004  0.4025411E+03  0.7818608E-02  0.1042903E+00
         -1   -1    0    0    0  501 -0.00000000000E+00  0.00000000000E+00  0.29991017469E+03  0.29991017469E+03  0.00000000000E+00 0.  1.
          1   -1    0    0  502    0  0.00000000000E+00 -0.00000000000E+00 -0.70150892645E+03  0.70150892645E+03  0.00000000000E+00 0. -1.
    9000007    2    1    2  502    0  0.26760758286E+02  0.37048883623E+02 -0.44081005102E+03  0.59691164268E+03  0.39987654361E+03 0.  0.
    9000005    1    3    3    0    0  0.60287391117E-01  0.94046287243E+02 -0.50104258188E+03  0.50979346467E+03  0.99999687468E+00 0.  0.
          4    1    3    3  502    0  0.26700470895E+02 -0.56997403620E+02  0.60232530857E+02  0.87118178005E+02  0.00000000000E+00 0.  1.
   -9000007    1    1    2    0  501 -0.26760758286E+02 -0.37048883623E+02  0.39211299265E+02  0.40450745846E+03  0.40000000000E+03 0.  1.
<mgrwt>
<rscale>  2 0.40254115E+03</rscale>
<asrwt>0</asrwt>
<pdfrwt beam="1">  1        1 0.10792445E+00 0.40254115E+03</pdfrwt>
<pdfrwt beam="2">  1       -1 0.46140027E-01 0.40254115E+03</pdfrwt>
<totfact> 0.13300019E+02</totfact>
</mgrwt>
</event>
<event>
 6    1  0.8938744E-004  0.6567998E+03  0.7818608E-02  0.9794103E-01
         -2   -1    0    0    0  501 -0.00000000000E+00  0.00000000000E+00  0.23461562421E+03  0.23461562421E+03  0.00000000000E+00 0.  1.
          2   -1    0    0  502    0  0.00000000000E+00 -0.00000000000E+00 -0.20689296512E+04  0.20689296512E+04  0.00000000000E+00 0. -1.
    9000007    2    1    2  502    0 -0.10480952386E+03  0.51042828970E+03 -0.13012498789E+04  0.14575668707E+04  0.39965968028E+03 0.  0.
    9000005    1    3    3    0    0  0.80564607730E+02  0.44403299074E+03 -0.79159127083E+03  0.91119355405E+03  0.99999687468E+00 0.  0.
          4    1    3    3  502    0 -0.18537413159E+03  0.66395298957E+02 -0.50965860806E+03  0.54637331666E+03  0.00000000000E+00 0.  1.
   -9000007    1    1    2    0  501  0.10480952386E+03 -0.51042828970E+03 -0.53306414805E+03  0.84597840466E+03  0.40000000000E+03 0.  1.
<mgrwt>
<rscale>  2 0.65679980E+03</rscale>
<asrwt>0</asrwt>
<pdfrwt beam="1">  1        2 0.31829687E+00 0.65679980E+03</pdfrwt>
<pdfrwt beam="2">  1       -2 0.36094711E-01 0.65679980E+03</pdfrwt>
<totfact> 0.46124909E+01</totfact>
</mgrwt>
</event>
<event>
 6    1  0.8938744E-004  0.4041721E+03  0.7818608E-02  0.1042345E+00
          2   -1    0    0  502    0  0.00000000000E+00  0.00000000000E+00  0.23871739335E+04  0.23871739335E+04  0.00000000000E+00 0.  1.
         -2   -1    0    0    0  501 -0.00000000000E+00 -0.00000000000E+00 -0.71960100973E+02  0.71960100973E+02  0.00000000000E+00 0. -1.
    9000007    2    1    2  502    0 -0.22434677066E+02  0.32694065126E+02  0.89141029871E+03  0.97967848612E+03  0.40445691847E+03 0.  0.
    9000005    1    3    3    0    0  0.55433134995E+01  0.20645638482E+03  0.31231371628E+03  0.37442732877E+03  0.99999687468E+00 0.  0.
          4    1    3    3  502    0 -0.27977990566E+02 -0.17376231969E+03  0.57909658243E+03  0.60525115735E+03  0.00000000000E+00 0.  1.
   -9000007    1    1    2    0  501  0.22434677066E+02 -0.32694065126E+02  0.14238035338E+04  0.14794555483E+04  0.40000000000E+03 0.  1.
<mgrwt>
<rscale>  2 0.40417209E+03</rscale>
<asrwt>0</asrwt>
<pdfrwt beam="1">  1        2 0.36725747E+00 0.40417209E+03</pdfrwt>
<pdfrwt beam="2">  1       -2 0.11070787E-01 0.40417209E+03</pdfrwt>
<totfact> 0.25385083E+02</totfact>
</mgrwt>
</event>
<event>
 6    1  0.8938744E-004  0.4262656E+03  0.7818608E-02  0.1035046E+00
         -2   -1    0    0    0  501 -0.00000000000E+00  0.00000000000E+00  0.32362925879E+03  0.32362925879E+03  0.00000000000E+00 0.  1.
          2   -1    0    0  502    0  0.00000000000E+00 -0.00000000000E+00 -0.57737149667E+03  0.57737149667E+03  0.00000000000E+00 0. -1.
    9000007    2    1    2  502    0 -0.14617713876E+03  0.17152380451E+02 -0.52080094922E+02  0.42948237835E+03  0.40010100847E+03 0.  0.
    9000005    1    3    3    0    0 -0.60328528137E+02 -0.19144833440E+03 -0.23339468420E+02  0.20208346501E+03  0.99999687468E+00 0.  0.
          4    1    3    3  502    0 -0.85848610619E+02  0.20860071485E+03 -0.28740626502E+02  0.22739891335E+03  0.00000000000E+00 0.  1.
   -9000007    1    1    2    0  501  0.14617713876E+03 -0.17152380451E+02 -0.20166214295E+03  0.47151837711E+03  0.40000000000E+03 0. -1.
<mgrwt>
<rscale>  2 0.42626560E+03</rscale>
<asrwt>0</asrwt>
<pdfrwt beam="1">  1        2 0.88826383E-01 0.42626560E+03</pdfrwt>
<pdfrwt beam="2">  1       -2 0.49789117E-01 0.42626560E+03</pdfrwt>
<totfact> 0.20373122E+02</totfact>
</mgrwt>
</event>
<event>
 6    1  0.8938744E-004  0.4156602E+03  0.7818608E-02  0.1038488E+00
          2   -1    0    0  502    0  0.00000000000E+00  0.00000000000E+00  0.40050929393E+04  0.40050929393E+04  0.00000000000E+00 0.  1.
         -2   -1    0    0    0  501 -0.00000000000E+00 -0.00000000000E+00 -0.13195271041E+03  0.13195271041E+03  0.00000000000E+00 0. -1.
    9000007    2    1    2  502    0 -0.70079778089E+02 -0.87957779297E+02  0.23975847801E+03  0.47998252558E+03  0.40031406527E+03 0.  0.
    9000005    1    3    3    0    0  0.15566158439E+02  0.10936626548E+03 -0.48216092874E+02  0.12053662066E+03  0.99999687468E+00 0.  0.
          4    1    3    3  502    0 -0.85645936528E+02 -0.19732404478E+03  0.28797457088E+03  0.35944590492E+03  0.00000000000E+00 0.  1.
   -9000007    1    1    2    0  501  0.70079778089E+02  0.87957779297E+02  0.36333817509E+04  0.36570631241E+04  0.40000000000E+03 0.  1.
<mgrwt>
<rscale>  2 0.41566017E+03</rscale>
<asrwt>0</asrwt>
<pdfrwt beam="1">  1        2 0.61616805E+00 0.41566017E+03</pdfrwt>
<pdfrwt beam="2">  1       -2 0.20300420E-01 0.41566017E+03</pdfrwt>
<totfact> 0.85319333E+00</totfact>
</mgrwt>
</event>
<event>
 6    1  0.8938744E-004  0.5026122E+03  0.7818608E-02  0.1013099E+00
         -2   -1    0    0    0  501 -0.00000000000E+00  0.00000000000E+00  0.30897283522E+03  0.30897283522E+03  0.00000000000E+00 0. -1.
          2   -1    0    0  502    0  0.00000000000E+00 -0.00000000000E+00 -0.84154402529E+03  0.84154402529E+03  0.00000000000E+00 0.  1.
    9000007    2    1    2  502    0 -0.29502547291E+02  0.30312938635E+03 -0.36322985313E+03  0.62001303059E+03  0.39965285778E+03 0.  0.
    9000005    1    3    3    0    0  0.46060234124E+02  0.35675769560E+03 -0.15422076544E+03  0.39138554269E+03  0.99999687468E+00 0.  0.
          4    1    3    3  502    0 -0.75562781415E+02 -0.53628309251E+02 -0.20900908769E+03  0.22862748790E+03  0.00000000000E+00 0.  1.
   -9000007    1    1    2    0  501  0.29502547291E+02 -0.30312938635E+03 -0.16934133694E+03  0.53050382992E+03  0.40000000000E+03 0. -1.
<mgrwt>
<rscale>  2 0.50261217E+03</rscale>
<asrwt>0</asrwt>
<pdfrwt beam="1">  1        2 0.12946831E+00 0.50261217E+03</pdfrwt>
<pdfrwt beam="2">  1       -2 0.47534282E-01 0.50261217E+03</pdfrwt>
<totfact> 0.13899050E+02</totfact>
</mgrwt>
</event>
<event>
 6    1  0.8938744E-004  0.4118962E+03  0.7818608E-02  0.1039737E+00
         -2   -1    0    0    0  501 -0.00000000000E+00  0.00000000000E+00  0.24353234131E+03  0.24353234131E+03  0.00000000000E+00 0.  1.
          2   -1    0    0  502    0  0.00000000000E+00 -0.00000000000E+00 -0.69671215549E+03  0.69671215549E+03  0.00000000000E+00 0. -1.
    9000007    2    1    2  502    0  0.95470072716E+02  0.24866481531E+02 -0.22235649373E+03  0.46800273462E+03  0.39981404754E+03 0.  0.
    9000005    1    3    3    0    0  0.16402225889E+03 -0.15080407186E+03 -0.13093460790E+03  0.25843769276E+03  0.99999687468E+00 0.  0.
          4    1    3    3  502    0 -0.68552186178E+02  0.17567055339E+03 -0.91421885839E+02  0.20956504185E+03  0.00000000000E+00 0.  1.
   -9000007    1    1    2    0  501 -0.95470072716E+02 -0.24866481531E+02 -0.23082332045E+03  0.47224176218E+03  0.40000000000E+03 0.  1.
<mgrwt>
<rscale>  2 0.41189622E+03</rscale>
<asrwt>0</asrwt>
<pdfrwt beam="1">  1        2 0.10718648E+00 0.41189622E+03</pdfrwt>
<pdfrwt beam="2">  1       -2 0.37466515E-01 0.41189622E+03</pdfrwt>
<totfact> 0.28405847E+02</totfact>
</mgrwt>
</event>
<event>
 6    1  0.8938744E-004  0.4318333E+03  0.7818608E-02  0.1033282E+00
          2   -1    0    0  502    0  0.00000000000E+00  0.00000000000E+00  0.68677261474E+03  0.68677261474E+03  0.00000000000E+00 0. -1.
         -2   -1    0    0    0  501 -0.00000000000E+00 -0.00000000000E+00 -0.27194108548E+03  0.27194108548E+03  0.00000000000E+00 0.  1.
    9000007    2    1    2  502    0  0.13604237548E+03  0.90043505293E+02  0.18872537117E+03  0.47112847126E+03  0.39966161929E+03 0.  0.
    9000005    1    3    3    0    0  0.16460274167E+03 -0.12843022851E+03  0.66228401705E+02  0.21903330191E+03  0.99999687468E+00 0.  0.
          4    1    3    3  502    0 -0.28560366188E+02  0.21847373381E+03  0.12249696946E+03  0.25209516935E+03  0.00000000000E+00 0.  1.
   -9000007    1    1    2    0  501 -0.13604237548E+03 -0.90043505293E+02  0.22610615810E+03  0.48758522896E+03  0.40000000000E+03 0. -1.
<mgrwt>
<rscale>  2 0.43183332E+03</rscale>
<asrwt>0</asrwt>
<pdfrwt beam="1">  1        2 0.10565732E+00 0.43183332E+03</pdfrwt>
<pdfrwt beam="2">  1       -2 0.41837090E-01 0.43183332E+03</pdfrwt>
<totfact> 0.23338771E+02</totfact>
</mgrwt>
</event>
<event>
 6    1  0.8938744E-004  0.4007591E+03  0.7818608E-02  0.1043517E+00
         -1   -1    0    0    0  501 -0.00000000000E+00  0.00000000000E+00  0.17267734378E+03  0.17267734378E+03  0.00000000000E+00 0. -1.
          1   -1    0    0  502    0  0.00000000000E+00 -0.00000000000E+00 -0.11613375898E+04  0.11613375898E+04  0.00000000000E+00 0.  1.
    9000007    2    1    2  502    0  0.42506689475E+00 -0.18643764095E+02 -0.19702095429E+03  0.44686188093E+03  0.40065011366E+03 0.  0.
    9000005    1    3    3    0    0 -0.12196486902E+03 -0.48338999885E+02  0.72118431156E+02  0.14971358085E+03  0.99999687468E+00 0.  0.
          4    1    3    3  502    0  0.12238993591E+03  0.29695235791E+02 -0.26913938545E+03  0.29714830008E+03  0.00000000000E+00 0.  1.
   -9000007    1    1    2    0  501 -0.42506689475E+00  0.18643764095E+02 -0.79163929172E+03  0.88715305265E+03  0.40000000000E+03 0.  1.
<mgrwt>
<rscale>  2 0.40075905E+03</rscale>
<asrwt>0</asrwt>
<pdfrwt beam="1">  1        1 0.17866733E+00 0.40075905E+03</pdfrwt>
<pdfrwt beam="2">  1       -1 0.26565744E-01 0.40075905E+03</pdfrwt>
<totfact> 0.15153309E+02</totfact>
</mgrwt>
</event>
<event>
 6    1  0.8938744E-004  0.4552189E+03  0.7818608E-02  0.1026177E+00
          2   -1    0    0  502    0  0.00000000000E+00  0.00000000000E+00  0.21504869635E+04  0.21504869635E+04  0.00000000000E+00 0.  1.
         -2   -1    0    0    0  501 -0.00000000000E+00 -0.00000000000E+00 -0.97132672238E+02  0.97132672238E+02  0.00000000000E+00 0. -1.
    9000007    2    1    2  502    0 -0.84932370556E+02  0.20018836025E+03  0.92638636937E+03  0.10321585775E+04  0.39983838808E+03 0.  0.
    9000005    1    3    3    0    0  0.98450561401E+02 -0.58751768509E+02  0.12183671457E+03  0.16730053304E+03  0.99999687468E+00 0.  0.
          4    1    3    3  502    0 -0.18338293196E+03  0.25894012876E+03  0.80454965480E+03  0.86485804445E+03  0.00000000000E+00 0.  1.
   -9000007    1    1    2    0  501  0.84932370556E+02 -0.20018836025E+03  0.11269679219E+04  0.12154610582E+04  0.40000000000E+03 0.  1.
<mgrwt>
<rscale>  2 0.45521890E+03</rscale>
<asrwt>0</asrwt>
<pdfrwt beam="1">  1        2 0.33084411E+00 0.45521890E+03</pdfrwt>
<pdfrwt beam="2">  1       -2 0.14943490E-01 0.45521890E+03</pdfrwt>
<totfact> 0.20655134E+02</totfact>
</mgrwt>
</event>
<event>
 6    1  0.8938744E-004  0.4216799E+03  0.7818608E-02  0.1036521E+00
          2   -1    0    0  502    0  0.00000000000E+00  0.00000000000E+00  0.32178949150E+03  0.32178949150E+03  0.00000000000E+00 0.  1.
         -2   -1    0    0    0  501 -0.00000000000E+00 -0.00000000000E+00 -0.65806786382E+03  0.65806786382E+03  0.00000000000E+00 0. -1.
    9000007    2    1    2  502    0  0.12675646466E+03 -0.41033598660E+02 -0.36432040922E+03  0.55732059552E+03  0.40015737911E+03 0.  0.
    9000005    1    3    3    0    0  0.26824388690E+03  0.12251862510E+02 -0.25889052371E+03  0.37300160088E+03  0.99999687468E+00 0.  0.
          4    1    3    3  502    0 -0.14148742224E+03 -0.53285461170E+02 -0.10542988551E+03  0.18431899464E+03  0.00000000000E+00 0.  1.
   -9000007    1    1    2    0  501 -0.12675646466E+03  0.41033598660E+02  0.28042036907E+02  0.42253675980E+03  0.40000000000E+03 0.  1.
<mgrwt>
<rscale>  2 0.42167987E+03</rscale>
<asrwt>0</asrwt>
<pdfrwt beam="1">  1        2 0.49506076E-01 0.42167987E+03</pdfrwt>
<pdfrwt beam="2">  1       -2 0.10124121E+00 0.42167987E+03</pdfrwt>
<totfact> 0.83960933E+01</totfact>
</mgrwt>
</event>
<event>
 6    1  0.8938744E-004  0.4456135E+03  0.7818608E-02  0.1029038E+00
          2   -1    0    0  502    0  0.00000000000E+00  0.00000000000E+00  0.33907305454E+03  0.33907305454E+03  0.00000000000E+00 0.  1.
         -2   -1    0    0    0  501 -0.00000000000E+00 -0.00000000000E+00 -0.69016195863E+03  0.69016195863E+03  0.00000000000E+00 0. -1.
    9000007    2    1    2  502    0 -0.19624487424E+03  0.15614298549E+02  0.24802672811E+02  0.44609666374E+03  0.39953873885E+03 0.  0.
    9000005    1    3    3    0    0 -0.12991208236E+03 -0.11716876531E+03 -0.14017327987E+03  0.22417675412E+03  0.99999687468E+00 0.  0.
          4    1    3    3  502    0 -0.66332791878E+02  0.13278306386E+03  0.16497595268E+03  0.22191990962E+03  0.00000000000E+00 0.  1.
   -9000007    1    1    2    0  501  0.19624487424E+03 -0.15614298549E+02 -0.37589157690E+03  0.58313834942E+03  0.40000000000E+03 0. -1.
<mgrwt>
<rscale>  2 0.44561348E+03</rscale>
<asrwt>0</asrwt>
<pdfrwt beam="1">  1        2 0.52165086E-01 0.44561348E+03</pdfrwt>
<pdfrwt beam="2">  1       -2 0.10617876E+00 0.44561348E+03</pdfrwt>
<totfact> 0.70658162E+01</totfact>
</mgrwt>
</event>
<event>
 6    1  0.8938744E-004  0.4023612E+03  0.7818608E-02  0.1042965E+00
          2   -1    0    0  502    0  0.00000000000E+00  0.00000000000E+00  0.19809780806E+04  0.19809780806E+04  0.00000000000E+00 0. -1.
         -2   -1    0    0    0  501 -0.00000000000E+00 -0.00000000000E+00 -0.84958512786E+02  0.84958512786E+02  0.00000000000E+00 0.  1.
    9000007    2    1    2  502    0  0.41925801575E+02  0.16367074524E+02  0.11491752394E+04  0.12175250748E+04  0.39967226948E+03 0.  0.
    9000005    1    3    3    0    0 -0.70481312771E+02  0.18174017718E+03  0.68304950584E+03  0.71032016364E+03  0.99999687468E+00 0.  0.
          4    1    3    3  502    0  0.11240711435E+03 -0.16537310265E+03  0.46612573352E+03  0.50720491114E+03  0.00000000000E+00 0.  1.
   -9000007    1    1    2    0  501 -0.41925801575E+02 -0.16367074524E+02  0.74684432849E+03  0.84841151864E+03  0.40000000000E+03 0.  1.
<mgrwt>
<rscale>  2 0.40236123E+03</rscale>
<asrwt>0</asrwt>
<pdfrwt beam="1">  1        2 0.30476582E+00 0.40236123E+03</pdfrwt>
<pdfrwt beam="2">  1       -2 0.13070542E-01 0.40236123E+03</pdfrwt>
<totfact> 0.32070722E+02</totfact>
</mgrwt>
</event>
<event>
 6    1  0.8938744E-004  0.5265702E+03  0.7818608E-02  0.1007067E+00
          2   -1    0    0  502    0  0.00000000000E+00  0.00000000000E+00  0.15594803742E+03  0.15594803742E+03  0.00000000000E+00 0.  1.
         -2   -1    0    0    0  501 -0.00000000000E+00 -0.00000000000E+00 -0.28729501736E+04  0.28729501736E+04  0.00000000000E+00 0. -1.
    9000007    2    1    2  502    0  0.11363807410E+03  0.32304111223E+03 -0.22934589399E+04  0.23531334508E+04  0.40001744474E+03 0.  0.
    9000005    1    3    3    0    0  0.22394585571E+03  0.15578767191E+03 -0.77706444536E+03  0.82356037863E+03  0.99999687468E+00 0.  0.
          4    1    3    3  502    0 -0.11030778161E+03  0.16725344032E+03 -0.15163944945E+04  0.15295730721E+04  0.00000000000E+00 0.  1.
   -9000007    1    1    2    0  501 -0.11363807410E+03 -0.32304111223E+03 -0.42354319630E+03  0.67576476026E+03  0.40000000000E+03 0.  1.
<mgrwt>
<rscale>  2 0.52657018E+03</rscale>
<asrwt>0</asrwt>
<pdfrwt beam="1">  1        2 0.23992005E-01 0.52657018E+03</pdfrwt>
<pdfrwt beam="2">  1       -2 0.44199234E+00 0.52657018E+03</pdfrwt>
<totfact> 0.10015323E+00</totfact>
</mgrwt>
</event>
<event>
 6    1  0.8938744E-004  0.4266048E+03  0.7818608E-02  0.1034938E+00
          1   -1    0    0  502    0  0.00000000000E+00  0.00000000000E+00  0.61143716504E+03  0.61143716504E+03  0.00000000000E+00 0. -1.
         -1   -1    0    0    0  501 -0.00000000000E+00 -0.00000000000E+00 -0.30775162004E+03  0.30775162004E+03  0.00000000000E+00 0.  1.
    9000007    2    1    2  502    0 -0.14156065046E+03 -0.41491154657E+02  0.68652242123E+02  0.43236069721E+03  0.40057671983E+03 0.  0.
    9000005    1    3    3    0    0 -0.25015721601E+03  0.76656469197E+02  0.73647659399E+02  0.27180843387E+03  0.99999687468E+00 0.  0.
          4    1    3    3  502    0  0.10859656555E+03 -0.11814762385E+03 -0.49954172754E+01  0.16055226335E+03  0.00000000000E+00 0.  1.
   -9000007    1    1    2    0  501  0.14156065046E+03  0.41491154657E+02  0.23503330288E+03  0.48682808787E+03  0.40000000000E+03 0. -1.
<mgrwt>
<rscale>  2 0.42660478E+03</rscale>
<asrwt>0</asrwt>
<pdfrwt beam="1">  1        1 0.94067256E-01 0.42660478E+03</pdfrwt>
<pdfrwt beam="2">  1       -1 0.47346403E-01 0.42660478E+03</pdfrwt>
<totfact> 0.15441186E+02</totfact>
</mgrwt>
</event>
<event>
 6    1  0.8938744E-004  0.4618313E+03  0.7818608E-02  0.1024251E+00
         -2   -1    0    0    0  501 -0.00000000000E+00  0.00000000000E+00  0.19685497202E+03  0.19685497202E+03  0.00000000000E+00 0. -1.
          2   -1    0    0  502    0  0.00000000000E+00 -0.00000000000E+00 -0.11449735785E+04  0.11449735785E+04  0.00000000000E+00 0.  1.
    9000007    2    1    2  502    0 -0.18637786898E+03  0.13391192177E+03 -0.63019346411E+03  0.78169864686E+03  0.40154683346E+03 0.  0.
    9000005    1    3    3    0    0  0.93474252545E+02  0.10898825903E+03 -0.81118775555E+02  0.16491553061E+03  0.99999687468E+00 0.  0.
          4    1    3    3  502    0 -0.27985212152E+03  0.24923662746E+02 -0.54907468856E+03  0.61678311625E+03  0.00000000000E+00 0.  1.
   -9000007    1    1    2    0  501  0.18637786898E+03 -0.13391192177E+03 -0.31792514239E+03  0.56012990368E+03  0.40000000000E+03 0. -1.
<mgrwt>
<rscale>  2 0.46183129E+03</rscale>
<asrwt>0</asrwt>
<pdfrwt beam="1">  1        2 0.17614978E+00 0.46183129E+03</pdfrwt>
<pdfrwt beam="2">  1       -2 0.30285380E-01 0.46183129E+03</pdfrwt>
<totfact> 0.21291435E+02</totfact>
</mgrwt>
</event>
<event>
 6    1  0.8938744E-004  0.4183456E+03  0.7818608E-02  0.1037606E+00
         -2   -1    0    0    0  501 -0.00000000000E+00  0.00000000000E+00  0.17335652440E+03  0.17335652440E+03  0.00000000000E+00 0. -1.
          2   -1    0    0  502    0  0.00000000000E+00 -0.00000000000E+00 -0.10122820311E+04  0.10122820311E+04  0.00000000000E+00 0.  1.
    9000007    2    1    2  502    0  0.11745609334E+03 -0.40702378432E+02 -0.38818077311E+03  0.57031471204E+03  0.39890091588E+03 0.  0.
    9000005    1    3    3    0    0  0.21077613212E+03 -0.16112744735E+03 -0.25413463029E+03  0.36738813599E+03  0.99999687468E+00 0.  0.
          4    1    3    3  502    0 -0.93320038779E+02  0.12042506892E+03 -0.13404614282E+03  0.20292657605E+03  0.00000000000E+00 0.  1.
   -9000007    1    1    2    0  501 -0.11745609334E+03  0.40702378432E+02 -0.45074473364E+03  0.61532384349E+03  0.40000000000E+03 0. -1.
<mgrwt>
<rscale>  2 0.41834560E+03</rscale>
<asrwt>0</asrwt>
<pdfrwt beam="1">  1        2 0.15573570E+00 0.41834560E+03</pdfrwt>
<pdfrwt beam="2">  1       -2 0.26670235E-01 0.41834560E+03</pdfrwt>
<totfact> 0.32435280E+02</totfact>
</mgrwt>
</event>
<event>
 6    1  0.8938744E-004  0.4216357E+03  0.7818608E-02  0.1036535E+00
         -2   -1    0    0    0  501 -0.00000000000E+00  0.00000000000E+00  0.54893328862E+03  0.54893328862E+03  0.00000000000E+00 0. -1.
          2   -1    0    0  502    0  0.00000000000E+00 -0.00000000000E+00 -0.32902288040E+03  0.32902288040E+03  0.00000000000E+00 0.  1.
    9000007    2    1    2  502    0 -0.52974831324E+02  0.12256435740E+03  0.16493702222E+03  0.45269104274E+03  0.39987073464E+03 0.  0.
    9000005    1    3    3    0    0  0.14924034730E+03  0.11440271255E+03 -0.54650846573E+01  0.18812636456E+03  0.99999687468E+00 0.  0.
          4    1    3    3  502    0 -0.20221517862E+03  0.81616448558E+01  0.17040210687E+03  0.26456467818E+03  0.00000000000E+00 0.  1.
   -9000007    1    1    2    0  501  0.52974831324E+02 -0.12256435740E+03  0.54973386010E+02  0.42526512628E+03  0.40000000000E+03 0. -1.
<mgrwt>
<rscale>  2 0.42163568E+03</rscale>
<asrwt>0</asrwt>
<pdfrwt beam="1">  1        2 0.50618905E-01 0.42163568E+03</pdfrwt>
<pdfrwt beam="2">  1       -2 0.84451275E-01 0.42163568E+03</pdfrwt>
<totfact> 0.12440653E+02</totfact>
</mgrwt>
</event>
<event>
 6    1  0.8938744E-004  0.4142901E+03  0.7818608E-02  0.1038941E+00
         -1   -1    0    0    0  501 -0.00000000000E+00  0.00000000000E+00  0.12919899252E+03  0.12919899252E+03  0.00000000000E+00 0.  1.
          1   -1    0    0  502    0  0.00000000000E+00 -0.00000000000E+00 -0.13379704089E+04  0.13379704089E+04  0.00000000000E+00 0. -1.
    9000007    2    1    2  502    0  0.10652625826E+03 -0.90104625982E+01 -0.66657903527E+03  0.78496590520E+03  0.40051820175E+03 0.  0.
    9000005    1    3    3    0    0 -0.58171698593E+02  0.16464682995E+03 -0.26084278130E+03  0.31389883988E+03  0.99999687468E+00 0.  0.
          4    1    3    3  502    0  0.16469795685E+03 -0.17365729255E+03 -0.40573625397E+03  0.47106706532E+03  0.00000000000E+00 0.  1.
   -9000007    1    1    2    0  501 -0.10652625826E+03  0.90104625982E+01 -0.54219238115E+03  0.68220349626E+03  0.40000000000E+03 0.  1.
<mgrwt>
<rscale>  2 0.41429014E+03</rscale>
<asrwt>0</asrwt>
<pdfrwt beam="1">  1        1 0.20584159E+00 0.41429014E+03</pdfrwt>
<pdfrwt beam="2">  1       -1 0.19876769E-01 0.41429014E+03</pdfrwt>
<totfact> 0.18450143E+02</totfact>
</mgrwt>
</event>
<event>
 6    1  0.8938744E-004  0.4036908E+03  0.7818608E-02  0.1042509E+00
         -1   -1    0    0    0  501 -0.00000000000E+00  0.00000000000E+00  0.63225439486E+02  0.63225439486E+02  0.00000000000E+00 0. -1.
          1   -1    0    0  502    0  0.00000000000E+00 -0.00000000000E+00 -0.27281577911E+04  0.27281577911E+04  0.00000000000E+00 0.  1.
    9000007    2    1    2  502    0  0.13336077140E+01  0.78412455095E+02 -0.99262692196E+03  0.10701174923E+04  0.39203692375E+03 0.  0.
    9000005    1    3    3    0    0 -0.15653415034E+03 -0.40722500281E+02 -0.22299241353E+03  0.27547754671E+03  0.99999687468E+00 0.  0.
          4    1    3    3  502    0  0.15786775806E+03  0.11913495538E+03 -0.76963450843E+03  0.79463994563E+03  0.00000000000E+00 0.  1.
   -9000007    1    1    2    0  501 -0.13336077140E+01 -0.78412455095E+02 -0.16723054296E+04  0.17212657382E+04  0.40000000000E+03 0.  1.
<mgrwt>
<rscale>  2 0.40369079E+03</rscale>
<asrwt>0</asrwt>
<pdfrwt beam="1">  1        1 0.41971652E+00 0.40369079E+03</pdfrwt>
<pdfrwt beam="2">  1       -1 0.97269921E-02 0.40369079E+03</pdfrwt>
<totfact> 0.68527653E+01</totfact>
</mgrwt>
</event>
<event>
 6    1  0.8938744E-004  0.4320818E+03  0.7818608E-02  0.1033204E+00
          1   -1    0    0  502    0  0.00000000000E+00  0.00000000000E+00  0.46871250261E+03  0.46871250261E+03  0.00000000000E+00 0. -1.
         -1   -1    0    0    0  501 -0.00000000000E+00 -0.00000000000E+00 -0.42973365842E+03  0.42973365842E+03  0.00000000000E+00 0.  1.
    9000007    2    1    2  502    0  0.12957192996E+03  0.99579717490E+02  0.14095769654E+03  0.45448141976E+03  0.39997410357E+03 0.  0.
    9000005    1    3    3    0    0 -0.58031146544E+02  0.20960185252E+01  0.22093487495E+03  0.22844085936E+03  0.99999687468E+00 0.  0.
          4    1    3    3  502    0  0.18760307650E+03  0.97483698965E+02 -0.79977178415E+02  0.22604056040E+03  0.00000000000E+00 0.  1.
   -9000007    1    1    2    0  501 -0.12957192996E+03 -0.99579717490E+02 -0.10197885234E+03  0.44396474127E+03  0.40000000000E+03 0.  1.
<mgrwt>
<rscale>  2 0.43208176E+03</rscale>
<asrwt>0</asrwt>
<pdfrwt beam="1">  1        1 0.72109616E-01 0.43208176E+03</pdfrwt>
<pdfrwt beam="2">  1       -1 0.66112871E-01 0.43208176E+03</pdfrwt>
<totfact> 0.11717248E+02</totfact>
</mgrwt>
</event>
<event>
 6    1  0.8938744E-004  0.4795945E+03  0.7818608E-02  0.1019247E+00
          1   -1    0    0  502    0  0.00000000000E+00  0.00000000000E+00  0.18056379829E+04  0.18056379829E+04  0.00000000000E+00 0. -1.
         -1   -1    0    0    0  501 -0.00000000000E+00 -0.00000000000E+00 -0.15622243591E+03  0.15622243591E+03  0.00000000000E+00 0.  1.
    9000007    2    1    2  502    0  0.26303437142E+03 -0.21997059270E+02  0.12466544589E+04  0.13358512773E+04  0.40084952794E+03 0.  0.
    9000005    1    3    3    0    0  0.33209625679E+03  0.10707312236E+02  0.12025774109E+04  0.12476361648E+04  0.99999687468E+00 0.  0.
          4    1    3    3  502    0 -0.69061885371E+02 -0.32704371506E+02  0.44077047954E+02  0.88215112554E+02  0.00000000000E+00 0.  1.
   -9000007    1    1    2    0  501 -0.26303437142E+03  0.21997059270E+02  0.40276108809E+03  0.62600914150E+03  0.40000000000E+03 0.  1.
<mgrwt>
<rscale>  2 0.47959449E+03</rscale>
<asrwt>0</asrwt>
<pdfrwt beam="1">  1        1 0.27779044E+00 0.47959449E+03</pdfrwt>
<pdfrwt beam="2">  1       -1 0.24034222E-01 0.47959449E+03</pdfrwt>
<totfact> 0.64610735E+01</totfact>
</mgrwt>
</event>
<event>
 6    1  0.8938744E-004  0.4095935E+03  0.7818608E-02  0.1040507E+00
          2   -1    0    0  502    0  0.00000000000E+00  0.00000000000E+00  0.37084345360E+04  0.37084345360E+04  0.00000000000E+00 0.  1.
         -2   -1    0    0    0  501 -0.00000000000E+00 -0.00000000000E+00 -0.89546782794E+02  0.89546782794E+02  0.00000000000E+00 0. -1.
    9000007    2    1    2  502    0 -0.28368255441E+02  0.85954149506E+02  0.47250137363E+03  0.62497956599E+03  0.39893487700E+03 0.  0.
    9000005    1    3    3    0    0  0.33219558747E+02 -0.24643919531E+02 -0.62639156066E+02  0.75070138668E+02  0.99999687468E+00 0.  0.
          4    1    3    3  502    0 -0.61587814187E+02  0.11059806904E+03  0.53514052969E+03  0.54990942732E+03  0.00000000000E+00 0.  1.
   -9000007    1    1    2    0  501  0.28368255441E+02 -0.85954149506E+02  0.31463863796E+04  0.31730017528E+04  0.40000000000E+03 0.  1.
<mgrwt>
<rscale>  2 0.40959352E+03</rscale>
<asrwt>0</asrwt>
<pdfrwt beam="1">  1        2 0.57052827E+00 0.40959352E+03</pdfrwt>
<pdfrwt beam="2">  1       -2 0.13776431E-01 0.40959352E+03</pdfrwt>
<totfact> 0.27377072E+01</totfact>
</mgrwt>
</event>
<event>
 6    1  0.8938744E-004  0.4887880E+03  0.7818608E-02  0.1016748E+00
          1   -1    0    0  502    0  0.00000000000E+00  0.00000000000E+00  0.31951653783E+03  0.31951653783E+03  0.00000000000E+00 0.  1.
         -1   -1    0    0    0  501 -0.00000000000E+00 -0.00000000000E+00 -0.78126990361E+03  0.78126990361E+03  0.00000000000E+00 0. -1.
    9000007    2    1    2  502    0  0.89295626846E+02 -0.26629446574E+03 -0.11685886712E+03  0.50259026404E+03  0.40006815322E+03 0.  0.
    9000005    1    3    3    0    0  0.31457997029E+02 -0.22609778047E+03 -0.25821809757E+03  0.34465547699E+03  0.99999687468E+00 0.  0.
          4    1    3    3  502    0  0.57837629816E+02 -0.40196685273E+02  0.14135923045E+03  0.15793478705E+03  0.00000000000E+00 0.  1.
   -9000007    1    1    2    0  501 -0.89295626846E+02  0.26629446574E+03 -0.34489449865E+03  0.59819617740E+03  0.40000000000E+03 0. -1.
<mgrwt>
<rscale>  2 0.48878800E+03</rscale>
<asrwt>0</asrwt>
<pdfrwt beam="1">  1        1 0.49156391E-01 0.48878800E+03</pdfrwt>
<pdfrwt beam="2">  1       -1 0.12019537E+00 0.48878800E+03</pdfrwt>
<totfact> 0.52070350E+01</totfact>
</mgrwt>
</event>
<event>
 6    1  0.8938744E-004  0.4439254E+03  0.7818608E-02  0.1029549E+00
         -2   -1    0    0    0  501 -0.00000000000E+00  0.00000000000E+00  0.20753563758E+04  0.20753563758E+04  0.00000000000E+00 0.  1.
          2   -1    0    0  502    0  0.00000000000E+00 -0.00000000000E+00 -0.10591104668E+03  0.10591104668E+03  0.00000000000E+00 0. -1.
    9000007    2    1    2  502    0  0.10610336351E+03  0.16006685261E+03  0.13358960355E+04  0.14077921297E+04  0.40047614385E+03 0.  0.
    9000005    1    3    3    0    0  0.15601639877E+03 -0.73342213042E+02  0.31218950042E+03  0.35662793085E+03  0.99999687468E+00 0.  0.
          4    1    3    3  502    0 -0.49913035267E+02  0.23340906565E+03  0.10237065351E+04  0.10511641989E+04  0.00000000000E+00 0.  1.
   -9000007    1    1    2    0  501 -0.10610336351E+03 -0.16006685261E+03  0.63354929363E+03  0.77347529276E+03  0.40000000000E+03 0.  1.
<mgrwt>
<rscale>  2 0.44392544E+03</rscale>
<asrwt>0</asrwt>
<pdfrwt beam="1">  1        2 0.16294009E-01 0.44392544E+03</pdfrwt>
<pdfrwt beam="2">  1       -2 0.31928557E+00 0.44392544E+03</pdfrwt>
<totfact> 0.95689063E+00</totfact>
</mgrwt>
</event>
<event>
 6    1  0.8938744E-004  0.4940170E+03  0.7818608E-02  0.1015352E+00
         -1   -1    0    0    0  501 -0.00000000000E+00  0.00000000000E+00  0.99890389909E+02  0.99890389909E+02  0.00000000000E+00 0. -1.
          1   -1    0    0  502    0  0.00000000000E+00 -0.00000000000E+00 -0.26488391233E+04  0.26488391233E+04  0.00000000000E+00 0.  1.
    9000007    2    1    2  502    0  0.74780346211E+02 -0.28008156327E+03 -0.89157916996E+03  0.10193042757E+04  0.40003750816E+03 0.  0.
    9000005    1    3    3    0    0 -0.12047429526E+03 -0.21466296254E+03 -0.27418019223E+03  0.36846983746E+03  0.99999687468E+00 0.  0.
          4    1    3    3  502    0  0.19525464147E+03 -0.65418600727E+02 -0.61739897773E+03  0.65083443827E+03  0.00000000000E+00 0.  1.
   -9000007    1    1    2    0  501 -0.74780346211E+02  0.28008156327E+03 -0.16573695634E+04  0.17294252375E+04  0.40000000000E+03 0.  1.
<mgrwt>
<rscale>  2 0.49401699E+03</rscale>
<asrwt>0</asrwt>
<pdfrwt beam="1">  1        1 0.40751374E+00 0.49401699E+03</pdfrwt>
<pdfrwt beam="2">  1       -1 0.15367751E-01 0.49401699E+03</pdfrwt>
<totfact> 0.36838675E+01</totfact>
</mgrwt>
</event>
<event>
 6    1  0.8938744E-004  0.4454490E+03  0.7818608E-02  0.1029088E+00
         -2   -1    0    0    0  501 -0.00000000000E+00  0.00000000000E+00  0.11083504830E+03  0.11083504830E+03  0.00000000000E+00 0. -1.
          2   -1    0    0  502    0  0.00000000000E+00 -0.00000000000E+00 -0.19604087716E+04  0.19604087716E+04  0.00000000000E+00 0.  1.
    9000007    2    1    2  502    0 -0.18713354909E+03 -0.60013110125E+02 -0.12294600296E+04  0.13075936830E+04  0.39951062146E+03 0.  0.
    9000005    1    3    3    0    0 -0.29297821897E+03 -0.46369014977E+02 -0.60187989639E+03  0.67100427123E+03  0.99999687468E+00 0.  0.
          4    1    3    3  502    0  0.10584466988E+03 -0.13644095148E+02 -0.62758013324E+03  0.63658941172E+03  0.00000000000E+00 0.  1.
   -9000007    1    1    2    0  501  0.18713354909E+03  0.60013110125E+02 -0.62011369370E+03  0.76365013697E+03  0.40000000000E+03 0. -1.
<mgrwt>
<rscale>  2 0.44544900E+03</rscale>
<asrwt>0</asrwt>
<pdfrwt beam="1">  1        2 0.30160133E+00 0.44544900E+03</pdfrwt>
<pdfrwt beam="2">  1       -2 0.17051547E-01 0.44544900E+03</pdfrwt>
<totfact> 0.20948608E+02</totfact>
</mgrwt>
</event>
<event>
 6    1  0.8938744E-004  0.4605769E+03  0.7818608E-02  0.1024614E+00
          1   -1    0    0  502    0  0.00000000000E+00  0.00000000000E+00  0.50249097524E+03  0.50249097524E+03  0.00000000000E+00 0.  1.
         -1   -1    0    0    0  501 -0.00000000000E+00 -0.00000000000E+00 -0.87124820392E+03  0.87124820392E+03  0.00000000000E+00 0. -1.
    9000007    2    1    2  502    0  0.81442121550E+02 -0.21253323759E+03 -0.67758683409E+03  0.81950193627E+03  0.40081954739E+03 0.  0.
    9000005    1    3    3    0    0  0.16052691147E+02 -0.13786982292E+03 -0.70338880032E+03  0.71695368148E+03  0.99999687468E+00 0.  0.
          4    1    3    3  502    0  0.65389430402E+02 -0.74663414672E+02  0.25801966239E+02  0.10254825479E+03  0.00000000000E+00 0.  1.
   -9000007    1    1    2    0  501 -0.81442121550E+02  0.21253323759E+03  0.30882960540E+03  0.55423724290E+03  0.40000000000E+03 0.  1.
<mgrwt>
<rscale>  2 0.46057692E+03</rscale>
<asrwt>0</asrwt>
<pdfrwt beam="1">  1        1 0.77306305E-01 0.46057692E+03</pdfrwt>
<pdfrwt beam="2">  1       -1 0.13403818E+00 0.46057692E+03</pdfrwt>
<totfact> 0.22021363E+01</totfact>
</mgrwt>
</event>
<event>
 6    1  0.8938744E-004  0.4108596E+03  0.7818608E-02  0.1040083E+00
         -1   -1    0    0    0  501 -0.00000000000E+00  0.00000000000E+00  0.11172668527E+03  0.11172668527E+03  0.00000000000E+00 0. -1.
          1   -1    0    0  502    0  0.00000000000E+00 -0.00000000000E+00 -0.25118401359E+04  0.25118401359E+04  0.00000000000E+00 0.  1.
    9000007    2    1    2  502    0  0.88163776964E+02 -0.33049210579E+02 -0.20280137464E+04  0.20691993512E+04  0.39985134417E+03 0.  0.
    9000005    1    3    3    0    0 -0.67281549732E+02  0.12907123014E+03 -0.39795787816E+03  0.42374244792E+03  0.99999687468E+00 0.  0.
          4    1    3    3  502    0  0.15544532670E+03 -0.16212044072E+03 -0.16300558682E+04  0.16454569033E+04  0.00000000000E+00 0.  1.
   -9000007    1    1    2    0  501 -0.88163776964E+02  0.33049210579E+02 -0.37209970420E+03  0.55436746997E+03  0.40000000000E+03 0. -1.
<mgrwt>
<rscale>  2 0.41085964E+03</rscale>
<asrwt>0</asrwt>
<pdfrwt beam="1">  1        1 0.38643691E+00 0.41085964E+03</pdfrwt>
<pdfrwt beam="2">  1       -1 0.17188722E-01 0.41085964E+03</pdfrwt>
<totfact> 0.38774421E+01</totfact>
</mgrwt>
</event>
<event>
 6    1  0.8938744E-004  0.4237016E+03  0.7818608E-02  0.1035868E+00
         -1   -1    0    0    0  501 -0.00000000000E+00  0.00000000000E+00  0.71033967015E+02  0.71033967015E+02  0.00000000000E+00 0. -1.
          1   -1    0    0  502    0  0.00000000000E+00 -0.00000000000E+00 -0.25292857428E+04  0.25292857428E+04  0.00000000000E+00 0.  1.
    9000007    2    1    2  502    0  0.13775431332E+03  0.25982307004E+02 -0.11921144090E+04  0.12651211617E+04  0.39967919474E+03 0.  0.
    9000005    1    3    3    0    0 -0.13251152953E+03 -0.23811104337E+02 -0.55807922646E+03  0.57409032142E+03  0.99999687468E+00 0.  0.
          4    1    3    3  502    0  0.27026584285E+03  0.49793411341E+02 -0.63403518250E+03  0.69103084032E+03  0.00000000000E+00 0.  1.
   -9000007    1    1    2    0  501 -0.13775431332E+03 -0.25982307004E+02 -0.12661373668E+04  0.13351985480E+04  0.40000000000E+03 0.  1.
<mgrwt>
<rscale>  2 0.42370156E+03</rscale>
<asrwt>0</asrwt>
<pdfrwt beam="1">  1        1 0.38912089E+00 0.42370156E+03</pdfrwt>
<pdfrwt beam="2">  1       -1 0.10928302E-01 0.42370156E+03</pdfrwt>
<totfact> 0.77613201E+01</totfact>
</mgrwt>
</event>
<event>
 6    1  0.8938744E-004  0.5202020E+03  0.7818608E-02  0.1008636E+00
          1   -1    0    0  502    0  0.00000000000E+00  0.00000000000E+00  0.13332357413E+04  0.13332357413E+04  0.00000000000E+00 0. -1.
         -1   -1    0    0    0  501 -0.00000000000E+00 -0.00000000000E+00 -0.21110009810E+03  0.21110009810E+03  0.00000000000E+00 0.  1.
    9000007    2    1    2  502    0 -0.22902965966E+03 -0.23008260528E+03  0.71764652528E+03  0.88935184207E+03  0.41296195164E+03 0.  0.
    9000005    1    3    3    0    0 -0.25465267878E+03 -0.32352185438E+03  0.47806873352E+03  0.63092399783E+03  0.99999687468E+00 0.  0.
          4    1    3    3  502    0  0.25623019119E+02  0.93439249097E+02  0.23957779175E+03  0.25842784425E+03  0.00000000000E+00 0.  1.
   -9000007    1    1    2    0  501  0.22902965966E+03  0.23008260528E+03  0.40448911797E+03  0.65498399737E+03  0.40000000000E+03 0.  1.
<mgrwt>
<rscale>  2 0.52020197E+03</rscale>
<asrwt>0</asrwt>
<pdfrwt beam="1">  1        1 0.20511319E+00 0.52020197E+03</pdfrwt>
<pdfrwt beam="2">  1       -1 0.32476939E-01 0.52020197E+03</pdfrwt>
<totfact> 0.79757922E+01</totfact>
</mgrwt>
</event>
<event>
 6    1  0.8938744E-004  0.4093718E+03  0.7818608E-02  0.1040582E+00
          1   -1    0    0  502    0  0.00000000000E+00  0.00000000000E+00  0.68972511233E+03  0.68972511233E+03  0.00000000000E+00 0. -1.
         -1   -1    0    0    0  501 -0.00000000000E+00 -0.00000000000E+00 -0.24307559397E+03  0.24307559397E+03  0.00000000000E+00 0.  1.
    9000007    2    1    2  502    0 -0.15938373773E+02  0.85767215439E+02  0.21377591237E+03  0.46180159445E+03  0.39993815137E+03 0.  0.
    9000005    1    3    3    0    0  0.10721269969E+03 -0.12161851446E+03  0.12524182624E+03  0.20487103521E+03  0.99999687468E+00 0.  0.
          4    1    3    3  502    0 -0.12315107346E+03  0.20738572990E+03  0.88534086131E+02  0.25693055924E+03  0.00000000000E+00 0.  1.
   -9000007    1    1    2    0  501  0.15938373773E+02 -0.85767215439E+02  0.23287360599E+03  0.47099911186E+03  0.40000000000E+03 0. -1.
<mgrwt>
<rscale>  2 0.40937185E+03</rscale>
<asrwt>0</asrwt>
<pdfrwt beam="1">  1        1 0.10611156E+00 0.40937185E+03</pdfrwt>
<pdfrwt beam="2">  1       -1 0.37396245E-01 0.40937185E+03</pdfrwt>
<totfact> 0.19931206E+02</totfact>
</mgrwt>
</event>
<event>
 6    1  0.8938744E-004  0.8923016E+03  0.7818608E-02  0.9435256E-01
         -1   -1    0    0    0  501 -0.00000000000E+00  0.00000000000E+00  0.81242727198E+03  0.81242727198E+03  0.00000000000E+00 0. -1.
          1   -1    0    0  502    0  0.00000000000E+00 -0.00000000000E+00 -0.99552737246E+03  0.99552737246E+03  0.00000000000E+00 0.  1.
    9000007    2    1    2  502    0  0.73209814969E+03 -0.31604621163E+03 -0.20436077055E+03  0.91559545400E+03  0.40087255103E+03 0.  0.
    9000005    1    3    3    0    0  0.37028945274E+03 -0.23761683054E+03  0.82009834113E+02  0.44755184041E+03  0.99999687468E+00 0.  0.
          4    1    3    3  502    0  0.36180869695E+03 -0.78429381092E+02 -0.28637060466E+03  0.46804361359E+03  0.00000000000E+00 0.  1.
   -9000007    1    1    2    0  501 -0.73209814969E+03  0.31604621163E+03  0.21260670074E+02  0.89235919044E+03  0.40000000000E+03 0. -1.
<mgrwt>
<rscale>  2 0.89230165E+03</rscale>
<asrwt>0</asrwt>
<pdfrwt beam="1">  1        1 0.15315806E+00 0.89230165E+03</pdfrwt>
<pdfrwt beam="2">  1       -1 0.12498881E+00 0.89230165E+03</pdfrwt>
<totfact> 0.86618900E+00</totfact>
</mgrwt>
</event>
<event>
 6    1  0.8938744E-004  0.6601902E+03  0.7818608E-02  0.9787844E-01
          2   -1    0    0  502    0  0.00000000000E+00  0.00000000000E+00  0.31500174207E+04  0.31500174207E+04  0.00000000000E+00 0. -1.
         -2   -1    0    0    0  501 -0.00000000000E+00 -0.00000000000E+00 -0.15725262958E+03  0.15725262958E+03  0.00000000000E+00 0.  1.
    9000007    2    1    2  502    0  0.13182632136E+01 -0.52554384960E+03  0.20689620813E+04  0.21716602923E+04  0.39913187776E+03 0.  0.
    9000005    1    3    3    0    0  0.15665261272E+03 -0.24966495989E+03  0.59406132712E+03  0.66316098622E+03  0.99999687468E+00 0.  0.
          4    1    3    3  502    0 -0.15533434950E+03 -0.27587888971E+03  0.14749007541E+04  0.15084993061E+04  0.00000000000E+00 0.  1.
   -9000007    1    1    2    0  501 -0.13182632136E+01  0.52554384960E+03  0.92380270986E+03  0.11356097580E+04  0.40000000000E+03 0.  1.
<mgrwt>
<rscale>  2 0.66019017E+03</rscale>
<asrwt>0</asrwt>
<pdfrwt beam="1">  1        2 0.48461802E+00 0.66019017E+03</pdfrwt>
<pdfrwt beam="2">  1       -2 0.24192715E-01 0.66019017E+03</pdfrwt>
<totfact> 0.22967420E+01</totfact>
</mgrwt>
</event>
<event>
 6    1  0.8938744E-004  0.4067998E+03  0.7818608E-02  0.1041450E+00
         -2   -1    0    0    0  501 -0.00000000000E+00  0.00000000000E+00  0.10607392310E+03  0.10607392310E+03  0.00000000000E+00 0. -1.
          2   -1    0    0  502    0  0.00000000000E+00 -0.00000000000E+00 -0.15602095466E+04  0.15602095466E+04  0.00000000000E+00 0.  1.
    9000007    2    1    2  502    0 -0.37208414201E+02  0.64218217658E+02 -0.72007869147E+03  0.82702902376E+03  0.39994404442E+03 0.  0.
    9000005    1    3    3    0    0  0.34418946852E+02  0.13910651881E+03 -0.54321520712E+02  0.15325506544E+03  0.99999687468E+00 0.  0.
          4    1    3    3  502    0 -0.71627361053E+02 -0.74888301148E+02 -0.66575717075E+03  0.67377395832E+03  0.00000000000E+00 0.  1.
   -9000007    1    1    2    0  501  0.37208414201E+02 -0.64218217658E+02 -0.73405693205E+03  0.83925444596E+03  0.40000000000E+03 0.  1.
<mgrwt>
<rscale>  2 0.40679978E+03</rscale>
<asrwt>0</asrwt>
<pdfrwt beam="1">  1        2 0.24003224E+00 0.40679978E+03</pdfrwt>
<pdfrwt beam="2">  1       -2 0.16319065E-01 0.40679978E+03</pdfrwt>
<totfact> 0.37177356E+02</totfact>
</mgrwt>
</event>
<event>
 6    1  0.8938744E-004  0.7174308E+03  0.7818608E-02  0.9687879E-01
          2   -1    0    0  502    0  0.00000000000E+00  0.00000000000E+00  0.90306266377E+03  0.90306266377E+03  0.00000000000E+00 0. -1.
         -2   -1    0    0    0  501 -0.00000000000E+00 -0.00000000000E+00 -0.57602839132E+03  0.57602839132E+03  0.00000000000E+00 0.  1.
    9000007    2    1    2  502    0 -0.10628057681E+03 -0.58576249123E+03  0.87638951333E+02  0.72296713871E+03  0.40073387770E+03 0.  0.
    9000005    1    3    3    0    0 -0.23922877964E+03 -0.42293641903E+03  0.14126544891E+03  0.50602623509E+03  0.99999687468E+00 0.  0.
          4    1    3    3  502    0  0.13294820283E+03 -0.16282607220E+03 -0.53626497575E+02  0.21694090362E+03  0.00000000000E+00 0.  1.
   -9000007    1    1    2    0  501  0.10628057681E+03  0.58576249123E+03  0.23939532112E+03  0.75612391637E+03  0.40000000000E+03 0.  1.
<mgrwt>
<rscale>  2 0.71743083E+03</rscale>
<asrwt>0</asrwt>
<pdfrwt beam="1">  1        2 0.13893272E+00 0.71743083E+03</pdfrwt>
<pdfrwt beam="2">  1       -2 0.88619753E-01 0.71743083E+03</pdfrwt>
<totfact> 0.32537620E+01</totfact>
</mgrwt>
</event>
<event>
 6    1  0.8938744E-004  0.4646052E+03  0.7818608E-02  0.1023454E+00
         -1   -1    0    0    0  501 -0.00000000000E+00  0.00000000000E+00  0.79507141488E+03  0.79507141488E+03  0.00000000000E+00 0.  1.
          1   -1    0    0  502    0  0.00000000000E+00 -0.00000000000E+00 -0.39461737934E+03  0.39461737934E+03  0.00000000000E+00 0. -1.
    9000007    2    1    2  502    0  0.47166402956E+02  0.23104787360E+03  0.53257099029E+03  0.70692313761E+03  0.40062535283E+03 0.  0.
    9000005    1    3    3    0    0  0.13162753036E+03 -0.10168175489E+01  0.41119399324E+03  0.43175032222E+03  0.99999687468E+00 0.  0.
          4    1    3    3  502    0 -0.84461127402E+02  0.23206469115E+03  0.12137699705E+03  0.27517281539E+03  0.00000000000E+00 0.  1.
   -9000007    1    1    2    0  501 -0.47166402956E+02 -0.23104787360E+03 -0.13211695475E+03  0.48276565660E+03  0.40000000000E+03 0. -1.
<mgrwt>
<rscale>  2 0.46460519E+03</rscale>
<asrwt>0</asrwt>
<pdfrwt beam="1">  1        1 0.60710366E-01 0.46460519E+03</pdfrwt>
<pdfrwt beam="2">  1       -1 0.12231868E+00 0.46460519E+03</pdfrwt>
<totfact> 0.38074403E+01</totfact>
</mgrwt>
</event>
<event>
 6    1  0.8938744E-004  0.4341036E+03  0.7818608E-02  0.1032571E+00
         -1   -1    0    0    0  501 -0.00000000000E+00  0.00000000000E+00  0.46599032075E+03  0.46599032075E+03  0.00000000000E+00 0.  1.
          1   -1    0    0  502    0  0.00000000000E+00 -0.00000000000E+00 -0.44030834730E+03  0.44030834730E+03  0.00000000000E+00 0. -1.
    9000007    2    1    2  502    0 -0.98041190232E+02 -0.13734719705E+03  0.14225000338E+03  0.45678289177E+03  0.39992401682E+03 0.  0.
    9000005    1    3    3    0    0  0.12212783036E+03  0.31358650888E+02 -0.30869817237E+02  0.12981724671E+03  0.99999687468E+00 0.  0.
          4    1    3    3  502    0 -0.22016902059E+03 -0.16870584794E+03  0.17311982062E+03  0.32696564506E+03  0.00000000000E+00 0.  1.
   -9000007    1    1    2    0  501  0.98041190232E+02  0.13734719705E+03 -0.11656802993E+03  0.44951577628E+03  0.40000000000E+03 0. -1.
<mgrwt>
<rscale>  2 0.43410360E+03</rscale>
<asrwt>0</asrwt>
<pdfrwt beam="1">  1        1 0.67739745E-01 0.43410360E+03</pdfrwt>
<pdfrwt beam="2">  1       -1 0.71690819E-01 0.43410360E+03</pdfrwt>
<totfact> 0.10812487E+02</totfact>
</mgrwt>
</event>
<event>
 6    1  0.8938744E-004  0.4457303E+03  0.7818608E-02  0.1029003E+00
         -3   -1    0    0    0  501 -0.00000000000E+00  0.00000000000E+00  0.16768517748E+03  0.16768517748E+03  0.00000000000E+00 0.  1.
          3   -1    0    0  502    0  0.00000000000E+00 -0.00000000000E+00 -0.11947285092E+04  0.11947285092E+04  0.00000000000E+00 0. -1.
    9000007    2    1    2  502    0 -0.43320659782E+02 -0.19308484316E+03 -0.45084949518E+03  0.63360796944E+03  0.39879237131E+03 0.  0.
    9000005    1    3    3    0    0  0.44763075593E+02 -0.10338293022E+03 -0.48932995861E+03  0.50213202605E+03  0.99999687468E+00 0.  0.
          4    1    3    3  502    0 -0.88083735376E+02 -0.89701912944E+02  0.38480463437E+02  0.13147594339E+03  0.00000000000E+00 0.  1.
   -9000007    1    1    2    0  501  0.43320659782E+02  0.19308484316E+03 -0.57619383656E+03  0.72880571726E+03  0.40000000000E+03 0. -1.
<mgrwt>
<rscale>  2 0.44573033E+03</rscale>
<asrwt>0</asrwt>
<pdfrwt beam="1">  1        3 0.18380439E+00 0.44573033E+03</pdfrwt>
<pdfrwt beam="2">  1       -3 0.25797719E-01 0.44573033E+03</pdfrwt>
<totfact> 0.71209708E+00</totfact>
</mgrwt>
</event>
<event>
 6    1  0.8938744E-004  0.6119218E+03  0.7818608E-02  0.9880976E-01
          2   -1    0    0  502    0  0.00000000000E+00  0.00000000000E+00  0.20356960459E+04  0.20356960459E+04  0.00000000000E+00 0. -1.
         -2   -1    0    0    0  501 -0.00000000000E+00 -0.00000000000E+00 -0.24154865936E+03  0.24154865936E+03  0.00000000000E+00 0.  1.
    9000007    2    1    2  502    0  0.44013971931E+03  0.14341845423E+03  0.14532702597E+04  0.15768954773E+04  0.40039115017E+03 0.  0.
    9000005    1    3    3    0    0  0.12770516350E+03  0.22462051175E+03  0.89978152590E+03  0.93614677131E+03  0.99999687468E+00 0.  0.
          4    1    3    3  502    0  0.31243455581E+03 -0.81202057521E+02  0.55348873376E+03  0.64074870597E+03  0.00000000000E+00 0.  1.
   -9000007    1    1    2    0  501 -0.44013971931E+03 -0.14341845423E+03  0.34087712693E+03  0.70034922802E+03  0.40000000000E+03 0.  1.
<mgrwt>
<rscale>  2 0.61192183E+03</rscale>
<asrwt>0</asrwt>
<pdfrwt beam="1">  1        2 0.31318400E+00 0.61192183E+03</pdfrwt>
<pdfrwt beam="2">  1       -2 0.37161334E-01 0.61192183E+03</pdfrwt>
<totfact> 0.45776640E+01</totfact>
</mgrwt>
</event>
<event>
 6    1  0.8938744E-004  0.4695488E+03  0.7818608E-02  0.1022048E+00
         -1   -1    0    0    0  501 -0.00000000000E+00  0.00000000000E+00  0.19416513358E+03  0.19416513358E+03  0.00000000000E+00 0.  1.
          1   -1    0    0  502    0  0.00000000000E+00 -0.00000000000E+00 -0.12171244761E+04  0.12171244761E+04  0.00000000000E+00 0. -1.
    9000007    2    1    2  502    0 -0.22387950450E+03  0.10072964756E+03 -0.32897557257E+03  0.57350564744E+03  0.40051879589E+03 0.  0.
    9000005    1    3    3    0    0  0.11244353456E+03  0.67754998936E+02 -0.10468360399E+03  0.16791052761E+03  0.99999687468E+00 0.  0.
          4    1    3    3  502    0 -0.33632303906E+03  0.32974648626E+02 -0.22429196858E+03  0.40559511982E+03  0.00000000000E+00 0.  1.
   -9000007    1    1    2    0  501  0.22387950450E+03 -0.10072964756E+03 -0.69398376994E+03  0.83778396223E+03  0.40000000000E+03 0. -1.
<mgrwt>
<rscale>  2 0.46954877E+03</rscale>
<asrwt>0</asrwt>
<pdfrwt beam="1">  1        1 0.18724992E+00 0.46954877E+03</pdfrwt>
<pdfrwt beam="2">  1       -1 0.29871559E-01 0.46954877E+03</pdfrwt>
<totfact> 0.11205616E+02</totfact>
</mgrwt>
</event>
<event>
 6    1  0.8938744E-004  0.4287144E+03  0.7818608E-02  0.1034267E+00
          1   -1    0    0  502    0  0.00000000000E+00  0.00000000000E+00  0.14334450587E+04  0.14334450587E+04  0.00000000000E+00 0.  1.
         -1   -1    0    0    0  501 -0.00000000000E+00 -0.00000000000E+00 -0.13586979216E+03  0.13586979216E+03  0.00000000000E+00 0. -1.
    9000007    2    1    2  502    0 -0.11756784210E+03  0.10068245827E+03  0.83470248431E+03  0.93827573366E+03  0.39959224237E+03 0.  0.
    9000005    1    3    3    0    0 -0.15191199797E+03 -0.11919404240E+03  0.27561587056E+03  0.33652575380E+03  0.99999687468E+00 0.  0.
          4    1    3    3  502    0  0.34344155873E+02  0.21987650067E+03  0.55908661375E+03  0.60174997986E+03  0.00000000000E+00 0.  1.
   -9000007    1    1    2    0  501  0.11756784210E+03 -0.10068245827E+03  0.46287278221E+03  0.63103911718E+03  0.40000000000E+03 0. -1.
<mgrwt>
<rscale>  2 0.42871443E+03</rscale>
<asrwt>0</asrwt>
<pdfrwt beam="1">  1        1 0.22053000E+00 0.42871443E+03</pdfrwt>
<pdfrwt beam="2">  1       -1 0.20903046E-01 0.42871443E+03</pdfrwt>
<totfact> 0.14578764E+02</totfact>
</mgrwt>
</event>
<event>
 6    1  0.8938744E-004  0.4362301E+03  0.7818608E-02  0.1031910E+00
         -2   -1    0    0    0  501 -0.00000000000E+00  0.00000000000E+00  0.14704960786E+04  0.14704960786E+04  0.00000000000E+00 0. -1.
          2   -1    0    0  502    0  0.00000000000E+00 -0.00000000000E+00 -0.17287866663E+03  0.17287866663E+03  0.00000000000E+00 0.  1.
    9000007    2    1    2  502    0 -0.17263814405E+03 -0.22693317444E+02  0.10608064553E+04  0.11469894668E+04  0.39994447858E+03 0.  0.
    9000005    1    3    3    0    0 -0.11066732422E+03  0.17518890332E+03  0.70858121181E+03  0.73825926491E+03  0.99999687468E+00 0.  0.
          4    1    3    3  502    0 -0.61970819837E+02 -0.19788222076E+03  0.35222524349E+03  0.40873020192E+03  0.00000000000E+00 0.  1.
   -9000007    1    1    2    0  501  0.17263814405E+03  0.22693317444E+02  0.23681095669E+03  0.49638527844E+03  0.40000000000E+03 0.  1.
<mgrwt>
<rscale>  2 0.43623011E+03</rscale>
<asrwt>0</asrwt>
<pdfrwt beam="1">  1        2 0.26596719E-01 0.43623011E+03</pdfrwt>
<pdfrwt beam="2">  1       -2 0.22623016E+00 0.43623011E+03</pdfrwt>
<totfact> 0.19460768E+01</totfact>
</mgrwt>
</event>
<event>
 6    1  0.8938744E-004  0.4912164E+03  0.7818608E-02  0.1016097E+00
         -1   -1    0    0    0  501 -0.00000000000E+00  0.00000000000E+00  0.39189942332E+03  0.39189942332E+03  0.00000000000E+00 0.  1.
          1   -1    0    0  502    0  0.00000000000E+00 -0.00000000000E+00 -0.89356262400E+03  0.89356262400E+03  0.00000000000E+00 0. -1.
    9000007    2    1    2  502    0  0.18033502570E+03  0.22069570315E+03  0.10755422276E+03  0.50291927922E+03  0.40016568530E+03 0.  0.
    9000005    1    3    3    0    0  0.11979267430E+03 -0.22208879935E+02 -0.11531029491E+03  0.16775274445E+03  0.99999687468E+00 0.  0.
          4    1    3    3  502    0  0.60542351397E+02  0.24290458308E+03  0.22286451767E+03  0.33516653477E+03  0.00000000000E+00 0.  1.
   -9000007    1    1    2    0  501 -0.18033502570E+03 -0.22069570315E+03 -0.60921742344E+03  0.78254276810E+03  0.40000000000E+03 0. -1.
<mgrwt>
<rscale>  2 0.49121644E+03</rscale>
<asrwt>0</asrwt>
<pdfrwt beam="1">  1        1 0.13747117E+00 0.49121644E+03</pdfrwt>
<pdfrwt beam="2">  1       -1 0.60292218E-01 0.49121644E+03</pdfrwt>
<totfact> 0.54165067E+01</totfact>
</mgrwt>
</event>
<event>
 6    1  0.8938744E-004  0.4550507E+03  0.7818608E-02  0.1026226E+00
         -2   -1    0    0    0  501 -0.00000000000E+00  0.00000000000E+00  0.15568386284E+03  0.15568386284E+03  0.00000000000E+00 0.  1.
          2   -1    0    0  502    0  0.00000000000E+00 -0.00000000000E+00 -0.14375235504E+04  0.14375235504E+04  0.00000000000E+00 0. -1.
    9000007    2    1    2  502    0  0.21351142643E+03  0.52918850320E+02 -0.85681530754E+03  0.96948210706E+03  0.39670587436E+03 0.  0.
    9000005    1    3    3    0    0  0.16810639617E+02  0.73077334741E+02 -0.73161071590E+03  0.73544417468E+03  0.99999687468E+00 0.  0.
          4    1    3    3  502    0  0.19670078682E+03 -0.20158484421E+02 -0.12520459164E+03  0.23403793239E+03  0.00000000000E+00 0.  1.
   -9000007    1    1    2    0  501 -0.21351142643E+03 -0.52918850320E+02 -0.42502437998E+03  0.62372530614E+03  0.40000000000E+03 0.  1.
<mgrwt>
<rscale>  2 0.45505071E+03</rscale>
<asrwt>0</asrwt>
<pdfrwt beam="1">  1        2 0.22115746E+00 0.45505071E+03</pdfrwt>
<pdfrwt beam="2">  1       -2 0.23951364E-01 0.45505071E+03</pdfrwt>
<totfact> 0.22204396E+02</totfact>
</mgrwt>
</event>
<event>
 6    1  0.8938744E-004  0.4290458E+03  0.7818608E-02  0.1034162E+00
         -1   -1    0    0    0  501 -0.00000000000E+00  0.00000000000E+00  0.10234314289E+04  0.10234314289E+04  0.00000000000E+00 0. -1.
          1   -1    0    0  502    0  0.00000000000E+00 -0.00000000000E+00 -0.22895667162E+03  0.22895667162E+03  0.00000000000E+00 0.  1.
    9000007    2    1    2  502    0  0.47380416537E+02  0.15004925011E+03  0.10670841958E+03  0.44135035996E+03  0.39830110733E+03 0.  0.
    9000005    1    3    3    0    0  0.12037792367E+03  0.44752007921E+01  0.21453134903E+03  0.24603977654E+03  0.99999687468E+00 0.  0.
          4    1    3    3  502    0 -0.72997507129E+02  0.14557404931E+03 -0.10782292945E+03  0.19531058342E+03  0.00000000000E+00 0.  1.
   -9000007    1    1    2    0  501 -0.47380416537E+02 -0.15004925011E+03  0.68776633767E+03  0.81103774053E+03  0.40000000000E+03 0. -1.
<mgrwt>
<rscale>  2 0.42904582E+03</rscale>
<asrwt>0</asrwt>
<pdfrwt beam="1">  1        1 0.35224104E-01 0.42904582E+03</pdfrwt>
<pdfrwt beam="2">  1       -1 0.15745099E+00 0.42904582E+03</pdfrwt>
<totfact> 0.40278997E+01</totfact>
</mgrwt>
</event>
<event>
 6    1  0.8938744E-004  0.4436508E+03  0.7818608E-02  0.1029633E+00
         -2   -1    0    0    0  501 -0.00000000000E+00  0.00000000000E+00  0.75830586045E+03  0.75830586045E+03  0.00000000000E+00 0. -1.
          2   -1    0    0  502    0  0.00000000000E+00 -0.00000000000E+00 -0.31713615745E+03  0.31713615745E+03  0.00000000000E+00 0.  1.
    9000007    2    1    2  502    0  0.18986699104E+03 -0.26819170761E+02 -0.85045649201E+01  0.44379679355E+03  0.40014312956E+03 0.  0.
    9000005    1    3    3    0    0  0.17254828123E+03  0.15561065207E+03 -0.81941203757E+02  0.24637967704E+03  0.99999687468E+00 0.  0.
          4    1    3    3  502    0  0.17318709814E+02 -0.18242982283E+03  0.73436638836E+02  0.19741711651E+03  0.00000000000E+00 0.  1.
   -9000007    1    1    2    0  501 -0.18986699104E+03  0.26819170761E+02  0.44967426792E+03  0.63164522434E+03  0.40000000000E+03 0. -1.
<mgrwt>
<rscale>  2 0.44365076E+03</rscale>
<asrwt>0</asrwt>
<pdfrwt beam="1">  1        2 0.48790178E-01 0.44365076E+03</pdfrwt>
<pdfrwt beam="2">  1       -2 0.11666244E+00 0.44365076E+03</pdfrwt>
<totfact> 0.60638960E+01</totfact>
</mgrwt>
</event>
<event>
 6    1  0.8938744E-004  0.4219323E+03  0.7818608E-02  0.1036439E+00
         -1   -1    0    0    0  501 -0.00000000000E+00  0.00000000000E+00  0.62827723416E+03  0.62827723416E+03  0.00000000000E+00 0.  1.
          1   -1    0    0  502    0  0.00000000000E+00 -0.00000000000E+00 -0.29235323077E+03  0.29235323077E+03  0.00000000000E+00 0. -1.
    9000007    2    1    2  502    0  0.95786990822E+02 -0.94123181220E+02  0.24870595722E+03  0.48976934063E+03  0.39998129082E+03 0.  0.
    9000005    1    3    3    0    0  0.24940417845E+02 -0.11423281655E+03 -0.87213995526E+02  0.14587131942E+03  0.99999687468E+00 0.  0.
          4    1    3    3  502    0  0.70846572977E+02  0.20109635330E+02  0.33591995275E+03  0.34389802121E+03  0.00000000000E+00 0.  1.
   -9000007    1    1    2    0  501 -0.95786990822E+02  0.94123181220E+02  0.87218046165E+02  0.43086112430E+03  0.40000000000E+03 0. -1.
<mgrwt>
<rscale>  2 0.42193227E+03</rscale>
<asrwt>0</asrwt>
<pdfrwt beam="1">  1        1 0.44977420E-01 0.42193227E+03</pdfrwt>
<pdfrwt beam="2">  1       -1 0.96658036E-01 0.42193227E+03</pdfrwt>
<totfact> 0.97478628E+01</totfact>
</mgrwt>
</event>
<event>
 6    1  0.8938744E-004  0.5045311E+03  0.7818608E-02  0.1012603E+00
         -1   -1    0    0    0  501 -0.00000000000E+00  0.00000000000E+00  0.26751962165E+03  0.26751962165E+03  0.00000000000E+00 0.  1.
          1   -1    0    0  502    0  0.00000000000E+00 -0.00000000000E+00 -0.95155414082E+03  0.95155414082E+03  0.00000000000E+00 0. -1.
    9000007    2    1    2  502    0  0.29363179969E+03  0.91728975358E+02 -0.33858853829E+03  0.60754554201E+03  0.39979438296E+03 0.  0.
    9000005    1    3    3    0    0 -0.85737676409E+02  0.68402933010E+02 -0.19775889271E+02  0.11145400931E+03  0.99999687468E+00 0.  0.
          4    1    3    3  502    0  0.37936947609E+03  0.23326042348E+02 -0.31881264902E+03  0.49609153270E+03  0.00000000000E+00 0.  1.
   -9000007    1    1    2    0  501 -0.29363179969E+03 -0.91728975358E+02 -0.34544598088E+03  0.61152822046E+03  0.40000000000E+03 0.  1.
<mgrwt>
<rscale>  2 0.50453107E+03</rscale>
<asrwt>0</asrwt>
<pdfrwt beam="1">  1        1 0.14639295E+00 0.50453107E+03</pdfrwt>
<pdfrwt beam="2">  1       -1 0.41156865E-01 0.50453107E+03</pdfrwt>
<totfact> 0.99699548E+01</totfact>
</mgrwt>
</event>
<event>
 6    1  0.8938744E-004  0.4084031E+03  0.7818608E-02  0.1040908E+00
         -2   -1    0    0    0  501 -0.00000000000E+00  0.00000000000E+00  0.18689222026E+03  0.18689222026E+03  0.00000000000E+00 0. -1.
          2   -1    0    0  502    0  0.00000000000E+00 -0.00000000000E+00 -0.11215001613E+04  0.11215001613E+04  0.00000000000E+00 0.  1.
    9000007    2    1    2  502    0  0.89947016203E+02  0.20834201427E+02 -0.16975902380E+03  0.44033800775E+03  0.39567019756E+03 0.  0.
    9000005    1    3    3    0    0  0.84097022552E+02  0.16351145862E+03  0.38465502358E+02  0.18785340339E+03  0.99999687468E+00 0.  0.
          4    1    3    3  502    0  0.58499936517E+01 -0.14267725719E+03 -0.20822452616E+03  0.25248460436E+03  0.00000000000E+00 0.  1.
   -9000007    1    1    2    0  501 -0.89947016203E+02 -0.20834201427E+02 -0.76484891729E+03  0.86805437385E+03  0.40000000000E+03 0.  1.
<mgrwt>
<rscale>  2 0.40840309E+03</rscale>
<asrwt>0</asrwt>
<pdfrwt beam="1">  1        2 0.17253849E+00 0.40840309E+03</pdfrwt>
<pdfrwt beam="2">  1       -2 0.28752649E-01 0.40840309E+03</pdfrwt>
<totfact> 0.24314964E+02</totfact>
</mgrwt>
</event>
<event>
 6    1  0.8938744E-004  0.5074525E+03  0.7818608E-02  0.1011852E+00
         -2   -1    0    0    0  501 -0.00000000000E+00  0.00000000000E+00  0.21701796824E+03  0.21701796824E+03  0.00000000000E+00 0.  1.
          2   -1    0    0  502    0  0.00000000000E+00 -0.00000000000E+00 -0.16424795742E+04  0.16424795742E+04  0.00000000000E+00 0. -1.
    9000007    2    1    2  502    0 -0.30978026734E+03  0.29811766546E+02 -0.22354987214E+03  0.55510328788E+03  0.40163734814E+03 0.  0.
    9000005    1    3    3    0    0  0.57636013561E+02  0.11547158850E+03 -0.37168262514E+02  0.13430591030E+03  0.99999687468E+00 0.  0.
          4    1    3    3  502    0 -0.36741628090E+03 -0.85659821950E+02 -0.18638160963E+03  0.42079737758E+03  0.00000000000E+00 0.  1.
   -9000007    1    1    2    0  501  0.30978026734E+03 -0.29811766546E+02 -0.12019117338E+04  0.13043942545E+04  0.40000000000E+03 0. -1.
<mgrwt>
<rscale>  2 0.50745246E+03</rscale>
<asrwt>0</asrwt>
<pdfrwt beam="1">  1        2 0.25268916E+00 0.50745246E+03</pdfrwt>
<pdfrwt beam="2">  1       -2 0.33387380E-01 0.50745246E+03</pdfrwt>
<totfact> 0.92932024E+01</totfact>
</mgrwt>
</event>
<event>
 6    1  0.8938744E-004  0.5413357E+03  0.7818608E-02  0.1003519E+00
          1   -1    0    0  502    0  0.00000000000E+00  0.00000000000E+00  0.11516335185E+04  0.11516335185E+04  0.00000000000E+00 0.  1.
         -1   -1    0    0    0  501 -0.00000000000E+00 -0.00000000000E+00 -0.32901879648E+03  0.32901879648E+03  0.00000000000E+00 0. -1.
    9000007    2    1    2  502    0 -0.35855516288E+03 -0.66868994606E+02  0.76373539004E+03  0.93613413991E+03  0.40002764234E+03 0.  0.
    9000005    1    3    3    0    0 -0.40840013275E+03  0.49052607841E+01  0.43800409905E+03  0.59888506476E+03  0.99999687468E+00 0.  0.
          4    1    3    3  502    0  0.49844969870E+02 -0.71774255391E+02  0.32573129099E+03  0.33724907514E+03  0.00000000000E+00 0.  1.
   -9000007    1    1    2    0  501  0.35855516288E+03  0.66868994606E+02  0.58879332002E+02  0.54451817509E+03  0.40000000000E+03 0. -1.
<mgrwt>
<rscale>  2 0.54133569E+03</rscale>
<asrwt>0</asrwt>
<pdfrwt beam="1">  1        1 0.17717439E+00 0.54133569E+03</pdfrwt>
<pdfrwt beam="2">  1       -1 0.50618277E-01 0.54133569E+03</pdfrwt>
<totfact> 0.47844875E+01</totfact>
</mgrwt>
</event>
<event>
 6    1  0.8938744E-004  0.4129623E+03  0.7818608E-02  0.1039381E+00
          2   -1    0    0  502    0  0.00000000000E+00  0.00000000000E+00  0.14412182655E+04  0.14412182655E+04  0.00000000000E+00 0.  1.
         -2   -1    0    0    0  501 -0.00000000000E+00 -0.00000000000E+00 -0.12951678513E+03  0.12951678513E+03  0.00000000000E+00 0. -1.
    9000007    2    1    2  502    0  0.89285256609E+02  0.50805643955E+02  0.88664895851E+03  0.97809458895E+03  0.39996197168E+03 0.  0.
    9000005    1    3    3    0    0  0.16849211316E+03  0.17210833859E+03  0.36976011899E+03  0.44128722845E+03  0.99999687468E+00 0.  0.
          4    1    3    3  502    0 -0.79206856555E+02 -0.12130269463E+03  0.51688883953E+03  0.53680736049E+03  0.00000000000E+00 0.  1.
   -9000007    1    1    2    0  501 -0.89285256609E+02 -0.50805643955E+02  0.42505252190E+03  0.59264046173E+03  0.40000000000E+03 0.  1.
<mgrwt>
<rscale>  2 0.41296230E+03</rscale>
<asrwt>0</asrwt>
<pdfrwt beam="1">  1        2 0.22172588E+00 0.41296230E+03</pdfrwt>
<pdfrwt beam="2">  1       -2 0.19925660E-01 0.41296230E+03</pdfrwt>
<totfact> 0.30666134E+02</totfact>
</mgrwt>
</event>
<event>
 6    1  0.8938744E-004  0.4027113E+03  0.7818608E-02  0.1042845E+00
          2   -1    0    0  502    0  0.00000000000E+00  0.00000000000E+00  0.72589596777E+03  0.72589596777E+03  0.00000000000E+00 0.  1.
         -2   -1    0    0    0  501 -0.00000000000E+00 -0.00000000000E+00 -0.22408501859E+03  0.22408501859E+03  0.00000000000E+00 0. -1.
    9000007    2    1    2  502    0 -0.53033262685E+01  0.43393491963E+02  0.22514834592E+03  0.46166416661E+03  0.40066308121E+03 0.  0.
    9000005    1    3    3    0    0  0.19431514098E+03  0.47884780907E+02  0.14191774101E+03  0.24534255942E+03  0.99999687468E+00 0.  0.
          4    1    3    3  502    0 -0.19961846725E+03 -0.44912889440E+01  0.83230604911E+02  0.21632160719E+03  0.00000000000E+00 0.  1.
   -9000007    1    1    2    0  501  0.53033262685E+01 -0.43393491963E+02  0.27666260325E+03  0.48831681975E+03  0.40000000000E+03 0.  1.
<mgrwt>
<rscale>  2 0.40271126E+03</rscale>
<asrwt>0</asrwt>
<pdfrwt beam="1">  1        2 0.11167630E+00 0.40271126E+03</pdfrwt>
<pdfrwt beam="2">  1       -2 0.34474619E-01 0.40271126E+03</pdfrwt>
<totfact> 0.31620224E+02</totfact>
</mgrwt>
</event>
<event>
 6    1  0.8938744E-004  0.5239536E+03  0.7818608E-02  0.1007709E+00
          2   -1    0    0  502    0  0.00000000000E+00  0.00000000000E+00  0.41180456753E+03  0.41180456753E+03  0.00000000000E+00 0. -1.
         -2   -1    0    0    0  501 -0.00000000000E+00 -0.00000000000E+00 -0.97694119706E+03  0.97694119706E+03  0.00000000000E+00 0.  1.
    9000007    2    1    2  502    0  0.33213694548E+03 -0.52560658194E+02 -0.67440827450E+03  0.85487511946E+03  0.40361785863E+03 0.  0.
    9000005    1    3    3    0    0  0.89670950321E+02  0.21503145760E+02  0.37211196920E+02  0.99443138421E+02  0.99999687468E+00 0.  0.
          4    1    3    3  502    0  0.24246599516E+03 -0.74063803954E+02 -0.71161947142E+03  0.75543198103E+03  0.00000000000E+00 0.  1.
   -9000007    1    1    2    0  501 -0.33213694548E+03  0.52560658194E+02  0.10927164498E+03  0.53387064513E+03  0.40000000000E+03 0. -1.
<mgrwt>
<rscale>  2 0.52395364E+03</rscale>
<asrwt>0</asrwt>
<pdfrwt beam="1">  1        2 0.63354550E-01 0.52395364E+03</pdfrwt>
<pdfrwt beam="2">  1       -2 0.15029864E+00 0.52395364E+03</pdfrwt>
<totfact> 0.23736090E+01</totfact>
</mgrwt>
</event>
<event>
 6    1  0.8938744E-004  0.6412479E+03  0.7818608E-02  0.9823342E-01
          1   -1    0    0  502    0  0.00000000000E+00  0.00000000000E+00  0.15546377850E+04  0.15546377850E+04  0.00000000000E+00 0.  1.
         -1   -1    0    0    0  501 -0.00000000000E+00 -0.00000000000E+00 -0.27133363467E+03  0.27133363467E+03  0.00000000000E+00 0. -1.
    9000007    2    1    2  502    0 -0.45139305534E+03 -0.21966033353E+03  0.49613171333E+03  0.81027126799E+03  0.39797801223E+03 0.  0.
    9000005    1    3    3    0    0 -0.36961832578E+03 -0.28700046562E+03  0.52217802014E+03  0.70118318485E+03  0.99999687468E+00 0.  0.
          4    1    3    3  502    0 -0.81774729564E+02  0.67340132082E+02 -0.26046306807E+02  0.10908808314E+03  0.00000000000E+00 0.  1.
   -9000007    1    1    2    0  501  0.45139305534E+03  0.21966033353E+03  0.78717243700E+03  0.10157001517E+04  0.40000000000E+03 0.  1.
<mgrwt>
<rscale>  2 0.64124785E+03</rscale>
<asrwt>0</asrwt>
<pdfrwt beam="1">  1        1 0.23917504E+00 0.64124785E+03</pdfrwt>
<pdfrwt beam="2">  1       -1 0.41743637E-01 0.64124785E+03</pdfrwt>
<totfact> 0.35316057E+01</totfact>
</mgrwt>
</event>
<event>
 6    1  0.8938744E-004  0.4427415E+03  0.7818608E-02  0.1029909E+00
          2   -1    0    0  502    0  0.00000000000E+00  0.00000000000E+00  0.30086176304E+04  0.30086176304E+04  0.00000000000E+00 0. -1.
         -2   -1    0    0    0  501 -0.00000000000E+00 -0.00000000000E+00 -0.65502140758E+02  0.65502140758E+02  0.00000000000E+00 0.  1.
    9000007    2    1    2  502    0 -0.32314707210E+02 -0.18448654248E+03  0.15872600009E+04  0.16481381335E+04  0.40234993711E+03 0.  0.
    9000005    1    3    3    0    0  0.16235781063E+03 -0.18260085436E+03  0.10013628988E+04  0.10307433171E+04  0.99999687468E+00 0.  0.
          4    1    3    3  502    0 -0.19467251784E+03 -0.18856881196E+01  0.58589710209E+03  0.61739481635E+03  0.00000000000E+00 0.  1.
   -9000007    1    1    2    0  501  0.32314707210E+02  0.18448654248E+03  0.13558554888E+04  0.14259816377E+04  0.40000000000E+03 0. -1.
<mgrwt>
<rscale>  2 0.44274145E+03</rscale>
<asrwt>0</asrwt>
<pdfrwt beam="1">  1        2 0.46286414E+00 0.44274145E+03</pdfrwt>
<pdfrwt beam="2">  1       -2 0.10077255E-01 0.44274145E+03</pdfrwt>
<totfact> 0.12921113E+02</totfact>
</mgrwt>
</event>
<event>
 6    1  0.8938744E-004  0.4038357E+03  0.7818608E-02  0.1042460E+00
          2   -1    0    0  502    0  0.00000000000E+00  0.00000000000E+00  0.13007867817E+04  0.13007867817E+04  0.00000000000E+00 0. -1.
         -2   -1    0    0    0  501 -0.00000000000E+00 -0.00000000000E+00 -0.13209847103E+03  0.13209847103E+03  0.00000000000E+00 0.  1.
    9000007    2    1    2  502    0 -0.46568655423E+02 -0.23842981471E+02  0.42327577953E+03  0.58531403507E+03  0.40086532238E+03 0.  0.
    9000005    1    3    3    0    0 -0.84230551026E+02  0.11386851345E+03  0.41920555333E+03  0.44248742357E+03  0.99999687468E+00 0.  0.
          4    1    3    3  502    0  0.37661895603E+02 -0.13771149492E+03  0.40702262045E+01  0.14282661151E+03  0.00000000000E+00 0.  1.
   -9000007    1    1    2    0  501  0.46568655423E+02  0.23842981471E+02  0.74541253113E+03  0.84757121766E+03  0.40000000000E+03 0. -1.
<mgrwt>
<rscale>  2 0.40383569E+03</rscale>
<asrwt>0</asrwt>
<pdfrwt beam="1">  1        2 0.20012104E+00 0.40383569E+03</pdfrwt>
<pdfrwt beam="2">  1       -2 0.20322843E-01 0.40383569E+03</pdfrwt>
<totfact> 0.35509722E+02</totfact>
</mgrwt>
</event>
<event>
 6    1  0.8938744E-004  0.4153894E+03  0.7818608E-02  0.1038577E+00
          2   -1    0    0  502    0  0.00000000000E+00  0.00000000000E+00  0.16690326814E+04  0.16690326814E+04  0.00000000000E+00 0.  1.
         -2   -1    0    0    0  501 -0.00000000000E+00 -0.00000000000E+00 -0.10382300100E+03  0.10382300100E+03  0.00000000000E+00 0. -1.
    9000007    2    1    2  502    0  0.80137802758E+01  0.11326878416E+03  0.83957491140E+03  0.93653047284E+03  0.39913563681E+03 0.  0.
    9000005    1    3    3    0    0  0.92169093683E+02  0.78427692388E+02  0.33844396790E+02  0.12566816602E+03  0.99999687468E+00 0.  0.
          4    1    3    3  502    0 -0.84155313407E+02  0.34841091775E+02  0.80573051461E+03  0.81086230682E+03  0.00000000000E+00 0.  1.
   -9000007    1    1    2    0  501 -0.80137802758E+01 -0.11326878416E+03  0.72563476899E+03  0.83632520954E+03  0.40000000000E+03 0.  1.
<mgrwt>
<rscale>  2 0.41538936E+03</rscale>
<asrwt>0</asrwt>
<pdfrwt beam="1">  1        2 0.25677424E+00 0.41538936E+03</pdfrwt>
<pdfrwt beam="2">  1       -2 0.15972771E-01 0.41538936E+03</pdfrwt>
<totfact> 0.33643987E+02</totfact>
</mgrwt>
</event>
<event>
 6    1  0.8938744E-004  0.6071272E+03  0.7818608E-02  0.9890729E-01
          2   -1    0    0  502    0  0.00000000000E+00  0.00000000000E+00  0.16665596364E+04  0.16665596364E+04  0.00000000000E+00 0. -1.
         -2   -1    0    0    0  501 -0.00000000000E+00 -0.00000000000E+00 -0.22796434258E+03  0.22796434258E+03  0.00000000000E+00 0.  1.
    9000007    2    1    2  502    0  0.38259275824E+03  0.24856126676E+03  0.55625887446E+03  0.82369370349E+03  0.40110779070E+03 0.  0.
    9000005    1    3    3    0    0 -0.14984878577E+02  0.20135767738E+03  0.23889891013E+03  0.31279889719E+03  0.99999687468E+00 0.  0.
          4    1    3    3  502    0  0.39757763681E+03  0.47203589380E+02  0.31735996434E+03  0.51089480630E+03  0.00000000000E+00 0.  1.
   -9000007    1    1    2    0  501 -0.38259275824E+03 -0.24856126676E+03  0.88233641933E+03  0.10708302755E+04  0.40000000000E+03 0. -1.
<mgrwt>
<rscale>  2 0.60712716E+03</rscale>
<asrwt>0</asrwt>
<pdfrwt beam="1">  1        2 0.25639378E+00 0.60712716E+03</pdfrwt>
<pdfrwt beam="2">  1       -2 0.35071438E-01 0.60712716E+03</pdfrwt>
<totfact> 0.81090389E+01</totfact>
</mgrwt>
</event>
<event>
 6    1  0.8938744E-004  0.4017961E+03  0.7818608E-02  0.1043160E+00
         -2   -1    0    0    0  501 -0.00000000000E+00  0.00000000000E+00  0.10952132575E+03  0.10952132575E+03  0.00000000000E+00 0.  1.
          2   -1    0    0  502    0  0.00000000000E+00 -0.00000000000E+00 -0.16654696976E+04  0.16654696976E+04  0.00000000000E+00 0. -1.
    9000007    2    1    2  502    0 -0.68945757591E+01  0.36011563603E+02 -0.47730157289E+03  0.62398134277E+03  0.40023937432E+03 0.  0.
    9000005    1    3    3    0    0 -0.93603668029E+02 -0.15544256319E+03 -0.29199455097E+03  0.34378169659E+03  0.99999687468E+00 0.  0.
          4    1    3    3  502    0  0.86709092270E+02  0.19145412679E+03 -0.18530702192E+03  0.28019964618E+03  0.00000000000E+00 0.  1.
   -9000007    1    1    2    0  501  0.68945757591E+01 -0.36011563603E+02 -0.10786467989E+04  0.11510096806E+04  0.40000000000E+03 0. -1.
<mgrwt>
<rscale>  2 0.40179611E+03</rscale>
<asrwt>0</asrwt>
<pdfrwt beam="1">  1        2 0.25622611E+00 0.40179611E+03</pdfrwt>
<pdfrwt beam="2">  1       -2 0.16849435E-01 0.40179611E+03</pdfrwt>
<totfact> 0.30927906E+02</totfact>
</mgrwt>
</event>
<event>
 6    1  0.8938744E-004  0.4582159E+03  0.7818608E-02  0.1025300E+00
          1   -1    0    0  502    0  0.00000000000E+00  0.00000000000E+00  0.51504702044E+03  0.51504702044E+03  0.00000000000E+00 0. -1.
         -1   -1    0    0    0  501 -0.00000000000E+00 -0.00000000000E+00 -0.41318725164E+03  0.41318725164E+03  0.00000000000E+00 0.  1.
    9000007    2    1    2  502    0 -0.22206808216E+03  0.26821980978E+02  0.10462217895E+03  0.46993166170E+03  0.39982035286E+03 0.  0.
    9000005    1    3    3    0    0 -0.86813956598E+02 -0.99211783262E+01  0.25189776717E+03  0.26662441362E+03  0.99999687468E+00 0.  0.
          4    1    3    3  502    0 -0.13525412556E+03  0.36743159304E+02 -0.14727558822E+03  0.20330724808E+03  0.00000000000E+00 0.  1.
   -9000007    1    1    2    0  501  0.22206808216E+03 -0.26821980978E+02 -0.27624101468E+01  0.45830261038E+03  0.40000000000E+03 0.  1.
<mgrwt>
<rscale>  2 0.45821588E+03</rscale>
<asrwt>0</asrwt>
<pdfrwt beam="1">  1        1 0.79238003E-01 0.45821588E+03</pdfrwt>
<pdfrwt beam="2">  1       -1 0.63567270E-01 0.45821588E+03</pdfrwt>
<totfact> 0.11123212E+02</totfact>
</mgrwt>
</event>
<event>
 6    1  0.8938744E-004  0.6722155E+03  0.7818608E-02  0.9765964E-01
          2   -1    0    0  502    0  0.00000000000E+00  0.00000000000E+00  0.40540514697E+03  0.40540514697E+03  0.00000000000E+00 0.  1.
         -2   -1    0    0    0  501 -0.00000000000E+00 -0.00000000000E+00 -0.13088459818E+04  0.13088459818E+04  0.00000000000E+00 0. -1.
    9000007    2    1    2  502    0 -0.44427569160E+03 -0.30803389557E+03 -0.12137351648E+03  0.68279824018E+03  0.39901896611E+03 0.  0.
    9000005    1    3    3    0    0 -0.41539244749E+03 -0.64879107273E+02 -0.12256617086E+03  0.43793110215E+03  0.99999687468E+00 0.  0.
          4    1    3    3  502    0 -0.28883244113E+02 -0.24315478830E+03  0.11926543868E+01  0.24486713803E+03  0.00000000000E+00 0.  1.
   -9000007    1    1    2    0  501  0.44427569160E+03  0.30803389557E+03 -0.78206731835E+03  0.10314528886E+04  0.40000000000E+03 0. -1.
<mgrwt>
<rscale>  2 0.67221549E+03</rscale>
<asrwt>0</asrwt>
<pdfrwt beam="1">  1        2 0.62370021E-01 0.67221549E+03</pdfrwt>
<pdfrwt beam="2">  1       -2 0.20136092E+00 0.67221549E+03</pdfrwt>
<totfact> 0.10484828E+01</totfact>
</mgrwt>
</event>
<event>
 6    1  0.8938744E-004  0.4160473E+03  0.7818608E-02  0.1038360E+00
         -2   -1    0    0    0  501 -0.00000000000E+00  0.00000000000E+00  0.11349699122E+03  0.11349699122E+03  0.00000000000E+00 0.  1.
          2   -1    0    0  502    0  0.00000000000E+00 -0.00000000000E+00 -0.28047070531E+04  0.28047070531E+04  0.00000000000E+00 0. -1.
    9000007    2    1    2  502    0  0.11086739497E+03  0.31426273922E+02 -0.35966718417E+03  0.54979289324E+03  0.39954042615E+03 0.  0.
    9000005    1    3    3    0    0  0.25355206895E+03 -0.33115530964E+02 -0.25697529814E+03  0.36252254262E+03  0.99999687468E+00 0.  0.
          4    1    3    3  502    0 -0.14268467398E+03  0.64541804886E+02 -0.10269188603E+03  0.18727035062E+03  0.00000000000E+00 0.  1.
   -9000007    1    1    2    0  501 -0.11086739497E+03 -0.31426273922E+02 -0.23315428778E+04  0.23684111511E+04  0.40000000000E+03 0. -1.
<mgrwt>
<rscale>  2 0.41604732E+03</rscale>
<asrwt>0</asrwt>
<pdfrwt beam="1">  1        2 0.43149336E+00 0.41604732E+03</pdfrwt>
<pdfrwt beam="2">  1       -2 0.17461077E-01 0.41604732E+03</pdfrwt>
<totfact> 0.69110467E+01</totfact>
</mgrwt>
</event>
<event>
 6    1  0.8938744E-004  0.4601782E+03  0.7818608E-02  0.1024730E+00
         -2   -1    0    0    0  501 -0.00000000000E+00  0.00000000000E+00  0.84634590347E+03  0.84634590347E+03  0.00000000000E+00 0.  1.
          2   -1    0    0  502    0  0.00000000000E+00 -0.00000000000E+00 -0.30956704261E+03  0.30956704261E+03  0.00000000000E+00 0. -1.
    9000007    2    1    2  502    0 -0.39292872877E+02  0.22354489107E+03  0.15438394024E+02  0.46070640804E+03  0.40061927340E+03 0.  0.
    9000005    1    3    3    0    0 -0.87926290701E+02  0.23993446225E+03 -0.14392508484E+03  0.29328315467E+03  0.99999687468E+00 0.  0.
          4    1    3    3  502    0  0.48633417824E+02 -0.16389571181E+02  0.15936347887E+03  0.16742325337E+03  0.00000000000E+00 0.  1.
   -9000007    1    1    2    0  501  0.39292872877E+02 -0.22354489107E+03  0.52134046683E+03  0.69520653804E+03  0.40000000000E+03 0.  1.
<mgrwt>
<rscale>  2 0.46017823E+03</rscale>
<asrwt>0</asrwt>
<pdfrwt beam="1">  1        2 0.47625699E-01 0.46017823E+03</pdfrwt>
<pdfrwt beam="2">  1       -2 0.13020706E+00 0.46017823E+03</pdfrwt>
<totfact> 0.47373034E+01</totfact>
</mgrwt>
</event>
<event>
 6    1  0.8938744E-004  0.7815651E+03  0.7818608E-02  0.9587091E-01
         -1   -1    0    0    0  501 -0.00000000000E+00  0.00000000000E+00  0.27852461812E+03  0.27852461812E+03  0.00000000000E+00 0.  1.
          1   -1    0    0  502    0  0.00000000000E+00 -0.00000000000E+00 -0.33179630197E+04  0.33179630197E+04  0.00000000000E+00 0. -1.
    9000007    2    1    2  502    0 -0.38226548330E+03  0.55233646386E+03 -0.47240573156E+03  0.91304596751E+03  0.39910311267E+03 0.  0.
    9000005    1    3    3    0    0 -0.29122516390E+02  0.10816616301E+03 -0.29961674716E+03  0.31987377972E+03  0.99999687468E+00 0.  0.
          4    1    3    3  502    0 -0.35314296690E+03  0.44417030085E+03 -0.17278898440E+03  0.59317218779E+03  0.00000000000E+00 0.  1.
   -9000007    1    1    2    0  501  0.38226548330E+03 -0.55233646386E+03 -0.25670326700E+04  0.26834416703E+04  0.40000000000E+03 0. -1.
<mgrwt>
<rscale>  2 0.78156510E+03</rscale>
<asrwt>0</asrwt>
<pdfrwt beam="1">  1        1 0.51045582E+00 0.78156510E+03</pdfrwt>
<pdfrwt beam="2">  1       -1 0.42849943E-01 0.78156510E+03</pdfrwt>
<totfact> 0.19952821E+00</totfact>
</mgrwt>
</event>
<event>
 6    1  0.8938744E-004  0.4249446E+03  0.7818608E-02  0.1035469E+00
         -2   -1    0    0    0  501 -0.00000000000E+00  0.00000000000E+00  0.11016272851E+04  0.11016272851E+04  0.00000000000E+00 0.  1.
          2   -1    0    0  502    0  0.00000000000E+00 -0.00000000000E+00 -0.17386959777E+03  0.17386959777E+03  0.00000000000E+00 0. -1.
    9000007    2    1    2  502    0 -0.88121331001E+02 -0.11352113683E+03  0.61635424036E+03  0.74859601526E+03  0.39981374036E+03 0.  0.
    9000005    1    3    3    0    0 -0.29087857094E+02 -0.12904466940E+03  0.31113820040E+01  0.13232275248E+03  0.99999687468E+00 0.  0.
          4    1    3    3  502    0 -0.59033473906E+02  0.15523532572E+02  0.61324285835E+03  0.61627326279E+03  0.00000000000E+00 0.  1.
   -9000007    1    1    2    0  501  0.88121331001E+02  0.11352113683E+03  0.31140344695E+03  0.52690086758E+03  0.40000000000E+03 0. -1.
<mgrwt>
<rscale>  2 0.42494460E+03</rscale>
<asrwt>0</asrwt>
<pdfrwt beam="1">  1        2 0.26749170E-01 0.42494460E+03</pdfrwt>
<pdfrwt beam="2">  1       -2 0.16948112E+00 0.42494460E+03</pdfrwt>
<totfact> 0.45205363E+01</totfact>
</mgrwt>
</event>
<event>
 6    1  0.8938744E-004  0.4184677E+03  0.7818608E-02  0.1037566E+00
          1   -1    0    0  502    0  0.00000000000E+00  0.00000000000E+00  0.43175074431E+03  0.43175074431E+03  0.00000000000E+00 0.  1.
         -1   -1    0    0    0  501 -0.00000000000E+00 -0.00000000000E+00 -0.40593297796E+03  0.40593297796E+03  0.00000000000E+00 0. -1.
    9000007    2    1    2  502    0 -0.18484220113E+02 -0.12125739673E+03  0.79595509749E+00  0.41855234228E+03  0.40017547029E+03 0.  0.
    9000005    1    3    3    0    0  0.13516083687E+01  0.65269692947E+02 -0.15916098230E+03  0.17203249095E+03  0.99999687468E+00 0.  0.
          4    1    3    3  502    0 -0.19835828482E+02 -0.18652708968E+03  0.15995693739E+03  0.24651985133E+03  0.00000000000E+00 0.  1.
   -9000007    1    1    2    0  501  0.18484220113E+02  0.12125739673E+03  0.25021811252E+02  0.41913137999E+03  0.40000000000E+03 0.  1.
<mgrwt>
<rscale>  2 0.41846770E+03</rscale>
<asrwt>0</asrwt>
<pdfrwt beam="1">  1        1 0.66423192E-01 0.41846770E+03</pdfrwt>
<pdfrwt beam="2">  1       -1 0.62451227E-01 0.41846770E+03</pdfrwt>
<totfact> 0.14648996E+02</totfact>
</mgrwt>
</event>
<event>
 6    1  0.8938744E-004  0.4751644E+03  0.7818608E-02  0.1020473E+00
         -1   -1    0    0    0  501 -0.00000000000E+00  0.00000000000E+00  0.10126872274E+03  0.10126872274E+03  0.00000000000E+00 0. -1.
          1   -1    0    0  502    0  0.00000000000E+00 -0.00000000000E+00 -0.30256655539E+04  0.30256655539E+04  0.00000000000E+00 0.  1.
    9000007    2    1    2  502    0 -0.18916690178E+03 -0.17324655397E+03 -0.22641546990E+04  0.23134736702E+04  0.39995679323E+03 0.  0.
    9000005    1    3    3    0    0 -0.21479416178E+03  0.69425957149E+02 -0.12625624860E+04  0.12825839257E+04  0.99999687468E+00 0.  0.
          4    1    3    3  502    0  0.25627259998E+02 -0.24267251112E+03 -0.10015922130E+04  0.10308897445E+04  0.00000000000E+00 0.  1.
   -9000007    1    1    2    0  501  0.18916690178E+03  0.17324655397E+03 -0.66024213218E+03  0.81346060648E+03  0.40000000000E+03 0. -1.
<mgrwt>
<rscale>  2 0.47516440E+03</rscale>
<asrwt>0</asrwt>
<pdfrwt beam="1">  1        1 0.46548693E+00 0.47516440E+03</pdfrwt>
<pdfrwt beam="2">  1       -1 0.15579806E-01 0.47516440E+03</pdfrwt>
<totfact> 0.19761512E+01</totfact>
</mgrwt>
</event>
<event>
 6    1  0.8938744E-004  0.4339780E+03  0.7818608E-02  0.1032611E+00
         -1   -1    0    0    0  501 -0.00000000000E+00  0.00000000000E+00  0.49082019613E+02  0.49082019613E+02  0.00000000000E+00 0.  1.
          1   -1    0    0  502    0  0.00000000000E+00 -0.00000000000E+00 -0.38516435962E+04  0.38516435962E+04  0.00000000000E+00 0. -1.
    9000007    2    1    2  502    0  0.16231514740E+03 -0.51114427764E+02 -0.20176019443E+04  0.20635974818E+04  0.39844456270E+03 0.  0.
    9000005    1    3    3    0    0 -0.89693975008E+02 -0.92266104629E+02 -0.12042315199E+04  0.12110873613E+04  0.99999687468E+00 0.  0.
          4    1    3    3  502    0  0.25200912241E+03  0.41151676865E+02 -0.81337042437E+03  0.85251012049E+03  0.00000000000E+00 0.  1.
   -9000007    1    1    2    0  501 -0.16231514740E+03  0.51114427764E+02 -0.17849596323E+04  0.18371281340E+04  0.40000000000E+03 0.  1.
<mgrwt>
<rscale>  2 0.43397800E+03</rscale>
<asrwt>0</asrwt>
<pdfrwt beam="1">  1        1 0.59256074E+00 0.43397800E+03</pdfrwt>
<pdfrwt beam="2">  1       -1 0.75510776E-02 0.43397800E+03</pdfrwt>
<totfact> 0.14758468E+01</totfact>
</mgrwt>
</event>
<event>
 6    1  0.8938744E-004  0.5922847E+03  0.7818608E-02  0.9921543E-01
         -2   -1    0    0    0  501 -0.00000000000E+00  0.00000000000E+00  0.10545524996E+04  0.10545524996E+04  0.00000000000E+00 0. -1.
          2   -1    0    0  502    0  0.00000000000E+00 -0.00000000000E+00 -0.35741630173E+03  0.35741630173E+03  0.00000000000E+00 0.  1.
    9000007    2    1    2  502    0  0.43587688651E+03 -0.25814685864E+02  0.53446013914E+03  0.79786900626E+03  0.40036514912E+03 0.  0.
    9000005    1    3    3    0    0  0.11790494218E+03 -0.29454969199E+02  0.45381903486E+03  0.46981047987E+03  0.99999687468E+00 0.  0.
          4    1    3    3  502    0  0.31797194433E+03  0.36402833347E+01  0.80641104286E+02  0.32805852640E+03  0.00000000000E+00 0.  1.
   -9000007    1    1    2    0  501 -0.43587688651E+03  0.25814685864E+02  0.16267605871E+03  0.61409979504E+03  0.40000000000E+03 0. -1.
<mgrwt>
<rscale>  2 0.59228469E+03</rscale>
<asrwt>0</asrwt>
<pdfrwt beam="1">  1        2 0.54987124E-01 0.59228469E+03</pdfrwt>
<pdfrwt beam="2">  1       -2 0.16223884E+00 0.59228469E+03</pdfrwt>
<totfact> 0.22499137E+01</totfact>
</mgrwt>
</event>
<event>
 6    1  0.8938744E-004  0.4090281E+03  0.7818608E-02  0.1040698E+00
         -2   -1    0    0    0  501 -0.00000000000E+00  0.00000000000E+00  0.16452302225E+03  0.16452302225E+03  0.00000000000E+00 0.  1.
          2   -1    0    0  502    0  0.00000000000E+00 -0.00000000000E+00 -0.16883136497E+04  0.16883136497E+04  0.00000000000E+00 0. -1.
    9000007    2    1    2  502    0  0.15213548584E+02  0.81891784802E+02 -0.17818118616E+03  0.44656412192E+03  0.40091553151E+03 0.  0.
    9000005    1    3    3    0    0 -0.43805307895E+02 -0.16794277897E+02 -0.28546739550E+03  0.28929843874E+03  0.99999687468E+00 0.  0.
          4    1    3    3  502    0  0.59018856479E+02  0.98686062699E+02  0.10728620934E+03  0.15726568318E+03  0.00000000000E+00 0.  1.
   -9000007    1    1    2    0  501 -0.15213548584E+02 -0.81891784802E+02 -0.13456094413E+04  0.14062725500E+04  0.40000000000E+03 0. -1.
<mgrwt>
<rscale>  2 0.40902805E+03</rscale>
<asrwt>0</asrwt>
<pdfrwt beam="1">  1        2 0.25974055E+00 0.40902805E+03</pdfrwt>
<pdfrwt beam="2">  1       -2 0.25311235E-01 0.40902805E+03</pdfrwt>
<totfact> 0.14800195E+02</totfact>
</mgrwt>
</event>
<event>
 6    1  0.8938744E-004  0.6005320E+03  0.7818608E-02  0.9904303E-01
         -1   -1    0    0    0  501 -0.00000000000E+00  0.00000000000E+00  0.46252390094E+03  0.46252390094E+03  0.00000000000E+00 0.  1.
          1   -1    0    0  502    0  0.00000000000E+00 -0.00000000000E+00 -0.99074110880E+03  0.99074110880E+03  0.00000000000E+00 0. -1.
    9000007    2    1    2  502    0  0.42092229050E+03  0.15329542341E+03 -0.59944833418E+03  0.84849320581E+03  0.39990918154E+03 0.  0.
    9000005    1    3    3    0    0 -0.69294043913E+02  0.37759124483E+02 -0.21315956487E+02  0.81748308840E+02  0.99999687468E+00 0.  0.
          4    1    3    3  502    0  0.49021633441E+03  0.11553629892E+03 -0.57813237769E+03  0.76674489697E+03  0.00000000000E+00 0.  1.
   -9000007    1    1    2    0  501 -0.42092229050E+03 -0.15329542341E+03  0.71231126319E+02  0.60477180393E+03  0.40000000000E+03 0.  1.
<mgrwt>
<rscale>  2 0.60053204E+03</rscale>
<asrwt>0</asrwt>
<pdfrwt beam="1">  1        1 0.15242171E+00 0.60053204E+03</pdfrwt>
<pdfrwt beam="2">  1       -1 0.71157523E-01 0.60053204E+03</pdfrwt>
<totfact> 0.32089756E+01</totfact>
</mgrwt>
</event>
<event>
 6    1  0.8938744E-004  0.7638825E+03  0.7818608E-02  0.9613819E-01
         -1   -1    0    0    0  501 -0.00000000000E+00  0.00000000000E+00  0.25228719783E+03  0.25228719783E+03  0.00000000000E+00 0.  1.
          1   -1    0    0  502    0  0.00000000000E+00 -0.00000000000E+00 -0.23324132549E+04  0.23324132549E+04  0.00000000000E+00 0. -1.
    9000007    2    1    2  502    0 -0.65031488280E+03  0.98549837260E+01 -0.92232623856E+03  0.11977949090E+04  0.40127345567E+03 0.  0.
    9000005    1    3    3    0    0 -0.54052978423E+03 -0.91666565282E+02 -0.88921337166E+03  0.10446418655E+04  0.99999687468E+00 0.  0.
          4    1    3    3  502    0 -0.10978509856E+03  0.10152154901E+03 -0.33112866896E+02  0.15315304350E+03  0.00000000000E+00 0.  1.
   -9000007    1    1    2    0  501  0.65031488280E+03 -0.98549837260E+01 -0.11577998185E+04  0.13869055438E+04  0.40000000000E+03 0. -1.
<mgrwt>
<rscale>  2 0.76388254E+03</rscale>
<asrwt>0</asrwt>
<pdfrwt beam="1">  1        1 0.35883280E+00 0.76388254E+03</pdfrwt>
<pdfrwt beam="2">  1       -1 0.38813416E-01 0.76388254E+03</pdfrwt>
<totfact> 0.11918119E+01</totfact>
</mgrwt>
</event>
<event>
 6    1  0.8938744E-004  0.4113443E+03  0.7818608E-02  0.1039921E+00
          1   -1    0    0  502    0  0.00000000000E+00  0.00000000000E+00  0.14218000927E+03  0.14218000927E+03  0.00000000000E+00 0. -1.
         -1   -1    0    0    0  501 -0.00000000000E+00 -0.00000000000E+00 -0.13248022079E+04  0.13248022079E+04  0.00000000000E+00 0.  1.
    9000007    2    1    2  502    0 -0.94146977324E+02 -0.14138023299E+02 -0.82544504859E+03  0.92233641156E+03  0.40035158400E+03 0.  0.
    9000005    1    3    3    0    0  0.53575598458E+02  0.99286187208E+01  0.24186249964E+02  0.59622956157E+02  0.99999687468E+00 0.  0.
          4    1    3    3  502    0 -0.14772257578E+03 -0.24066642020E+02 -0.84963129855E+03  0.86271345541E+03  0.00000000000E+00 0.  1.
   -9000007    1    1    2    0  501  0.94146977324E+02  0.14138023299E+02 -0.35717715002E+03  0.54464580558E+03  0.40000000000E+03 0. -1.
<mgrwt>
<rscale>  2 0.41134435E+03</rscale>
<asrwt>0</asrwt>
<pdfrwt beam="1">  1        1 0.21873848E-01 0.41134435E+03</pdfrwt>
<pdfrwt beam="2">  1       -1 0.20381572E+00 0.41134435E+03</pdfrwt>
<totfact> 0.35104170E+01</totfact>
</mgrwt>
</event>
<event>
 6    1  0.8938744E-004  0.4307827E+03  0.7818608E-02  0.1033613E+00
         -2   -1    0    0    0  501 -0.00000000000E+00  0.00000000000E+00  0.80700080774E+03  0.80700080774E+03  0.00000000000E+00 0.  1.
          2   -1    0    0  502    0  0.00000000000E+00 -0.00000000000E+00 -0.24627395368E+03  0.24627395368E+03  0.00000000000E+00 0. -1.
    9000007    2    1    2  502    0  0.55178229602E+02  0.15120602453E+03  0.14456282679E+03  0.45402489995E+03  0.39916450244E+03 0.  0.
    9000005    1    3    3    0    0  0.10257601736E+03 -0.41517049174E+02 -0.92940640737E+02  0.14451459235E+03  0.99999687468E+00 0.  0.
          4    1    3    3  502    0 -0.47397787753E+02  0.19272307370E+03  0.23750346753E+03  0.30951030760E+03  0.00000000000E+00 0.  1.
   -9000007    1    1    2    0  501 -0.55178229602E+02 -0.15120602453E+03  0.41616402727E+03  0.59924986147E+03  0.40000000000E+03 0. -1.
<mgrwt>
<rscale>  2 0.43078272E+03</rscale>
<asrwt>0</asrwt>
<pdfrwt beam="1">  1        2 0.37888301E-01 0.43078272E+03</pdfrwt>
<pdfrwt beam="2">  1       -2 0.12415397E+00 0.43078272E+03</pdfrwt>
<totfact> 0.68766022E+01</totfact>
</mgrwt>
</event>
<event>
 6    1  0.8938744E-004  0.4914080E+03  0.7818608E-02  0.1016046E+00
          2   -1    0    0  502    0  0.00000000000E+00  0.00000000000E+00  0.27710863889E+03  0.27710863889E+03  0.00000000000E+00 0. -1.
         -2   -1    0    0    0  501 -0.00000000000E+00 -0.00000000000E+00 -0.87195308286E+03  0.87195308286E+03  0.00000000000E+00 0.  1.
    9000007    2    1    2  502    0 -0.49170772470E+02  0.28066540151E+03 -0.31161643975E+03  0.58213233034E+03  0.40072735374E+03 0.  0.
    9000005    1    3    3    0    0  0.12187575306E+02  0.37607289856E+03 -0.26090952678E+03  0.45788005326E+03  0.99999687468E+00 0.  0.
          4    1    3    3  502    0 -0.61358347776E+02 -0.95407497049E+02 -0.50706912973E+02  0.12425227707E+03  0.00000000000E+00 0.  1.
   -9000007    1    1    2    0  501  0.49170772470E+02 -0.28066540151E+03 -0.28322800423E+03  0.56692939141E+03  0.40000000000E+03 0. -1.
<mgrwt>
<rscale>  2 0.49140804E+03</rscale>
<asrwt>0</asrwt>
<pdfrwt beam="1">  1        2 0.42632099E-01 0.49140804E+03</pdfrwt>
<pdfrwt beam="2">  1       -2 0.13414663E+00 0.49140804E+03</pdfrwt>
<totfact> 0.49497962E+01</totfact>
</mgrwt>
</event>
<event>
 6    1  0.8938744E-004  0.5761033E+03  0.7818608E-02  0.9956263E-01
         -1   -1    0    0    0  501 -0.00000000000E+00  0.00000000000E+00  0.19985806663E+03  0.19985806663E+03  0.00000000000E+00 0.  1.
          1   -1    0    0  502    0  0.00000000000E+00 -0.00000000000E+00 -0.16681986793E+04  0.16681986793E+04  0.00000000000E+00 0. -1.
    9000007    2    1    2  502    0  0.33559984400E+02  0.41326920398E+03 -0.67132844843E+03  0.88462088251E+03  0.39994313669E+03 0.  0.
    9000005    1    3    3    0    0  0.18241389312E+03  0.66706405867E+02 -0.28325486797E+03  0.34345144229E+03  0.99999687468E+00 0.  0.
          4    1    3    3  502    0 -0.14885390872E+03  0.34656279812E+03 -0.38807358046E+03  0.54116944022E+03  0.00000000000E+00 0.  1.
   -9000007    1    1    2    0  501 -0.33559984400E+02 -0.41326920398E+03 -0.79701216423E+03  0.98343586341E+03  0.40000000000E+03 0.  1.
<mgrwt>
<rscale>  2 0.57610326E+03</rscale>
<asrwt>0</asrwt>
<pdfrwt beam="1">  1        1 0.25664595E+00 0.57610326E+03</pdfrwt>
<pdfrwt beam="2">  1       -1 0.30747395E-01 0.57610326E+03</pdfrwt>
<totfact> 0.51533162E+01</totfact>
</mgrwt>
</event>
<event>
 6    1  0.8938744E-004  0.4182885E+03  0.7818608E-02  0.1037625E+00
         -1   -1    0    0    0  501 -0.00000000000E+00  0.00000000000E+00  0.28991114652E+03  0.28991114652E+03  0.00000000000E+00 0. -1.
          1   -1    0    0  502    0  0.00000000000E+00 -0.00000000000E+00 -0.60641674435E+03  0.60641674435E+03  0.00000000000E+00 0.  1.
    9000007    2    1    2  502    0  0.87615260370E+02 -0.87693680035E+02 -0.18907728917E+03  0.45860127617E+03  0.39899660883E+03 0.  0.
    9000005    1    3    3    0    0 -0.44439049460E+02  0.13670007647E+03 -0.13098100705E+02  0.14434091679E+03  0.99999687468E+00 0.  0.
          4    1    3    3  502    0  0.13205430983E+03 -0.22439375651E+03 -0.17597918847E+03  0.31426035938E+03  0.00000000000E+00 0.  1.
   -9000007    1    1    2    0  501 -0.87615260370E+02  0.87693680035E+02 -0.12742830865E+03  0.43772661470E+03  0.40000000000E+03 0. -1.
<mgrwt>
<rscale>  2 0.41828854E+03</rscale>
<asrwt>0</asrwt>
<pdfrwt beam="1">  1        1 0.93294883E-01 0.41828854E+03</pdfrwt>
<pdfrwt beam="2">  1       -1 0.44601715E-01 0.41828854E+03</pdfrwt>
<totfact> 0.17455547E+02</totfact>
</mgrwt>
</event>
<event>
 6    1  0.8938744E-004  0.4120744E+03  0.7818608E-02  0.1039677E+00
          2   -1    0    0  502    0  0.00000000000E+00  0.00000000000E+00  0.47347091628E+03  0.47347091628E+03  0.00000000000E+00 0.  1.
         -2   -1    0    0    0  501 -0.00000000000E+00 -0.00000000000E+00 -0.40741743442E+03  0.40741743442E+03  0.00000000000E+00 0. -1.
    9000007    2    1    2  502    0 -0.25373767531E+02 -0.94038753112E+02 -0.11934498632E+03  0.42938009256E+03  0.40079536295E+03 0.  0.
    9000005    1    3    3    0    0  0.11807932391E+03  0.46889014768E+01 -0.20399445742E+03  0.23575294523E+03  0.99999687468E+00 0.  0.
          4    1    3    3  502    0 -0.14345309144E+03 -0.98727654589E+02  0.84649471101E+02  0.19362714733E+03  0.00000000000E+00 0.  1.
   -9000007    1    1    2    0  501  0.25373767531E+02  0.94038753112E+02  0.18539846818E+03  0.45150825814E+03  0.40000000000E+03 0.  1.
<mgrwt>
<rscale>  2 0.41207436E+03</rscale>
<asrwt>0</asrwt>
<pdfrwt beam="1">  1        2 0.72841679E-01 0.41207436E+03</pdfrwt>
<pdfrwt beam="2">  1       -2 0.62679605E-01 0.41207436E+03</pdfrwt>
<totfact> 0.15936010E+02</totfact>
</mgrwt>
</event>
<event>
 6    1  0.8938744E-004  0.5275069E+03  0.7818608E-02  0.1006839E+00
         -1   -1    0    0    0  501 -0.00000000000E+00  0.00000000000E+00  0.54195110527E+03  0.54195110527E+03  0.00000000000E+00 0. -1.
          1   -1    0    0  502    0  0.00000000000E+00 -0.00000000000E+00 -0.10507517558E+04  0.10507517558E+04  0.00000000000E+00 0.  1.
    9000007    2    1    2  502    0  0.24902344104E+03  0.23665856773E+03  0.31500713575E+03  0.61460306013E+03  0.40060887918E+03 0.  0.
    9000005    1    3    3    0    0  0.29157230501E+03  0.31969500663E+03  0.23933531648E+03  0.49447113164E+03  0.99999687468E+00 0.  0.
          4    1    3    3  502    0 -0.42548863970E+02 -0.83036438904E+02  0.75671819268E+02  0.12013192849E+03  0.00000000000E+00 0.  1.
   -9000007    1    1    2    0  501 -0.24902344104E+03 -0.23665856773E+03 -0.82380778623E+03  0.97809980090E+03  0.40000000000E+03 0.  1.
<mgrwt>
<rscale>  2 0.52750695E+03</rscale>
<asrwt>0</asrwt>
<pdfrwt beam="1">  1        1 0.16165412E+00 0.52750695E+03</pdfrwt>
<pdfrwt beam="2">  1       -1 0.83377093E-01 0.52750695E+03</pdfrwt>
<totfact> 0.20979127E+01</totfact>
</mgrwt>
</event>
<event>
 6    1  0.8938744E-004  0.5715190E+03  0.7818608E-02  0.9966323E-01
         -2   -1    0    0    0  501 -0.00000000000E+00  0.00000000000E+00  0.19892110686E+03  0.19892110686E+03  0.00000000000E+00 0. -1.
          2   -1    0    0  502    0  0.00000000000E+00 -0.00000000000E+00 -0.16423870706E+04  0.16423870706E+04  0.00000000000E+00 0.  1.
    9000007    2    1    2  502    0 -0.40479267602E+03 -0.49972776430E+02 -0.70842562217E+03  0.91037386578E+03  0.40069854556E+03 0.  0.
    9000005    1    3    3    0    0  0.16053102160E+02 -0.13402795715E+03 -0.11090432678E+03  0.17470536648E+03  0.99999687468E+00 0.  0.
          4    1    3    3  502    0 -0.42084577818E+03  0.84055180719E+02 -0.59752129539E+03  0.73566849930E+03  0.00000000000E+00 0.  1.
   -9000007    1    1    2    0  501  0.40479267602E+03  0.49972776430E+02 -0.73504034158E+03  0.93093431169E+03  0.40000000000E+03 0.  1.
<mgrwt>
<rscale>  2 0.57151897E+03</rscale>
<asrwt>0</asrwt>
<pdfrwt beam="1">  1        2 0.25267492E+00 0.57151897E+03</pdfrwt>
<pdfrwt beam="2">  1       -2 0.30603249E-01 0.57151897E+03</pdfrwt>
<totfact> 0.10840977E+02</totfact>
</mgrwt>
</event>
<event>
 6    1  0.8938744E-004  0.4137689E+03  0.7818608E-02  0.1039114E+00
         -1   -1    0    0    0  501 -0.00000000000E+00  0.00000000000E+00  0.68507896128E+03  0.68507896128E+03  0.00000000000E+00 0.  1.
          1   -1    0    0  502    0  0.00000000000E+00 -0.00000000000E+00 -0.32934622929E+03  0.32934622929E+03  0.00000000000E+00 0. -1.
    9000007    2    1    2  502    0 -0.90324348943E+02 -0.54460856821E+02 -0.71209373141E+02  0.41994723969E+03  0.40020049521E+03 0.  0.
    9000005    1    3    3    0    0 -0.24954134471E+03 -0.50184735193E+02 -0.40565297789E+02  0.25775169009E+03  0.99999687468E+00 0.  0.
          4    1    3    3  502    0  0.15921699577E+03 -0.42761216274E+01 -0.30644075352E+02  0.16219554960E+03  0.00000000000E+00 0.  1.
   -9000007    1    1    2    0  501  0.90324348943E+02  0.54460856821E+02  0.42694210513E+03  0.59447795087E+03  0.40000000000E+03 0.  1.
<mgrwt>
<rscale>  2 0.41376886E+03</rscale>
<asrwt>0</asrwt>
<pdfrwt beam="1">  1        1 0.50668651E-01 0.41376886E+03</pdfrwt>
<pdfrwt beam="2">  1       -1 0.10539676E+00 0.41376886E+03</pdfrwt>
<totfact> 0.68863571E+01</totfact>
</mgrwt>
</event>
<event>
 6    1  0.8938744E-004  0.5473617E+03  0.7818608E-02  0.1002106E+00
          2   -1    0    0  502    0  0.00000000000E+00  0.00000000000E+00  0.56483980090E+03  0.56483980090E+03  0.00000000000E+00 0.  1.
         -2   -1    0    0    0  501 -0.00000000000E+00 -0.00000000000E+00 -0.82465637771E+03  0.82465637771E+03  0.00000000000E+00 0. -1.
    9000007    2    1    2  502    0  0.13512416415E+03  0.34820387579E+03 -0.54491053189E+03  0.77241997419E+03  0.40025073380E+03 0.  0.
    9000005    1    3    3    0    0  0.16472996069E+03 -0.26257477588E+01 -0.30411449096E+03  0.34587494576E+03  0.99999687468E+00 0.  0.
          4    1    3    3  502    0 -0.29605796532E+02  0.35082962355E+03 -0.24079604093E+03  0.42654502843E+03  0.00000000000E+00 0.  1.
   -9000007    1    1    2    0  501 -0.13512416415E+03 -0.34820387579E+03  0.28509395508E+03  0.61707620443E+03  0.40000000000E+03 0.  1.
<mgrwt>
<rscale>  2 0.54736166E+03</rscale>
<asrwt>0</asrwt>
<pdfrwt beam="1">  1        2 0.86898431E-01 0.54736166E+03</pdfrwt>
<pdfrwt beam="2">  1       -2 0.12687021E+00 0.54736166E+03</pdfrwt>
<totfact> 0.25451071E+01</totfact>
</mgrwt>
</event>
<event>
 6    1  0.8938744E-004  0.4218647E+03  0.7818608E-02  0.1036461E+00
         -2   -1    0    0    0  501 -0.00000000000E+00  0.00000000000E+00  0.56545410021E+02  0.56545410021E+02  0.00000000000E+00 0. -1.
          2   -1    0    0  502    0  0.00000000000E+00 -0.00000000000E+00 -0.32911968843E+04  0.32911968843E+04  0.00000000000E+00 0.  1.
    9000007    2    1    2  502    0  0.12475601662E+03  0.48474337607E+02 -0.12676629356E+04  0.13360371131E+04  0.40014000555E+03 0.  0.
    9000005    1    3    3    0    0  0.16724012799E+03 -0.89526617003E+02 -0.10933641843E+04  0.11096983892E+04  0.99999687468E+00 0.  0.
          4    1    3    3  502    0 -0.42484111368E+02  0.13800095461E+03 -0.17429875131E+03  0.22633872382E+03  0.00000000000E+00 0.  1.
   -9000007    1    1    2    0  501 -0.12475601662E+03 -0.48474337607E+02 -0.19669885387E+04  0.20117051813E+04  0.40000000000E+03 0.  1.
<mgrwt>
<rscale>  2 0.42186470E+03</rscale>
<asrwt>0</asrwt>
<pdfrwt beam="1">  1        2 0.50633796E+00 0.42186470E+03</pdfrwt>
<pdfrwt beam="2">  1       -2 0.86992942E-02 0.42186470E+03</pdfrwt>
<totfact> 0.10976463E+02</totfact>
</mgrwt>
</event>
<event>
 6    1  0.8938744E-004  0.4709799E+03  0.7818608E-02  0.1021644E+00
         -2   -1    0    0    0  501 -0.00000000000E+00  0.00000000000E+00  0.31288153043E+03  0.31288153043E+03  0.00000000000E+00 0.  1.
          2   -1    0    0  502    0  0.00000000000E+00 -0.00000000000E+00 -0.10748310006E+04  0.10748310006E+04  0.00000000000E+00 0. -1.
    9000007    2    1    2  502    0  0.44644128315E+02 -0.24260971716E+03  0.23291028252E+02  0.47258673998E+03  0.40242164673E+03 0.  0.
    9000005    1    3    3    0    0  0.18746327143E+03  0.12740707244E+00  0.35011443489E+02  0.19070735575E+03  0.99999687468E+00 0.  0.
          4    1    3    3  502    0 -0.14281914311E+03 -0.24273712424E+03 -0.11720415237E+02  0.28187938423E+03  0.00000000000E+00 0.  1.
   -9000007    1    1    2    0  501 -0.44644128315E+02  0.24260971716E+03 -0.78524049839E+03  0.91512579101E+03  0.40000000000E+03 0. -1.
<mgrwt>
<rscale>  2 0.47097987E+03</rscale>
<asrwt>0</asrwt>
<pdfrwt beam="1">  1        2 0.16535861E+00 0.47097987E+03</pdfrwt>
<pdfrwt beam="2">  1       -2 0.48135621E-01 0.47097987E+03</pdfrwt>
<totfact> 0.96217182E+01</totfact>
</mgrwt>
</event>
<event>
 6    1  0.8938744E-004  0.8333405E+03  0.7818608E-02  0.9512974E-01
          2   -1    0    0  502    0  0.00000000000E+00  0.00000000000E+00  0.86884247381E+03  0.86884247381E+03  0.00000000000E+00 0.  1.
         -2   -1    0    0    0  501 -0.00000000000E+00 -0.00000000000E+00 -0.94648364037E+03  0.94648364037E+03  0.00000000000E+00 0. -1.
    9000007    2    1    2  502    0 -0.14091929774E+03  0.71723861237E+03 -0.39676752439E+03  0.92306432087E+03  0.40041702825E+03 0.  0.
    9000005    1    3    3    0    0 -0.10457756552E+03  0.31660797927E+03 -0.40003627613E+03  0.52077548134E+03  0.99999687468E+00 0.  0.
          4    1    3    3  502    0 -0.36341732215E+02  0.40063063310E+03  0.32687517436E+01  0.40228883953E+03  0.00000000000E+00 0.  1.
   -9000007    1    1    2    0  501  0.14091929774E+03 -0.71723861237E+03  0.31912635783E+03  0.89226179331E+03  0.40000000000E+03 0.  1.
<mgrwt>
<rscale>  2 0.83334048E+03</rscale>
<asrwt>0</asrwt>
<pdfrwt beam="1">  1        2 0.13366807E+00 0.83334048E+03</pdfrwt>
<pdfrwt beam="2">  1       -2 0.14561287E+00 0.83334048E+03</pdfrwt>
<totfact> 0.10053922E+01</totfact>
</mgrwt>
</event>
<event>
 6    1  0.8938744E-004  0.3997605E+03  0.7818608E-02  0.1043863E+00
          3   -1    0    0  502    0  0.00000000000E+00  0.00000000000E+00  0.43812332480E+03  0.43812332480E+03  0.00000000000E+00 0. -1.
         -3   -1    0    0    0  501 -0.00000000000E+00 -0.00000000000E+00 -0.36736698382E+03  0.36736698382E+03  0.00000000000E+00 0.  1.
    9000007    2    1    2  502    0  0.79739121398E+01 -0.34029295409E+02  0.69125926518E+02  0.40396293163E+03  0.39646699761E+03 0.  0.
    9000005    1    3    3    0    0  0.92848202757E+02  0.96699424287E+02  0.17135353463E+03  0.21756516549E+03  0.99999687468E+00 0.  0.
          4    1    3    3  502    0 -0.84874290617E+02 -0.13072871970E+03 -0.10222760811E+03  0.18639776614E+03  0.00000000000E+00 0.  1.
   -9000007    1    1    2    0  501 -0.79739121398E+01  0.34029295409E+02  0.16304144622E+01  0.40152737699E+03  0.40000000000E+03 0.  1.
<mgrwt>
<rscale>  2 0.39976046E+03</rscale>
<asrwt>0</asrwt>
<pdfrwt beam="1">  1        3 0.67403589E-01 0.39976046E+03</pdfrwt>
<pdfrwt beam="2">  1       -3 0.56517997E-01 0.39976046E+03</pdfrwt>
<totfact> 0.16901467E+01</totfact>
</mgrwt>
</event>
<event>
 6    1  0.8938744E-004  0.4611321E+03  0.7818608E-02  0.1024453E+00
          1   -1    0    0  502    0  0.00000000000E+00  0.00000000000E+00  0.98012644443E+03  0.98012644443E+03  0.00000000000E+00 0. -1.
         -1   -1    0    0    0  501 -0.00000000000E+00 -0.00000000000E+00 -0.27559902237E+03  0.27559902237E+03  0.00000000000E+00 0.  1.
    9000007    2    1    2  502    0 -0.19090153893E+03  0.12742669768E+03  0.62611474347E+02  0.46532237674E+03  0.39990468456E+03 0.  0.
    9000005    1    3    3    0    0 -0.20124934249E+03  0.14612619405E+03  0.20440558428E+03  0.32192670799E+03  0.99999687468E+00 0.  0.
          4    1    3    3  502    0  0.10347803558E+02 -0.18699496375E+02 -0.14179410994E+03  0.14339566875E+03  0.00000000000E+00 0.  1.
   -9000007    1    1    2    0  501  0.19090153893E+03 -0.12742669768E+03  0.64191594771E+03  0.79040309006E+03  0.40000000000E+03 0. -1.
<mgrwt>
<rscale>  2 0.46113212E+03</rscale>
<asrwt>0</asrwt>
<pdfrwt beam="1">  1        1 0.15078868E+00 0.46113212E+03</pdfrwt>
<pdfrwt beam="2">  1       -1 0.42399850E-01 0.46113212E+03</pdfrwt>
<totfact> 0.90240945E+01</totfact>
</mgrwt>
</event>
<event>
 6    1  0.8938744E-004  0.4460984E+03  0.7818608E-02  0.1028892E+00
          2   -1    0    0  502    0  0.00000000000E+00  0.00000000000E+00  0.69786090548E+03  0.69786090548E+03  0.00000000000E+00 0.  1.
         -2   -1    0    0    0  501 -0.00000000000E+00 -0.00000000000E+00 -0.45878204738E+03  0.45878204738E+03  0.00000000000E+00 0. -1.
    9000007    2    1    2  502    0  0.19422056495E+03  0.35258395240E+02  0.47531345279E+03  0.65189393997E+03  0.40009754846E+03 0.  0.
    9000005    1    3    3    0    0  0.27830339692E+03 -0.77131111786E+02  0.22971034357E+03  0.36901196604E+03  0.99999687468E+00 0.  0.
          4    1    3    3  502    0 -0.84082831966E+02  0.11238950703E+03  0.24560310921E+03  0.28288197393E+03  0.00000000000E+00 0.  1.
   -9000007    1    1    2    0  501 -0.19422056495E+03 -0.35258395240E+02 -0.23623459469E+03  0.50474901289E+03  0.40000000000E+03 0. -1.
<mgrwt>
<rscale>  2 0.44609842E+03</rscale>
<asrwt>0</asrwt>
<pdfrwt beam="1">  1        2 0.10736322E+00 0.44609842E+03</pdfrwt>
<pdfrwt beam="2">  1       -2 0.70581853E-01 0.44609842E+03</pdfrwt>
<totfact> 0.78007121E+01</totfact>
</mgrwt>
</event>
<event>
 6    1  0.8938744E-004  0.4554376E+03  0.7818608E-02  0.1026113E+00
          2   -1    0    0  502    0  0.00000000000E+00  0.00000000000E+00  0.59587773002E+03  0.59587773002E+03  0.00000000000E+00 0. -1.
         -2   -1    0    0    0  501 -0.00000000000E+00 -0.00000000000E+00 -0.40162127312E+03  0.40162127312E+03  0.00000000000E+00 0.  1.
    9000007    2    1    2  502    0 -0.16547396235E+03  0.14073641122E+03 -0.84898181060E+02  0.46353675582E+03  0.40058738521E+03 0.  0.
    9000005    1    3    3    0    0  0.12941244415E+02 -0.77965462136E+02  0.98989632317E+02  0.12667295052E+03  0.99999687468E+00 0.  0.
          4    1    3    3  502    0 -0.17841520677E+03  0.21870187335E+03 -0.18388781338E+03  0.33686380530E+03  0.00000000000E+00 0.  1.
   -9000007    1    1    2    0  501  0.16547396235E+03 -0.14073641122E+03  0.27915463796E+03  0.53396224731E+03  0.40000000000E+03 0. -1.
<mgrwt>
<rscale>  2 0.45543755E+03</rscale>
<asrwt>0</asrwt>
<pdfrwt beam="1">  1        2 0.91673497E-01 0.45543755E+03</pdfrwt>
<pdfrwt beam="2">  1       -2 0.61787888E-01 0.45543755E+03</pdfrwt>
<totfact> 0.12547038E+02</totfact>
</mgrwt>
</event>
<event>
 6    1  0.8938744E-004  0.4275071E+03  0.7818608E-02  0.1034650E+00
          2   -1    0    0  502    0  0.00000000000E+00  0.00000000000E+00  0.97761784476E+03  0.97761784476E+03  0.00000000000E+00 0.  1.
         -2   -1    0    0    0  501 -0.00000000000E+00 -0.00000000000E+00 -0.19022321933E+03  0.19022321933E+03  0.00000000000E+00 0. -1.
    9000007    2    1    2  502    0 -0.13255133228E+03 -0.90340670466E+02  0.31408771556E+03  0.52772332230E+03  0.39256785325E+03 0.  0.
    9000005    1    3    3    0    0 -0.10763543756E+03 -0.19565194124E+03  0.31998239419E+02  0.22558802461E+03  0.99999687468E+00 0.  0.
          4    1    3    3  502    0 -0.24915894723E+02  0.10531127077E+03  0.28208947614E+03  0.30213529769E+03  0.00000000000E+00 0.  1.
   -9000007    1    1    2    0  501  0.13255133228E+03  0.90340670466E+02  0.47330690987E+03  0.64011774179E+03  0.40000000000E+03 0.  1.
<mgrwt>
<rscale>  2 0.42750710E+03</rscale>
<asrwt>0</asrwt>
<pdfrwt beam="1">  1        2 0.15040274E+00 0.42750710E+03</pdfrwt>
<pdfrwt beam="2">  1       -2 0.29265111E-01 0.42750710E+03</pdfrwt>
<totfact> 0.28782555E+02</totfact>
</mgrwt>
</event>
<event>
 6    1  0.8938744E-004  0.4935419E+03  0.7818608E-02  0.1015478E+00
          2   -1    0    0  502    0  0.00000000000E+00  0.00000000000E+00  0.18620739966E+04  0.18620739966E+04  0.00000000000E+00 0. -1.
         -2   -1    0    0    0  501 -0.00000000000E+00 -0.00000000000E+00 -0.17457526082E+03  0.17457526082E+03  0.00000000000E+00 0.  1.
    9000007    2    1    2  502    0  0.27889418103E+03  0.57357601873E+02  0.33719925183E+03  0.59985401972E+03  0.40626303160E+03 0.  0.
    9000005    1    3    3    0    0  0.15603533385E+03 -0.16540214783E+03  0.88243828042E+02  0.24391160099E+03  0.99999687468E+00 0.  0.
          4    1    3    3  502    0  0.12285884717E+03  0.22275974971E+03  0.24895542379E+03  0.35594241873E+03  0.00000000000E+00 0.  1.
   -9000007    1    1    2    0  501 -0.27889418103E+03 -0.57357601873E+02  0.13502994839E+04  0.14367952377E+04  0.40000000000E+03 0. -1.
<mgrwt>
<rscale>  2 0.49354189E+03</rscale>
<asrwt>0</asrwt>
<pdfrwt beam="1">  1        2 0.28647291E+00 0.49354189E+03</pdfrwt>
<pdfrwt beam="2">  1       -2 0.26857734E-01 0.49354189E+03</pdfrwt>
<totfact> 0.10591520E+02</totfact>
</mgrwt>
</event>
<event>
 6    1  0.8938744E-004  0.4094759E+03  0.7818608E-02  0.1040547E+00
          1   -1    0    0  502    0  0.00000000000E+00  0.00000000000E+00  0.62986825100E+03  0.62986825100E+03  0.00000000000E+00 0. -1.
         -1   -1    0    0    0  501 -0.00000000000E+00 -0.00000000000E+00 -0.31897386115E+03  0.31897386115E+03  0.00000000000E+00 0.  1.
    9000007    2    1    2  502    0  0.86656490208E+02  0.12508062884E+02  0.34842284354E+03  0.53765579942E+03  0.40001185210E+03 0.  0.
    9000005    1    3    3    0    0 -0.10822828121E+03  0.45549178647E+02  0.31630347591E+03  0.33739735831E+03  0.99999687468E+00 0.  0.
          4    1    3    3  502    0  0.19488477142E+03 -0.33041115763E+02  0.32119367634E+02  0.20025844112E+03  0.00000000000E+00 0.  1.
   -9000007    1    1    2    0  501 -0.86656490208E+02 -0.12508062884E+02 -0.37528453693E+02  0.41118631272E+03  0.40000000000E+03 0.  1.
<mgrwt>
<rscale>  2 0.40947593E+03</rscale>
<asrwt>0</asrwt>
<pdfrwt beam="1">  1        1 0.96902808E-01 0.40947593E+03</pdfrwt>
<pdfrwt beam="2">  1       -1 0.49072902E-01 0.40947593E+03</pdfrwt>
<totfact> 0.13871964E+02</totfact>
</mgrwt>
</event>
<event>
 6    1  0.8938744E-004  0.6977431E+03  0.7818608E-02  0.9721100E-01
         -2   -1    0    0    0  501 -0.00000000000E+00  0.00000000000E+00  0.36077782011E+03  0.36077782011E+03  0.00000000000E+00 0. -1.
          2   -1    0    0  502    0  0.00000000000E+00 -0.00000000000E+00 -0.28443146388E+04  0.28443146388E+04  0.00000000000E+00 0.  1.
    9000007    2    1    2  502    0 -0.48375011533E+03 -0.30442087227E+03 -0.80081422270E+02  0.70243705232E+03  0.40039797293E+03 0.  0.
    9000005    1    3    3    0    0 -0.45190613490E+03 -0.20976624755E+03 -0.20821869473E+03  0.53997875717E+03  0.99999687468E+00 0.  0.
          4    1    3    3  502    0 -0.31843980434E+02 -0.94654624715E+02  0.12813727246E+03  0.16245829515E+03  0.00000000000E+00 0.  1.
   -9000007    1    1    2    0  501  0.48375011533E+03  0.30442087227E+03 -0.24034553964E+04  0.25026554066E+04  0.40000000000E+03 0.  1.
<mgrwt>
<rscale>  2 0.69774314E+03</rscale>
<asrwt>0</asrwt>
<pdfrwt beam="1">  1        2 0.43758688E+00 0.69774314E+03</pdfrwt>
<pdfrwt beam="2">  1       -2 0.55504278E-01 0.69774314E+03</pdfrwt>
<totfact> 0.70964655E+00</totfact>
</mgrwt>
</event>
<event>
 6    1  0.8938744E-004  0.4672475E+03  0.7818608E-02  0.1022700E+00
          2   -1    0    0  502    0  0.00000000000E+00  0.00000000000E+00  0.69792080739E+03  0.69792080739E+03  0.00000000000E+00 0.  1.
         -2   -1    0    0    0  501 -0.00000000000E+00 -0.00000000000E+00 -0.57716787042E+03  0.57716787042E+03  0.00000000000E+00 0. -1.
    9000007    2    1    2  502    0  0.18089388389E+02  0.24107075306E+03  0.49183788984E+03  0.67830867127E+03  0.39969464556E+03 0.  0.
    9000005    1    3    3    0    0  0.71953717960E+02  0.80974844906E+02 -0.43663815725E+02  0.11679808146E+03  0.99999687468E+00 0.  0.
          4    1    3    3  502    0 -0.53864329571E+02  0.16009590815E+03  0.53550170556E+03  0.56151058981E+03  0.00000000000E+00 0.  1.
   -9000007    1    1    2    0  501 -0.18089388389E+02 -0.24107075306E+03 -0.37108495287E+03  0.59678000654E+03  0.40000000000E+03 0. -1.
<mgrwt>
<rscale>  2 0.46724748E+03</rscale>
<asrwt>0</asrwt>
<pdfrwt beam="1">  1        2 0.10737243E+00 0.46724748E+03</pdfrwt>
<pdfrwt beam="2">  1       -2 0.88795057E-01 0.46724748E+03</pdfrwt>
<totfact> 0.46669445E+01</totfact>
</mgrwt>
</event>
<event>
 6    1  0.8938744E-004  0.4071304E+03  0.7818608E-02  0.1041338E+00
         -1   -1    0    0    0  501 -0.00000000000E+00  0.00000000000E+00  0.94958300849E+02  0.94958300849E+02  0.00000000000E+00 0. -1.
          1   -1    0    0  502    0  0.00000000000E+00 -0.00000000000E+00 -0.19596354731E+04  0.19596354731E+04  0.00000000000E+00 0.  1.
    9000007    2    1    2  502    0 -0.63280680470E+02 -0.34916923668E+02 -0.12732111775E+04  0.13369199908E+04  0.40132869724E+03 0.  0.
    9000005    1    3    3    0    0  0.86802157182E+02 -0.69409063557E+02 -0.88049587710E+02  0.14179549529E+03  0.99999687468E+00 0.  0.
          4    1    3    3  502    0 -0.15008283765E+03  0.34492139889E+02 -0.11851615898E+04  0.11951244955E+04  0.00000000000E+00 0.  1.
   -9000007    1    1    2    0  501  0.63280680470E+02  0.34916923668E+02 -0.59146599483E+03  0.71767378322E+03  0.40000000000E+03 0. -1.
<mgrwt>
<rscale>  2 0.40713038E+03</rscale>
<asrwt>0</asrwt>
<pdfrwt beam="1">  1        1 0.30148236E+00 0.40713038E+03</pdfrwt>
<pdfrwt beam="2">  1       -1 0.14608970E-01 0.40713038E+03</pdfrwt>
<totfact> 0.11723703E+02</totfact>
</mgrwt>
</event>
<event>
 6    1  0.8938744E-004  0.4229340E+03  0.7818608E-02  0.1036116E+00
          4   -1    0    0  502    0  0.00000000000E+00  0.00000000000E+00  0.44434631456E+03  0.44434631456E+03  0.00000000000E+00 0. -1.
         -4   -1    0    0    0  501 -0.00000000000E+00 -0.00000000000E+00 -0.40813546434E+03  0.40813546434E+03  0.00000000000E+00 0.  1.
    9000007    2    1    2  502    0 -0.13692505476E+03  0.65134280678E+01 -0.31738238343E+02  0.42422020696E+03  0.40020566319E+03 0.  0.
    9000005    1    3    3    0    0  0.51889907151E+02 -0.11548621637E+03  0.10205179468E+03  0.16261979408E+03  0.99999687468E+00 0.  0.
          4    1    3    3  502    0 -0.18881496191E+03  0.12199964443E+03 -0.13379003302E+03  0.26160041288E+03  0.00000000000E+00 0.  1.
   -9000007    1    1    2    0  501  0.13692505476E+03 -0.65134280678E+01  0.67949088556E+02  0.42826157194E+03  0.40000000000E+03 0.  1.
<mgrwt>
<rscale>  2 0.42293399E+03</rscale>
<asrwt>0</asrwt>
<pdfrwt beam="1">  1        4 0.68360972E-01 0.42293399E+03</pdfrwt>
<pdfrwt beam="2">  1       -4 0.62790071E-01 0.42293399E+03</pdfrwt>
<totfact> 0.90375296E+00</totfact>
</mgrwt>
</event>
<event>
 6    1  0.8938744E-004  0.4586703E+03  0.7818608E-02  0.1025168E+00
         -1   -1    0    0    0  501 -0.00000000000E+00  0.00000000000E+00  0.80971127865E+02  0.80971127865E+02  0.00000000000E+00 0. -1.
          1   -1    0    0  502    0  0.00000000000E+00 -0.00000000000E+00 -0.25995639315E+04  0.25995639315E+04  0.00000000000E+00 0.  1.
    9000007    2    1    2  502    0 -0.68349302510E+02  0.21346506357E+03 -0.12905083763E+04  0.13696459255E+04  0.40034876236E+03 0.  0.
    9000005    1    3    3    0    0 -0.17402405406E+03 -0.40156991667E+02 -0.61468632820E+03  0.64010720777E+03  0.99999687468E+00 0.  0.
          4    1    3    3  502    0  0.10567475155E+03  0.25362205524E+03 -0.67582204807E+03  0.72953871773E+03  0.00000000000E+00 0.  1.
   -9000007    1    1    2    0  501  0.68349302510E+02 -0.21346506357E+03 -0.12280844273E+04  0.13108891338E+04  0.40000000000E+03 0. -1.
<mgrwt>
<rscale>  2 0.45867034E+03</rscale>
<asrwt>0</asrwt>
<pdfrwt beam="1">  1        1 0.39993290E+00 0.45867034E+03</pdfrwt>
<pdfrwt beam="2">  1       -1 0.12457097E-01 0.45867034E+03</pdfrwt>
<totfact> 0.56141642E+01</totfact>
</mgrwt>
</event>
<event>
 6    1  0.8938744E-004  0.4412183E+03  0.7818608E-02  0.1030374E+00
          2   -1    0    0  502    0  0.00000000000E+00  0.00000000000E+00  0.81320611906E+03  0.81320611906E+03  0.00000000000E+00 0.  1.
         -2   -1    0    0    0  501 -0.00000000000E+00 -0.00000000000E+00 -0.28403600006E+03  0.28403600006E+03  0.00000000000E+00 0. -1.
    9000007    2    1    2  502    0 -0.34354600734E+02 -0.18256795636E+03  0.47169709496E+02  0.44391548409E+03  0.40040564212E+03 0.  0.
    9000005    1    3    3    0    0 -0.27907877394E+02 -0.15448769370E+03 -0.16619177236E+03  0.22861758970E+03  0.99999687468E+00 0.  0.
          4    1    3    3  502    0 -0.64467233401E+01 -0.28080262664E+02  0.21336148185E+03  0.21529789440E+03  0.00000000000E+00 0.  1.
   -9000007    1    1    2    0  501  0.34354600734E+02  0.18256795636E+03  0.48200040950E+03  0.65332663503E+03  0.40000000000E+03 0.  1.
<mgrwt>
<rscale>  2 0.44121828E+03</rscale>
<asrwt>0</asrwt>
<pdfrwt beam="1">  1        2 0.12510863E+00 0.44121828E+03</pdfrwt>
<pdfrwt beam="2">  1       -2 0.43697846E-01 0.44121828E+03</pdfrwt>
<totfact> 0.17281808E+02</totfact>
</mgrwt>
</event>
<event>
 6    1  0.8938744E-004  0.4084597E+03  0.7818608E-02  0.1040889E+00
          1   -1    0    0  502    0  0.00000000000E+00  0.00000000000E+00  0.98443741518E+03  0.98443741518E+03  0.00000000000E+00 0.  1.
         -1   -1    0    0    0  501 -0.00000000000E+00 -0.00000000000E+00 -0.17044029899E+03  0.17044029899E+03  0.00000000000E+00 0. -1.
    9000007    2    1    2  502    0 -0.53074770823E+02 -0.63729120926E+02  0.36353684696E+03  0.54677181360E+03  0.39990254426E+03 0.  0.
    9000005    1    3    3    0    0 -0.11095588555E+03 -0.12509648859E+03 -0.63998762590E+01  0.16733887297E+03  0.99999687468E+00 0.  0.
          4    1    3    3  502    0  0.57881114726E+02  0.61367367666E+02  0.36993672321E+03  0.37943294064E+03  0.00000000000E+00 0.  1.
   -9000007    1    1    2    0  501  0.53074770823E+02  0.63729120926E+02  0.45046026923E+03  0.60810590057E+03  0.40000000000E+03 0.  1.
<mgrwt>
<rscale>  2 0.40845973E+03</rscale>
<asrwt>0</asrwt>
<pdfrwt beam="1">  1        1 0.15145191E+00 0.40845973E+03</pdfrwt>
<pdfrwt beam="2">  1       -1 0.26221585E-01 0.40845973E+03</pdfrwt>
<totfact> 0.20923503E+02</totfact>
</mgrwt>
</event>
<event>
 6    1  0.8938744E-004  0.4044024E+03  0.7818608E-02  0.1042266E+00
          2   -1    0    0  502    0  0.00000000000E+00  0.00000000000E+00  0.19672727282E+04  0.19672727282E+04  0.00000000000E+00 0.  1.
         -2   -1    0    0    0  501 -0.00000000000E+00 -0.00000000000E+00 -0.85020372679E+02  0.85020372679E+02  0.00000000000E+00 0. -1.
    9000007    2    1    2  502    0  0.51321664226E+02  0.26970835692E+02  0.10946024751E+04  0.11669944658E+04  0.40044995374E+03 0.  0.
    9000005    1    3    3    0    0  0.78164565093E+02 -0.17981867078E+03  0.53702115206E+03  0.57169674772E+03  0.99999687468E+00 0.  0.
          4    1    3    3  502    0 -0.26842900866E+02  0.20678950647E+03  0.55758132303E+03  0.59529771804E+03  0.00000000000E+00 0.  1.
   -9000007    1    1    2    0  501 -0.51321664226E+02 -0.26970835692E+02  0.78764988043E+03  0.88529863512E+03  0.40000000000E+03 0. -1.
<mgrwt>
<rscale>  2 0.40440243E+03</rscale>
<asrwt>0</asrwt>
<pdfrwt beam="1">  1        2 0.30265731E+00 0.40440243E+03</pdfrwt>
<pdfrwt beam="2">  1       -2 0.13080059E-01 0.40440243E+03</pdfrwt>
<totfact> 0.32567063E+02</totfact>
</mgrwt>
</event>
<event>
 6    1  0.8938744E-004  0.4021753E+03  0.7818608E-02  0.1043029E+00
         -2   -1    0    0    0  501 -0.00000000000E+00  0.00000000000E+00  0.30158323081E+03  0.30158323081E+03  0.00000000000E+00 0. -1.
          2   -1    0    0  502    0  0.00000000000E+00 -0.00000000000E+00 -0.53664962505E+03  0.53664962505E+03  0.00000000000E+00 0.  1.
    9000007    2    1    2  502    0  0.71702005265E+00  0.45539946293E+02 -0.10702938492E+03  0.41577827063E+03  0.39917650265E+03 0.  0.
    9000005    1    3    3    0    0  0.95841370138E+02  0.19209819105E+03 -0.77543363838E+01  0.21482181677E+03  0.99999687468E+00 0.  0.
          4    1    3    3  502    0 -0.95124350086E+02 -0.14655824476E+03 -0.99275048533E+02  0.20095645386E+03  0.00000000000E+00 0.  1.
   -9000007    1    1    2    0  501 -0.71702005265E+00 -0.45539946293E+02 -0.12803700932E+03  0.42245458523E+03  0.40000000000E+03 0. -1.
<mgrwt>
<rscale>  2 0.40217534E+03</rscale>
<asrwt>0</asrwt>
<pdfrwt beam="1">  1        2 0.82561481E-01 0.40217534E+03</pdfrwt>
<pdfrwt beam="2">  1       -2 0.46397420E-01 0.40217534E+03</pdfrwt>
<totfact> 0.25589002E+02</totfact>
</mgrwt>
</event>
<event>
 6    1  0.8938744E-004  0.5142282E+03  0.7818608E-02  0.1010130E+00
          2   -1    0    0  502    0  0.00000000000E+00  0.00000000000E+00  0.85893535260E+03  0.85893535260E+03  0.00000000000E+00 0.  1.
         -2   -1    0    0    0  501 -0.00000000000E+00 -0.00000000000E+00 -0.76635843426E+03  0.76635843426E+03  0.00000000000E+00 0. -1.
    9000007    2    1    2  502    0 -0.32270297747E+03 -0.91906278386E+01  0.67486839398E+03  0.84857952671E+03  0.40052238971E+03 0.  0.
    9000005    1    3    3    0    0 -0.82125339533E+02 -0.17981016517E+03  0.39638214160E+03  0.44294025451E+03  0.99999687468E+00 0.  0.
          4    1    3    3  502    0 -0.24057763793E+03  0.17061953733E+03  0.27848625238E+03  0.40563927221E+03  0.00000000000E+00 0.  1.
   -9000007    1    1    2    0  501  0.32270297747E+03  0.91906278386E+01 -0.58229147564E+03  0.77671426015E+03  0.40000000000E+03 0. -1.
<mgrwt>
<rscale>  2 0.51422825E+03</rscale>
<asrwt>0</asrwt>
<pdfrwt beam="1">  1        2 0.13214390E+00 0.51422825E+03</pdfrwt>
<pdfrwt beam="2">  1       -2 0.11790130E+00 0.51422825E+03</pdfrwt>
<totfact> 0.18137876E+01</totfact>
</mgrwt>
</event>
<event>
 6    1  0.8938744E-004  0.6110364E+03  0.7818608E-02  0.9882770E-01
         -4   -1    0    0    0  501 -0.00000000000E+00  0.00000000000E+00  0.70887109508E+03  0.70887109508E+03  0.00000000000E+00 0.  1.
          4   -1    0    0  502    0  0.00000000000E+00 -0.00000000000E+00 -0.65052940326E+03  0.65052940326E+03  0.00000000000E+00 0. -1.
    9000007    2    1    2  502    0 -0.12189924791E+03  0.44558999122E+03 -0.26737400494E+03  0.66694069298E+03  0.39988893773E+03 0.  0.
    9000005    1    3    3    0    0  0.12634075074E+03  0.18502558830E+03 -0.20098110264E+03  0.30098315108E+03  0.99999687468E+00 0.  0.
          4    1    3    3  502    0 -0.24823999865E+03  0.26056440292E+03 -0.66392902305E+02  0.36595754190E+03  0.00000000000E+00 0.  1.
   -9000007    1    1    2    0  501  0.12189924791E+03 -0.44558999122E+03  0.32571569676E+03  0.69245980535E+03  0.40000000000E+03 0.  1.
<mgrwt>
<rscale>  2 0.61103637E+03</rscale>
<asrwt>0</asrwt>
<pdfrwt beam="1">  1        4 0.10008145E+00 0.61103637E+03</pdfrwt>
<pdfrwt beam="2">  1       -4 0.10905709E+00 0.61103637E+03</pdfrwt>
<totfact> 0.10790716E+00</totfact>
</mgrwt>
</event>
<event>
 6    1  0.8938744E-004  0.4904915E+03  0.7818608E-02  0.1016291E+00
         -1   -1    0    0    0  501 -0.00000000000E+00  0.00000000000E+00  0.38190773077E+03  0.38190773077E+03  0.00000000000E+00 0.  1.
          1   -1    0    0  502    0  0.00000000000E+00 -0.00000000000E+00 -0.64428469484E+03  0.64428469484E+03  0.00000000000E+00 0. -1.
    9000007    2    1    2  502    0 -0.18431503180E+03  0.21529655354E+03 -0.54717546699E+02  0.49379495140E+03  0.40064299220E+03 0.  0.
    9000005    1    3    3    0    0  0.10005716565E+03  0.11932091201E+03  0.67512176669E+02  0.16972863763E+03  0.99999687468E+00 0.  0.
          4    1    3    3  502    0 -0.28437219744E+03  0.95975641534E+02 -0.12222972337E+03  0.32406631377E+03  0.00000000000E+00 0.  1.
   -9000007    1    1    2    0  501  0.18431503180E+03 -0.21529655354E+03 -0.20765941737E+03  0.53239747420E+03  0.40000000000E+03 0.  1.
<mgrwt>
<rscale>  2 0.49049149E+03</rscale>
<asrwt>0</asrwt>
<pdfrwt beam="1">  1        1 0.99120722E-01 0.49049149E+03</pdfrwt>
<pdfrwt beam="2">  1       -1 0.58755036E-01 0.49049149E+03</pdfrwt>
<totfact> 0.94443750E+01</totfact>
</mgrwt>
</event>
<event>
 6    1  0.8938744E-004  0.4481886E+03  0.7818608E-02  0.1028264E+00
          2   -1    0    0  502    0  0.00000000000E+00  0.00000000000E+00  0.24765906095E+04  0.24765906095E+04  0.00000000000E+00 0.  1.
         -2   -1    0    0    0  501 -0.00000000000E+00 -0.00000000000E+00 -0.15206691733E+03  0.15206691733E+03  0.00000000000E+00 0. -1.
    9000007    2    1    2  502    0 -0.19748039594E+03  0.31209097883E+02  0.26584085834E+03  0.52196639501E+03  0.40224997326E+03 0.  0.
    9000005    1    3    3    0    0 -0.29724976842E+03  0.11387867772E+03  0.17054571166E+03  0.36112687221E+03  0.99999687468E+00 0.  0.
          4    1    3    3  502    0  0.99769372483E+02 -0.82669579840E+02  0.95295146678E+02  0.16083952281E+03  0.00000000000E+00 0.  1.
   -9000007    1    1    2    0  501  0.19748039594E+03 -0.31209097883E+02  0.20586828338E+04  0.21066911318E+04  0.40000000000E+03 0. -1.
<mgrwt>
<rscale>  2 0.44818858E+03</rscale>
<asrwt>0</asrwt>
<pdfrwt beam="1">  1        2 0.38101391E+00 0.44818858E+03</pdfrwt>
<pdfrwt beam="2">  1       -2 0.23394912E-01 0.44818858E+03</pdfrwt>
<totfact> 0.63397701E+01</totfact>
</mgrwt>
</event>
<event>
 6    1  0.8938744E-004  0.4433276E+03  0.7818608E-02  0.1029731E+00
         -2   -1    0    0    0  501 -0.00000000000E+00  0.00000000000E+00  0.10751654386E+03  0.10751654386E+03  0.00000000000E+00 0.  1.
          2   -1    0    0  502    0  0.00000000000E+00 -0.00000000000E+00 -0.19286847260E+04  0.19286847260E+04  0.00000000000E+00 0. -1.
    9000007    2    1    2  502    0 -0.16367533445E+03  0.97198405572E+02 -0.11438731674E+04  0.12269017690E+04  0.40075551453E+03 0.  0.
    9000005    1    3    3    0    0 -0.10829782436E+03 -0.24456328014E+02 -0.10668907438E+04  0.10726525020E+04  0.99999687468E+00 0.  0.
          4    1    3    3  502    0 -0.55377510094E+02  0.12165473359E+03 -0.76982423591E+02  0.15424926700E+03  0.00000000000E+00 0.  1.
   -9000007    1    1    2    0  501  0.16367533445E+03 -0.97198405572E+02 -0.67729501474E+03  0.80929950089E+03  0.40000000000E+03 0.  1.
<mgrwt>
<rscale>  2 0.44332765E+03</rscale>
<asrwt>0</asrwt>
<pdfrwt beam="1">  1        2 0.29672070E+00 0.44332765E+03</pdfrwt>
<pdfrwt beam="2">  1       -2 0.16541008E-01 0.44332765E+03</pdfrwt>
<totfact> 0.22944351E+02</totfact>
</mgrwt>
</event>
<event>
 6    1  0.8938744E-004  0.4251097E+03  0.7818608E-02  0.1035416E+00
          2   -1    0    0  502    0  0.00000000000E+00  0.00000000000E+00  0.14753047159E+04  0.14753047159E+04  0.00000000000E+00 0. -1.
         -2   -1    0    0    0  501 -0.00000000000E+00 -0.00000000000E+00 -0.12699253119E+03  0.12699253119E+03  0.00000000000E+00 0.  1.
    9000007    2    1    2  502    0 -0.12686899117E+03  0.66960562544E+02  0.82516495849E+03  0.92830727821E+03  0.40034701972E+03 0.  0.
    9000005    1    3    3    0    0 -0.22259375173E+03  0.17318703315E+03  0.53248152378E+03  0.60256061930E+03  0.99999687468E+00 0.  0.
          4    1    3    3  502    0  0.95724760559E+02 -0.10622647061E+03  0.29268343471E+03  0.32574665892E+03  0.00000000000E+00 0.  1.
   -9000007    1    1    2    0  501  0.12686899117E+03 -0.66960562544E+02  0.52314722621E+03  0.67398996888E+03  0.40000000000E+03 0.  1.
<mgrwt>
<rscale>  2 0.42510972E+03</rscale>
<asrwt>0</asrwt>
<pdfrwt beam="1">  1        2 0.22696994E+00 0.42510972E+03</pdfrwt>
<pdfrwt beam="2">  1       -2 0.19537314E-01 0.42510972E+03</pdfrwt>
<totfact> 0.30349233E+02</totfact>
</mgrwt>
</event>
<event>
 6    1  0.8938744E-004  0.4049838E+03  0.7818608E-02  0.1042067E+00
         -2   -1    0    0    0  501 -0.00000000000E+00  0.00000000000E+00  0.12270358655E+04  0.12270358655E+04  0.00000000000E+00 0.  1.
          2   -1    0    0  502    0  0.00000000000E+00 -0.00000000000E+00 -0.14336133993E+03  0.14336133993E+03  0.00000000000E+00 0. -1.
    9000007    2    1    2  502    0  0.41506808668E+02 -0.43892666636E+02  0.72059203469E+03  0.82681806996E+03  0.40090629704E+03 0.  0.
    9000005    1    3    3    0    0 -0.45005527880E+02 -0.14701927442E+03  0.82123842544E+02  0.17431434278E+03  0.99999687468E+00 0.  0.
          4    1    3    3  502    0  0.86512336548E+02  0.10312660778E+03  0.63846819214E+03  0.65250372718E+03  0.00000000000E+00 0.  1.
   -9000007    1    1    2    0  501 -0.41506808668E+02  0.43892666636E+02  0.36308249092E+03  0.54357913551E+03  0.40000000000E+03 0. -1.
<mgrwt>
<rscale>  2 0.40498384E+03</rscale>
<asrwt>0</asrwt>
<pdfrwt beam="1">  1        2 0.22055592E-01 0.40498384E+03</pdfrwt>
<pdfrwt beam="2">  1       -2 0.18877474E+00 0.40498384E+03</pdfrwt>
<totfact> 0.41736596E+01</totfact>
</mgrwt>
</event>
<event>
 6    1  0.8938744E-004  0.4733811E+03  0.7818608E-02  0.1020970E+00
          2   -1    0    0  502    0  0.00000000000E+00  0.00000000000E+00  0.54189122816E+03  0.54189122816E+03  0.00000000000E+00 0.  1.
         -2   -1    0    0    0  501 -0.00000000000E+00 -0.00000000000E+00 -0.43398948030E+03  0.43398948030E+03  0.00000000000E+00 0. -1.
    9000007    2    1    2  502    0  0.24544108604E+03 -0.62351837348E+02  0.15988325447E+03  0.49961276354E+03  0.39990146298E+03 0.  0.
    9000005    1    3    3    0    0  0.21714814324E+03 -0.12685634531E+03 -0.68469689055E+02  0.26064333249E+03  0.99999687468E+00 0.  0.
          4    1    3    3  502    0  0.28292942795E+02  0.64504507961E+02  0.22835294352E+03  0.23896943105E+03  0.00000000000E+00 0.  1.
   -9000007    1    1    2    0  501 -0.24544108604E+03  0.62351837348E+02 -0.51981506608E+02  0.47626794493E+03  0.40000000000E+03 0. -1.
<mgrwt>
<rscale>  2 0.47338110E+03</rscale>
<asrwt>0</asrwt>
<pdfrwt beam="1">  1        2 0.83367881E-01 0.47338110E+03</pdfrwt>
<pdfrwt beam="2">  1       -2 0.66767612E-01 0.47338110E+03</pdfrwt>
<totfact> 0.11877581E+02</totfact>
</mgrwt>
</event>
<event>
 6    1  0.8938744E-004  0.4861632E+03  0.7818608E-02  0.1017455E+00
         -1   -1    0    0    0  501 -0.00000000000E+00  0.00000000000E+00  0.29445914322E+03  0.29445914322E+03  0.00000000000E+00 0. -1.
          1   -1    0    0  502    0  0.00000000000E+00 -0.00000000000E+00 -0.14267281154E+04  0.14267281154E+04  0.00000000000E+00 0.  1.
    9000007    2    1    2  502    0  0.44716401113E+02 -0.27340813374E+03 -0.11350325787E+04  0.12346081781E+04  0.39900731139E+03 0.  0.
    9000005    1    3    3    0    0 -0.11293767990E+03  0.70212786553E+01 -0.10096978156E+03  0.15165788696E+03  0.99999687468E+00 0.  0.
          4    1    3    3  502    0  0.15765408102E+03 -0.28042941240E+03 -0.10340627971E+04  0.10829502911E+04  0.00000000000E+00 0.  1.
   -9000007    1    1    2    0  501 -0.44716401113E+02  0.27340813374E+03  0.27636064880E+01  0.48657908057E+03  0.40000000000E+03 0. -1.
<mgrwt>
<rscale>  2 0.48616319E+03</rscale>
<asrwt>0</asrwt>
<pdfrwt beam="1">  1        1 0.21949663E+00 0.48616319E+03</pdfrwt>
<pdfrwt beam="2">  1       -1 0.45301407E-01 0.48616319E+03</pdfrwt>
<totfact> 0.38055304E+01</totfact>
</mgrwt>
</event>
<event>
 6    1  0.8938744E-004  0.4789148E+03  0.7818608E-02  0.1019434E+00
         -2   -1    0    0    0  501 -0.00000000000E+00  0.00000000000E+00  0.63890687970E+03  0.63890687970E+03  0.00000000000E+00 0.  1.
          2   -1    0    0  502    0  0.00000000000E+00 -0.00000000000E+00 -0.36758580753E+03  0.36758580753E+03  0.00000000000E+00 0. -1.
    9000007    2    1    2  502    0  0.24963189745E+03 -0.91294420929E+02  0.58332527888E+02  0.48112150843E+03  0.39676752204E+03 0.  0.
    9000005    1    3    3    0    0  0.30910098320E+03 -0.15152813595E+03  0.13222020229E+03  0.36876466166E+03  0.99999687468E+00 0.  0.
          4    1    3    3  502    0 -0.59469085757E+02  0.60233715024E+02 -0.73887674404E+02  0.11235684677E+03  0.00000000000E+00 0.  1.
   -9000007    1    1    2    0  501 -0.24963189745E+03  0.91294420929E+02  0.21298854428E+03  0.52537117880E+03  0.40000000000E+03 0. -1.
<mgrwt>
<rscale>  2 0.47891479E+03</rscale>
<asrwt>0</asrwt>
<pdfrwt beam="1">  1        2 0.56551663E-01 0.47891479E+03</pdfrwt>
<pdfrwt beam="2">  1       -2 0.98293366E-01 0.47891479E+03</pdfrwt>
<totfact> 0.77369804E+01</totfact>
</mgrwt>
</event>
<event>
 6    1  0.8938744E-004  0.5163833E+03  0.7818608E-02  0.1009589E+00
         -2   -1    0    0    0  501 -0.00000000000E+00  0.00000000000E+00  0.29858797229E+03  0.29858797229E+03  0.00000000000E+00 0. -1.
          2   -1    0    0  502    0  0.00000000000E+00 -0.00000000000E+00 -0.89470778409E+03  0.89470778409E+03  0.00000000000E+00 0.  1.
    9000007    2    1    2  502    0  0.26170696295E+03 -0.19513675738E+03 -0.32384665625E+03  0.60959929437E+03  0.40020713936E+03 0.  0.
    9000005    1    3    3    0    0  0.27267034100E+03 -0.27285162573E+03 -0.14114856363E+03  0.41075666949E+03  0.99999687468E+00 0.  0.
          4    1    3    3  502    0 -0.10963378045E+02  0.77714868351E+02 -0.18269809262E+03  0.19884262487E+03  0.00000000000E+00 0.  1.
   -9000007    1    1    2    0  501 -0.26170696295E+03  0.19513675738E+03 -0.27227315555E+03  0.58369646202E+03  0.40000000000E+03 0.  1.
<mgrwt>
<rscale>  2 0.51638334E+03</rscale>
<asrwt>0</asrwt>
<pdfrwt beam="1">  1        2 0.13764735E+00 0.51638334E+03</pdfrwt>
<pdfrwt beam="2">  1       -2 0.45936612E-01 0.51638334E+03</pdfrwt>
<totfact> 0.13679666E+02</totfact>
</mgrwt>
</event>
<event>
 6    1  0.8938744E-004  0.5481296E+03  0.7818608E-02  0.1001928E+00
         -2   -1    0    0    0  501 -0.00000000000E+00  0.00000000000E+00  0.47840701439E+03  0.47840701439E+03  0.00000000000E+00 0.  1.
          2   -1    0    0  502    0  0.00000000000E+00 -0.00000000000E+00 -0.96443717734E+03  0.96443717734E+03  0.00000000000E+00 0. -1.
    9000007    2    1    2  502    0  0.28190159746E+03 -0.24683442827E+03 -0.66911285547E+03  0.86499038848E+03  0.40012574671E+03 0.  0.
    9000005    1    3    3    0    0 -0.44601534793E+02 -0.14024344393E+03 -0.40744242595E+03  0.43320647609E+03  0.99999687468E+00 0.  0.
          4    1    3    3  502    0  0.32650313225E+03 -0.10659098434E+03 -0.26167042952E+03  0.43178391239E+03  0.00000000000E+00 0.  1.
   -9000007    1    1    2    0  501 -0.28190159746E+03  0.24683442827E+03  0.18308269252E+03  0.57785380325E+03  0.40000000000E+03 0.  1.
<mgrwt>
<rscale>  2 0.54812959E+03</rscale>
<asrwt>0</asrwt>
<pdfrwt beam="1">  1        2 0.14837495E+00 0.54812959E+03</pdfrwt>
<pdfrwt beam="2">  1       -2 0.73601080E-01 0.54812959E+03</pdfrwt>
<totfact> 0.45833033E+01</totfact>
</mgrwt>
</event>
<event>
 6    1  0.8938744E-004  0.5948916E+03  0.7818608E-02  0.9916061E-01
         -2   -1    0    0    0  501 -0.00000000000E+00  0.00000000000E+00  0.22525060959E+03  0.22525060959E+03  0.00000000000E+00 0.  1.
          2   -1    0    0  502    0  0.00000000000E+00 -0.00000000000E+00 -0.17621008041E+04  0.17621008041E+04  0.00000000000E+00 0. -1.
    9000007    2    1    2  502    0  0.25122953534E+03  0.36165950867E+03 -0.44127627792E+03  0.74067740404E+03  0.39995547723E+03 0.  0.
    9000005    1    3    3    0    0  0.22194044569E+03  0.25107413898E+03 -0.57235059450E+02  0.33995975751E+03  0.99999687468E+00 0.  0.
          4    1    3    3  502    0  0.29289089651E+02  0.11058536969E+03 -0.38404121847E+03  0.40071764654E+03  0.00000000000E+00 0.  1.
   -9000007    1    1    2    0  501 -0.25122953534E+03 -0.36165950867E+03 -0.10955739166E+04  0.12466740097E+04  0.40000000000E+03 0.  1.
<mgrwt>
<rscale>  2 0.59489165E+03</rscale>
<asrwt>0</asrwt>
<pdfrwt beam="1">  1        2 0.27109242E+00 0.59489165E+03</pdfrwt>
<pdfrwt beam="2">  1       -2 0.34653941E-01 0.59489165E+03</pdfrwt>
<totfact> 0.73729182E+01</totfact>
</mgrwt>
</event>
<event>
 6    1  0.8938744E-004  0.5791770E+03  0.7818608E-02  0.9949574E-01
         -1   -1    0    0    0  501 -0.00000000000E+00  0.00000000000E+00  0.20992099484E+04  0.20992099484E+04  0.00000000000E+00 0.  1.
          1   -1    0    0  502    0  0.00000000000E+00 -0.00000000000E+00 -0.22010887443E+03  0.22010887443E+03  0.00000000000E+00 0. -1.
    9000007    2    1    2  502    0  0.41564740676E+03 -0.50656395417E+02  0.33263204217E+03  0.66798744983E+03  0.40029279348E+03 0.  0.
    9000005    1    3    3    0    0  0.23287296656E+03 -0.20430462860E+03  0.29211783675E+03  0.42579810986E+03  0.99999687468E+00 0.  0.
          4    1    3    3  502    0  0.18277444020E+03  0.15364823319E+03  0.40514205421E+02  0.24218933997E+03  0.00000000000E+00 0.  1.
   -9000007    1    1    2    0  501 -0.41564740676E+03  0.50656395417E+02  0.15464690318E+04  0.16513313730E+04  0.40000000000E+03 0.  1.
<mgrwt>
<rscale>  2 0.57917698E+03</rscale>
<asrwt>0</asrwt>
<pdfrwt beam="1">  1        1 0.33862905E-01 0.57917698E+03</pdfrwt>
<pdfrwt beam="2">  1       -1 0.32295536E+00 0.57917698E+03</pdfrwt>
<totfact> 0.33253330E+00</totfact>
</mgrwt>
</event>
<event>
 6    1  0.8938744E-004  0.6092318E+03  0.7818608E-02  0.9886436E-01
         -2   -1    0    0    0  501 -0.00000000000E+00  0.00000000000E+00  0.10407634377E+03  0.10407634377E+03  0.00000000000E+00 0. -1.
          2   -1    0    0  502    0  0.00000000000E+00 -0.00000000000E+00 -0.43701899753E+04  0.43701899753E+04  0.00000000000E+00 0.  1.
    9000007    2    1    2  502    0 -0.44705843552E+03 -0.10552905320E+03 -0.11739329216E+04  0.13226668571E+04  0.40041414138E+03 0.  0.
    9000005    1    3    3    0    0 -0.41906414197E+03 -0.22624594250E+03 -0.10146591317E+04  0.11208640127E+04  0.99999687468E+00 0.  0.
          4    1    3    3  502    0 -0.27994293549E+02  0.12071688930E+03 -0.15927378995E+03  0.20180284438E+03  0.00000000000E+00 0.  1.
   -9000007    1    1    2    0  501  0.44705843552E+03  0.10552905320E+03 -0.30921807099E+04  0.31515994620E+04  0.40000000000E+03 0.  1.
<mgrwt>
<rscale>  2 0.60923175E+03</rscale>
<asrwt>0</asrwt>
<pdfrwt beam="1">  1        2 0.67233692E+00 0.60923175E+03</pdfrwt>
<pdfrwt beam="2">  1       -2 0.16011745E-01 0.60923175E+03</pdfrwt>
<totfact> 0.59673496E+00</totfact>
</mgrwt>
</event>
<event>
 6    1  0.8938744E-004  0.4764313E+03  0.7818608E-02  0.1020121E+00
         -1   -1    0    0    0  501 -0.00000000000E+00  0.00000000000E+00  0.97097740727E+03  0.97097740727E+03  0.00000000000E+00 0.  1.
          1   -1    0    0  502    0  0.00000000000E+00 -0.00000000000E+00 -0.26132702672E+03  0.26132702672E+03  0.00000000000E+00 0. -1.
    9000007    2    1    2  502    0  0.22155445438E+03 -0.13305964952E+03  0.55504045847E+03  0.73160944241E+03  0.40048872531E+03 0.  0.
    9000005    1    3    3    0    0  0.37693044513E+02  0.12972880721E+03  0.75676929906E+02  0.15484936790E+03  0.99999687468E+00 0.  0.
          4    1    3    3  502    0  0.18386140987E+03 -0.26278845674E+03  0.47936352857E+03  0.57676007451E+03  0.00000000000E+00 0.  1.
   -9000007    1    1    2    0  501 -0.22155445438E+03  0.13305964952E+03  0.15460992208E+03  0.50069499158E+03  0.40000000000E+03 0. -1.
<mgrwt>
<rscale>  2 0.47643129E+03</rscale>
<asrwt>0</asrwt>
<pdfrwt beam="1">  1        1 0.40204158E-01 0.47643129E+03</pdfrwt>
<pdfrwt beam="2">  1       -1 0.14938114E+00 0.47643129E+03</pdfrwt>
<totfact> 0.38920934E+01</totfact>
</mgrwt>
</event>
<event>
 6    1  0.8938744E-004  0.7065725E+03  0.7818608E-02  0.9706058E-01
          2   -1    0    0  502    0  0.00000000000E+00  0.00000000000E+00  0.15076034268E+04  0.15076034268E+04  0.00000000000E+00 0. -1.
         -2   -1    0    0    0  501 -0.00000000000E+00 -0.00000000000E+00 -0.41137736291E+03  0.41137736291E+03  0.00000000000E+00 0.  1.
    9000007    2    1    2  502    0  0.37928020556E+03  0.43964278556E+03  0.97276018606E+03  0.12031714043E+04  0.40524041681E+03 0.  0.
    9000005    1    3    3    0    0  0.46325645170E+03  0.41045566963E+03  0.86046064201E+03  0.10599405234E+04  0.99999687468E+00 0.  0.
          4    1    3    3  502    0 -0.83976246139E+02  0.29187115930E+02  0.11229954405E+03  0.14323088091E+03  0.00000000000E+00 0.  1.
   -9000007    1    1    2    0  501 -0.37928020556E+03 -0.43964278556E+03  0.12346587786E+03  0.71580938539E+03  0.40000000000E+03 0.  1.
<mgrwt>
<rscale>  2 0.70657250E+03</rscale>
<asrwt>0</asrwt>
<pdfrwt beam="1">  1        2 0.23193899E+00 0.70657250E+03</pdfrwt>
<pdfrwt beam="2">  1       -2 0.63288826E-01 0.70657250E+03</pdfrwt>
<totfact> 0.29890398E+01</totfact>
</mgrwt>
</event>
<event>
 6    1  0.8938744E-004  0.6733426E+03  0.7818608E-02  0.9763938E-01
         -1   -1    0    0    0  501 -0.00000000000E+00  0.00000000000E+00  0.15909635446E+04  0.15909635446E+04  0.00000000000E+00 0. -1.
          1   -1    0    0  502    0  0.00000000000E+00 -0.00000000000E+00 -0.30737725398E+03  0.30737725398E+03  0.00000000000E+00 0.  1.
    9000007    2    1    2  502    0  0.53137900087E+03  0.10261354965E+03  0.89834362809E+03  0.11229021536E+04  0.40124155967E+03 0.  0.
    9000005    1    3    3    0    0  0.45006570366E+03  0.23156972278E+03  0.78034250191E+03  0.93011778523E+03  0.99999687468E+00 0.  0.
          4    1    3    3  502    0  0.81313297203E+02 -0.12895617313E+03  0.11800112618E+03  0.19278436833E+03  0.00000000000E+00 0.  1.
   -9000007    1    1    2    0  501 -0.53137900087E+03 -0.10261354965E+03  0.38524266252E+03  0.77543864500E+03  0.40000000000E+03 0.  1.
<mgrwt>
<rscale>  2 0.67334264E+03</rscale>
<asrwt>0</asrwt>
<pdfrwt beam="1">  1        1 0.47288809E-01 0.67334264E+03</pdfrwt>
<pdfrwt beam="2">  1       -1 0.24476362E+00 0.67334264E+03</pdfrwt>
<totfact> 0.67166598E+00</totfact>
</mgrwt>
</event>
<event>
 6    1  0.8938744E-004  0.4931669E+03  0.7818608E-02  0.1015578E+00
          2   -1    0    0  502    0  0.00000000000E+00  0.00000000000E+00  0.22905779418E+04  0.22905779418E+04  0.00000000000E+00 0.  1.
         -2   -1    0    0    0  501 -0.00000000000E+00 -0.00000000000E+00 -0.11204871638E+03  0.11204871638E+03  0.00000000000E+00 0. -1.
    9000007    2    1    2  502    0 -0.44791818665E+02  0.28337475758E+03  0.81626843203E+03  0.95415780125E+03  0.40226284481E+03 0.  0.
    9000005    1    3    3    0    0  0.33207722870E+02  0.43301059960E+02 -0.35941329278E+02  0.65349168288E+02  0.99999687468E+00 0.  0.
          4    1    3    3  502    0 -0.77999541535E+02  0.24007369762E+03  0.85220976130E+03  0.88880863296E+03  0.00000000000E+00 0.  1.
   -9000007    1    1    2    0  501  0.44791818665E+02 -0.28337475758E+03  0.13622607934E+04  0.14484688569E+04  0.40000000000E+03 0.  1.
<mgrwt>
<rscale>  2 0.49316687E+03</rscale>
<asrwt>0</asrwt>
<pdfrwt beam="1">  1        2 0.35239657E+00 0.49316687E+03</pdfrwt>
<pdfrwt beam="2">  1       -2 0.17238266E-01 0.49316687E+03</pdfrwt>
<totfact> 0.13532085E+02</totfact>
</mgrwt>
</event>
<event>
 6    1  0.8938744E-004  0.7710763E+03  0.7818608E-02  0.9602853E-01
         -2   -1    0    0    0  501 -0.00000000000E+00  0.00000000000E+00  0.29443592169E+03  0.29443592169E+03  0.00000000000E+00 0.  1.
          2   -1    0    0  502    0  0.00000000000E+00 -0.00000000000E+00 -0.20988200141E+04  0.20988200141E+04  0.00000000000E+00 0. -1.
    9000007    2    1    2  502    0 -0.53158331270E+03  0.38913511785E+03 -0.11354951699E+04  0.13727563772E+04  0.40137741859E+03 0.  0.
    9000005    1    3    3    0    0  0.67025861069E+02  0.46767830457E+02 -0.12719572405E+03  0.15119341331E+03  0.99999687468E+00 0.  0.
          4    1    3    3  502    0 -0.59860917376E+03  0.34236728739E+03 -0.10082994458E+04  0.12215629639E+04  0.00000000000E+00 0.  1.
   -9000007    1    1    2    0  501  0.53158331270E+03 -0.38913511785E+03 -0.66888892250E+03  0.10204995585E+04  0.40000000000E+03 0. -1.
<mgrwt>
<rscale>  2 0.77107627E+03</rscale>
<asrwt>0</asrwt>
<pdfrwt beam="1">  1        2 0.32289537E+00 0.77107627E+03</pdfrwt>
<pdfrwt beam="2">  1       -2 0.45297836E-01 0.77107627E+03</pdfrwt>
<totfact> 0.28067492E+01</totfact>
</mgrwt>
</event>
<event>
 6    1  0.8938744E-004  0.4723825E+03  0.7818608E-02  0.1021250E+00
          1   -1    0    0  502    0  0.00000000000E+00  0.00000000000E+00  0.54802395704E+03  0.54802395704E+03  0.00000000000E+00 0.  1.
         -1   -1    0    0    0  501 -0.00000000000E+00 -0.00000000000E+00 -0.46305634774E+03  0.46305634774E+03  0.00000000000E+00 0. -1.
    9000007    2    1    2  502    0  0.18397502564E+03 -0.17046408505E+03 -0.13310477670E+03  0.49102225044E+03  0.40060099162E+03 0.  0.
    9000005    1    3    3    0    0  0.15225842581E+00 -0.78940957663E+02  0.13314062603E+03  0.15478735179E+03  0.99999687468E+00 0.  0.
          4    1    3    3  502    0  0.18382276721E+03 -0.91523127391E+02 -0.26624540273E+03  0.33623489865E+03  0.00000000000E+00 0.  1.
   -9000007    1    1    2    0  501 -0.18397502564E+03  0.17046408505E+03  0.21807238600E+03  0.52005805434E+03  0.40000000000E+03 0.  1.
<mgrwt>
<rscale>  2 0.47238254E+03</rscale>
<asrwt>0</asrwt>
<pdfrwt beam="1">  1        1 0.84311378E-01 0.47238254E+03</pdfrwt>
<pdfrwt beam="2">  1       -1 0.71239438E-01 0.47238254E+03</pdfrwt>
<totfact> 0.81122127E+01</totfact>
</mgrwt>
</event>
<event>
 6    1  0.8938744E-004  0.4002265E+03  0.7818608E-02  0.1043701E+00
         -1   -1    0    0    0  501 -0.00000000000E+00  0.00000000000E+00  0.10074363226E+03  0.10074363226E+03  0.00000000000E+00 0.  1.
          1   -1    0    0  502    0  0.00000000000E+00 -0.00000000000E+00 -0.18876616196E+04  0.18876616196E+04  0.00000000000E+00 0. -1.
    9000007    2    1    2  502    0  0.18516299023E+02  0.32987400675E+01 -0.49824981294E+03  0.63895373411E+03  0.39956884667E+03 0.  0.
    9000005    1    3    3    0    0  0.10515616837E+01  0.12887943043E+03 -0.49565429882E+03  0.51213786943E+03  0.99999687468E+00 0.  0.
          4    1    3    3  502    0  0.17464737340E+02 -0.12558069037E+03 -0.25955141184E+01  0.12681586469E+03  0.00000000000E+00 0.  1.
   -9000007    1    1    2    0  501 -0.18516299023E+02 -0.32987400675E+01 -0.12886681744E+04  0.13494515178E+04  0.40000000000E+03 0. -1.
<mgrwt>
<rscale>  2 0.40022653E+03</rscale>
<asrwt>0</asrwt>
<pdfrwt beam="1">  1        1 0.29040946E+00 0.40022653E+03</pdfrwt>
<pdfrwt beam="2">  1       -1 0.15499022E-01 0.40022653E+03</pdfrwt>
<totfact> 0.11902225E+02</totfact>
</mgrwt>
</event>
<event>
 6    1  0.8938744E-004  0.4164718E+03  0.7818608E-02  0.1038221E+00
         -2   -1    0    0    0  501 -0.00000000000E+00  0.00000000000E+00  0.12854266157E+03  0.12854266157E+03  0.00000000000E+00 0. -1.
          2   -1    0    0  502    0  0.00000000000E+00 -0.00000000000E+00 -0.13800449822E+04  0.13800449822E+04  0.00000000000E+00 0.  1.
    9000007    2    1    2  502    0  0.11576210953E+03 -0.77901405017E+01 -0.73822634208E+03  0.84759310337E+03  0.39996797928E+03 0.  0.
    9000005    1    3    3    0    0 -0.13854638756E+02 -0.18550603138E+03 -0.43390123249E+03  0.47209714916E+03  0.99999687468E+00 0.  0.
          4    1    3    3  502    0  0.12961674828E+03  0.17771589087E+03 -0.30432510958E+03  0.37549595421E+03  0.00000000000E+00 0.  1.
   -9000007    1    1    2    0  501 -0.11576210953E+03  0.77901405017E+01 -0.51327597856E+03  0.66099454042E+03  0.40000000000E+03 0. -1.
<mgrwt>
<rscale>  2 0.41647178E+03</rscale>
<asrwt>0</asrwt>
<pdfrwt beam="1">  1        2 0.21231461E+00 0.41647178E+03</pdfrwt>
<pdfrwt beam="2">  1       -2 0.19775794E-01 0.41647178E+03</pdfrwt>
<totfact> 0.33570969E+02</totfact>
</mgrwt>
</event>
<event>
 6    1  0.8938744E-004  0.4768454E+03  0.7818608E-02  0.1020006E+00
         -2   -1    0    0    0  501 -0.00000000000E+00  0.00000000000E+00  0.46763677880E+03  0.46763677880E+03  0.00000000000E+00 0.  1.
          2   -1    0    0  502    0  0.00000000000E+00 -0.00000000000E+00 -0.62097894373E+03  0.62097894373E+03  0.00000000000E+00 0. -1.
    9000007    2    1    2  502    0 -0.19467652704E+03 -0.16504954309E+03 -0.33050284250E+03  0.58213155937E+03  0.40559181656E+03 0.  0.
    9000005    1    3    3    0    0 -0.10378413589E+03 -0.22830010810E+03 -0.38440319749E+03  0.45897593014E+03  0.99999687468E+00 0.  0.
          4    1    3    3  502    0 -0.90892391154E+02  0.63250565003E+02  0.53900354990E+02  0.12315562923E+03  0.00000000000E+00 0.  1.
   -9000007    1    1    2    0  501  0.19467652704E+03  0.16504954309E+03  0.17716067756E+03  0.50648416316E+03  0.40000000000E+03 0.  1.
<mgrwt>
<rscale>  2 0.47684537E+03</rscale>
<asrwt>0</asrwt>
<pdfrwt beam="1">  1        2 0.95535222E-01 0.47684537E+03</pdfrwt>
<pdfrwt beam="2">  1       -2 0.71944120E-01 0.47684537E+03</pdfrwt>
<totfact> 0.86010356E+01</totfact>
</mgrwt>
</event>
<event>
 6    1  0.8938744E-004  0.7320873E+03  0.7818608E-02  0.9663879E-01
          1   -1    0    0  502    0  0.00000000000E+00  0.00000000000E+00  0.19860727965E+04  0.19860727965E+04  0.00000000000E+00 0.  1.
         -1   -1    0    0    0  501 -0.00000000000E+00 -0.00000000000E+00 -0.27641862158E+03  0.27641862158E+03  0.00000000000E+00 0. -1.
    9000007    2    1    2  502    0 -0.56890962680E+03 -0.23169544812E+03  0.67943532023E+03  0.99809755828E+03  0.39651662931E+03 0.  0.
    9000005    1    3    3    0    0  0.58510595390E+02 -0.48080606518E+02  0.92392727228E+02  0.11946819884E+03  0.99999687468E+00 0.  0.
          4    1    3    3  502    0 -0.62742022219E+03 -0.18361484160E+03  0.58704259300E+03  0.87862935944E+03  0.00000000000E+00 0.  1.
   -9000007    1    1    2    0  501  0.56890962680E+03  0.23169544812E+03  0.10302188547E+04  0.12643938598E+04  0.40000000000E+03 0.  1.
<mgrwt>
<rscale>  2 0.73208734E+03</rscale>
<asrwt>0</asrwt>
<pdfrwt beam="1">  1        1 0.30554965E+00 0.73208734E+03</pdfrwt>
<pdfrwt beam="2">  1       -1 0.42525943E-01 0.73208734E+03</pdfrwt>
<totfact> 0.17308497E+01</totfact>
</mgrwt>
</event>
<event>
 6    1  0.8938744E-004  0.4827142E+03  0.7818608E-02  0.1018392E+00
          2   -1    0    0  502    0  0.00000000000E+00  0.00000000000E+00  0.48692693912E+03  0.48692693912E+03  0.00000000000E+00 0.  1.
         -2   -1    0    0    0  501 -0.00000000000E+00 -0.00000000000E+00 -0.50956060477E+03  0.50956060477E+03  0.00000000000E+00 0. -1.
    9000007    2    1    2  502    0 -0.70501652289E+01 -0.27049953397E+03  0.11162493035E+03  0.49524401695E+03  0.39948317680E+03 0.  0.
    9000005    1    3    3    0    0 -0.14308864456E+03 -0.25430437448E+02 -0.69933525553E+02  0.16128473375E+03  0.99999687468E+00 0.  0.
          4    1    3    3  502    0  0.13603847933E+03 -0.24506909652E+03  0.18155845590E+03  0.33395928320E+03  0.00000000000E+00 0.  1.
   -9000007    1    1    2    0  501  0.70501652289E+01  0.27049953397E+03 -0.13425859599E+03  0.50124352694E+03  0.40000000000E+03 0.  1.
<mgrwt>
<rscale>  2 0.48271422E+03</rscale>
<asrwt>0</asrwt>
<pdfrwt beam="1">  1        2 0.74911837E-01 0.48271422E+03</pdfrwt>
<pdfrwt beam="2">  1       -2 0.78393939E-01 0.48271422E+03</pdfrwt>
<totfact> 0.94537195E+01</totfact>
</mgrwt>
</event>
<event>
 6    1  0.8938744E-004  0.4319234E+03  0.7818608E-02  0.1033254E+00
          1   -1    0    0  502    0  0.00000000000E+00  0.00000000000E+00  0.52500691377E+03  0.52500691377E+03  0.00000000000E+00 0. -1.
         -1   -1    0    0    0  501 -0.00000000000E+00 -0.00000000000E+00 -0.45214875309E+03  0.45214875309E+03  0.00000000000E+00 0.  1.
    9000007    2    1    2  502    0 -0.16458732072E+03  0.41002779992E+01 -0.18968155166E+03  0.47115873111E+03  0.39862972850E+03 0.  0.
    9000005    1    3    3    0    0 -0.24969633681E+02 -0.73189272276E+02  0.10833321283E+03  0.13310611247E+03  0.99999687468E+00 0.  0.
          4    1    3    3  502    0 -0.13961768704E+03  0.77289550275E+02 -0.29801476449E+03  0.33805261864E+03  0.00000000000E+00 0.  1.
   -9000007    1    1    2    0  501  0.16458732072E+03 -0.41002779992E+01  0.26253971235E+03  0.50599693574E+03  0.40000000000E+03 0. -1.
<mgrwt>
<rscale>  2 0.43192340E+03</rscale>
<asrwt>0</asrwt>
<pdfrwt beam="1">  1        1 0.80770295E-01 0.43192340E+03</pdfrwt>
<pdfrwt beam="2">  1       -1 0.69561346E-01 0.43192340E+03</pdfrwt>
<totfact> 0.90759313E+01</totfact>
</mgrwt>
</event>
<event>
 6    1  0.8938744E-004  0.4493343E+03  0.7818608E-02  0.1027921E+00
          2   -1    0    0  502    0  0.00000000000E+00  0.00000000000E+00  0.79668162884E+03  0.79668162884E+03  0.00000000000E+00 0.  1.
         -2   -1    0    0    0  501 -0.00000000000E+00 -0.00000000000E+00 -0.28157066797E+03  0.28157066797E+03  0.00000000000E+00 0. -1.
    9000007    2    1    2  502    0  0.76974051599E+02 -0.18880355793E+03  0.87301840739E+02  0.45809712963E+03  0.40082362788E+03 0.  0.
    9000005    1    3    3    0    0 -0.97763575617E+02 -0.21264651356E+03 -0.44107074323E+02  0.23816525869E+03  0.99999687468E+00 0.  0.
          4    1    3    3  502    0  0.17473762722E+03  0.23842955626E+02  0.13140891506E+03  0.21993187094E+03  0.00000000000E+00 0.  1.
   -9000007    1    1    2    0  501 -0.76974051599E+02  0.18880355793E+03  0.42780912014E+03  0.62015516718E+03  0.40000000000E+03 0.  1.
<mgrwt>
<rscale>  2 0.44933430E+03</rscale>
<asrwt>0</asrwt>
<pdfrwt beam="1">  1        2 0.12256640E+00 0.44933430E+03</pdfrwt>
<pdfrwt beam="2">  1       -2 0.43318565E-01 0.44933430E+03</pdfrwt>
<totfact> 0.18044870E+02</totfact>
</mgrwt>
</event>
<event>
 6    1  0.8938744E-004  0.5414804E+03  0.7818608E-02  0.1003485E+00
          2   -1    0    0  502    0  0.00000000000E+00  0.00000000000E+00  0.23987887646E+04  0.23987887646E+04  0.00000000000E+00 0. -1.
         -2   -1    0    0    0  501 -0.00000000000E+00 -0.00000000000E+00 -0.12236632061E+03  0.12236632061E+03  0.00000000000E+00 0.  1.
    9000007    2    1    2  502    0  0.36214376760E+03  0.47985588576E+02  0.10954689456E+04  0.12218853324E+04  0.39937554971E+03 0.  0.
    9000005    1    3    3    0    0  0.26397212509E+03 -0.16157051885E+03  0.60518696095E+03  0.67973419296E+03  0.99999687468E+00 0.  0.
          4    1    3    3  502    0  0.98171642512E+02  0.20955610742E+03  0.49028198463E+03  0.54215113945E+03  0.00000000000E+00 0.  1.
   -9000007    1    1    2    0  501 -0.36214376760E+03 -0.47985588576E+02  0.11809534984E+04  0.12992697528E+04  0.40000000000E+03 0. -1.
<mgrwt>
<rscale>  2 0.54148041E+03</rscale>
<asrwt>0</asrwt>
<pdfrwt beam="1">  1        2 0.36904439E+00 0.54148041E+03</pdfrwt>
<pdfrwt beam="2">  1       -2 0.18825590E-01 0.54148041E+03</pdfrwt>
<totfact> 0.10062967E+02</totfact>
</mgrwt>
</event>
<event>
 6    1  0.8938744E-004  0.4815916E+03  0.7818608E-02  0.1018699E+00
          1   -1    0    0  502    0  0.00000000000E+00  0.00000000000E+00  0.10364707660E+04  0.10364707660E+04  0.00000000000E+00 0. -1.
         -1   -1    0    0    0  501 -0.00000000000E+00 -0.00000000000E+00 -0.22472071882E+03  0.22472071882E+03  0.00000000000E+00 0.  1.
    9000007    2    1    2  502    0 -0.61504842563E+02  0.26129701724E+03  0.44679116045E+03  0.65682903902E+03  0.39967870667E+03 0.  0.
    9000005    1    3    3    0    0  0.90164424111E+02  0.28779367907E+02  0.35040128792E+03  0.36295996744E+03  0.99999687468E+00 0.  0.
          4    1    3    3  502    0 -0.15166926667E+03  0.23251764933E+03  0.96389872521E+02  0.29386907157E+03  0.00000000000E+00 0.  1.
   -9000007    1    1    2    0  501  0.61504842563E+02 -0.26129701724E+03  0.36495888671E+03  0.60436244577E+03  0.40000000000E+03 0.  1.
<mgrwt>
<rscale>  2 0.48159161E+03</rscale>
<asrwt>0</asrwt>
<pdfrwt beam="1">  1        1 0.15945704E+00 0.48159161E+03</pdfrwt>
<pdfrwt beam="2">  1       -1 0.34572419E-01 0.48159161E+03</pdfrwt>
<totfact> 0.11749322E+02</totfact>
</mgrwt>
</event>
<event>
 6    1  0.8938744E-004  0.4024100E+03  0.7818608E-02  0.1042948E+00
          2   -1    0    0  502    0  0.00000000000E+00  0.00000000000E+00  0.22685772469E+03  0.22685772469E+03  0.00000000000E+00 0.  1.
         -2   -1    0    0    0  501 -0.00000000000E+00 -0.00000000000E+00 -0.81913291858E+03  0.81913291858E+03  0.00000000000E+00 0. -1.
    9000007    2    1    2  502    0 -0.10942892358E+01  0.45804908157E+02 -0.10847313502E+03  0.41657526434E+03  0.39958633955E+03 0.  0.
    9000005    1    3    3    0    0  0.10901002015E+03 -0.14070611355E+03 -0.89306422859E+02  0.19914324503E+03  0.99999687468E+00 0.  0.
          4    1    3    3  502    0 -0.11010430938E+03  0.18651102171E+03 -0.19166712165E+02  0.21743201931E+03  0.00000000000E+00 0.  1.
   -9000007    1    1    2    0  501  0.10942892358E+01 -0.45804908157E+02 -0.48380205887E+03  0.62941537894E+03  0.40000000000E+03 0. -1.
<mgrwt>
<rscale>  2 0.40241002E+03</rscale>
<asrwt>0</asrwt>
<pdfrwt beam="1">  1        2 0.34901189E-01 0.40241002E+03</pdfrwt>
<pdfrwt beam="2">  1       -2 0.12602045E+00 0.40241002E+03</pdfrwt>
<totfact> 0.72717295E+01</totfact>
</mgrwt>
</event>
<event>
 6    1  0.8938744E-004  0.4923855E+03  0.7818608E-02  0.1015786E+00
         -2   -1    0    0    0  501 -0.00000000000E+00  0.00000000000E+00  0.40128178836E+03  0.40128178836E+03  0.00000000000E+00 0. -1.
          2   -1    0    0  502    0  0.00000000000E+00 -0.00000000000E+00 -0.12193941803E+04  0.12193941803E+04  0.00000000000E+00 0.  1.
    9000007    2    1    2  502    0  0.14231512302E+03  0.24934486500E+03 -0.98464887963E+03  0.11009059640E+04  0.40004258468E+03 0.  0.
    9000005    1    3    3    0    0  0.26441499933E+03  0.83801479770E+02 -0.45716284632E+03  0.53473063119E+03  0.99999687468E+00 0.  0.
          4    1    3    3  502    0 -0.12209987631E+03  0.16554338523E+03 -0.52748603331E+03  0.56617533285E+03  0.00000000000E+00 0.  1.
   -9000007    1    1    2    0  501 -0.14231512302E+03 -0.24934486500E+03  0.16653648772E+03  0.51977000460E+03  0.40000000000E+03 0. -1.
<mgrwt>
<rscale>  2 0.49238551E+03</rscale>
<asrwt>0</asrwt>
<pdfrwt beam="1">  1        2 0.18759910E+00 0.49238551E+03</pdfrwt>
<pdfrwt beam="2">  1       -2 0.61735661E-01 0.49238551E+03</pdfrwt>
<totfact> 0.47195387E+01</totfact>
</mgrwt>
</event>
<event>
 6    1  0.8938744E-004  0.5007000E+03  0.7818608E-02  0.1013596E+00
         -1   -1    0    0    0  501 -0.00000000000E+00  0.00000000000E+00  0.13422278616E+03  0.13422278616E+03  0.00000000000E+00 0. -1.
          1   -1    0    0  502    0  0.00000000000E+00 -0.00000000000E+00 -0.21921918597E+04  0.21921918597E+04  0.00000000000E+00 0.  1.
    9000007    2    1    2  502    0  0.10674370166E+03 -0.28309511046E+03 -0.14749828712E+04  0.15573828055E+04  0.39790661341E+03 0.  0.
    9000005    1    3    3    0    0  0.25544262812E+03 -0.13073889269E+03 -0.85280367439E+03  0.89978814250E+03  0.99999687468E+00 0.  0.
          4    1    3    3  502    0 -0.14869892645E+03 -0.15235621776E+03 -0.62217919684E+03  0.65759466300E+03  0.00000000000E+00 0.  1.
   -9000007    1    1    2    0  501 -0.10674370166E+03  0.28309511046E+03 -0.58298620230E+03  0.76903184036E+03  0.40000000000E+03 0.  1.
<mgrwt>
<rscale>  2 0.50070001E+03</rscale>
<asrwt>0</asrwt>
<pdfrwt beam="1">  1        1 0.33726026E+00 0.50070001E+03</pdfrwt>
<pdfrwt beam="2">  1       -1 0.20649661E-01 0.50070001E+03</pdfrwt>
<totfact> 0.46027737E+01</totfact>
</mgrwt>
</event>
<event>
 6    1  0.8938744E-004  0.7418840E+03  0.7818608E-02  0.9648170E-01
          1   -1    0    0  502    0  0.00000000000E+00  0.00000000000E+00  0.14155535893E+04  0.14155535893E+04  0.00000000000E+00 0.  1.
         -1   -1    0    0    0  501 -0.00000000000E+00 -0.00000000000E+00 -0.39737583668E+03  0.39737583668E+03  0.00000000000E+00 0. -1.
    9000007    2    1    2  502    0 -0.54447561933E+03 -0.30639189476E+03  0.64214630743E+03  0.98122675017E+03  0.40015542214E+03 0.  0.
    9000005    1    3    3    0    0 -0.10677427671E+03 -0.11780393452E+02 -0.43649062195E+02  0.11595587290E+03  0.99999687468E+00 0.  0.
          4    1    3    3  502    0 -0.43770134262E+03 -0.29461150131E+03  0.68579536963E+03  0.86527087726E+03  0.00000000000E+00 0.  1.
   -9000007    1    1    2    0  501  0.54447561933E+03  0.30639189476E+03  0.37603144523E+03  0.83170267586E+03  0.40000000000E+03 0. -1.
<mgrwt>
<rscale>  2 0.74188400E+03</rscale>
<asrwt>0</asrwt>
<pdfrwt beam="1">  1        1 0.21777747E+00 0.74188400E+03</pdfrwt>
<pdfrwt beam="2">  1       -1 0.61134745E-01 0.74188400E+03</pdfrwt>
<totfact> 0.21028941E+01</totfact>
</mgrwt>
</event>
<event>
 6    1  0.8938744E-004  0.4112573E+03  0.7818608E-02  0.1039950E+00
          2   -1    0    0  502    0  0.00000000000E+00  0.00000000000E+00  0.18048012605E+04  0.18048012605E+04  0.00000000000E+00 0. -1.
         -2   -1    0    0    0  501 -0.00000000000E+00 -0.00000000000E+00 -0.11185575893E+03  0.11185575893E+03  0.00000000000E+00 0.  1.
    9000007    2    1    2  502    0  0.70605300953E+02 -0.52485038976E+02  0.46346482826E+03  0.62075481870E+03  0.40348123880E+03 0.  0.
    9000005    1    3    3    0    0  0.15917844893E+03  0.13198805739E+03  0.20613689423E+03  0.29197952848E+03  0.99999687468E+00 0.  0.
          4    1    3    3  502    0 -0.88573147974E+02 -0.18447309637E+03  0.25732793403E+03  0.32877529021E+03  0.00000000000E+00 0.  1.
   -9000007    1    1    2    0  501 -0.70605300953E+02  0.52485038976E+02  0.12294806734E+04  0.12959022008E+04  0.40000000000E+03 0. -1.
<mgrwt>
<rscale>  2 0.41125729E+03</rscale>
<asrwt>0</asrwt>
<pdfrwt beam="1">  1        2 0.27766171E+00 0.41125729E+03</pdfrwt>
<pdfrwt beam="2">  1       -2 0.17208580E-01 0.41125729E+03</pdfrwt>
<totfact> 0.25102355E+02</totfact>
</mgrwt>
</event>
<event>
 6    1  0.8938744E-004  0.4132200E+03  0.7818608E-02  0.1039296E+00
         -1   -1    0    0    0  501 -0.00000000000E+00  0.00000000000E+00  0.59266164248E+02  0.59266164248E+02  0.00000000000E+00 0. -1.
          1   -1    0    0  502    0  0.00000000000E+00 -0.00000000000E+00 -0.31753585078E+04  0.31753585078E+04  0.00000000000E+00 0.  1.
    9000007    2    1    2  502    0 -0.98902770141E+02  0.28691491239E+02 -0.10662998171E+04  0.11436310419E+04  0.40036445965E+03 0.  0.
    9000005    1    3    3    0    0  0.97652647989E+02  0.14376824477E+03 -0.33087843483E+03  0.37374708895E+03  0.99999687468E+00 0.  0.
          4    1    3    3  502    0 -0.19655541813E+03 -0.11507675353E+03 -0.73542138226E+03  0.76988395300E+03  0.00000000000E+00 0.  1.
   -9000007    1    1    2    0  501  0.98902770141E+02 -0.28691491239E+02 -0.20497925264E+04  0.20909936301E+04  0.40000000000E+03 0.  1.
<mgrwt>
<rscale>  2 0.41321997E+03</rscale>
<asrwt>0</asrwt>
<pdfrwt beam="1">  1        1 0.48851678E+00 0.41321997E+03</pdfrwt>
<pdfrwt beam="2">  1       -1 0.91178698E-02 0.41321997E+03</pdfrwt>
<totfact> 0.36640722E+01</totfact>
</mgrwt>
</event>
<event>
 6    1  0.8938744E-004  0.4333288E+03  0.7818608E-02  0.1032814E+00
         -1   -1    0    0    0  501 -0.00000000000E+00  0.00000000000E+00  0.20951723185E+03  0.20951723185E+03  0.00000000000E+00 0. -1.
          1   -1    0    0  502    0  0.00000000000E+00 -0.00000000000E+00 -0.96037438425E+03  0.96037438425E+03  0.00000000000E+00 0.  1.
    9000007    2    1    2  502    0 -0.97983188296E+02 -0.12765124213E+03 -0.52834440707E+03  0.68470354262E+03  0.40469196186E+03 0.  0.
    9000005    1    3    3    0    0 -0.10696460665E+03  0.96043568635E+02 -0.42740944575E+02  0.14997860677E+03  0.99999687468E+00 0.  0.
          4    1    3    3  502    0  0.89814183520E+01 -0.22369481077E+03 -0.48560346249E+03  0.53472493585E+03  0.00000000000E+00 0.  1.
   -9000007    1    1    2    0  501  0.97983188296E+02  0.12765124213E+03 -0.22251274534E+03  0.48518807348E+03  0.40000000000E+03 0. -1.
<mgrwt>
<rscale>  2 0.43332880E+03</rscale>
<asrwt>0</asrwt>
<pdfrwt beam="1">  1        1 0.14774991E+00 0.43332880E+03</pdfrwt>
<pdfrwt beam="2">  1       -1 0.32233420E-01 0.43332880E+03</pdfrwt>
<totfact> 0.15275721E+02</totfact>
</mgrwt>
</event>
<event>
 6    1  0.8938744E-004  0.4380944E+03  0.7818608E-02  0.1031333E+00
          2   -1    0    0  502    0  0.00000000000E+00  0.00000000000E+00  0.25246692579E+04  0.25246692579E+04  0.00000000000E+00 0.  1.
         -2   -1    0    0    0  501 -0.00000000000E+00 -0.00000000000E+00 -0.76090764952E+02  0.76090764952E+02  0.00000000000E+00 0. -1.
    9000007    2    1    2  502    0  0.76733465504E+01  0.17810307889E+03  0.11852552327E+04  0.12636866341E+04  0.40036777550E+03 0.  0.
    9000005    1    3    3    0    0 -0.87074437858E+01 -0.11644300462E+03  0.16855204198E+03  0.20505019813E+03  0.99999687468E+00 0.  0.
          4    1    3    3  502    0  0.16380790336E+02  0.29454608351E+03  0.10167031907E+04  0.10586364360E+04  0.00000000000E+00 0.  1.
   -9000007    1    1    2    0  501 -0.76733465504E+01 -0.17810307889E+03  0.12633232602E+04  0.13370733887E+04  0.40000000000E+03 0. -1.
<mgrwt>
<rscale>  2 0.43809441E+03</rscale>
<asrwt>0</asrwt>
<pdfrwt beam="1">  1        2 0.38841059E+00 0.43809441E+03</pdfrwt>
<pdfrwt beam="2">  1       -2 0.11706273E-01 0.43809441E+03</pdfrwt>
<totfact> 0.19337020E+02</totfact>
</mgrwt>
</event>
<event>
 6    1  0.8938744E-004  0.4727389E+03  0.7818608E-02  0.1021150E+00
         -3   -1    0    0    0  501 -0.00000000000E+00  0.00000000000E+00  0.68112560998E+03  0.68112560998E+03  0.00000000000E+00 0.  1.
          3   -1    0    0  502    0  0.00000000000E+00 -0.00000000000E+00 -0.33597961460E+03  0.33597961460E+03  0.00000000000E+00 0. -1.
    9000007    2    1    2  502    0  0.11121990474E+03  0.22636352812E+03  0.25037098708E+03  0.53482665749E+03  0.39967938191E+03 0.  0.
    9000005    1    3    3    0    0 -0.23705608710E+02 -0.10570647531E+03  0.95292131580E+02  0.14428237987E+03  0.99999687468E+00 0.  0.
          4    1    3    3  502    0  0.13492551345E+03  0.33207000343E+03  0.15507885550E+03  0.39054427762E+03  0.00000000000E+00 0.  1.
   -9000007    1    1    2    0  501 -0.11121990474E+03 -0.22636352812E+03  0.94775008300E+02  0.48227856709E+03  0.40000000000E+03 0.  1.
<mgrwt>
<rscale>  2 0.47273891E+03</rscale>
<asrwt>0</asrwt>
<pdfrwt beam="1">  1        3 0.51689172E-01 0.47273891E+03</pdfrwt>
<pdfrwt beam="2">  1       -3 0.10478856E+00 0.47273891E+03</pdfrwt>
<totfact> 0.75705410E+00</totfact>
</mgrwt>
</event>
<event>
 6    1  0.8938744E-004  0.7629626E+03  0.7818608E-02  0.9615231E-01
         -1   -1    0    0    0  501 -0.00000000000E+00  0.00000000000E+00  0.59967990869E+03  0.59967990869E+03  0.00000000000E+00 0.  1.
          1   -1    0    0  502    0  0.00000000000E+00 -0.00000000000E+00 -0.98528922393E+03  0.98528922393E+03  0.00000000000E+00 0. -1.
    9000007    2    1    2  502    0  0.23485610000E+03 -0.60595306896E+03 -0.28918651986E+03  0.81579173764E+03  0.39943811342E+03 0.  0.
    9000005    1    3    3    0    0 -0.42676598962E+02 -0.15191323818E+03 -0.23200914941E+03  0.28058540489E+03  0.99999687468E+00 0.  0.
          4    1    3    3  502    0  0.27753269896E+03 -0.45403983078E+03 -0.57177370445E+02  0.53520633275E+03  0.00000000000E+00 0.  1.
   -9000007    1    1    2    0  501 -0.23485610000E+03  0.60595306896E+03 -0.96422795378E+02  0.76917739498E+03  0.40000000000E+03 0.  1.
<mgrwt>
<rscale>  2 0.76296256E+03</rscale>
<asrwt>0</asrwt>
<pdfrwt beam="1">  1        1 0.15158296E+00 0.76296256E+03</pdfrwt>
<pdfrwt beam="2">  1       -1 0.92258449E-01 0.76296256E+03</pdfrwt>
<totfact> 0.18260177E+01</totfact>
</mgrwt>
</event>
<event>
 6    1  0.8938744E-004  0.5090555E+03  0.7818608E-02  0.1011442E+00
         -1   -1    0    0    0  501 -0.00000000000E+00  0.00000000000E+00  0.16979993801E+03  0.16979993801E+03  0.00000000000E+00 0.  1.
          1   -1    0    0  502    0  0.00000000000E+00 -0.00000000000E+00 -0.22695312665E+04  0.22695312665E+04  0.00000000000E+00 0. -1.
    9000007    2    1    2  502    0  0.31084123803E+03  0.52657020764E+02 -0.17475593232E+04  0.18201219036E+04  0.39935587959E+03 0.  0.
    9000005    1    3    3    0    0  0.68669713971E+02 -0.16701807240E+03 -0.68417707792E+03  0.70760853590E+03  0.99999687468E+00 0.  0.
          4    1    3    3  502    0  0.24217152406E+03  0.21967509317E+03 -0.10633822453E+04  0.11125133677E+04  0.00000000000E+00 0.  1.
   -9000007    1    1    2    0  501 -0.31084123803E+03 -0.52657020764E+02 -0.35217200528E+03  0.61920930096E+03  0.40000000000E+03 0.  1.
<mgrwt>
<rscale>  2 0.50905547E+03</rscale>
<asrwt>0</asrwt>
<pdfrwt beam="1">  1        1 0.34915865E+00 0.50905547E+03</pdfrwt>
<pdfrwt beam="2">  1       -1 0.26123068E-01 0.50905547E+03</pdfrwt>
<totfact> 0.27503735E+01</totfact>
</mgrwt>
</event>
<event>
 6    1  0.8938744E-004  0.4231473E+03  0.7818608E-02  0.1036047E+00
         -1   -1    0    0    0  501 -0.00000000000E+00  0.00000000000E+00  0.48739271582E+03  0.48739271582E+03  0.00000000000E+00 0. -1.
          1   -1    0    0  502    0  0.00000000000E+00 -0.00000000000E+00 -0.37328506587E+03  0.37328506587E+03  0.00000000000E+00 0.  1.
    9000007    2    1    2  502    0 -0.11249220969E+03  0.79190411982E+02  0.29044006239E+01  0.42330862268E+03  0.40032004185E+03 0.  0.
    9000005    1    3    3    0    0 -0.25914554789E+03  0.28932318543E+02  0.40255273229E+02  0.26384651043E+03  0.99999687468E+00 0.  0.
          4    1    3    3  502    0  0.14665333820E+03  0.50258093439E+02 -0.37350872605E+02  0.15946211226E+03  0.00000000000E+00 0.  1.
   -9000007    1    1    2    0  501  0.11249220969E+03 -0.79190411982E+02  0.11120324932E+03  0.43736915901E+03  0.40000000000E+03 0. -1.
<mgrwt>
<rscale>  2 0.42314730E+03</rscale>
<asrwt>0</asrwt>
<pdfrwt beam="1">  1        1 0.57428472E-01 0.42314730E+03</pdfrwt>
<pdfrwt beam="2">  1       -1 0.74983494E-01 0.42314730E+03</pdfrwt>
<totfact> 0.12255650E+02</totfact>
</mgrwt>
</event>
<event>
 6    1  0.8938744E-004  0.4899800E+03  0.7818608E-02  0.1016428E+00
         -2   -1    0    0    0  501 -0.00000000000E+00  0.00000000000E+00  0.23500407422E+03  0.23500407422E+03  0.00000000000E+00 0. -1.
          2   -1    0    0  502    0  0.00000000000E+00 -0.00000000000E+00 -0.10276865198E+04  0.10276865198E+04  0.00000000000E+00 0.  1.
    9000007    2    1    2  502    0  0.27700739572E+03 -0.57008424435E+02 -0.34783786984E+03  0.60097331730E+03  0.40024328436E+03 0.  0.
    9000005    1    3    3    0    0 -0.57203531855E+02 -0.10940393143E+03 -0.11597484391E+02  0.12400389473E+03  0.99999687468E+00 0.  0.
          4    1    3    3  502    0  0.33421092757E+03  0.52395506998E+02 -0.33624038545E+03  0.47696942257E+03  0.00000000000E+00 0.  1.
   -9000007    1    1    2    0  501 -0.27700739572E+03  0.57008424435E+02 -0.44484457572E+03  0.66171727670E+03  0.40000000000E+03 0.  1.
<mgrwt>
<rscale>  2 0.48997998E+03</rscale>
<asrwt>0</asrwt>
<pdfrwt beam="1">  1        2 0.15810562E+00 0.48997998E+03</pdfrwt>
<pdfrwt beam="2">  1       -2 0.36154473E-01 0.48997998E+03</pdfrwt>
<totfact> 0.17947888E+02</totfact>
</mgrwt>
</event>
<event>
 6    1  0.8938744E-004  0.5648374E+03  0.7818608E-02  0.9981168E-01
          2   -1    0    0  502    0  0.00000000000E+00  0.00000000000E+00  0.39952185352E+03  0.39952185352E+03  0.00000000000E+00 0.  1.
         -2   -1    0    0    0  501 -0.00000000000E+00 -0.00000000000E+00 -0.84789920923E+03  0.84789920923E+03  0.00000000000E+00 0. -1.
    9000007    2    1    2  502    0 -0.39726394426E+03  0.30529084417E+02 -0.37474313624E+03  0.67805943366E+03  0.40072622951E+03 0.  0.
    9000005    1    3    3    0    0 -0.39662257402E+03  0.41683138710E+02 -0.45039660034E+03  0.60158544519E+03  0.99999687468E+00 0.  0.
          4    1    3    3  502    0 -0.64137023739E+00 -0.11154054293E+02  0.75653464096E+02  0.76473988471E+02  0.00000000000E+00 0.  1.
   -9000007    1    1    2    0  501  0.39726394426E+03 -0.30529084417E+02 -0.73634219455E+02  0.56936162909E+03  0.40000000000E+03 0.  1.
<mgrwt>
<rscale>  2 0.56483740E+03</rscale>
<asrwt>0</asrwt>
<pdfrwt beam="1">  1        2 0.61464901E-01 0.56483740E+03</pdfrwt>
<pdfrwt beam="2">  1       -2 0.13044603E+00 0.56483740E+03</pdfrwt>
<totfact> 0.35207030E+01</totfact>
</mgrwt>
</event>
<event>
 6    1  0.8938744E-004  0.5430017E+03  0.7818608E-02  0.1003127E+00
          2   -1    0    0  502    0  0.00000000000E+00  0.00000000000E+00  0.10082125822E+04  0.10082125822E+04  0.00000000000E+00 0. -1.
         -2   -1    0    0    0  501 -0.00000000000E+00 -0.00000000000E+00 -0.31994979762E+03  0.31994979762E+03  0.00000000000E+00 0.  1.
    9000007    2    1    2  502    0 -0.26608636091E+03  0.25344100042E+03  0.14933966140E+03  0.56300068131E+03  0.39954116250E+03 0.  0.
    9000005    1    3    3    0    0 -0.35386125088E+03  0.26044314834E+03  0.17238539531E+03  0.47198108321E+03  0.99999687468E+00 0.  0.
          4    1    3    3  502    0  0.87774889978E+02 -0.70021479267E+01 -0.23045733912E+02  0.91019598097E+02  0.00000000000E+00 0.  1.
   -9000007    1    1    2    0  501  0.26608636091E+03 -0.25344100042E+03  0.53892312317E+03  0.76516169849E+03  0.40000000000E+03 0.  1.
<mgrwt>
<rscale>  2 0.54300166E+03</rscale>
<asrwt>0</asrwt>
<pdfrwt beam="1">  1        2 0.15510963E+00 0.54300166E+03</pdfrwt>
<pdfrwt beam="2">  1       -2 0.49223046E-01 0.54300166E+03</pdfrwt>
<totfact> 0.10032739E+02</totfact>
</mgrwt>
</event>
<event>
 6    1  0.8938744E-004  0.6586562E+03  0.7818608E-02  0.9790671E-01
         -2   -1    0    0    0  501 -0.00000000000E+00  0.00000000000E+00  0.69233540045E+03  0.69233540045E+03  0.00000000000E+00 0.  1.
          2   -1    0    0  502    0  0.00000000000E+00 -0.00000000000E+00 -0.13246725957E+04  0.13246725957E+04  0.00000000000E+00 0. -1.
    9000007    2    1    2  502    0  0.47912073601E+03  0.21060746270E+03 -0.10482514622E+04  0.12379721430E+04  0.39978958931E+03 0.  0.
    9000005    1    3    3    0    0  0.35958743923E+03 -0.35430371687E+02 -0.75464914418E+03  0.83669275633E+03  0.99999687468E+00 0.  0.
          4    1    3    3  502    0  0.11953329678E+03  0.24603783439E+03 -0.29360231805E+03  0.40127938665E+03  0.00000000000E+00 0.  1.
   -9000007    1    1    2    0  501 -0.47912073601E+03 -0.21060746270E+03  0.41591426699E+03  0.77903585316E+03  0.40000000000E+03 0.  1.
<mgrwt>
<rscale>  2 0.65865623E+03</rscale>
<asrwt>0</asrwt>
<pdfrwt beam="1">  1        2 0.20379578E+00 0.65865623E+03</pdfrwt>
<pdfrwt beam="2">  1       -2 0.10651314E+00 0.65865623E+03</pdfrwt>
<totfact> 0.11748122E+01</totfact>
</mgrwt>
</event>
<event>
 6    1  0.8938744E-004  0.4629788E+03  0.7818608E-02  0.1023921E+00
         -1   -1    0    0    0  501 -0.00000000000E+00  0.00000000000E+00  0.24792783815E+04  0.24792783815E+04  0.00000000000E+00 0.  1.
          1   -1    0    0  502    0  0.00000000000E+00 -0.00000000000E+00 -0.10810616717E+03  0.10810616717E+03  0.00000000000E+00 0. -1.
    9000007    2    1    2  502    0  0.17774861597E+03  0.14194566245E+03  0.61249879408E+03  0.76950794652E+03  0.40650284801E+03 0.  0.
    9000005    1    3    3    0    0 -0.12862013460E+03  0.85031299349E+02  0.20605309750E+03  0.25735644518E+03  0.99999687468E+00 0.  0.
          4    1    3    3  502    0  0.30636875057E+03  0.56914363096E+02  0.40644569658E+03  0.51215150133E+03  0.00000000000E+00 0.  1.
   -9000007    1    1    2    0  501 -0.17774861597E+03 -0.14194566245E+03  0.17586734203E+04  0.18178766022E+04  0.40000000000E+03 0.  1.
<mgrwt>
<rscale>  2 0.46297882E+03</rscale>
<asrwt>0</asrwt>
<pdfrwt beam="1">  1        1 0.16631720E-01 0.46297882E+03</pdfrwt>
<pdfrwt beam="2">  1       -1 0.38142740E+00 0.46297882E+03</pdfrwt>
<totfact> 0.35858950E+00</totfact>
</mgrwt>
</event>
<event>
 6    1  0.8938744E-004  0.5606088E+03  0.7818608E-02  0.9990678E-01
          2   -1    0    0  502    0  0.00000000000E+00  0.00000000000E+00  0.17163576616E+04  0.17163576616E+04  0.00000000000E+00 0. -1.
         -2   -1    0    0    0  501 -0.00000000000E+00 -0.00000000000E+00 -0.20543630912E+03  0.20543630912E+03  0.00000000000E+00 0.  1.
    9000007    2    1    2  502    0 -0.13779538079E+03  0.36777969976E+03  0.10722677898E+04  0.12099889254E+04  0.40008188161E+03 0.  0.
    9000005    1    3    3    0    0 -0.16616098534E+02  0.42346756846E+03  0.75457127435E+03  0.86543612377E+03  0.99999687468E+00 0.  0.
          4    1    3    3  502    0 -0.12117928226E+03 -0.55687868698E+02  0.31769651544E+03  0.34455280160E+03  0.00000000000E+00 0.  1.
   -9000007    1    1    2    0  501  0.13779538079E+03 -0.36777969976E+03  0.43865356273E+03  0.71180504538E+03  0.40000000000E+03 0.  1.
<mgrwt>
<rscale>  2 0.56060880E+03</rscale>
<asrwt>0</asrwt>
<pdfrwt beam="1">  1        2 0.26405502E+00 0.56060880E+03</pdfrwt>
<pdfrwt beam="2">  1       -2 0.31605587E-01 0.56060880E+03</pdfrwt>
<totfact> 0.93221585E+01</totfact>
</mgrwt>
</event>
<event>
 6    1  0.8938744E-004  0.4486247E+03  0.7818608E-02  0.1028133E+00
         -3   -1    0    0    0  501 -0.00000000000E+00  0.00000000000E+00  0.16594230761E+04  0.16594230761E+04  0.00000000000E+00 0. -1.
          3   -1    0    0  502    0  0.00000000000E+00 -0.00000000000E+00 -0.12141924174E+03  0.12141924174E+03  0.00000000000E+00 0.  1.
    9000007    2    1    2  502    0  0.23795840431E+02 -0.20188187523E+03  0.73934695680E+03  0.86477717735E+03  0.39985386126E+03 0.  0.
    9000005    1    3    3    0    0  0.62739806940E+02 -0.15330980184E+03  0.77535767069E+03  0.79285603751E+03  0.99999687468E+00 0.  0.
          4    1    3    3  502    0 -0.38943966509E+02 -0.48572073383E+02 -0.36010713896E+02  0.71921139838E+02  0.00000000000E+00 0.  1.
   -9000007    1    1    2    0  501 -0.23795840431E+02  0.20188187523E+03  0.79865687756E+03  0.91606514050E+03  0.40000000000E+03 0. -1.
<mgrwt>
<rscale>  2 0.44862465E+03</rscale>
<asrwt>0</asrwt>
<pdfrwt beam="1">  1        3 0.18679885E-01 0.44862465E+03</pdfrwt>
<pdfrwt beam="2">  1       -3 0.25529584E+00 0.44862465E+03</pdfrwt>
<totfact> 0.47650537E+00</totfact>
</mgrwt>
</event>
<event>
 6    1  0.8938744E-004  0.4243650E+03  0.7818608E-02  0.1035655E+00
         -1   -1    0    0    0  501 -0.00000000000E+00  0.00000000000E+00  0.35090366502E+03  0.35090366502E+03  0.00000000000E+00 0. -1.
          1   -1    0    0  502    0  0.00000000000E+00 -0.00000000000E+00 -0.73790540148E+03  0.73790540148E+03  0.00000000000E+00 0.  1.
    9000007    2    1    2  502    0 -0.59955939706E+02 -0.12843133876E+03 -0.49391540188E+03  0.65117925109E+03  0.39999083659E+03 0.  0.
    9000005    1    3    3    0    0 -0.13811458349E+03 -0.24142265107E+03 -0.38950314748E+03  0.47861700399E+03  0.99999687468E+00 0.  0.
          4    1    3    3  502    0  0.78158643782E+02  0.11299131231E+03 -0.10441225440E+03  0.17256224710E+03  0.00000000000E+00 0.  1.
   -9000007    1    1    2    0  501  0.59955939706E+02  0.12843133876E+03  0.10691366543E+03  0.43762981541E+03  0.40000000000E+03 0. -1.
<mgrwt>
<rscale>  2 0.42436501E+03</rscale>
<asrwt>0</asrwt>
<pdfrwt beam="1">  1        1 0.11352391E+00 0.42436501E+03</pdfrwt>
<pdfrwt beam="2">  1       -1 0.53985180E-01 0.42436501E+03</pdfrwt>
<totfact> 0.91627898E+01</totfact>
</mgrwt>
</event>
<event>
 6    1  0.8938744E-004  0.4497982E+03  0.7818608E-02  0.1027782E+00
         -1   -1    0    0    0  501 -0.00000000000E+00  0.00000000000E+00  0.25931547696E+03  0.25931547696E+03  0.00000000000E+00 0.  1.
          1   -1    0    0  502    0  0.00000000000E+00 -0.00000000000E+00 -0.10536100977E+04  0.10536100977E+04  0.00000000000E+00 0. -1.
    9000007    2    1    2  502    0  0.73799553327E+02  0.19178538663E+03 -0.73162041430E+03  0.85888145259E+03  0.40022607409E+03 0.  0.
    9000005    1    3    3    0    0 -0.15350696985E+03  0.14846273370E+03 -0.28802529915E+03  0.35855982212E+03  0.99999687468E+00 0.  0.
          4    1    3    3  502    0  0.22730652318E+03  0.43322652937E+02 -0.44359511515E+03  0.50032163047E+03  0.00000000000E+00 0.  1.
   -9000007    1    1    2    0  501 -0.73799553327E+02 -0.19178538663E+03 -0.62674206394E+02  0.45404412202E+03  0.40000000000E+03 0.  1.
<mgrwt>
<rscale>  2 0.44979823E+03</rscale>
<asrwt>0</asrwt>
<pdfrwt beam="1">  1        1 0.16209386E+00 0.44979823E+03</pdfrwt>
<pdfrwt beam="2">  1       -1 0.39894689E-01 0.44979823E+03</pdfrwt>
<totfact> 0.88764345E+01</totfact>
</mgrwt>
</event>
<event>
 6    1  0.8938744E-004  0.4788910E+03  0.7818608E-02  0.1019440E+00
         -2   -1    0    0    0  501 -0.00000000000E+00  0.00000000000E+00  0.75085642887E+02  0.75085642887E+02  0.00000000000E+00 0.  1.
          2   -1    0    0  502    0  0.00000000000E+00 -0.00000000000E+00 -0.31189619132E+04  0.31189619132E+04  0.00000000000E+00 0. -1.
    9000007    2    1    2  502    0 -0.79675370815E+02 -0.25149167525E+03 -0.17509816874E+04  0.18152173889E+04  0.39935081306E+03 0.  0.
    9000005    1    3    3    0    0 -0.36452285684E+02  0.89928941070E+02 -0.76018885707E+03  0.76635767235E+03  0.99999687468E+00 0.  0.
          4    1    3    3  502    0 -0.43223085131E+02 -0.34142061632E+03 -0.99079283035E+03  0.10488597166E+04  0.00000000000E+00 0.  1.
   -9000007    1    1    2    0  501  0.79675370815E+02  0.25149167525E+03 -0.12928945829E+04  0.13788301672E+04  0.40000000000E+03 0.  1.
<mgrwt>
<rscale>  2 0.47889103E+03</rscale>
<asrwt>0</asrwt>
<pdfrwt beam="1">  1        2 0.47984031E+00 0.47889103E+03</pdfrwt>
<pdfrwt beam="2">  1       -2 0.11551637E-01 0.47889103E+03</pdfrwt>
<totfact> 0.87957900E+01</totfact>
</mgrwt>
</event>
<event>
 6    1  0.8938744E-004  0.4230262E+03  0.7818608E-02  0.1036086E+00
         -2   -1    0    0    0  501 -0.00000000000E+00  0.00000000000E+00  0.16734261984E+03  0.16734261984E+03  0.00000000000E+00 0. -1.
          2   -1    0    0  502    0  0.00000000000E+00 -0.00000000000E+00 -0.12112902791E+04  0.12112902791E+04  0.00000000000E+00 0.  1.
    9000007    2    1    2  502    0 -0.13753918293E+03  0.90723867293E+01 -0.28596371642E+03  0.51056666145E+03  0.39987964894E+03 0.  0.
    9000005    1    3    3    0    0 -0.23292996724E+03  0.11105004775E+03 -0.26407673346E+03  0.36922351482E+03  0.99999687468E+00 0.  0.
          4    1    3    3  502    0  0.95390784306E+02 -0.10197766102E+03 -0.21886982958E+02  0.14134314664E+03  0.00000000000E+00 0.  1.
   -9000007    1    1    2    0  501  0.13753918293E+03 -0.90723867293E+01 -0.75798394279E+03  0.86806623743E+03  0.40000000000E+03 0.  1.
<mgrwt>
<rscale>  2 0.42302623E+03</rscale>
<asrwt>0</asrwt>
<pdfrwt beam="1">  1        2 0.18635235E+00 0.42302623E+03</pdfrwt>
<pdfrwt beam="2">  1       -2 0.25745018E-01 0.42302623E+03</pdfrwt>
<totfact> 0.26268555E+02</totfact>
</mgrwt>
</event>
<event>
 6    1  0.8938744E-004  0.5191305E+03  0.7818608E-02  0.1008903E+00
         -2   -1    0    0    0  501 -0.00000000000E+00  0.00000000000E+00  0.35297261888E+03  0.35297261888E+03  0.00000000000E+00 0.  1.
          2   -1    0    0  502    0  0.00000000000E+00 -0.00000000000E+00 -0.13129013869E+04  0.13129013869E+04  0.00000000000E+00 0. -1.
    9000007    2    1    2  502    0 -0.19098926379E+03 -0.27051362461E+03 -0.10186965606E+04  0.11432764805E+04  0.39960469004E+03 0.  0.
    9000005    1    3    3    0    0 -0.63321247059E+01 -0.75039914561E+01 -0.66622439552E+03  0.66629749427E+03  0.99999687468E+00 0.  0.
          4    1    3    3  502    0 -0.18465713908E+03 -0.26300963315E+03 -0.35247216505E+03  0.47697898620E+03  0.00000000000E+00 0.  1.
   -9000007    1    1    2    0  501  0.19098926379E+03  0.27051362461E+03  0.58767792575E+02  0.52259752528E+03  0.40000000000E+03 0.  1.
<mgrwt>
<rscale>  2 0.51913045E+03</rscale>
<asrwt>0</asrwt>
<pdfrwt beam="1">  1        2 0.20198483E+00 0.51913045E+03</pdfrwt>
<pdfrwt beam="2">  1       -2 0.54303480E-01 0.51913045E+03</pdfrwt>
<totfact> 0.54290874E+01</totfact>
</mgrwt>
</event>
<event>
 6    1  0.8938744E-004  0.4415318E+03  0.7818608E-02  0.1030278E+00
          2   -1    0    0  502    0  0.00000000000E+00  0.00000000000E+00  0.71667331425E+03  0.71667331425E+03  0.00000000000E+00 0.  1.
         -2   -1    0    0    0  501 -0.00000000000E+00 -0.00000000000E+00 -0.44207087288E+03  0.44207087288E+03  0.00000000000E+00 0. -1.
    9000007    2    1    2  502    0 -0.18323026879E+03  0.39929980119E+02 -0.22208075049E+03  0.49401722980E+03  0.39945641677E+03 0.  0.
    9000005    1    3    3    0    0 -0.17855745441E+02 -0.10336519755E+03 -0.25218814787E+03  0.27313559568E+03  0.99999687468E+00 0.  0.
          4    1    3    3  502    0 -0.16537452335E+03  0.14329517766E+03  0.30107397387E+02  0.22088163412E+03  0.00000000000E+00 0.  1.
   -9000007    1    1    2    0  501  0.18323026879E+03 -0.39929980119E+02  0.49668319186E+03  0.66472695732E+03  0.40000000000E+03 0.  1.
<mgrwt>
<rscale>  2 0.44153180E+03</rscale>
<asrwt>0</asrwt>
<pdfrwt beam="1">  1        2 0.11025743E+00 0.44153180E+03</pdfrwt>
<pdfrwt beam="2">  1       -2 0.68010904E-01 0.44153180E+03</pdfrwt>
<totfact> 0.81807678E+01</totfact>
</mgrwt>
</event>
<event>
 6    1  0.8938744E-004  0.6719298E+03  0.7818608E-02  0.9766478E-01
          2   -1    0    0  502    0  0.00000000000E+00  0.00000000000E+00  0.14418133786E+04  0.14418133786E+04  0.00000000000E+00 0.  1.
         -2   -1    0    0    0  501 -0.00000000000E+00 -0.00000000000E+00 -0.11129067468E+04  0.11129067468E+04  0.00000000000E+00 0. -1.
    9000007    2    1    2  502    0  0.52655115461E+03  0.12033708214E+03 -0.91840254264E+03  0.11378512859E+04  0.39938100445E+03 0.  0.
    9000005    1    3    3    0    0  0.47513235162E+03  0.24076035371E+03 -0.80130275174E+03  0.96218677990E+03  0.99999687468E+00 0.  0.
          4    1    3    3  502    0  0.51418802990E+02 -0.12042327157E+03 -0.11709979090E+03  0.17566450599E+03  0.00000000000E+00 0.  1.
   -9000007    1    1    2    0  501 -0.52655115461E+03 -0.12033708214E+03  0.12473091744E+04  0.14168688395E+04  0.40000000000E+03 0.  1.
<mgrwt>
<rscale>  2 0.67192980E+03</rscale>
<asrwt>0</asrwt>
<pdfrwt beam="1">  1        2 0.22181744E+00 0.67192980E+03</pdfrwt>
<pdfrwt beam="2">  1       -2 0.17121642E+00 0.67192980E+03</pdfrwt>
<totfact> 0.29798247E+00</totfact>
</mgrwt>
</event>
<event>
 6    1  0.8938744E-004  0.7705392E+03  0.7818608E-02  0.9603667E-01
         -1   -1    0    0    0  501 -0.00000000000E+00  0.00000000000E+00  0.47818490679E+03  0.47818490679E+03  0.00000000000E+00 0. -1.
          1   -1    0    0  502    0  0.00000000000E+00 -0.00000000000E+00 -0.12432853177E+04  0.12432853177E+04  0.00000000000E+00 0.  1.
    9000007    2    1    2  502    0  0.59419393116E+03 -0.28409112472E+03 -0.35116686301E+03  0.84676160042E+03  0.39989104428E+03 0.  0.
    9000005    1    3    3    0    0  0.36144149122E+03 -0.73546661520E+02  0.90968897301E+01  0.36896180885E+03  0.99999687468E+00 0.  0.
          4    1    3    3  502    0  0.23275243994E+03 -0.21054446320E+03 -0.36026375274E+03  0.47779979157E+03  0.00000000000E+00 0.  1.
   -9000007    1    1    2    0  501 -0.59419393116E+03  0.28409112472E+03 -0.41393354792E+03  0.87470862409E+03  0.40000000000E+03 0.  1.
<mgrwt>
<rscale>  2 0.77053917E+03</rscale>
<asrwt>0</asrwt>
<pdfrwt beam="1">  1        1 0.19127466E+00 0.77053917E+03</pdfrwt>
<pdfrwt beam="2">  1       -1 0.73566910E-01 0.77053917E+03</pdfrwt>
<totfact> 0.19038225E+01</totfact>
</mgrwt>
</event>
<event>
 6    1  0.8938744E-004  0.4342723E+03  0.7818608E-02  0.1032519E+00
         -2   -1    0    0    0  501 -0.00000000000E+00  0.00000000000E+00  0.44059044223E+03  0.44059044223E+03  0.00000000000E+00 0.  1.
          2   -1    0    0  502    0  0.00000000000E+00 -0.00000000000E+00 -0.47069491990E+03  0.47069491990E+03  0.00000000000E+00 0. -1.
    9000007    2    1    2  502    0  0.80534579916E+02 -0.14859942338E+03 -0.15220913120E+03  0.46020094253E+03  0.40006209604E+03 0.  0.
    9000005    1    3    3    0    0  0.60857695211E+02 -0.21676842921E+03 -0.25188892193E+03  0.33784795390E+03  0.99999687468E+00 0.  0.
          4    1    3    3  502    0  0.19676884705E+02  0.68169005823E+02  0.99679790732E+02  0.12235298863E+03  0.00000000000E+00 0.  1.
   -9000007    1    1    2    0  501 -0.80534579916E+02  0.14859942338E+03  0.12210465354E+03  0.45108441960E+03  0.40000000000E+03 0.  1.
<mgrwt>
<rscale>  2 0.43427232E+03</rscale>
<asrwt>0</asrwt>
<pdfrwt beam="1">  1        2 0.72414603E-01 0.43427232E+03</pdfrwt>
<pdfrwt beam="2">  1       -2 0.67783145E-01 0.43427232E+03</pdfrwt>
<totfact> 0.13554992E+02</totfact>
</mgrwt>
</event>
<event>
 6    1  0.8938744E-004  0.4923361E+03  0.7818608E-02  0.1015799E+00
         -3   -1    0    0    0  501 -0.00000000000E+00  0.00000000000E+00  0.33670990869E+03  0.33670990869E+03  0.00000000000E+00 0. -1.
          3   -1    0    0  502    0  0.00000000000E+00 -0.00000000000E+00 -0.72450125832E+03  0.72450125832E+03  0.00000000000E+00 0.  1.
    9000007    2    1    2  502    0  0.27487823710E+03 -0.92537807948E+02 -0.15093271285E+03  0.51328479884E+03  0.39567576344E+03 0.  0.
    9000005    1    3    3    0    0  0.24623880112E+03  0.11963360346E+03 -0.11144224912E+03  0.29557760595E+03  0.99999687468E+00 0.  0.
          4    1    3    3  502    0  0.28639435979E+02 -0.21217141140E+03 -0.39490463731E+02  0.21770719289E+03  0.00000000000E+00 0.  1.
   -9000007    1    1    2    0  501 -0.27487823710E+03  0.92537807948E+02 -0.23685863678E+03  0.54792636818E+03  0.40000000000E+03 0.  1.
<mgrwt>
<rscale>  2 0.49233611E+03</rscale>
<asrwt>0</asrwt>
<pdfrwt beam="1">  1        3 0.11146173E+00 0.49233611E+03</pdfrwt>
<pdfrwt beam="2">  1       -3 0.51801525E-01 0.49233611E+03</pdfrwt>
<totfact> 0.65260257E+00</totfact>
</mgrwt>
</event>
<event>
 6    1  0.8938744E-004  0.4651280E+03  0.7818608E-02  0.1023304E+00
          2   -1    0    0  502    0  0.00000000000E+00  0.00000000000E+00  0.41712461693E+04  0.41712461693E+04  0.00000000000E+00 0. -1.
         -2   -1    0    0    0  501 -0.00000000000E+00 -0.00000000000E+00 -0.55618374182E+02  0.55618374182E+02  0.00000000000E+00 0.  1.
    9000007    2    1    2  502    0  0.17419160938E+03 -0.16249063947E+03  0.15070565714E+04  0.15770740321E+04  0.39899507366E+03 0.  0.
    9000005    1    3    3    0    0  0.20846447834E+03 -0.18069630280E+03  0.15128828074E+04  0.15378309340E+04  0.99999687468E+00 0.  0.
          4    1    3    3  502    0 -0.34272868961E+02  0.18205663327E+02 -0.58262360543E+01  0.39243098127E+02  0.00000000000E+00 0.  1.
   -9000007    1    1    2    0  501 -0.17419160938E+03  0.16249063947E+03  0.26085712237E+04  0.26497905113E+04  0.40000000000E+03 0. -1.
<mgrwt>
<rscale>  2 0.46512803E+03</rscale>
<asrwt>0</asrwt>
<pdfrwt beam="1">  1        2 0.64172994E+00 0.46512803E+03</pdfrwt>
<pdfrwt beam="2">  1       -2 0.85566762E-02 0.46512803E+03</pdfrwt>
<totfact> 0.25835571E+01</totfact>
</mgrwt>
</event>
<event>
 6    1  0.8938744E-004  0.7724251E+03  0.7818608E-02  0.9600811E-01
          2   -1    0    0  502    0  0.00000000000E+00  0.00000000000E+00  0.16062796890E+04  0.16062796890E+04  0.00000000000E+00 0. -1.
         -2   -1    0    0    0  501 -0.00000000000E+00 -0.00000000000E+00 -0.57267252682E+03  0.57267252682E+03  0.00000000000E+00 0.  1.
    9000007    2    1    2  502    0  0.15964931423E+03 -0.64076854968E+03  0.11627822650E+04  0.13961633267E+04  0.40141898463E+03 0.  0.
    9000005    1    3    3    0    0 -0.21032003455E+02 -0.36660611629E+03  0.30388400942E+03  0.47664334764E+03  0.99999687468E+00 0.  0.
          4    1    3    3  502    0  0.18068131768E+03 -0.27416243338E+03  0.85889825561E+03  0.91951997908E+03  0.00000000000E+00 0.  1.
   -9000007    1    1    2    0  501 -0.15964931423E+03  0.64076854968E+03 -0.12917510281E+03  0.78278888915E+03  0.40000000000E+03 0.  1.
<mgrwt>
<rscale>  2 0.77242512E+03</rscale>
<asrwt>0</asrwt>
<pdfrwt beam="1">  1        2 0.24711995E+00 0.77242512E+03</pdfrwt>
<pdfrwt beam="2">  1       -2 0.88103466E-01 0.77242512E+03</pdfrwt>
<totfact> 0.12566253E+01</totfact>
</mgrwt>
</event>
<event>
 6    1  0.8938744E-004  0.5508959E+03  0.7818608E-02  0.1001287E+00
         -1   -1    0    0    0  501 -0.00000000000E+00  0.00000000000E+00  0.62528362966E+03  0.62528362966E+03  0.00000000000E+00 0. -1.
          1   -1    0    0  502    0  0.00000000000E+00 -0.00000000000E+00 -0.51951568510E+03  0.51951568510E+03  0.00000000000E+00 0.  1.
    9000007    2    1    2  502    0 -0.19957167887E+03  0.32153810101E+03 -0.93866352590E+02  0.55907800048E+03  0.40067656915E+03 0.  0.
    9000005    1    3    3    0    0 -0.21392591646E+02  0.32806876593E+03 -0.16409877722E+03  0.36744546103E+03  0.99999687468E+00 0.  0.
          4    1    3    3  502    0 -0.17817908722E+03 -0.65306649139E+01  0.70232424625E+02  0.19163253945E+03  0.00000000000E+00 0.  1.
   -9000007    1    1    2    0  501  0.19957167887E+03 -0.32153810101E+03  0.19963429715E+03  0.58572131428E+03  0.40000000000E+03 0.  1.
<mgrwt>
<rscale>  2 0.55089594E+03</rscale>
<asrwt>0</asrwt>
<pdfrwt beam="1">  1        1 0.79925490E-01 0.55089594E+03</pdfrwt>
<pdfrwt beam="2">  1       -1 0.96197482E-01 0.55089594E+03</pdfrwt>
<totfact> 0.45622235E+01</totfact>
</mgrwt>
</event>
<event>
 6    1  0.8938744E-004  0.5184317E+03  0.7818608E-02  0.1009077E+00
          2   -1    0    0  502    0  0.00000000000E+00  0.00000000000E+00  0.15486880722E+04  0.15486880722E+04  0.00000000000E+00 0. -1.
         -2   -1    0    0    0  501 -0.00000000000E+00 -0.00000000000E+00 -0.17930000018E+03  0.17930000018E+03  0.00000000000E+00 0.  1.
    9000007    2    1    2  502    0  0.11418406192E+03 -0.30918730428E+03  0.83961493423E+03  0.98684411426E+03  0.40034145294E+03 0.  0.
    9000005    1    3    3    0    0 -0.75848701261E+02 -0.29348847651E+03  0.35946450230E+03  0.47021722612E+03  0.99999687468E+00 0.  0.
          4    1    3    3  502    0  0.19003276318E+03 -0.15698827774E+02  0.48015043192E+03  0.51662688814E+03  0.00000000000E+00 0.  1.
   -9000007    1    1    2    0  501 -0.11418406192E+03  0.30918730428E+03  0.52977313775E+03  0.74114395809E+03  0.40000000000E+03 0.  1.
<mgrwt>
<rscale>  2 0.51843167E+03</rscale>
<asrwt>0</asrwt>
<pdfrwt beam="1">  1        2 0.23825969E+00 0.51843167E+03</pdfrwt>
<pdfrwt beam="2">  1       -2 0.27584616E-01 0.51843167E+03</pdfrwt>
<totfact> 0.14853280E+02</totfact>
</mgrwt>
</event>
<event>
 6    1  0.8938744E-004  0.4528971E+03  0.7818608E-02  0.1026862E+00
          1   -1    0    0  502    0  0.00000000000E+00  0.00000000000E+00  0.17644798049E+04  0.17644798049E+04  0.00000000000E+00 0. -1.
         -1   -1    0    0    0  501 -0.00000000000E+00 -0.00000000000E+00 -0.15034919378E+03  0.15034919378E+03  0.00000000000E+00 0.  1.
    9000007    2    1    2  502    0  0.99926010705E+02  0.18683839078E+03  0.35143013273E+03  0.57344676754E+03  0.40055494646E+03 0.  0.
    9000005    1    3    3    0    0  0.20881383160E+02 -0.11294331823E+03  0.19469608498E+03  0.22605262838E+03  0.99999687468E+00 0.  0.
          4    1    3    3  502    0  0.79044627545E+02  0.29978170901E+03  0.15673404775E+03  0.34739413916E+03  0.00000000000E+00 0.  1.
   -9000007    1    1    2    0  501 -0.99926010705E+02 -0.18683839078E+03  0.12627004784E+04  0.13413822311E+04  0.40000000000E+03 0. -1.
<mgrwt>
<rscale>  2 0.45289712E+03</rscale>
<asrwt>0</asrwt>
<pdfrwt beam="1">  1        1 0.27145842E+00 0.45289712E+03</pdfrwt>
<pdfrwt beam="2">  1       -1 0.23130646E-01 0.45289712E+03</pdfrwt>
<totfact> 0.73705122E+01</totfact>
</mgrwt>
</event>
<event>
 6    1  0.8938744E-004  0.4728885E+03  0.7818608E-02  0.1021108E+00
         -2   -1    0    0    0  501 -0.00000000000E+00  0.00000000000E+00  0.26244174217E+03  0.26244174217E+03  0.00000000000E+00 0.  1.
          2   -1    0    0  502    0  0.00000000000E+00 -0.00000000000E+00 -0.85297279456E+03  0.85297279456E+03  0.00000000000E+00 0. -1.
    9000007    2    1    2  502    0 -0.22184847502E+03  0.11937452531E+03 -0.27740929961E+03  0.54839402984E+03  0.40039114538E+03 0.  0.
    9000005    1    3    3    0    0 -0.58574299950E+02  0.16182344589E+03 -0.32958050094E+03  0.37180920221E+03  0.99999687468E+00 0.  0.
          4    1    3    3  502    0 -0.16327417507E+03 -0.42448920586E+02  0.52171201326E+02  0.17658482763E+03  0.00000000000E+00 0.  1.
   -9000007    1    1    2    0  501  0.22184847502E+03 -0.11937452531E+03 -0.31312175279E+03  0.56702050689E+03  0.40000000000E+03 0. -1.
<mgrwt>
<rscale>  2 0.47288847E+03</rscale>
<asrwt>0</asrwt>
<pdfrwt beam="1">  1        2 0.13122658E+00 0.47288847E+03</pdfrwt>
<pdfrwt beam="2">  1       -2 0.40375653E-01 0.47288847E+03</pdfrwt>
<totfact> 0.18878405E+02</totfact>
</mgrwt>
</event>
<event>
 6    1  0.8938744E-004  0.4176379E+03  0.7818608E-02  0.1037838E+00
          2   -1    0    0  502    0  0.00000000000E+00  0.00000000000E+00  0.21209575201E+04  0.21209575201E+04  0.00000000000E+00 0.  1.
         -2   -1    0    0    0  501 -0.00000000000E+00 -0.00000000000E+00 -0.10219775644E+03  0.10219775644E+03  0.00000000000E+00 0. -1.
    9000007    2    1    2  502    0  0.11964693199E+03  0.84730413302E+01  0.15007138676E+04  0.15577540959E+04  0.40008565345E+03 0.  0.
    9000005    1    3    3    0    0  0.22910365129E+03 -0.73263485757E+02  0.59474664378E+03  0.64154547123E+03  0.99999687468E+00 0.  0.
          4    1    3    3  502    0 -0.10945671930E+03  0.81736527088E+02  0.90596722383E+03  0.91620862466E+03  0.00000000000E+00 0.  1.
   -9000007    1    1    2    0  501 -0.11964693199E+03 -0.84730413302E+01  0.51804589601E+03  0.66540118059E+03  0.40000000000E+03 0.  1.
<mgrwt>
<rscale>  2 0.41763793E+03</rscale>
<asrwt>0</asrwt>
<pdfrwt beam="1">  1        2 0.32630112E+00 0.41763793E+03</pdfrwt>
<pdfrwt beam="2">  1       -2 0.15722733E-01 0.41763793E+03</pdfrwt>
<totfact> 0.19791395E+02</totfact>
</mgrwt>
</event>
<event>
 6    1  0.8938744E-004  0.5025263E+03  0.7818608E-02  0.1013122E+00
          2   -1    0    0  502    0  0.00000000000E+00  0.00000000000E+00  0.12930533382E+04  0.12930533382E+04  0.00000000000E+00 0.  1.
         -2   -1    0    0    0  501 -0.00000000000E+00 -0.00000000000E+00 -0.19805520796E+03  0.19805520796E+03  0.00000000000E+00 0. -1.
    9000007    2    1    2  502    0  0.13239129197E+03  0.27406897897E+03  0.45943961080E+03  0.68081483951E+03  0.39972844569E+03 0.  0.
    9000005    1    3    3    0    0 -0.13036607276E+03  0.98078542777E+02  0.25994816675E+03  0.30690187825E+03  0.99999687468E+00 0.  0.
          4    1    3    3  502    0  0.26275736473E+03  0.17599043619E+03  0.19949144405E+03  0.37391296126E+03  0.00000000000E+00 0.  1.
   -9000007    1    1    2    0  501 -0.13239129197E+03 -0.27406897897E+03  0.63555851945E+03  0.81029370667E+03  0.40000000000E+03 0. -1.
<mgrwt>
<rscale>  2 0.50252627E+03</rscale>
<asrwt>0</asrwt>
<pdfrwt beam="1">  1        2 0.19893128E+00 0.50252627E+03</pdfrwt>
<pdfrwt beam="2">  1       -2 0.30470033E-01 0.50252627E+03</pdfrwt>
<totfact> 0.17203722E+02</totfact>
</mgrwt>
</event>
<event>
 6    1  0.8938744E-004  0.4124437E+03  0.7818608E-02  0.1039554E+00
         -2   -1    0    0    0  501 -0.00000000000E+00  0.00000000000E+00  0.77866125302E+02  0.77866125302E+02  0.00000000000E+00 0.  1.
          2   -1    0    0  502    0  0.00000000000E+00 -0.00000000000E+00 -0.21920790348E+04  0.21920790348E+04  0.00000000000E+00 0. -1.
    9000007    2    1    2  502    0 -0.95028081652E+02 -0.13270023870E+02 -0.99388260022E+03  0.10764853025E+04  0.40225806845E+03 0.  0.
    9000005    1    3    3    0    0  0.13121395838E+03  0.50996549479E+02 -0.61203866013E+03  0.62802075795E+03  0.99999687468E+00 0.  0.
          4    1    3    3  502    0 -0.22624204003E+03 -0.64266573350E+02 -0.38184394009E+03  0.44846454454E+03  0.00000000000E+00 0.  1.
   -9000007    1    1    2    0  501  0.95028081652E+02  0.13270023870E+02 -0.11203303093E+04  0.11934598576E+04  0.40000000000E+03 0. -1.
<mgrwt>
<rscale>  2 0.41244369E+03</rscale>
<asrwt>0</asrwt>
<pdfrwt beam="1">  1        2 0.33724296E+00 0.41244369E+03</pdfrwt>
<pdfrwt beam="2">  1       -2 0.11979403E-01 0.41244369E+03</pdfrwt>
<totfact> 0.28466217E+02</totfact>
</mgrwt>
</event>
<event>
 6    1  0.8938744E-004  0.4803134E+03  0.7818608E-02  0.1019049E+00
         -2   -1    0    0    0  501 -0.00000000000E+00  0.00000000000E+00  0.16796179016E+03  0.16796179016E+03  0.00000000000E+00 0. -1.
          2   -1    0    0  502    0  0.00000000000E+00 -0.00000000000E+00 -0.16787040194E+04  0.16787040194E+04  0.00000000000E+00 0.  1.
    9000007    2    1    2  502    0 -0.23379483410E+03  0.11911477572E+03 -0.36419971995E+03  0.60432604933E+03  0.40462350851E+03 0.  0.
    9000005    1    3    3    0    0 -0.20151680100E+03  0.39917172203E+02  0.23986769706E+02  0.20683028510E+03  0.99999687468E+00 0.  0.
          4    1    3    3  502    0 -0.32278033104E+02  0.79197603518E+02 -0.38818648966E+03  0.39749576423E+03  0.00000000000E+00 0.  1.
   -9000007    1    1    2    0  501  0.23379483410E+03 -0.11911477572E+03 -0.11465425093E+04  0.12423397602E+04  0.40000000000E+03 0.  1.
<mgrwt>
<rscale>  2 0.48031338E+03</rscale>
<asrwt>0</asrwt>
<pdfrwt beam="1">  1        2 0.25826215E+00 0.48031338E+03</pdfrwt>
<pdfrwt beam="2">  1       -2 0.25840276E-01 0.48031338E+03</pdfrwt>
<totfact> 0.14279543E+02</totfact>
</mgrwt>
</event>
<event>
 6    1  0.8938744E-004  0.8531660E+03  0.7818608E-02  0.9486097E-01
          1   -1    0    0  502    0  0.00000000000E+00  0.00000000000E+00  0.15153494627E+04  0.15153494627E+04  0.00000000000E+00 0.  1.
         -1   -1    0    0    0  501 -0.00000000000E+00 -0.00000000000E+00 -0.55616656513E+03  0.55616656513E+03  0.00000000000E+00 0. -1.
    9000007    2    1    2  502    0  0.57264471986E+03 -0.49011821012E+03  0.97094196452E+02  0.85853014018E+03  0.39938563262E+03 0.  0.
    9000005    1    3    3    0    0  0.62305231249E+03 -0.47936989379E+03  0.13082165268E+03  0.79693474261E+03  0.99999687468E+00 0.  0.
          4    1    3    3  502    0 -0.50407592630E+02 -0.10748316329E+02 -0.33727456226E+02  0.61595397573E+02  0.00000000000E+00 0.  1.
   -9000007    1    1    2    0  501 -0.57264471986E+03  0.49011821012E+03  0.86208870116E+03  0.12129858877E+04  0.40000000000E+03 0.  1.
<mgrwt>
<rscale>  2 0.85316601E+03</rscale>
<asrwt>0</asrwt>
<pdfrwt beam="1">  1        1 0.23313069E+00 0.85316601E+03</pdfrwt>
<pdfrwt beam="2">  1       -1 0.85564087E-01 0.85316601E+03</pdfrwt>
<totfact> 0.88220230E+00</totfact>
</mgrwt>
</event>
<event>
 6    1  0.8938744E-004  0.4420953E+03  0.7818608E-02  0.1030106E+00
         -1   -1    0    0    0  501 -0.00000000000E+00  0.00000000000E+00  0.13342298728E+03  0.13342298728E+03  0.00000000000E+00 0.  1.
          1   -1    0    0  502    0  0.00000000000E+00 -0.00000000000E+00 -0.15476907862E+04  0.15476907862E+04  0.00000000000E+00 0. -1.
    9000007    2    1    2  502    0  0.13528970180E+03  0.13050295950E+03 -0.51289369956E+03  0.67721657115E+03  0.40028491271E+03 0.  0.
    9000005    1    3    3    0    0  0.78387119987E+02  0.20945880208E+03 -0.86396389012E+02  0.23975584743E+03  0.99999687468E+00 0.  0.
          4    1    3    3  502    0  0.56902581815E+02 -0.78955842585E+02 -0.42649731054E+03  0.43746072372E+03  0.00000000000E+00 0.  1.
   -9000007    1    1    2    0  501 -0.13528970180E+03 -0.13050295950E+03 -0.90137409934E+03  0.10038972023E+04  0.40000000000E+03 0. -1.
<mgrwt>
<rscale>  2 0.44209535E+03</rscale>
<asrwt>0</asrwt>
<pdfrwt beam="1">  1        1 0.23810629E+00 0.44209535E+03</pdfrwt>
<pdfrwt beam="2">  1       -1 0.20526612E-01 0.44209535E+03</pdfrwt>
<totfact> 0.12555469E+02</totfact>
</mgrwt>
</event>
<event>
 6    1  0.8938744E-004  0.6776151E+03  0.7818608E-02  0.9756298E-01
         -1   -1    0    0    0  501 -0.00000000000E+00  0.00000000000E+00  0.60517220805E+03  0.60517220805E+03  0.00000000000E+00 0.  1.
          1   -1    0    0  502    0  0.00000000000E+00 -0.00000000000E+00 -0.81198714994E+03  0.81198714994E+03  0.00000000000E+00 0. -1.
    9000007    2    1    2  502    0  0.40392458831E+03 -0.36806153805E+03 -0.28493327301E+03  0.73545059137E+03  0.40134303712E+03 0.  0.
    9000005    1    3    3    0    0  0.34942250106E+03 -0.11119536998E+03 -0.27492507132E+02  0.36771909455E+03  0.99999687468E+00 0.  0.
          4    1    3    3  502    0  0.54502087246E+02 -0.25686616807E+03 -0.25744076588E+03  0.36773149682E+03  0.00000000000E+00 0.  1.
   -9000007    1    1    2    0  501 -0.40392458831E+03  0.36806153805E+03  0.78118331118E+02  0.68170876662E+03  0.40000000000E+03 0.  1.
<mgrwt>
<rscale>  2 0.67761506E+03</rscale>
<asrwt>0</asrwt>
<pdfrwt beam="1">  1        1 0.12492110E+00 0.67761506E+03</pdfrwt>
<pdfrwt beam="2">  1       -1 0.93103417E-01 0.67761506E+03</pdfrwt>
<totfact> 0.25033216E+01</totfact>
</mgrwt>
</event>
<event>
 6    1  0.8938744E-004  0.4236256E+03  0.7818608E-02  0.1035893E+00
          2   -1    0    0  502    0  0.00000000000E+00  0.00000000000E+00  0.11655550242E+04  0.11655550242E+04  0.00000000000E+00 0. -1.
         -2   -1    0    0    0  501 -0.00000000000E+00 -0.00000000000E+00 -0.44999166110E+03  0.44999166110E+03  0.00000000000E+00 0.  1.
    9000007    2    1    2  502    0 -0.78456674973E+02  0.11353960449E+03 -0.29724155924E+03  0.51790352728E+03  0.40102970887E+03 0.  0.
    9000005    1    3    3    0    0 -0.51770239607E+02 -0.47534428411E+02  0.80211735739E+02  0.10665177981E+03  0.99999687468E+00 0.  0.
          4    1    3    3  502    0 -0.26686435366E+02  0.16107403290E+03 -0.37745329498E+03  0.41125174747E+03  0.00000000000E+00 0.  1.
   -9000007    1    1    2    0  501  0.78456674973E+02 -0.11353960449E+03  0.10128049223E+04  0.10976431580E+04  0.40000000000E+03 0. -1.
<mgrwt>
<rscale>  2 0.42362558E+03</rscale>
<asrwt>0</asrwt>
<pdfrwt beam="1">  1        2 0.17931616E+00 0.42362558E+03</pdfrwt>
<pdfrwt beam="2">  1       -2 0.69229487E-01 0.42362558E+03</pdfrwt>
<totfact> 0.40164486E+01</totfact>
</mgrwt>
</event>
<event>
 6    1  0.8938744E-004  0.4204365E+03  0.7818608E-02  0.1036924E+00
         -1   -1    0    0    0  501 -0.00000000000E+00  0.00000000000E+00  0.61237295066E+03  0.61237295066E+03  0.00000000000E+00 0. -1.
          1   -1    0    0  502    0  0.00000000000E+00 -0.00000000000E+00 -0.36832506545E+03  0.36832506545E+03  0.00000000000E+00 0.  1.
    9000007    2    1    2  502    0  0.19496024344E+02  0.13096979458E+03 -0.10622893433E+03  0.43276824656E+03  0.39808364282E+03 0.  0.
    9000005    1    3    3    0    0 -0.16151231360E+03  0.10980846243E+03  0.39698694600E+02  0.19930156099E+03  0.99999687468E+00 0.  0.
          4    1    3    3  502    0  0.18100833795E+03  0.21161332142E+02 -0.14592762893E+03  0.23346668556E+03  0.00000000000E+00 0.  1.
   -9000007    1    1    2    0  501 -0.19496024344E+02 -0.13096979458E+03  0.35027681954E+03  0.54792976955E+03  0.40000000000E+03 0. -1.
<mgrwt>
<rscale>  2 0.42043647E+03</rscale>
<asrwt>0</asrwt>
<pdfrwt beam="1">  1        1 0.56665395E-01 0.42043647E+03</pdfrwt>
<pdfrwt beam="2">  1       -1 0.94211223E-01 0.42043647E+03</pdfrwt>
<totfact> 0.76684760E+01</totfact>
</mgrwt>
</event>
<event>
 6    1  0.8938744E-004  0.4790336E+03  0.7818608E-02  0.1019401E+00
         -1   -1    0    0    0  501 -0.00000000000E+00  0.00000000000E+00  0.76592313359E+03  0.76592313359E+03  0.00000000000E+00 0.  1.
          1   -1    0    0  502    0  0.00000000000E+00 -0.00000000000E+00 -0.32721704254E+03  0.32721704254E+03  0.00000000000E+00 0. -1.
    9000007    2    1    2  502    0  0.25133969201E+03 -0.79318739073E+02  0.37813508066E+03  0.61030278067E+03  0.40002530136E+03 0.  0.
    9000005    1    3    3    0    0  0.30321295450E+03 -0.89232067997E+02  0.10642569026E+03  0.33350844858E+03  0.99999687468E+00 0.  0.
          4    1    3    3  502    0 -0.51873262482E+02  0.99133289235E+01  0.27170939039E+03  0.27679433209E+03  0.00000000000E+00 0.  1.
   -9000007    1    1    2    0  501 -0.25133969201E+03  0.79318739073E+02  0.60571010394E+02  0.48283739546E+03  0.40000000000E+03 0. -1.
<mgrwt>
<rscale>  2 0.47903364E+03</rscale>
<asrwt>0</asrwt>
<pdfrwt beam="1">  1        1 0.50341084E-01 0.47903364E+03</pdfrwt>
<pdfrwt beam="2">  1       -1 0.11783433E+00 0.47903364E+03</pdfrwt>
<totfact> 0.53032913E+01</totfact>
</mgrwt>
</event>
<event>
 6    1  0.8938744E-004  0.5942351E+03  0.7818608E-02  0.9917439E-01
         -2   -1    0    0    0  501 -0.00000000000E+00  0.00000000000E+00  0.39398054184E+03  0.39398054184E+03  0.00000000000E+00 0.  1.
          2   -1    0    0  502    0  0.00000000000E+00 -0.00000000000E+00 -0.10588301800E+04  0.10588301800E+04  0.00000000000E+00 0. -1.
    9000007    2    1    2  502    0 -0.38245964987E+03 -0.21662112039E+03 -0.47771576833E+02  0.59608122699E+03  0.39978820897E+03 0.  0.
    9000005    1    3    3    0    0 -0.39812314406E+03 -0.24079363235E+02 -0.55802127150E+02  0.40273655280E+03  0.99999687468E+00 0.  0.
          4    1    3    3  502    0  0.15663494186E+02 -0.19254175716E+03  0.80305503173E+01  0.19334467419E+03  0.00000000000E+00 0.  1.
   -9000007    1    1    2    0  501  0.38245964987E+03  0.21662112039E+03 -0.61707806137E+03  0.85672949488E+03  0.40000000000E+03 0. -1.
<mgrwt>
<rscale>  2 0.59423513E+03</rscale>
<asrwt>0</asrwt>
<pdfrwt beam="1">  1        2 0.16289695E+00 0.59423513E+03</pdfrwt>
<pdfrwt beam="2">  1       -2 0.60612391E-01 0.59423513E+03</pdfrwt>
<totfact> 0.60398050E+01</totfact>
</mgrwt>
</event>
<event>
 6    1  0.8938744E-004  0.4257330E+03  0.7818608E-02  0.1035216E+00
          2   -1    0    0  502    0  0.00000000000E+00  0.00000000000E+00  0.64535929846E+03  0.64535929846E+03  0.00000000000E+00 0. -1.
         -2   -1    0    0    0  501 -0.00000000000E+00 -0.00000000000E+00 -0.28908981977E+03  0.28908981977E+03  0.00000000000E+00 0.  1.
    9000007    2    1    2  502    0 -0.14486796719E+03 -0.10243856560E+02  0.99325322351E+02  0.43734554352E+03  0.40039223302E+03 0.  0.
    9000005    1    3    3    0    0 -0.15945256987E+03  0.15154710205E+03 -0.39691750777E+02  0.22353541386E+03  0.99999687468E+00 0.  0.
          4    1    3    3  502    0  0.14584602684E+02 -0.16179095861E+03  0.13901707313E+03  0.21381012966E+03  0.00000000000E+00 0.  1.
   -9000007    1    1    2    0  501  0.14486796719E+03  0.10243856560E+02  0.25694415633E+03  0.49710357471E+03  0.40000000000E+03 0. -1.
<mgrwt>
<rscale>  2 0.42573298E+03</rscale>
<asrwt>0</asrwt>
<pdfrwt beam="1">  1        2 0.99286045E-01 0.42573298E+03</pdfrwt>
<pdfrwt beam="2">  1       -2 0.44475357E-01 0.42573298E+03</pdfrwt>
<totfact> 0.22344981E+02</totfact>
</mgrwt>
</event>
<event>
 6    1  0.8938744E-004  0.4600621E+03  0.7818608E-02  0.1024763E+00
          4   -1    0    0  502    0  0.00000000000E+00  0.00000000000E+00  0.75121064111E+03  0.75121064111E+03  0.00000000000E+00 0.  1.
         -4   -1    0    0    0  501 -0.00000000000E+00 -0.00000000000E+00 -0.50989665631E+03  0.50989665631E+03  0.00000000000E+00 0. -1.
    9000007    2    1    2  502    0  0.22691516018E+03 -0.16237129415E+02  0.54241933918E+03  0.71118133084E+03  0.39975744086E+03 0.  0.
    9000005    1    3    3    0    0  0.27984769019E+03 -0.14486659638E+03  0.32197131104E+03  0.45051923997E+03  0.99999687468E+00 0.  0.
          4    1    3    3  502    0 -0.52932530010E+02  0.12862946697E+03  0.22044802814E+03  0.26066209087E+03  0.00000000000E+00 0.  1.
   -9000007    1    1    2    0  501 -0.22691516018E+03  0.16237129415E+02 -0.30110535438E+03  0.54992596659E+03  0.40000000000E+03 0. -1.
<mgrwt>
<rscale>  2 0.46006208E+03</rscale>
<asrwt>0</asrwt>
<pdfrwt beam="1">  1        4 0.11557087E+00 0.46006208E+03</pdfrwt>
<pdfrwt beam="2">  1       -4 0.78445639E-01 0.46006208E+03</pdfrwt>
<totfact> 0.16420677E+00</totfact>
</mgrwt>
</event>
<event>
 6    1  0.8938744E-004  0.4641072E+03  0.7818608E-02  0.1023597E+00
          2   -1    0    0  502    0  0.00000000000E+00  0.00000000000E+00  0.23887808342E+04  0.23887808342E+04  0.00000000000E+00 0. -1.
         -2   -1    0    0    0  501 -0.00000000000E+00 -0.00000000000E+00 -0.91441230427E+02  0.91441230427E+02  0.00000000000E+00 0.  1.
    9000007    2    1    2  502    0 -0.23390358542E+03  0.24324245162E+02  0.12951524007E+04  0.13758300390E+04  0.40023243137E+03 0.  0.
    9000005    1    3    3    0    0  0.19141623409E+02  0.15037576706E+03  0.24340815540E+03  0.28675390699E+03  0.99999687468E+00 0.  0.
          4    1    3    3  502    0 -0.25304520883E+03 -0.12605152190E+03  0.10517442453E+04  0.10890761320E+04  0.00000000000E+00 0.  1.
   -9000007    1    1    2    0  501  0.23390358542E+03 -0.24324245162E+02  0.10021872031E+04  0.11043920256E+04  0.40000000000E+03 0. -1.
<mgrwt>
<rscale>  2 0.46410725E+03</rscale>
<asrwt>0</asrwt>
<pdfrwt beam="1">  1        2 0.36750470E+00 0.46410725E+03</pdfrwt>
<pdfrwt beam="2">  1       -2 0.14067883E-01 0.46410725E+03</pdfrwt>
<totfact> 0.16913377E+02</totfact>
</mgrwt>
</event>
<event>
 6    1  0.8938744E-004  0.4096733E+03  0.7818608E-02  0.1040481E+00
          2   -1    0    0  502    0  0.00000000000E+00  0.00000000000E+00  0.19088133671E+04  0.19088133671E+04  0.00000000000E+00 0. -1.
         -2   -1    0    0    0  501 -0.00000000000E+00 -0.00000000000E+00 -0.87979500196E+02  0.87979500196E+02  0.00000000000E+00 0.  1.
    9000007    2    1    2  502    0  0.12490920566E+02 -0.88601096938E+02  0.88507429737E+03  0.97519992025E+03  0.39956500736E+03 0.  0.
    9000005    1    3    3    0    0 -0.13815253236E+03 -0.17707541440E+03  0.38796182549E+03  0.44828250313E+03  0.99999687468E+00 0.  0.
          4    1    3    3  502    0  0.15064345293E+03  0.88474317464E+02  0.49711247188E+03  0.52691741712E+03  0.00000000000E+00 0.  1.
   -9000007    1    1    2    0  501 -0.12490920566E+02  0.88601096938E+02  0.93575956948E+03  0.10215929470E+04  0.40000000000E+03 0.  1.
<mgrwt>
<rscale>  2 0.40967327E+03</rscale>
<asrwt>0</asrwt>
<pdfrwt beam="1">  1        2 0.29366356E+00 0.40967327E+03</pdfrwt>
<pdfrwt beam="2">  1       -2 0.13535309E-01 0.40967327E+03</pdfrwt>
<totfact> 0.33045658E+02</totfact>
</mgrwt>
</event>
<event>
 6    1  0.8938744E-004  0.7995540E+03  0.7818608E-02  0.9560663E-01
         -1   -1    0    0    0  501 -0.00000000000E+00  0.00000000000E+00  0.71321966063E+03  0.71321966063E+03  0.00000000000E+00 0. -1.
          1   -1    0    0  502    0  0.00000000000E+00 -0.00000000000E+00 -0.15658522358E+04  0.15658522358E+04  0.00000000000E+00 0.  1.
    9000007    2    1    2  502    0  0.68598343556E+03 -0.94156845358E+02  0.31884309005E+03  0.86069464775E+03  0.39961928782E+03 0.  0.
    9000005    1    3    3    0    0  0.65124855487E+03  0.36324775212E+02  0.20395280242E+03  0.68340464962E+03  0.99999687468E+00 0.  0.
          4    1    3    3  502    0  0.34734880691E+02 -0.13048162057E+03  0.11489028763E+03  0.17728999813E+03  0.00000000000E+00 0.  1.
   -9000007    1    1    2    0  501 -0.68598343556E+03  0.94156845358E+02 -0.11714756653E+04  0.14183772487E+04  0.40000000000E+03 0.  1.
<mgrwt>
<rscale>  2 0.79955397E+03</rscale>
<asrwt>0</asrwt>
<pdfrwt beam="1">  1        1 0.24090034E+00 0.79955397E+03</pdfrwt>
<pdfrwt beam="2">  1       -1 0.10972610E+00 0.79955397E+03</pdfrwt>
<totfact> 0.46794107E+00</totfact>
</mgrwt>
</event>
<event>
 6    1  0.8938744E-004  0.4254153E+03  0.7818608E-02  0.1035318E+00
          2   -1    0    0  502    0  0.00000000000E+00  0.00000000000E+00  0.26916674483E+04  0.26916674483E+04  0.00000000000E+00 0.  1.
         -2   -1    0    0    0  501 -0.00000000000E+00 -0.00000000000E+00 -0.68687161466E+02  0.68687161466E+02  0.00000000000E+00 0. -1.
    9000007    2    1    2  502    0  0.33193158789E+02  0.14123394446E+03  0.15118184059E+04  0.15705102760E+04  0.39982348840E+03 0.  0.
    9000005    1    3    3    0    0 -0.59809146871E+02 -0.16014879081E+02  0.16516262238E+02  0.64088979657E+02  0.99999687468E+00 0.  0.
          4    1    3    3  502    0  0.93002305660E+02  0.15724882354E+03  0.14953021437E+04  0.15064212964E+04  0.00000000000E+00 0.  1.
   -9000007    1    1    2    0  501 -0.33193158789E+02 -0.14123394446E+03  0.11111618810E+04  0.11898443338E+04  0.40000000000E+03 0. -1.
<mgrwt>
<rscale>  2 0.42541534E+03</rscale>
<asrwt>0</asrwt>
<pdfrwt beam="1">  1        2 0.41410260E+00 0.42541534E+03</pdfrwt>
<pdfrwt beam="2">  1       -2 0.10567258E-01 0.42541534E+03</pdfrwt>
<totfact> 0.18422696E+02</totfact>
</mgrwt>
</event>
<event>
 6    1  0.8938744E-004  0.6079685E+03  0.7818608E-02  0.9889010E-01
          2   -1    0    0  502    0  0.00000000000E+00  0.00000000000E+00  0.24473543697E+03  0.24473543697E+03  0.00000000000E+00 0. -1.
         -2   -1    0    0    0  501 -0.00000000000E+00 -0.00000000000E+00 -0.15126063255E+04  0.15126063255E+04  0.00000000000E+00 0.  1.
    9000007    2    1    2  502    0  0.40167272940E+03 -0.22050357932E+03 -0.66790017334E+03  0.90298371743E+03  0.39915678917E+03 0.  0.
    9000005    1    3    3    0    0  0.34217629329E+03 -0.65011758155E+02 -0.64752518674E+03  0.73525574588E+03  0.99999687468E+00 0.  0.
          4    1    3    3  502    0  0.59496436117E+02 -0.15549182117E+03 -0.20374986601E+02  0.16772797155E+03  0.00000000000E+00 0.  1.
   -9000007    1    1    2    0  501 -0.40167272940E+03  0.22050357932E+03 -0.59997071518E+03  0.85435804503E+03  0.40000000000E+03 0.  1.
<mgrwt>
<rscale>  2 0.60796853E+03</rscale>
<asrwt>0</asrwt>
<pdfrwt beam="1">  1        2 0.37651606E-01 0.60796853E+03</pdfrwt>
<pdfrwt beam="2">  1       -2 0.23270866E+00 0.60796853E+03</pdfrwt>
<totfact> 0.11771480E+01</totfact>
</mgrwt>
</event>
<event>
 6    1  0.8938744E-004  0.8068746E+03  0.7818608E-02  0.9550119E-01
         -2   -1    0    0    0  501 -0.00000000000E+00  0.00000000000E+00  0.15929940284E+03  0.15929940284E+03  0.00000000000E+00 0. -1.
          2   -1    0    0  502    0  0.00000000000E+00 -0.00000000000E+00 -0.42565629191E+04  0.42565629191E+04  0.00000000000E+00 0.  1.
    9000007    2    1    2  502    0  0.41880915197E+03  0.56150703183E+03 -0.16084092004E+04  0.17995505939E+04  0.40088767956E+03 0.  0.
    9000005    1    3    3    0    0  0.49613088593E+02  0.23283034420E+03 -0.21394755648E+03  0.32007184297E+03  0.99999687468E+00 0.  0.
          4    1    3    3  502    0  0.36919606337E+03  0.32867668763E+03 -0.13944616439E+04  0.14794787510E+04  0.00000000000E+00 0.  1.
   -9000007    1    1    2    0  501 -0.41880915197E+03 -0.56150703183E+03 -0.24888543159E+04  0.26163117280E+04  0.40000000000E+03 0.  1.
<mgrwt>
<rscale>  2 0.80687460E+03</rscale>
<asrwt>0</asrwt>
<pdfrwt beam="1">  1        2 0.65485588E+00 0.80687460E+03</pdfrwt>
<pdfrwt beam="2">  1       -2 0.24507599E-01 0.80687460E+03</pdfrwt>
<totfact> 0.34046853E+00</totfact>
</mgrwt>
</event>
<event>
 6    1  0.8938744E-004  0.5139427E+03  0.7818608E-02  0.1010202E+00
          1   -1    0    0  502    0  0.00000000000E+00  0.00000000000E+00  0.84868560193E+03  0.84868560193E+03  0.00000000000E+00 0. -1.
         -1   -1    0    0    0  501 -0.00000000000E+00 -0.00000000000E+00 -0.55348471988E+03  0.55348471988E+03  0.00000000000E+00 0.  1.
    9000007    2    1    2  502    0  0.19110068296E+03  0.25950204869E+03  0.61146789333E+03  0.79894100661E+03  0.40069060778E+03 0.  0.
    9000005    1    3    3    0    0  0.58915712403E+02  0.33956283488E+03  0.32635845997E+03  0.47464178534E+03  0.99999687468E+00 0.  0.
          4    1    3    3  502    0  0.13218497056E+03 -0.80060786190E+02  0.28510943336E+03  0.32429922127E+03  0.00000000000E+00 0.  1.
   -9000007    1    1    2    0  501 -0.19110068296E+03 -0.25950204869E+03 -0.31626701128E+03  0.60322931521E+03  0.40000000000E+03 0.  1.
<mgrwt>
<rscale>  2 0.51394272E+03</rscale>
<asrwt>0</asrwt>
<pdfrwt beam="1">  1        1 0.13056702E+00 0.51394272E+03</pdfrwt>
<pdfrwt beam="2">  1       -1 0.85151495E-01 0.51394272E+03</pdfrwt>
<totfact> 0.28982954E+01</totfact>
</mgrwt>
</event>
<event>
 6    1  0.8938744E-004  0.4675952E+03  0.7818608E-02  0.1022601E+00
         -1   -1    0    0    0  501 -0.00000000000E+00  0.00000000000E+00  0.20985044376E+03  0.20985044376E+03  0.00000000000E+00 0. -1.
          1   -1    0    0  502    0  0.00000000000E+00 -0.00000000000E+00 -0.10421389145E+04  0.10421389145E+04  0.00000000000E+00 0.  1.
    9000007    2    1    2  502    0 -0.25584389501E+02  0.24163117503E+03 -0.42502590191E+03  0.63158385725E+03  0.39901248817E+03 0.  0.
    9000005    1    3    3    0    0  0.11168920090E+03  0.15770061526E+03 -0.18209162598E+02  0.19410444417E+03  0.99999687468E+00 0.  0.
          4    1    3    3  502    0 -0.13727359040E+03  0.83930559766E+02 -0.40681673931E+03  0.43747941308E+03  0.00000000000E+00 0.  1.
   -9000007    1    1    2    0  501  0.25584389501E+02 -0.24163117503E+03 -0.40726256887E+03  0.62040550105E+03  0.40000000000E+03 0. -1.
<mgrwt>
<rscale>  2 0.46759524E+03</rscale>
<asrwt>0</asrwt>
<pdfrwt beam="1">  1        1 0.16032906E+00 0.46759524E+03</pdfrwt>
<pdfrwt beam="2">  1       -1 0.32284683E-01 0.46759524E+03</pdfrwt>
<totfact> 0.13140745E+02</totfact>
</mgrwt>
</event>
<event>
 6    1  0.8938744E-004  0.5004100E+03  0.7818608E-02  0.1013672E+00
          1   -1    0    0  502    0  0.00000000000E+00  0.00000000000E+00  0.50189687492E+03  0.50189687492E+03  0.00000000000E+00 0.  1.
         -1   -1    0    0    0  501 -0.00000000000E+00 -0.00000000000E+00 -0.89946272429E+03  0.89946272429E+03  0.00000000000E+00 0. -1.
    9000007    2    1    2  502    0  0.24798012565E+03  0.17012980204E+03  0.26879506159E+03  0.56800783920E+03  0.39992977884E+03 0.  0.
    9000005    1    3    3    0    0 -0.10046853998E+03 -0.16313039459E+02  0.82900582955E+02  0.13127661418E+03  0.99999687468E+00 0.  0.
          4    1    3    3  502    0  0.34844866563E+03  0.18644284150E+03  0.18589447864E+03  0.43673122503E+03  0.00000000000E+00 0.  1.
   -9000007    1    1    2    0  501 -0.24798012565E+03 -0.17012980204E+03 -0.66636091096E+03  0.83335176001E+03  0.40000000000E+03 0. -1.
<mgrwt>
<rscale>  2 0.50041004E+03</rscale>
<asrwt>0</asrwt>
<pdfrwt beam="1">  1        1 0.77214905E-01 0.50041004E+03</pdfrwt>
<pdfrwt beam="2">  1       -1 0.13837888E+00 0.50041004E+03</pdfrwt>
<totfact> 0.20202167E+01</totfact>
</mgrwt>
</event>
<event>
 6    1  0.8938744E-004  0.4215996E+03  0.7818608E-02  0.1036547E+00
          2   -1    0    0  502    0  0.00000000000E+00  0.00000000000E+00  0.11473155305E+04  0.11473155305E+04  0.00000000000E+00 0.  1.
         -2   -1    0    0    0  501 -0.00000000000E+00 -0.00000000000E+00 -0.16274515492E+03  0.16274515492E+03  0.00000000000E+00 0. -1.
    9000007    2    1    2  502    0  0.13131069032E+03  0.66995533692E+01  0.34929344918E+03  0.54791624068E+03  0.40114699520E+03 0.  0.
    9000005    1    3    3    0    0  0.47622017223E+02 -0.11097708079E+03 -0.44326399115E+02  0.12864524335E+03  0.99999687468E+00 0.  0.
          4    1    3    3  502    0  0.83688673095E+02  0.11767663416E+03  0.39361984829E+03  0.41927099733E+03  0.00000000000E+00 0.  1.
   -9000007    1    1    2    0  501 -0.13131069032E+03 -0.66995533692E+01  0.63527692636E+03  0.76214444469E+03  0.40000000000E+03 0.  1.
<mgrwt>
<rscale>  2 0.42159962E+03</rscale>
<asrwt>0</asrwt>
<pdfrwt beam="1">  1        2 0.17651008E+00 0.42159962E+03</pdfrwt>
<pdfrwt beam="2">  1       -2 0.25037717E-01 0.42159962E+03</pdfrwt>
<totfact> 0.30094989E+02</totfact>
</mgrwt>
</event>
<event>
 6    1  0.8938744E-004  0.5634849E+03  0.7818608E-02  0.9984200E-01
         -1   -1    0    0    0  501 -0.00000000000E+00  0.00000000000E+00  0.15689535246E+03  0.15689535246E+03  0.00000000000E+00 0. -1.
          1   -1    0    0  502    0  0.00000000000E+00 -0.00000000000E+00 -0.20279621935E+04  0.20279621935E+04  0.00000000000E+00 0.  1.
    9000007    2    1    2  502    0  0.22575680479E+03  0.32723363308E+03 -0.88490688697E+03  0.10488296235E+04  0.39866702278E+03 0.  0.
    9000005    1    3    3    0    0  0.48418551933E+02  0.20166760451E+03 -0.92362430293E+02  0.22703743613E+03  0.99999687468E+00 0.  0.
          4    1    3    3  502    0  0.17733825286E+03  0.12556602857E+03 -0.79254445668E+03  0.82179218740E+03  0.00000000000E+00 0.  1.
   -9000007    1    1    2    0  501 -0.22575680479E+03 -0.32723363308E+03 -0.98615995403E+03  0.11360279224E+04  0.40000000000E+03 0.  1.
<mgrwt>
<rscale>  2 0.56348490E+03</rscale>
<asrwt>0</asrwt>
<pdfrwt beam="1">  1        1 0.31199415E+00 0.56348490E+03</pdfrwt>
<pdfrwt beam="2">  1       -1 0.24137749E-01 0.56348490E+03</pdfrwt>
<totfact> 0.45066027E+01</totfact>
</mgrwt>
</event>
<event>
 6    1  0.8938744E-004  0.4334971E+03  0.7818608E-02  0.1032761E+00
         -1   -1    0    0    0  501 -0.00000000000E+00  0.00000000000E+00  0.14068934858E+03  0.14068934858E+03  0.00000000000E+00 0. -1.
          1   -1    0    0  502    0  0.00000000000E+00 -0.00000000000E+00 -0.14502342846E+04  0.14502342846E+04  0.00000000000E+00 0.  1.
    9000007    2    1    2  502    0  0.15176498822E+03 -0.52851036106E+02 -0.88164676432E+03  0.98353356988E+03  0.40523008571E+03 0.  0.
    9000005    1    3    3    0    0  0.79919398268E+01  0.11784593035E+03 -0.60725129812E+02  0.13281594704E+03  0.99999687468E+00 0.  0.
          4    1    3    3  502    0  0.14377304839E+03 -0.17069696646E+03 -0.82092163451E+03  0.85071762284E+03  0.00000000000E+00 0.  1.
   -9000007    1    1    2    0  501 -0.15176498822E+03  0.52851036106E+02 -0.42789817171E+03  0.60739006332E+03  0.40000000000E+03 0. -1.
<mgrwt>
<rscale>  2 0.43349713E+03</rscale>
<asrwt>0</asrwt>
<pdfrwt beam="1">  1        1 0.22311294E+00 0.43349713E+03</pdfrwt>
<pdfrwt beam="2">  1       -1 0.21644518E-01 0.43349713E+03</pdfrwt>
<totfact> 0.13394283E+02</totfact>
</mgrwt>
</event>
<event>
 6    1  0.8938744E-004  0.4291644E+03  0.7818608E-02  0.1034124E+00
          1   -1    0    0  502    0  0.00000000000E+00  0.00000000000E+00  0.13085121683E+04  0.13085121683E+04  0.00000000000E+00 0.  1.
         -1   -1    0    0    0  501 -0.00000000000E+00 -0.00000000000E+00 -0.14076231768E+03  0.14076231768E+03  0.00000000000E+00 0. -1.
    9000007    2    1    2  502    0 -0.53185588955E+01  0.15584155382E+03  0.58817374915E+03  0.72800939300E+03  0.39966791231E+03 0.  0.
    9000005    1    3    3    0    0  0.17056044221E+03  0.18394880866E+02  0.40296494260E+03  0.43796230551E+03  0.99999687468E+00 0.  0.
          4    1    3    3  502    0 -0.17587900111E+03  0.13744667295E+03  0.18520880656E+03  0.29004708749E+03  0.00000000000E+00 0.  1.
   -9000007    1    1    2    0  501  0.53185588955E+01 -0.15584155382E+03  0.57957610151E+03  0.72126509302E+03  0.40000000000E+03 0.  1.
<mgrwt>
<rscale>  2 0.42916436E+03</rscale>
<asrwt>0</asrwt>
<pdfrwt beam="1">  1        1 0.20130956E+00 0.42916436E+03</pdfrwt>
<pdfrwt beam="2">  1       -1 0.21655742E-01 0.42916436E+03</pdfrwt>
<totfact> 0.16748382E+02</totfact>
</mgrwt>
</event>
<event>
 6    1  0.8938744E-004  0.4695499E+03  0.7818608E-02  0.1022047E+00
          1   -1    0    0  502    0  0.00000000000E+00  0.00000000000E+00  0.16357488487E+04  0.16357488487E+04  0.00000000000E+00 0.  1.
         -1   -1    0    0    0  501 -0.00000000000E+00 -0.00000000000E+00 -0.14716989081E+03  0.14716989081E+03  0.00000000000E+00 0. -1.
    9000007    2    1    2  502    0  0.18799595033E+03  0.15870804099E+03  0.10027950103E+04  0.11072584970E+04  0.39986601108E+03 0.  0.
    9000005    1    3    3    0    0  0.12645543304E+03 -0.58567556620E+02  0.87586035994E+02  0.16460087766E+03  0.99999687468E+00 0.  0.
          4    1    3    3  502    0  0.61540517296E+02  0.21727559761E+03  0.91520897432E+03  0.94265761931E+03  0.00000000000E+00 0.  1.
   -9000007    1    1    2    0  501 -0.18799595033E+03 -0.15870804099E+03  0.48578394758E+03  0.67566024253E+03  0.40000000000E+03 0. -1.
<mgrwt>
<rscale>  2 0.46954992E+03</rscale>
<asrwt>0</asrwt>
<pdfrwt beam="1">  1        1 0.25165366E+00 0.46954992E+03</pdfrwt>
<pdfrwt beam="2">  1       -1 0.22641523E-01 0.46954992E+03</pdfrwt>
<totfact> 0.92750083E+01</totfact>
</mgrwt>
</event>
<event>
 6    1  0.8938744E-004  0.4445039E+03  0.7818608E-02  0.1029374E+00
         -1   -1    0    0    0  501 -0.00000000000E+00  0.00000000000E+00  0.13240890406E+04  0.13240890406E+04  0.00000000000E+00 0. -1.
          1   -1    0    0  502    0  0.00000000000E+00 -0.00000000000E+00 -0.14934208212E+03  0.14934208212E+03  0.00000000000E+00 0.  1.
    9000007    2    1    2  502    0 -0.11984393437E+03 -0.15221178854E+03  0.56659346353E+03  0.72018370612E+03  0.40013175390E+03 0.  0.
    9000005    1    3    3    0    0 -0.14798711322E+03 -0.17596173391E+03  0.61660491119E+03  0.65807699700E+03  0.99999687468E+00 0.  0.
          4    1    3    3  502    0  0.28143178848E+02  0.23749945379E+02 -0.50011447663E+02  0.62106709126E+02  0.00000000000E+00 0.  1.
   -9000007    1    1    2    0  501  0.11984393437E+03  0.15221178854E+03  0.60815349495E+03  0.75324741659E+03  0.40000000000E+03 0. -1.
<mgrwt>
<rscale>  2 0.44450388E+03</rscale>
<asrwt>0</asrwt>
<pdfrwt beam="1">  1        1 0.22975706E-01 0.44450388E+03</pdfrwt>
<pdfrwt beam="2">  1       -1 0.20370600E+00 0.44450388E+03</pdfrwt>
<totfact> 0.32824019E+01</totfact>
</mgrwt>
</event>
<event>
 6    1  0.8938744E-004  0.4494521E+03  0.7818608E-02  0.1027886E+00
         -2   -1    0    0    0  501 -0.00000000000E+00  0.00000000000E+00  0.15878656938E+03  0.15878656938E+03  0.00000000000E+00 0. -1.
          2   -1    0    0  502    0  0.00000000000E+00 -0.00000000000E+00 -0.13429260769E+04  0.13429260769E+04  0.00000000000E+00 0.  1.
    9000007    2    1    2  502    0  0.19273653624E+03 -0.71977349347E+02 -0.41930364836E+03  0.61441224470E+03  0.39919762735E+03 0.  0.
    9000005    1    3    3    0    0  0.21454612190E+02 -0.21256738765E+03 -0.28176206463E+03  0.35360437742E+03  0.99999687468E+00 0.  0.
          4    1    3    3  502    0  0.17128192405E+03  0.14059003830E+03 -0.13754158374E+03  0.26080786727E+03  0.00000000000E+00 0.  1.
   -9000007    1    1    2    0  501 -0.19273653624E+03  0.71977349347E+02 -0.76483585920E+03  0.88730040163E+03  0.40000000000E+03 0.  1.
<mgrwt>
<rscale>  2 0.44945214E+03</rscale>
<asrwt>0</asrwt>
<pdfrwt beam="1">  1        2 0.20660402E+00 0.44945214E+03</pdfrwt>
<pdfrwt beam="2">  1       -2 0.24428702E-01 0.44945214E+03</pdfrwt>
<totfact> 0.24214671E+02</totfact>
</mgrwt>
</event>
<event>
 6    1  0.8938744E-004  0.7530121E+03  0.7818608E-02  0.9630637E-01
          2   -1    0    0  502    0  0.00000000000E+00  0.00000000000E+00  0.77032053139E+03  0.77032053139E+03  0.00000000000E+00 0.  1.
         -2   -1    0    0    0  501 -0.00000000000E+00 -0.00000000000E+00 -0.83895584442E+03  0.83895584442E+03  0.00000000000E+00 0. -1.
    9000007    2    1    2  502    0 -0.43796361986E+03  0.46536695617E+03  0.24746470925E+03  0.79178156830E+03  0.39661156484E+03 0.  0.
    9000005    1    3    3    0    0 -0.10493353352E+03  0.27826158597E+03 -0.57607098017E+02  0.30291935300E+03  0.99999687468E+00 0.  0.
          4    1    3    3  502    0 -0.33303008634E+03  0.18710537020E+03  0.30507180727E+03  0.48886221531E+03  0.00000000000E+00 0.  1.
   -9000007    1    1    2    0  501  0.43796361986E+03 -0.46536695617E+03 -0.31610002227E+03  0.81749480751E+03  0.40000000000E+03 0. -1.
<mgrwt>
<rscale>  2 0.75301215E+03</rscale>
<asrwt>0</asrwt>
<pdfrwt beam="1">  1        2 0.11851085E+00 0.75301215E+03</pdfrwt>
<pdfrwt beam="2">  1       -2 0.12907013E+00 0.75301215E+03</pdfrwt>
<totfact> 0.16246832E+01</totfact>
</mgrwt>
</event>
<event>
 6    1  0.8938744E-004  0.4919190E+03  0.7818608E-02  0.1015910E+00
         -1   -1    0    0    0  501 -0.00000000000E+00  0.00000000000E+00  0.20265624294E+03  0.20265624294E+03  0.00000000000E+00 0. -1.
          1   -1    0    0  502    0  0.00000000000E+00 -0.00000000000E+00 -0.12058929737E+04  0.12058929737E+04  0.00000000000E+00 0.  1.
    9000007    2    1    2  502    0  0.21565505434E+03  0.18858336681E+03 -0.57128528049E+03  0.75383336675E+03  0.39978379709E+03 0.  0.
    9000005    1    3    3    0    0 -0.44342770141E+01 -0.98035664954E+02 -0.29300400448E+02  0.10242152057E+03  0.99999687468E+00 0.  0.
          4    1    3    3  502    0  0.22008933135E+03  0.28661903176E+03 -0.54198488004E+03  0.65141184618E+03  0.00000000000E+00 0.  1.
   -9000007    1    1    2    0  501 -0.21565505434E+03 -0.18858336681E+03 -0.43195145023E+03  0.65471584986E+03  0.40000000000E+03 0.  1.
<mgrwt>
<rscale>  2 0.49191901E+03</rscale>
<asrwt>0</asrwt>
<pdfrwt beam="1">  1        1 0.18552199E+00 0.49191901E+03</pdfrwt>
<pdfrwt beam="2">  1       -1 0.31177884E-01 0.49191901E+03</pdfrwt>
<totfact> 0.10566994E+02</totfact>
</mgrwt>
</event>
<event>
 6    1  0.8938744E-004  0.4538490E+03  0.7818608E-02  0.1026580E+00
          2   -1    0    0  502    0  0.00000000000E+00  0.00000000000E+00  0.17488625336E+04  0.17488625336E+04  0.00000000000E+00 0.  1.
         -2   -1    0    0    0  501 -0.00000000000E+00 -0.00000000000E+00 -0.13467471804E+03  0.13467471804E+03  0.00000000000E+00 0. -1.
    9000007    2    1    2  502    0  0.16740120904E+03 -0.13031532611E+03  0.47519965693E+03  0.65785406479E+03  0.40243261251E+03 0.  0.
    9000005    1    3    3    0    0  0.64115274282E+02 -0.76744793518E+02 -0.55618859944E+02  0.11443334000E+03  0.99999687468E+00 0.  0.
          4    1    3    3  502    0  0.10328593475E+03 -0.53570532596E+02  0.53081851687E+03  0.54342072479E+03  0.00000000000E+00 0.  1.
   -9000007    1    1    2    0  501 -0.16740120904E+03  0.13031532611E+03  0.11389881586E+04  0.12256831868E+04  0.40000000000E+03 0. -1.
<mgrwt>
<rscale>  2 0.45384903E+03</rscale>
<asrwt>0</asrwt>
<pdfrwt beam="1">  1        2 0.26905576E+00 0.45384903E+03</pdfrwt>
<pdfrwt beam="2">  1       -2 0.20719189E-01 0.45384903E+03</pdfrwt>
<totfact> 0.19425266E+02</totfact>
</mgrwt>
</event>
<event>
 6    1  0.8938744E-004  0.4526267E+03  0.7818608E-02  0.1026942E+00
          1   -1    0    0  502    0  0.00000000000E+00  0.00000000000E+00  0.13053912399E+04  0.13053912399E+04  0.00000000000E+00 0.  1.
         -1   -1    0    0    0  501 -0.00000000000E+00 -0.00000000000E+00 -0.16365845404E+03  0.16365845404E+03  0.00000000000E+00 0. -1.
    9000007    2    1    2  502    0  0.18087693744E+03 -0.11246479453E+03  0.42141004532E+03  0.61803286271E+03  0.39876483870E+03 0.  0.
    9000005    1    3    3    0    0  0.55680728518E+02  0.14377140353E+03  0.81711117881E+02  0.17449431733E+03  0.99999687468E+00 0.  0.
          4    1    3    3  502    0  0.12519620892E+03 -0.25623619807E+03  0.33969892744E+03  0.44353854537E+03  0.00000000000E+00 0.  1.
   -9000007    1    1    2    0  501 -0.18087693744E+03  0.11246479453E+03  0.72032274056E+03  0.85101683125E+03  0.40000000000E+03 0. -1.
<mgrwt>
<rscale>  2 0.45262667E+03</rscale>
<asrwt>0</asrwt>
<pdfrwt beam="1">  1        1 0.20082941E+00 0.45262667E+03</pdfrwt>
<pdfrwt beam="2">  1       -1 0.25178225E-01 0.45262667E+03</pdfrwt>
<totfact> 0.13036138E+02</totfact>
</mgrwt>
</event>
<event>
 6    1  0.8938744E-004  0.4663779E+03  0.7818608E-02  0.1022948E+00
          2   -1    0    0  502    0  0.00000000000E+00  0.00000000000E+00  0.31531951996E+04  0.31531951996E+04  0.00000000000E+00 0.  1.
         -2   -1    0    0    0  501 -0.00000000000E+00 -0.00000000000E+00 -0.69539152309E+02  0.69539152309E+02  0.00000000000E+00 0. -1.
    9000007    2    1    2  502    0  0.23913484927E+03  0.65251850381E+01  0.13983658573E+04  0.14741832150E+04  0.40070066899E+03 0.  0.
    9000005    1    3    3    0    0  0.31638307425E+03  0.27144027639E+02  0.66999524189E+03  0.74143757124E+03  0.99999687468E+00 0.  0.
          4    1    3    3  502    0 -0.77248224982E+02 -0.20618842601E+02  0.72837061546E+03  0.73274564372E+03  0.00000000000E+00 0.  1.
   -9000007    1    1    2    0  501 -0.23913484927E+03 -0.65251850381E+01  0.16852901900E+04  0.17485511370E+04  0.40000000000E+03 0. -1.
<mgrwt>
<rscale>  2 0.46637794E+03</rscale>
<asrwt>0</asrwt>
<pdfrwt beam="1">  1        2 0.48510684E+00 0.46637794E+03</pdfrwt>
<pdfrwt beam="2">  1       -2 0.10698334E-01 0.46637794E+03</pdfrwt>
<totfact> 0.95177719E+01</totfact>
</mgrwt>
</event>
<event>
 6    1  0.8938744E-004  0.4395700E+03  0.7818608E-02  0.1030879E+00
          2   -1    0    0  502    0  0.00000000000E+00  0.00000000000E+00  0.17511871302E+04  0.17511871302E+04  0.00000000000E+00 0. -1.
         -2   -1    0    0    0  501 -0.00000000000E+00 -0.00000000000E+00 -0.11698041418E+03  0.11698041418E+03  0.00000000000E+00 0.  1.
    9000007    2    1    2  502    0  0.13405826501E+03 -0.11919065626E+03  0.10417659796E+04  0.11311708978E+04  0.40260801369E+03 0.  0.
    9000005    1    3    3    0    0  0.87232020019E+02  0.12523738437E+03  0.64499147072E+03  0.66280376059E+03  0.99999687468E+00 0.  0.
          4    1    3    3  502    0  0.46826244987E+02 -0.24442804063E+03  0.39677450892E+03  0.46836713718E+03  0.00000000000E+00 0.  1.
   -9000007    1    1    2    0  501 -0.13405826501E+03  0.11919065626E+03  0.59244073634E+03  0.73699664655E+03  0.40000000000E+03 0. -1.
<mgrwt>
<rscale>  2 0.43957002E+03</rscale>
<asrwt>0</asrwt>
<pdfrwt beam="1">  1        2 0.26941339E+00 0.43957002E+03</pdfrwt>
<pdfrwt beam="2">  1       -2 0.17996988E-01 0.43957002E+03</pdfrwt>
<totfact> 0.24749204E+02</totfact>
</mgrwt>
</event>
<event>
 6    1  0.8938744E-004  0.5001595E+03  0.7818608E-02  0.1013737E+00
          1   -1    0    0  502    0  0.00000000000E+00  0.00000000000E+00  0.10357720104E+04  0.10357720104E+04  0.00000000000E+00 0. -1.
         -1   -1    0    0    0  501 -0.00000000000E+00 -0.00000000000E+00 -0.24815868931E+03  0.24815868931E+03  0.00000000000E+00 0.  1.
    9000007    2    1    2  502    0 -0.26506726495E+03  0.14258853498E+03  0.28847643068E+03  0.57701501831E+03  0.39891795528E+03 0.  0.
    9000005    1    3    3    0    0 -0.33943491365E+02 -0.12242619439E+03  0.15613705941E+03  0.20129608788E+03  0.99999687468E+00 0.  0.
          4    1    3    3  502    0 -0.23112377358E+03  0.26501472938E+03  0.13233937127E+03  0.37571893044E+03  0.00000000000E+00 0.  1.
   -9000007    1    1    2    0  501  0.26506726495E+03 -0.14258853498E+03  0.49913689044E+03  0.70691568143E+03  0.40000000000E+03 0. -1.
<mgrwt>
<rscale>  2 0.50015951E+03</rscale>
<asrwt>0</asrwt>
<pdfrwt beam="1">  1        1 0.15934954E+00 0.50015951E+03</pdfrwt>
<pdfrwt beam="2">  1       -1 0.38178260E-01 0.50015951E+03</pdfrwt>
<totfact> 0.98404313E+01</totfact>
</mgrwt>
</event>
<event>
 6    1  0.8938744E-004  0.5545710E+03  0.7818608E-02  0.1000441E+00
          2   -1    0    0  502    0  0.00000000000E+00  0.00000000000E+00  0.17239567292E+04  0.17239567292E+04  0.00000000000E+00 0.  1.
         -2   -1    0    0    0  501 -0.00000000000E+00 -0.00000000000E+00 -0.30089269696E+03  0.30089269696E+03  0.00000000000E+00 0. -1.
    9000007    2    1    2  502    0 -0.28610810740E+03  0.25655499932E+03  0.13574203198E+04  0.14662910910E+04  0.39967652202E+03 0.  0.
    9000005    1    3    3    0    0  0.59498559176E+02 -0.32541715607E+02  0.52495868558E+02  0.85766298790E+02  0.99999687468E+00 0.  0.
          4    1    3    3  502    0 -0.34560666658E+03  0.28909671493E+03  0.13049244512E+04  0.13805247922E+04  0.00000000000E+00 0.  1.
   -9000007    1    1    2    0  501  0.28610810740E+03 -0.25655499932E+03  0.65643712498E+02  0.55855833517E+03  0.40000000000E+03 0. -1.
<mgrwt>
<rscale>  2 0.55457096E+03</rscale>
<asrwt>0</asrwt>
<pdfrwt beam="1">  1        2 0.26522411E+00 0.55457096E+03</pdfrwt>
<pdfrwt beam="2">  1       -2 0.46291185E-01 0.55457096E+03</pdfrwt>
<totfact> 0.44306347E+01</totfact>
</mgrwt>
</event>
<event>
 6    1  0.8938744E-004  0.4265281E+03  0.7818608E-02  0.1034962E+00
          2   -1    0    0  502    0  0.00000000000E+00  0.00000000000E+00  0.11964193952E+04  0.11964193952E+04  0.00000000000E+00 0.  1.
         -2   -1    0    0    0  501 -0.00000000000E+00 -0.00000000000E+00 -0.15821710261E+03  0.15821710261E+03  0.00000000000E+00 0. -1.
    9000007    2    1    2  502    0 -0.10337153866E+03 -0.10678165257E+03  0.38525283442E+03  0.57461663187E+03  0.39959545901E+03 0.  0.
    9000005    1    3    3    0    0 -0.60059208506E+02 -0.14153450241E+03 -0.29164738596E+02  0.15649506660E+03  0.99999687468E+00 0.  0.
          4    1    3    3  502    0 -0.43312330159E+02  0.34752849843E+02  0.41441757302E+03  0.41812156527E+03  0.00000000000E+00 0.  1.
   -9000007    1    1    2    0  501  0.10337153866E+03  0.10678165257E+03  0.65294945821E+03  0.78001986597E+03  0.40000000000E+03 0.  1.
<mgrwt>
<rscale>  2 0.42652806E+03</rscale>
<asrwt>0</asrwt>
<pdfrwt beam="1">  1        2 0.18406452E+00 0.42652806E+03</pdfrwt>
<pdfrwt beam="2">  1       -2 0.24341094E-01 0.42652806E+03</pdfrwt>
<totfact> 0.29608495E+02</totfact>
</mgrwt>
</event>
<event>
 6    1  0.8938744E-004  0.6299166E+03  0.7818608E-02  0.9845212E-01
          2   -1    0    0  502    0  0.00000000000E+00  0.00000000000E+00  0.15987909820E+04  0.15987909820E+04  0.00000000000E+00 0.  1.
         -2   -1    0    0    0  501 -0.00000000000E+00 -0.00000000000E+00 -0.28715033000E+03  0.28715033000E+03  0.00000000000E+00 0. -1.
    9000007    2    1    2  502    0  0.35941006775E+03 -0.32699327926E+03  0.10036811631E+04  0.11852707416E+04  0.40173455443E+03 0.  0.
    9000005    1    3    3    0    0 -0.52529930770E+02  0.48981326830E+02  0.13602572745E+03  0.15382640387E+03  0.99999687468E+00 0.  0.
          4    1    3    3  502    0  0.41193999852E+03 -0.37597460609E+03  0.86765543561E+03  0.10314443377E+04  0.00000000000E+00 0.  1.
   -9000007    1    1    2    0  501 -0.35941006775E+03  0.32699327926E+03  0.30795948897E+03  0.70067057047E+03  0.40000000000E+03 0. -1.
<mgrwt>
<rscale>  2 0.62991660E+03</rscale>
<asrwt>0</asrwt>
<pdfrwt beam="1">  1        2 0.24596784E+00 0.62991660E+03</pdfrwt>
<pdfrwt beam="2">  1       -2 0.44176975E-01 0.62991660E+03</pdfrwt>
<totfact> 0.56280975E+01</totfact>
</mgrwt>
</event>
<event>
 6    1  0.8938744E-004  0.4136727E+03  0.7818608E-02  0.1039146E+00
          2   -1    0    0  502    0  0.00000000000E+00  0.00000000000E+00  0.57108432360E+03  0.57108432360E+03  0.00000000000E+00 0. -1.
         -2   -1    0    0    0  501 -0.00000000000E+00 -0.00000000000E+00 -0.41772541704E+03  0.41772541704E+03  0.00000000000E+00 0.  1.
    9000007    2    1    2  502    0  0.59488435793E+02 -0.86907523557E+02 -0.18617125273E+03  0.45367188858E+03  0.40008331069E+03 0.  0.
    9000005    1    3    3    0    0  0.89130971214E+02  0.14359639029E+03 -0.24998184199E+02  0.17085128780E+03  0.99999687468E+00 0.  0.
          4    1    3    3  502    0 -0.29642535421E+02 -0.23050391385E+03 -0.16117306853E+03  0.28282060078E+03  0.00000000000E+00 0.  1.
   -9000007    1    1    2    0  501 -0.59488435793E+02  0.86907523557E+02  0.33953015930E+03  0.53513785207E+03  0.40000000000E+03 0. -1.
<mgrwt>
<rscale>  2 0.41367272E+03</rscale>
<asrwt>0</asrwt>
<pdfrwt beam="1">  1        2 0.87859127E-01 0.41367272E+03</pdfrwt>
<pdfrwt beam="2">  1       -2 0.64265449E-01 0.41367272E+03</pdfrwt>
<totfact> 0.12183036E+02</totfact>
</mgrwt>
</event>
<event>
 6    1  0.8938744E-004  0.4693969E+03  0.7818608E-02  0.1022091E+00
          2   -1    0    0  502    0  0.00000000000E+00  0.00000000000E+00  0.14749493155E+04  0.14749493155E+04  0.00000000000E+00 0. -1.
         -2   -1    0    0    0  501 -0.00000000000E+00 -0.00000000000E+00 -0.22035851123E+03  0.22035851123E+03  0.00000000000E+00 0.  1.
    9000007    2    1    2  502    0 -0.21845071970E+03  0.11250846034E+03  0.14618446348E+03  0.49158714197E+03  0.39988642163E+03 0.  0.
    9000005    1    3    3    0    0  0.10426077226E+03 -0.40880911259E+02  0.32018202537E+02  0.11648056845E+03  0.99999687468E+00 0.  0.
          4    1    3    3  502    0 -0.32271149196E+03  0.15338937160E+03  0.11416626094E+03  0.37510657352E+03  0.00000000000E+00 0.  1.
   -9000007    1    1    2    0  501  0.21845071970E+03 -0.11250846034E+03  0.11084063407E+04  0.12037206847E+04  0.40000000000E+03 0. -1.
<mgrwt>
<rscale>  2 0.46939689E+03</rscale>
<asrwt>0</asrwt>
<pdfrwt beam="1">  1        2 0.22691527E+00 0.46939689E+03</pdfrwt>
<pdfrwt beam="2">  1       -2 0.33901310E-01 0.46939689E+03</pdfrwt>
<totfact> 0.11204513E+02</totfact>
</mgrwt>
</event>
<event>
 6    1  0.8938744E-004  0.4208128E+03  0.7818608E-02  0.1036802E+00
          2   -1    0    0  502    0  0.00000000000E+00  0.00000000000E+00  0.45083950089E+04  0.45083950089E+04  0.00000000000E+00 0.  1.
         -2   -1    0    0    0  501 -0.00000000000E+00 -0.00000000000E+00 -0.40220130169E+02  0.40220130169E+02  0.00000000000E+00 0. -1.
    9000007    2    1    2  502    0 -0.11781877025E+03  0.56669104781E+02  0.18860579674E+04  0.19324308195E+04  0.39997695657E+03 0.  0.
    9000005    1    3    3    0    0 -0.11799969745E+03  0.14926545539E+03  0.17859776493E+04  0.17960849837E+04  0.99999687468E+00 0.  0.
          4    1    3    3  502    0  0.18092719790E+00 -0.92596350606E+02  0.10008031806E+03  0.13634583581E+03  0.00000000000E+00 0.  1.
   -9000007    1    1    2    0  501  0.11781877025E+03 -0.56669104781E+02  0.25821169113E+04  0.26161843196E+04  0.40000000000E+03 0.  1.
<mgrwt>
<rscale>  2 0.42081282E+03</rscale>
<asrwt>0</asrwt>
<pdfrwt beam="1">  1        2 0.69359884E+00 0.42081282E+03</pdfrwt>
<pdfrwt beam="2">  1       -2 0.61877159E-02 0.42081282E+03</pdfrwt>
<totfact> 0.22045350E+01</totfact>
</mgrwt>
</event>
<event>
 6    1  0.8938744E-004  0.4410261E+03  0.7818608E-02  0.1030432E+00
          2   -1    0    0  502    0  0.00000000000E+00  0.00000000000E+00  0.82481115009E+03  0.82481115009E+03  0.00000000000E+00 0. -1.
         -2   -1    0    0    0  501 -0.00000000000E+00 -0.00000000000E+00 -0.29176736119E+03  0.29176736119E+03  0.00000000000E+00 0.  1.
    9000007    2    1    2  502    0 -0.13752642923E+03  0.12451900550E+03  0.22088704480E+02  0.44167585180E+03  0.40021387498E+03 0.  0.
    9000005    1    3    3    0    0 -0.17107986708E+03 -0.20088131263E+02  0.16288679221E+03  0.23707585497E+03  0.99999687468E+00 0.  0.
          4    1    3    3  502    0  0.33553437847E+02  0.14460713677E+03 -0.14079808773E+03  0.20459999683E+03  0.00000000000E+00 0.  1.
   -9000007    1    1    2    0  501  0.13752642923E+03 -0.12451900550E+03  0.51095508442E+03  0.67490265948E+03  0.40000000000E+03 0. -1.
<mgrwt>
<rscale>  2 0.44102614E+03</rscale>
<asrwt>0</asrwt>
<pdfrwt beam="1">  1        2 0.12689402E+00 0.44102614E+03</pdfrwt>
<pdfrwt beam="2">  1       -2 0.44887287E-01 0.44102614E+03</pdfrwt>
<totfact> 0.16088594E+02</totfact>
</mgrwt>
</event>
<event>
 6    1  0.8938744E-004  0.4940406E+03  0.7818608E-02  0.1015346E+00
         -1   -1    0    0    0  501 -0.00000000000E+00  0.00000000000E+00  0.21581140321E+03  0.21581140321E+03  0.00000000000E+00 0. -1.
          1   -1    0    0  502    0  0.00000000000E+00 -0.00000000000E+00 -0.11310664816E+04  0.11310664816E+04  0.00000000000E+00 0.  1.
    9000007    2    1    2  502    0  0.15795855444E+03 -0.24376718263E+03 -0.45112862538E+03  0.66880214520E+03  0.39925672010E+03 0.  0.
    9000005    1    3    3    0    0  0.11257481606E+03 -0.35111414369E+03 -0.28576125531E+03  0.46649193577E+03  0.99999687468E+00 0.  0.
          4    1    3    3  502    0  0.45383738383E+02  0.10734696106E+03 -0.16536737007E+03  0.20231020943E+03  0.00000000000E+00 0.  1.
   -9000007    1    1    2    0  501 -0.15795855444E+03  0.24376718263E+03 -0.46412645300E+03  0.67807573959E+03  0.40000000000E+03 0. -1.
<mgrwt>
<rscale>  2 0.49404061E+03</rscale>
<asrwt>0</asrwt>
<pdfrwt beam="1">  1        1 0.17401023E+00 0.49404061E+03</pdfrwt>
<pdfrwt beam="2">  1       -1 0.33201755E-01 0.49404061E+03</pdfrwt>
<totfact> 0.10718444E+02</totfact>
</mgrwt>
</event>
<event>
 6    1  0.8938744E-004  0.4402585E+03  0.7818608E-02  0.1030668E+00
          1   -1    0    0  502    0  0.00000000000E+00  0.00000000000E+00  0.10654549738E+04  0.10654549738E+04  0.00000000000E+00 0. -1.
         -1   -1    0    0    0  501 -0.00000000000E+00 -0.00000000000E+00 -0.18292064959E+03  0.18292064959E+03  0.00000000000E+00 0.  1.
    9000007    2    1    2  502    0  0.23002905615E+01  0.18226972276E+03  0.39579097037E+03  0.59251997183E+03  0.40149954125E+03 0.  0.
    9000005    1    3    3    0    0  0.17312981870E+03  0.12195931580E+03  0.76039422135E+02  0.22501333860E+03  0.99999687468E+00 0.  0.
          4    1    3    3  502    0 -0.17082952814E+03  0.60310406960E+02  0.31975154824E+03  0.36750663324E+03  0.00000000000E+00 0.  1.
   -9000007    1    1    2    0  501 -0.23002905615E+01 -0.18226972276E+03  0.48674335387E+03  0.65585565158E+03  0.40000000000E+03 0. -1.
<mgrwt>
<rscale>  2 0.44025851E+03</rscale>
<asrwt>0</asrwt>
<pdfrwt beam="1">  1        1 0.16391615E+00 0.44025851E+03</pdfrwt>
<pdfrwt beam="2">  1       -1 0.28141639E-01 0.44025851E+03</pdfrwt>
<totfact> 0.16057536E+02</totfact>
</mgrwt>
</event>
<event>
 6    1  0.8938744E-004  0.6948080E+03  0.7818608E-02  0.9726153E-01
         -3   -1    0    0    0  501 -0.00000000000E+00  0.00000000000E+00  0.12217759595E+04  0.12217759595E+04  0.00000000000E+00 0. -1.
          3   -1    0    0  502    0  0.00000000000E+00 -0.00000000000E+00 -0.39753398969E+03  0.39753398969E+03  0.00000000000E+00 0.  1.
    9000007    2    1    2  502    0 -0.21039376305E+03 -0.52975037719E+03  0.34825375561E+03  0.77582564126E+03  0.39461848622E+03 0.  0.
    9000005    1    3    3    0    0 -0.19679678982E+03 -0.36931473104E+02  0.10386497842E+03  0.22557004217E+03  0.99999687468E+00 0.  0.
          4    1    3    3  502    0 -0.13596973231E+02 -0.49281890409E+03  0.24438877719E+03  0.55025559908E+03  0.00000000000E+00 0.  1.
   -9000007    1    1    2    0  501  0.21039376305E+03  0.52975037719E+03  0.47598821422E+03  0.84348430794E+03  0.40000000000E+03 0. -1.
<mgrwt>
<rscale>  2 0.69480799E+03</rscale>
<asrwt>0</asrwt>
<pdfrwt beam="1">  1        3 0.61159076E-01 0.69480799E+03</pdfrwt>
<pdfrwt beam="2">  1       -3 0.18796553E+00 0.69480799E+03</pdfrwt>
<totfact> 0.11950609E+00</totfact>
</mgrwt>
</event>
<event>
 6    1  0.8938744E-004  0.4506701E+03  0.7818608E-02  0.1027522E+00
          2   -1    0    0  502    0  0.00000000000E+00  0.00000000000E+00  0.18598240302E+04  0.18598240302E+04  0.00000000000E+00 0.  1.
         -2   -1    0    0    0  501 -0.00000000000E+00 -0.00000000000E+00 -0.11319364169E+03  0.11319364169E+03  0.00000000000E+00 0. -1.
    9000007    2    1    2  502    0  0.18599564346E+03  0.92556212573E+02  0.68803117486E+03  0.82245549321E+03  0.39985636027E+03 0.  0.
    9000005    1    3    3    0    0  0.25559314959E+03 -0.44073639832E+02  0.25770503970E+03  0.36562717531E+03  0.99999687468E+00 0.  0.
          4    1    3    3  502    0 -0.69597506132E+02  0.13662985241E+03  0.43032613516E+03  0.45682831790E+03  0.00000000000E+00 0.  1.
   -9000007    1    1    2    0  501 -0.18599564346E+03 -0.92556212573E+02  0.10585992136E+04  0.11505621787E+04  0.40000000000E+03 0.  1.
<mgrwt>
<rscale>  2 0.45067014E+03</rscale>
<asrwt>0</asrwt>
<pdfrwt beam="1">  1        2 0.28612675E+00 0.45067014E+03</pdfrwt>
<pdfrwt beam="2">  1       -2 0.17414408E-01 0.45067014E+03</pdfrwt>
<totfact> 0.22862734E+02</totfact>
</mgrwt>
</event>
<event>
 6    1  0.8938744E-004  0.5054698E+03  0.7818608E-02  0.1012361E+00
         -4   -1    0    0    0  501 -0.00000000000E+00  0.00000000000E+00  0.13593191620E+04  0.13593191620E+04  0.00000000000E+00 0.  1.
          4   -1    0    0  502    0  0.00000000000E+00 -0.00000000000E+00 -0.36438376379E+03  0.36438376379E+03  0.00000000000E+00 0. -1.
    9000007    2    1    2  502    0 -0.13861430894E+03  0.27585733591E+03 -0.10213138367E+03  0.51586737394E+03  0.40047113696E+03 0.  0.
    9000005    1    3    3    0    0 -0.12420448383E+03 -0.35112537030E+02 -0.15328182546E+03  0.20038952585E+03  0.99999687468E+00 0.  0.
          4    1    3    3  502    0 -0.14409825111E+02  0.31096987294E+03  0.51150441790E+02  0.31547784809E+03  0.00000000000E+00 0.  1.
   -9000007    1    1    2    0  501  0.13861430894E+03 -0.27585733591E+03  0.10970667819E+04  0.12078355518E+04  0.40000000000E+03 0.  1.
<mgrwt>
<rscale>  2 0.50546977E+03</rscale>
<asrwt>0</asrwt>
<pdfrwt beam="1">  1        4 0.56059041E-01 0.50546977E+03</pdfrwt>
<pdfrwt beam="2">  1       -4 0.20912602E+00 0.50546977E+03</pdfrwt>
<totfact> 0.69127112E-01</totfact>
</mgrwt>
</event>
<event>
 6    1  0.8938744E-004  0.4239044E+03  0.7818608E-02  0.1035803E+00
          2   -1    0    0  502    0  0.00000000000E+00  0.00000000000E+00  0.10112794006E+04  0.10112794006E+04  0.00000000000E+00 0.  1.
         -2   -1    0    0    0  501 -0.00000000000E+00 -0.00000000000E+00 -0.17822695437E+03  0.17822695437E+03  0.00000000000E+00 0. -1.
    9000007    2    1    2  502    0 -0.13794995759E+03 -0.24667703838E+02  0.44921597031E+03  0.61769421216E+03  0.40014055699E+03 0.  0.
    9000005    1    3    3    0    0  0.20582126059E+02 -0.18151615403E+03  0.11486503222E+03  0.21579321979E+03  0.99999687468E+00 0.  0.
          4    1    3    3  502    0 -0.15853208365E+03  0.15684845019E+03  0.33435093808E+03  0.40190099237E+03  0.00000000000E+00 0.  1.
   -9000007    1    1    2    0  501  0.13794995759E+03  0.24667703838E+02  0.38383647592E+03  0.57181214281E+03  0.40000000000E+03 0. -1.
<mgrwt>
<rscale>  2 0.42390436E+03</rscale>
<asrwt>0</asrwt>
<pdfrwt beam="1">  1        2 0.15558144E+00 0.42390436E+03</pdfrwt>
<pdfrwt beam="2">  1       -2 0.27419532E-01 0.42390436E+03</pdfrwt>
<totfact> 0.30880615E+02</totfact>
</mgrwt>
</event>
<event>
 6    1  0.8938744E-004  0.4475361E+03  0.7818608E-02  0.1028459E+00
          2   -1    0    0  502    0  0.00000000000E+00  0.00000000000E+00  0.25009651267E+04  0.25009651267E+04  0.00000000000E+00 0.  1.
         -2   -1    0    0    0  501 -0.00000000000E+00 -0.00000000000E+00 -0.88087813886E+02  0.88087813886E+02  0.00000000000E+00 0. -1.
    9000007    2    1    2  502    0 -0.17356885189E+03 -0.99923403976E+02  0.81672579216E+03  0.93140083297E+03  0.40044432704E+03 0.  0.
    9000005    1    3    3    0    0 -0.12708243371E+03 -0.14911349930E+03  0.11656451859E+03  0.22797602422E+03  0.99999687468E+00 0.  0.
          4    1    3    3  502    0 -0.46486418183E+02  0.49190095323E+02  0.70016127357E+03  0.70342480875E+03  0.00000000000E+00 0.  1.
   -9000007    1    1    2    0  501  0.17356885189E+03  0.99923403976E+02  0.15961515207E+04  0.16576521076E+04  0.40000000000E+03 0.  1.
<mgrwt>
<rscale>  2 0.44753613E+03</rscale>
<asrwt>0</asrwt>
<pdfrwt beam="1">  1        2 0.38476381E+00 0.44753613E+03</pdfrwt>
<pdfrwt beam="2">  1       -2 0.13551973E-01 0.44753613E+03</pdfrwt>
<totfact> 0.15640303E+02</totfact>
</mgrwt>
</event>
<event>
 6    1  0.8938744E-004  0.4186974E+03  0.7818608E-02  0.1037491E+00
          1   -1    0    0  502    0  0.00000000000E+00  0.00000000000E+00  0.33390263292E+04  0.33390263292E+04  0.00000000000E+00 0. -1.
         -1   -1    0    0    0  501 -0.00000000000E+00 -0.00000000000E+00 -0.72350550178E+02  0.72350550178E+02  0.00000000000E+00 0.  1.
    9000007    2    1    2  502    0  0.11380991475E+03  0.48799699809E+02  0.73986688551E+03  0.85010819145E+03  0.39993352136E+03 0.  0.
    9000005    1    3    3    0    0  0.21892295500E+03  0.97488522161E+02  0.67730350971E+03  0.71845133199E+03  0.99999687468E+00 0.  0.
          4    1    3    3  502    0 -0.10511304025E+03 -0.48688822352E+02  0.62563375793E+02  0.13165685946E+03  0.00000000000E+00 0.  1.
   -9000007    1    1    2    0  501 -0.11380991475E+03 -0.48799699809E+02  0.25268088935E+04  0.25612686879E+04  0.40000000000E+03 0. -1.
<mgrwt>
<rscale>  2 0.41869740E+03</rscale>
<asrwt>0</asrwt>
<pdfrwt beam="1">  1        1 0.51369624E+00 0.41869740E+03</pdfrwt>
<pdfrwt beam="2">  1       -1 0.11130856E-01 0.41869740E+03</pdfrwt>
<totfact> 0.20302114E+01</totfact>
</mgrwt>
</event>
<event>
 6    1  0.8938744E-004  0.5044288E+03  0.7818608E-02  0.1012629E+00
         -2   -1    0    0    0  501 -0.00000000000E+00  0.00000000000E+00  0.68457351308E+03  0.68457351308E+03  0.00000000000E+00 0.  1.
          2   -1    0    0  502    0  0.00000000000E+00 -0.00000000000E+00 -0.59335114898E+03  0.59335114898E+03  0.00000000000E+00 0. -1.
    9000007    2    1    2  502    0  0.15981164350E+03 -0.26259439208E+03 -0.34493111183E+03  0.61104728899E+03  0.39988215930E+03 0.  0.
    9000005    1    3    3    0    0  0.21371742011E+03 -0.31399738586E+03 -0.37213724797E+03  0.53174864862E+03  0.99999687468E+00 0.  0.
          4    1    3    3  502    0 -0.53905776606E+02  0.51402993785E+02  0.27206136140E+02  0.79298640374E+02  0.00000000000E+00 0.  1.
   -9000007    1    1    2    0  501 -0.15981164350E+03  0.26259439208E+03  0.43615347593E+03  0.66687737307E+03  0.40000000000E+03 0.  1.
<mgrwt>
<rscale>  2 0.50442883E+03</rscale>
<asrwt>0</asrwt>
<pdfrwt beam="1">  1        2 0.91284792E-01 0.50442883E+03</pdfrwt>
<pdfrwt beam="2">  1       -2 0.10531900E+00 0.50442883E+03</pdfrwt>
<totfact> 0.37996562E+01</totfact>
</mgrwt>
</event>
<event>
 6    1  0.8938744E-004  0.4264306E+03  0.7818608E-02  0.1034993E+00
         -3   -1    0    0    0  501 -0.00000000000E+00  0.00000000000E+00  0.65802077499E+03  0.65802077499E+03  0.00000000000E+00 0.  1.
          3   -1    0    0  502    0  0.00000000000E+00 -0.00000000000E+00 -0.38562131119E+03  0.38562131119E+03  0.00000000000E+00 0. -1.
    9000007    2    1    2  502    0 -0.13184413921E+02  0.15019260208E+03 -0.14181298581E+03  0.44840801465E+03  0.39777779999E+03 0.  0.
    9000005    1    3    3    0    0 -0.13017583255E+03  0.19879206726E+03  0.25008966509E+02  0.23893614583E+03  0.99999687468E+00 0.  0.
          4    1    3    3  502    0  0.11699141863E+03 -0.48599465180E+02 -0.16682195232E+03  0.20947186882E+03  0.00000000000E+00 0.  1.
   -9000007    1    1    2    0  501  0.13184413921E+02 -0.15019260208E+03  0.41421244961E+03  0.59523407153E+03  0.40000000000E+03 0.  1.
<mgrwt>
<rscale>  2 0.42643062E+03</rscale>
<asrwt>0</asrwt>
<pdfrwt beam="1">  1        3 0.59326356E-01 0.42643062E+03</pdfrwt>
<pdfrwt beam="2">  1       -3 0.10123397E+00 0.42643062E+03</pdfrwt>
<totfact> 0.61586827E+00</totfact>
</mgrwt>
</event>
<event>
 6    1  0.8938744E-004  0.4011985E+03  0.7818608E-02  0.1043365E+00
          1   -1    0    0  502    0  0.00000000000E+00  0.00000000000E+00  0.12661816869E+04  0.12661816869E+04  0.00000000000E+00 0.  1.
         -1   -1    0    0    0  501 -0.00000000000E+00 -0.00000000000E+00 -0.50361684743E+03  0.50361684743E+03  0.00000000000E+00 0. -1.
    9000007    2    1    2  502    0  0.37737058858E+02 -0.42932336117E+01  0.11462462401E+04  0.12142322154E+04  0.39879432358E+03 0.  0.
    9000005    1    3    3    0    0  0.93881816059E+02 -0.17567110029E+03  0.40456941049E+03  0.45094516159E+03  0.99999687468E+00 0.  0.
          4    1    3    3  502    0 -0.56144757201E+02  0.17137786667E+03  0.74167682959E+03  0.76328705380E+03  0.00000000000E+00 0.  1.
   -9000007    1    1    2    0  501 -0.37737058858E+02  0.42932336117E+01 -0.38368140067E+03  0.55556631889E+03  0.40000000000E+03 0. -1.
<mgrwt>
<rscale>  2 0.40119852E+03</rscale>
<asrwt>0</asrwt>
<pdfrwt beam="1">  1        1 0.19479718E+00 0.40119852E+03</pdfrwt>
<pdfrwt beam="2">  1       -1 0.77479515E-01 0.40119852E+03</pdfrwt>
<totfact> 0.17565705E+01</totfact>
</mgrwt>
</event>
<event>
 6    1  0.8938744E-004  0.6715372E+03  0.7818608E-02  0.9767185E-01
         -2   -1    0    0    0  501 -0.00000000000E+00  0.00000000000E+00  0.50665267823E+03  0.50665267823E+03  0.00000000000E+00 0.  1.
          2   -1    0    0  502    0  0.00000000000E+00 -0.00000000000E+00 -0.15256125032E+04  0.15256125032E+04  0.00000000000E+00 0. -1.
    9000007    2    1    2  502    0  0.45141313983E+03 -0.29569401385E+03  0.14643936612E+03  0.68713914748E+03  0.39938320873E+03 0.  0.
    9000005    1    3    3    0    0  0.21657462726E+03 -0.94780734182E+02 -0.13233709987E+03  0.27092815420E+03  0.99999687468E+00 0.  0.
          4    1    3    3  502    0  0.23483851257E+03 -0.20091327967E+03  0.27877646599E+03  0.41621099328E+03  0.00000000000E+00 0.  1.
   -9000007    1    1    2    0  501 -0.45141313983E+03  0.29569401385E+03 -0.11653991911E+04  0.13451260340E+04  0.40000000000E+03 0. -1.
<mgrwt>
<rscale>  2 0.67153718E+03</rscale>
<asrwt>0</asrwt>
<pdfrwt beam="1">  1        2 0.23470962E+00 0.67153718E+03</pdfrwt>
<pdfrwt beam="2">  1       -2 0.77946566E-01 0.67153718E+03</pdfrwt>
<totfact> 0.18625774E+01</totfact>
</mgrwt>
</event>
<event>
 6    1  0.8938744E-004  0.4900595E+03  0.7818608E-02  0.1016407E+00
         -2   -1    0    0    0  501 -0.00000000000E+00  0.00000000000E+00  0.13126032142E+03  0.13126032142E+03  0.00000000000E+00 0.  1.
          2   -1    0    0  502    0  0.00000000000E+00 -0.00000000000E+00 -0.20536967105E+04  0.20536967105E+04  0.00000000000E+00 0. -1.
    9000007    2    1    2  502    0 -0.26675172778E+03 -0.93337737850E+02 -0.60088304972E+03  0.77557005654E+03  0.40072441351E+03 0.  0.
    9000005    1    3    3    0    0 -0.34417388499E+03 -0.29999996199E+02 -0.57733036457E+03  0.67280533048E+03  0.99999687468E+00 0.  0.
          4    1    3    3  502    0  0.77422157206E+02 -0.63337741651E+02 -0.23552685152E+02  0.10276472606E+03  0.00000000000E+00 0.  1.
   -9000007    1    1    2    0  501  0.26675172778E+03  0.93337737850E+02 -0.13215533394E+04  0.14093869754E+04  0.40000000000E+03 0. -1.
<mgrwt>
<rscale>  2 0.49005946E+03</rscale>
<asrwt>0</asrwt>
<pdfrwt beam="1">  1        2 0.31595332E+00 0.49005946E+03</pdfrwt>
<pdfrwt beam="2">  1       -2 0.20193897E-01 0.49005946E+03</pdfrwt>
<totfact> 0.13862138E+02</totfact>
</mgrwt>
</event>
<event>
 6    1  0.8938744E-004  0.5443495E+03  0.7818608E-02  0.1002810E+00
         -1   -1    0    0    0  501 -0.00000000000E+00  0.00000000000E+00  0.12120942294E+03  0.12120942294E+03  0.00000000000E+00 0.  1.
          1   -1    0    0  502    0  0.00000000000E+00 -0.00000000000E+00 -0.24906657873E+04  0.24906657873E+04  0.00000000000E+00 0. -1.
    9000007    2    1    2  502    0 -0.36060121891E+03 -0.78280077365E+02 -0.10075543554E+04  0.11452675287E+04  0.40038846586E+03 0.  0.
    9000005    1    3    3    0    0 -0.33517128323E+03  0.92751934815E+02 -0.49986947502E+03  0.60894433453E+03  0.99999687468E+00 0.  0.
          4    1    3    3  502    0 -0.25429935680E+02 -0.17103201218E+03 -0.50768488039E+03  0.53632319416E+03  0.00000000000E+00 0.  1.
   -9000007    1    1    2    0  501  0.36060121891E+03  0.78280077365E+02 -0.13619020090E+04  0.14666076816E+04  0.40000000000E+03 0. -1.
<mgrwt>
<rscale>  2 0.54434955E+03</rscale>
<asrwt>0</asrwt>
<pdfrwt beam="1">  1        1 0.38317933E+00 0.54434955E+03</pdfrwt>
<pdfrwt beam="2">  1       -1 0.18647605E-01 0.54434955E+03</pdfrwt>
<totfact> 0.34095460E+01</totfact>
</mgrwt>
</event>
<event>
 6    1  0.8938744E-004  0.4063076E+03  0.7818608E-02  0.1041617E+00
         -1   -1    0    0    0  501 -0.00000000000E+00  0.00000000000E+00  0.15956461738E+03  0.15956461738E+03  0.00000000000E+00 0. -1.
          1   -1    0    0  502    0  0.00000000000E+00 -0.00000000000E+00 -0.12698438528E+04  0.12698438528E+04  0.00000000000E+00 0.  1.
    9000007    2    1    2  502    0  0.50998170377E+02 -0.24568981496E+02 -0.25014254049E+03  0.47912452199E+03  0.40470306247E+03 0.  0.
    9000005    1    3    3    0    0  0.15267601194E+03 -0.63048801351E+02 -0.31273361520E+03  0.35367842745E+03  0.99999687468E+00 0.  0.
          4    1    3    3  502    0 -0.10167784157E+03  0.38479819855E+02  0.62591074707E+02  0.12544609454E+03  0.00000000000E+00 0.  1.
   -9000007    1    1    2    0  501 -0.50998170377E+02  0.24568981496E+02 -0.86013669489E+03  0.95028394816E+03  0.40000000000E+03 0.  1.
<mgrwt>
<rscale>  2 0.40630763E+03</rscale>
<asrwt>0</asrwt>
<pdfrwt beam="1">  1        1 0.19536059E+00 0.40630763E+03</pdfrwt>
<pdfrwt beam="2">  1       -1 0.24548404E-01 0.40630763E+03</pdfrwt>
<totfact> 0.14496509E+02</totfact>
</mgrwt>
</event>
<event>
 6    1  0.8938744E-004  0.6342668E+03  0.7818608E-02  0.9836758E-01
          2   -1    0    0  502    0  0.00000000000E+00  0.00000000000E+00  0.74615499554E+03  0.74615499554E+03  0.00000000000E+00 0.  1.
         -2   -1    0    0    0  501 -0.00000000000E+00 -0.00000000000E+00 -0.70308136846E+03  0.70308136846E+03  0.00000000000E+00 0. -1.
    9000007    2    1    2  502    0  0.35730208573E+03 -0.33895546825E+03  0.37141905994E+03  0.73483709664E+03  0.39934677987E+03 0.  0.
    9000005    1    3    3    0    0 -0.64267396506E+02 -0.16240537396E+03  0.74992229507E+02  0.19008060981E+03  0.99999687468E+00 0.  0.
          4    1    3    3  502    0  0.42156948224E+03 -0.17655009429E+03  0.29642683044E+03  0.54475648684E+03  0.00000000000E+00 0.  1.
   -9000007    1    1    2    0  501 -0.35730208573E+03  0.33895546825E+03 -0.32834543286E+03  0.71439926736E+03  0.40000000000E+03 0.  1.
<mgrwt>
<rscale>  2 0.63426684E+03</rscale>
<asrwt>0</asrwt>
<pdfrwt beam="1">  1        2 0.11479308E+00 0.63426684E+03</pdfrwt>
<pdfrwt beam="2">  1       -2 0.10816636E+00 0.63426684E+03</pdfrwt>
<totfact> 0.26488930E+01</totfact>
</mgrwt>
</event>
<event>
 6    1  0.8938744E-004  0.5276638E+03  0.7818608E-02  0.1006800E+00
         -1   -1    0    0    0  501 -0.00000000000E+00  0.00000000000E+00  0.19771355659E+03  0.19771355659E+03  0.00000000000E+00 0.  1.
          1   -1    0    0  502    0  0.00000000000E+00 -0.00000000000E+00 -0.14155584056E+04  0.14155584056E+04  0.00000000000E+00 0. -1.
    9000007    2    1    2  502    0 -0.26162799201E+03  0.22310958999E+03 -0.55116383480E+03  0.76315981073E+03  0.40050496698E+03 0.  0.
    9000005    1    3    3    0    0  0.90164563150E+02  0.55913899707E+02 -0.25859657226E+02  0.10920501130E+03  0.99999687468E+00 0.  0.
          4    1    3    3  502    0 -0.35179255516E+03  0.16719569028E+03 -0.52530417757E+03  0.65395479942E+03  0.00000000000E+00 0.  1.
   -9000007    1    1    2    0  501  0.26162799201E+03 -0.22310958999E+03 -0.66668101421E+03  0.85011215146E+03  0.40000000000E+03 0. -1.
<mgrwt>
<rscale>  2 0.52766385E+03</rscale>
<asrwt>0</asrwt>
<pdfrwt beam="1">  1        1 0.21777821E+00 0.52766385E+03</pdfrwt>
<pdfrwt beam="2">  1       -1 0.30417471E-01 0.52766385E+03</pdfrwt>
<totfact> 0.78359801E+01</totfact>
</mgrwt>
</event>
<event>
 6    1  0.8938744E-004  0.4900598E+03  0.7818608E-02  0.1016407E+00
          1   -1    0    0  502    0  0.00000000000E+00  0.00000000000E+00  0.92793530935E+03  0.92793530935E+03  0.00000000000E+00 0. -1.
         -1   -1    0    0    0  501 -0.00000000000E+00 -0.00000000000E+00 -0.35291442763E+03  0.35291442763E+03  0.00000000000E+00 0.  1.
    9000007    2    1    2  502    0  0.23768779835E+03 -0.15318757032E+03 -0.43106983478E+02  0.49215208964E+03  0.40049163053E+03 0.  0.
    9000005    1    3    3    0    0  0.24731919010E+03 -0.25617749430E+03  0.41534119001E+02  0.35849654588E+03  0.99999687468E+00 0.  0.
          4    1    3    3  502    0 -0.96313917494E+01  0.10298992398E+03 -0.84641102478E+02  0.13365554376E+03  0.00000000000E+00 0.  1.
   -9000007    1    1    2    0  501 -0.23768779835E+03  0.15318757032E+03  0.61812786520E+03  0.78869764734E+03  0.40000000000E+03 0.  1.
<mgrwt>
<rscale>  2 0.49005981E+03</rscale>
<asrwt>0</asrwt>
<pdfrwt beam="1">  1        1 0.14275928E+00 0.49005981E+03</pdfrwt>
<pdfrwt beam="2">  1       -1 0.54294527E-01 0.49005981E+03</pdfrwt>
<totfact> 0.62272933E+01</totfact>
</mgrwt>
</event>
<event>
 6    1  0.8938744E-004  0.4096091E+03  0.7818608E-02  0.1040502E+00
          2   -1    0    0  502    0  0.00000000000E+00  0.00000000000E+00  0.10036383769E+04  0.10036383769E+04  0.00000000000E+00 0. -1.
         -2   -1    0    0    0  501 -0.00000000000E+00 -0.00000000000E+00 -0.37652592557E+03  0.37652592557E+03  0.00000000000E+00 0.  1.
    9000007    2    1    2  502    0 -0.76313814655E+02  0.43323769690E+02  0.82815905082E+03  0.92396206395E+03  0.40019711996E+03 0.  0.
    9000005    1    3    3    0    0 -0.14783771673E+03  0.17904358763E+03  0.33582275078E+03  0.40827749962E+03  0.99999687468E+00 0.  0.
          4    1    3    3  502    0  0.71523902074E+02 -0.13571981794E+03  0.49233630004E+03  0.51568456433E+03  0.00000000000E+00 0.  1.
   -9000007    1    1    2    0  501  0.76313814655E+02 -0.43323769690E+02 -0.20104659945E+03  0.45620223857E+03  0.40000000000E+03 0.  1.
<mgrwt>
<rscale>  2 0.40960908E+03</rscale>
<asrwt>0</asrwt>
<pdfrwt beam="1">  1        2 0.15440590E+00 0.40960908E+03</pdfrwt>
<pdfrwt beam="2">  1       -2 0.57927066E-01 0.40960908E+03</pdfrwt>
<totfact> 0.73528034E+01</totfact>
</mgrwt>
</event>
<event>
 6    1  0.8938744E-004  0.5801123E+03  0.7818608E-02  0.9947548E-01
          1   -1    0    0  502    0  0.00000000000E+00  0.00000000000E+00  0.12760526856E+04  0.12760526856E+04  0.00000000000E+00 0. -1.
         -1   -1    0    0    0  501 -0.00000000000E+00 -0.00000000000E+00 -0.32805974686E+03  0.32805974686E+03  0.00000000000E+00 0.  1.
    9000007    2    1    2  502    0  0.40895501800E+03 -0.10008889998E+03  0.11840879300E+03  0.59145659286E+03  0.39816863805E+03 0.  0.
    9000005    1    3    3    0    0  0.39821325211E+03 -0.14238151452E+03  0.22302264776E+03  0.47810709181E+03  0.99999687468E+00 0.  0.
          4    1    3    3  502    0  0.10741765888E+02  0.42292614542E+02 -0.10461385476E+03  0.11334950104E+03  0.00000000000E+00 0.  1.
   -9000007    1    1    2    0  501 -0.40895501800E+03  0.10008889998E+03  0.82958414575E+03  0.10126558396E+04  0.40000000000E+03 0. -1.
<mgrwt>
<rscale>  2 0.58011235E+03</rscale>
<asrwt>0</asrwt>
<pdfrwt beam="1">  1        1 0.19631580E+00 0.58011235E+03</pdfrwt>
<pdfrwt beam="2">  1       -1 0.50470731E-01 0.58011235E+03</pdfrwt>
<totfact> 0.38972197E+01</totfact>
</mgrwt>
</event>
<event>
 6    1  0.8938744E-004  0.4504718E+03  0.7818608E-02  0.1027581E+00
         -2   -1    0    0    0  501 -0.00000000000E+00  0.00000000000E+00  0.30261689723E+03  0.30261689723E+03  0.00000000000E+00 0.  1.
          2   -1    0    0  502    0  0.00000000000E+00 -0.00000000000E+00 -0.77122276196E+03  0.77122276196E+03  0.00000000000E+00 0. -1.
    9000007    2    1    2  502    0  0.20629096001E+03 -0.24605321981E+02 -0.42815611943E+03  0.62129401072E+03  0.39940856663E+03 0.  0.
    9000005    1    3    3    0    0  0.21226869276E+02  0.16583047279E+03 -0.25276732604E+03  0.30305551767E+03  0.99999687468E+00 0.  0.
          4    1    3    3  502    0  0.18506409074E+03 -0.19043579477E+03 -0.17538879339E+03  0.31823849305E+03  0.00000000000E+00 0.  1.
   -9000007    1    1    2    0  501 -0.20629096001E+03  0.24605321981E+02 -0.40449745294E+02  0.45254564847E+03  0.40000000000E+03 0.  1.
<mgrwt>
<rscale>  2 0.45047180E+03</rscale>
<asrwt>0</asrwt>
<pdfrwt beam="1">  1        2 0.11864965E+00 0.45047180E+03</pdfrwt>
<pdfrwt beam="2">  1       -2 0.46556447E-01 0.45047180E+03</pdfrwt>
<totfact> 0.16317066E+02</totfact>
</mgrwt>
</event>
<event>
 6    1  0.8938744E-004  0.6965691E+03  0.7818608E-02  0.9723118E-01
         -2   -1    0    0    0  501 -0.00000000000E+00  0.00000000000E+00  0.64351786007E+03  0.64351786007E+03  0.00000000000E+00 0. -1.
          2   -1    0    0  502    0  0.00000000000E+00 -0.00000000000E+00 -0.77079948922E+03  0.77079948922E+03  0.00000000000E+00 0.  1.
    9000007    2    1    2  502    0  0.34928527190E+03  0.44974912753E+03 -0.16811602051E+03  0.71722199972E+03  0.40233061237E+03 0.  0.
    9000005    1    3    3    0    0 -0.35571395042E+02  0.38964029164E+02 -0.14448985953E+03  0.15382405278E+03  0.99999687468E+00 0.  0.
          4    1    3    3  502    0  0.38485666694E+03  0.41078509837E+03 -0.23626160976E+02  0.56339794694E+03  0.00000000000E+00 0.  1.
   -9000007    1    1    2    0  501 -0.34928527190E+03 -0.44974912753E+03  0.40834391349E+02  0.69709534957E+03  0.40000000000E+03 0. -1.
<mgrwt>
<rscale>  2 0.69656912E+03</rscale>
<asrwt>0</asrwt>
<pdfrwt beam="1">  1        2 0.11858454E+00 0.69656912E+03</pdfrwt>
<pdfrwt beam="2">  1       -2 0.99002748E-01 0.69656912E+03</pdfrwt>
<totfact> 0.31180749E+01</totfact>
</mgrwt>
</event>
<event>
 6    1  0.8938744E-004  0.4223451E+03  0.7818608E-02  0.1036306E+00
         -1   -1    0    0    0  501 -0.00000000000E+00  0.00000000000E+00  0.51484348671E+03  0.51484348671E+03  0.00000000000E+00 0.  1.
          1   -1    0    0  502    0  0.00000000000E+00 -0.00000000000E+00 -0.50562949848E+03  0.50562949848E+03  0.00000000000E+00 0. -1.
    9000007    2    1    2  502    0  0.11586056883E+03 -0.70672533252E+02  0.29087810141E+03  0.51277922807E+03  0.39989272123E+03 0.  0.
    9000005    1    3    3    0    0 -0.65073900631E+02  0.15169600547E+02 -0.72046398546E+02  0.98267048705E+02  0.99999687468E+00 0.  0.
          4    1    3    3  502    0  0.18093446946E+03 -0.85842133799E+02  0.36292449995E+03  0.41451217936E+03  0.00000000000E+00 0.  1.
   -9000007    1    1    2    0  501 -0.11586056883E+03  0.70672533252E+02 -0.28166411318E+03  0.50769375712E+03  0.40000000000E+03 0. -1.
<mgrwt>
<rscale>  2 0.42234508E+03</rscale>
<asrwt>0</asrwt>
<pdfrwt beam="1">  1        1 0.77789154E-01 0.42234508E+03</pdfrwt>
<pdfrwt beam="2">  1       -1 0.79206690E-01 0.42234508E+03</pdfrwt>
<totfact> 0.73232239E+01</totfact>
</mgrwt>
</event>
<event>
 6    1  0.8938744E-004  0.4192874E+03  0.7818608E-02  0.1037298E+00
          2   -1    0    0  502    0  0.00000000000E+00  0.00000000000E+00  0.24882409249E+04  0.24882409249E+04  0.00000000000E+00 0.  1.
         -2   -1    0    0    0  501 -0.00000000000E+00 -0.00000000000E+00 -0.81698252975E+02  0.81698252975E+02  0.00000000000E+00 0. -1.
    9000007    2    1    2  502    0 -0.10471943689E+03  0.58178602693E+02  0.16800219729E+04  0.17319754338E+04  0.40362626723E+03 0.  0.
    9000005    1    3    3    0    0 -0.24396376082E+03 -0.34535006155E+02  0.83692409849E+03  0.87244136185E+03  0.99999687468E+00 0.  0.
          4    1    3    3  502    0  0.13924432393E+03  0.92713608848E+02  0.84309787440E+03  0.85953407195E+03  0.00000000000E+00 0.  1.
   -9000007    1    1    2    0  501  0.10471943689E+03 -0.58178602693E+02  0.72652069906E+03  0.83796374411E+03  0.40000000000E+03 0. -1.
<mgrwt>
<rscale>  2 0.41928744E+03</rscale>
<asrwt>0</asrwt>
<pdfrwt beam="1">  1        2 0.38280624E+00 0.41928744E+03</pdfrwt>
<pdfrwt beam="2">  1       -2 0.12568964E-01 0.41928744E+03</pdfrwt>
<totfact> 0.18095205E+02</totfact>
</mgrwt>
</event>
<event>
 6    1  0.8938744E-004  0.4564593E+03  0.7818608E-02  0.1025813E+00
          1   -1    0    0  502    0  0.00000000000E+00  0.00000000000E+00  0.11778607018E+04  0.11778607018E+04  0.00000000000E+00 0. -1.
         -1   -1    0    0    0  501 -0.00000000000E+00 -0.00000000000E+00 -0.22441578298E+03  0.22441578298E+03  0.00000000000E+00 0.  1.
    9000007    2    1    2  502    0 -0.19837399980E+03  0.90095921291E+02  0.80016734900E+03  0.92168983056E+03  0.40221242960E+03 0.  0.
    9000005    1    3    3    0    0 -0.20780377293E+03  0.41531787229E+02  0.12772622153E+03  0.24743137444E+03  0.99999687468E+00 0.  0.
          4    1    3    3  502    0  0.94297731354E+01  0.48564134062E+02  0.67244112747E+03  0.67425845612E+03  0.00000000000E+00 0.  1.
   -9000007    1    1    2    0  501  0.19837399980E+03 -0.90095921291E+02  0.15327756986E+03  0.48058665426E+03  0.40000000000E+03 0.  1.
<mgrwt>
<rscale>  2 0.45645925E+03</rscale>
<asrwt>0</asrwt>
<pdfrwt beam="1">  1        1 0.18120934E+00 0.45645925E+03</pdfrwt>
<pdfrwt beam="2">  1       -1 0.34525506E-01 0.45645925E+03</pdfrwt>
<totfact> 0.93034559E+01</totfact>
</mgrwt>
</event>
<event>
 6    1  0.8938744E-004  0.8841351E+03  0.7818608E-02  0.9445634E-01
         -1   -1    0    0    0  501 -0.00000000000E+00  0.00000000000E+00  0.48390854722E+03  0.48390854722E+03  0.00000000000E+00 0. -1.
          1   -1    0    0  502    0  0.00000000000E+00 -0.00000000000E+00 -0.17031535003E+04  0.17031535003E+04  0.00000000000E+00 0.  1.
    9000007    2    1    2  502    0  0.61138246480E+03  0.49737419113E+03 -0.36156511452E+03  0.95548407201E+03  0.40131144457E+03 0.  0.
    9000005    1    3    3    0    0  0.52837536683E+03  0.28566696299E+03 -0.10005331326E+03  0.60893169363E+03  0.99999687468E+00 0.  0.
          4    1    3    3  502    0  0.83007097975E+02  0.21170722814E+03 -0.26151180126E+03  0.34655237838E+03  0.00000000000E+00 0.  1.
   -9000007    1    1    2    0  501 -0.61138246480E+03 -0.49737419113E+03 -0.85767983856E+03  0.12315779755E+04  0.40000000000E+03 0.  1.
<mgrwt>
<rscale>  2 0.88413509E+03</rscale>
<asrwt>0</asrwt>
<pdfrwt beam="1">  1        1 0.26202362E+00 0.88413509E+03</pdfrwt>
<pdfrwt beam="2">  1       -1 0.74447469E-01 0.88413509E+03</pdfrwt>
<totfact> 0.88025710E+00</totfact>
</mgrwt>
</event>
<event>
 6    1  0.8938744E-004  0.4631234E+03  0.7818608E-02  0.1023879E+00
         -2   -1    0    0    0  501 -0.00000000000E+00  0.00000000000E+00  0.44876649602E+03  0.44876649602E+03  0.00000000000E+00 0.  1.
          2   -1    0    0  502    0  0.00000000000E+00 -0.00000000000E+00 -0.49147512729E+03  0.49147512729E+03  0.00000000000E+00 0. -1.
    9000007    2    1    2  502    0  0.26008022175E+02  0.23375793981E+03 -0.99326734325E+02  0.47277525957E+03  0.39790885170E+03 0.  0.
    9000005    1    3    3    0    0  0.19096486189E+03  0.16288451294E+03 -0.14179832300E+03  0.28828233978E+03  0.99999687468E+00 0.  0.
          4    1    3    3  502    0 -0.16495683971E+03  0.70873426870E+02  0.42471588675E+02  0.18449291978E+03  0.00000000000E+00 0.  1.
   -9000007    1    1    2    0  501 -0.26008022175E+02 -0.23375793981E+03  0.56618103061E+02  0.46746636375E+03  0.40000000000E+03 0.  1.
<mgrwt>
<rscale>  2 0.46312341E+03</rscale>
<asrwt>0</asrwt>
<pdfrwt beam="1">  1        2 0.75611558E-01 0.46312341E+03</pdfrwt>
<pdfrwt beam="2">  1       -2 0.69041000E-01 0.46312341E+03</pdfrwt>
<totfact> 0.12377044E+02</totfact>
</mgrwt>
</event>
<event>
 6    1  0.8938744E-004  0.4019088E+03  0.7818608E-02  0.1043121E+00
         -2   -1    0    0    0  501 -0.00000000000E+00  0.00000000000E+00  0.70627804675E+03  0.70627804675E+03  0.00000000000E+00 0.  1.
          2   -1    0    0  502    0  0.00000000000E+00 -0.00000000000E+00 -0.28311832894E+03  0.28311832894E+03  0.00000000000E+00 0. -1.
    9000007    2    1    2  502    0  0.92163203563E+01  0.35985037128E+02 -0.52109969479E+01  0.40213039445E+03  0.40037711747E+03 0.  0.
    9000005    1    3    3    0    0 -0.37128016609E+02 -0.75917418190E+02 -0.17454974083E+03  0.19393441165E+03  0.99999687468E+00 0.  0.
          4    1    3    3  502    0  0.46344336966E+02  0.11190245532E+03  0.16933874388E+03  0.20819598280E+03  0.00000000000E+00 0.  1.
   -9000007    1    1    2    0  501 -0.92163203563E+01 -0.35985037128E+02  0.42837071476E+03  0.58726598124E+03  0.40000000000E+03 0.  1.
<mgrwt>
<rscale>  2 0.40190883E+03</rscale>
<asrwt>0</asrwt>
<pdfrwt beam="1">  1        2 0.43556666E-01 0.40190883E+03</pdfrwt>
<pdfrwt beam="2">  1       -2 0.10865816E+00 0.40190883E+03</pdfrwt>
<totfact> 0.81792320E+01</totfact>
</mgrwt>
</event>
<event>
 6    1  0.8938744E-004  0.4091209E+03  0.7818608E-02  0.1040666E+00
          1   -1    0    0  502    0  0.00000000000E+00  0.00000000000E+00  0.54985002481E+03  0.54985002481E+03  0.00000000000E+00 0. -1.
         -1   -1    0    0    0  501 -0.00000000000E+00 -0.00000000000E+00 -0.37555000192E+03  0.37555000192E+03  0.00000000000E+00 0.  1.
    9000007    2    1    2  502    0  0.80591855128E+02 -0.22624844089E+02 -0.11415326781E+03  0.42518784016E+03  0.40093241349E+03 0.  0.
    9000005    1    3    3    0    0  0.13202422732E+03  0.62362571722E+02  0.10814554704E+03  0.18170290666E+03  0.99999687468E+00 0.  0.
          4    1    3    3  502    0 -0.51432372188E+02 -0.84987415811E+02 -0.22229881485E+03  0.24348493350E+03  0.00000000000E+00 0.  1.
   -9000007    1    1    2    0  501 -0.80591855128E+02  0.22624844089E+02  0.28845329070E+03  0.50021218658E+03  0.40000000000E+03 0. -1.
<mgrwt>
<rscale>  2 0.40912090E+03</rscale>
<asrwt>0</asrwt>
<pdfrwt beam="1">  1        1 0.84592311E-01 0.40912090E+03</pdfrwt>
<pdfrwt beam="2">  1       -1 0.57776924E-01 0.40912090E+03</pdfrwt>
<totfact> 0.12321293E+02</totfact>
</mgrwt>
</event>
<event>
 6    1  0.8938744E-004  0.3983522E+03  0.7818608E-02  0.1044352E+00
         -2   -1    0    0    0  501 -0.00000000000E+00  0.00000000000E+00  0.48791135253E+02  0.48791135253E+02  0.00000000000E+00 0. -1.
          2   -1    0    0  502    0  0.00000000000E+00 -0.00000000000E+00 -0.33503624918E+04  0.33503624918E+04  0.00000000000E+00 0.  1.
    9000007    2    1    2  502    0  0.24085942172E+00 -0.26930410771E+01 -0.13534833567E+04  0.14104218287E+04  0.39669286309E+03 0.  0.
    9000005    1    3    3    0    0  0.19660392290E+03  0.24970145070E+02 -0.69971625331E+03  0.72724166945E+03  0.99999687468E+00 0.  0.
          4    1    3    3  502    0 -0.19636306348E+03 -0.27663186147E+02 -0.65376710335E+03  0.68318015925E+03  0.00000000000E+00 0.  1.
   -9000007    1    1    2    0  501 -0.24085942172E+00  0.26930410771E+01 -0.19480879999E+04  0.19887317984E+04  0.40000000000E+03 0.  1.
<mgrwt>
<rscale>  2 0.39835218E+03</rscale>
<asrwt>0</asrwt>
<pdfrwt beam="1">  1        2 0.51544050E+00 0.39835218E+03</pdfrwt>
<pdfrwt beam="2">  1       -2 0.75063268E-02 0.39835218E+03</pdfrwt>
<totfact> 0.12776876E+02</totfact>
</mgrwt>
</event>
<event>
 6    1  0.8938744E-004  0.4013197E+03  0.7818608E-02  0.1043324E+00
          2   -1    0    0  502    0  0.00000000000E+00  0.00000000000E+00  0.10710786574E+04  0.10710786574E+04  0.00000000000E+00 0. -1.
         -2   -1    0    0    0  501 -0.00000000000E+00 -0.00000000000E+00 -0.17152267091E+03  0.17152267091E+03  0.00000000000E+00 0.  1.
    9000007    2    1    2  502    0  0.38416649600E+02 -0.35599276863E+02  0.66588892136E+03  0.77640025064E+03  0.39578547994E+03 0.  0.
    9000005    1    3    3    0    0  0.16216340379E+03  0.11195081538E+03  0.42123814243E+03  0.46505110174E+03  0.99999687468E+00 0.  0.
          4    1    3    3  502    0 -0.12374675419E+03 -0.14755009225E+03  0.24465077892E+03  0.31134914890E+03  0.00000000000E+00 0.  1.
   -9000007    1    1    2    0  501 -0.38416649600E+02  0.35599276863E+02  0.23366706512E+03  0.46620107765E+03  0.40000000000E+03 0.  1.
<mgrwt>
<rscale>  2 0.40131969E+03</rscale>
<asrwt>0</asrwt>
<pdfrwt beam="1">  1        2 0.16478133E+00 0.40131969E+03</pdfrwt>
<pdfrwt beam="2">  1       -2 0.26388104E-01 0.40131969E+03</pdfrwt>
<totfact> 0.30474442E+02</totfact>
</mgrwt>
</event>
<event>
 6    1  0.8938744E-004  0.4452622E+03  0.7818608E-02  0.1029144E+00
         -2   -1    0    0    0  501 -0.00000000000E+00  0.00000000000E+00  0.72231010313E+02  0.72231010313E+02  0.00000000000E+00 0.  1.
          2   -1    0    0  502    0  0.00000000000E+00 -0.00000000000E+00 -0.36902631307E+04  0.36902631307E+04  0.00000000000E+00 0. -1.
    9000007    2    1    2  502    0 -0.17256082590E+03  0.90768175172E+02 -0.27620716743E+04  0.27977742928E+04  0.40060574046E+03 0.  0.
    9000005    1    3    3    0    0 -0.13356765307E+03 -0.15044813401E+03 -0.12494274961E+04  0.12655216422E+04  0.99999687468E+00 0.  0.
          4    1    3    3  502    0 -0.38993172833E+02  0.24121630918E+03 -0.15126441782E+04  0.15322526505E+04  0.00000000000E+00 0.  1.
   -9000007    1    1    2    0  501  0.17256082590E+03 -0.90768175172E+02 -0.85596044614E+03  0.96471984825E+03  0.40000000000E+03 0.  1.
<mgrwt>
<rscale>  2 0.44526221E+03</rscale>
<asrwt>0</asrwt>
<pdfrwt beam="1">  1        2 0.56773279E+00 0.44526221E+03</pdfrwt>
<pdfrwt beam="2">  1       -2 0.11112463E-01 0.44526221E+03</pdfrwt>
<totfact> 0.39702130E+01</totfact>
</mgrwt>
</event>
<event>
 6    1  0.8938744E-004  0.5075328E+03  0.7818608E-02  0.1011831E+00
         -1   -1    0    0    0  501 -0.00000000000E+00  0.00000000000E+00  0.10034512141E+04  0.10034512141E+04  0.00000000000E+00 0. -1.
          1   -1    0    0  502    0  0.00000000000E+00 -0.00000000000E+00 -0.25841981906E+03  0.25841981906E+03  0.00000000000E+00 0.  1.
    9000007    2    1    2  502    0 -0.20384206267E+02 -0.31189087837E+03  0.32102610584E+03  0.60045443135E+03  0.39974532846E+03 0.  0.
    9000005    1    3    3    0    0 -0.16537926616E+03 -0.21359618343E+03  0.32827224743E+03  0.42513209674E+03  0.99999687468E+00 0.  0.
          4    1    3    3  502    0  0.14499505990E+03 -0.98294694938E+02 -0.72461415826E+01  0.17532233462E+03  0.00000000000E+00 0.  1.
   -9000007    1    1    2    0  501  0.20384206267E+02  0.31189087837E+03  0.42400528917E+03  0.66141660179E+03  0.40000000000E+03 0.  1.
<mgrwt>
<rscale>  2 0.50753284E+03</rscale>
<asrwt>0</asrwt>
<pdfrwt beam="1">  1        1 0.39756896E-01 0.50753284E+03</pdfrwt>
<pdfrwt beam="2">  1       -1 0.15437711E+00 0.50753284E+03</pdfrwt>
<totfact> 0.36009675E+01</totfact>
</mgrwt>
</event>
<event>
 6    1  0.8938744E-004  0.7042234E+03  0.7818608E-02  0.9710037E-01
         -2   -1    0    0    0  501 -0.00000000000E+00  0.00000000000E+00  0.39422535792E+03  0.39422535792E+03  0.00000000000E+00 0. -1.
          2   -1    0    0  502    0  0.00000000000E+00 -0.00000000000E+00 -0.12657093841E+04  0.12657093841E+04  0.00000000000E+00 0.  1.
    9000007    2    1    2  502    0 -0.20612410841E+03  0.54158565174E+03 -0.37097084942E+03  0.79603914280E+03  0.40032084571E+03 0.  0.
    9000005    1    3    3    0    0 -0.20457735460E+03  0.57574208485E+02 -0.60361666427E+02  0.22093260119E+03  0.99999687468E+00 0.  0.
          4    1    3    3  502    0 -0.15467538103E+01  0.48401144325E+03 -0.31060918299E+03  0.57510654161E+03  0.00000000000E+00 0.  1.
   -9000007    1    1    2    0  501  0.20612410841E+03 -0.54158565174E+03 -0.50051317676E+03  0.86389559922E+03  0.40000000000E+03 0. -1.
<mgrwt>
<rscale>  2 0.70422336E+03</rscale>
<asrwt>0</asrwt>
<pdfrwt beam="1">  1        2 0.19472452E+00 0.70422336E+03</pdfrwt>
<pdfrwt beam="2">  1       -2 0.60650054E-01 0.70422336E+03</pdfrwt>
<totfact> 0.44864692E+01</totfact>
</mgrwt>
</event>
<event>
 6    1  0.8938744E-004  0.5734274E+03  0.7818608E-02  0.9962123E-01
          2   -1    0    0  502    0  0.00000000000E+00  0.00000000000E+00  0.63656303876E+03  0.63656303876E+03  0.00000000000E+00 0.  1.
         -2   -1    0    0    0  501 -0.00000000000E+00 -0.00000000000E+00 -0.84730465150E+03  0.84730465150E+03  0.00000000000E+00 0. -1.
    9000007    2    1    2  502    0 -0.11219669909E+03 -0.39532033814E+03 -0.56891545744E+03  0.80773547534E+03  0.39988189678E+03 0.  0.
    9000005    1    3    3    0    0 -0.24460137554E+03 -0.14421066763E+03 -0.22839768161E+03  0.36440780800E+03  0.99999687468E+00 0.  0.
          4    1    3    3  502    0  0.13240467645E+03 -0.25110967051E+03 -0.34051777583E+03  0.44332766733E+03  0.00000000000E+00 0.  1.
   -9000007    1    1    2    0  501  0.11219669909E+03  0.39532033814E+03  0.35817384470E+03  0.67613221492E+03  0.40000000000E+03 0.  1.
<mgrwt>
<rscale>  2 0.57342744E+03</rscale>
<asrwt>0</asrwt>
<pdfrwt beam="1">  1        2 0.97932775E-01 0.57342744E+03</pdfrwt>
<pdfrwt beam="2">  1       -2 0.13035456E+00 0.57342744E+03</pdfrwt>
<totfact> 0.20544782E+01</totfact>
</mgrwt>
</event>
<event>
 6    1  0.8938744E-004  0.4898110E+03  0.7818608E-02  0.1016473E+00
         -1   -1    0    0    0  501 -0.00000000000E+00  0.00000000000E+00  0.16040987212E+03  0.16040987212E+03  0.00000000000E+00 0. -1.
          1   -1    0    0  502    0  0.00000000000E+00 -0.00000000000E+00 -0.15199636792E+04  0.15199636792E+04  0.00000000000E+00 0.  1.
    9000007    2    1    2  502    0  0.21693014541E+03  0.17872036702E+03 -0.57477279880E+03  0.75577586122E+03  0.40228562563E+03 0.  0.
    9000005    1    3    3    0    0  0.76240644868E+02 -0.12473010422E+03 -0.24975432740E+03  0.28939325991E+03  0.99999687468E+00 0.  0.
          4    1    3    3  502    0  0.14068950055E+03  0.30345047124E+03 -0.32501847140E+03  0.46638260131E+03  0.00000000000E+00 0.  1.
   -9000007    1    1    2    0  501 -0.21693014541E+03 -0.17872036702E+03 -0.78478100825E+03  0.92459769007E+03  0.40000000000E+03 0. -1.
<mgrwt>
<rscale>  2 0.48981095E+03</rscale>
<asrwt>0</asrwt>
<pdfrwt beam="1">  1        1 0.23384056E+00 0.48981095E+03</pdfrwt>
<pdfrwt beam="2">  1       -1 0.24678443E-01 0.48981095E+03</pdfrwt>
<totfact> 0.95672720E+01</totfact>
</mgrwt>
</event>
<event>
 6    1  0.8938744E-004  0.4339678E+03  0.7818608E-02  0.1032614E+00
         -2   -1    0    0    0  501 -0.00000000000E+00  0.00000000000E+00  0.82292103855E+02  0.82292103855E+02  0.00000000000E+00 0. -1.
          2   -1    0    0  502    0  0.00000000000E+00 -0.00000000000E+00 -0.23244636822E+04  0.23244636822E+04  0.00000000000E+00 0.  1.
    9000007    2    1    2  502    0 -0.15502876933E+03 -0.65982827188E+02 -0.97129242945E+03  0.10638032687E+04  0.39985091992E+03 0.  0.
    9000005    1    3    3    0    0  0.83526202924E+02  0.68889362596E+02 -0.89712212876E+02  0.14061170644E+03  0.99999687468E+00 0.  0.
          4    1    3    3  502    0 -0.23855497225E+03 -0.13487218978E+03 -0.88158021657E+03  0.92319156225E+03  0.00000000000E+00 0.  1.
   -9000007    1    1    2    0  501  0.15502876933E+03  0.65982827188E+02 -0.12708791489E+04  0.13429525173E+04  0.40000000000E+03 0.  1.
<mgrwt>
<rscale>  2 0.43396777E+03</rscale>
<asrwt>0</asrwt>
<pdfrwt beam="1">  1        2 0.35760980E+00 0.43396777E+03</pdfrwt>
<pdfrwt beam="2">  1       -2 0.12660324E-01 0.43396777E+03</pdfrwt>
<totfact> 0.21955039E+02</totfact>
</mgrwt>
</event>
<event>
 6    1  0.8938744E-004  0.4050898E+03  0.7818608E-02  0.1042031E+00
         -1   -1    0    0    0  501 -0.00000000000E+00  0.00000000000E+00  0.95508432383E+02  0.95508432383E+02  0.00000000000E+00 0. -1.
          1   -1    0    0  502    0  0.00000000000E+00 -0.00000000000E+00 -0.17190140137E+04  0.17190140137E+04  0.00000000000E+00 0.  1.
    9000007    2    1    2  502    0  0.22351798282E+02  0.58251768436E+02 -0.79192272707E+03  0.88963168773E+03  0.40051225043E+03 0.  0.
    9000005    1    3    3    0    0 -0.15710305301E+03  0.12613919970E+03 -0.29767777788E+03  0.35945170246E+03  0.99999687468E+00 0.  0.
          4    1    3    3  502    0  0.17945485129E+03 -0.67887431266E+02 -0.49424494920E+03  0.53017998527E+03  0.00000000000E+00 0.  1.
   -9000007    1    1    2    0  501 -0.22351798282E+02 -0.58251768436E+02 -0.83158285423E+03  0.92489075834E+03  0.40000000000E+03 0. -1.
<mgrwt>
<rscale>  2 0.40508984E+03</rscale>
<asrwt>0</asrwt>
<pdfrwt beam="1">  1        1 0.26446370E+00 0.40508984E+03</pdfrwt>
<pdfrwt beam="2">  1       -1 0.14693605E-01 0.40508984E+03</pdfrwt>
<totfact> 0.16734721E+02</totfact>
</mgrwt>
</event>
<event>
 6    1  0.8938744E-004  0.4534200E+03  0.7818608E-02  0.1026707E+00
          2   -1    0    0  502    0  0.00000000000E+00  0.00000000000E+00  0.11637877485E+04  0.11637877485E+04  0.00000000000E+00 0. -1.
         -2   -1    0    0    0  501 -0.00000000000E+00 -0.00000000000E+00 -0.17842358826E+03  0.17842358826E+03  0.00000000000E+00 0.  1.
    9000007    2    1    2  502    0  0.98496355567E+02  0.18933437711E+03  0.55953331528E+03  0.72021379099E+03  0.40010165634E+03 0.  0.
    9000005    1    3    3    0    0 -0.65502957268E+02 -0.79727053621E+02  0.28210390117E+03  0.30038417325E+03  0.99999687468E+00 0.  0.
          4    1    3    3  502    0  0.16399931284E+03  0.26906143073E+03  0.27742941411E+03  0.41982961774E+03  0.00000000000E+00 0.  1.
   -9000007    1    1    2    0  501 -0.98496355567E+02 -0.18933437711E+03  0.42583084495E+03  0.62199754576E+03  0.40000000000E+03 0.  1.
<mgrwt>
<rscale>  2 0.45342001E+03</rscale>
<asrwt>0</asrwt>
<pdfrwt beam="1">  1        2 0.17904426E+00 0.45342001E+03</pdfrwt>
<pdfrwt beam="2">  1       -2 0.27449783E-01 0.45342001E+03</pdfrwt>
<totfact> 0.24863653E+02</totfact>
</mgrwt>
</event>
<event>
 6    1  0.8938744E-004  0.1049725E+04  0.7818608E-02  0.9255629E-01
         -2   -1    0    0    0  501 -0.00000000000E+00  0.00000000000E+00  0.58673248562E+03  0.58673248562E+03  0.00000000000E+00 0.  1.
          2   -1    0    0  502    0  0.00000000000E+00 -0.00000000000E+00 -0.18834315442E+04  0.18834315442E+04  0.00000000000E+00 0. -1.
    9000007    2    1    2  502    0  0.55469690228E+03 -0.79619265943E+03 -0.58251084626E+03  0.12006459295E+04  0.40077469700E+03 0.  0.
    9000005    1    3    3    0    0  0.15675312275E+03 -0.14514642815E+03  0.38206535238E+02  0.21702480601E+03  0.99999687468E+00 0.  0.
          4    1    3    3  502    0  0.39794377953E+03 -0.65104623128E+03 -0.62071738150E+03  0.98362112352E+03  0.00000000000E+00 0.  1.
   -9000007    1    1    2    0  501 -0.55469690228E+03  0.79619265943E+03 -0.71418821233E+03  0.12695181003E+04  0.40000000000E+03 0. -1.
<mgrwt>
<rscale>  2 0.10497245E+04</rscale>
<asrwt>0</asrwt>
<pdfrwt beam="1">  1        2 0.28975870E+00 0.10497245E+04</pdfrwt>
<pdfrwt beam="2">  1       -2 0.90266536E-01 0.10497245E+04</pdfrwt>
<totfact> 0.80950972E+00</totfact>
</mgrwt>
</event>
<event>
 6    1  0.8938744E-004  0.8350650E+03  0.7818608E-02  0.9510604E-01
          2   -1    0    0  502    0  0.00000000000E+00  0.00000000000E+00  0.23808469620E+04  0.23808469620E+04  0.00000000000E+00 0.  1.
         -2   -1    0    0    0  501 -0.00000000000E+00 -0.00000000000E+00 -0.29883677304E+03  0.29883677304E+03  0.00000000000E+00 0. -1.
    9000007    2    1    2  502    0  0.61998515635E+03  0.39145110080E+03  0.12297568951E+04  0.14863894564E+04  0.39929442371E+03 0.  0.
    9000005    1    3    3    0    0  0.29749432936E+02  0.34221692420E+02  0.42057876730E+03  0.42301731938E+03  0.99999687468E+00 0.  0.
          4    1    3    3  502    0  0.59023572341E+03  0.35722940838E+03  0.80917812775E+03  0.10633721370E+04  0.00000000000E+00 0.  1.
   -9000007    1    1    2    0  501 -0.61998515635E+03 -0.39145110080E+03  0.85225329390E+03  0.11932942786E+04  0.40000000000E+03 0. -1.
<mgrwt>
<rscale>  2 0.83506498E+03</rscale>
<asrwt>0</asrwt>
<pdfrwt beam="1">  1        2 0.36628414E+00 0.83506498E+03</pdfrwt>
<pdfrwt beam="2">  1       -2 0.45974890E-01 0.83506498E+03</pdfrwt>
<totfact> 0.18848638E+01</totfact>
</mgrwt>
</event>
<event>
 6    1  0.8938744E-004  0.4889272E+03  0.7818608E-02  0.1016710E+00
         -1   -1    0    0    0  501 -0.00000000000E+00  0.00000000000E+00  0.27102560531E+03  0.27102560531E+03  0.00000000000E+00 0. -1.
          1   -1    0    0  502    0  0.00000000000E+00 -0.00000000000E+00 -0.14439556871E+04  0.14439556871E+04  0.00000000000E+00 0.  1.
    9000007    2    1    2  502    0 -0.28055511308E+03 -0.10978213177E+02 -0.11215573128E+04  0.12235844527E+04  0.40054514667E+03 0.  0.
    9000005    1    3    3    0    0 -0.10613715042E+03 -0.19131296922E+03 -0.35486991483E+03  0.41689255610E+03  0.99999687468E+00 0.  0.
          4    1    3    3  502    0 -0.17441796267E+03  0.18033475604E+03 -0.76668739794E+03  0.80669189663E+03  0.00000000000E+00 0.  1.
   -9000007    1    1    2    0  501  0.28055511308E+03  0.10978213177E+02 -0.51372769033E+02  0.49139683967E+03  0.40000000000E+03 0. -1.
<mgrwt>
<rscale>  2 0.48892719E+03</rscale>
<asrwt>0</asrwt>
<pdfrwt beam="1">  1        1 0.22214702E+00 0.48892719E+03</pdfrwt>
<pdfrwt beam="2">  1       -1 0.41696248E-01 0.48892719E+03</pdfrwt>
<totfact> 0.43089099E+01</totfact>
</mgrwt>
</event>
<event>
 6    1  0.8938744E-004  0.5180361E+03  0.7818608E-02  0.1009176E+00
          2   -1    0    0  502    0  0.00000000000E+00  0.00000000000E+00  0.97082768780E+03  0.97082768780E+03  0.00000000000E+00 0.  1.
         -2   -1    0    0    0  501 -0.00000000000E+00 -0.00000000000E+00 -0.27788383964E+03  0.27788383964E+03  0.00000000000E+00 0. -1.
    9000007    2    1    2  502    0  0.11715070475E+00 -0.32891733017E+03  0.39181600511E+03  0.64965843992E+03  0.40043686504E+03 0.  0.
    9000005    1    3    3    0    0 -0.72450313516E+02 -0.15661078668E+03 -0.41714950927E+02  0.17753062710E+03  0.99999687468E+00 0.  0.
          4    1    3    3  502    0  0.72567464221E+02 -0.17230654348E+03  0.43353095604E+03  0.47212781282E+03  0.00000000000E+00 0.  1.
   -9000007    1    1    2    0  501 -0.11715070475E+00  0.32891733017E+03  0.30112784305E+03  0.59905308752E+03  0.40000000000E+03 0.  1.
<mgrwt>
<rscale>  2 0.51803611E+03</rscale>
<asrwt>0</asrwt>
<pdfrwt beam="1">  1        2 0.14935810E+00 0.51803611E+03</pdfrwt>
<pdfrwt beam="2">  1       -2 0.42751360E-01 0.51803611E+03</pdfrwt>
<totfact> 0.14061977E+02</totfact>
</mgrwt>
</event>
<event>
 6    1  0.8938744E-004  0.4733297E+03  0.7818608E-02  0.1020985E+00
          1   -1    0    0  502    0  0.00000000000E+00  0.00000000000E+00  0.15776097295E+03  0.15776097295E+03  0.00000000000E+00 0.  1.
         -1   -1    0    0    0  501 -0.00000000000E+00 -0.00000000000E+00 -0.14851460484E+04  0.14851460484E+04  0.00000000000E+00 0. -1.
    9000007    2    1    2  502    0  0.24183491653E+03  0.75744055487E+02 -0.83531108357E+03  0.96000285363E+03  0.39954922581E+03 0.  0.
    9000005    1    3    3    0    0  0.19757875722E+03  0.57771682728E+02 -0.87438541427E+03  0.89829047936E+03  0.99999687468E+00 0.  0.
          4    1    3    3  502    0  0.44256159313E+02  0.17972372759E+02  0.39074330692E+02  0.61712374276E+02  0.00000000000E+00 0.  1.
   -9000007    1    1    2    0  501 -0.24183491653E+03 -0.75744055487E+02 -0.49207399185E+03  0.68290416769E+03  0.40000000000E+03 0.  1.
<mgrwt>
<rscale>  2 0.47332970E+03</rscale>
<asrwt>0</asrwt>
<pdfrwt beam="1">  1        1 0.24270919E-01 0.47332970E+03</pdfrwt>
<pdfrwt beam="2">  1       -1 0.22848400E+00 0.47332970E+03</pdfrwt>
<totfact> 0.20880632E+01</totfact>
</mgrwt>
</event>
<event>
 6    1  0.8938744E-004  0.4187904E+03  0.7818608E-02  0.1037461E+00
         -1   -1    0    0    0  501 -0.00000000000E+00  0.00000000000E+00  0.29227033641E+03  0.29227033641E+03  0.00000000000E+00 0.  1.
          1   -1    0    0  502    0  0.00000000000E+00 -0.00000000000E+00 -0.60496505008E+03  0.60496505008E+03  0.00000000000E+00 0. -1.
    9000007    2    1    2  502    0 -0.10800402042E+03 -0.60585116609E+02 -0.11605328276E+03  0.43463050418E+03  0.40012483795E+03 0.  0.
    9000005    1    3    3    0    0  0.15114683104E+03  0.28248765179E+01 -0.55557125317E+02  0.16106190930E+03  0.99999687468E+00 0.  0.
          4    1    3    3  502    0 -0.25915085146E+03 -0.63409993127E+02 -0.60496157444E+02  0.27356859488E+03  0.00000000000E+00 0.  1.
   -9000007    1    1    2    0  501  0.10800402042E+03  0.60585116609E+02 -0.19664143091E+03  0.46260488230E+03  0.40000000000E+03 0. -1.
<mgrwt>
<rscale>  2 0.41879035E+03</rscale>
<asrwt>0</asrwt>
<pdfrwt beam="1">  1        1 0.93071545E-01 0.41879035E+03</pdfrwt>
<pdfrwt beam="2">  1       -1 0.44964668E-01 0.41879035E+03</pdfrwt>
<totfact> 0.17255669E+02</totfact>
</mgrwt>
</event>
<event>
 6    1  0.8938744E-004  0.8217553E+03  0.7818608E-02  0.9529050E-01
         -2   -1    0    0    0  501 -0.00000000000E+00  0.00000000000E+00  0.22361097496E+03  0.22361097496E+03  0.00000000000E+00 0.  1.
          2   -1    0    0  502    0  0.00000000000E+00 -0.00000000000E+00 -0.30891373801E+04  0.30891373801E+04  0.00000000000E+00 0. -1.
    9000007    2    1    2  502    0 -0.71656767166E+03 -0.41861414587E+02 -0.16808103436E+04  0.18709530323E+04  0.40015026182E+03 0.  0.
    9000005    1    3    3    0    0 -0.71654018909E+03 -0.57218660979E+02 -0.12658327675E+04  0.14556913866E+04  0.99999687468E+00 0.  0.
          4    1    3    3  502    0 -0.27482565023E-01  0.15357246392E+02 -0.41497757609E+03  0.41526164574E+03  0.00000000000E+00 0.  1.
   -9000007    1    1    2    0  501  0.71656767166E+03  0.41861414587E+02 -0.11847160616E+04  0.14417953227E+04  0.40000000000E+03 0.  1.
<mgrwt>
<rscale>  2 0.82175527E+03</rscale>
<asrwt>0</asrwt>
<pdfrwt beam="1">  1        2 0.47525191E+00 0.82175527E+03</pdfrwt>
<pdfrwt beam="2">  1       -2 0.34401688E-01 0.82175527E+03</pdfrwt>
<totfact> 0.12732459E+01</totfact>
</mgrwt>
</event>
<event>
 6    1  0.8938744E-004  0.4257724E+03  0.7818608E-02  0.1035204E+00
         -1   -1    0    0    0  501 -0.00000000000E+00  0.00000000000E+00  0.18118257890E+03  0.18118257890E+03  0.00000000000E+00 0. -1.
          1   -1    0    0  502    0  0.00000000000E+00 -0.00000000000E+00 -0.17245200647E+04  0.17245200647E+04  0.00000000000E+00 0.  1.
    9000007    2    1    2  502    0 -0.86938945288E+02 -0.11595941386E+03 -0.15463328724E+03  0.45328937011E+03  0.40069294187E+03 0.  0.
    9000005    1    3    3    0    0 -0.35636811617E+02 -0.25436907097E+03 -0.27219535220E+02  0.25829345656E+03  0.99999687468E+00 0.  0.
          4    1    3    3  502    0 -0.51302133671E+02  0.13840965711E+03 -0.12741375202E+03  0.19499591356E+03  0.00000000000E+00 0.  1.
   -9000007    1    1    2    0  501  0.86938945288E+02  0.11595941386E+03 -0.13887041985E+04  0.14524132734E+04  0.40000000000E+03 0.  1.
<mgrwt>
<rscale>  2 0.42577244E+03</rscale>
<asrwt>0</asrwt>
<pdfrwt beam="1">  1        1 0.26531078E+00 0.42577244E+03</pdfrwt>
<pdfrwt beam="2">  1       -1 0.27874243E-01 0.42577244E+03</pdfrwt>
<totfact> 0.57432084E+01</totfact>
</mgrwt>
</event>
<event>
 6    1  0.8938744E-004  0.4328969E+03  0.7818608E-02  0.1032949E+00
         -2   -1    0    0    0  501 -0.00000000000E+00  0.00000000000E+00  0.14081979817E+03  0.14081979817E+03  0.00000000000E+00 0. -1.
          2   -1    0    0  502    0  0.00000000000E+00 -0.00000000000E+00 -0.15901017988E+04  0.15901017988E+04  0.00000000000E+00 0.  1.
    9000007    2    1    2  502    0 -0.16603245872E+03 -0.68204181922E+01 -0.37478801147E+03  0.57240934921E+03  0.39946603619E+03 0.  0.
    9000005    1    3    3    0    0 -0.25849621094E+02  0.16206877973E+03 -0.34864571023E+02  0.16778268856E+03  0.99999687468E+00 0.  0.
          4    1    3    3  502    0 -0.14018283763E+03 -0.16888919793E+03 -0.33992344045E+03  0.40462666065E+03  0.00000000000E+00 0.  1.
   -9000007    1    1    2    0  501  0.16603245872E+03  0.68204181922E+01 -0.10744939892E+04  0.11585122477E+04  0.40000000000E+03 0.  1.
<mgrwt>
<rscale>  2 0.43289691E+03</rscale>
<asrwt>0</asrwt>
<pdfrwt beam="1">  1        2 0.24463106E+00 0.43289691E+03</pdfrwt>
<pdfrwt beam="2">  1       -2 0.21664583E-01 0.43289691E+03</pdfrwt>
<totfact> 0.21938792E+02</totfact>
</mgrwt>
</event>
<event>
 6    1  0.8938744E-004  0.4323774E+03  0.7818608E-02  0.1033112E+00
         -2   -1    0    0    0  501 -0.00000000000E+00  0.00000000000E+00  0.53757003174E+03  0.53757003174E+03  0.00000000000E+00 0. -1.
          2   -1    0    0  502    0  0.00000000000E+00 -0.00000000000E+00 -0.42524206499E+03  0.42524206499E+03  0.00000000000E+00 0.  1.
    9000007    2    1    2  502    0  0.28988709348E+02  0.16201567375E+03 -0.14933266172E+03  0.45728691606E+03  0.39965191846E+03 0.  0.
    9000005    1    3    3    0    0  0.10832413315E+03 -0.14061185354E+02  0.95746885853E+02  0.14525942620E+03  0.99999687468E+00 0.  0.
          4    1    3    3  502    0 -0.79335423804E+02  0.17607685910E+03 -0.24507954758E+03  0.31202748985E+03  0.00000000000E+00 0.  1.
   -9000007    1    1    2    0  501 -0.28988709348E+02 -0.16201567375E+03  0.26166062847E+03  0.50552518068E+03  0.40000000000E+03 0. -1.
<mgrwt>
<rscale>  2 0.43237738E+03</rscale>
<asrwt>0</asrwt>
<pdfrwt beam="1">  1        2 0.65421856E-01 0.43237738E+03</pdfrwt>
<pdfrwt beam="2">  1       -2 0.82703082E-01 0.43237738E+03</pdfrwt>
<totfact> 0.98131991E+01</totfact>
</mgrwt>
</event>
<event>
 6    1  0.8938744E-004  0.4125642E+03  0.7818608E-02  0.1039514E+00
          1   -1    0    0  502    0  0.00000000000E+00  0.00000000000E+00  0.48047059734E+03  0.48047059734E+03  0.00000000000E+00 0. -1.
         -1   -1    0    0    0  501 -0.00000000000E+00 -0.00000000000E+00 -0.42639353312E+03  0.42639353312E+03  0.00000000000E+00 0.  1.
    9000007    2    1    2  502    0 -0.15075829496E+01  0.10308518741E+03 -0.15949314205E+03  0.44184686017E+03  0.39895082004E+03 0.  0.
    9000005    1    3    3    0    0 -0.19185014009E+03  0.95233831870E+02 -0.12575717130E+03  0.24837839099E+03  0.99999687468E+00 0.  0.
          4    1    3    3  502    0  0.19034255714E+03  0.78513555403E+01 -0.33735970751E+02  0.19346846918E+03  0.00000000000E+00 0.  1.
   -9000007    1    1    2    0  501  0.15075829496E+01 -0.10308518741E+03  0.21357020627E+03  0.46501727030E+03  0.40000000000E+03 0. -1.
<mgrwt>
<rscale>  2 0.41256417E+03</rscale>
<asrwt>0</asrwt>
<pdfrwt beam="1">  1        1 0.73918554E-01 0.41256417E+03</pdfrwt>
<pdfrwt beam="2">  1       -1 0.65599005E-01 0.41256417E+03</pdfrwt>
<totfact> 0.11536941E+02</totfact>
</mgrwt>
</event>
<event>
 6    1  0.8938744E-004  0.4080067E+03  0.7818608E-02  0.1041042E+00
         -1   -1    0    0    0  501 -0.00000000000E+00  0.00000000000E+00  0.10678856657E+03  0.10678856657E+03  0.00000000000E+00 0. -1.
          1   -1    0    0  502    0  0.00000000000E+00 -0.00000000000E+00 -0.16553474650E+04  0.16553474650E+04  0.00000000000E+00 0.  1.
    9000007    2    1    2  502    0 -0.60749861080E+02 -0.38401034562E+02 -0.98982401838E+03  0.10712309359E+04  0.40326039419E+03 0.  0.
    9000005    1    3    3    0    0 -0.11194334191E+03  0.34526378102E+02 -0.50302931384E+02  0.12749418607E+03  0.99999687468E+00 0.  0.
          4    1    3    3  502    0  0.51193480832E+02 -0.72927412664E+02 -0.93952108699E+03  0.94373674979E+03  0.00000000000E+00 0.  1.
   -9000007    1    1    2    0  501  0.60749861080E+02  0.38401034562E+02 -0.55873488000E+03  0.69090509566E+03  0.40000000000E+03 0. -1.
<mgrwt>
<rscale>  2 0.40800675E+03</rscale>
<asrwt>0</asrwt>
<pdfrwt beam="1">  1        1 0.25466883E+00 0.40800675E+03</pdfrwt>
<pdfrwt beam="2">  1       -1 0.16429011E-01 0.40800675E+03</pdfrwt>
<totfact> 0.15396998E+02</totfact>
</mgrwt>
</event>
<event>
 6    1  0.8938744E-004  0.4474384E+03  0.7818608E-02  0.1028489E+00
         -2   -1    0    0    0  501 -0.00000000000E+00  0.00000000000E+00  0.11090352623E+03  0.11090352623E+03  0.00000000000E+00 0. -1.
          2   -1    0    0  502    0  0.00000000000E+00 -0.00000000000E+00 -0.26639527514E+04  0.26639527514E+04  0.00000000000E+00 0.  1.
    9000007    2    1    2  502    0  0.11471566067E+03 -0.16426303684E+03 -0.20643972617E+04  0.21123438102E+04  0.40014783568E+03 0.  0.
    9000005    1    3    3    0    0  0.26206778387E+03 -0.67833158456E+02 -0.11924440179E+04  0.12227855889E+04  0.99999687468E+00 0.  0.
          4    1    3    3  502    0 -0.14735212320E+03 -0.96429878381E+02 -0.87195324383E+03  0.88955822130E+03  0.00000000000E+00 0.  1.
   -9000007    1    1    2    0  501 -0.11471566067E+03  0.16426303684E+03 -0.48865196349E+03  0.66251246743E+03  0.40000000000E+03 0. -1.
<mgrwt>
<rscale>  2 0.44743845E+03</rscale>
<asrwt>0</asrwt>
<pdfrwt beam="1">  1        2 0.40983889E+00 0.44743845E+03</pdfrwt>
<pdfrwt beam="2">  1       -2 0.17062081E-01 0.44743845E+03</pdfrwt>
<totfact> 0.85997082E+01</totfact>
</mgrwt>
</event>
<event>
 6    1  0.8938744E-004  0.7094580E+03  0.7818608E-02  0.9701193E-01
         -1   -1    0    0    0  501 -0.00000000000E+00  0.00000000000E+00  0.27547641081E+03  0.27547641081E+03  0.00000000000E+00 0.  1.
          1   -1    0    0  502    0  0.00000000000E+00 -0.00000000000E+00 -0.20378680627E+04  0.20378680627E+04  0.00000000000E+00 0. -1.
    9000007    2    1    2  502    0 -0.42971160620E+03  0.39853140008E+03 -0.50911964301E+03  0.87314654629E+03  0.39962825105E+03 0.  0.
    9000005    1    3    3    0    0 -0.12526651449E+02  0.26885085792E+03 -0.15357599636E+03  0.30987785892E+03  0.99999687468E+00 0.  0.
          4    1    3    3  502    0 -0.41718495475E+03  0.12968054216E+03 -0.35554364665E+03  0.56326868736E+03  0.00000000000E+00 0.  1.
   -9000007    1    1    2    0  501  0.42971160620E+03 -0.39853140008E+03 -0.12532720089E+04  0.14401979273E+04  0.40000000000E+03 0. -1.
<mgrwt>
<rscale>  2 0.70945802E+03</rscale>
<asrwt>0</asrwt>
<pdfrwt beam="1">  1        1 0.31351817E+00 0.70945802E+03</pdfrwt>
<pdfrwt beam="2">  1       -1 0.42380985E-01 0.70945802E+03</pdfrwt>
<totfact> 0.16139046E+01</totfact>
</mgrwt>
</event>
<event>
 6    1  0.8938744E-004  0.4997909E+03  0.7818608E-02  0.1013834E+00
          2   -1    0    0  502    0  0.00000000000E+00  0.00000000000E+00  0.14439087516E+04  0.14439087516E+04  0.00000000000E+00 0. -1.
         -2   -1    0    0    0  501 -0.00000000000E+00 -0.00000000000E+00 -0.46353668454E+03  0.46353668454E+03  0.00000000000E+00 0.  1.
    9000007    2    1    2  502    0 -0.17264167526E+03  0.24504621408E+03 -0.26489975568E+03  0.56559793824E+03  0.39984541027E+03 0.  0.
    9000005    1    3    3    0    0 -0.46917456833E+02  0.43946386017E+01  0.10012617725E+03  0.11066531511E+03  0.99999687468E+00 0.  0.
          4    1    3    3  502    0 -0.12572421843E+03  0.24065157548E+03 -0.36502593293E+03  0.45493262313E+03  0.00000000000E+00 0.  1.
   -9000007    1    1    2    0  501  0.17264167526E+03 -0.24504621408E+03  0.12452718228E+04  0.13418474979E+04  0.40000000000E+03 0. -1.
<mgrwt>
<rscale>  2 0.49979092E+03</rscale>
<asrwt>0</asrwt>
<pdfrwt beam="1">  1        2 0.22213981E+00 0.49979092E+03</pdfrwt>
<pdfrwt beam="2">  1       -2 0.71313337E-01 0.49979092E+03</pdfrwt>
<totfact> 0.25831940E+01</totfact>
</mgrwt>
</event>
<event>
 6    1  0.8938744E-004  0.4542990E+03  0.7818608E-02  0.1026448E+00
         -2   -1    0    0    0  501 -0.00000000000E+00  0.00000000000E+00  0.35871452368E+03  0.35871452368E+03  0.00000000000E+00 0. -1.
          2   -1    0    0  502    0  0.00000000000E+00 -0.00000000000E+00 -0.60444641274E+03  0.60444641274E+03  0.00000000000E+00 0.  1.
    9000007    2    1    2  502    0 -0.19846028525E+03 -0.84120507786E+02 -0.17190973144E+02  0.45454153559E+03  0.39981212258E+03 0.  0.
    9000005    1    3    3    0    0 -0.20478552613E+03 -0.19341916267E+03  0.95487973924E+02  0.29743408910E+03  0.99999687468E+00 0.  0.
          4    1    3    3  502    0  0.63252408759E+01  0.10929865488E+03 -0.11267894707E+03  0.15710744649E+03  0.00000000000E+00 0.  1.
   -9000007    1    1    2    0  501  0.19846028525E+03  0.84120507786E+02 -0.22854091592E+03  0.50861940083E+03  0.40000000000E+03 0. -1.
<mgrwt>
<rscale>  2 0.45429902E+03</rscale>
<asrwt>0</asrwt>
<pdfrwt beam="1">  1        2 0.92991755E-01 0.45429902E+03</pdfrwt>
<pdfrwt beam="2">  1       -2 0.55186850E-01 0.45429902E+03</pdfrwt>
<totfact> 0.15613367E+02</totfact>
</mgrwt>
</event>
<event>
 6    1  0.8938744E-004  0.4710262E+03  0.7818608E-02  0.1021631E+00
          2   -1    0    0  502    0  0.00000000000E+00  0.00000000000E+00  0.41098378889E+03  0.41098378889E+03  0.00000000000E+00 0.  1.
         -2   -1    0    0    0  501 -0.00000000000E+00 -0.00000000000E+00 -0.53989930540E+03  0.53989930540E+03  0.00000000000E+00 0. -1.
    9000007    2    1    2  502    0  0.19446697128E+03 -0.15508627715E+03 -0.69424084547E+02  0.47611116298E+03  0.39999122455E+03 0.  0.
    9000005    1    3    3    0    0  0.13269972503E+03 -0.15398492863E+03 -0.22827831740E+03  0.30566740987E+03  0.99999687468E+00 0.  0.
          4    1    3    3  502    0  0.61767246250E+02 -0.11013485275E+01  0.15885423286E+03  0.17044375311E+03  0.00000000000E+00 0.  1.
   -9000007    1    1    2    0  501 -0.19446697128E+03  0.15508627715E+03 -0.59491431964E+02  0.47477193131E+03  0.40000000000E+03 0.  1.
<mgrwt>
<rscale>  2 0.47102616E+03</rscale>
<asrwt>0</asrwt>
<pdfrwt beam="1">  1        2 0.63228275E-01 0.47102616E+03</pdfrwt>
<pdfrwt beam="2">  1       -2 0.83061431E-01 0.47102616E+03</pdfrwt>
<totfact> 0.10064437E+02</totfact>
</mgrwt>
</event>
<event>
 6    1  0.8938744E-004  0.4030443E+03  0.7818608E-02  0.1042731E+00
         -2   -1    0    0    0  501 -0.00000000000E+00  0.00000000000E+00  0.65872209489E+02  0.65872209489E+02  0.00000000000E+00 0. -1.
          2   -1    0    0  502    0  0.00000000000E+00 -0.00000000000E+00 -0.24680426883E+04  0.24680426883E+04  0.00000000000E+00 0.  1.
    9000007    2    1    2  502    0 -0.30453381872E+02  0.38557004534E+02 -0.11652744119E+04  0.12330206164E+04  0.40007666056E+03 0.  0.
    9000005    1    3    3    0    0 -0.17114419101E+03  0.14615293185E+03 -0.69276090019E+03  0.72840214060E+03  0.99999687468E+00 0.  0.
          4    1    3    3  502    0  0.14069080914E+03 -0.10759592731E+03 -0.47251351172E+03  0.50461847579E+03  0.00000000000E+00 0.  1.
   -9000007    1    1    2    0  501  0.30453381872E+02 -0.38557004534E+02 -0.12368960669E+04  0.13008942814E+04  0.40000000000E+03 0. -1.
<mgrwt>
<rscale>  2 0.40304431E+03</rscale>
<asrwt>0</asrwt>
<pdfrwt beam="1">  1        2 0.37969892E+00 0.40304431E+03</pdfrwt>
<pdfrwt beam="2">  1       -2 0.10134185E-01 0.40304431E+03</pdfrwt>
<totfact> 0.26434662E+02</totfact>
</mgrwt>
</event>
<event>
 6    1  0.8938744E-004  0.5028590E+03  0.7818608E-02  0.1013035E+00
         -2   -1    0    0    0  501 -0.00000000000E+00  0.00000000000E+00  0.39648561525E+03  0.39648561525E+03  0.00000000000E+00 0. -1.
          2   -1    0    0  502    0  0.00000000000E+00 -0.00000000000E+00 -0.63871722377E+03  0.63871722377E+03  0.00000000000E+00 0.  1.
    9000007    2    1    2  502    0  0.15988777739E+02  0.30448439723E+03 -0.14100916350E+03  0.52216056733E+03  0.39975202903E+03 0.  0.
    9000005    1    3    3    0    0 -0.33107962915E+02 -0.88237657935E+02  0.17426589550E+02  0.95847313490E+02  0.99999687468E+00 0.  0.
          4    1    3    3  502    0  0.49096740653E+02  0.39272205517E+03 -0.15843575305E+03  0.42631325384E+03  0.00000000000E+00 0.  1.
   -9000007    1    1    2    0  501 -0.15988777739E+02 -0.30448439723E+03 -0.10122244502E+03  0.51304227170E+03  0.40000000000E+03 0. -1.
<mgrwt>
<rscale>  2 0.50285904E+03</rscale>
<asrwt>0</asrwt>
<pdfrwt beam="1">  1        2 0.98264186E-01 0.50285904E+03</pdfrwt>
<pdfrwt beam="2">  1       -2 0.60997788E-01 0.50285904E+03</pdfrwt>
<totfact> 0.11815556E+02</totfact>
</mgrwt>
</event>
<event>
 6    1  0.8938744E-004  0.4474574E+03  0.7818608E-02  0.1028483E+00
         -1   -1    0    0    0  501 -0.00000000000E+00  0.00000000000E+00  0.19629629817E+04  0.19629629817E+04  0.00000000000E+00 0. -1.
          1   -1    0    0  502    0  0.00000000000E+00 -0.00000000000E+00 -0.11156156204E+03  0.11156156204E+03  0.00000000000E+00 0.  1.
    9000007    2    1    2  502    0  0.18716822862E+03  0.70971661695E+02  0.62231764016E+03  0.76658117355E+03  0.40037298589E+03 0.  0.
    9000005    1    3    3    0    0  0.22328135943E+03 -0.10059635012E+03  0.22612613948E+03  0.33332899975E+03  0.99999687468E+00 0.  0.
          4    1    3    3  502    0 -0.36113130811E+02  0.17156801181E+03  0.39619150068E+03  0.43325217380E+03  0.00000000000E+00 0.  1.
   -9000007    1    1    2    0  501 -0.18716822862E+03 -0.70971661695E+02  0.12290837795E+04  0.13079433702E+04  0.40000000000E+03 0. -1.
<mgrwt>
<rscale>  2 0.44745741E+03</rscale>
<asrwt>0</asrwt>
<pdfrwt beam="1">  1        1 0.17163319E-01 0.44745741E+03</pdfrwt>
<pdfrwt beam="2">  1       -1 0.30199428E+00 0.44745741E+03</pdfrwt>
<totfact> 0.11249741E+01</totfact>
</mgrwt>
</event>
<event>
 6    1  0.8938744E-004  0.4403913E+03  0.7818608E-02  0.1030627E+00
          1   -1    0    0  502    0  0.00000000000E+00  0.00000000000E+00  0.82263006710E+03  0.82263006710E+03  0.00000000000E+00 0. -1.
         -1   -1    0    0    0  501 -0.00000000000E+00 -0.00000000000E+00 -0.26058053691E+03  0.26058053691E+03  0.00000000000E+00 0.  1.
    9000007    2    1    2  502    0 -0.46738701810E+02  0.17824726451E+03  0.44816607501E+03  0.62831936985E+03  0.39996975658E+03 0.  0.
    9000005    1    3    3    0    0 -0.15688894075E+03 -0.47047992864E+02  0.78545877444E+02  0.18165381422E+03  0.99999687468E+00 0.  0.
          4    1    3    3  502    0  0.11015023894E+03  0.22529525737E+03  0.36962019757E+03  0.44666555563E+03  0.00000000000E+00 0.  1.
   -9000007    1    1    2    0  501  0.46738701810E+02 -0.17824726451E+03  0.11388345519E+03  0.45489123416E+03  0.40000000000E+03 0. -1.
<mgrwt>
<rscale>  2 0.44039130E+03</rscale>
<asrwt>0</asrwt>
<pdfrwt beam="1">  1        1 0.12655847E+00 0.44039130E+03</pdfrwt>
<pdfrwt beam="2">  1       -1 0.40089314E-01 0.44039130E+03</pdfrwt>
<totfact> 0.13395264E+02</totfact>
</mgrwt>
</event>
<event>
 6    1  0.8938744E-004  0.4139235E+03  0.7818608E-02  0.1039062E+00
         -2   -1    0    0    0  501 -0.00000000000E+00  0.00000000000E+00  0.16206227730E+03  0.16206227730E+03  0.00000000000E+00 0.  1.
          2   -1    0    0  502    0  0.00000000000E+00 -0.00000000000E+00 -0.10892515934E+04  0.10892515934E+04  0.00000000000E+00 0. -1.
    9000007    2    1    2  502    0 -0.10407949407E+03 -0.25349120165E+02 -0.57072691495E+03  0.70492521561E+03  0.39964387795E+03 0.  0.
    9000005    1    3    3    0    0 -0.20136005335E+03  0.12198705152E+03 -0.35799876460E+03  0.42847500192E+03  0.99999687468E+00 0.  0.
          4    1    3    3  502    0  0.97280559274E+02 -0.14733617168E+03 -0.21272815035E+03  0.27645021369E+03  0.00000000000E+00 0.  1.
   -9000007    1    1    2    0  501  0.10407949407E+03  0.25349120165E+02 -0.35646240114E+03  0.54638865508E+03  0.40000000000E+03 0.  1.
<mgrwt>
<rscale>  2 0.41392351E+03</rscale>
<asrwt>0</asrwt>
<pdfrwt beam="1">  1        2 0.16757717E+00 0.41392351E+03</pdfrwt>
<pdfrwt beam="2">  1       -2 0.24932657E-01 0.41392351E+03</pdfrwt>
<totfact> 0.32857187E+02</totfact>
</mgrwt>
</event>
<event>
 6    1  0.8938744E-004  0.4469026E+03  0.7818608E-02  0.1028650E+00
         -2   -1    0    0    0  501 -0.00000000000E+00  0.00000000000E+00  0.20806821684E+03  0.20806821684E+03  0.00000000000E+00 0.  1.
          2   -1    0    0  502    0  0.00000000000E+00 -0.00000000000E+00 -0.99312158727E+03  0.99312158727E+03  0.00000000000E+00 0. -1.
    9000007    2    1    2  502    0  0.13833534121E+03 -0.14313962171E+03 -0.50248741721E+03  0.67254139936E+03  0.40024081684E+03 0.  0.
    9000005    1    3    3    0    0  0.16195840451E+03 -0.27071901952E+03 -0.38258576712E+03  0.49587516727E+03  0.99999687468E+00 0.  0.
          4    1    3    3  502    0 -0.23623063299E+02  0.12757939781E+03 -0.11990165009E+03  0.17666623209E+03  0.00000000000E+00 0.  1.
   -9000007    1    1    2    0  501 -0.13833534121E+03  0.14313962171E+03 -0.28256595322E+03  0.52864840475E+03  0.40000000000E+03 0. -1.
<mgrwt>
<rscale>  2 0.44690262E+03</rscale>
<asrwt>0</asrwt>
<pdfrwt beam="1">  1        2 0.15278794E+00 0.44690262E+03</pdfrwt>
<pdfrwt beam="2">  1       -2 0.32010494E-01 0.44690262E+03</pdfrwt>
<totfact> 0.23809617E+02</totfact>
</mgrwt>
</event>
<event>
 6    1  0.8938744E-004  0.4197256E+03  0.7818608E-02  0.1037156E+00
         -2   -1    0    0    0  501 -0.00000000000E+00  0.00000000000E+00  0.98984785986E+02  0.98984785986E+02  0.00000000000E+00 0. -1.
          2   -1    0    0  502    0  0.00000000000E+00 -0.00000000000E+00 -0.21680379968E+04  0.21680379968E+04  0.00000000000E+00 0.  1.
    9000007    2    1    2  502    0  0.25063180253E+02 -0.12464558310E+03 -0.15142294026E+04  0.15713259073E+04  0.40001217343E+03 0.  0.
    9000005    1    3    3    0    0  0.21053393841E+03 -0.93317266479E+02 -0.89545910001E+03  0.92459756177E+03  0.99999687468E+00 0.  0.
          4    1    3    3  502    0 -0.18547075816E+03 -0.31328316620E+02 -0.61877030260E+03  0.64672834555E+03  0.00000000000E+00 0.  1.
   -9000007    1    1    2    0  501 -0.25063180253E+02  0.12464558310E+03 -0.55482380822E+03  0.69569687549E+03  0.40000000000E+03 0. -1.
<mgrwt>
<rscale>  2 0.41972557E+03</rscale>
<asrwt>0</asrwt>
<pdfrwt beam="1">  1        2 0.33354431E+00 0.41972557E+03</pdfrwt>
<pdfrwt beam="2">  1       -2 0.15228429E-01 0.41972557E+03</pdfrwt>
<totfact> 0.19690764E+02</totfact>
</mgrwt>
</event>
<event>
 6    1  0.8938744E-004  0.4316212E+03  0.7818608E-02  0.1033349E+00
         -2   -1    0    0    0  501 -0.00000000000E+00  0.00000000000E+00  0.39428519888E+03  0.39428519888E+03  0.00000000000E+00 0.  1.
          2   -1    0    0  502    0  0.00000000000E+00 -0.00000000000E+00 -0.55775680119E+03  0.55775680119E+03  0.00000000000E+00 0. -1.
    9000007    2    1    2  502    0  0.12771514779E+03 -0.12406609150E+03 -0.26674086701E+03  0.50218858498E+03  0.38644421424E+03 0.  0.
    9000005    1    3    3    0    0  0.25622013776E+02  0.13997804548E+03 -0.94115869542E+02  0.17061400206E+03  0.99999687468E+00 0.  0.
          4    1    3    3  502    0  0.10209313401E+03 -0.26404413698E+03 -0.17262499747E+03  0.33157458292E+03  0.00000000000E+00 0.  1.
   -9000007    1    1    2    0  501 -0.12771514779E+03  0.12406609150E+03  0.10326926470E+03  0.44985341509E+03  0.40000000000E+03 0.  1.
<mgrwt>
<rscale>  2 0.43162122E+03</rscale>
<asrwt>0</asrwt>
<pdfrwt beam="1">  1        2 0.85808739E-01 0.43162122E+03</pdfrwt>
<pdfrwt beam="2">  1       -2 0.60659261E-01 0.43162122E+03</pdfrwt>
<totfact> 0.14126122E+02</totfact>
</mgrwt>
</event>
<event>
 6    1  0.8938744E-004  0.6496482E+03  0.7818608E-02  0.9807440E-01
         -2   -1    0    0    0  501 -0.00000000000E+00  0.00000000000E+00  0.72583146684E+03  0.72583146684E+03  0.00000000000E+00 0.  1.
          2   -1    0    0  502    0  0.00000000000E+00 -0.00000000000E+00 -0.76050263286E+03  0.76050263286E+03  0.00000000000E+00 0. -1.
    9000007    2    1    2  502    0  0.47913756984E+03 -0.17995684263E+03  0.34325245491E+03  0.73481328209E+03  0.40021373750E+03 0.  0.
    9000005    1    3    3    0    0  0.27815461785E+03  0.85207484934E+02  0.58199233035E+02  0.29667904820E+03  0.99999687468E+00 0.  0.
          4    1    3    3  502    0  0.20098295199E+03 -0.26516432756E+03  0.28505322188E+03  0.43813423389E+03  0.00000000000E+00 0.  1.
   -9000007    1    1    2    0  501 -0.47913756984E+03  0.17995684263E+03 -0.37792362093E+03  0.75152081761E+03  0.40000000000E+03 0. -1.
<mgrwt>
<rscale>  2 0.64964820E+03</rscale>
<asrwt>0</asrwt>
<pdfrwt beam="1">  1        2 0.11700040E+00 0.64964820E+03</pdfrwt>
<pdfrwt beam="2">  1       -2 0.11166638E+00 0.64964820E+03</pdfrwt>
<totfact> 0.23894270E+01</totfact>
</mgrwt>
</event>
<event>
 6    1  0.8938744E-004  0.4555032E+03  0.7818608E-02  0.1026094E+00
         -2   -1    0    0    0  501 -0.00000000000E+00  0.00000000000E+00  0.12210619864E+04  0.12210619864E+04  0.00000000000E+00 0. -1.
          2   -1    0    0  502    0  0.00000000000E+00 -0.00000000000E+00 -0.20974383736E+03  0.20974383736E+03  0.00000000000E+00 0.  1.
    9000007    2    1    2  502    0  0.21664202836E+03  0.22887794023E+02  0.19395613286E+03  0.49510379583E+03  0.40006395440E+03 0.  0.
    9000005    1    3    3    0    0 -0.35950360048E+02 -0.13922873818E+03  0.11666037616E+03  0.18516941778E+03  0.99999687468E+00 0.  0.
          4    1    3    3  502    0  0.25259238841E+03  0.16211653220E+03  0.77295756706E+02  0.30993437806E+03  0.00000000000E+00 0.  1.
   -9000007    1    1    2    0  501 -0.21664202836E+03 -0.22887794023E+02  0.81736201621E+03  0.93570202795E+03  0.40000000000E+03 0. -1.
<mgrwt>
<rscale>  2 0.45550324E+03</rscale>
<asrwt>0</asrwt>
<pdfrwt beam="1">  1        2 0.32268283E-01 0.45550324E+03</pdfrwt>
<pdfrwt beam="2">  1       -2 0.18785569E+00 0.45550324E+03</pdfrwt>
<totfact> 0.27372899E+01</totfact>
</mgrwt>
</event>
<event>
 6    1  0.8938744E-004  0.5493375E+03  0.7818608E-02  0.1001647E+00
          1   -1    0    0  502    0  0.00000000000E+00  0.00000000000E+00  0.44532827924E+03  0.44532827924E+03  0.00000000000E+00 0.  1.
         -1   -1    0    0    0  501 -0.00000000000E+00 -0.00000000000E+00 -0.83460281523E+03  0.83460281523E+03  0.00000000000E+00 0. -1.
    9000007    2    1    2  502    0 -0.12309541466E+03 -0.35569493146E+03 -0.47219788351E+03  0.72446044093E+03  0.40025082623E+03 0.  0.
    9000005    1    3    3    0    0 -0.26219915759E+03 -0.16087417108E+03 -0.23156218971E+03  0.38503369315E+03  0.99999687468E+00 0.  0.
          4    1    3    3  502    0  0.13910374293E+03 -0.19482076039E+03 -0.24063569380E+03  0.33942674778E+03  0.00000000000E+00 0.  1.
   -9000007    1    1    2    0  501  0.12309541466E+03  0.35569493146E+03  0.82923347533E+02  0.55547065354E+03  0.40000000000E+03 0.  1.
<mgrwt>
<rscale>  2 0.54933752E+03</rscale>
<asrwt>0</asrwt>
<pdfrwt beam="1">  1        1 0.68512043E-01 0.54933752E+03</pdfrwt>
<pdfrwt beam="2">  1       -1 0.12840043E+00 0.54933752E+03</pdfrwt>
<totfact> 0.28465967E+01</totfact>
</mgrwt>
</event>
<event>
 6    1  0.8938744E-004  0.7170445E+03  0.7818608E-02  0.9688520E-01
         -2   -1    0    0    0  501 -0.00000000000E+00  0.00000000000E+00  0.33733056527E+03  0.33733056527E+03  0.00000000000E+00 0. -1.
          2   -1    0    0  502    0  0.00000000000E+00 -0.00000000000E+00 -0.15382779613E+04  0.15382779613E+04  0.00000000000E+00 0.  1.
    9000007    2    1    2  502    0 -0.24500512899E+03  0.54287360698E+03 -0.51036055746E+03  0.87979255561E+03  0.39853202619E+03 0.  0.
    9000005    1    3    3    0    0 -0.25734466564E+03  0.58534585010E+03 -0.38388058208E+03  0.74580248220E+03  0.99999687468E+00 0.  0.
          4    1    3    3  502    0  0.12339536656E+02 -0.42472243114E+02 -0.12647997538E+03  0.13399007341E+03  0.00000000000E+00 0.  1.
   -9000007    1    1    2    0  501  0.24500512899E+03 -0.54287360698E+03 -0.69058683853E+03  0.99581597092E+03  0.40000000000E+03 0.  1.
<mgrwt>
<rscale>  2 0.71704450E+03</rscale>
<asrwt>0</asrwt>
<pdfrwt beam="1">  1        2 0.23665814E+00 0.71704450E+03</pdfrwt>
<pdfrwt beam="2">  1       -2 0.51897011E-01 0.71704450E+03</pdfrwt>
<totfact> 0.43471154E+01</totfact>
</mgrwt>
</event>
<event>
 6    1  0.8938744E-004  0.4099390E+03  0.7818608E-02  0.1040391E+00
          2   -1    0    0  502    0  0.00000000000E+00  0.00000000000E+00  0.25307450739E+03  0.25307450739E+03  0.00000000000E+00 0.  1.
         -2   -1    0    0    0  501 -0.00000000000E+00 -0.00000000000E+00 -0.66413975477E+03  0.66413975477E+03  0.00000000000E+00 0. -1.
    9000007    2    1    2  502    0  0.30489839517E+02  0.84933736709E+02 -0.19967766425E+03  0.45588132355E+03  0.39976648385E+03 0.  0.
    9000005    1    3    3    0    0 -0.11947061562E+03 -0.10388730248E+03 -0.30265920049E+02  0.16119189038E+03  0.99999687468E+00 0.  0.
          4    1    3    3  502    0  0.14996045513E+03  0.18882103919E+03 -0.16941174421E+03  0.29468943317E+03  0.00000000000E+00 0.  1.
   -9000007    1    1    2    0  501 -0.30489839517E+02 -0.84933736709E+02 -0.21138758313E+03  0.46133293861E+03  0.40000000000E+03 0. -1.
<mgrwt>
<rscale>  2 0.40993898E+03</rscale>
<asrwt>0</asrwt>
<pdfrwt beam="1">  1        2 0.38934540E-01 0.40993898E+03</pdfrwt>
<pdfrwt beam="2">  1       -2 0.10217534E+00 0.40993898E+03</pdfrwt>
<totfact> 0.10700430E+02</totfact>
</mgrwt>
</event>
<event>
 6    1  0.8938744E-004  0.4012127E+03  0.7818608E-02  0.1043361E+00
          2   -1    0    0  502    0  0.00000000000E+00  0.00000000000E+00  0.90748740271E+03  0.90748740271E+03  0.00000000000E+00 0. -1.
         -2   -1    0    0    0  501 -0.00000000000E+00 -0.00000000000E+00 -0.18532294311E+03  0.18532294311E+03  0.00000000000E+00 0.  1.
    9000007    2    1    2  502    0 -0.10828903367E+02 -0.29875353624E+02  0.24793262553E+03  0.47159731123E+03  0.39990453268E+03 0.  0.
    9000005    1    3    3    0    0 -0.19948061881E+03  0.17715819355E+02  0.16743639501E+03  0.26104082804E+03  0.99999687468E+00 0.  0.
          4    1    3    3  502    0  0.18865171545E+03 -0.47591172979E+02  0.80496230521E+02  0.21055648319E+03  0.00000000000E+00 0.  1.
   -9000007    1    1    2    0  501  0.10828903367E+02  0.29875353624E+02  0.47423183407E+03  0.62121303459E+03  0.40000000000E+03 0. -1.
<mgrwt>
<rscale>  2 0.40121268E+03</rscale>
<asrwt>0</asrwt>
<pdfrwt beam="1">  1        2 0.13961344E+00 0.40121268E+03</pdfrwt>
<pdfrwt beam="2">  1       -2 0.28511222E-01 0.40121268E+03</pdfrwt>
<totfact> 0.33565779E+02</totfact>
</mgrwt>
</event>
<event>
 6    1  0.8938744E-004  0.4123006E+03  0.7818608E-02  0.1039602E+00
         -2   -1    0    0    0  501 -0.00000000000E+00  0.00000000000E+00  0.25830357987E+03  0.25830357987E+03  0.00000000000E+00 0. -1.
          2   -1    0    0  502    0  0.00000000000E+00 -0.00000000000E+00 -0.88037144534E+03  0.88037144534E+03  0.00000000000E+00 0.  1.
    9000007    2    1    2  502    0  0.84206935648E+02  0.52864533037E+02 -0.25037986354E+02  0.41318888238E+03  0.40026576784E+03 0.  0.
    9000005    1    3    3    0    0  0.69699417736E+02  0.10210137649E+03  0.17073758946E+03  0.21079616781E+03  0.99999687468E+00 0.  0.
          4    1    3    3  502    0  0.14507517912E+02 -0.49236843449E+02 -0.19577557581E+03  0.20239271458E+03  0.00000000000E+00 0.  1.
   -9000007    1    1    2    0  501 -0.84206935648E+02 -0.52864533037E+02 -0.59702987912E+03  0.72548614282E+03  0.40000000000E+03 0.  1.
<mgrwt>
<rscale>  2 0.41230059E+03</rscale>
<asrwt>0</asrwt>
<pdfrwt beam="1">  1        2 0.13544176E+00 0.41230059E+03</pdfrwt>
<pdfrwt beam="2">  1       -2 0.39739012E-01 0.41230059E+03</pdfrwt>
<totfact> 0.18760311E+02</totfact>
</mgrwt>
</event>
<event>
 6    1  0.8938744E-004  0.4919196E+03  0.7818608E-02  0.1015910E+00
          2   -1    0    0  502    0  0.00000000000E+00  0.00000000000E+00  0.25894984978E+04  0.25894984978E+04  0.00000000000E+00 0.  1.
         -2   -1    0    0    0  501 -0.00000000000E+00 -0.00000000000E+00 -0.13350203597E+03  0.13350203597E+03  0.00000000000E+00 0. -1.
    9000007    2    1    2  502    0  0.66350849747E+02  0.27917924954E+03  0.48161131055E+03  0.68816879275E+03  0.39910317492E+03 0.  0.
    9000005    1    3    3    0    0  0.23175791477E+03  0.14664695146E+03  0.32118219969E+03  0.42234590660E+03  0.99999687468E+00 0.  0.
          4    1    3    3  502    0 -0.16540706502E+03  0.13253229808E+03  0.16042911086E+03  0.26582288615E+03  0.00000000000E+00 0.  1.
   -9000007    1    1    2    0  501 -0.66350849747E+02 -0.27917924954E+03  0.19743851513E+04  0.20348317410E+04  0.40000000000E+03 0.  1.
<mgrwt>
<rscale>  2 0.49191960E+03</rscale>
<asrwt>0</asrwt>
<pdfrwt beam="1">  1        2 0.39838435E+00 0.49191960E+03</pdfrwt>
<pdfrwt beam="2">  1       -2 0.20538777E-01 0.49191960E+03</pdfrwt>
<totfact> 0.68251702E+01</totfact>
</mgrwt>
</event>
<event>
 6    1  0.8938744E-004  0.4011459E+03  0.7818608E-02  0.1043384E+00
         -2   -1    0    0    0  501 -0.00000000000E+00  0.00000000000E+00  0.10935176316E+03  0.10935176316E+03  0.00000000000E+00 0. -1.
          2   -1    0    0  502    0  0.00000000000E+00 -0.00000000000E+00 -0.16472919805E+04  0.16472919805E+04  0.00000000000E+00 0.  1.
    9000007    2    1    2  502    0  0.92523437561E+01  0.23002004866E+02 -0.48274626989E+03  0.62790596861E+03  0.40075833894E+03 0.  0.
    9000005    1    3    3    0    0 -0.18807108279E+03  0.65583190971E+02 -0.25508265353E+03  0.32363567054E+03  0.99999687468E+00 0.  0.
          4    1    3    3  502    0  0.19732342654E+03 -0.42581186105E+02 -0.22766361636E+03  0.30427029807E+03  0.00000000000E+00 0.  1.
   -9000007    1    1    2    0  501 -0.92523437561E+01 -0.23002004866E+02 -0.10551939474E+04  0.11287377750E+04  0.40000000000E+03 0.  1.
<mgrwt>
<rscale>  2 0.40114590E+03</rscale>
<asrwt>0</asrwt>
<pdfrwt beam="1">  1        2 0.25342953E+00 0.40114590E+03</pdfrwt>
<pdfrwt beam="2">  1       -2 0.16823349E-01 0.40114590E+03</pdfrwt>
<totfact> 0.31716353E+02</totfact>
</mgrwt>
</event>
<event>
 6    1  0.8938744E-004  0.5484458E+03  0.7818608E-02  0.1001854E+00
          2   -1    0    0  502    0  0.00000000000E+00  0.00000000000E+00  0.41001213902E+03  0.41001213902E+03  0.00000000000E+00 0.  1.
         -2   -1    0    0    0  501 -0.00000000000E+00 -0.00000000000E+00 -0.73898713847E+03  0.73898713847E+03  0.00000000000E+00 0. -1.
    9000007    2    1    2  502    0 -0.37498544480E+03  0.31429677011E+01 -0.11556952429E+03  0.56064066331E+03  0.40042187297E+03 0.  0.
    9000005    1    3    3    0    0 -0.44309376867E+03 -0.23104865415E+02 -0.16400887271E+03  0.47303893388E+03  0.99999687468E+00 0.  0.
          4    1    3    3  502    0  0.68108323873E+02  0.26247833117E+02  0.48439348420E+02  0.87601729432E+02  0.00000000000E+00 0.  1.
   -9000007    1    1    2    0  501  0.37498544480E+03 -0.31429677011E+01 -0.21340547516E+03  0.58835861418E+03  0.40000000000E+03 0.  1.
<mgrwt>
<rscale>  2 0.54844576E+03</rscale>
<asrwt>0</asrwt>
<pdfrwt beam="1">  1        2 0.63078792E-01 0.54844576E+03</pdfrwt>
<pdfrwt beam="2">  1       -2 0.11369033E+00 0.54844576E+03</pdfrwt>
<totfact> 0.48130986E+01</totfact>
</mgrwt>
</event>
<event>
 6    1  0.8938744E-004  0.4058721E+03  0.7818608E-02  0.1041765E+00
         -2   -1    0    0    0  501 -0.00000000000E+00  0.00000000000E+00  0.10443971759E+03  0.10443971759E+03  0.00000000000E+00 0.  1.
          2   -1    0    0  502    0  0.00000000000E+00 -0.00000000000E+00 -0.17315486341E+04  0.17315486341E+04  0.00000000000E+00 0. -1.
    9000007    2    1    2  502    0  0.62805947294E+02 -0.32162826978E+02 -0.10869928014E+04  0.11601892304E+04  0.39938285606E+03 0.  0.
    9000005    1    3    3    0    0  0.63551216840E+02 -0.15631146405E+03 -0.98547458537E+03  0.99981657786E+03  0.99999687468E+00 0.  0.
          4    1    3    3  502    0 -0.74526954613E+00  0.12414863707E+03 -0.10151821601E+03  0.16037265258E+03  0.00000000000E+00 0.  1.
   -9000007    1    1    2    0  501 -0.62805947294E+02  0.32162826978E+02 -0.54011611511E+03  0.67579912123E+03  0.40000000000E+03 0.  1.
<mgrwt>
<rscale>  2 0.40587213E+03</rscale>
<asrwt>0</asrwt>
<pdfrwt beam="1">  1        2 0.26639210E+00 0.40587213E+03</pdfrwt>
<pdfrwt beam="2">  1       -2 0.16067649E-01 0.40587213E+03</pdfrwt>
<totfact> 0.30873756E+02</totfact>
</mgrwt>
</event>
<event>
 6    1  0.8938744E-004  0.4241205E+03  0.7818608E-02  0.1035734E+00
          2   -1    0    0  502    0  0.00000000000E+00  0.00000000000E+00  0.87635790828E+03  0.87635790828E+03  0.00000000000E+00 0. -1.
         -2   -1    0    0    0  501 -0.00000000000E+00 -0.00000000000E+00 -0.23469330673E+03  0.23469330673E+03  0.00000000000E+00 0.  1.
    9000007    2    1    2  502    0  0.10177231502E+03 -0.96768374243E+02  0.51769698103E+03  0.66936162571E+03  0.40039118303E+03 0.  0.
    9000005    1    3    3    0    0  0.11106837010E+03  0.11784146931E+03  0.77455199922E+02  0.17950794610E+03  0.99999687468E+00 0.  0.
          4    1    3    3  502    0 -0.92960550841E+01 -0.21460984355E+03  0.44024178111E+03  0.48985367960E+03  0.00000000000E+00 0.  1.
   -9000007    1    1    2    0  501 -0.10177231502E+03  0.96768374243E+02  0.12396762052E+03  0.44168958930E+03  0.40000000000E+03 0.  1.
<mgrwt>
<rscale>  2 0.42412051E+03</rscale>
<asrwt>0</asrwt>
<pdfrwt beam="1">  1        2 0.13482429E+00 0.42412051E+03</pdfrwt>
<pdfrwt beam="2">  1       -2 0.36106663E-01 0.42412051E+03</pdfrwt>
<totfact> 0.22650136E+02</totfact>
</mgrwt>
</event>
<event>
 6    1  0.8938744E-004  0.4463739E+03  0.7818608E-02  0.1028809E+00
          2   -1    0    0  502    0  0.00000000000E+00  0.00000000000E+00  0.20617205482E+04  0.20617205482E+04  0.00000000000E+00 0.  1.
         -2   -1    0    0    0  501 -0.00000000000E+00 -0.00000000000E+00 -0.96836347905E+02  0.96836347905E+02  0.00000000000E+00 0. -1.
    9000007    2    1    2  502    0 -0.13229032583E+03  0.14785047797E+03  0.93387209823E+03  0.10350149749E+04  0.39972291432E+03 0.  0.
    9000005    1    3    3    0    0  0.12645492191E+03  0.45875916253E+02  0.14144455707E+03  0.19519992236E+03  0.99999687468E+00 0.  0.
          4    1    3    3  502    0 -0.25874524774E+03  0.10197456172E+03  0.79242754116E+03  0.83981505253E+03  0.00000000000E+00 0.  1.
   -9000007    1    1    2    0  501  0.13229032583E+03 -0.14785047797E+03  0.10310121021E+04  0.11235419212E+04  0.40000000000E+03 0.  1.
<mgrwt>
<rscale>  2 0.44637391E+03</rscale>
<asrwt>0</asrwt>
<pdfrwt beam="1">  1        2 0.31718774E+00 0.44637391E+03</pdfrwt>
<pdfrwt beam="2">  1       -2 0.14897901E-01 0.44637391E+03</pdfrwt>
<totfact> 0.23209211E+02</totfact>
</mgrwt>
</event>
<event>
 6    1  0.8938744E-004  0.4229776E+03  0.7818608E-02  0.1036102E+00
          2   -1    0    0  502    0  0.00000000000E+00  0.00000000000E+00  0.18685544231E+04  0.18685544231E+04  0.00000000000E+00 0.  1.
         -2   -1    0    0    0  501 -0.00000000000E+00 -0.00000000000E+00 -0.95857024243E+02  0.95857024243E+02  0.00000000000E+00 0. -1.
    9000007    2    1    2  502    0 -0.13709665698E+03  0.11451804391E+02  0.91945708191E+03  0.10120744925E+04  0.39995851737E+03 0.  0.
    9000005    1    3    3    0    0 -0.27084253459E+03 -0.34411992177E+02  0.69609162500E+03  0.74771947557E+03  0.99999687468E+00 0.  0.
          4    1    3    3  502    0  0.13374587761E+03  0.45863796569E+02  0.22336545691E+03  0.26435501689E+03  0.00000000000E+00 0.  1.
   -9000007    1    1    2    0  501  0.13709665698E+03 -0.11451804391E+02  0.85324031693E+03  0.95233695487E+03  0.40000000000E+03 0. -1.
<mgrwt>
<rscale>  2 0.42297759E+03</rscale>
<asrwt>0</asrwt>
<pdfrwt beam="1">  1        2 0.28746988E+00 0.42297759E+03</pdfrwt>
<pdfrwt beam="2">  1       -2 0.14747236E-01 0.42297759E+03</pdfrwt>
<totfact> 0.30053967E+02</totfact>
</mgrwt>
</event>
<event>
 6    1  0.8938744E-004  0.4138635E+03  0.7818608E-02  0.1039082E+00
          2   -1    0    0  502    0  0.00000000000E+00  0.00000000000E+00  0.10144447221E+04  0.10144447221E+04  0.00000000000E+00 0. -1.
         -2   -1    0    0    0  501 -0.00000000000E+00 -0.00000000000E+00 -0.17453404009E+03  0.17453404009E+03  0.00000000000E+00 0.  1.
    9000007    2    1    2  502    0  0.42606980657E+02  0.95827548512E+02  0.52763146939E+03  0.67079290702E+03  0.40071172027E+03 0.  0.
    9000005    1    3    3    0    0  0.19988363892E+03  0.18057504943E+02  0.41858431251E+03  0.46421263368E+03  0.99999687468E+00 0.  0.
          4    1    3    3  502    0 -0.15727665826E+03  0.77770043569E+02  0.10904715688E+03  0.20658027334E+03  0.00000000000E+00 0.  1.
   -9000007    1    1    2    0  501 -0.42606980657E+02 -0.95827548512E+02  0.31227921257E+03  0.51818585513E+03  0.40000000000E+03 0.  1.
<mgrwt>
<rscale>  2 0.41386348E+03</rscale>
<asrwt>0</asrwt>
<pdfrwt beam="1">  1        2 0.15606842E+00 0.41386348E+03</pdfrwt>
<pdfrwt beam="2">  1       -2 0.26851391E-01 0.41386348E+03</pdfrwt>
<totfact> 0.31954680E+02</totfact>
</mgrwt>
</event>
<event>
 6    1  0.8938744E-004  0.4038340E+03  0.7818608E-02  0.1042460E+00
          2   -1    0    0  502    0  0.00000000000E+00  0.00000000000E+00  0.15562598783E+04  0.15562598783E+04  0.00000000000E+00 0.  1.
         -2   -1    0    0    0  501 -0.00000000000E+00 -0.00000000000E+00 -0.11028286709E+03  0.11028286709E+03  0.00000000000E+00 0. -1.
    9000007    2    1    2  502    0 -0.48499000795E+00  0.57518895076E+02  0.53656216191E+03  0.67138244341E+03  0.39943306475E+03 0.  0.
    9000005    1    3    3    0    0 -0.15536632116E+03  0.15584367870E+03  0.29711551941E+03  0.36973582165E+03  0.99999687468E+00 0.  0.
          4    1    3    3  502    0  0.15488133115E+03 -0.98324783621E+02  0.23944664250E+03  0.30164662176E+03  0.00000000000E+00 0.  1.
   -9000007    1    1    2    0  501  0.48499000795E+00 -0.57518895076E+02  0.90941484926E+03  0.99516030194E+03  0.40000000000E+03 0.  1.
<mgrwt>
<rscale>  2 0.40383399E+03</rscale>
<asrwt>0</asrwt>
<pdfrwt beam="1">  1        2 0.23942458E+00 0.40383399E+03</pdfrwt>
<pdfrwt beam="2">  1       -2 0.16966596E-01 0.40383399E+03</pdfrwt>
<totfact> 0.34992217E+02</totfact>
</mgrwt>
</event>
<event>
 6    1  0.8938744E-004  0.5853935E+03  0.7818608E-02  0.9936182E-01
          1   -1    0    0  502    0  0.00000000000E+00  0.00000000000E+00  0.73059578447E+03  0.73059578447E+03  0.00000000000E+00 0.  1.
         -1   -1    0    0    0  501 -0.00000000000E+00 -0.00000000000E+00 -0.48086302906E+03  0.48086302906E+03  0.00000000000E+00 0. -1.
    9000007    2    1    2  502    0 -0.18809880231E+03  0.37703751879E+03  0.22061948419E+03  0.62974923603E+03  0.41276227234E+03 0.  0.
    9000005    1    3    3    0    0 -0.12914070372E+03  0.46551096026E+03  0.17148794171E+03  0.51262743745E+03  0.99999687468E+00 0.  0.
          4    1    3    3  502    0 -0.58958098584E+02 -0.88473441472E+02  0.49131542482E+02  0.11712179857E+03  0.00000000000E+00 0.  1.
   -9000007    1    1    2    0  501  0.18809880231E+03 -0.37703751879E+03  0.29113271217E+02  0.58170957751E+03  0.40000000000E+03 0.  1.
<mgrwt>
<rscale>  2 0.58539350E+03</rscale>
<asrwt>0</asrwt>
<pdfrwt beam="1">  1        1 0.11239935E+00 0.58539350E+03</pdfrwt>
<pdfrwt beam="2">  1       -1 0.73978927E-01 0.58539350E+03</pdfrwt>
<totfact> 0.48831785E+01</totfact>
</mgrwt>
</event>
<event>
 6    1  0.8938744E-004  0.4295673E+03  0.7818608E-02  0.1033997E+00
         -2   -1    0    0    0  501 -0.00000000000E+00  0.00000000000E+00  0.37062289326E+03  0.37062289326E+03  0.00000000000E+00 0.  1.
          2   -1    0    0  502    0  0.00000000000E+00 -0.00000000000E+00 -0.15318660715E+04  0.15318660715E+04  0.00000000000E+00 0. -1.
    9000007    2    1    2  502    0  0.14120775848E+03  0.66622281196E+02 -0.13622140211E+04  0.14283925198E+04  0.40037481433E+03 0.  0.
    9000005    1    3    3    0    0  0.35259285736E+02  0.18133825356E+03 -0.11509467528E+04  0.11656784321E+04  0.99999687468E+00 0.  0.
          4    1    3    3  502    0  0.10594847275E+03 -0.11471597237E+03 -0.21126726833E+03  0.26271408767E+03  0.00000000000E+00 0.  1.
   -9000007    1    1    2    0  501 -0.14120775848E+03 -0.66622281196E+02  0.20097084288E+03  0.47409644493E+03  0.40000000000E+03 0.  1.
<mgrwt>
<rscale>  2 0.42956733E+03</rscale>
<asrwt>0</asrwt>
<pdfrwt beam="1">  1        2 0.23567171E+00 0.42956733E+03</pdfrwt>
<pdfrwt beam="2">  1       -2 0.57018906E-01 0.42956733E+03</pdfrwt>
<totfact> 0.37671561E+01</totfact>
</mgrwt>
</event>
<event>
 6    1  0.8938744E-004  0.4014551E+03  0.7818608E-02  0.1043277E+00
          2   -1    0    0  502    0  0.00000000000E+00  0.00000000000E+00  0.12632427123E+04  0.12632427123E+04  0.00000000000E+00 0.  1.
         -2   -1    0    0    0  501 -0.00000000000E+00 -0.00000000000E+00 -0.18088098842E+03  0.18088098842E+03  0.00000000000E+00 0. -1.
    9000007    2    1    2  502    0  0.12556464695E+02  0.31184010455E+02  0.93318214389E+03  0.10158893555E+04  0.40009019200E+03 0.  0.
    9000005    1    3    3    0    0 -0.17969971949E+02  0.18560445230E+03  0.23403402412E+03  0.29924046692E+03  0.99999687468E+00 0.  0.
          4    1    3    3  502    0  0.30526436644E+02 -0.15442044185E+03  0.69914811977E+03  0.71664888863E+03  0.00000000000E+00 0.  1.
   -9000007    1    1    2    0  501 -0.12556464695E+02 -0.31184010455E+02  0.14917958003E+03  0.42823434520E+03  0.40000000000E+03 0. -1.
<mgrwt>
<rscale>  2 0.40145508E+03</rscale>
<asrwt>0</asrwt>
<pdfrwt beam="1">  1        2 0.19434503E+00 0.40145508E+03</pdfrwt>
<pdfrwt beam="2">  1       -2 0.27827845E-01 0.40145508E+03</pdfrwt>
<totfact> 0.21367062E+02</totfact>
</mgrwt>
</event>
<event>
 6    1  0.8938744E-004  0.5627581E+03  0.7818608E-02  0.9985833E-01
          2   -1    0    0  502    0  0.00000000000E+00  0.00000000000E+00  0.11964930744E+04  0.11964930744E+04  0.00000000000E+00 0. -1.
         -2   -1    0    0    0  501 -0.00000000000E+00 -0.00000000000E+00 -0.35927905680E+03  0.35927905680E+03  0.00000000000E+00 0.  1.
    9000007    2    1    2  502    0  0.24002504592E+03 -0.31486186531E+03  0.19439981621E+02  0.56304639323E+03  0.39986661670E+03 0.  0.
    9000005    1    3    3    0    0  0.22839107476E+03 -0.27037354450E+03  0.17926454502E+03  0.39673809206E+03  0.99999687468E+00 0.  0.
          4    1    3    3  502    0  0.11633971160E+02 -0.44488320803E+02 -0.15982456340E+03  0.16630830117E+03  0.00000000000E+00 0.  1.
   -9000007    1    1    2    0  501 -0.24002504592E+03  0.31486186531E+03  0.81777403597E+03  0.99272573796E+03  0.40000000000E+03 0.  1.
<mgrwt>
<rscale>  2 0.56275809E+03</rscale>
<asrwt>0</asrwt>
<pdfrwt beam="1">  1        2 0.18407586E+00 0.56275809E+03</pdfrwt>
<pdfrwt beam="2">  1       -2 0.55273702E-01 0.56275809E+03</pdfrwt>
<totfact> 0.60744895E+01</totfact>
</mgrwt>
</event>
<event>
 6    1  0.8938744E-004  0.4682048E+03  0.7818608E-02  0.1022428E+00
          2   -1    0    0  502    0  0.00000000000E+00  0.00000000000E+00  0.17321008020E+04  0.17321008020E+04  0.00000000000E+00 0. -1.
         -2   -1    0    0    0  501 -0.00000000000E+00 -0.00000000000E+00 -0.17228854198E+03  0.17228854198E+03  0.00000000000E+00 0.  1.
    9000007    2    1    2  502    0 -0.18720870643E+03 -0.15351800001E+03  0.29013832503E+03  0.55136060177E+03  0.40150141898E+03 0.  0.
    9000005    1    3    3    0    0  0.61027153716E+02  0.48503372541E+02  0.20625610924E+03  0.22049823861E+03  0.99999687468E+00 0.  0.
          4    1    3    3  502    0 -0.24823586014E+03 -0.20202137255E+03  0.83882215794E+02  0.33086236316E+03  0.00000000000E+00 0.  1.
   -9000007    1    1    2    0  501  0.18720870643E+03  0.15351800001E+03  0.12696739350E+04  0.13530287422E+04  0.40000000000E+03 0. -1.
<mgrwt>
<rscale>  2 0.46820481E+03</rscale>
<asrwt>0</asrwt>
<pdfrwt beam="1">  1        2 0.26647704E+00 0.46820481E+03</pdfrwt>
<pdfrwt beam="2">  1       -2 0.26505931E-01 0.46820481E+03</pdfrwt>
<totfact> 0.12788065E+02</totfact>
</mgrwt>
</event>
<event>
 6    1  0.8938744E-004  0.4606644E+03  0.7818608E-02  0.1024589E+00
         -2   -1    0    0    0  501 -0.00000000000E+00  0.00000000000E+00  0.33764537655E+03  0.33764537655E+03  0.00000000000E+00 0.  1.
          2   -1    0    0  502    0  0.00000000000E+00 -0.00000000000E+00 -0.12464932601E+04  0.12464932601E+04  0.00000000000E+00 0. -1.
    9000007    2    1    2  502    0 -0.13338562157E+03  0.18507040451E+03 -0.10122251030E+04  0.11121962375E+04  0.40042231809E+03 0.  0.
    9000005    1    3    3    0    0 -0.22716790772E+03  0.12429837476E+03 -0.32308184894E+03  0.41405099368E+03  0.99999687468E+00 0.  0.
          4    1    3    3  502    0  0.93782286142E+02  0.60772029750E+02 -0.68914325409E+03  0.69814524381E+03  0.00000000000E+00 0.  1.
   -9000007    1    1    2    0  501  0.13338562157E+03 -0.18507040451E+03  0.10337721943E+03  0.47194239920E+03  0.40000000000E+03 0.  1.
<mgrwt>
<rscale>  2 0.46066444E+03</rscale>
<asrwt>0</asrwt>
<pdfrwt beam="1">  1        2 0.19176819E+00 0.46066444E+03</pdfrwt>
<pdfrwt beam="2">  1       -2 0.51945444E-01 0.46066444E+03</pdfrwt>
<totfact> 0.65429700E+01</totfact>
</mgrwt>
</event>
<event>
 6    1  0.8938744E-004  0.4939419E+03  0.7818608E-02  0.1015372E+00
          2   -1    0    0  502    0  0.00000000000E+00  0.00000000000E+00  0.11913206507E+04  0.11913206507E+04  0.00000000000E+00 0.  1.
         -2   -1    0    0    0  501 -0.00000000000E+00 -0.00000000000E+00 -0.25855640702E+03  0.25855640702E+03  0.00000000000E+00 0. -1.
    9000007    2    1    2  502    0  0.26144974685E+03  0.12348726506E+03  0.79722581673E+03  0.93804140056E+03  0.40093340037E+03 0.  0.
    9000005    1    3    3    0    0  0.27742800217E+03 -0.47109428512E+02  0.66344748652E+03  0.72065883885E+03  0.99999687468E+00 0.  0.
          4    1    3    3  502    0 -0.15978255322E+02  0.17059669357E+03  0.13377833021E+03  0.21738256171E+03  0.00000000000E+00 0.  1.
   -9000007    1    1    2    0  501 -0.26144974685E+03 -0.12348726506E+03  0.13553842695E+03  0.51183565716E+03  0.40000000000E+03 0. -1.
<mgrwt>
<rscale>  2 0.49394188E+03</rscale>
<asrwt>0</asrwt>
<pdfrwt beam="1">  1        2 0.18328010E+00 0.49394188E+03</pdfrwt>
<pdfrwt beam="2">  1       -2 0.39777909E-01 0.49394188E+03</pdfrwt>
<totfact> 0.11907931E+02</totfact>
</mgrwt>
</event>
<event>
 6    1  0.8938744E-004  0.4686156E+03  0.7818608E-02  0.1022312E+00
         -2   -1    0    0    0  501 -0.00000000000E+00  0.00000000000E+00  0.38477304603E+03  0.38477304603E+03  0.00000000000E+00 0.  1.
          2   -1    0    0  502    0  0.00000000000E+00 -0.00000000000E+00 -0.59367609347E+03  0.59367609347E+03  0.00000000000E+00 0. -1.
    9000007    2    1    2  502    0 -0.17882513807E+03 -0.16576566054E+03 -0.82989085931E+01  0.46884271809E+03  0.40035976098E+03 0.  0.
    9000005    1    3    3    0    0 -0.18169121359E+03  0.90182737303E+02 -0.51448503962E+02  0.20926674786E+03  0.99999687468E+00 0.  0.
          4    1    3    3  502    0  0.28660755276E+01 -0.25594839784E+03  0.43149595368E+02  0.25957597024E+03  0.00000000000E+00 0.  1.
   -9000007    1    1    2    0  501  0.17882513807E+03  0.16576566054E+03 -0.20060413884E+03  0.50960642140E+03  0.40000000000E+03 0.  1.
<mgrwt>
<rscale>  2 0.46861563E+03</rscale>
<asrwt>0</asrwt>
<pdfrwt beam="1">  1        2 0.91334784E-01 0.46861563E+03</pdfrwt>
<pdfrwt beam="2">  1       -2 0.59195853E-01 0.46861563E+03</pdfrwt>
<totfact> 0.13774300E+02</totfact>
</mgrwt>
</event>
<event>
 6    1  0.8938744E-004  0.4984624E+03  0.7818608E-02  0.1014181E+00
          1   -1    0    0  502    0  0.00000000000E+00  0.00000000000E+00  0.11025990840E+04  0.11025990840E+04  0.00000000000E+00 0. -1.
         -1   -1    0    0    0  501 -0.00000000000E+00 -0.00000000000E+00 -0.24653287273E+03  0.24653287273E+03  0.00000000000E+00 0.  1.
    9000007    2    1    2  502    0 -0.22000897312E+03 -0.20016888307E+03  0.23026964564E+03  0.54907391411E+03  0.39998315396E+03 0.  0.
    9000005    1    3    3    0    0  0.99501112646E+02 -0.16221134234E+02  0.13462453307E+03  0.16819144304E+03  0.99999687468E+00 0.  0.
          4    1    3    3  502    0 -0.31951008577E+03 -0.18394774883E+03  0.95645112565E+02  0.38088247107E+03  0.00000000000E+00 0.  1.
   -9000007    1    1    2    0  501  0.22000897312E+03  0.20016888307E+03  0.62579656558E+03  0.80005804258E+03  0.40000000000E+03 0. -1.
<mgrwt>
<rscale>  2 0.49846243E+03</rscale>
<asrwt>0</asrwt>
<pdfrwt beam="1">  1        1 0.16963063E+00 0.49846243E+03</pdfrwt>
<pdfrwt beam="2">  1       -1 0.37928135E-01 0.49846243E+03</pdfrwt>
<totfact> 0.88798807E+01</totfact>
</mgrwt>
</event>
<event>
 6    1  0.8938744E-004  0.5250573E+03  0.7818608E-02  0.1007438E+00
         -1   -1    0    0    0  501 -0.00000000000E+00  0.00000000000E+00  0.18659815038E+04  0.18659815038E+04  0.00000000000E+00 0. -1.
          1   -1    0    0  502    0  0.00000000000E+00 -0.00000000000E+00 -0.21840538640E+03  0.21840538640E+03  0.00000000000E+00 0.  1.
    9000007    2    1    2  502    0 -0.10255852835E+03  0.32407461873E+03  0.23112757793E+03  0.57380121728E+03  0.40035642799E+03 0.  0.
    9000005    1    3    3    0    0  0.13407408487E+03  0.17671323627E+02  0.86462279617E+02  0.16051436603E+03  0.99999687468E+00 0.  0.
          4    1    3    3  502    0 -0.23663261321E+03  0.30640329510E+03  0.14466529831E+03  0.41328685126E+03  0.00000000000E+00 0.  1.
   -9000007    1    1    2    0  501  0.10255852835E+03 -0.32407461873E+03  0.14164485395E+04  0.15105856729E+04  0.40000000000E+03 0. -1.
<mgrwt>
<rscale>  2 0.52505734E+03</rscale>
<asrwt>0</asrwt>
<pdfrwt beam="1">  1        1 0.33600830E-01 0.52505734E+03</pdfrwt>
<pdfrwt beam="2">  1       -1 0.28707407E+00 0.52505734E+03</pdfrwt>
<totfact> 0.57441175E+00</totfact>
</mgrwt>
</event>
<event>
 6    1  0.8938744E-004  0.5110975E+03  0.7818608E-02  0.1010922E+00
          2   -1    0    0  502    0  0.00000000000E+00  0.00000000000E+00  0.14284408993E+04  0.14284408993E+04  0.00000000000E+00 0.  1.
         -2   -1    0    0    0  501 -0.00000000000E+00 -0.00000000000E+00 -0.23381850057E+03  0.23381850057E+03  0.00000000000E+00 0. -1.
    9000007    2    1    2  502    0 -0.18695683232E+03 -0.25794988993E+03  0.20910699220E+03  0.55197492310E+03  0.39932390196E+03 0.  0.
    9000005    1    3    3    0    0 -0.15439598023E+03 -0.23818803650E+03 -0.51595854097E+02  0.28850440481E+03  0.99999687468E+00 0.  0.
          4    1    3    3  502    0 -0.32560852094E+02 -0.19761853431E+02  0.26070284630E+03  0.26347051829E+03  0.00000000000E+00 0.  1.
   -9000007    1    1    2    0  501  0.18695683232E+03  0.25794988993E+03  0.98551540658E+03  0.11102844768E+04  0.40000000000E+03 0.  1.
<mgrwt>
<rscale>  2 0.51109750E+03</rscale>
<asrwt>0</asrwt>
<pdfrwt beam="1">  1        2 0.21976013E+00 0.51109750E+03</pdfrwt>
<pdfrwt beam="2">  1       -2 0.35972078E-01 0.51109750E+03</pdfrwt>
<totfact> 0.10567644E+02</totfact>
</mgrwt>
</event>
<event>
 6    1  0.8938744E-004  0.4008898E+03  0.7818608E-02  0.1043472E+00
         -2   -1    0    0    0  501 -0.00000000000E+00  0.00000000000E+00  0.15848277649E+03  0.15848277649E+03  0.00000000000E+00 0.  1.
          2   -1    0    0  502    0  0.00000000000E+00 -0.00000000000E+00 -0.10222092522E+04  0.10222092522E+04  0.00000000000E+00 0. -1.
    9000007    2    1    2  502    0  0.30966793178E+02  0.60782353131E+01 -0.48416120437E+03  0.62836451496E+03  0.39929187898E+03 0.  0.
    9000005    1    3    3    0    0  0.16413749644E+02 -0.89047772994E+02 -0.51837939674E+03  0.52622914782E+03  0.99999687468E+00 0.  0.
          4    1    3    3  502    0  0.14553043534E+02  0.95126008307E+02  0.34218192372E+02  0.10213536714E+03  0.00000000000E+00 0.  1.
   -9000007    1    1    2    0  501 -0.30966793178E+02 -0.60782353131E+01 -0.37956527135E+03  0.55232751375E+03  0.40000000000E+03 0.  1.
<mgrwt>
<rscale>  2 0.40088981E+03</rscale>
<asrwt>0</asrwt>
<pdfrwt beam="1">  1        2 0.15726296E+00 0.40088981E+03</pdfrwt>
<pdfrwt beam="2">  1       -2 0.24381966E-01 0.40088981E+03</pdfrwt>
<totfact> 0.37605015E+02</totfact>
</mgrwt>
</event>
<event>
 6    1  0.8938744E-004  0.4754132E+03  0.7818608E-02  0.1020403E+00
          2   -1    0    0  502    0  0.00000000000E+00  0.00000000000E+00  0.19680703245E+04  0.19680703245E+04  0.00000000000E+00 0.  1.
         -2   -1    0    0    0  501 -0.00000000000E+00 -0.00000000000E+00 -0.11707793428E+03  0.11707793428E+03  0.00000000000E+00 0. -1.
    9000007    2    1    2  502    0 -0.16489493087E+03 -0.19607171173E+03  0.78220061342E+03  0.91555417684E+03  0.40095784906E+03 0.  0.
    9000005    1    3    3    0    0  0.13195743301E+03 -0.28903810414E+02  0.21663920566E+03  0.25530714798E+03  0.99999687468E+00 0.  0.
          4    1    3    3  502    0 -0.29685236389E+03 -0.16716790132E+03  0.56556140776E+03  0.66024702886E+03  0.00000000000E+00 0.  1.
   -9000007    1    1    2    0  501  0.16489493087E+03  0.19607171173E+03  0.10687917768E+04  0.11695940819E+04  0.40000000000E+03 0.  1.
<mgrwt>
<rscale>  2 0.47541322E+03</rscale>
<asrwt>0</asrwt>
<pdfrwt beam="1">  1        2 0.30278002E+00 0.47541322E+03</pdfrwt>
<pdfrwt beam="2">  1       -2 0.18011991E-01 0.47541322E+03</pdfrwt>
<totfact> 0.18817287E+02</totfact>
</mgrwt>
</event>
<event>
 6    1  0.8938744E-004  0.5428474E+03  0.7818608E-02  0.1003163E+00
         -2   -1    0    0    0  501 -0.00000000000E+00  0.00000000000E+00  0.14923624290E+03  0.14923624290E+03  0.00000000000E+00 0. -1.
          2   -1    0    0  502    0  0.00000000000E+00 -0.00000000000E+00 -0.19972839502E+04  0.19972839502E+04  0.00000000000E+00 0.  1.
    9000007    2    1    2  502    0 -0.34906387665E+03 -0.12397146061E+03 -0.80585399837E+03  0.97034748471E+03  0.39364839813E+03 0.  0.
    9000005    1    3    3    0    0 -0.43754924564E+03 -0.10367803422E+03 -0.66407933358E+03  0.80199802894E+03  0.99999687468E+00 0.  0.
          4    1    3    3  502    0  0.88485368989E+02 -0.20293426390E+02 -0.14177466479E+03  0.16834945577E+03  0.00000000000E+00 0.  1.
   -9000007    1    1    2    0  501  0.34906387665E+03  0.12397146061E+03 -0.10421937089E+04  0.11761727083E+04  0.40000000000E+03 0.  1.
<mgrwt>
<rscale>  2 0.54284737E+03</rscale>
<asrwt>0</asrwt>
<pdfrwt beam="1">  1        2 0.30727447E+00 0.54284737E+03</pdfrwt>
<pdfrwt beam="2">  1       -2 0.22959421E-01 0.54284737E+03</pdfrwt>
<totfact> 0.11777186E+02</totfact>
</mgrwt>
</event>
<event>
 6    1  0.8938744E-004  0.4137630E+03  0.7818608E-02  0.1039116E+00
         -2   -1    0    0    0  501 -0.00000000000E+00  0.00000000000E+00  0.35397417176E+03  0.35397417176E+03  0.00000000000E+00 0. -1.
          2   -1    0    0  502    0  0.00000000000E+00 -0.00000000000E+00 -0.81495135887E+03  0.81495135887E+03  0.00000000000E+00 0.  1.
    9000007    2    1    2  502    0 -0.75592842276E+02  0.73471759846E+02  0.14212737214E+03  0.43759285210E+03  0.40021861151E+03 0.  0.
    9000005    1    3    3    0    0 -0.32625849330E+02  0.18015511556E+03  0.22919246673E+03  0.29334365257E+03  0.99999687468E+00 0.  0.
          4    1    3    3  502    0 -0.42966992946E+02 -0.10668335571E+03 -0.87065094591E+02  0.14424919953E+03  0.00000000000E+00 0.  1.
   -9000007    1    1    2    0  501  0.75592842276E+02 -0.73471759846E+02 -0.60310455925E+03  0.73133267853E+03  0.40000000000E+03 0.  1.
<mgrwt>
<rscale>  2 0.41376300E+03</rscale>
<asrwt>0</asrwt>
<pdfrwt beam="1">  1        2 0.12537713E+00 0.41376300E+03</pdfrwt>
<pdfrwt beam="2">  1       -2 0.54457565E-01 0.41376300E+03</pdfrwt>
<totfact> 0.11107011E+02</totfact>
</mgrwt>
</event>
<event>
 6    1  0.8938744E-004  0.7818801E+03  0.7818608E-02  0.9586622E-01
          2   -1    0    0  502    0  0.00000000000E+00  0.00000000000E+00  0.43658050534E+04  0.43658050534E+04  0.00000000000E+00 0. -1.
         -2   -1    0    0    0  501 -0.00000000000E+00 -0.00000000000E+00 -0.17758733753E+03  0.17758733753E+03  0.00000000000E+00 0.  1.
    9000007    2    1    2  502    0  0.60694789913E+03 -0.28777644974E+03  0.31390147087E+04  0.32349475172E+04  0.40033868210E+03 0.  0.
    9000005    1    3    3    0    0  0.11858374063E+03 -0.12847539866E+03  0.16616653908E+04  0.16708383831E+04  0.99999687468E+00 0.  0.
          4    1    3    3  502    0  0.48836415850E+03 -0.15930105108E+03  0.14773493179E+04  0.15641091341E+04  0.00000000000E+00 0.  1.
   -9000007    1    1    2    0  501 -0.60694789913E+03  0.28777644974E+03  0.10492030072E+04  0.13084448737E+04  0.40000000000E+03 0. -1.
<mgrwt>
<rscale>  2 0.78188014E+03</rscale>
<asrwt>0</asrwt>
<pdfrwt beam="1">  1        2 0.67166224E+00 0.78188014E+03</pdfrwt>
<pdfrwt beam="2">  1       -2 0.27321132E-01 0.78188014E+03</pdfrwt>
<totfact> 0.22510857E+00</totfact>
</mgrwt>
</event>
<event>
 6    1  0.8938744E-004  0.4373936E+03  0.7818608E-02  0.1031550E+00
          2   -1    0    0  502    0  0.00000000000E+00  0.00000000000E+00  0.29578084067E+04  0.29578084067E+04  0.00000000000E+00 0.  1.
         -2   -1    0    0    0  501 -0.00000000000E+00 -0.00000000000E+00 -0.69059697192E+02  0.69059697192E+02  0.00000000000E+00 0. -1.
    9000007    2    1    2  502    0 -0.16890598695E+03  0.51619824017E+02  0.10636977493E+04  0.11501675827E+04  0.40029829865E+03 0.  0.
    9000005    1    3    3    0    0 -0.26857216375E+03 -0.72614920702E+02  0.68395182853E+03  0.73837323733E+03  0.99999687468E+00 0.  0.
          4    1    3    3  502    0  0.99666176795E+02  0.12423474472E+03  0.37974592074E+03  0.41179434541E+03  0.00000000000E+00 0.  1.
   -9000007    1    1    2    0  501  0.16890598695E+03 -0.51619824017E+02  0.18250509602E+04  0.18767005212E+04  0.40000000000E+03 0.  1.
<mgrwt>
<rscale>  2 0.43739360E+03</rscale>
<asrwt>0</asrwt>
<pdfrwt beam="1">  1        2 0.45504735E+00 0.43739360E+03</pdfrwt>
<pdfrwt beam="2">  1       -2 0.10624571E-01 0.43739360E+03</pdfrwt>
<totfact> 0.12739431E+02</totfact>
</mgrwt>
</event>
<event>
 6    1  0.8938744E-004  0.5160068E+03  0.7818608E-02  0.1009683E+00
          2   -1    0    0  502    0  0.00000000000E+00  0.00000000000E+00  0.16021570768E+04  0.16021570768E+04  0.00000000000E+00 0.  1.
         -2   -1    0    0    0  501 -0.00000000000E+00 -0.00000000000E+00 -0.24934903606E+03  0.24934903606E+03  0.00000000000E+00 0. -1.
    9000007    2    1    2  502    0 -0.32223299747E+03 -0.49124580462E+02  0.12110372503E+04  0.13163927734E+04  0.40003922687E+03 0.  0.
    9000005    1    3    3    0    0  0.80424058839E+02  0.17605995133E+02  0.83537004444E+02  0.11729207735E+03  0.99999687468E+00 0.  0.
          4    1    3    3  502    0 -0.40265705631E+03 -0.66730575594E+02  0.11275002459E+04  0.11991006960E+04  0.00000000000E+00 0.  1.
   -9000007    1    1    2    0  501  0.32223299747E+03  0.49124580462E+02  0.14177079039E+03  0.53511333946E+03  0.40000000000E+03 0. -1.
<mgrwt>
<rscale>  2 0.51600680E+03</rscale>
<asrwt>0</asrwt>
<pdfrwt beam="1">  1        2 0.24648570E+00 0.51600680E+03</pdfrwt>
<pdfrwt beam="2">  1       -2 0.38361391E-01 0.51600680E+03</pdfrwt>
<totfact> 0.74975316E+01</totfact>
</mgrwt>
</event>
<event>
 6    1  0.8938744E-004  0.5073334E+03  0.7818608E-02  0.1011882E+00
         -1   -1    0    0    0  501 -0.00000000000E+00  0.00000000000E+00  0.79633691612E+02  0.79633691612E+02  0.00000000000E+00 0. -1.
          1   -1    0    0  502    0  0.00000000000E+00 -0.00000000000E+00 -0.32377213903E+04  0.32377213903E+04  0.00000000000E+00 0.  1.
    9000007    2    1    2  502    0  0.26993412595E+03 -0.15647016561E+03 -0.15102911468E+04  0.15932376783E+04  0.40009949552E+03 0.  0.
    9000005    1    3    3    0    0  0.11661134498E+03 -0.25208301439E+03 -0.55065473440E+03  0.61673794146E+03  0.99999687468E+00 0.  0.
          4    1    3    3  502    0  0.15332278097E+03  0.95612848784E+02 -0.95963641238E+03  0.97649973680E+03  0.00000000000E+00 0.  1.
   -9000007    1    1    2    0  501 -0.26993412595E+03  0.15647016561E+03 -0.16477965519E+04  0.17241174036E+04  0.40000000000E+03 0.  1.
<mgrwt>
<rscale>  2 0.50733337E+03</rscale>
<asrwt>0</asrwt>
<pdfrwt beam="1">  1        1 0.49811111E+00 0.50733337E+03</pdfrwt>
<pdfrwt beam="2">  1       -1 0.12251334E-01 0.50733337E+03</pdfrwt>
<totfact> 0.20259168E+01</totfact>
</mgrwt>
</event>
<event>
 6    1  0.8938744E-004  0.4012789E+03  0.7818608E-02  0.1043338E+00
          1   -1    0    0  502    0  0.00000000000E+00  0.00000000000E+00  0.19137128424E+04  0.19137128424E+04  0.00000000000E+00 0. -1.
         -1   -1    0    0    0  501 -0.00000000000E+00 -0.00000000000E+00 -0.84160569020E+02  0.84160569020E+02  0.00000000000E+00 0.  1.
    9000007    2    1    2  502    0 -0.21519167912E+02 -0.26821607947E+02  0.89973254896E+03  0.98508162968E+03  0.39960566091E+03 0.  0.
    9000005    1    3    3    0    0  0.67078525783E+02  0.43576158267E+02  0.86213481948E+03  0.86583823960E+03  0.99999687468E+00 0.  0.
          4    1    3    3  502    0 -0.88597693695E+02 -0.70397766214E+02  0.37597729478E+02  0.11924339008E+03  0.00000000000E+00 0.  1.
   -9000007    1    1    2    0  501  0.21519167912E+02  0.26821607947E+02  0.92981972440E+03  0.10127917817E+04  0.40000000000E+03 0. -1.
<mgrwt>
<rscale>  2 0.40127888E+03</rscale>
<asrwt>0</asrwt>
<pdfrwt beam="1">  1        1 0.29441733E+00 0.40127888E+03</pdfrwt>
<pdfrwt beam="2">  1       -1 0.12947781E-01 0.40127888E+03</pdfrwt>
<totfact> 0.15255222E+02</totfact>
</mgrwt>
</event>
<event>
 6    1  0.8938744E-004  0.5250069E+03  0.7818608E-02  0.1007450E+00
          1   -1    0    0  502    0  0.00000000000E+00  0.00000000000E+00  0.11198457945E+04  0.11198457945E+04  0.00000000000E+00 0.  1.
         -1   -1    0    0    0  501 -0.00000000000E+00 -0.00000000000E+00 -0.25416077324E+03  0.25416077324E+03  0.00000000000E+00 0. -1.
    9000007    2    1    2  502    0  0.32189221821E+03  0.11313729754E+03  0.31016429744E+03  0.60914192426E+03  0.39804188755E+03 0.  0.
    9000005    1    3    3    0    0 -0.46188051799E+02  0.29039419780E+02 -0.59505525490E+02  0.80737423712E+02  0.99999687468E+00 0.  0.
          4    1    3    3  502    0  0.36808027001E+03  0.84097877762E+02  0.36966982293E+03  0.52840450055E+03  0.00000000000E+00 0.  1.
   -9000007    1    1    2    0  501 -0.32189221821E+03 -0.11313729754E+03  0.55552072378E+03  0.76486464344E+03  0.40000000000E+03 0. -1.
<mgrwt>
<rscale>  2 0.52500687E+03</rscale>
<asrwt>0</asrwt>
<pdfrwt beam="1">  1        1 0.17228397E+00 0.52500687E+03</pdfrwt>
<pdfrwt beam="2">  1       -1 0.39101658E-01 0.52500687E+03</pdfrwt>
<totfact> 0.81378288E+01</totfact>
</mgrwt>
</event>
<event>
 6    1  0.8938744E-004  0.6207285E+03  0.7818608E-02  0.9863310E-01
          2   -1    0    0  502    0  0.00000000000E+00  0.00000000000E+00  0.51090432314E+03  0.51090432314E+03  0.00000000000E+00 0.  1.
         -2   -1    0    0    0  501 -0.00000000000E+00 -0.00000000000E+00 -0.89266765598E+03  0.89266765598E+03  0.00000000000E+00 0. -1.
    9000007    2    1    2  502    0  0.32930806556E+03 -0.34192874105E+03 -0.46730686168E+03  0.77693271980E+03  0.39986207888E+03 0.  0.
    9000005    1    3    3    0    0 -0.20018594775E+02 -0.25116256953E+03 -0.25357628340E+03  0.35747071484E+03  0.99999687468E+00 0.  0.
          4    1    3    3  502    0  0.34932666033E+03 -0.90766171515E+02 -0.21373057828E+03  0.41946200496E+03  0.00000000000E+00 0.  1.
   -9000007    1    1    2    0  501 -0.32930806556E+03  0.34192874105E+03  0.85543528842E+02  0.62663925932E+03  0.40000000000E+03 0.  1.
<mgrwt>
<rscale>  2 0.62072853E+03</rscale>
<asrwt>0</asrwt>
<pdfrwt beam="1">  1        2 0.78600666E-01 0.62072853E+03</pdfrwt>
<pdfrwt beam="2">  1       -2 0.13733348E+00 0.62072853E+03</pdfrwt>
<totfact> 0.23238148E+01</totfact>
</mgrwt>
</event>
<event>
 6    1  0.8938744E-004  0.6525143E+03  0.7818608E-02  0.9802073E-01
         -1   -1    0    0    0  501 -0.00000000000E+00  0.00000000000E+00  0.70324684002E+03  0.70324684002E+03  0.00000000000E+00 0. -1.
          1   -1    0    0  502    0  0.00000000000E+00 -0.00000000000E+00 -0.70852207183E+03  0.70852207183E+03  0.00000000000E+00 0.  1.
    9000007    2    1    2  502    0 -0.30967853160E+03  0.41212337410E+03 -0.27188111483E+03  0.70691065286E+03  0.40007107132E+03 0.  0.
    9000005    1    3    3    0    0  0.11505087654E+02  0.13401037240E+03  0.78912112708E+02  0.15594636411E+03  0.99999687468E+00 0.  0.
          4    1    3    3  502    0 -0.32118361925E+03  0.27811300170E+03 -0.35079322754E+03  0.55096428875E+03  0.00000000000E+00 0.  1.
   -9000007    1    1    2    0  501  0.30967853160E+03 -0.41212337410E+03  0.26660588302E+03  0.70485825900E+03  0.40000000000E+03 0. -1.
<mgrwt>
<rscale>  2 0.65251429E+03</rscale>
<asrwt>0</asrwt>
<pdfrwt beam="1">  1        1 0.10900340E+00 0.65251429E+03</pdfrwt>
<pdfrwt beam="2">  1       -1 0.10819182E+00 0.65251429E+03</pdfrwt>
<totfact> 0.22044227E+01</totfact>
</mgrwt>
</event>
<event>
 6    1  0.8938744E-004  0.8411284E+03  0.7818608E-02  0.9502322E-01
         -1   -1    0    0    0  501 -0.00000000000E+00  0.00000000000E+00  0.11316526423E+04  0.11316526423E+04  0.00000000000E+00 0.  1.
          1   -1    0    0  502    0  0.00000000000E+00 -0.00000000000E+00 -0.92982851721E+03  0.92982851721E+03  0.00000000000E+00 0. -1.
    9000007    2    1    2  502    0  0.53672484010E+03  0.50973785445E+03  0.69087733544E+03  0.10883011778E+04  0.39897584728E+03 0.  0.
    9000005    1    3    3    0    0  0.33833093644E+03  0.52719709920E+02  0.29442223496E+03  0.45158901980E+03  0.99999687468E+00 0.  0.
          4    1    3    3  502    0  0.19839390365E+03  0.45701814453E+03  0.39645510047E+03  0.63671215799E+03  0.00000000000E+00 0.  1.
   -9000007    1    1    2    0  501 -0.53672484010E+03 -0.50973785445E+03 -0.48905321036E+03  0.97317998171E+03  0.40000000000E+03 0. -1.
<mgrwt>
<rscale>  2 0.84112840E+03</rscale>
<asrwt>0</asrwt>
<pdfrwt beam="1">  1        1 0.14305054E+00 0.84112840E+03</pdfrwt>
<pdfrwt beam="2">  1       -1 0.17410040E+00 0.84112840E+03</pdfrwt>
<totfact> 0.40443927E+00</totfact>
</mgrwt>
</event>
<event>
 6    1  0.8938744E-004  0.4120571E+03  0.7818608E-02  0.1039683E+00
          2   -1    0    0  502    0  0.00000000000E+00  0.00000000000E+00  0.30144393253E+03  0.30144393253E+03  0.00000000000E+00 0. -1.
         -2   -1    0    0    0  501 -0.00000000000E+00 -0.00000000000E+00 -0.58757904690E+03  0.58757904690E+03  0.00000000000E+00 0.  1.
    9000007    2    1    2  502    0 -0.77080245596E+02  0.58641570741E+02 -0.52801633586E+02  0.41592181548E+03  0.40102711380E+03 0.  0.
    9000005    1    3    3    0    0  0.16120257722E+02 -0.10460518686E+03  0.12040383612E+03  0.16031279291E+03  0.99999687468E+00 0.  0.
          4    1    3    3  502    0 -0.93200503317E+02  0.16324675760E+03 -0.17320546970E+03  0.25560902257E+03  0.00000000000E+00 0.  1.
   -9000007    1    1    2    0  501  0.77080245596E+02 -0.58641570741E+02 -0.23333348078E+03  0.47310116395E+03  0.40000000000E+03 0. -1.
<mgrwt>
<rscale>  2 0.41205712E+03</rscale>
<asrwt>0</asrwt>
<pdfrwt beam="1">  1        2 0.46375990E-01 0.41205712E+03</pdfrwt>
<pdfrwt beam="2">  1       -2 0.90396776E-01 0.41205712E+03</pdfrwt>
<totfact> 0.11740721E+02</totfact>
</mgrwt>
</event>
<event>
 6    1  0.8938744E-004  0.4781248E+03  0.7818608E-02  0.1019652E+00
         -1   -1    0    0    0  501 -0.00000000000E+00  0.00000000000E+00  0.22667939548E+03  0.22667939548E+03  0.00000000000E+00 0.  1.
          1   -1    0    0  502    0  0.00000000000E+00 -0.00000000000E+00 -0.10519858170E+04  0.10519858170E+04  0.00000000000E+00 0. -1.
    9000007    2    1    2  502    0  0.26157311530E+03  0.11197622429E+02 -0.28269870230E+03  0.55549924375E+03  0.40014368935E+03 0.  0.
    9000005    1    3    3    0    0  0.73073706069E+02  0.64008105054E+01 -0.34823209640E+03  0.35587544149E+03  0.99999687468E+00 0.  0.
          4    1    3    3  502    0  0.18849940923E+03  0.47968119236E+01  0.65533394108E+02  0.19962380226E+03  0.00000000000E+00 0.  1.
   -9000007    1    1    2    0  501 -0.26157311530E+03 -0.11197622429E+02 -0.54260771926E+03  0.72316596878E+03  0.40000000000E+03 0.  1.
<mgrwt>
<rscale>  2 0.47812484E+03</rscale>
<asrwt>0</asrwt>
<pdfrwt beam="1">  1        1 0.16184397E+00 0.47812484E+03</pdfrwt>
<pdfrwt beam="2">  1       -1 0.34873753E-01 0.47812484E+03</pdfrwt>
<totfact> 0.11269230E+02</totfact>
</mgrwt>
</event>
<event>
 6    1  0.8938744E-004  0.4495950E+03  0.7818608E-02  0.1027843E+00
          1   -1    0    0  502    0  0.00000000000E+00  0.00000000000E+00  0.43249538385E+03  0.43249538385E+03  0.00000000000E+00 0. -1.
         -1   -1    0    0    0  501 -0.00000000000E+00 -0.00000000000E+00 -0.49264793093E+03  0.49264793093E+03  0.00000000000E+00 0.  1.
    9000007    2    1    2  502    0 -0.20484518416E+03  0.27865956079E+01 -0.13486706231E+03  0.46956503021E+03  0.40041588194E+03 0.  0.
    9000005    1    3    3    0    0 -0.30021319656E+03  0.74390704440E+02 -0.29976287380E+02  0.31074349244E+03  0.99999687468E+00 0.  0.
          4    1    3    3  502    0  0.95368012402E+02 -0.71604108832E+02 -0.10489077493E+03  0.15882153776E+03  0.00000000000E+00 0.  1.
   -9000007    1    1    2    0  501  0.20484518416E+03 -0.27865956079E+01  0.74714515229E+02  0.45557828457E+03  0.40000000000E+03 0.  1.
<mgrwt>
<rscale>  2 0.44959502E+03</rscale>
<asrwt>0</asrwt>
<pdfrwt beam="1">  1        1 0.66537752E-01 0.44959502E+03</pdfrwt>
<pdfrwt beam="2">  1       -1 0.75791989E-01 0.44959502E+03</pdfrwt>
<totfact> 0.98599779E+01</totfact>
</mgrwt>
</event>
<event>
 6    1  0.8938744E-004  0.4759573E+03  0.7818608E-02  0.1020252E+00
          1   -1    0    0  502    0  0.00000000000E+00  0.00000000000E+00  0.69935916231E+03  0.69935916231E+03  0.00000000000E+00 0.  1.
         -1   -1    0    0    0  501 -0.00000000000E+00 -0.00000000000E+00 -0.32837744265E+03  0.32837744265E+03  0.00000000000E+00 0. -1.
    9000007    2    1    2  502    0  0.43360515964E+02  0.25490596887E+03  0.12548186412E+03  0.49189393553E+03  0.39919513809E+03 0.  0.
    9000005    1    3    3    0    0 -0.24681893825E+02 -0.44487993266E+02 -0.99163338438E+02  0.11145736903E+03  0.99999687468E+00 0.  0.
          4    1    3    3  502    0  0.68042409789E+02  0.29939396214E+03  0.22464520256E+03  0.38043656649E+03  0.00000000000E+00 0.  1.
   -9000007    1    1    2    0  501 -0.43360515964E+02 -0.25490596887E+03  0.24549985554E+03  0.53584266943E+03  0.40000000000E+03 0. -1.
<mgrwt>
<rscale>  2 0.47595729E+03</rscale>
<asrwt>0</asrwt>
<pdfrwt beam="1">  1        1 0.10759372E+00 0.47595729E+03</pdfrwt>
<pdfrwt beam="2">  1       -1 0.50519607E-01 0.47595729E+03</pdfrwt>
<totfact> 0.11190557E+02</totfact>
</mgrwt>
</event>
<event>
 6    1  0.8938744E-004  0.4994309E+03  0.7818608E-02  0.1013928E+00
         -1   -1    0    0    0  501 -0.00000000000E+00  0.00000000000E+00  0.61270495371E+03  0.61270495371E+03  0.00000000000E+00 0. -1.
          1   -1    0    0  502    0  0.00000000000E+00 -0.00000000000E+00 -0.43076384491E+03  0.43076384491E+03  0.00000000000E+00 0.  1.
    9000007    2    1    2  502    0  0.27897139287E+03  0.10870438863E+03 -0.31354161042E+02  0.50020408019E+03  0.39947384931E+03 0.  0.
    9000005    1    3    3    0    0  0.17003512961E+03 -0.48137945835E+02  0.15375792561E+03  0.23424710631E+03  0.99999687468E+00 0.  0.
          4    1    3    3  502    0  0.10893626326E+03  0.15684233447E+03 -0.18511208665E+03  0.26595697389E+03  0.00000000000E+00 0.  1.
   -9000007    1    1    2    0  501 -0.27897139287E+03 -0.10870438863E+03  0.21329526985E+03  0.54326471843E+03  0.40000000000E+03 0. -1.
<mgrwt>
<rscale>  2 0.49943095E+03</rscale>
<asrwt>0</asrwt>
<pdfrwt beam="1">  1        1 0.66271361E-01 0.49943095E+03</pdfrwt>
<pdfrwt beam="2">  1       -1 0.94262300E-01 0.49943095E+03</pdfrwt>
<totfact> 0.61814497E+01</totfact>
</mgrwt>
</event>
<event>
 6    1  0.8938744E-004  0.5377744E+03  0.7818608E-02  0.1004364E+00
         -2   -1    0    0    0  501 -0.00000000000E+00  0.00000000000E+00  0.38780826237E+03  0.38780826237E+03  0.00000000000E+00 0. -1.
          2   -1    0    0  502    0  0.00000000000E+00 -0.00000000000E+00 -0.82874990301E+03  0.82874990301E+03  0.00000000000E+00 0.  1.
    9000007    2    1    2  502    0  0.17277263736E+02  0.35886160340E+03 -0.41303199317E+03  0.67817252046E+03  0.40030286770E+03 0.  0.
    9000005    1    3    3    0    0  0.96243531798E+01  0.44815121111E+03 -0.34606201294E+03  0.56629678879E+03  0.99999687468E+00 0.  0.
          4    1    3    3  502    0  0.76529105566E+01 -0.89289607713E+02 -0.66969980222E+02  0.11187573167E+03  0.00000000000E+00 0.  1.
   -9000007    1    1    2    0  501 -0.17277263736E+02 -0.35886160340E+03 -0.27909647474E+02  0.53838564492E+03  0.40000000000E+03 0.  1.
<mgrwt>
<rscale>  2 0.53777442E+03</rscale>
<asrwt>0</asrwt>
<pdfrwt beam="1">  1        2 0.12749998E+00 0.53777442E+03</pdfrwt>
<pdfrwt beam="2">  1       -2 0.59662810E-01 0.53777442E+03</pdfrwt>
<totfact> 0.88728914E+01</totfact>
</mgrwt>
</event>
<event>
 6    1  0.8938744E-004  0.4146829E+03  0.7818608E-02  0.1038811E+00
          1   -1    0    0  502    0  0.00000000000E+00  0.00000000000E+00  0.40029917595E+03  0.40029917595E+03  0.00000000000E+00 0.  1.
         -1   -1    0    0    0  501 -0.00000000000E+00 -0.00000000000E+00 -0.44953102929E+03  0.44953102929E+03  0.00000000000E+00 0. -1.
    9000007    2    1    2  502    0 -0.95115261723E+02 -0.54846795836E+02  0.64899573514E+02  0.41961971417E+03  0.39976701447E+03 0.  0.
    9000005    1    3    3    0    0  0.13416520170E+03 -0.49114933048E+02 -0.63969065625E+02  0.15654270774E+03  0.99999687468E+00 0.  0.
          4    1    3    3  502    0 -0.22928046343E+03 -0.57318627875E+01  0.12886863914E+03  0.26307700643E+03  0.00000000000E+00 0.  1.
   -9000007    1    1    2    0  501  0.95115261723E+02  0.54846795836E+02 -0.11413142686E+03  0.43021049107E+03  0.40000000000E+03 0.  1.
<mgrwt>
<rscale>  2 0.41468288E+03</rscale>
<asrwt>0</asrwt>
<pdfrwt beam="1">  1        1 0.61584489E-01 0.41468288E+03</pdfrwt>
<pdfrwt beam="2">  1       -1 0.69158620E-01 0.41468288E+03</pdfrwt>
<totfact> 0.13207789E+02</totfact>
</mgrwt>
</event>
<event>
 6    1  0.8938744E-004  0.4484274E+03  0.7818608E-02  0.1028192E+00
         -1   -1    0    0    0  501 -0.00000000000E+00  0.00000000000E+00  0.11674660727E+04  0.11674660727E+04  0.00000000000E+00 0. -1.
          1   -1    0    0  502    0  0.00000000000E+00 -0.00000000000E+00 -0.19668105528E+03  0.19668105528E+03  0.00000000000E+00 0.  1.
    9000007    2    1    2  502    0  0.77339626642E+02 -0.18789350131E+03  0.24475322564E+03  0.51067917408E+03  0.39950430748E+03 0.  0.
    9000005    1    3    3    0    0 -0.42236181090E+02 -0.30235027455E+01  0.28391098379E+03  0.28705310183E+03  0.99999687468E+00 0.  0.
          4    1    3    3  502    0  0.11957580773E+03 -0.18486999857E+03 -0.39157758150E+02  0.22362607225E+03  0.00000000000E+00 0.  1.
   -9000007    1    1    2    0  501 -0.77339626642E+02  0.18789350131E+03  0.72603179182E+03  0.85346795395E+03  0.40000000000E+03 0. -1.
<mgrwt>
<rscale>  2 0.44842740E+03</rscale>
<asrwt>0</asrwt>
<pdfrwt beam="1">  1        1 0.30258625E-01 0.44842740E+03</pdfrwt>
<pdfrwt beam="2">  1       -1 0.17961016E+00 0.44842740E+03</pdfrwt>
<totfact> 0.33671783E+01</totfact>
</mgrwt>
</event>
<event>
 6    1  0.8938744E-004  0.4262791E+03  0.7818608E-02  0.1035042E+00
         -2   -1    0    0    0  501 -0.00000000000E+00  0.00000000000E+00  0.16567027068E+03  0.16567027068E+03  0.00000000000E+00 0. -1.
          2   -1    0    0  502    0  0.00000000000E+00 -0.00000000000E+00 -0.12893756354E+04  0.12893756354E+04  0.00000000000E+00 0.  1.
    9000007    2    1    2  502    0 -0.14345789042E+03  0.35207688505E+02 -0.84284653583E+03  0.94445660987E+03  0.39973523402E+03 0.  0.
    9000005    1    3    3    0    0 -0.27291373684E+03 -0.25163412055E+02 -0.64143945057E+03  0.69753901239E+03  0.99999687468E+00 0.  0.
          4    1    3    3  502    0  0.12945584642E+03  0.60371100560E+02 -0.20140708525E+03  0.24691759748E+03  0.00000000000E+00 0.  1.
   -9000007    1    1    2    0  501  0.14345789042E+03 -0.35207688505E+02 -0.28085882892E+03  0.51058929624E+03  0.40000000000E+03 0. -1.
<mgrwt>
<rscale>  2 0.42627907E+03</rscale>
<asrwt>0</asrwt>
<pdfrwt beam="1">  1        2 0.19836548E+00 0.42627907E+03</pdfrwt>
<pdfrwt beam="2">  1       -2 0.25487734E-01 0.42627907E+03</pdfrwt>
<totfact> 0.24123214E+02</totfact>
</mgrwt>
</event>
<event>
 6    1  0.8938744E-004  0.4586262E+03  0.7818608E-02  0.1025180E+00
          1   -1    0    0  502    0  0.00000000000E+00  0.00000000000E+00  0.12722337971E+04  0.12722337971E+04  0.00000000000E+00 0. -1.
         -1   -1    0    0    0  501 -0.00000000000E+00 -0.00000000000E+00 -0.17465327622E+03  0.17465327622E+03  0.00000000000E+00 0.  1.
    9000007    2    1    2  502    0 -0.21210911791E+03 -0.69231367218E+02  0.71662410923E+03  0.85114296074E+03  0.40138630467E+03 0.  0.
    9000005    1    3    3    0    0  0.51881753220E+02 -0.16903520150E+03  0.28784384622E+03  0.33781606750E+03  0.99999687468E+00 0.  0.
          4    1    3    3  502    0 -0.26399087113E+03  0.99803834277E+02  0.42878026301E+03  0.51332689324E+03  0.00000000000E+00 0.  1.
   -9000007    1    1    2    0  501  0.21210911791E+03  0.69231367218E+02  0.38095641167E+03  0.59574411260E+03  0.40000000000E+03 0.  1.
<mgrwt>
<rscale>  2 0.45862622E+03</rscale>
<asrwt>0</asrwt>
<pdfrwt beam="1">  1        1 0.19572827E+00 0.45862622E+03</pdfrwt>
<pdfrwt beam="2">  1       -1 0.26869736E-01 0.45862622E+03</pdfrwt>
<totfact> 0.12304295E+02</totfact>
</mgrwt>
</event>
<event>
 6    1  0.8938744E-004  0.4627256E+03  0.7818608E-02  0.1023994E+00
         -1   -1    0    0    0  501 -0.00000000000E+00  0.00000000000E+00  0.71794520803E+02  0.71794520803E+02  0.00000000000E+00 0. -1.
          1   -1    0    0  502    0  0.00000000000E+00 -0.00000000000E+00 -0.41564797285E+04  0.41564797285E+04  0.00000000000E+00 0.  1.
    9000007    2    1    2  502    0 -0.79004270917E+02 -0.21952567069E+03 -0.91760316451E+03  0.10275177976E+04  0.39920428596E+03 0.  0.
    9000005    1    3    3    0    0 -0.15848338321E+03 -0.25541899621E+03 -0.88459392262E+03  0.93427150995E+03  0.99999687468E+00 0.  0.
          4    1    3    3  502    0  0.79479112293E+02  0.35893325517E+02 -0.33009241886E+02  0.93246287634E+02  0.00000000000E+00 0.  1.
   -9000007    1    1    2    0  501  0.79004270917E+02  0.21952567069E+03 -0.31670820432E+04  0.32007564517E+04  0.40000000000E+03 0.  1.
<mgrwt>
<rscale>  2 0.46272561E+03</rscale>
<asrwt>0</asrwt>
<pdfrwt beam="1">  1        1 0.63945849E+00 0.46272561E+03</pdfrwt>
<pdfrwt beam="2">  1       -1 0.11045310E-01 0.46272561E+03</pdfrwt>
<totfact> 0.44351534E+00</totfact>
</mgrwt>
</event>
<event>
 6    1  0.8938744E-004  0.4172087E+03  0.7818608E-02  0.1037979E+00
          2   -1    0    0  502    0  0.00000000000E+00  0.00000000000E+00  0.80506216633E+02  0.80506216633E+02  0.00000000000E+00 0.  1.
         -2   -1    0    0    0  501 -0.00000000000E+00 -0.00000000000E+00 -0.22414078371E+04  0.22414078371E+04  0.00000000000E+00 0. -1.
    9000007    2    1    2  502    0 -0.89125097516E+02  0.71079650470E+02 -0.86531525207E+03  0.96120113850E+03  0.40266803134E+03 0.  0.
    9000005    1    3    3    0    0 -0.19156228861E+03  0.77412807912E+02 -0.82574904178E+03  0.85120581133E+03  0.99999687468E+00 0.  0.
          4    1    3    3  502    0  0.10243719109E+03 -0.63331574420E+01 -0.39566210288E+02  0.10999532717E+03  0.00000000000E+00 0.  1.
   -9000007    1    1    2    0  501  0.89125097516E+02 -0.71079650470E+02 -0.12955863684E+04  0.13607129152E+04  0.40000000000E+03 0. -1.
<mgrwt>
<rscale>  2 0.41720867E+03</rscale>
<asrwt>0</asrwt>
<pdfrwt beam="1">  1        2 0.12385571E-01 0.41720867E+03</pdfrwt>
<pdfrwt beam="2">  1       -2 0.34483200E+00 0.41720867E+03</pdfrwt>
<totfact> 0.94023923E+00</totfact>
</mgrwt>
</event>
<event>
 6    1  0.8938744E-004  0.4507982E+03  0.7818608E-02  0.1027484E+00
          3   -1    0    0  502    0  0.00000000000E+00  0.00000000000E+00  0.52441742472E+03  0.52441742472E+03  0.00000000000E+00 0.  1.
         -3   -1    0    0    0  501 -0.00000000000E+00 -0.00000000000E+00 -0.52244277500E+03  0.52244277500E+03  0.00000000000E+00 0. -1.
    9000007    2    1    2  502    0  0.10300053904E+03 -0.18126230398E+03 -0.26501914318E+03  0.52269341393E+03  0.39938468276E+03 0.  0.
    9000005    1    3    3    0    0  0.90903727108E+02 -0.64951299043E+02 -0.35689810286E+03  0.37397782644E+03  0.99999687468E+00 0.  0.
          4    1    3    3  502    0  0.12096811935E+02 -0.11631100493E+03  0.91878959687E+02  0.14871558748E+03  0.00000000000E+00 0.  1.
   -9000007    1    1    2    0  501 -0.10300053904E+03  0.18126230398E+03  0.26699379290E+03  0.52416678580E+03  0.40000000000E+03 0.  1.
<mgrwt>
<rscale>  2 0.45079823E+03</rscale>
<asrwt>0</asrwt>
<pdfrwt beam="1">  1        3 0.80679603E-01 0.45079823E+03</pdfrwt>
<pdfrwt beam="2">  1       -3 0.80375812E-01 0.45079823E+03</pdfrwt>
<totfact> 0.53618548E+00</totfact>
</mgrwt>
</event>
<event>
 6    1  0.8938744E-004  0.4269495E+03  0.7818608E-02  0.1034828E+00
         -2   -1    0    0    0  501 -0.00000000000E+00  0.00000000000E+00  0.60643647954E+02  0.60643647954E+02  0.00000000000E+00 0.  1.
          2   -1    0    0  502    0  0.00000000000E+00 -0.00000000000E+00 -0.30727682132E+04  0.30727682132E+04  0.00000000000E+00 0. -1.
    9000007    2    1    2  502    0 -0.18900007070E+02 -0.14884276984E+03 -0.17363487307E+04  0.17880065837E+04  0.39943616338E+03 0.  0.
    9000005    1    3    3    0    0 -0.15788413155E+03 -0.90135183479E+02 -0.14755724421E+04  0.14867302318E+04  0.99999687468E+00 0.  0.
          4    1    3    3  502    0  0.13898412448E+03 -0.58707586357E+02 -0.26077628855E+03  0.30127635192E+03  0.00000000000E+00 0.  1.
   -9000007    1    1    2    0  501  0.18900007070E+02  0.14884276984E+03 -0.12757758346E+04  0.13454052775E+04  0.40000000000E+03 0.  1.
<mgrwt>
<rscale>  2 0.42694949E+03</rscale>
<asrwt>0</asrwt>
<pdfrwt beam="1">  1        2 0.47273349E+00 0.42694949E+03</pdfrwt>
<pdfrwt beam="2">  1       -2 0.93297936E-02 0.42694949E+03</pdfrwt>
<totfact> 0.13417587E+02</totfact>
</mgrwt>
</event>
<event>
 6    1  0.8938744E-004  0.4128780E+03  0.7818608E-02  0.1039410E+00
          2   -1    0    0  502    0  0.00000000000E+00  0.00000000000E+00  0.48482081457E+03  0.48482081457E+03  0.00000000000E+00 0.  1.
         -2   -1    0    0    0  501 -0.00000000000E+00 -0.00000000000E+00 -0.35190422231E+03  0.35190422231E+03  0.00000000000E+00 0. -1.
    9000007    2    1    2  502    0  0.55477087393E+02  0.84736289112E+02  0.78576868680E+02  0.42053907908E+03  0.40052571306E+03 0.  0.
    9000005    1    3    3    0    0 -0.10783929839E+03  0.15239215350E+03 -0.59810548023E+02  0.19603822172E+03  0.99999687468E+00 0.  0.
          4    1    3    3  502    0  0.16331638578E+03 -0.67655864392E+02  0.13838741670E+03  0.22450085736E+03  0.00000000000E+00 0.  1.
   -9000007    1    1    2    0  501 -0.55477087393E+02 -0.84736289112E+02  0.54339723573E+02  0.41618595781E+03  0.40000000000E+03 0. -1.
<mgrwt>
<rscale>  2 0.41287800E+03</rscale>
<asrwt>0</asrwt>
<pdfrwt beam="1">  1        2 0.74587818E-01 0.41287800E+03</pdfrwt>
<pdfrwt beam="2">  1       -2 0.54139111E-01 0.41287800E+03</pdfrwt>
<totfact> 0.21040287E+02</totfact>
</mgrwt>
</event>
<event>
 6    1  0.8938744E-004  0.6647651E+03  0.7818608E-02  0.9779461E-01
          2   -1    0    0  502    0  0.00000000000E+00  0.00000000000E+00  0.23684536998E+04  0.23684536998E+04  0.00000000000E+00 0. -1.
         -2   -1    0    0    0  501 -0.00000000000E+00 -0.00000000000E+00 -0.44980558971E+03  0.44980558971E+03  0.00000000000E+00 0.  1.
    9000007    2    1    2  502    0  0.47923043435E+03  0.22902035758E+03 -0.11871997910E+03  0.67513519972E+03  0.39950090247E+03 0.  0.
    9000005    1    3    3    0    0  0.35776524581E+02  0.20881565260E+03  0.12511935624E+02  0.21222979294E+03  0.99999687468E+00 0.  0.
          4    1    3    3  502    0  0.44345390977E+03  0.20204704979E+02 -0.13123191472E+03  0.46290540679E+03  0.00000000000E+00 0.  1.
   -9000007    1    1    2    0  501 -0.47923043435E+03 -0.22902035758E+03  0.20373680891E+04  0.21431240897E+04  0.40000000000E+03 0. -1.
<mgrwt>
<rscale>  2 0.66476505E+03</rscale>
<asrwt>0</asrwt>
<pdfrwt beam="1">  1        2 0.36437748E+00 0.66476505E+03</pdfrwt>
<pdfrwt beam="2">  1       -2 0.69200861E-01 0.66476505E+03</pdfrwt>
<totfact> 0.83831562E+00</totfact>
</mgrwt>
</event>
<event>
 6    1  0.8938744E-004  0.4284212E+03  0.7818608E-02  0.1034360E+00
         -1   -1    0    0    0  501 -0.00000000000E+00  0.00000000000E+00  0.76519049982E+02  0.76519049982E+02  0.00000000000E+00 0. -1.
          1   -1    0    0  502    0  0.00000000000E+00 -0.00000000000E+00 -0.27699742458E+04  0.27699742458E+04  0.00000000000E+00 0.  1.
    9000007    2    1    2  502    0  0.61067662776E+02 -0.14052296111E+03 -0.18680224832E+04  0.19165389286E+04  0.40017184426E+03 0.  0.
    9000005    1    3    3    0    0  0.20757107555E+03 -0.18060916554E+03 -0.11259422790E+04  0.11590739570E+04  0.99999687468E+00 0.  0.
          4    1    3    3  502    0 -0.14650341277E+03  0.40086204429E+02 -0.74208020423E+03  0.75746497163E+03  0.00000000000E+00 0.  1.
   -9000007    1    1    2    0  501 -0.61067662776E+02  0.14052296111E+03 -0.82543271257E+03  0.92995436717E+03  0.40000000000E+03 0. -1.
<mgrwt>
<rscale>  2 0.42842117E+03</rscale>
<asrwt>0</asrwt>
<pdfrwt beam="1">  1        1 0.42614982E+00 0.42842117E+03</pdfrwt>
<pdfrwt beam="2">  1       -1 0.11772163E-01 0.42842117E+03</pdfrwt>
<totfact> 0.47247668E+01</totfact>
</mgrwt>
</event>
<event>
 6    1  0.8938744E-004  0.4001039E+03  0.7818608E-02  0.1043744E+00
          1   -1    0    0  502    0  0.00000000000E+00  0.00000000000E+00  0.22513731747E+03  0.22513731747E+03  0.00000000000E+00 0. -1.
         -1   -1    0    0    0  501 -0.00000000000E+00 -0.00000000000E+00 -0.11203380345E+04  0.11203380345E+04  0.00000000000E+00 0.  1.
    9000007    2    1    2  502    0  0.14537888001E+01 -0.84915094421E+01 -0.40989388549E+02  0.40220910486E+03  0.40002226791E+03 0.  0.
    9000005    1    3    3    0    0 -0.35177450880E+02 -0.15248093257E+03  0.10929643069E+03  0.19087848910E+03  0.99999687468E+00 0.  0.
          4    1    3    3  502    0  0.36631239680E+02  0.14398942313E+03 -0.15028581924E+03  0.21133061576E+03  0.00000000000E+00 0.  1.
   -9000007    1    1    2    0  501 -0.14537888001E+01  0.84915094421E+01 -0.85421132847E+03  0.94326624710E+03  0.40000000000E+03 0.  1.
<mgrwt>
<rscale>  2 0.40010389E+03</rscale>
<asrwt>0</asrwt>
<pdfrwt beam="1">  1        1 0.34636510E-01 0.40010389E+03</pdfrwt>
<pdfrwt beam="2">  1       -1 0.17235970E+00 0.40010389E+03</pdfrwt>
<totfact> 0.32137689E+01</totfact>
</mgrwt>
</event>
<event>
 6    1  0.8938744E-004  0.4435412E+03  0.7818608E-02  0.1029666E+00
         -2   -1    0    0    0  501 -0.00000000000E+00  0.00000000000E+00  0.25852503954E+03  0.25852503954E+03  0.00000000000E+00 0.  1.
          2   -1    0    0  502    0  0.00000000000E+00 -0.00000000000E+00 -0.76645752003E+03  0.76645752003E+03  0.00000000000E+00 0. -1.
    9000007    2    1    2  502    0  0.12880659361E+03  0.14402338334E+03 -0.21020614752E+03  0.49021640241E+03  0.39848666631E+03 0.  0.
    9000005    1    3    3    0    0  0.10140685192E+03 -0.95322940427E+02 -0.20681193344E+03  0.24928294846E+03  0.99999687468E+00 0.  0.
          4    1    3    3  502    0  0.27399741696E+02  0.23934632376E+03 -0.33942140860E+01  0.24093345395E+03  0.00000000000E+00 0.  1.
   -9000007    1    1    2    0  501 -0.12880659361E+03 -0.14402338334E+03 -0.29772633297E+03  0.53476615717E+03  0.40000000000E+03 0. -1.
<mgrwt>
<rscale>  2 0.44354116E+03</rscale>
<asrwt>0</asrwt>
<pdfrwt beam="1">  1        2 0.11791654E+00 0.44354116E+03</pdfrwt>
<pdfrwt beam="2">  1       -2 0.39773083E-01 0.44354116E+03</pdfrwt>
<totfact> 0.22411224E+02</totfact>
</mgrwt>
</event>
<event>
 6    1  0.8938744E-004  0.4008765E+03  0.7818608E-02  0.1043477E+00
          2   -1    0    0  502    0  0.00000000000E+00  0.00000000000E+00  0.89527352643E+03  0.89527352643E+03  0.00000000000E+00 0. -1.
         -2   -1    0    0    0  501 -0.00000000000E+00 -0.00000000000E+00 -0.17997379430E+03  0.17997379430E+03  0.00000000000E+00 0.  1.
    9000007    2    1    2  502    0  0.62733136137E+01 -0.23434268289E+02  0.38534814080E+03  0.55615525565E+03  0.40028359869E+03 0.  0.
    9000005    1    3    3    0    0 -0.13258580427E+02  0.62526099713E+02  0.44509638930E+03  0.44966331723E+03  0.99999687468E+00 0.  0.
          4    1    3    3  502    0  0.19531894041E+02 -0.85960368002E+02 -0.59748248498E+02  0.10649193843E+03  0.00000000000E+00 0.  1.
   -9000007    1    1    2    0  501 -0.62733136137E+01  0.23434268289E+02  0.32995159134E+03  0.51909206507E+03  0.40000000000E+03 0.  1.
<mgrwt>
<rscale>  2 0.40087649E+03</rscale>
<asrwt>0</asrwt>
<pdfrwt beam="1">  1        2 0.13773439E+00 0.40087649E+03</pdfrwt>
<pdfrwt beam="2">  1       -2 0.27688277E-01 0.40087649E+03</pdfrwt>
<totfact> 0.36062976E+02</totfact>
</mgrwt>
</event>
<event>
 6    1  0.8938744E-004  0.5503440E+03  0.7818608E-02  0.1001414E+00
          2   -1    0    0  502    0  0.00000000000E+00  0.00000000000E+00  0.35001932865E+03  0.35001932865E+03  0.00000000000E+00 0. -1.
         -2   -1    0    0    0  501 -0.00000000000E+00 -0.00000000000E+00 -0.14398254624E+04  0.14398254624E+04  0.00000000000E+00 0.  1.
    9000007    2    1    2  502    0  0.17831564398E+03 -0.33270902720E+03  0.20185924598E+02  0.55106549865E+03  0.40096626613E+03 0.  0.
    9000005    1    3    3    0    0 -0.98855887141E+02 -0.22698367431E+03  0.51135918386E+02  0.25280418701E+03  0.99999687468E+00 0.  0.
          4    1    3    3  502    0  0.27717153112E+03 -0.10572535290E+03 -0.30949993788E+02  0.29826131164E+03  0.00000000000E+00 0.  1.
   -9000007    1    1    2    0  501 -0.17831564398E+03  0.33270902720E+03 -0.11099920583E+04  0.12387792924E+04  0.40000000000E+03 0.  1.
<mgrwt>
<rscale>  2 0.55034398E+03</rscale>
<asrwt>0</asrwt>
<pdfrwt beam="1">  1        2 0.53849126E-01 0.55034398E+03</pdfrwt>
<pdfrwt beam="2">  1       -2 0.22151161E+00 0.55034398E+03</pdfrwt>
<totfact> 0.93564981E+00</totfact>
</mgrwt>
</event>
<event>
 6    1  0.8938744E-004  0.7620615E+03  0.7818608E-02  0.9616616E-01
         -2   -1    0    0    0  501 -0.00000000000E+00  0.00000000000E+00  0.55041514267E+03  0.55041514267E+03  0.00000000000E+00 0.  1.
          2   -1    0    0  502    0  0.00000000000E+00 -0.00000000000E+00 -0.18819439092E+04  0.18819439092E+04  0.00000000000E+00 0. -1.
    9000007    2    1    2  502    0  0.50570782611E+03 -0.40649546979E+03 -0.14718234638E+04  0.16573354558E+04  0.39939645983E+03 0.  0.
    9000005    1    3    3    0    0  0.55750401601E+03 -0.42185634329E+03 -0.12852014689E+04  0.14630506888E+04  0.99999687468E+00 0.  0.
          4    1    3    3  502    0 -0.51796189904E+02  0.15360873492E+02 -0.18662199489E+03  0.19428476703E+03  0.00000000000E+00 0.  1.
   -9000007    1    1    2    0  501 -0.50570782611E+03  0.40649546979E+03  0.14029469729E+03  0.77502359605E+03  0.40000000000E+03 0.  1.
<mgrwt>
<rscale>  2 0.76206147E+03</rscale>
<asrwt>0</asrwt>
<pdfrwt beam="1">  1        2 0.28952983E+00 0.76206147E+03</pdfrwt>
<pdfrwt beam="2">  1       -2 0.84679254E-01 0.76206147E+03</pdfrwt>
<totfact> 0.97350532E+00</totfact>
</mgrwt>
</event>
<event>
 6    1  0.8938744E-004  0.5202559E+03  0.7818608E-02  0.1008623E+00
         -1   -1    0    0    0  501 -0.00000000000E+00  0.00000000000E+00  0.35954443073E+03  0.35954443073E+03  0.00000000000E+00 0.  1.
          1   -1    0    0  502    0  0.00000000000E+00 -0.00000000000E+00 -0.75332779620E+03  0.75332779620E+03  0.00000000000E+00 0. -1.
    9000007    2    1    2  502    0 -0.29019991620E+03 -0.16325906734E+03 -0.18213536299E+03  0.55103204380E+03  0.39949156237E+03 0.  0.
    9000005    1    3    3    0    0 -0.42881120776E+02 -0.23332094809E+03 -0.17337421613E+03  0.29383171060E+03  0.99999687468E+00 0.  0.
          4    1    3    3  502    0 -0.24731879542E+03  0.70061880753E+02 -0.87611468591E+01  0.25720033320E+03  0.00000000000E+00 0.  1.
   -9000007    1    1    2    0  501  0.29019991620E+03  0.16325906734E+03 -0.21164800248E+03  0.56184018313E+03  0.40000000000E+03 0. -1.
<mgrwt>
<rscale>  2 0.52025589E+03</rscale>
<asrwt>0</asrwt>
<pdfrwt beam="1">  1        1 0.11589658E+00 0.52025589E+03</pdfrwt>
<pdfrwt beam="2">  1       -1 0.55314528E-01 0.52025589E+03</pdfrwt>
<totfact> 0.83748915E+01</totfact>
</mgrwt>
</event>
<event>
 6    1  0.8938744E-004  0.4676671E+03  0.7818608E-02  0.1022581E+00
          3   -1    0    0  502    0  0.00000000000E+00  0.00000000000E+00  0.16947415364E+03  0.16947415364E+03  0.00000000000E+00 0. -1.
         -3   -1    0    0    0  501 -0.00000000000E+00 -0.00000000000E+00 -0.19521208904E+04  0.19521208904E+04  0.00000000000E+00 0.  1.
    9000007    2    1    2  502    0 -0.20304930176E+03  0.13424860873E+03 -0.15081464058E+04  0.15788224033E+04  0.39865134106E+03 0.  0.
    9000005    1    3    3    0    0 -0.23025071927E+03  0.24687599633E+03 -0.93488132305E+03  0.99396541161E+03  0.99999687468E+00 0.  0.
          4    1    3    3  502    0  0.27201417513E+02 -0.11262738760E+03 -0.57326508278E+03  0.58485699166E+03  0.00000000000E+00 0.  1.
   -9000007    1    1    2    0  501  0.20304930176E+03 -0.13424860873E+03 -0.27450033092E+03  0.54277264077E+03  0.40000000000E+03 0. -1.
<mgrwt>
<rscale>  2 0.46766707E+03</rscale>
<asrwt>0</asrwt>
<pdfrwt beam="1">  1        3 0.26072947E-01 0.46766707E+03</pdfrwt>
<pdfrwt beam="2">  1       -3 0.30032629E+00 0.46766707E+03</pdfrwt>
<totfact> 0.14615173E+00</totfact>
</mgrwt>
</event>
<event>
 6    1  0.8938744E-004  0.4730235E+03  0.7818608E-02  0.1021070E+00
          2   -1    0    0  502    0  0.00000000000E+00  0.00000000000E+00  0.10287412463E+04  0.10287412463E+04  0.00000000000E+00 0. -1.
         -2   -1    0    0    0  501 -0.00000000000E+00 -0.00000000000E+00 -0.21769385349E+03  0.21769385349E+03  0.00000000000E+00 0.  1.
    9000007    2    1    2  502    0 -0.22481648221E+03  0.11442675941E+03  0.38702960123E+03  0.61127604766E+03  0.40028809660E+03 0.  0.
    9000005    1    3    3    0    0 -0.28083485188E+03 -0.60700594200E+02  0.26273609651E+03  0.38933794134E+03  0.99999687468E+00 0.  0.
          4    1    3    3  502    0  0.56018369664E+02  0.17512735361E+03  0.12429350472E+03  0.22193810632E+03  0.00000000000E+00 0.  1.
   -9000007    1    1    2    0  501  0.22481648221E+03 -0.11442675941E+03  0.42401779161E+03  0.63515905217E+03  0.40000000000E+03 0.  1.
<mgrwt>
<rscale>  2 0.47302345E+03</rscale>
<asrwt>0</asrwt>
<pdfrwt beam="1">  1        2 0.15826788E+00 0.47302345E+03</pdfrwt>
<pdfrwt beam="2">  1       -2 0.33491363E-01 0.47302345E+03</pdfrwt>
<totfact> 0.20739882E+02</totfact>
</mgrwt>
</event>
<event>
 6    1  0.8938744E-004  0.4439051E+03  0.7818608E-02  0.1029555E+00
          2   -1    0    0  502    0  0.00000000000E+00  0.00000000000E+00  0.13302112609E+04  0.13302112609E+04  0.00000000000E+00 0. -1.
         -2   -1    0    0    0  501 -0.00000000000E+00 -0.00000000000E+00 -0.18237490933E+03  0.18237490933E+03  0.00000000000E+00 0.  1.
    9000007    2    1    2  502    0  0.12365363795E+03 -0.14866488453E+03  0.90121080466E+03  0.10044369496E+04  0.39915059959E+03 0.  0.
    9000005    1    3    3    0    0  0.18174091212E+03 -0.10536599270E+03  0.90770408377E+03  0.93169708342E+03  0.99999687468E+00 0.  0.
          4    1    3    3  502    0 -0.58087274172E+02 -0.43298891834E+02 -0.64932791101E+01  0.72739866156E+02  0.00000000000E+00 0.  1.
   -9000007    1    1    2    0  501 -0.12365363795E+03  0.14866488453E+03  0.24662554690E+03  0.50814922066E+03  0.40000000000E+03 0.  1.
<mgrwt>
<rscale>  2 0.44390515E+03</rscale>
<asrwt>0</asrwt>
<pdfrwt beam="1">  1        2 0.20464788E+00 0.44390515E+03</pdfrwt>
<pdfrwt beam="2">  1       -2 0.28057679E-01 0.44390515E+03</pdfrwt>
<totfact> 0.19194316E+02</totfact>
</mgrwt>
</event>
<event>
 6    1  0.8938744E-004  0.4670931E+03  0.7818608E-02  0.1022744E+00
         -1   -1    0    0    0  501 -0.00000000000E+00  0.00000000000E+00  0.14035901902E+04  0.14035901902E+04  0.00000000000E+00 0. -1.
          1   -1    0    0  502    0  0.00000000000E+00 -0.00000000000E+00 -0.53331324497E+03  0.53331324497E+03  0.00000000000E+00 0.  1.
    9000007    2    1    2  502    0 -0.98350140312E+01  0.23978253142E+03  0.12504982614E+04  0.13351055960E+04  0.40145816852E+03 0.  0.
    9000005    1    3    3    0    0  0.96798147934E+02  0.75580200160E+02  0.10415372744E+04  0.10487531368E+04  0.99999687468E+00 0.  0.
          4    1    3    3  502    0 -0.10663316196E+03  0.16420233126E+03  0.20896098697E+03  0.28635245921E+03  0.00000000000E+00 0.  1.
   -9000007    1    1    2    0  501  0.98350140312E+01 -0.23978253142E+03 -0.38022131615E+03  0.60179783909E+03  0.40000000000E+03 0.  1.
<mgrwt>
<rscale>  2 0.46709307E+03</rscale>
<asrwt>0</asrwt>
<pdfrwt beam="1">  1        1 0.82048192E-01 0.46709307E+03</pdfrwt>
<pdfrwt beam="2">  1       -1 0.21593695E+00 0.46709307E+03</pdfrwt>
<totfact> 0.51862898E+00</totfact>
</mgrwt>
</event>
<event>
 6    1  0.8938744E-004  0.4040221E+03  0.7818608E-02  0.1042396E+00
          2   -1    0    0  502    0  0.00000000000E+00  0.00000000000E+00  0.86394802731E+03  0.86394802731E+03  0.00000000000E+00 0.  1.
         -2   -1    0    0    0  501 -0.00000000000E+00 -0.00000000000E+00 -0.21039217599E+03  0.21039217599E+03  0.00000000000E+00 0. -1.
    9000007    2    1    2  502    0 -0.50195540762E+02  0.29906486125E+02  0.49814530490E+03  0.64125080356E+03  0.39954956896E+03 0.  0.
    9000005    1    3    3    0    0 -0.89473631856E+02 -0.15594200781E+03  0.11449806155E+03  0.21315310622E+03  0.99999687468E+00 0.  0.
          4    1    3    3  502    0  0.39278091094E+02  0.18584849394E+03  0.38364724335E+03  0.42809769735E+03  0.00000000000E+00 0.  1.
   -9000007    1    1    2    0  501  0.50195540762E+02 -0.29906486125E+02  0.15541054642E+03  0.43308939974E+03  0.40000000000E+03 0. -1.
<mgrwt>
<rscale>  2 0.40402205E+03</rscale>
<asrwt>0</asrwt>
<pdfrwt beam="1">  1        2 0.13291508E+00 0.40402205E+03</pdfrwt>
<pdfrwt beam="2">  1       -2 0.32368027E-01 0.40402205E+03</pdfrwt>
<totfact> 0.28399306E+02</totfact>
</mgrwt>
</event>
<event>
 6    1  0.8938744E-004  0.4179667E+03  0.7818608E-02  0.1037730E+00
          1   -1    0    0  502    0  0.00000000000E+00  0.00000000000E+00  0.15144256529E+03  0.15144256529E+03  0.00000000000E+00 0.  1.
         -1   -1    0    0    0  501 -0.00000000000E+00 -0.00000000000E+00 -0.13565317651E+04  0.13565317651E+04  0.00000000000E+00 0. -1.
    9000007    2    1    2  502    0 -0.48244913575E+02 -0.11095087522E+03 -0.31096789286E+03  0.52101405768E+03  0.40014616018E+03 0.  0.
    9000005    1    3    3    0    0 -0.13058749327E+03  0.34066733985E+02 -0.32672940291E+03  0.35350634858E+03  0.99999687468E+00 0.  0.
          4    1    3    3  502    0  0.82342579692E+02 -0.14501760920E+03  0.15761510048E+02  0.16750770910E+03  0.00000000000E+00 0.  1.
   -9000007    1    1    2    0  501  0.48244913575E+02  0.11095087522E+03 -0.89412130698E+03  0.98696027275E+03  0.40000000000E+03 0. -1.
<mgrwt>
<rscale>  2 0.41796667E+03</rscale>
<asrwt>0</asrwt>
<pdfrwt beam="1">  1        1 0.23298857E-01 0.41796667E+03</pdfrwt>
<pdfrwt beam="2">  1       -1 0.20869719E+00 0.41796667E+03</pdfrwt>
<totfact> 0.29969522E+01</totfact>
</mgrwt>
</event>
<event>
 6    1  0.8938744E-004  0.5434914E+03  0.7818608E-02  0.1003012E+00
          2   -1    0    0  502    0  0.00000000000E+00  0.00000000000E+00  0.27960351469E+04  0.27960351469E+04  0.00000000000E+00 0. -1.
         -2   -1    0    0    0  501 -0.00000000000E+00 -0.00000000000E+00 -0.11371396615E+03  0.11371396615E+03  0.00000000000E+00 0.  1.
    9000007    2    1    2  502    0 -0.20106061083E+03  0.30794748856E+03  0.17290125604E+04  0.18124550091E+04  0.40031450268E+03 0.  0.
    9000005    1    3    3    0    0  0.41596947891E+02 -0.48877325502E+02  0.60600896961E+03  0.60939902384E+03  0.99999687468E+00 0.  0.
          4    1    3    3  502    0 -0.24265755872E+03  0.35682481406E+03  0.11230035908E+04  0.12030559853E+04  0.00000000000E+00 0.  1.
   -9000007    1    1    2    0  501  0.20106061083E+03 -0.30794748856E+03  0.95330862033E+03  0.10972941039E+04  0.40000000000E+03 0.  1.
<mgrwt>
<rscale>  2 0.54349135E+03</rscale>
<asrwt>0</asrwt>
<pdfrwt beam="1">  1        2 0.43015920E+00 0.54349135E+03</pdfrwt>
<pdfrwt beam="2">  1       -2 0.17494458E-01 0.54349135E+03</pdfrwt>
<totfact> 0.67822644E+01</totfact>
</mgrwt>
</event>
<event>
 6    1  0.8938744E-004  0.4504061E+03  0.7818608E-02  0.1027601E+00
         -1   -1    0    0    0  501 -0.00000000000E+00  0.00000000000E+00  0.16161445138E+03  0.16161445138E+03  0.00000000000E+00 0.  1.
          1   -1    0    0  502    0  0.00000000000E+00 -0.00000000000E+00 -0.13544329503E+04  0.13544329503E+04  0.00000000000E+00 0. -1.
    9000007    2    1    2  502    0  0.14361614489E+03 -0.15261345613E+03 -0.80010450381E+03  0.91759878564E+03  0.39737117451E+03 0.  0.
    9000005    1    3    3    0    0 -0.68857120115E+02 -0.56067954517E+02 -0.61044939300E+03  0.61687468737E+03  0.99999687468E+00 0.  0.
          4    1    3    3  502    0  0.21247326501E+03 -0.96545501616E+02 -0.18965511081E+03  0.30072409827E+03  0.00000000000E+00 0.  1.
   -9000007    1    1    2    0  501 -0.14361614489E+03  0.15261345613E+03 -0.39271399507E+03  0.59844861600E+03  0.40000000000E+03 0.  1.
<mgrwt>
<rscale>  2 0.45040613E+03</rscale>
<asrwt>0</asrwt>
<pdfrwt beam="1">  1        1 0.20837430E+00 0.45040613E+03</pdfrwt>
<pdfrwt beam="2">  1       -1 0.24863761E-01 0.45040613E+03</pdfrwt>
<totfact> 0.12317947E+02</totfact>
</mgrwt>
</event>
<event>
 6    1  0.8938744E-004  0.4057487E+03  0.7818608E-02  0.1041807E+00
          1   -1    0    0  502    0  0.00000000000E+00  0.00000000000E+00  0.23369648584E+03  0.23369648584E+03  0.00000000000E+00 0.  1.
         -1   -1    0    0    0  501 -0.00000000000E+00 -0.00000000000E+00 -0.70627891648E+03  0.70627891648E+03  0.00000000000E+00 0. -1.
    9000007    2    1    2  502    0 -0.10198108808E+01  0.69774049479E+02 -0.25990957184E+03  0.48160960640E+03  0.39940627117E+03 0.  0.
    9000005    1    3    3    0    0 -0.12500246351E+03 -0.65688061208E+02 -0.26236944280E+03  0.29795849002E+03  0.99999687468E+00 0.  0.
          4    1    3    3  502    0  0.12398265262E+03  0.13546211069E+03  0.24598709591E+01  0.18365111638E+03  0.00000000000E+00 0.  1.
   -9000007    1    1    2    0  501  0.10198108808E+01 -0.69774049479E+02 -0.21267285880E+03  0.45836579592E+03  0.40000000000E+03 0. -1.
<mgrwt>
<rscale>  2 0.40574866E+03</rscale>
<asrwt>0</asrwt>
<pdfrwt beam="1">  1        1 0.35953306E-01 0.40574866E+03</pdfrwt>
<pdfrwt beam="2">  1       -1 0.10865829E+00 0.40574866E+03</pdfrwt>
<totfact> 0.99577246E+01</totfact>
</mgrwt>
</event>
<event>
 6    1  0.8938744E-004  0.4392329E+03  0.7818608E-02  0.1030982E+00
         -2   -1    0    0    0  501 -0.00000000000E+00  0.00000000000E+00  0.23083819243E+03  0.23083819243E+03  0.00000000000E+00 0. -1.
          2   -1    0    0  502    0  0.00000000000E+00 -0.00000000000E+00 -0.96084976887E+03  0.96084976887E+03  0.00000000000E+00 0.  1.
    9000007    2    1    2  502    0  0.15264513278E+03 -0.92539383137E+02 -0.15089984106E+03  0.46557882621E+03  0.40265221642E+03 0.  0.
    9000005    1    3    3    0    0 -0.13871682237E+02  0.64277562464E+02  0.10403069886E+03  0.12307483456E+03  0.99999687468E+00 0.  0.
          4    1    3    3  502    0  0.16651681501E+03 -0.15681694560E+03 -0.25493053991E+03  0.34250399164E+03  0.00000000000E+00 0.  1.
   -9000007    1    1    2    0  501 -0.15264513278E+03  0.92539383137E+02 -0.57911173538E+03  0.72610913508E+03  0.40000000000E+03 0.  1.
<mgrwt>
<rscale>  2 0.43923290E+03</rscale>
<asrwt>0</asrwt>
<pdfrwt beam="1">  1        2 0.14782304E+00 0.43923290E+03</pdfrwt>
<pdfrwt beam="2">  1       -2 0.35513568E-01 0.43923290E+03</pdfrwt>
<totfact> 0.20553984E+02</totfact>
</mgrwt>
</event>
<event>
 6    1  0.8938744E-004  0.4284645E+03  0.7818608E-02  0.1034346E+00
         -1   -1    0    0    0  501 -0.00000000000E+00  0.00000000000E+00  0.60802597019E+02  0.60802597019E+02  0.00000000000E+00 0.  1.
          1   -1    0    0  502    0  0.00000000000E+00 -0.00000000000E+00 -0.30460721807E+04  0.30460721807E+04  0.00000000000E+00 0. -1.
    9000007    2    1    2  502    0 -0.11999916149E+03 -0.95067094222E+02 -0.16388272072E+04  0.16939541768E+04  0.40036057131E+03 0.  0.
    9000005    1    3    3    0    0  0.22522125221E+02  0.40261684339E+02 -0.13104074150E+04  0.13112196012E+04  0.99999687468E+00 0.  0.
          4    1    3    3  502    0 -0.14252128672E+03 -0.13532877856E+03 -0.32841979218E+03  0.38273457561E+03  0.00000000000E+00 0.  1.
   -9000007    1    1    2    0  501  0.11999916149E+03  0.95067094222E+02 -0.13464423765E+04  0.14129206009E+04  0.40000000000E+03 0. -1.
<mgrwt>
<rscale>  2 0.42846445E+03</rscale>
<asrwt>0</asrwt>
<pdfrwt beam="1">  1        1 0.46862637E+00 0.42846445E+03</pdfrwt>
<pdfrwt beam="2">  1       -1 0.93542480E-02 0.42846445E+03</pdfrwt>
<totfact> 0.43439492E+01</totfact>
</mgrwt>
</event>
<event>
 6    1  0.8938744E-004  0.4243871E+03  0.7818608E-02  0.1035648E+00
         -1   -1    0    0    0  501 -0.00000000000E+00  0.00000000000E+00  0.34993387134E+03  0.34993387134E+03  0.00000000000E+00 0. -1.
          1   -1    0    0  502    0  0.00000000000E+00 -0.00000000000E+00 -0.64474725666E+03  0.64474725666E+03  0.00000000000E+00 0.  1.
    9000007    2    1    2  502    0  0.14156473662E+03  0.48206317683E+01  0.75958376702E+02  0.43117823301E+03  0.40010146274E+03 0.  0.
    9000005    1    3    3    0    0  0.26037024232E+03 -0.36506050164E+02  0.13115072702E+03  0.29381434270E+03  0.99999687468E+00 0.  0.
          4    1    3    3  502    0 -0.11880550571E+03  0.41326681932E+02 -0.55192350320E+02  0.13736389031E+03  0.00000000000E+00 0.  1.
   -9000007    1    1    2    0  501 -0.14156473662E+03 -0.48206317683E+01 -0.37077176203E+03  0.56350289499E+03  0.40000000000E+03 0.  1.
<mgrwt>
<rscale>  2 0.42438709E+03</rscale>
<asrwt>0</asrwt>
<pdfrwt beam="1">  1        1 0.99191885E-01 0.42438709E+03</pdfrwt>
<pdfrwt beam="2">  1       -1 0.53835981E-01 0.42438709E+03</pdfrwt>
<totfact> 0.11247029E+02</totfact>
</mgrwt>
</event>
<event>
 6    1  0.8938744E-004  0.4782835E+03  0.7818608E-02  0.1019608E+00
         -2   -1    0    0    0  501 -0.00000000000E+00  0.00000000000E+00  0.78349449158E+02  0.78349449158E+02  0.00000000000E+00 0. -1.
          2   -1    0    0  502    0  0.00000000000E+00 -0.00000000000E+00 -0.29196916496E+04  0.29196916496E+04  0.00000000000E+00 0.  1.
    9000007    2    1    2  502    0  0.24226094646E+03  0.10060444825E+03 -0.14171048023E+04  0.14956217872E+04  0.39985858594E+03 0.  0.
    9000005    1    3    3    0    0  0.13321788901E+03  0.25532851949E+03 -0.80860229115E+03  0.85835792305E+03  0.99999687468E+00 0.  0.
          4    1    3    3  502    0  0.10904305746E+03 -0.15472407124E+03 -0.60850251110E+03  0.63726386420E+03  0.00000000000E+00 0.  1.
   -9000007    1    1    2    0  501 -0.24226094646E+03 -0.10060444825E+03 -0.14242373982E+04  0.15024193115E+04  0.40000000000E+03 0.  1.
<mgrwt>
<rscale>  2 0.47828345E+03</rscale>
<asrwt>0</asrwt>
<pdfrwt beam="1">  1        2 0.44918334E+00 0.47828345E+03</pdfrwt>
<pdfrwt beam="2">  1       -2 0.12053761E-01 0.47828345E+03</pdfrwt>
<totfact> 0.10835058E+02</totfact>
</mgrwt>
</event>
<event>
 6    1  0.8938744E-004  0.4151732E+03  0.7818608E-02  0.1038649E+00
         -2   -1    0    0    0  501 -0.00000000000E+00  0.00000000000E+00  0.62466664973E+02  0.62466664973E+02  0.00000000000E+00 0.  1.
          2   -1    0    0  502    0  0.00000000000E+00 -0.00000000000E+00 -0.27958958116E+04  0.27958958116E+04  0.00000000000E+00 0. -1.
    9000007    2    1    2  502    0 -0.15001269000E+02  0.11092901022E+03 -0.12027353395E+04  0.12723127250E+04  0.39959615847E+03 0.  0.
    9000005    1    3    3    0    0 -0.12317922677E+03 -0.80197963457E+02 -0.80185802596E+03  0.81521906813E+03  0.99999687468E+00 0.  0.
          4    1    3    3  502    0  0.10817795777E+03  0.19112697368E+03 -0.40087731352E+03  0.45709365683E+03  0.00000000000E+00 0.  1.
   -9000007    1    1    2    0  501  0.15001269000E+02 -0.11092901022E+03 -0.15306938072E+04  0.15860497516E+04  0.40000000000E+03 0. -1.
<mgrwt>
<rscale>  2 0.41517316E+03</rscale>
<asrwt>0</asrwt>
<pdfrwt beam="1">  1        2 0.43013774E+00 0.41517316E+03</pdfrwt>
<pdfrwt beam="2">  1       -2 0.96102578E-02 0.41517316E+03</pdfrwt>
<totfact> 0.18736036E+02</totfact>
</mgrwt>
</event>
<event>
 6    1  0.8938744E-004  0.4275305E+03  0.7818608E-02  0.1034643E+00
          2   -1    0    0  502    0  0.00000000000E+00  0.00000000000E+00  0.89117568553E+03  0.89117568553E+03  0.00000000000E+00 0. -1.
         -2   -1    0    0    0  501 -0.00000000000E+00 -0.00000000000E+00 -0.20585269800E+03  0.20585269800E+03  0.00000000000E+00 0.  1.
    9000007    2    1    2  502    0 -0.12608313393E+03 -0.80653017979E+02  0.37612507732E+03  0.56976638636E+03  0.40095111332E+03 0.  0.
    9000005    1    3    3    0    0 -0.10810359017E+03 -0.25062924207E+01  0.44873995323E+03  0.46158554280E+03  0.99999687468E+00 0.  0.
          4    1    3    3  502    0 -0.17979543765E+02 -0.78146725558E+02 -0.72614875911E+02  0.10818084356E+03  0.00000000000E+00 0.  1.
   -9000007    1    1    2    0  501  0.12608313393E+03  0.80653017979E+02  0.30919791021E+03  0.52726199716E+03  0.40000000000E+03 0. -1.
<mgrwt>
<rscale>  2 0.42753054E+03</rscale>
<asrwt>0</asrwt>
<pdfrwt beam="1">  1        2 0.13710395E+00 0.42753054E+03</pdfrwt>
<pdfrwt beam="2">  1       -2 0.31669646E-01 0.42753054E+03</pdfrwt>
<totfact> 0.28306162E+02</totfact>
</mgrwt>
</event>
<event>
 6    1  0.8938744E-004  0.4951729E+03  0.7818608E-02  0.1015047E+00
          2   -1    0    0  502    0  0.00000000000E+00  0.00000000000E+00  0.95554506987E+03  0.95554506987E+03  0.00000000000E+00 0.  1.
         -2   -1    0    0    0  501 -0.00000000000E+00 -0.00000000000E+00 -0.27290191497E+03  0.27290191497E+03  0.00000000000E+00 0. -1.
    9000007    2    1    2  502    0 -0.10709020716E+03 -0.27168711960E+03  0.49137047548E+03  0.69753508884E+03  0.39978500793E+03 0.  0.
    9000005    1    3    3    0    0  0.11721568523E+03 -0.11565357161E+03  0.39284210059E+02  0.16929121255E+03  0.99999687468E+00 0.  0.
          4    1    3    3  502    0 -0.22430589239E+03 -0.15603354798E+03  0.45208626542E+03  0.52824387629E+03  0.00000000000E+00 0.  1.
   -9000007    1    1    2    0  501  0.10709020716E+03  0.27168711960E+03  0.19127267942E+03  0.53091189600E+03  0.40000000000E+03 0. -1.
<mgrwt>
<rscale>  2 0.49517291E+03</rscale>
<asrwt>0</asrwt>
<pdfrwt beam="1">  1        2 0.14700693E+00 0.49517291E+03</pdfrwt>
<pdfrwt beam="2">  1       -2 0.41984910E-01 0.49517291E+03</pdfrwt>
<totfact> 0.14933910E+02</totfact>
</mgrwt>
</event>
<event>
 6    1  0.8938744E-004  0.4740661E+03  0.7818608E-02  0.1020779E+00
         -2   -1    0    0    0  501 -0.00000000000E+00  0.00000000000E+00  0.53221868147E+03  0.53221868147E+03  0.00000000000E+00 0. -1.
          2   -1    0    0  502    0  0.00000000000E+00 -0.00000000000E+00 -0.77430256859E+03  0.77430256859E+03  0.00000000000E+00 0.  1.
    9000007    2    1    2  502    0  0.15664813005E+02  0.25495145976E+03 -0.56144498694E+03  0.73447479628E+03  0.39873188963E+03 0.  0.
    9000005    1    3    3    0    0 -0.18506995592E+03  0.10179834790E+03 -0.18264142499E+03  0.27923589013E+03  0.99999687468E+00 0.  0.
          4    1    3    3  502    0  0.20073476892E+03  0.15315311186E+03 -0.37880356195E+03  0.45523890616E+03  0.00000000000E+00 0.  1.
   -9000007    1    1    2    0  501 -0.15664813005E+02 -0.25495145976E+03  0.31936109983E+03  0.57204645378E+03  0.40000000000E+03 0. -1.
<mgrwt>
<rscale>  2 0.47406605E+03</rscale>
<asrwt>0</asrwt>
<pdfrwt beam="1">  1        2 0.11912347E+00 0.47406605E+03</pdfrwt>
<pdfrwt beam="2">  1       -2 0.81879798E-01 0.47406605E+03</pdfrwt>
<totfact> 0.49128401E+01</totfact>
</mgrwt>
</event>
<event>
 6    1  0.8938744E-004  0.4669603E+03  0.7818608E-02  0.1022782E+00
          2   -1    0    0  502    0  0.00000000000E+00  0.00000000000E+00  0.82918254519E+03  0.82918254519E+03  0.00000000000E+00 0.  1.
         -2   -1    0    0    0  501 -0.00000000000E+00 -0.00000000000E+00 -0.28286317520E+03  0.28286317520E+03  0.00000000000E+00 0. -1.
    9000007    2    1    2  502    0  0.23822412322E+03 -0.35800211493E+02  0.42061707531E+03  0.62848243092E+03  0.40004881442E+03 0.  0.
    9000005    1    3    3    0    0  0.33162918303E+03 -0.13091702551E+02  0.19915156323E+03  0.38705510311E+03  0.99999687468E+00 0.  0.
          4    1    3    3  502    0 -0.93405059810E+02 -0.22708508942E+02  0.22146551208E+03  0.24142732782E+03  0.00000000000E+00 0.  1.
   -9000007    1    1    2    0  501 -0.23822412322E+03  0.35800211493E+02  0.12570229469E+03  0.48356328946E+03  0.40000000000E+03 0. -1.
<mgrwt>
<rscale>  2 0.46696029E+03</rscale>
<asrwt>0</asrwt>
<pdfrwt beam="1">  1        2 0.12756654E+00 0.46696029E+03</pdfrwt>
<pdfrwt beam="2">  1       -2 0.43517412E-01 0.46696029E+03</pdfrwt>
<totfact> 0.16943180E+02</totfact>
</mgrwt>
</event>
<event>
 6    1  0.8938744E-004  0.4063405E+03  0.7818608E-02  0.1041606E+00
         -2   -1    0    0    0  501 -0.00000000000E+00  0.00000000000E+00  0.19780894692E+03  0.19780894692E+03  0.00000000000E+00 0. -1.
          2   -1    0    0  502    0  0.00000000000E+00 -0.00000000000E+00 -0.10467822547E+04  0.10467822547E+04  0.00000000000E+00 0.  1.
    9000007    2    1    2  502    0 -0.63374995203E+02 -0.31634848708E+02 -0.14448456635E+03  0.43137441597E+03  0.40023860779E+03 0.  0.
    9000005    1    3    3    0    0 -0.21423136341E+03  0.54027884211E+02 -0.13216964118E+03  0.25745660486E+03  0.99999687468E+00 0.  0.
          4    1    3    3  502    0  0.15085636821E+03 -0.85662732919E+02 -0.12314925164E+02  0.17391781111E+03  0.00000000000E+00 0.  1.
   -9000007    1    1    2    0  501  0.63374995203E+02  0.31634848708E+02 -0.70448874146E+03  0.81321678568E+03  0.40000000000E+03 0.  1.
<mgrwt>
<rscale>  2 0.40634049E+03</rscale>
<asrwt>0</asrwt>
<pdfrwt beam="1">  1        2 0.16104342E+00 0.40634049E+03</pdfrwt>
<pdfrwt beam="2">  1       -2 0.30432146E-01 0.40634049E+03</pdfrwt>
<totfact> 0.24310503E+02</totfact>
</mgrwt>
</event>
<event>
 6    1  0.8938744E-004  0.4486646E+03  0.7818608E-02  0.1028121E+00
          1   -1    0    0  502    0  0.00000000000E+00  0.00000000000E+00  0.34897037284E+03  0.34897037284E+03  0.00000000000E+00 0. -1.
         -1   -1    0    0    0  501 -0.00000000000E+00 -0.00000000000E+00 -0.63071247465E+03  0.63071247465E+03  0.00000000000E+00 0.  1.
    9000007    2    1    2  502    0  0.11865314074E+03 -0.16470128091E+03 -0.28406242123E+03  0.53111795406E+03  0.40023710751E+03 0.  0.
    9000005    1    3    3    0    0  0.25629868657E+03 -0.42149895336E+02 -0.20356734285E+03  0.33000953545E+03  0.99999687468E+00 0.  0.
          4    1    3    3  502    0 -0.13764554583E+03 -0.12255138557E+03 -0.80495078379E+02  0.20110841861E+03  0.00000000000E+00 0.  1.
   -9000007    1    1    2    0  501 -0.11865314074E+03  0.16470128091E+03  0.23203194197E+01  0.44856489343E+03  0.40000000000E+03 0. -1.
<mgrwt>
<rscale>  2 0.44866461E+03</rscale>
<asrwt>0</asrwt>
<pdfrwt beam="1">  1        1 0.53687749E-01 0.44866461E+03</pdfrwt>
<pdfrwt beam="2">  1       -1 0.97032689E-01 0.44866461E+03</pdfrwt>
<totfact> 0.76760505E+01</totfact>
</mgrwt>
</event>
<event>
 6    1  0.8938744E-004  0.6918292E+03  0.7818608E-02  0.9731308E-01
          2   -1    0    0  502    0  0.00000000000E+00  0.00000000000E+00  0.12200970040E+04  0.12200970040E+04  0.00000000000E+00 0. -1.
         -2   -1    0    0    0  501 -0.00000000000E+00 -0.00000000000E+00 -0.43121766403E+03  0.43121766403E+03  0.00000000000E+00 0.  1.
    9000007    2    1    2  502    0 -0.41613595986E+03  0.37931624556E+03  0.14695123035E+03  0.70838219477E+03  0.40393157654E+03 0.  0.
    9000005    1    3    3    0    0 -0.20727196597E+03  0.26269135077E+03  0.27852398017E+03  0.43536768504E+03  0.99999687468E+00 0.  0.
          4    1    3    3  502    0 -0.20886399388E+03  0.11662489479E+03 -0.13157274982E+03  0.27301450973E+03  0.00000000000E+00 0.  1.
   -9000007    1    1    2    0  501  0.41613595986E+03 -0.37931624556E+03  0.64192810966E+03  0.94293247330E+03  0.40000000000E+03 0. -1.
<mgrwt>
<rscale>  2 0.69182924E+03</rscale>
<asrwt>0</asrwt>
<pdfrwt beam="1">  1        2 0.18770723E+00 0.69182924E+03</pdfrwt>
<pdfrwt beam="2">  1       -2 0.66341180E-01 0.69182924E+03</pdfrwt>
<totfact> 0.39440426E+01</totfact>
</mgrwt>
</event>
<event>
 6    1  0.8938744E-004  0.8660140E+03  0.7818608E-02  0.9469092E-01
         -2   -1    0    0    0  501 -0.00000000000E+00  0.00000000000E+00  0.10089569395E+04  0.10089569395E+04  0.00000000000E+00 0.  1.
          2   -1    0    0  502    0  0.00000000000E+00 -0.00000000000E+00 -0.74533642167E+03  0.74533642167E+03  0.00000000000E+00 0. -1.
    9000007    2    1    2  502    0  0.37137985013E+02 -0.76694510270E+03  0.17744133544E+03  0.88422964402E+03  0.40098954519E+03 0.  0.
    9000005    1    3    3    0    0 -0.13172743137E+03 -0.61472468655E+03  0.18933360543E+03  0.65657198430E+03  0.99999687468E+00 0.  0.
          4    1    3    3  502    0  0.16886541638E+03 -0.15222041616E+03 -0.11892269994E+02  0.22765765972E+03  0.00000000000E+00 0.  1.
   -9000007    1    1    2    0  501 -0.37137985013E+02  0.76694510270E+03  0.86179182427E+02  0.87006371719E+03  0.40000000000E+03 0. -1.
<mgrwt>
<rscale>  2 0.86601399E+03</rscale>
<asrwt>0</asrwt>
<pdfrwt beam="1">  1        2 0.11466714E+00 0.86601399E+03</pdfrwt>
<pdfrwt beam="2">  1       -2 0.15522414E+00 0.86601399E+03</pdfrwt>
<totfact> 0.10379639E+01</totfact>
</mgrwt>
</event>
<event>
 6    1  0.8938744E-004  0.5625121E+03  0.7818608E-02  0.9986387E-01
         -2   -1    0    0    0  501 -0.00000000000E+00  0.00000000000E+00  0.12735798335E+03  0.12735798335E+03  0.00000000000E+00 0.  1.
          2   -1    0    0  502    0  0.00000000000E+00 -0.00000000000E+00 -0.35770347519E+04  0.35770347519E+04  0.00000000000E+00 0. -1.
    9000007    2    1    2  502    0 -0.15262678366E+03 -0.36489710996E+03 -0.27484251492E+04  0.28053940314E+04  0.39993753820E+03 0.  0.
    9000005    1    3    3    0    0  0.11931641855E+03 -0.15049025510E+03 -0.14044528435E+04  0.14175233735E+04  0.99999687468E+00 0.  0.
          4    1    3    3  502    0 -0.27194320221E+03 -0.21440685486E+03 -0.13439723057E+04  0.13878706579E+04  0.00000000000E+00 0.  1.
   -9000007    1    1    2    0  501  0.15262678366E+03  0.36489710996E+03 -0.70125161932E+03  0.89899870386E+03  0.40000000000E+03 0.  1.
<mgrwt>
<rscale>  2 0.56251209E+03</rscale>
<asrwt>0</asrwt>
<pdfrwt beam="1">  1        2 0.55031299E+00 0.56251209E+03</pdfrwt>
<pdfrwt beam="2">  1       -2 0.19593538E-01 0.56251209E+03</pdfrwt>
<totfact> 0.17829590E+01</totfact>
</mgrwt>
</event>
<event>
 6    1  0.8938744E-004  0.4208400E+03  0.7818608E-02  0.1036793E+00
          2   -1    0    0  502    0  0.00000000000E+00  0.00000000000E+00  0.24060137562E+04  0.24060137562E+04  0.00000000000E+00 0. -1.
         -2   -1    0    0    0  501 -0.00000000000E+00 -0.00000000000E+00 -0.15503567943E+03  0.15503567943E+03  0.00000000000E+00 0.  1.
    9000007    2    1    2  502    0 -0.12586307441E+03 -0.16367976429E+02  0.20550033906E+04  0.20978912534E+04  0.40249143049E+03 0.  0.
    9000005    1    3    3    0    0 -0.13473667508E+03  0.14340828619E+03  0.16612432509E+04  0.16728568519E+04  0.99999687468E+00 0.  0.
          4    1    3    3  502    0  0.88736006687E+01 -0.15977626262E+03  0.39376013968E+03  0.42503440154E+03  0.00000000000E+00 0.  1.
   -9000007    1    1    2    0  501  0.12586307441E+03  0.16367976429E+02  0.19597468619E+03  0.46315818225E+03  0.40000000000E+03 0.  1.
<mgrwt>
<rscale>  2 0.42083997E+03</rscale>
<asrwt>0</asrwt>
<pdfrwt beam="1">  1        2 0.37015594E+00 0.42083997E+03</pdfrwt>
<pdfrwt beam="2">  1       -2 0.23851645E-01 0.42083997E+03</pdfrwt>
<totfact> 0.67433219E+01</totfact>
</mgrwt>
</event>
<event>
 6    1  0.8938744E-004  0.8490953E+03  0.7818608E-02  0.9491552E-01
          1   -1    0    0  502    0  0.00000000000E+00  0.00000000000E+00  0.18322126617E+04  0.18322126617E+04  0.00000000000E+00 0. -1.
         -1   -1    0    0    0  501 -0.00000000000E+00 -0.00000000000E+00 -0.43299100895E+03  0.43299100895E+03  0.00000000000E+00 0.  1.
    9000007    2    1    2  502    0  0.10698862043E+03 -0.74125994452E+03  0.35755435640E+03  0.92133476835E+03  0.40012468973E+03 0.  0.
    9000005    1    3    3    0    0 -0.51988806657E+02 -0.55492877540E+03  0.38121608355E+03  0.67525956797E+03  0.99999687468E+00 0.  0.
          4    1    3    3  502    0  0.15897742708E+03 -0.18633116912E+03 -0.23661727148E+02  0.24607520037E+03  0.00000000000E+00 0.  1.
   -9000007    1    1    2    0  501 -0.10698862043E+03  0.74125994452E+03  0.10416672963E+04  0.13438689023E+04  0.40000000000E+03 0. -1.
<mgrwt>
<rscale>  2 0.84909526E+03</rscale>
<asrwt>0</asrwt>
<pdfrwt beam="1">  1        1 0.28187887E+00 0.84909526E+03</pdfrwt>
<pdfrwt beam="2">  1       -1 0.66614002E-01 0.84909526E+03</pdfrwt>
<totfact> 0.90985871E+00</totfact>
</mgrwt>
</event>
<event>
 6    1  0.8938744E-004  0.5333425E+03  0.7818608E-02  0.1005425E+00
          2   -1    0    0  502    0  0.00000000000E+00  0.00000000000E+00  0.11684343117E+04  0.11684343117E+04  0.00000000000E+00 0.  1.
         -2   -1    0    0    0  501 -0.00000000000E+00 -0.00000000000E+00 -0.55505556545E+03  0.55505556545E+03  0.00000000000E+00 0. -1.
    9000007    2    1    2  502    0 -0.10922495409E+02  0.35293650963E+03 -0.33903944687E+03  0.63180132479E+03  0.39942669758E+03 0.  0.
    9000005    1    3    3    0    0  0.13012795353E+03  0.26160019675E+03 -0.48515848694E+02  0.29618024039E+03  0.99999687468E+00 0.  0.
          4    1    3    3  502    0 -0.14105044894E+03  0.91336312880E+02 -0.29052359818E+03  0.33562108440E+03  0.00000000000E+00 0.  1.
   -9000007    1    1    2    0  501  0.10922495409E+02 -0.35293650963E+03  0.95241819311E+03  0.10916885523E+04  0.40000000000E+03 0.  1.
<mgrwt>
<rscale>  2 0.53334251E+03</rscale>
<asrwt>0</asrwt>
<pdfrwt beam="1">  1        2 0.17975912E+00 0.53334251E+03</pdfrwt>
<pdfrwt beam="2">  1       -2 0.85393164E-01 0.53334251E+03</pdfrwt>
<totfact> 0.24697772E+01</totfact>
</mgrwt>
</event>
<event>
 6    1  0.8938744E-004  0.4626922E+03  0.7818608E-02  0.1024003E+00
         -1   -1    0    0    0  501 -0.00000000000E+00  0.00000000000E+00  0.92705892823E+02  0.92705892823E+02  0.00000000000E+00 0. -1.
          1   -1    0    0  502    0  0.00000000000E+00 -0.00000000000E+00 -0.33873202683E+04  0.33873202683E+04  0.00000000000E+00 0.  1.
    9000007    2    1    2  502    0  0.48553207254E+02  0.22729578725E+03 -0.66585774812E+03  0.81087232616E+03  0.40015821841E+03 0.  0.
    9000005    1    3    3    0    0 -0.89460451379E+02  0.19818637360E+03 -0.12264829184E+03  0.24964898262E+03  0.99999687468E+00 0.  0.
          4    1    3    3  502    0  0.13801365863E+03  0.29109413649E+02 -0.54320945629E+03  0.56122334354E+03  0.00000000000E+00 0.  1.
   -9000007    1    1    2    0  501 -0.48553207254E+02 -0.22729578725E+03 -0.26287566274E+04  0.26691538350E+04  0.40000000000E+03 0.  1.
<mgrwt>
<rscale>  2 0.46269221E+03</rscale>
<asrwt>0</asrwt>
<pdfrwt beam="1">  1        1 0.52112626E+00 0.46269221E+03</pdfrwt>
<pdfrwt beam="2">  1       -1 0.14262443E-01 0.46269221E+03</pdfrwt>
<totfact> 0.12443716E+01</totfact>
</mgrwt>
</event>
<event>
 6    1  0.8938744E-004  0.4517117E+03  0.7818608E-02  0.1027213E+00
          1   -1    0    0  502    0  0.00000000000E+00  0.00000000000E+00  0.11283757749E+04  0.11283757749E+04  0.00000000000E+00 0.  1.
         -1   -1    0    0    0  501 -0.00000000000E+00 -0.00000000000E+00 -0.20386846510E+03  0.20386846510E+03  0.00000000000E+00 0. -1.
    9000007    2    1    2  502    0 -0.20876725660E+03 -0.45903522332E+01  0.68662334490E+03  0.82215246444E+03  0.40109627056E+03 0.  0.
    9000005    1    3    3    0    0 -0.26570777381E+03  0.11996309068E+03  0.33106765469E+03  0.44113326350E+03  0.99999687468E+00 0.  0.
          4    1    3    3  502    0  0.56940517211E+02 -0.12455344292E+03  0.35555569021E+03  0.38101920094E+03  0.00000000000E+00 0.  1.
   -9000007    1    1    2    0  501  0.20876725660E+03  0.45903522332E+01  0.23788396493E+03  0.51009177560E+03  0.40000000000E+03 0. -1.
<mgrwt>
<rscale>  2 0.45171172E+03</rscale>
<asrwt>0</asrwt>
<pdfrwt beam="1">  1        1 0.17359627E+00 0.45171172E+03</pdfrwt>
<pdfrwt beam="2">  1       -1 0.31364380E-01 0.45171172E+03</pdfrwt>
<totfact> 0.11956500E+02</totfact>
</mgrwt>
</event>
<event>
 6    1  0.8938744E-004  0.4192936E+03  0.7818608E-02  0.1037296E+00
          1   -1    0    0  502    0  0.00000000000E+00  0.00000000000E+00  0.60806163272E+03  0.60806163272E+03  0.00000000000E+00 0. -1.
         -1   -1    0    0    0  501 -0.00000000000E+00 -0.00000000000E+00 -0.32293043381E+03  0.32293043381E+03  0.00000000000E+00 0.  1.
    9000007    2    1    2  502    0  0.46244469647E+01  0.12276532219E+03  0.29342796360E+03  0.51246901323E+03  0.40178577608E+03 0.  0.
    9000005    1    3    3    0    0 -0.31112026585E+02 -0.76504144059E+02  0.29874335353E+03  0.30995069532E+03  0.99999687468E+00 0.  0.
          4    1    3    3  502    0  0.35736473550E+02  0.19926946625E+03 -0.53153899308E+01  0.20251831791E+03  0.00000000000E+00 0.  1.
   -9000007    1    1    2    0  501 -0.46244469647E+01 -0.12276532219E+03 -0.82967646920E+01  0.41852305330E+03  0.40000000000E+03 0.  1.
<mgrwt>
<rscale>  2 0.41929364E+03</rscale>
<asrwt>0</asrwt>
<pdfrwt beam="1">  1        1 0.93547943E-01 0.41929364E+03</pdfrwt>
<pdfrwt beam="2">  1       -1 0.49681605E-01 0.41929364E+03</pdfrwt>
<totfact> 0.14239580E+02</totfact>
</mgrwt>
</event>
<event>
 6    1  0.8938744E-004  0.4960738E+03  0.7818608E-02  0.1014809E+00
          1   -1    0    0  502    0  0.00000000000E+00  0.00000000000E+00  0.37458374618E+03  0.37458374618E+03  0.00000000000E+00 0.  1.
         -1   -1    0    0    0  501 -0.00000000000E+00 -0.00000000000E+00 -0.67817802637E+03  0.67817802637E+03  0.00000000000E+00 0. -1.
    9000007    2    1    2  502    0  0.28122987053E+03 -0.84982974998E+02 -0.24482103727E+03  0.55299518683E+03  0.39944209875E+03 0.  0.
    9000005    1    3    3    0    0 -0.78091723280E+02  0.60457755778E+02 -0.88022183873E+01  0.99156121953E+02  0.99999687468E+00 0.  0.
          4    1    3    3  502    0  0.35932159381E+03 -0.14544073078E+03 -0.23601881888E+03  0.45383906488E+03  0.00000000000E+00 0.  1.
   -9000007    1    1    2    0  501 -0.28122987053E+03  0.84982974998E+02 -0.58773242928E+02  0.49976658572E+03  0.40000000000E+03 0. -1.
<mgrwt>
<rscale>  2 0.49607383E+03</rscale>
<asrwt>0</asrwt>
<pdfrwt beam="1">  1        1 0.57628269E-01 0.49607383E+03</pdfrwt>
<pdfrwt beam="2">  1       -1 0.10433508E+00 0.49607383E+03</pdfrwt>
<totfact> 0.59081976E+01</totfact>
</mgrwt>
</event>
<event>
 6    1  0.8938744E-004  0.4607344E+03  0.7818608E-02  0.1024568E+00
         -2   -1    0    0    0  501 -0.00000000000E+00  0.00000000000E+00  0.20678502400E+03  0.20678502400E+03  0.00000000000E+00 0.  1.
          2   -1    0    0  502    0  0.00000000000E+00 -0.00000000000E+00 -0.10423447793E+04  0.10423447793E+04  0.00000000000E+00 0. -1.
    9000007    2    1    2  502    0 -0.22785789177E+03  0.18979669677E+02 -0.49464722853E+03  0.67597991224E+03  0.39999189287E+03 0.  0.
    9000005    1    3    3    0    0 -0.27635500001E+03  0.15415987575E+03 -0.35683202611E+03  0.47693547590E+03  0.99999687468E+00 0.  0.
          4    1    3    3  502    0  0.48497108232E+02 -0.13518020607E+03 -0.13781520241E+03  0.19904443634E+03  0.00000000000E+00 0.  1.
   -9000007    1    1    2    0  501  0.22785789177E+03 -0.18979669677E+02 -0.34091252676E+03  0.57314989105E+03  0.40000000000E+03 0.  1.
<mgrwt>
<rscale>  2 0.46073442E+03</rscale>
<asrwt>0</asrwt>
<pdfrwt beam="1">  1        2 0.16036074E+00 0.46073442E+03</pdfrwt>
<pdfrwt beam="2">  1       -2 0.31813080E-01 0.46073442E+03</pdfrwt>
<totfact> 0.22417483E+02</totfact>
</mgrwt>
</event>
<event>
 6    1  0.8938744E-004  0.4092305E+03  0.7818608E-02  0.1040630E+00
         -2   -1    0    0    0  501 -0.00000000000E+00  0.00000000000E+00  0.93425480024E+02  0.93425480024E+02  0.00000000000E+00 0.  1.
          2   -1    0    0  502    0  0.00000000000E+00 -0.00000000000E+00 -0.18135961316E+04  0.18135961316E+04  0.00000000000E+00 0. -1.
    9000007    2    1    2  502    0 -0.73112951099E+02 -0.42705935335E+02 -0.75812966873E+03  0.86170244830E+03  0.40075081319E+03 0.  0.
    9000005    1    3    3    0    0 -0.18617281291E+03  0.72973010407E+02 -0.20903442686E+03  0.28927801182E+03  0.99999687468E+00 0.  0.
          4    1    3    3  502    0  0.11305986181E+03 -0.11567894574E+03 -0.54909524187E+03  0.57242443648E+03  0.00000000000E+00 0.  1.
   -9000007    1    1    2    0  501  0.73112951099E+02  0.42705935335E+02 -0.96204098287E+03  0.10453191633E+04  0.40000000000E+03 0.  1.
<mgrwt>
<rscale>  2 0.40923054E+03</rscale>
<asrwt>0</asrwt>
<pdfrwt beam="1">  1        2 0.27901480E+00 0.40923054E+03</pdfrwt>
<pdfrwt beam="2">  1       -2 0.14373150E-01 0.40923054E+03</pdfrwt>
<totfact> 0.33623654E+02</totfact>
</mgrwt>
</event>
<event>
 6    1  0.8938744E-004  0.5252591E+03  0.7818608E-02  0.1007388E+00
          1   -1    0    0  502    0  0.00000000000E+00  0.00000000000E+00  0.65650063971E+03  0.65650063971E+03  0.00000000000E+00 0.  1.
         -1   -1    0    0    0  501 -0.00000000000E+00 -0.00000000000E+00 -0.50744471010E+03  0.50744471010E+03  0.00000000000E+00 0. -1.
    9000007    2    1    2  502    0 -0.21661061051E+03  0.26242259126E+03  0.31577680726E+03  0.61296293263E+03  0.40027839286E+03 0.  0.
    9000005    1    3    3    0    0  0.10295133233E+03 -0.86282727138E+01  0.37342416597E+02  0.10985845434E+03  0.99999687468E+00 0.  0.
          4    1    3    3  502    0 -0.31956194284E+03  0.27105086398E+03  0.27843439067E+03  0.50310447829E+03  0.00000000000E+00 0.  1.
   -9000007    1    1    2    0  501  0.21661061051E+03 -0.26242259126E+03 -0.16672087766E+03  0.55098241718E+03  0.40000000000E+03 0. -1.
<mgrwt>
<rscale>  2 0.52525912E+03</rscale>
<asrwt>0</asrwt>
<pdfrwt beam="1">  1        1 0.10100010E+00 0.52525912E+03</pdfrwt>
<pdfrwt beam="2">  1       -1 0.78068417E-01 0.52525912E+03</pdfrwt>
<totfact> 0.51601748E+01</totfact>
</mgrwt>
</event>
<event>
 6    1  0.8938744E-004  0.5681201E+03  0.7818608E-02  0.9973847E-01
          2   -1    0    0  502    0  0.00000000000E+00  0.00000000000E+00  0.15307461658E+04  0.15307461658E+04  0.00000000000E+00 0.  1.
         -2   -1    0    0    0  501 -0.00000000000E+00 -0.00000000000E+00 -0.25304222165E+03  0.25304222165E+03  0.00000000000E+00 0. -1.
    9000007    2    1    2  502    0  0.20180786661E+03  0.34903988222E+03  0.27483454049E+03  0.63126841140E+03  0.40051283148E+03 0.  0.
    9000005    1    3    3    0    0 -0.26312724163E+02  0.11370693578E+03 -0.85117488176E+02  0.14445626841E+03  0.99999687468E+00 0.  0.
          4    1    3    3  502    0  0.22812059078E+03  0.23533294644E+03  0.35995202867E+03  0.48681214299E+03  0.00000000000E+00 0.  1.
   -9000007    1    1    2    0  501 -0.20180786661E+03 -0.34903988222E+03  0.10028694036E+04  0.11525199760E+04  0.40000000000E+03 0.  1.
<mgrwt>
<rscale>  2 0.56812010E+03</rscale>
<asrwt>0</asrwt>
<pdfrwt beam="1">  1        2 0.23549940E+00 0.56812010E+03</pdfrwt>
<pdfrwt beam="2">  1       -2 0.38929573E-01 0.56812010E+03</pdfrwt>
<totfact> 0.79168723E+01</totfact>
</mgrwt>
</event>
<event>
 6    1  0.8938744E-004  0.4038627E+03  0.7818608E-02  0.1042450E+00
         -2   -1    0    0    0  501 -0.00000000000E+00  0.00000000000E+00  0.29191179777E+03  0.29191179777E+03  0.00000000000E+00 0. -1.
          2   -1    0    0  502    0  0.00000000000E+00 -0.00000000000E+00 -0.56770198237E+03  0.56770198237E+03  0.00000000000E+00 0.  1.
    9000007    2    1    2  502    0 -0.58609837172E+02  0.87477709667E+01 -0.83750082499E+02  0.41196320511E+03  0.39898367076E+03 0.  0.
    9000005    1    3    3    0    0 -0.11783534504E+03 -0.16867008079E+03  0.30101782525E+01  0.20577858456E+03  0.99999687468E+00 0.  0.
          4    1    3    3  502    0  0.59225507872E+02  0.17741785176E+03 -0.86760260752E+02  0.20618462055E+03  0.00000000000E+00 0.  1.
   -9000007    1    1    2    0  501  0.58609837172E+02 -0.87477709667E+01 -0.19204010211E+03  0.44765057503E+03  0.40000000000E+03 0.  1.
<mgrwt>
<rscale>  2 0.40386274E+03</rscale>
<asrwt>0</asrwt>
<pdfrwt beam="1">  1        2 0.87338766E-01 0.40386274E+03</pdfrwt>
<pdfrwt beam="2">  1       -2 0.44909508E-01 0.40386274E+03</pdfrwt>
<totfact> 0.25565914E+02</totfact>
</mgrwt>
</event>
<event>
 6    1  0.8938744E-004  0.4419116E+03  0.7818608E-02  0.1030162E+00
         -1   -1    0    0    0  501 -0.00000000000E+00  0.00000000000E+00  0.55781632951E+03  0.55781632951E+03  0.00000000000E+00 0.  1.
          1   -1    0    0  502    0  0.00000000000E+00 -0.00000000000E+00 -0.40487727231E+03  0.40487727231E+03  0.00000000000E+00 0. -1.
    9000007    2    1    2  502    0  0.17029768395E+03  0.83761742370E+02 -0.10071848718E+03  0.45243927263E+03  0.39817050508E+03 0.  0.
    9000005    1    3    3    0    0  0.10738052603E+03 -0.15801057769E+03 -0.50644009212E+02  0.19764547983E+03  0.99999687468E+00 0.  0.
          4    1    3    3  502    0  0.62917157916E+02  0.24177232006E+03 -0.50074477966E+02  0.25479379280E+03  0.00000000000E+00 0.  1.
   -9000007    1    1    2    0  501 -0.17029768395E+03 -0.83761742370E+02  0.25365754437E+03  0.51025432919E+03  0.40000000000E+03 0.  1.
<mgrwt>
<rscale>  2 0.44191158E+03</rscale>
<asrwt>0</asrwt>
<pdfrwt beam="1">  1        1 0.62288811E-01 0.44191158E+03</pdfrwt>
<pdfrwt beam="2">  1       -1 0.85817897E-01 0.44191158E+03</pdfrwt>
<totfact> 0.82847918E+01</totfact>
</mgrwt>
</event>
<event>
 6    1  0.8938744E-004  0.4010683E+03  0.7818608E-02  0.1043410E+00
         -2   -1    0    0    0  501 -0.00000000000E+00  0.00000000000E+00  0.14982826775E+03  0.14982826775E+03  0.00000000000E+00 0.  1.
          2   -1    0    0  502    0  0.00000000000E+00 -0.00000000000E+00 -0.11154798000E+04  0.11154798000E+04  0.00000000000E+00 0. -1.
    9000007    2    1    2  502    0 -0.92820788034E+01 -0.18742608201E+02 -0.36084963159E+03  0.53989592187E+03  0.40104576732E+03 0.  0.
    9000005    1    3    3    0    0  0.13140903616E+03 -0.14870132492E+03 -0.11900028381E+03  0.23139249417E+03  0.99999687468E+00 0.  0.
          4    1    3    3  502    0 -0.14069111496E+03  0.12995871672E+03 -0.24184934777E+03  0.30850342769E+03  0.00000000000E+00 0.  1.
   -9000007    1    1    2    0  501  0.92820788034E+01  0.18742608201E+02 -0.60480190061E+03  0.72541214584E+03  0.40000000000E+03 0. -1.
<mgrwt>
<rscale>  2 0.40106826E+03</rscale>
<asrwt>0</asrwt>
<pdfrwt beam="1">  1        2 0.17161228E+00 0.40106826E+03</pdfrwt>
<pdfrwt beam="2">  1       -2 0.23050503E-01 0.40106826E+03</pdfrwt>
<totfact> 0.36468558E+02</totfact>
</mgrwt>
</event>
<event>
 6    1  0.8938744E-004  0.4146849E+03  0.7818608E-02  0.1038810E+00
         -2   -1    0    0    0  501 -0.00000000000E+00  0.00000000000E+00  0.10851959591E+03  0.10851959591E+03  0.00000000000E+00 0. -1.
          2   -1    0    0  502    0  0.00000000000E+00 -0.00000000000E+00 -0.31599697903E+04  0.31599697903E+04  0.00000000000E+00 0.  1.
    9000007    2    1    2  502    0  0.12809749189E+02 -0.11011051101E+03 -0.37111891372E+03  0.55620912995E+03  0.39918784276E+03 0.  0.
    9000005    1    3    3    0    0 -0.13211511701E+03  0.74820351372E+02 -0.53182064975E+02  0.16087828054E+03  0.99999687468E+00 0.  0.
          4    1    3    3  502    0  0.14492486620E+03 -0.18493086238E+03 -0.31793684874E+03  0.39533084941E+03  0.00000000000E+00 0.  1.
   -9000007    1    1    2    0  501 -0.12809749189E+02  0.11011051101E+03 -0.26803312806E+04  0.27122802562E+04  0.40000000000E+03 0.  1.
<mgrwt>
<rscale>  2 0.41468491E+03</rscale>
<asrwt>0</asrwt>
<pdfrwt beam="1">  1        2 0.48614923E+00 0.41468491E+03</pdfrwt>
<pdfrwt beam="2">  1       -2 0.16695321E-01 0.41468491E+03</pdfrwt>
<totfact> 0.45682257E+01</totfact>
</mgrwt>
</event>
<event>
 6    1  0.8938744E-004  0.4062275E+03  0.7818608E-02  0.1041644E+00
          2   -1    0    0  502    0  0.00000000000E+00  0.00000000000E+00  0.46173065186E+03  0.46173065186E+03  0.00000000000E+00 0. -1.
         -2   -1    0    0    0  501 -0.00000000000E+00 -0.00000000000E+00 -0.38385364344E+03  0.38385364344E+03  0.00000000000E+00 0.  1.
    9000007    2    1    2  502    0  0.24384339011E+02  0.66358141223E+02 -0.72057770278E+02  0.41259649321E+03  0.40005692727E+03 0.  0.
    9000005    1    3    3    0    0  0.16398705726E+03  0.11153850523E+03  0.68088826348E+02  0.20968948797E+03  0.99999687468E+00 0.  0.
          4    1    3    3  502    0 -0.13960271824E+03 -0.45180364007E+02 -0.14014659663E+03  0.20290700525E+03  0.00000000000E+00 0.  1.
   -9000007    1    1    2    0  501 -0.24384339011E+02 -0.66358141223E+02  0.14993477869E+03  0.43298780209E+03  0.40000000000E+03 0. -1.
<mgrwt>
<rscale>  2 0.40622749E+03</rscale>
<asrwt>0</asrwt>
<pdfrwt beam="1">  1        2 0.71035485E-01 0.40622749E+03</pdfrwt>
<pdfrwt beam="2">  1       -2 0.59054407E-01 0.40622749E+03</pdfrwt>
<totfact> 0.18585105E+02</totfact>
</mgrwt>
</event>
<event>
 6    1  0.8938744E-004  0.5663811E+03  0.7818608E-02  0.9977719E-01
         -1   -1    0    0    0  501 -0.00000000000E+00  0.00000000000E+00  0.27477718908E+03  0.27477718908E+03  0.00000000000E+00 0.  1.
          1   -1    0    0  502    0  0.00000000000E+00 -0.00000000000E+00 -0.14107941994E+04  0.14107941994E+04  0.00000000000E+00 0. -1.
    9000007    2    1    2  502    0 -0.99952631754E+02 -0.38914553265E+03 -0.21751794086E+03  0.60618947517E+03  0.39840538531E+03 0.  0.
    9000005    1    3    3    0    0  0.92504675529E+02  0.40713679939E+01 -0.13021049219E+03  0.15977942078E+03  0.99999687468E+00 0.  0.
          4    1    3    3  502    0 -0.19245730728E+03 -0.39321690064E+03 -0.87307448665E+02  0.44641005440E+03  0.00000000000E+00 0.  1.
   -9000007    1    1    2    0  501  0.99952631754E+02  0.38914553265E+03 -0.91849906951E+03  0.10793819133E+04  0.40000000000E+03 0. -1.
<mgrwt>
<rscale>  2 0.56638112E+03</rscale>
<asrwt>0</asrwt>
<pdfrwt beam="1">  1        1 0.21704526E+00 0.56638112E+03</pdfrwt>
<pdfrwt beam="2">  1       -1 0.42273413E-01 0.56638112E+03</pdfrwt>
<totfact> 0.43730003E+01</totfact>
</mgrwt>
</event>
<event>
 6    1  0.8938744E-004  0.7996106E+03  0.7818608E-02  0.9560581E-01
         -1   -1    0    0    0  501 -0.00000000000E+00  0.00000000000E+00  0.15168616957E+04  0.15168616957E+04  0.00000000000E+00 0.  1.
          1   -1    0    0  502    0  0.00000000000E+00 -0.00000000000E+00 -0.42290130233E+03  0.42290130233E+03  0.00000000000E+00 0. -1.
    9000007    2    1    2  502    0  0.51394433154E+02 -0.69045610945E+03  0.60255141456E+03  0.10012248735E+04  0.40001501624E+03 0.  0.
    9000005    1    3    3    0    0  0.97020199367E+02 -0.75838160643E+02 -0.20510720770E+02  0.12484404413E+03  0.99999687468E+00 0.  0.
          4    1    3    3  502    0 -0.45625766213E+02 -0.61461794881E+03  0.62306213533E+03  0.87638082933E+03  0.00000000000E+00 0.  1.
   -9000007    1    1    2    0  501 -0.51394433154E+02  0.69045610945E+03  0.49140897883E+03  0.93853812459E+03  0.40000000000E+03 0. -1.
<mgrwt>
<rscale>  2 0.79961055E+03</rscale>
<asrwt>0</asrwt>
<pdfrwt beam="1">  1        1 0.65061740E-01 0.79961055E+03</pdfrwt>
<pdfrwt beam="2">  1       -1 0.23336333E+00 0.79961055E+03</pdfrwt>
<totfact> 0.51480896E+00</totfact>
</mgrwt>
</event>
<event>
 6    1  0.8938744E-004  0.4381264E+03  0.7818608E-02  0.1031323E+00
         -1   -1    0    0    0  501 -0.00000000000E+00  0.00000000000E+00  0.40937394262E+03  0.40937394262E+03  0.00000000000E+00 0. -1.
          1   -1    0    0  502    0  0.00000000000E+00 -0.00000000000E+00 -0.47286469176E+03  0.47286469176E+03  0.00000000000E+00 0.  1.
    9000007    2    1    2  502    0  0.80582081817E+02 -0.16156294499E+03 -0.72086444623E+02  0.44329678961E+03  0.39839619863E+03 0.  0.
    9000005    1    3    3    0    0 -0.15355260934E+03 -0.12662801365E+03 -0.52035439389E+02  0.20572249420E+03  0.99999687468E+00 0.  0.
          4    1    3    3  502    0  0.23413469115E+03 -0.34934931337E+02 -0.20051005233E+02  0.23757429541E+03  0.00000000000E+00 0.  1.
   -9000007    1    1    2    0  501 -0.80582081817E+02  0.16156294499E+03  0.85956954780E+01  0.43894184476E+03  0.40000000000E+03 0. -1.
<mgrwt>
<rscale>  2 0.43812641E+03</rscale>
<asrwt>0</asrwt>
<pdfrwt beam="1">  1        1 0.72748414E-01 0.43812641E+03</pdfrwt>
<pdfrwt beam="2">  1       -1 0.62980607E-01 0.43812641E+03</pdfrwt>
<totfact> 0.12742332E+02</totfact>
</mgrwt>
</event>
<event>
 6    1  0.8938744E-004  0.4902415E+03  0.7818608E-02  0.1016358E+00
         -1   -1    0    0    0  501 -0.00000000000E+00  0.00000000000E+00  0.19968914324E+03  0.19968914324E+03  0.00000000000E+00 0.  1.
          1   -1    0    0  502    0  0.00000000000E+00 -0.00000000000E+00 -0.12757471383E+04  0.12757471383E+04  0.00000000000E+00 0. -1.
    9000007    2    1    2  502    0  0.16583705645E+03 -0.22989378174E+03 -0.71350267030E+03  0.86568268896E+03  0.39995921951E+03 0.  0.
    9000005    1    3    3    0    0  0.73110791001E+02 -0.15022776193E+03 -0.72395827420E+03  0.74298731550E+03  0.99999687468E+00 0.  0.
          4    1    3    3  502    0  0.92726265450E+02 -0.79666019806E+02  0.10455603900E+02  0.12269537346E+03  0.00000000000E+00 0.  1.
   -9000007    1    1    2    0  501 -0.16583705645E+03  0.22989378174E+03 -0.36255532480E+03  0.60975359262E+03  0.40000000000E+03 0. -1.
<mgrwt>
<rscale>  2 0.49024154E+03</rscale>
<asrwt>0</asrwt>
<pdfrwt beam="1">  1        1 0.19626879E+00 0.49024154E+03</pdfrwt>
<pdfrwt beam="2">  1       -1 0.30721406E-01 0.49024154E+03</pdfrwt>
<totfact> 0.96768622E+01</totfact>
</mgrwt>
</event>
<event>
 6    1  0.8938744E-004  0.4096166E+03  0.7818608E-02  0.1040500E+00
         -2   -1    0    0    0  501 -0.00000000000E+00  0.00000000000E+00  0.94057252813E+03  0.94057252813E+03  0.00000000000E+00 0. -1.
          2   -1    0    0  502    0  0.00000000000E+00 -0.00000000000E+00 -0.32537413199E+03  0.32537413199E+03  0.00000000000E+00 0.  1.
    9000007    2    1    2  502    0  0.80039921772E+02  0.30273656432E+02 -0.11760268017E+03  0.42670873153E+03  0.40115716101E+03 0.  0.
    9000005    1    3    3    0    0 -0.27973143646E+02  0.10358123905E+03  0.11667888785E+03  0.15851350956E+03  0.99999687468E+00 0.  0.
          4    1    3    3  502    0  0.10801306542E+03 -0.73307582613E+02 -0.23428156803E+03  0.26819522197E+03  0.00000000000E+00 0.  1.
   -9000007    1    1    2    0  501 -0.80039921772E+02 -0.30273656432E+02  0.73280107631E+03  0.83923792860E+03  0.40000000000E+03 0. -1.
<mgrwt>
<rscale>  2 0.40961662E+03</rscale>
<asrwt>0</asrwt>
<pdfrwt beam="1">  1        2 0.50057559E-01 0.40961662E+03</pdfrwt>
<pdfrwt beam="2">  1       -2 0.14470347E+00 0.40961662E+03</pdfrwt>
<totfact> 0.34465585E+01</totfact>
</mgrwt>
</event>
<event>
 6    1  0.8938744E-004  0.4858304E+03  0.7818608E-02  0.1017545E+00
          1   -1    0    0  502    0  0.00000000000E+00  0.00000000000E+00  0.12113922848E+04  0.12113922848E+04  0.00000000000E+00 0.  1.
         -1   -1    0    0    0  501 -0.00000000000E+00 -0.00000000000E+00 -0.19524857833E+03  0.19524857833E+03  0.00000000000E+00 0. -1.
    9000007    2    1    2  502    0  0.14277605047E+03  0.23597021862E+03  0.54009215572E+03  0.72642617377E+03  0.39991062076E+03 0.  0.
    9000005    1    3    3    0    0  0.16413403932E+03 -0.28109330229E+02  0.58016776671E+02  0.17634359552E+03  0.99999687468E+00 0.  0.
          4    1    3    3  502    0 -0.21357988855E+02  0.26407954884E+03  0.48207537905E+03  0.55008257825E+03  0.00000000000E+00 0.  1.
   -9000007    1    1    2    0  501 -0.14277605047E+03 -0.23597021862E+03  0.47605155074E+03  0.68021468936E+03  0.40000000000E+03 0. -1.
<mgrwt>
<rscale>  2 0.48583042E+03</rscale>
<asrwt>0</asrwt>
<pdfrwt beam="1">  1        1 0.18636804E+00 0.48583042E+03</pdfrwt>
<pdfrwt beam="2">  1       -1 0.30038244E-01 0.48583042E+03</pdfrwt>
<totfact> 0.11179196E+02</totfact>
</mgrwt>
</event>
<event>
 6    1  0.8938744E-004  0.4839852E+03  0.7818608E-02  0.1018046E+00
          3   -1    0    0  502    0  0.00000000000E+00  0.00000000000E+00  0.16760452476E+03  0.16760452476E+03  0.00000000000E+00 0.  1.
         -3   -1    0    0    0  501 -0.00000000000E+00 -0.00000000000E+00 -0.20330033507E+04  0.20330033507E+04  0.00000000000E+00 0. -1.
    9000007    2    1    2  502    0 -0.27224575952E+03  0.17802125931E+02 -0.15475743311E+04  0.16214299419E+04  0.39951730482E+03 0.  0.
    9000005    1    3    3    0    0 -0.31432774502E+03  0.13613053765E+03 -0.12924126297E+04  0.13370358485E+04  0.99999687468E+00 0.  0.
          4    1    3    3  502    0  0.42081985497E+02 -0.11832841172E+03 -0.25516170134E+03  0.28439409339E+03  0.00000000000E+00 0.  1.
   -9000007    1    1    2    0  501  0.27224575952E+03 -0.17802125931E+02 -0.31782449489E+03  0.57917793364E+03  0.40000000000E+03 0.  1.
<mgrwt>
<rscale>  2 0.48398515E+03</rscale>
<asrwt>0</asrwt>
<pdfrwt beam="1">  1        3 0.25785313E-01 0.48398515E+03</pdfrwt>
<pdfrwt beam="2">  1       -3 0.31276973E+00 0.48398515E+03</pdfrwt>
<totfact> 0.12745018E+00</totfact>
</mgrwt>
</event>
<event>
 6    1  0.8938744E-004  0.5188384E+03  0.7818608E-02  0.1008976E+00
          1   -1    0    0  502    0  0.00000000000E+00  0.00000000000E+00  0.17063585019E+04  0.17063585019E+04  0.00000000000E+00 0.  1.
         -1   -1    0    0    0  501 -0.00000000000E+00 -0.00000000000E+00 -0.18068331873E+03  0.18068331873E+03  0.00000000000E+00 0. -1.
    9000007    2    1    2  502    0 -0.15543049250E+03  0.28992460069E+03  0.11001249694E+04  0.12167374894E+04  0.40244286255E+03 0.  0.
    9000005    1    3    3    0    0  0.13583019552E+03  0.11066700326E+03  0.43167705606E+03  0.46587885587E+03  0.99999687468E+00 0.  0.
          4    1    3    3  502    0 -0.29126068803E+03  0.17925759743E+03  0.66844791335E+03  0.75085863349E+03  0.00000000000E+00 0.  1.
   -9000007    1    1    2    0  501  0.15543049250E+03 -0.28992460069E+03  0.42555021376E+03  0.67030433127E+03  0.40000000000E+03 0. -1.
<mgrwt>
<rscale>  2 0.51883837E+03</rscale>
<asrwt>0</asrwt>
<pdfrwt beam="1">  1        1 0.26251668E+00 0.51883837E+03</pdfrwt>
<pdfrwt beam="2">  1       -1 0.27797435E-01 0.51883837E+03</pdfrwt>
<totfact> 0.58356347E+01</totfact>
</mgrwt>
</event>
<event>
 6    1  0.8938744E-004  0.4944921E+03  0.7818608E-02  0.1015227E+00
         -1   -1    0    0    0  501 -0.00000000000E+00  0.00000000000E+00  0.36310800263E+03  0.36310800263E+03  0.00000000000E+00 0.  1.
          1   -1    0    0  502    0  0.00000000000E+00 -0.00000000000E+00 -0.68585870199E+03  0.68585870199E+03  0.00000000000E+00 0. -1.
    9000007    2    1    2  502    0  0.10506500960E+03 -0.27020045814E+03 -0.23217370529E+03  0.54672061386E+03  0.40118805611E+03 0.  0.
    9000005    1    3    3    0    0  0.93330741764E+02 -0.23621957102E+01 -0.26088846975E+03  0.27709204422E+03  0.99999687468E+00 0.  0.
          4    1    3    3  502    0  0.11734267839E+02 -0.26783826243E+03  0.28714764469E+02  0.26962856964E+03  0.00000000000E+00 0.  1.
   -9000007    1    1    2    0  501 -0.10506500960E+03  0.27020045814E+03 -0.90576994076E+02  0.50224609076E+03  0.40000000000E+03 0.  1.
<mgrwt>
<rscale>  2 0.49449207E+03</rscale>
<asrwt>0</asrwt>
<pdfrwt beam="1">  1        1 0.10551672E+00 0.49449207E+03</pdfrwt>
<pdfrwt beam="2">  1       -1 0.55862770E-01 0.49449207E+03</pdfrwt>
<totfact> 0.94956706E+01</totfact>
</mgrwt>
</event>
<event>
 6    1  0.8938744E-004  0.4343098E+03  0.7818608E-02  0.1032507E+00
          2   -1    0    0  502    0  0.00000000000E+00  0.00000000000E+00  0.10430464074E+04  0.10430464074E+04  0.00000000000E+00 0. -1.
         -2   -1    0    0    0  501 -0.00000000000E+00 -0.00000000000E+00 -0.37941192139E+03  0.37941192139E+03  0.00000000000E+00 0.  1.
    9000007    2    1    2  502    0  0.16171849343E+03  0.61622600155E+02  0.84579133722E+03  0.95009053309E+03  0.39668478542E+03 0.  0.
    9000005    1    3    3    0    0  0.15467844016E+03  0.20238084033E+03  0.33879817985E+03  0.42387336675E+03  0.99999687468E+00 0.  0.
          4    1    3    3  502    0  0.70400532785E+01 -0.14075824017E+03  0.50699315738E+03  0.52621716634E+03  0.00000000000E+00 0.  1.
   -9000007    1    1    2    0  501 -0.16171849343E+03 -0.61622600155E+02 -0.18215685121E+03  0.47236779570E+03  0.40000000000E+03 0.  1.
<mgrwt>
<rscale>  2 0.43430980E+03</rscale>
<asrwt>0</asrwt>
<pdfrwt beam="1">  1        2 0.16046868E+00 0.43430980E+03</pdfrwt>
<pdfrwt beam="2">  1       -2 0.58371065E-01 0.43430980E+03</pdfrwt>
<totfact> 0.68175749E+01</totfact>
</mgrwt>
</event>
<event>
 6    1  0.8938744E-004  0.5052777E+03  0.7818608E-02  0.1012410E+00
          4   -1    0    0  502    0  0.00000000000E+00  0.00000000000E+00  0.26403323809E+03  0.26403323809E+03  0.00000000000E+00 0.  1.
         -4   -1    0    0    0  501 -0.00000000000E+00 -0.00000000000E+00 -0.97617873474E+03  0.97617873474E+03  0.00000000000E+00 0. -1.
    9000007    2    1    2  502    0  0.63766523976E+02  0.30193514115E+03 -0.29581304982E+03  0.58556420087E+03  0.40018629893E+03 0.  0.
    9000005    1    3    3    0    0 -0.96208043061E+02  0.10375016382E+03 -0.29906540681E+03  0.33084921276E+03  0.99999687468E+00 0.  0.
          4    1    3    3  502    0  0.15997456704E+03  0.19818497733E+03  0.32523569936E+01  0.25471498810E+03  0.00000000000E+00 0.  1.
   -9000007    1    1    2    0  501 -0.63766523976E+02 -0.30193514115E+03 -0.41633244683E+03  0.65464777196E+03  0.40000000000E+03 0. -1.
<mgrwt>
<rscale>  2 0.50527767E+03</rscale>
<asrwt>0</asrwt>
<pdfrwt beam="1">  1        4 0.40620497E-01 0.50527767E+03</pdfrwt>
<pdfrwt beam="2">  1       -4 0.15018135E+00 0.50527767E+03</pdfrwt>
<totfact> 0.34416587E+00</totfact>
</mgrwt>
</event>
<event>
 6    1  0.8938744E-004  0.4107397E+03  0.7818608E-02  0.1040123E+00
         -1   -1    0    0    0  501 -0.00000000000E+00  0.00000000000E+00  0.95335946686E+03  0.95335946686E+03  0.00000000000E+00 0.  1.
          1   -1    0    0  502    0  0.00000000000E+00 -0.00000000000E+00 -0.23335695981E+03  0.23335695981E+03  0.00000000000E+00 0. -1.
    9000007    2    1    2  502    0  0.14996426551E+02  0.89447552496E+02  0.68695292849E+02  0.41702373167E+03  0.40120318052E+03 0.  0.
    9000005    1    3    3    0    0  0.56721353845E+02 -0.14593349239E+03  0.83629323756E+02  0.17750707019E+03  0.99999687468E+00 0.  0.
          4    1    3    3  502    0 -0.41724927294E+02  0.23538104488E+03 -0.14934030907E+02  0.23951666148E+03  0.00000000000E+00 0.  1.
   -9000007    1    1    2    0  501 -0.14996426551E+02 -0.89447552496E+02  0.65130721421E+03  0.76969269500E+03  0.40000000000E+03 0.  1.
<mgrwt>
<rscale>  2 0.41073966E+03</rscale>
<asrwt>0</asrwt>
<pdfrwt beam="1">  1        1 0.35901071E-01 0.41073966E+03</pdfrwt>
<pdfrwt beam="2">  1       -1 0.14667069E+00 0.41073966E+03</pdfrwt>
<totfact> 0.47633646E+01</totfact>
</mgrwt>
</event>
<event>
 6    1  0.8938744E-004  0.4244170E+03  0.7818608E-02  0.1035638E+00
         -2   -1    0    0    0  501 -0.00000000000E+00  0.00000000000E+00  0.50628860940E+03  0.50628860940E+03  0.00000000000E+00 0.  1.
          2   -1    0    0  502    0  0.00000000000E+00 -0.00000000000E+00 -0.42175858162E+03  0.42175858162E+03  0.00000000000E+00 0. -1.
    9000007    2    1    2  502    0  0.54326029526E+01  0.14251436251E+03 -0.14127986702E+03  0.44707945272E+03  0.39947487971E+03 0.  0.
    9000005    1    3    3    0    0 -0.14673207526E+03  0.52699887284E+02 -0.20648636048E+03  0.25873769939E+03  0.99999687468E+00 0.  0.
          4    1    3    3  502    0  0.15216467821E+03  0.89814475230E+02  0.65206493461E+02  0.18834175332E+03  0.00000000000E+00 0.  1.
   -9000007    1    1    2    0  501 -0.54326029526E+01 -0.14251436251E+03  0.22580989481E+03  0.48096773831E+03  0.40000000000E+03 0.  1.
<mgrwt>
<rscale>  2 0.42441704E+03</rscale>
<asrwt>0</asrwt>
<pdfrwt beam="1">  1        2 0.64885936E-01 0.42441704E+03</pdfrwt>
<pdfrwt beam="2">  1       -2 0.77890555E-01 0.42441704E+03</pdfrwt>
<totfact> 0.11328787E+02</totfact>
</mgrwt>
</event>
<event>
 6    1  0.8938744E-004  0.4200965E+03  0.7818608E-02  0.1037035E+00
         -4   -1    0    0    0  501 -0.00000000000E+00  0.00000000000E+00  0.19129399011E+03  0.19129399011E+03  0.00000000000E+00 0.  1.
          4   -1    0    0  502    0  0.00000000000E+00 -0.00000000000E+00 -0.95059898626E+03  0.95059898626E+03  0.00000000000E+00 0. -1.
    9000007    2    1    2  502    0  0.11699672296E+03  0.50976841314E+02 -0.47790368924E+03  0.63644904568E+03  0.40048543048E+03 0.  0.
    9000005    1    3    3    0    0  0.63103070873E+02  0.20742503945E+03 -0.39680073491E+03  0.45217139202E+03  0.99999687468E+00 0.  0.
          4    1    3    3  502    0  0.53893652085E+02 -0.15644819814E+03 -0.81102954326E+02  0.18427765366E+03  0.00000000000E+00 0.  1.
   -9000007    1    1    2    0  501 -0.11699672296E+03 -0.50976841314E+02 -0.28140130691E+03  0.50544393068E+03  0.40000000000E+03 0.  1.
<mgrwt>
<rscale>  2 0.42009648E+03</rscale>
<asrwt>0</asrwt>
<pdfrwt beam="1">  1        4 0.14624600E+00 0.42009648E+03</pdfrwt>
<pdfrwt beam="2">  1       -4 0.29429845E-01 0.42009648E+03</pdfrwt>
<totfact> 0.69217287E+00</totfact>
</mgrwt>
</event>
<event>
 6    1  0.8938744E-004  0.4640870E+03  0.7818608E-02  0.1023603E+00
          2   -1    0    0  502    0  0.00000000000E+00  0.00000000000E+00  0.91863074571E+03  0.91863074571E+03  0.00000000000E+00 0.  1.
         -2   -1    0    0    0  501 -0.00000000000E+00 -0.00000000000E+00 -0.23713487861E+03  0.23713487861E+03  0.00000000000E+00 0. -1.
    9000007    2    1    2  502    0 -0.13201423727E+03  0.19442572225E+03  0.40230618023E+03  0.61430833001E+03  0.40036900648E+03 0.  0.
    9000005    1    3    3    0    0  0.11059681932E+03 -0.47417726732E+02  0.84615176140E+02  0.14710820942E+03  0.99999687468E+00 0.  0.
          4    1    3    3  502    0 -0.24261105659E+03  0.24184344899E+03  0.31769100409E+03  0.46720012059E+03  0.00000000000E+00 0.  1.
   -9000007    1    1    2    0  501  0.13201423727E+03 -0.19442572225E+03  0.27918968687E+03  0.54145729432E+03  0.40000000000E+03 0.  1.
<mgrwt>
<rscale>  2 0.46408700E+03</rscale>
<asrwt>0</asrwt>
<pdfrwt beam="1">  1        2 0.14132781E+00 0.46408700E+03</pdfrwt>
<pdfrwt beam="2">  1       -2 0.36482290E-01 0.46408700E+03</pdfrwt>
<totfact> 0.20750526E+02</totfact>
</mgrwt>
</event>
<event>
 6    1  0.8938744E-004  0.4484356E+03  0.7818608E-02  0.1028190E+00
          1   -1    0    0  502    0  0.00000000000E+00  0.00000000000E+00  0.28460356856E+03  0.28460356856E+03  0.00000000000E+00 0.  1.
         -1   -1    0    0    0  501 -0.00000000000E+00 -0.00000000000E+00 -0.71729707760E+03  0.71729707760E+03  0.00000000000E+00 0. -1.
    9000007    2    1    2  502    0 -0.20021100160E+03 -0.36811664648E+02 -0.27740247730E+03  0.52697449574E+03  0.39913712046E+03 0.  0.
    9000005    1    3    3    0    0 -0.61482221335E+02  0.18013463589E+03 -0.11011963745E+03  0.21989971609E+03  0.99999687468E+00 0.  0.
          4    1    3    3  502    0 -0.13872878027E+03 -0.21694630054E+03 -0.16728283985E+03  0.30707477965E+03  0.00000000000E+00 0.  1.
   -9000007    1    1    2    0  501  0.20021100160E+03  0.36811664648E+02 -0.15529103174E+03  0.47492615042E+03  0.40000000000E+03 0.  1.
<mgrwt>
<rscale>  2 0.44843558E+03</rscale>
<asrwt>0</asrwt>
<pdfrwt beam="1">  1        1 0.43785164E-01 0.44843558E+03</pdfrwt>
<pdfrwt beam="2">  1       -1 0.11035340E+00 0.44843558E+03</pdfrwt>
<totfact> 0.74335694E+01</totfact>
</mgrwt>
</event>
<event>
 6    1  0.8938744E-004  0.4565952E+03  0.7818608E-02  0.1025773E+00
         -1   -1    0    0    0  501 -0.00000000000E+00  0.00000000000E+00  0.86589087318E+03  0.86589087318E+03  0.00000000000E+00 0.  1.
          1   -1    0    0  502    0  0.00000000000E+00 -0.00000000000E+00 -0.24077841193E+03  0.24077841193E+03  0.00000000000E+00 0. -1.
    9000007    2    1    2  502    0 -0.21822128042E+03 -0.45575888516E+02  0.31482738197E+03  0.55351964960E+03  0.39695092040E+03 0.  0.
    9000005    1    3    3    0    0  0.90197923563E+02 -0.13998522719E+02 -0.23868886175E+02  0.94352253679E+02  0.99999687468E+00 0.  0.
          4    1    3    3  502    0 -0.30841920398E+03 -0.31577365797E+02  0.33869626815E+03  0.45916739592E+03  0.00000000000E+00 0.  1.
   -9000007    1    1    2    0  501  0.21822128042E+03  0.45575888516E+02  0.31028507929E+03  0.55314963551E+03  0.40000000000E+03 0. -1.
<mgrwt>
<rscale>  2 0.45659519E+03</rscale>
<asrwt>0</asrwt>
<pdfrwt beam="1">  1        1 0.37042833E-01 0.45659519E+03</pdfrwt>
<pdfrwt beam="2">  1       -1 0.13321398E+00 0.45659519E+03</pdfrwt>
<totfact> 0.58271117E+01</totfact>
</mgrwt>
</event>
<event>
 6    1  0.8938744E-004  0.4256128E+03  0.7818608E-02  0.1035255E+00
         -2   -1    0    0    0  501 -0.00000000000E+00  0.00000000000E+00  0.72697811764E+02  0.72697811764E+02  0.00000000000E+00 0.  1.
          2   -1    0    0  502    0  0.00000000000E+00 -0.00000000000E+00 -0.25772936309E+04  0.25772936309E+04  0.00000000000E+00 0. -1.
    9000007    2    1    2  502    0  0.70285785089E+02  0.12650881251E+03 -0.14943361414E+04  0.15538303288E+04  0.40050420192E+03 0.  0.
    9000005    1    3    3    0    0  0.68685398948E+02  0.22243800595E+03 -0.14001889361E+04  0.14194105844E+04  0.99999687468E+00 0.  0.
          4    1    3    3  502    0  0.16003861410E+01 -0.95929193432E+02 -0.94147205374E+02  0.13441974434E+03  0.00000000000E+00 0.  1.
   -9000007    1    1    2    0  501 -0.70285785089E+02 -0.12650881251E+03 -0.10102596777E+04  0.10961611139E+04  0.40000000000E+03 0. -1.
<mgrwt>
<rscale>  2 0.42561281E+03</rscale>
<asrwt>0</asrwt>
<pdfrwt beam="1">  1        2 0.39650663E+00 0.42561281E+03</pdfrwt>
<pdfrwt beam="2">  1       -2 0.11184281E-01 0.42561281E+03</pdfrwt>
<totfact> 0.19505469E+02</totfact>
</mgrwt>
</event>
<event>
 6    1  0.8938744E-004  0.4135190E+03  0.7818608E-02  0.1039197E+00
          1   -1    0    0  502    0  0.00000000000E+00  0.00000000000E+00  0.17687773122E+03  0.17687773122E+03  0.00000000000E+00 0.  1.
         -1   -1    0    0    0  501 -0.00000000000E+00 -0.00000000000E+00 -0.12774406991E+04  0.12774406991E+04  0.00000000000E+00 0. -1.
    9000007    2    1    2  502    0 -0.10888807335E+03 -0.94753826128E+01 -0.19052904364E+03  0.45426436245E+03  0.39762846871E+03 0.  0.
    9000005    1    3    3    0    0 -0.51698814456E+02  0.10000398035E+03 -0.27997482260E+03  0.30176226534E+03  0.99999687468E+00 0.  0.
          4    1    3    3  502    0 -0.57189258893E+02 -0.10947936297E+03  0.89445778956E+02  0.15250209710E+03  0.00000000000E+00 0.  1.
   -9000007    1    1    2    0  501  0.10888807335E+03  0.94753826128E+01 -0.91003392429E+03  0.10000540679E+04  0.40000000000E+03 0. -1.
<mgrwt>
<rscale>  2 0.41351902E+03</rscale>
<asrwt>0</asrwt>
<pdfrwt beam="1">  1        1 0.27211959E-01 0.41351902E+03</pdfrwt>
<pdfrwt beam="2">  1       -1 0.19652933E+00 0.41351902E+03</pdfrwt>
<totfact> 0.29624733E+01</totfact>
</mgrwt>
</event>
<event>
 6    1  0.8938744E-004  0.4307288E+03  0.7818608E-02  0.1033630E+00
         -2   -1    0    0    0  501 -0.00000000000E+00  0.00000000000E+00  0.22671252150E+03  0.22671252150E+03  0.00000000000E+00 0.  1.
          2   -1    0    0  502    0  0.00000000000E+00 -0.00000000000E+00 -0.12239570018E+04  0.12239570018E+04  0.00000000000E+00 0. -1.
    9000007    2    1    2  502    0 -0.13999839255E+02 -0.15924537261E+03 -0.81041043984E+02  0.43825467705E+03  0.39993052766E+03 0.  0.
    9000005    1    3    3    0    0 -0.12525681820E+03 -0.21516822736E+03 -0.15514107262E+03  0.29335369262E+03  0.99999687468E+00 0.  0.
          4    1    3    3  502    0  0.11125697894E+03  0.55922854748E+02  0.74100028632E+02  0.14490098443E+03  0.00000000000E+00 0.  1.
   -9000007    1    1    2    0  501  0.13999839255E+02  0.15924537261E+03 -0.91620343631E+03  0.10124148462E+04  0.40000000000E+03 0. -1.
<mgrwt>
<rscale>  2 0.43072880E+03</rscale>
<asrwt>0</asrwt>
<pdfrwt beam="1">  1        2 0.18830108E+00 0.43072880E+03</pdfrwt>
<pdfrwt beam="2">  1       -2 0.34878849E-01 0.43072880E+03</pdfrwt>
<totfact> 0.14765639E+02</totfact>
</mgrwt>
</event>
<event>
 6    1  0.8938744E-004  0.4608947E+03  0.7818608E-02  0.1024522E+00
         -2   -1    0    0    0  501 -0.00000000000E+00  0.00000000000E+00  0.19573005965E+03  0.19573005965E+03  0.00000000000E+00 0.  1.
          2   -1    0    0  502    0  0.00000000000E+00 -0.00000000000E+00 -0.11091761030E+04  0.11091761030E+04  0.00000000000E+00 0. -1.
    9000007    2    1    2  502    0 -0.20722970495E+03  0.97553907377E+02 -0.36093841900E+03  0.58537465506E+03  0.39990752558E+03 0.  0.
    9000005    1    3    3    0    0 -0.13575396677E+03 -0.13115229572E+03 -0.54688278070E+02  0.19652448172E+03  0.99999687468E+00 0.  0.
          4    1    3    3  502    0 -0.71475738186E+02  0.22870620309E+03 -0.30625014093E+03  0.38885017334E+03  0.00000000000E+00 0.  1.
   -9000007    1    1    2    0  501  0.20722970495E+03 -0.97553907377E+02 -0.55250762434E+03  0.71953150759E+03  0.40000000000E+03 0. -1.
<mgrwt>
<rscale>  2 0.46089470E+03</rscale>
<asrwt>0</asrwt>
<pdfrwt beam="1">  1        2 0.17064248E+00 0.46089470E+03</pdfrwt>
<pdfrwt beam="2">  1       -2 0.30112316E-01 0.46089470E+03</pdfrwt>
<totfact> 0.22602372E+02</totfact>
</mgrwt>
</event>
<event>
 6    1  0.8938744E-004  0.4353203E+03  0.7818608E-02  0.1032192E+00
         -2   -1    0    0    0  501 -0.00000000000E+00  0.00000000000E+00  0.71685613427E+02  0.71685613427E+02  0.00000000000E+00 0.  1.
          2   -1    0    0  502    0  0.00000000000E+00 -0.00000000000E+00 -0.27305994017E+04  0.27305994017E+04  0.00000000000E+00 0. -1.
    9000007    2    1    2  502    0 -0.13421071964E+03  0.10586172516E+03 -0.15806076573E+04  0.16395454337E+04  0.40071116871E+03 0.  0.
    9000005    1    3    3    0    0 -0.70563243654E+02 -0.11399675236E+03 -0.20449358209E+03  0.24452618676E+03  0.99999687468E+00 0.  0.
          4    1    3    3  502    0 -0.63647475987E+02  0.21985847751E+03 -0.13761140752E+04  0.13950192469E+04  0.00000000000E+00 0.  1.
   -9000007    1    1    2    0  501  0.13421071964E+03 -0.10586172516E+03 -0.10783061309E+04  0.11627395814E+04  0.40000000000E+03 0. -1.
<mgrwt>
<rscale>  2 0.43532026E+03</rscale>
<asrwt>0</asrwt>
<pdfrwt beam="1">  1        2 0.42009215E+00 0.43532026E+03</pdfrwt>
<pdfrwt beam="2">  1       -2 0.11028558E-01 0.43532026E+03</pdfrwt>
<totfact> 0.16297567E+02</totfact>
</mgrwt>
</event>
<event>
 6    1  0.8938744E-004  0.4306069E+03  0.7818608E-02  0.1033668E+00
          2   -1    0    0  502    0  0.00000000000E+00  0.00000000000E+00  0.62442629369E+03  0.62442629369E+03  0.00000000000E+00 0. -1.
         -2   -1    0    0    0  501 -0.00000000000E+00 -0.00000000000E+00 -0.35958507057E+03  0.35958507057E+03  0.00000000000E+00 0.  1.
    9000007    2    1    2  502    0 -0.15899182952E+03 -0.12503818947E+02  0.33776183031E+03  0.54725953279E+03  0.39996899239E+03 0.  0.
    9000005    1    3    3    0    0  0.47113855465E+02  0.85150026592E+02  0.30087882103E+03  0.31622667083E+03  0.99999687468E+00 0.  0.
          4    1    3    3  502    0 -0.20610568498E+03 -0.97653845539E+02  0.36883009276E+02  0.23103286196E+03  0.00000000000E+00 0.  1.
   -9000007    1    1    2    0  501  0.15899182952E+03  0.12503818947E+02 -0.72920607183E+02  0.43675183147E+03  0.40000000000E+03 0.  1.
<mgrwt>
<rscale>  2 0.43060695E+03</rscale>
<asrwt>0</asrwt>
<pdfrwt beam="1">  1        2 0.96065584E-01 0.43060695E+03</pdfrwt>
<pdfrwt beam="2">  1       -2 0.55320780E-01 0.43060695E+03</pdfrwt>
<totfact> 0.14972256E+02</totfact>
</mgrwt>
</event>
<event>
 6    1  0.8938744E-004  0.4368529E+03  0.7818608E-02  0.1031717E+00
          1   -1    0    0  502    0  0.00000000000E+00  0.00000000000E+00  0.33142953381E+04  0.33142953381E+04  0.00000000000E+00 0. -1.
         -1   -1    0    0    0  501 -0.00000000000E+00 -0.00000000000E+00 -0.62726516621E+02  0.62726516621E+02  0.00000000000E+00 0.  1.
    9000007    2    1    2  502    0  0.10063688241E+03  0.14507471442E+03  0.21080841914E+04  0.21527949338E+04  0.39916489546E+03 0.  0.
    9000005    1    3    3    0    0  0.51603666704E+02  0.16521253882E+03  0.20894510129E+04  0.20966078929E+04  0.99999687468E+00 0.  0.
          4    1    3    3  502    0  0.49033215705E+02 -0.20137824393E+02  0.18633178524E+02  0.56187040815E+02  0.00000000000E+00 0.  1.
   -9000007    1    1    2    0  501 -0.10063688241E+03 -0.14507471442E+03  0.11434846301E+04  0.12242269210E+04  0.40000000000E+03 0. -1.
<mgrwt>
<rscale>  2 0.43685292E+03</rscale>
<asrwt>0</asrwt>
<pdfrwt beam="1">  1        1 0.50989145E+00 0.43685292E+03</pdfrwt>
<pdfrwt beam="2">  1       -1 0.96502359E-02 0.43685292E+03</pdfrwt>
<totfact> 0.26371760E+01</totfact>
</mgrwt>
</event>
<event>
 6    1  0.8938744E-004  0.4047361E+03  0.7818608E-02  0.1042152E+00
         -2   -1    0    0    0  501 -0.00000000000E+00  0.00000000000E+00  0.19639582512E+03  0.19639582512E+03  0.00000000000E+00 0. -1.
          2   -1    0    0  502    0  0.00000000000E+00 -0.00000000000E+00 -0.88331148498E+03  0.88331148498E+03  0.00000000000E+00 0.  1.
    9000007    2    1    2  502    0  0.94514162581E+02  0.17495986911E+01 -0.21129205139E+03  0.45109470686E+03  0.38717711135E+03 0.  0.
    9000005    1    3    3    0    0  0.18332141723E+03  0.11909982438E+03 -0.21114013838E+03  0.30392872225E+03  0.99999687468E+00 0.  0.
          4    1    3    3  502    0 -0.88807254647E+02 -0.11735022569E+03 -0.15191301408E+00  0.14716598461E+03  0.00000000000E+00 0.  1.
   -9000007    1    1    2    0  501 -0.94514162581E+02 -0.17495986911E+01 -0.47562360846E+03  0.62861260324E+03  0.40000000000E+03 0.  1.
<mgrwt>
<rscale>  2 0.40473611E+03</rscale>
<asrwt>0</asrwt>
<pdfrwt beam="1">  1        2 0.13589407E+00 0.40473611E+03</pdfrwt>
<pdfrwt beam="2">  1       -2 0.30214743E-01 0.40473611E+03</pdfrwt>
<totfact> 0.31305031E+02</totfact>
</mgrwt>
</event>
<event>
 6    1  0.8938744E-004  0.4154972E+03  0.7818608E-02  0.1038542E+00
         -2   -1    0    0    0  501 -0.00000000000E+00  0.00000000000E+00  0.10256719735E+04  0.10256719735E+04  0.00000000000E+00 0.  1.
          2   -1    0    0  502    0  0.00000000000E+00 -0.00000000000E+00 -0.16896240058E+03  0.16896240058E+03  0.00000000000E+00 0. -1.
    9000007    2    1    2  502    0 -0.65707300509E+02  0.86336227882E+02  0.46631742213E+03  0.62526856462E+03  0.40216594353E+03 0.  0.
    9000005    1    3    3    0    0  0.12646458964E+03 -0.76350099801E+02  0.91622986446E+02  0.17383440917E+03  0.99999687468E+00 0.  0.
          4    1    3    3  502    0 -0.19217189015E+03  0.16268632768E+03  0.37469443568E+03  0.45143415545E+03  0.00000000000E+00 0.  1.
   -9000007    1    1    2    0  501  0.65707300509E+02 -0.86336227882E+02  0.39039215080E+03  0.56936580947E+03  0.40000000000E+03 0. -1.
<mgrwt>
<rscale>  2 0.41549721E+03</rscale>
<asrwt>0</asrwt>
<pdfrwt beam="1">  1        2 0.25994216E-01 0.41549721E+03</pdfrwt>
<pdfrwt beam="2">  1       -2 0.15779568E+00 0.41549721E+03</pdfrwt>
<totfact> 0.56676369E+01</totfact>
</mgrwt>
</event>
<event>
 6    1  0.8938744E-004  0.4315549E+03  0.7818608E-02  0.1033370E+00
          2   -1    0    0  502    0  0.00000000000E+00  0.00000000000E+00  0.22409787331E+04  0.22409787331E+04  0.00000000000E+00 0.  1.
         -2   -1    0    0    0  501 -0.00000000000E+00 -0.00000000000E+00 -0.11310888552E+03  0.11310888552E+03  0.00000000000E+00 0. -1.
    9000007    2    1    2  502    0  0.27592217928E+02 -0.15881258278E+03  0.16706837551E+04  0.17255958604E+04  0.40064210593E+03 0.  0.
    9000005    1    3    3    0    0 -0.12583841303E+03 -0.55894266865E+02  0.13378997637E+04  0.13449670082E+04  0.99999687468E+00 0.  0.
          4    1    3    3  502    0  0.15343063096E+03 -0.10291831591E+03  0.33278399135E+03  0.38062885225E+03  0.00000000000E+00 0.  1.
   -9000007    1    1    2    0  501 -0.27592217928E+02  0.15881258278E+03  0.45718609245E+03  0.62849175815E+03  0.40000000000E+03 0. -1.
<mgrwt>
<rscale>  2 0.43155491E+03</rscale>
<asrwt>0</asrwt>
<pdfrwt beam="1">  1        2 0.34476593E+00 0.43155491E+03</pdfrwt>
<pdfrwt beam="2">  1       -2 0.17401369E-01 0.43155491E+03</pdfrwt>
<totfact> 0.14323134E+02</totfact>
</mgrwt>
</event>
<event>
 6    1  0.8938744E-004  0.4432295E+03  0.7818608E-02  0.1029761E+00
         -1   -1    0    0    0  501 -0.00000000000E+00  0.00000000000E+00  0.30867933369E+03  0.30867933369E+03  0.00000000000E+00 0. -1.
          1   -1    0    0  502    0  0.00000000000E+00 -0.00000000000E+00 -0.67382247504E+03  0.67382247504E+03  0.00000000000E+00 0.  1.
    9000007    2    1    2  502    0  0.35156012316E+02 -0.18763540852E+03 -0.29830168414E+03  0.53427109567E+03  0.40002339578E+03 0.  0.
    9000005    1    3    3    0    0  0.89192995459E+02  0.10540903281E+03 -0.51582294048E+02  0.14740484283E+03  0.99999687468E+00 0.  0.
          4    1    3    3  502    0 -0.54036983143E+02 -0.29304444132E+03 -0.24671939009E+03  0.38686625284E+03  0.00000000000E+00 0.  1.
   -9000007    1    1    2    0  501 -0.35156012316E+02  0.18763540852E+03 -0.66841457205E+02  0.44823071306E+03  0.40000000000E+03 0. -1.
<mgrwt>
<rscale>  2 0.44322946E+03</rscale>
<asrwt>0</asrwt>
<pdfrwt beam="1">  1        1 0.10366499E+00 0.44322946E+03</pdfrwt>
<pdfrwt beam="2">  1       -1 0.47489129E-01 0.44322946E+03</pdfrwt>
<totfact> 0.13320446E+02</totfact>
</mgrwt>
</event>
<event>
 6    1  0.8938744E-004  0.4929572E+03  0.7818608E-02  0.1015634E+00
         -2   -1    0    0    0  501 -0.00000000000E+00  0.00000000000E+00  0.18438160108E+03  0.18438160108E+03  0.00000000000E+00 0.  1.
          2   -1    0    0  502    0  0.00000000000E+00 -0.00000000000E+00 -0.14219652345E+04  0.14219652345E+04  0.00000000000E+00 0. -1.
    9000007    2    1    2  502    0 -0.25274582995E+03  0.14059076390E+03 -0.83525623177E+03  0.96954737297E+03  0.39840044963E+03 0.  0.
    9000005    1    3    3    0    0  0.19487988537E+02  0.81571244443E+02 -0.59738813425E+03  0.60324723999E+03  0.99999687468E+00 0.  0.
          4    1    3    3  502    0 -0.27223381848E+03  0.59019519455E+02 -0.23786809752E+03  0.36630013298E+03  0.00000000000E+00 0.  1.
   -9000007    1    1    2    0  501  0.25274582995E+03 -0.14059076390E+03 -0.40232740161E+03  0.63679946257E+03  0.40000000000E+03 0. -1.
<mgrwt>
<rscale>  2 0.49295724E+03</rscale>
<asrwt>0</asrwt>
<pdfrwt beam="1">  1        2 0.21876388E+00 0.49295724E+03</pdfrwt>
<pdfrwt beam="2">  1       -2 0.28366400E-01 0.49295724E+03</pdfrwt>
<totfact> 0.16624876E+02</totfact>
</mgrwt>
</event>
<event>
 6    1  0.8938744E-004  0.4357942E+03  0.7818608E-02  0.1032045E+00
         -2   -1    0    0    0  501 -0.00000000000E+00  0.00000000000E+00  0.10313313233E+03  0.10313313233E+03  0.00000000000E+00 0. -1.
          2   -1    0    0  502    0  0.00000000000E+00 -0.00000000000E+00 -0.18650391532E+04  0.18650391532E+04  0.00000000000E+00 0.  1.
    9000007    2    1    2  502    0 -0.16977795946E+03  0.37343328234E+02 -0.76963597854E+03  0.88428164686E+03  0.39924354952E+03 0.  0.
    9000005    1    3    3    0    0 -0.41629251402E+02  0.21000622383E+03 -0.30889362304E+03  0.37583490920E+03  0.99999687468E+00 0.  0.
          4    1    3    3  502    0 -0.12814870805E+03 -0.17266289560E+03 -0.46074235550E+03  0.50844673767E+03  0.00000000000E+00 0.  1.
   -9000007    1    1    2    0  501  0.16977795946E+03 -0.37343328234E+02 -0.99227004230E+03  0.10838906386E+04  0.40000000000E+03 0.  1.
<mgrwt>
<rscale>  2 0.43579415E+03</rscale>
<asrwt>0</asrwt>
<pdfrwt beam="1">  1        2 0.28692910E+00 0.43579415E+03</pdfrwt>
<pdfrwt beam="2">  1       -2 0.15866636E-01 0.43579415E+03</pdfrwt>
<totfact> 0.26651262E+02</totfact>
</mgrwt>
</event>
<event>
 6    1  0.8938744E-004  0.6017715E+03  0.7818608E-02  0.9901738E-01
         -2   -1    0    0    0  501 -0.00000000000E+00  0.00000000000E+00  0.24024465406E+03  0.24024465406E+03  0.00000000000E+00 0.  1.
          2   -1    0    0  502    0  0.00000000000E+00 -0.00000000000E+00 -0.18450590433E+04  0.18450590433E+04  0.00000000000E+00 0. -1.
    9000007    2    1    2  502    0  0.42799673680E+03  0.13834901680E+03 -0.12483159002E+04  0.13857232303E+04  0.39951799354E+03 0.  0.
    9000005    1    3    3    0    0  0.29568744417E+03 -0.48283193170E+02 -0.10176935958E+04  0.10608786860E+04  0.99999687468E+00 0.  0.
          4    1    3    3  502    0  0.13230929263E+03  0.18663220997E+03 -0.23062230443E+03  0.32484454438E+03  0.00000000000E+00 0.  1.
   -9000007    1    1    2    0  501 -0.42799673680E+03 -0.13834901680E+03 -0.35649848897E+03  0.69958046700E+03  0.40000000000E+03 0.  1.
<mgrwt>
<rscale>  2 0.60177148E+03</rscale>
<asrwt>0</asrwt>
<pdfrwt beam="1">  1        2 0.28385523E+00 0.60177148E+03</pdfrwt>
<pdfrwt beam="2">  1       -2 0.36960717E-01 0.60177148E+03</pdfrwt>
<totfact> 0.58751483E+01</totfact>
</mgrwt>
</event>
<event>
 6    1  0.8938744E-004  0.4141606E+03  0.7818608E-02  0.1038984E+00
          2   -1    0    0  502    0  0.00000000000E+00  0.00000000000E+00  0.66430122875E+03  0.66430122875E+03  0.00000000000E+00 0.  1.
         -2   -1    0    0    0  501 -0.00000000000E+00 -0.00000000000E+00 -0.45047760936E+03  0.45047760936E+03  0.00000000000E+00 0. -1.
    9000007    2    1    2  502    0 -0.10905340900E+03  0.85782470955E+01  0.47097920743E+03  0.62682881116E+03  0.39890689681E+03 0.  0.
    9000005    1    3    3    0    0 -0.71795981257E+02  0.16592418468E+03  0.68941501391E+02  0.19349270941E+03  0.99999687468E+00 0.  0.
          4    1    3    3  502    0 -0.37257427747E+02 -0.15734593759E+03  0.40203770604E+03  0.43333610174E+03  0.00000000000E+00 0.  1.
   -9000007    1    1    2    0  501  0.10905340900E+03 -0.85782470955E+01 -0.25715558804E+03  0.48795002695E+03  0.40000000000E+03 0. -1.
<mgrwt>
<rscale>  2 0.41416064E+03</rscale>
<asrwt>0</asrwt>
<pdfrwt beam="1">  1        2 0.10220019E+00 0.41416064E+03</pdfrwt>
<pdfrwt beam="2">  1       -2 0.69304247E-01 0.41416064E+03</pdfrwt>
<totfact> 0.86527903E+01</totfact>
</mgrwt>
</event>
<event>
 6    1  0.8938744E-004  0.6252720E+03  0.7818608E-02  0.9854319E-01
         -2   -1    0    0    0  501 -0.00000000000E+00  0.00000000000E+00  0.49298667768E+03  0.49298667768E+03  0.00000000000E+00 0. -1.
          2   -1    0    0  502    0  0.00000000000E+00 -0.00000000000E+00 -0.82878741526E+03  0.82878741526E+03  0.00000000000E+00 0.  1.
    9000007    2    1    2  502    0  0.79437344902E+02  0.47403176532E+03 -0.30661839075E+02  0.62598234702E+03  0.39987165954E+03 0.  0.
    9000005    1    3    3    0    0 -0.75266946658E+02  0.45379873155E+03  0.24097389615E+02  0.46063009693E+03  0.99999687468E+00 0.  0.
          4    1    3    3  502    0  0.15470429156E+03  0.20233033769E+02 -0.54759228690E+02  0.16535225009E+03  0.00000000000E+00 0.  1.
   -9000007    1    1    2    0  501 -0.79437344902E+02 -0.47403176532E+03 -0.30513889851E+03  0.69579174591E+03  0.40000000000E+03 0.  1.
<mgrwt>
<rscale>  2 0.62527200E+03</rscale>
<asrwt>0</asrwt>
<pdfrwt beam="1">  1        2 0.12750576E+00 0.62527200E+03</pdfrwt>
<pdfrwt beam="2">  1       -2 0.75844105E-01 0.62527200E+03</pdfrwt>
<totfact> 0.52438748E+01</totfact>
</mgrwt>
</event>
<event>
 6    1  0.8938744E-004  0.4189685E+03  0.7818608E-02  0.1037403E+00
          2   -1    0    0  502    0  0.00000000000E+00  0.00000000000E+00  0.37919738369E+03  0.37919738369E+03  0.00000000000E+00 0. -1.
         -2   -1    0    0    0  501 -0.00000000000E+00 -0.00000000000E+00 -0.68695852170E+03  0.68695852170E+03  0.00000000000E+00 0.  1.
    9000007    2    1    2  502    0  0.99367367250E+02 -0.76975278412E+02 -0.45823795486E+03  0.62068723133E+03  0.39933888955E+03 0.  0.
    9000005    1    3    3    0    0  0.45058271731E+02  0.11102446122E+03  0.27812812980E+01  0.11985580653E+03  0.99999687468E+00 0.  0.
          4    1    3    3  502    0  0.54309095519E+02 -0.18799973963E+03 -0.46101923616E+03  0.50083142480E+03  0.00000000000E+00 0.  1.
   -9000007    1    1    2    0  501 -0.99367367250E+02  0.76975278412E+02  0.15047681685E+03  0.44546867406E+03  0.40000000000E+03 0. -1.
<mgrwt>
<rscale>  2 0.41896855E+03</rscale>
<asrwt>0</asrwt>
<pdfrwt beam="1">  1        2 0.58338060E-01 0.41896855E+03</pdfrwt>
<pdfrwt beam="2">  1       -2 0.10568592E+00 0.41896855E+03</pdfrwt>
<totfact> 0.63312979E+01</totfact>
</mgrwt>
</event>
<event>
 6    1  0.8938744E-004  0.4997119E+03  0.7818608E-02  0.1013854E+00
          1   -1    0    0  502    0  0.00000000000E+00  0.00000000000E+00  0.86220187984E+03  0.86220187984E+03  0.00000000000E+00 0.  1.
         -1   -1    0    0    0  501 -0.00000000000E+00 -0.00000000000E+00 -0.34867961284E+03  0.34867961284E+03  0.00000000000E+00 0. -1.
    9000007    2    1    2  502    0 -0.12530249060E+03 -0.27178219082E+03  0.76514009859E+01  0.49991622877E+03  0.40036410735E+03 0.  0.
    9000005    1    3    3    0    0 -0.83777210487E+02 -0.13825360564E+03 -0.19525456665E+03  0.25349166902E+03  0.99999687468E+00 0.  0.
          4    1    3    3  502    0 -0.41525280115E+02 -0.13352858518E+03  0.20290596764E+03  0.24642455976E+03  0.00000000000E+00 0.  1.
   -9000007    1    1    2    0  501  0.12530249060E+03  0.27178219082E+03  0.50587086601E+03  0.71096526390E+03  0.40000000000E+03 0.  1.
<mgrwt>
<rscale>  2 0.49971186E+03</rscale>
<asrwt>0</asrwt>
<pdfrwt beam="1">  1        1 0.13264644E+00 0.49971186E+03</pdfrwt>
<pdfrwt beam="2">  1       -1 0.53643017E-01 0.49971186E+03</pdfrwt>
<totfact> 0.71901778E+01</totfact>
</mgrwt>
</event>
<event>
 6    1  0.8938744E-004  0.4913343E+03  0.7818608E-02  0.1016066E+00
         -2   -1    0    0    0  501 -0.00000000000E+00  0.00000000000E+00  0.18640730500E+03  0.18640730500E+03  0.00000000000E+00 0. -1.
          2   -1    0    0  502    0  0.00000000000E+00 -0.00000000000E+00 -0.13318150396E+04  0.13318150396E+04  0.00000000000E+00 0.  1.
    9000007    2    1    2  502    0  0.26012069266E+03  0.11826790069E+03 -0.69852670757E+03  0.85387851538E+03  0.39939815567E+03 0.  0.
    9000005    1    3    3    0    0  0.41891655178E+02 -0.80721626718E+02  0.47849942393E+01  0.91075726498E+02  0.99999687468E+00 0.  0.
          4    1    3    3  502    0  0.21822903749E+03  0.19898952741E+03 -0.70331170181E+03  0.76280278888E+03  0.00000000000E+00 0.  1.
   -9000007    1    1    2    0  501 -0.26012069266E+03 -0.11826790069E+03 -0.44688102700E+03  0.66434382919E+03  0.40000000000E+03 0.  1.
<mgrwt>
<rscale>  2 0.49133430E+03</rscale>
<asrwt>0</asrwt>
<pdfrwt beam="1">  1        2 0.20489461E+00 0.49133430E+03</pdfrwt>
<pdfrwt beam="2">  1       -2 0.28678049E-01 0.49133430E+03</pdfrwt>
<totfact> 0.18305817E+02</totfact>
</mgrwt>
</event>
<event>
 6    1  0.8938744E-004  0.7317874E+03  0.7818608E-02  0.9664364E-01
          2   -1    0    0  502    0  0.00000000000E+00  0.00000000000E+00  0.30264073251E+04  0.30264073251E+04  0.00000000000E+00 0. -1.
         -2   -1    0    0    0  501 -0.00000000000E+00 -0.00000000000E+00 -0.19531147495E+03  0.19531147495E+03  0.00000000000E+00 0.  1.
    9000007    2    1    2  502    0  0.46168372617E+03 -0.40296928421E+03  0.92156582466E+03  0.11767637821E+04  0.39994164918E+03 0.  0.
    9000005    1    3    3    0    0  0.58389373492E+02 -0.43574578732E+02 -0.32968209599E+02  0.79974781565E+02  0.99999687468E+00 0.  0.
          4    1    3    3  502    0  0.40329435268E+03 -0.35939470548E+03  0.95453403426E+03  0.10967890006E+04  0.00000000000E+00 0.  1.
   -9000007    1    1    2    0  501 -0.46168372617E+03  0.40296928421E+03  0.19095300255E+04  0.20449550179E+04  0.40000000000E+03 0. -1.
<mgrwt>
<rscale>  2 0.73178738E+03</rscale>
<asrwt>0</asrwt>
<pdfrwt beam="1">  1        2 0.46560109E+00 0.73178738E+03</pdfrwt>
<pdfrwt beam="2">  1       -2 0.30047921E-01 0.73178738E+03</pdfrwt>
<totfact> 0.18222349E+01</totfact>
</mgrwt>
</event>
<event>
 6    1  0.8938744E-004  0.5014747E+03  0.7818608E-02  0.1013395E+00
          2   -1    0    0  502    0  0.00000000000E+00  0.00000000000E+00  0.12945625341E+04  0.12945625341E+04  0.00000000000E+00 0.  1.
         -2   -1    0    0    0  501 -0.00000000000E+00 -0.00000000000E+00 -0.23174140749E+03  0.23174140749E+03  0.00000000000E+00 0. -1.
    9000007    2    1    2  502    0 -0.20876141434E+03 -0.21847024229E+03  0.22462829159E+03  0.54963726172E+03  0.40041562808E+03 0.  0.
    9000005    1    3    3    0    0  0.52241017016E+02 -0.11205418034E+03 -0.69850338190E+02  0.14200469333E+03  0.99999687468E+00 0.  0.
          4    1    3    3  502    0 -0.26100243136E+03 -0.10641606195E+03  0.29447862978E+03  0.40763256839E+03  0.00000000000E+00 0.  1.
   -9000007    1    1    2    0  501  0.20876141434E+03  0.21847024229E+03  0.83819283498E+03  0.97666667984E+03  0.40000000000E+03 0.  1.
<mgrwt>
<rscale>  2 0.50147468E+03</rscale>
<asrwt>0</asrwt>
<pdfrwt beam="1">  1        2 0.19916346E+00 0.50147468E+03</pdfrwt>
<pdfrwt beam="2">  1       -2 0.35652525E-01 0.50147468E+03</pdfrwt>
<totfact> 0.12795333E+02</totfact>
</mgrwt>
</event>
<event>
 6    1  0.8938744E-004  0.5894727E+03  0.7818608E-02  0.9927491E-01
          2   -1    0    0  502    0  0.00000000000E+00  0.00000000000E+00  0.28617769435E+04  0.28617769435E+04  0.00000000000E+00 0.  1.
         -2   -1    0    0    0  501 -0.00000000000E+00 -0.00000000000E+00 -0.56383409800E+03  0.56383409800E+03  0.00000000000E+00 0. -1.
    9000007    2    1    2  502    0  0.23728688572E+03  0.36230233201E+03 -0.36827402481E+03  0.69499198249E+03  0.39977500230E+03 0.  0.
    9000005    1    3    3    0    0 -0.28160885777E+02 -0.64892646687E+02 -0.10687616079E+03  0.12817021815E+03  0.99999687468E+00 0.  0.
          4    1    3    3  502    0  0.26544777150E+03  0.42719497870E+03 -0.26139786403E+03  0.56682176435E+03  0.00000000000E+00 0.  1.
   -9000007    1    1    2    0  501 -0.23728688572E+03 -0.36230233201E+03  0.26662168703E+04  0.27306190590E+04  0.40000000000E+03 0.  1.
<mgrwt>
<rscale>  2 0.58947270E+03</rscale>
<asrwt>0</asrwt>
<pdfrwt beam="1">  1        2 0.44027337E+00 0.58947270E+03</pdfrwt>
<pdfrwt beam="2">  1       -2 0.86743709E-01 0.58947270E+03</pdfrwt>
<totfact> 0.26884517E+00</totfact>
</mgrwt>
</event>
<event>
 6    1  0.8938744E-004  0.6385598E+03  0.7818608E-02  0.9828486E-01
          1   -1    0    0  502    0  0.00000000000E+00  0.00000000000E+00  0.25033058127E+04  0.25033058127E+04  0.00000000000E+00 0.  1.
         -1   -1    0    0    0  501 -0.00000000000E+00 -0.00000000000E+00 -0.16770539256E+03  0.16770539256E+03  0.00000000000E+00 0. -1.
    9000007    2    1    2  502    0  0.49688288503E+03  0.31709086917E+02  0.13939536911E+04  0.15332077820E+04  0.39965127586E+03 0.  0.
    9000005    1    3    3    0    0  0.26264983875E+03  0.45741949356E+02  0.25016278686E+03  0.36559497213E+03  0.99999687468E+00 0.  0.
          4    1    3    3  502    0  0.23423304628E+03 -0.14032862439E+02  0.11437909042E+04  0.11676128099E+04  0.00000000000E+00 0.  1.
   -9000007    1    1    2    0  501 -0.49688288503E+03 -0.31709086917E+02  0.94164672903E+03  0.11378034232E+04  0.40000000000E+03 0. -1.
<mgrwt>
<rscale>  2 0.63855980E+03</rscale>
<asrwt>0</asrwt>
<pdfrwt beam="1">  1        1 0.38512395E+00 0.63855980E+03</pdfrwt>
<pdfrwt beam="2">  1       -1 0.25800831E-01 0.63855980E+03</pdfrwt>
<totfact> 0.19080194E+01</totfact>
</mgrwt>
</event>
<event>
 6    1  0.8938744E-004  0.5439147E+03  0.7818608E-02  0.1002912E+00
         -2   -1    0    0    0  501 -0.00000000000E+00  0.00000000000E+00  0.20262470395E+03  0.20262470395E+03  0.00000000000E+00 0.  1.
          2   -1    0    0  502    0  0.00000000000E+00 -0.00000000000E+00 -0.16421264728E+04  0.16421264728E+04  0.00000000000E+00 0. -1.
    9000007    2    1    2  502    0  0.35674106339E+03 -0.93266661999E+02 -0.10267539179E+04  0.11618722380E+04  0.39970067916E+03 0.  0.
    9000005    1    3    3    0    0 -0.74708651675E+02  0.16778661973E+02 -0.29952280723E+03  0.30915662403E+03  0.99999687468E+00 0.  0.
          4    1    3    3  502    0  0.43144971507E+03 -0.11004532397E+03 -0.72723111064E+03  0.85271561393E+03  0.00000000000E+00 0.  1.
   -9000007    1    1    2    0  501 -0.35674106339E+03  0.93266661999E+02 -0.41274785098E+03  0.68287893879E+03  0.40000000000E+03 0.  1.
<mgrwt>
<rscale>  2 0.54391465E+03</rscale>
<asrwt>0</asrwt>
<pdfrwt beam="1">  1        2 0.25263484E+00 0.54391465E+03</pdfrwt>
<pdfrwt beam="2">  1       -2 0.31173032E-01 0.54391465E+03</pdfrwt>
<totfact> 0.10516162E+02</totfact>
</mgrwt>
</event>
<event>
 6    1  0.8938744E-004  0.6510801E+03  0.7818608E-02  0.9804755E-01
         -4   -1    0    0    0  501 -0.00000000000E+00  0.00000000000E+00  0.48587017356E+03  0.48587017356E+03  0.00000000000E+00 0. -1.
          4   -1    0    0  502    0  0.00000000000E+00 -0.00000000000E+00 -0.10842938952E+04  0.10842938952E+04  0.00000000000E+00 0.  1.
    9000007    2    1    2  502    0 -0.29124969080E+03  0.42312612461E+03 -0.64622682462E+03  0.91736453107E+03  0.40010807824E+03 0.  0.
    9000005    1    3    3    0    0 -0.21651029805E+03  0.47792234061E+03 -0.63544952123E+03  0.82406526855E+03  0.99999687468E+00 0.  0.
          4    1    3    3  502    0 -0.74739392757E+02 -0.54796215996E+02 -0.10777303396E+02  0.93299262514E+02  0.00000000000E+00 0.  1.
   -9000007    1    1    2    0  501  0.29124969080E+03 -0.42312612461E+03  0.47803103010E+02  0.65279953767E+03  0.40000000000E+03 0. -1.
<mgrwt>
<rscale>  2 0.65108013E+03</rscale>
<asrwt>0</asrwt>
<pdfrwt beam="1">  1        4 0.16681444E+00 0.65108013E+03</pdfrwt>
<pdfrwt beam="2">  1       -4 0.74749259E-01 0.65108013E+03</pdfrwt>
<totfact> 0.70829948E-01</totfact>
</mgrwt>
</event>
<event>
 6    1  0.8938744E-004  0.4889470E+03  0.7818608E-02  0.1016705E+00
         -2   -1    0    0    0  501 -0.00000000000E+00  0.00000000000E+00  0.17337200127E+03  0.17337200127E+03  0.00000000000E+00 0. -1.
          2   -1    0    0  502    0  0.00000000000E+00 -0.00000000000E+00 -0.14577598466E+04  0.14577598466E+04  0.00000000000E+00 0.  1.
    9000007    2    1    2  502    0  0.27880426512E+03  0.36133974743E+02 -0.45258925066E+03  0.66628658336E+03  0.40007911589E+03 0.  0.
    9000005    1    3    3    0    0 -0.10245573818E+02  0.84537453807E+02  0.39232798554E+02  0.93764414119E+02  0.99999687468E+00 0.  0.
          4    1    3    3  502    0  0.28904983894E+03 -0.48403479064E+02 -0.49182204922E+03  0.57252216924E+03  0.00000000000E+00 0.  1.
   -9000007    1    1    2    0  501 -0.27880426512E+03 -0.36133974743E+02 -0.83179859470E+03  0.96484526455E+03  0.40000000000E+03 0.  1.
<mgrwt>
<rscale>  2 0.48894696E+03</rscale>
<asrwt>0</asrwt>
<pdfrwt beam="1">  1        2 0.22427075E+00 0.48894696E+03</pdfrwt>
<pdfrwt beam="2">  1       -2 0.26672616E-01 0.48894696E+03</pdfrwt>
<totfact> 0.17773001E+02</totfact>
</mgrwt>
</event>
<event>
 6    1  0.8938744E-004  0.4025376E+03  0.7818608E-02  0.1042905E+00
          2   -1    0    0  502    0  0.00000000000E+00  0.00000000000E+00  0.15103312480E+04  0.15103312480E+04  0.00000000000E+00 0.  1.
         -2   -1    0    0    0  501 -0.00000000000E+00 -0.00000000000E+00 -0.10846091363E+03  0.10846091363E+03  0.00000000000E+00 0. -1.
    9000007    2    1    2  502    0  0.52001657377E+02  0.11243106287E+02  0.78348047455E+03  0.88039078126E+03  0.39801469057E+03 0.  0.
    9000005    1    3    3    0    0  0.16507697384E+03  0.11192620124E+03  0.64526904009E+03  0.67538952902E+03  0.99999687468E+00 0.  0.
          4    1    3    3  502    0 -0.11307531646E+03 -0.10068309496E+03  0.13821143446E+03  0.20500125224E+03  0.00000000000E+00 0.  1.
   -9000007    1    1    2    0  501 -0.52001657377E+02 -0.11243106287E+02  0.61838985984E+03  0.73840138039E+03  0.40000000000E+03 0.  1.
<mgrwt>
<rscale>  2 0.40253756E+03</rscale>
<asrwt>0</asrwt>
<pdfrwt beam="1">  1        2 0.23235864E+00 0.40253756E+03</pdfrwt>
<pdfrwt beam="2">  1       -2 0.16686295E-01 0.40253756E+03</pdfrwt>
<totfact> 0.38125161E+02</totfact>
</mgrwt>
</event>
<event>
 6    1  0.8938744E-004  0.4030501E+03  0.7818608E-02  0.1042729E+00
          2   -1    0    0  502    0  0.00000000000E+00  0.00000000000E+00  0.37493204138E+03  0.37493204138E+03  0.00000000000E+00 0. -1.
         -2   -1    0    0    0  501 -0.00000000000E+00 -0.00000000000E+00 -0.47148108487E+03  0.47148108487E+03  0.00000000000E+00 0.  1.
    9000007    2    1    2  502    0 -0.60608741616E+02 -0.13774037266E+02  0.72373085474E+02  0.40778135664E+03  0.39646516576E+03 0.  0.
    9000005    1    3    3    0    0  0.13689643028E+03  0.10314442061E+03  0.22138786892E+02  0.17283092895E+03  0.99999687468E+00 0.  0.
          4    1    3    3  502    0 -0.19750517189E+03 -0.11691845787E+03  0.50234298581E+02  0.23495042768E+03  0.00000000000E+00 0.  1.
   -9000007    1    1    2    0  501  0.60608741616E+02  0.13774037266E+02 -0.16892212896E+03  0.43863176962E+03  0.40000000000E+03 0.  1.
<mgrwt>
<rscale>  2 0.40305007E+03</rscale>
<asrwt>0</asrwt>
<pdfrwt beam="1">  1        2 0.57681852E-01 0.40305007E+03</pdfrwt>
<pdfrwt beam="2">  1       -2 0.72535552E-01 0.40305007E+03</pdfrwt>
<totfact> 0.15117463E+02</totfact>
</mgrwt>
</event>
<event>
 6    1  0.8938744E-004  0.4416791E+03  0.7818608E-02  0.1030233E+00
          2   -1    0    0  502    0  0.00000000000E+00  0.00000000000E+00  0.15461374311E+04  0.15461374311E+04  0.00000000000E+00 0.  1.
         -2   -1    0    0    0  501 -0.00000000000E+00 -0.00000000000E+00 -0.23633337560E+03  0.23633337560E+03  0.00000000000E+00 0. -1.
    9000007    2    1    2  502    0  0.69151105322E+02 -0.17308883901E+03  0.12636810080E+04  0.13387716327E+04  0.40084681979E+03 0.  0.
    9000005    1    3    3    0    0  0.45098204142E+02 -0.29620397865E+03  0.70223497019E+03  0.76348254619E+03  0.99999687468E+00 0.  0.
          4    1    3    3  502    0  0.24052901180E+02  0.12311513964E+03  0.56144603781E+03  0.57528908649E+03  0.00000000000E+00 0.  1.
   -9000007    1    1    2    0  501 -0.69151105322E+02  0.17308883901E+03  0.46123047557E+02  0.44369917407E+03  0.40000000000E+03 0. -1.
<mgrwt>
<rscale>  2 0.44167908E+03</rscale>
<asrwt>0</asrwt>
<pdfrwt beam="1">  1        2 0.23786729E+00 0.44167908E+03</pdfrwt>
<pdfrwt beam="2">  1       -2 0.36358982E-01 0.44167908E+03</pdfrwt>
<totfact> 0.90126233E+01</totfact>
</mgrwt>
</event>
<event>
 6    1  0.8938744E-004  0.4067691E+03  0.7818608E-02  0.1041461E+00
         -2   -1    0    0    0  501 -0.00000000000E+00  0.00000000000E+00  0.17032454236E+03  0.17032454236E+03  0.00000000000E+00 0.  1.
          2   -1    0    0  502    0  0.00000000000E+00 -0.00000000000E+00 -0.15371592921E+04  0.15371592921E+04  0.00000000000E+00 0. -1.
    9000007    2    1    2  502    0  0.51710045146E+02  0.50659306295E+02 -0.12016286906E+04  0.12686976268E+04  0.40055194913E+03 0.  0.
    9000005    1    3    3    0    0 -0.16291946468E+03 -0.30757287695E+02 -0.65847140071E+03  0.67902455645E+03  0.99999687468E+00 0.  0.
          4    1    3    3  502    0  0.21462950983E+03  0.81416593990E+02 -0.54315728992E+03  0.58967307032E+03  0.00000000000E+00 0.  1.
   -9000007    1    1    2    0  501 -0.51710045146E+02 -0.50659306295E+02 -0.16520605909E+03  0.43878620767E+03  0.40000000000E+03 0.  1.
<mgrwt>
<rscale>  2 0.40676907E+03</rscale>
<asrwt>0</asrwt>
<pdfrwt beam="1">  1        2 0.23648604E+00 0.40676907E+03</pdfrwt>
<pdfrwt beam="2">  1       -2 0.26203776E-01 0.40676907E+03</pdfrwt>
<totfact> 0.16784098E+02</totfact>
</mgrwt>
</event>
<event>
 6    1  0.8938744E-004  0.4531916E+03  0.7818608E-02  0.1026775E+00
         -2   -1    0    0    0  501 -0.00000000000E+00  0.00000000000E+00  0.16672919120E+03  0.16672919120E+03  0.00000000000E+00 0. -1.
          2   -1    0    0  502    0  0.00000000000E+00 -0.00000000000E+00 -0.21331421022E+04  0.21331421022E+04  0.00000000000E+00 0.  1.
    9000007    2    1    2  502    0  0.20991383620E+03 -0.39743453059E+02 -0.17303274011E+04  0.17886181969E+04  0.39934794176E+03 0.  0.
    9000005    1    3    3    0    0 -0.82009657439E+02 -0.35451939030E+02 -0.97092444599E+03  0.97502702717E+03  0.99999687468E+00 0.  0.
          4    1    3    3  502    0  0.29192349364E+03 -0.42915140293E+01 -0.75940295511E+03  0.81359116973E+03  0.00000000000E+00 0.  1.
   -9000007    1    1    2    0  501 -0.20991383620E+03  0.39743453059E+02 -0.23608550988E+03  0.51125309648E+03  0.40000000000E+03 0. -1.
<mgrwt>
<rscale>  2 0.45319155E+03</rscale>
<asrwt>0</asrwt>
<pdfrwt beam="1">  1        2 0.32817568E+00 0.45319155E+03</pdfrwt>
<pdfrwt beam="2">  1       -2 0.25650647E-01 0.45319155E+03</pdfrwt>
<totfact> 0.82835767E+01</totfact>
</mgrwt>
</event>
<event>
 6    1  0.8938744E-004  0.4348678E+03  0.7818608E-02  0.1032333E+00
          2   -1    0    0  502    0  0.00000000000E+00  0.00000000000E+00  0.25478228621E+04  0.25478228621E+04  0.00000000000E+00 0. -1.
         -2   -1    0    0    0  501 -0.00000000000E+00 -0.00000000000E+00 -0.10451308441E+03  0.10451308441E+03  0.00000000000E+00 0.  1.
    9000007    2    1    2  502    0  0.13915338223E+03  0.97467431345E+02  0.50829155796E+03  0.66911657522E+03  0.40061592502E+03 0.  0.
    9000005    1    3    3    0    0  0.10860948956E+03  0.19717551268E+03  0.51758721605E+03  0.56442158909E+03  0.99999687468E+00 0.  0.
          4    1    3    3  502    0  0.30543892669E+02 -0.99708081330E+02 -0.92956580855E+01  0.10469498613E+03  0.00000000000E+00 0.  1.
   -9000007    1    1    2    0  501 -0.13915338223E+03 -0.97467431345E+02  0.19350182197E+04  0.19832193713E+04  0.40000000000E+03 0. -1.
<mgrwt>
<rscale>  2 0.43486775E+03</rscale>
<asrwt>0</asrwt>
<pdfrwt beam="1">  1        2 0.39197270E+00 0.43486775E+03</pdfrwt>
<pdfrwt beam="2">  1       -2 0.16078938E-01 0.43486775E+03</pdfrwt>
<totfact> 0.11089157E+02</totfact>
</mgrwt>
</event>
<event>
 6    1  0.8938744E-004  0.6181651E+03  0.7818608E-02  0.9868420E-01
         -1   -1    0    0    0  501 -0.00000000000E+00  0.00000000000E+00  0.46741943762E+03  0.46741943762E+03  0.00000000000E+00 0.  1.
          1   -1    0    0  502    0  0.00000000000E+00 -0.00000000000E+00 -0.13750472453E+04  0.13750472453E+04  0.00000000000E+00 0. -1.
    9000007    2    1    2  502    0 -0.79926034726E+02 -0.46441363131E+03 -0.10404337249E+04  0.12102439345E+04  0.40014978842E+03 0.  0.
    9000005    1    3    3    0    0 -0.12004663603E+03 -0.28774767141E+03 -0.96479535827E+03  0.10139235674E+04  0.99999687468E+00 0.  0.
          4    1    3    3  502    0  0.40120601305E+02 -0.17666595991E+03 -0.75638366639E+02  0.19632036712E+03  0.00000000000E+00 0.  1.
   -9000007    1    1    2    0  501  0.79926034726E+02  0.46441363131E+03  0.13280591719E+03  0.63222274842E+03  0.40000000000E+03 0.  1.
<mgrwt>
<rscale>  2 0.61816512E+03</rscale>
<asrwt>0</asrwt>
<pdfrwt beam="1">  1        1 0.21154573E+00 0.61816512E+03</pdfrwt>
<pdfrwt beam="2">  1       -1 0.71910683E-01 0.61816512E+03</pdfrwt>
<totfact> 0.16469148E+01</totfact>
</mgrwt>
</event>
<event>
 6    1  0.8938744E-004  0.4265571E+03  0.7818608E-02  0.1034953E+00
          1   -1    0    0  502    0  0.00000000000E+00  0.00000000000E+00  0.23177333595E+04  0.23177333595E+04  0.00000000000E+00 0. -1.
         -1   -1    0    0    0  501 -0.00000000000E+00 -0.00000000000E+00 -0.10932176538E+03  0.10932176538E+03  0.00000000000E+00 0.  1.
    9000007    2    1    2  502    0  0.37930198164E+02  0.14407415826E+03  0.17479864152E+04  0.17992116664E+04  0.39938709243E+03 0.  0.
    9000005    1    3    3    0    0 -0.19373550182E+02 -0.23252222006E+02  0.14662314181E+04  0.14665440913E+04  0.99999687468E+00 0.  0.
          4    1    3    3  502    0  0.57303748347E+02  0.16732638027E+03  0.28175499712E+03  0.33266757508E+03  0.00000000000E+00 0.  1.
   -9000007    1    1    2    0  501 -0.37930198164E+02 -0.14407415826E+03  0.46042517887E+03  0.62784345848E+03  0.40000000000E+03 0.  1.
<mgrwt>
<rscale>  2 0.42655706E+03</rscale>
<asrwt>0</asrwt>
<pdfrwt beam="1">  1        1 0.35657433E+00 0.42655706E+03</pdfrwt>
<pdfrwt beam="2">  1       -1 0.16818735E-01 0.42655706E+03</pdfrwt>
<totfact> 0.53979521E+01</totfact>
</mgrwt>
</event>
<event>
 6    1  0.8938744E-004  0.5354711E+03  0.7818608E-02  0.1004914E+00
          1   -1    0    0  502    0  0.00000000000E+00  0.00000000000E+00  0.31571760791E+04  0.31571760791E+04  0.00000000000E+00 0. -1.
         -1   -1    0    0    0  501 -0.00000000000E+00 -0.00000000000E+00 -0.91577298721E+02  0.91577298721E+02  0.00000000000E+00 0.  1.
    9000007    2    1    2  502    0 -0.28515260598E+03 -0.21309102144E+03  0.13849411340E+04  0.14848571460E+04  0.40002375857E+03 0.  0.
    9000005    1    3    3    0    0 -0.45414454634E+02  0.63970988660E+02  0.34699217317E+02  0.85789251984E+02  0.99999687468E+00 0.  0.
          4    1    3    3  502    0 -0.23973815135E+03 -0.27706201010E+03  0.13502419166E+04  0.13990678940E+04  0.00000000000E+00 0.  1.
   -9000007    1    1    2    0  501  0.28515260598E+03  0.21309102144E+03  0.16806576464E+04  0.17638962318E+04  0.40000000000E+03 0. -1.
<mgrwt>
<rscale>  2 0.53547110E+03</rscale>
<asrwt>0</asrwt>
<pdfrwt beam="1">  1        1 0.48571931E+00 0.53547110E+03</pdfrwt>
<pdfrwt beam="2">  1       -1 0.14088818E-01 0.53547110E+03</pdfrwt>
<totfact> 0.18434761E+01</totfact>
</mgrwt>
</event>
<event>
 6    1  0.8938744E-004  0.4102974E+03  0.7818608E-02  0.1040271E+00
         -1   -1    0    0    0  501 -0.00000000000E+00  0.00000000000E+00  0.30593997809E+03  0.30593997809E+03  0.00000000000E+00 0. -1.
          1   -1    0    0  502    0  0.00000000000E+00 -0.00000000000E+00 -0.60953928520E+03  0.60953928520E+03  0.00000000000E+00 0.  1.
    9000007    2    1    2  502    0  0.85855774763E+02 -0.28275145828E+02 -0.91124069593E+01  0.41060974322E+03  0.40043304976E+03 0.  0.
    9000005    1    3    3    0    0 -0.14260001497E+03 -0.88619379588E+02  0.31579844449E+02  0.17084040879E+03  0.99999687468E+00 0.  0.
          4    1    3    3  502    0  0.22845578973E+03  0.60344233759E+02 -0.40692251408E+02  0.23976933443E+03  0.00000000000E+00 0.  1.
   -9000007    1    1    2    0  501 -0.85855774763E+02  0.28275145828E+02 -0.29448690015E+03  0.50486952006E+03  0.40000000000E+03 0.  1.
<mgrwt>
<rscale>  2 0.41029736E+03</rscale>
<asrwt>0</asrwt>
<pdfrwt beam="1">  1        1 0.93775275E-01 0.41029736E+03</pdfrwt>
<pdfrwt beam="2">  1       -1 0.47067689E-01 0.41029736E+03</pdfrwt>
<totfact> 0.15706570E+02</totfact>
</mgrwt>
</event>
<event>
 6    1  0.8938744E-004  0.4387087E+03  0.7818608E-02  0.1031144E+00
          1   -1    0    0  502    0  0.00000000000E+00  0.00000000000E+00  0.19030368500E+04  0.19030368500E+04  0.00000000000E+00 0. -1.
         -1   -1    0    0    0  501 -0.00000000000E+00 -0.00000000000E+00 -0.12941147807E+03  0.12941147807E+03  0.00000000000E+00 0.  1.
    9000007    2    1    2  502    0 -0.16021077950E+03 -0.92526202355E+02  0.13586475624E+04  0.14271094358E+04  0.39558760238E+03 0.  0.
    9000005    1    3    3    0    0 -0.14130610968E+03 -0.22235643669E+03  0.11564153390E+04  0.11860468953E+04  0.99999687468E+00 0.  0.
          4    1    3    3  502    0 -0.18904669818E+02  0.12983023434E+03  0.20223222341E+03  0.24106254059E+03  0.00000000000E+00 0.  1.
   -9000007    1    1    2    0  501  0.16021077950E+03  0.92526202355E+02  0.41497780951E+03  0.60533889218E+03  0.40000000000E+03 0.  1.
<mgrwt>
<rscale>  2 0.43870875E+03</rscale>
<asrwt>0</asrwt>
<pdfrwt beam="1">  1        1 0.29277488E+00 0.43870875E+03</pdfrwt>
<pdfrwt beam="2">  1       -1 0.19909460E-01 0.43870875E+03</pdfrwt>
<totfact> 0.76796979E+01</totfact>
</mgrwt>
</event>
<event>
 6    1  0.8938744E-004  0.4334787E+03  0.7818608E-02  0.1032767E+00
          1   -1    0    0  502    0  0.00000000000E+00  0.00000000000E+00  0.83551886443E+03  0.83551886443E+03  0.00000000000E+00 0.  1.
         -1   -1    0    0    0  501 -0.00000000000E+00 -0.00000000000E+00 -0.27645848348E+03  0.27645848348E+03  0.00000000000E+00 0. -1.
    9000007    2    1    2  502    0  0.16416449283E+03 -0.26930613521E+02  0.51978550738E+03  0.67698567633E+03  0.40057133401E+03 0.  0.
    9000005    1    3    3    0    0 -0.78357656003E+02  0.58023533077E+02  0.36320905072E+03  0.37606976370E+03  0.99999687468E+00 0.  0.
          4    1    3    3  502    0  0.24252214883E+03 -0.84954146599E+02  0.15657645665E+03  0.30091591263E+03  0.00000000000E+00 0.  1.
   -9000007    1    1    2    0  501 -0.16416449283E+03  0.26930613521E+02  0.39274873583E+02  0.43499167158E+03  0.40000000000E+03 0. -1.
<mgrwt>
<rscale>  2 0.43347871E+03</rscale>
<asrwt>0</asrwt>
<pdfrwt beam="1">  1        1 0.12854136E+00 0.43347871E+03</pdfrwt>
<pdfrwt beam="2">  1       -1 0.42532075E-01 0.43347871E+03</pdfrwt>
<totfact> 0.11750242E+02</totfact>
</mgrwt>
</event>
<event>
 6    1  0.8938744E-004  0.4424397E+03  0.7818608E-02  0.1030001E+00
         -1   -1    0    0    0  501 -0.00000000000E+00  0.00000000000E+00  0.25524356246E+03  0.25524356246E+03  0.00000000000E+00 0. -1.
          1   -1    0    0  502    0  0.00000000000E+00 -0.00000000000E+00 -0.12300940812E+04  0.12300940812E+04  0.00000000000E+00 0.  1.
    9000007    2    1    2  502    0 -0.84529120013E+02  0.16927375576E+03 -0.94310678554E+03  0.10417089237E+04  0.39988535403E+03 0.  0.
    9000005    1    3    3    0    0  0.53915569797E+02  0.34621733649E+02  0.13763304737E+02  0.65543738514E+02  0.99999687468E+00 0.  0.
          4    1    3    3  502    0 -0.13844468981E+03  0.13465202211E+03 -0.95687009028E+03  0.97616518524E+03  0.00000000000E+00 0.  1.
   -9000007    1    1    2    0  501  0.84529120013E+02 -0.16927375576E+03 -0.31743733172E+02  0.44362871989E+03  0.40000000000E+03 0. -1.
<mgrwt>
<rscale>  2 0.44243974E+03</rscale>
<asrwt>0</asrwt>
<pdfrwt beam="1">  1        1 0.18924524E+00 0.44243974E+03</pdfrwt>
<pdfrwt beam="2">  1       -1 0.39268241E-01 0.44243974E+03</pdfrwt>
<totfact> 0.68084099E+01</totfact>
</mgrwt>
</event>
<event>
 6    1  0.8938744E-004  0.4531369E+03  0.7818608E-02  0.1026791E+00
         -2   -1    0    0    0  501 -0.00000000000E+00  0.00000000000E+00  0.20900556686E+03  0.20900556686E+03  0.00000000000E+00 0.  1.
          2   -1    0    0  502    0  0.00000000000E+00 -0.00000000000E+00 -0.13015537170E+04  0.13015537170E+04  0.00000000000E+00 0. -1.
    9000007    2    1    2  502    0  0.20514086764E+03 -0.58090389549E+02 -0.92013693960E+03  0.10256026936E+04  0.39968941512E+03 0.  0.
    9000005    1    3    3    0    0  0.21269191265E+03 -0.19575971632E+03 -0.76636487807E+03  0.81907010846E+03  0.99999687468E+00 0.  0.
          4    1    3    3  502    0 -0.75510450060E+01  0.13766932678E+03 -0.15377206153E+03  0.20653258513E+03  0.00000000000E+00 0.  1.
   -9000007    1    1    2    0  501 -0.20514086764E+03  0.58090389549E+02 -0.17241121057E+03  0.48495659029E+03  0.40000000000E+03 0.  1.
<mgrwt>
<rscale>  2 0.45313690E+03</rscale>
<asrwt>0</asrwt>
<pdfrwt beam="1">  1        2 0.20023903E+00 0.45313690E+03</pdfrwt>
<pdfrwt beam="2">  1       -2 0.32154703E-01 0.45313690E+03</pdfrwt>
<totfact> 0.15484617E+02</totfact>
</mgrwt>
</event>
<event>
 6    1  0.8938744E-004  0.4502341E+03  0.7818608E-02  0.1027652E+00
         -2   -1    0    0    0  501 -0.00000000000E+00  0.00000000000E+00  0.93640254851E+03  0.93640254851E+03  0.00000000000E+00 0.  1.
          2   -1    0    0  502    0  0.00000000000E+00 -0.00000000000E+00 -0.22920702628E+03  0.22920702628E+03  0.00000000000E+00 0. -1.
    9000007    2    1    2  502    0 -0.19269993027E+03 -0.76477392392E+02  0.21603294872E+03  0.49910921598E+03  0.39932157451E+03 0.  0.
    9000005    1    3    3    0    0 -0.29800742185E+03 -0.10397023077E+03  0.22836385510E+03  0.38957577270E+03  0.99999687468E+00 0.  0.
          4    1    3    3  502    0  0.10530749158E+03  0.27492838379E+02 -0.12330906379E+02  0.10953344328E+03  0.00000000000E+00 0.  1.
   -9000007    1    1    2    0  501  0.19269993027E+03  0.76477392392E+02  0.49116257350E+03  0.66650035880E+03  0.40000000000E+03 0.  1.
<mgrwt>
<rscale>  2 0.45023409E+03</rscale>
<asrwt>0</asrwt>
<pdfrwt beam="1">  1        2 0.35262620E-01 0.45023409E+03</pdfrwt>
<pdfrwt beam="2">  1       -2 0.14406193E+00 0.45023409E+03</pdfrwt>
<totfact> 0.51019445E+01</totfact>
</mgrwt>
</event>
<event>
 6    1  0.8938744E-004  0.5168956E+03  0.7818608E-02  0.1009461E+00
          3   -1    0    0  502    0  0.00000000000E+00  0.00000000000E+00  0.29410354554E+03  0.29410354554E+03  0.00000000000E+00 0. -1.
         -3   -1    0    0    0  501 -0.00000000000E+00 -0.00000000000E+00 -0.17406801213E+04  0.17406801213E+04  0.00000000000E+00 0.  1.
    9000007    2    1    2  502    0  0.24649015188E+03 -0.21549990395E+03 -0.14267506808E+04  0.15174919990E+04  0.39995857039E+03 0.  0.
    9000005    1    3    3    0    0  0.34905258393E+02 -0.28583476087E+03 -0.91593073044E+03  0.96013019458E+03  0.99999687468E+00 0.  0.
          4    1    3    3  502    0  0.21158489349E+03  0.70334856914E+02 -0.51081995040E+03  0.55736180438E+03  0.00000000000E+00 0.  1.
   -9000007    1    1    2    0  501 -0.24649015188E+03  0.21549990395E+03 -0.19825894951E+02  0.51729166791E+03  0.40000000000E+03 0. -1.
<mgrwt>
<rscale>  2 0.51689557E+03</rscale>
<asrwt>0</asrwt>
<pdfrwt beam="1">  1        3 0.45246698E-01 0.51689557E+03</pdfrwt>
<pdfrwt beam="2">  1       -3 0.26779695E+00 0.51689557E+03</pdfrwt>
<totfact> 0.75719234E-01</totfact>
</mgrwt>
</event>
<event>
 6    1  0.8938744E-004  0.5062868E+03  0.7818608E-02  0.1012151E+00
         -1   -1    0    0    0  501 -0.00000000000E+00  0.00000000000E+00  0.40046915152E+03  0.40046915152E+03  0.00000000000E+00 0.  1.
          1   -1    0    0  502    0  0.00000000000E+00 -0.00000000000E+00 -0.73986347068E+03  0.73986347068E+03  0.00000000000E+00 0. -1.
    9000007    2    1    2  502    0 -0.15075130381E+03 -0.27198424456E+03  0.39815113718E+02  0.50748099751E+03  0.39906181810E+03 0.  0.
    9000005    1    3    3    0    0 -0.24667650979E+03 -0.35698485474E+02 -0.81573007517E+00  0.24924956922E+03  0.99999687468E+00 0.  0.
          4    1    3    3  502    0  0.95925205984E+02 -0.23628575909E+03  0.40630843793E+02  0.25823142829E+03  0.00000000000E+00 0.  1.
   -9000007    1    1    2    0  501  0.15075130381E+03  0.27198424456E+03 -0.37920943287E+03  0.63285162469E+03  0.40000000000E+03 0. -1.
<mgrwt>
<rscale>  2 0.50628675E+03</rscale>
<asrwt>0</asrwt>
<pdfrwt beam="1">  1        1 0.11382515E+00 0.50628675E+03</pdfrwt>
<pdfrwt beam="2">  1       -1 0.61610639E-01 0.50628675E+03</pdfrwt>
<totfact> 0.69932068E+01</totfact>
</mgrwt>
</event>
<event>
 6    1  0.8938744E-004  0.5434070E+03  0.7818608E-02  0.1003032E+00
          2   -1    0    0  502    0  0.00000000000E+00  0.00000000000E+00  0.10596932062E+04  0.10596932062E+04  0.00000000000E+00 0.  1.
         -2   -1    0    0    0  501 -0.00000000000E+00 -0.00000000000E+00 -0.42712160276E+03  0.42712160276E+03  0.00000000000E+00 0. -1.
    9000007    2    1    2  502    0 -0.16136083652E+03 -0.33059811299E+03  0.75456207896E+03  0.92984613115E+03  0.39989681762E+03 0.  0.
    9000005    1    3    3    0    0  0.89581530235E+02 -0.13442883357E+03  0.48948797171E+03  0.51545653192E+03  0.99999687468E+00 0.  0.
          4    1    3    3  502    0 -0.25094236675E+03 -0.19616927942E+03  0.26507410725E+03  0.41438959923E+03  0.00000000000E+00 0.  1.
   -9000007    1    1    2    0  501  0.16136083652E+03  0.33059811299E+03 -0.12199047556E+03  0.55696867776E+03  0.40000000000E+03 0. -1.
<mgrwt>
<rscale>  2 0.54340699E+03</rscale>
<asrwt>0</asrwt>
<pdfrwt beam="1">  1        2 0.16302972E+00 0.54340699E+03</pdfrwt>
<pdfrwt beam="2">  1       -2 0.65711016E-01 0.54340699E+03</pdfrwt>
<totfact> 0.51105691E+01</totfact>
</mgrwt>
</event>
<event>
 6    1  0.8938744E-004  0.4313035E+03  0.7818608E-02  0.1033449E+00
          2   -1    0    0  502    0  0.00000000000E+00  0.00000000000E+00  0.15988292116E+04  0.15988292116E+04  0.00000000000E+00 0.  1.
         -2   -1    0    0    0  501 -0.00000000000E+00 -0.00000000000E+00 -0.13740503679E+03  0.13740503679E+03  0.00000000000E+00 0. -1.
    9000007    2    1    2  502    0  0.12056993805E+03  0.10809932004E+03  0.39054978386E+03  0.58168042368E+03  0.39950019859E+03 0.  0.
    9000005    1    3    3    0    0  0.13645202000E+03  0.24437376633E+03  0.18848057875E+03  0.33743683852E+03  0.99999687468E+00 0.  0.
          4    1    3    3  502    0 -0.15882081951E+02 -0.13627444629E+03  0.20206920511E+03  0.24424358516E+03  0.00000000000E+00 0.  1.
   -9000007    1    1    2    0  501 -0.12056993805E+03 -0.10809932004E+03  0.10708743910E+04  0.11545538247E+04  0.40000000000E+03 0.  1.
<mgrwt>
<rscale>  2 0.43130345E+03</rscale>
<asrwt>0</asrwt>
<pdfrwt beam="1">  1        2 0.24597371E+00 0.43130345E+03</pdfrwt>
<pdfrwt beam="2">  1       -2 0.21139238E-01 0.43130345E+03</pdfrwt>
<totfact> 0.22658231E+02</totfact>
</mgrwt>
</event>
<event>
 6    1  0.8938744E-004  0.4054464E+03  0.7818608E-02  0.1041910E+00
          2   -1    0    0  502    0  0.00000000000E+00  0.00000000000E+00  0.12843940400E+04  0.12843940400E+04  0.00000000000E+00 0.  1.
         -2   -1    0    0    0  501 -0.00000000000E+00 -0.00000000000E+00 -0.13545476341E+03  0.13545476341E+03  0.00000000000E+00 0. -1.
    9000007    2    1    2  502    0 -0.25826078162E+02  0.62531553850E+02  0.40747493448E+03  0.57465855727E+03  0.39952403392E+03 0.  0.
    9000005    1    3    3    0    0  0.20939627600E+02  0.23015757533E+03  0.22698999674E+03  0.32393893885E+03  0.99999687468E+00 0.  0.
          4    1    3    3  502    0 -0.46765705762E+02 -0.16762602148E+03  0.18048493774E+03  0.25071961842E+03  0.00000000000E+00 0.  1.
   -9000007    1    1    2    0  501  0.25826078162E+02 -0.62531553850E+02  0.74146434210E+03  0.84519024613E+03  0.40000000000E+03 0.  1.
<mgrwt>
<rscale>  2 0.40544642E+03</rscale>
<asrwt>0</asrwt>
<pdfrwt beam="1">  1        2 0.19759908E+00 0.40544642E+03</pdfrwt>
<pdfrwt beam="2">  1       -2 0.20839195E-01 0.40544642E+03</pdfrwt>
<totfact> 0.34722168E+02</totfact>
</mgrwt>
</event>
<event>
 6    1  0.8938744E-004  0.4471031E+03  0.7818608E-02  0.1028589E+00
         -2   -1    0    0    0  501 -0.00000000000E+00  0.00000000000E+00  0.54689637834E+03  0.54689637834E+03  0.00000000000E+00 0. -1.
          2   -1    0    0  502    0  0.00000000000E+00 -0.00000000000E+00 -0.10561251594E+04  0.10561251594E+04  0.00000000000E+00 0.  1.
    9000007    2    1    2  502    0  0.19781279202E+03  0.21093391560E+02 -0.90282317139E+03  0.10076297541E+04  0.40081568183E+03 0.  0.
    9000005    1    3    3    0    0  0.19014528514E+03 -0.17057742409E+03 -0.53039695787E+03  0.58870520635E+03  0.99999687468E+00 0.  0.
          4    1    3    3  502    0  0.76675068783E+01  0.19167081565E+03 -0.37242621351E+03  0.41892454780E+03  0.00000000000E+00 0.  1.
   -9000007    1    1    2    0  501 -0.19781279202E+03 -0.21093391560E+02  0.39359439034E+03  0.59539178358E+03  0.40000000000E+03 0. -1.
<mgrwt>
<rscale>  2 0.44710309E+03</rscale>
<asrwt>0</asrwt>
<pdfrwt beam="1">  1        2 0.16248079E+00 0.44710309E+03</pdfrwt>
<pdfrwt beam="2">  1       -2 0.84137906E-01 0.44710309E+03</pdfrwt>
<totfact> 0.30240360E+01</totfact>
</mgrwt>
</event>
<event>
 6    1  0.8938744E-004  0.4290973E+03  0.7818608E-02  0.1034145E+00
          2   -1    0    0  502    0  0.00000000000E+00  0.00000000000E+00  0.12628527780E+04  0.12628527780E+04  0.00000000000E+00 0.  1.
         -2   -1    0    0    0  501 -0.00000000000E+00 -0.00000000000E+00 -0.18711953994E+03  0.18711953994E+03  0.00000000000E+00 0. -1.
    9000007    2    1    2  502    0  0.49206870304E+02 -0.14735462918E+03  0.87853409280E+03  0.97772004877E+03  0.39997454758E+03 0.  0.
    9000005    1    3    3    0    0 -0.77458165841E+02 -0.10663700162E+03  0.53862452705E+02  0.14238462478E+03  0.99999687468E+00 0.  0.
          4    1    3    3  502    0  0.12666503615E+03 -0.40717627562E+02  0.82467164010E+03  0.83533542398E+03  0.00000000000E+00 0.  1.
   -9000007    1    1    2    0  501 -0.49206870304E+02  0.14735462918E+03  0.19719914522E+03  0.47225226913E+03  0.40000000000E+03 0. -1.
<mgrwt>
<rscale>  2 0.42909733E+03</rscale>
<asrwt>0</asrwt>
<pdfrwt beam="1">  1        2 0.19428504E+00 0.42909733E+03</pdfrwt>
<pdfrwt beam="2">  1       -2 0.28787622E-01 0.42909733E+03</pdfrwt>
<totfact> 0.20032043E+02</totfact>
</mgrwt>
</event>
<event>
 6    1  0.8938744E-004  0.4878982E+03  0.7818608E-02  0.1016987E+00
          2   -1    0    0  502    0  0.00000000000E+00  0.00000000000E+00  0.24169495702E+04  0.24169495702E+04  0.00000000000E+00 0.  1.
         -2   -1    0    0    0  501 -0.00000000000E+00 -0.00000000000E+00 -0.14395886485E+03  0.14395886485E+03  0.00000000000E+00 0. -1.
    9000007    2    1    2  502    0  0.27091158442E+03  0.70174466972E+02  0.41643033896E+03  0.64123816741E+03  0.39931769026E+03 0.  0.
    9000005    1    3    3    0    0  0.28281182328E+03  0.19947499861E+03  0.23579335806E+03  0.41877477260E+03  0.99999687468E+00 0.  0.
          4    1    3    3  502    0 -0.11900238864E+02 -0.12930053164E+03  0.18063698089E+03  0.22246339482E+03  0.00000000000E+00 0.  1.
   -9000007    1    1    2    0  501 -0.27091158442E+03 -0.70174466972E+02  0.18565603664E+04  0.19196702676E+04  0.40000000000E+03 0.  1.
<mgrwt>
<rscale>  2 0.48789824E+03</rscale>
<asrwt>0</asrwt>
<pdfrwt beam="1">  1        2 0.37183837E+00 0.48789824E+03</pdfrwt>
<pdfrwt beam="2">  1       -2 0.22147519E-01 0.48789824E+03</pdfrwt>
<totfact> 0.74758750E+01</totfact>
</mgrwt>
</event>
<event>
 6    1  0.8938744E-004  0.4921282E+03  0.7818608E-02  0.1015854E+00
         -1   -1    0    0    0  501 -0.00000000000E+00  0.00000000000E+00  0.13141907640E+04  0.13141907640E+04  0.00000000000E+00 0. -1.
          1   -1    0    0  502    0  0.00000000000E+00 -0.00000000000E+00 -0.19358755023E+03  0.19358755023E+03  0.00000000000E+00 0.  1.
    9000007    2    1    2  502    0  0.11966422259E+03  0.26133099358E+03  0.72506510648E+03  0.87606333997E+03  0.39894128969E+03 0.  0.
    9000005    1    3    3    0    0 -0.95945984794E+02  0.18078251776E+03  0.55011824311E+03  0.58695743638E+03  0.99999687468E+00 0.  0.
          4    1    3    3  502    0  0.21561020739E+03  0.80548475820E+02  0.17494686338E+03  0.28910590359E+03  0.00000000000E+00 0.  1.
   -9000007    1    1    2    0  501 -0.11966422259E+03 -0.26133099358E+03  0.39553810726E+03  0.63171497423E+03  0.40000000000E+03 0.  1.
<mgrwt>
<rscale>  2 0.49212816E+03</rscale>
<asrwt>0</asrwt>
<pdfrwt beam="1">  1        1 0.29782701E-01 0.49212816E+03</pdfrwt>
<pdfrwt beam="2">  1       -1 0.20218319E+00 0.49212816E+03</pdfrwt>
<totfact> 0.23857627E+01</totfact>
</mgrwt>
</event>
<event>
 6    1  0.8938744E-004  0.4644398E+03  0.7818608E-02  0.1023501E+00
         -2   -1    0    0    0  501 -0.00000000000E+00  0.00000000000E+00  0.99281355825E+03  0.99281355825E+03  0.00000000000E+00 0.  1.
          2   -1    0    0  502    0  0.00000000000E+00 -0.00000000000E+00 -0.25861689475E+03  0.25861689475E+03  0.00000000000E+00 0. -1.
    9000007    2    1    2  502    0  0.11289946157E+03 -0.20727887690E+03  0.11689094330E+03  0.47891691045E+03  0.39998386625E+03 0.  0.
    9000005    1    3    3    0    0  0.66091864941E+02 -0.57462602972E+02 -0.14744295356E+03  0.17149492675E+03  0.99999687468E+00 0.  0.
          4    1    3    3  502    0  0.46807596625E+02 -0.14981627393E+03  0.26433389686E+03  0.30742198371E+03  0.00000000000E+00 0.  1.
   -9000007    1    1    2    0  501 -0.11289946157E+03  0.20727887690E+03  0.61730572020E+03  0.77251354255E+03  0.40000000000E+03 0.  1.
<mgrwt>
<rscale>  2 0.46443984E+03</rscale>
<asrwt>0</asrwt>
<pdfrwt beam="1">  1        2 0.39787215E-01 0.46443984E+03</pdfrwt>
<pdfrwt beam="2">  1       -2 0.15274055E+00 0.46443984E+03</pdfrwt>
<totfact> 0.38276325E+01</totfact>
</mgrwt>
</event>
<event>
 6    1  0.8938744E-004  0.4016945E+03  0.7818608E-02  0.1043195E+00
          2   -1    0    0  502    0  0.00000000000E+00  0.00000000000E+00  0.31527779479E+03  0.31527779479E+03  0.00000000000E+00 0. -1.
         -2   -1    0    0    0  501 -0.00000000000E+00 -0.00000000000E+00 -0.52272657242E+03  0.52272657242E+03  0.00000000000E+00 0.  1.
    9000007    2    1    2  502    0 -0.13819770719E+01 -0.27761103820E+02 -0.43328615179E+02  0.40475153517E+03  0.40146462806E+03 0.  0.
    9000005    1    3    3    0    0  0.85621779095E+02 -0.10031863833E+03  0.13803185399E+03  0.19091545501E+03  0.99999687468E+00 0.  0.
          4    1    3    3  502    0 -0.87003756167E+02  0.72557534508E+02 -0.18136046917E+03  0.21383608016E+03  0.00000000000E+00 0.  1.
   -9000007    1    1    2    0  501  0.13819770719E+01  0.27761103820E+02 -0.16412016245E+03  0.43325283204E+03  0.40000000000E+03 0.  1.
<mgrwt>
<rscale>  2 0.40169447E+03</rscale>
<asrwt>0</asrwt>
<pdfrwt beam="1">  1        2 0.48504276E-01 0.40169447E+03</pdfrwt>
<pdfrwt beam="2">  1       -2 0.80419472E-01 0.40169447E+03</pdfrwt>
<totfact> 0.14567038E+02</totfact>
</mgrwt>
</event>
<event>
 6    1  0.8938744E-004  0.4659775E+03  0.7818608E-02  0.1023062E+00
         -1   -1    0    0    0  501 -0.00000000000E+00  0.00000000000E+00  0.15092982768E+03  0.15092982768E+03  0.00000000000E+00 0. -1.
          1   -1    0    0  502    0  0.00000000000E+00 -0.00000000000E+00 -0.16400815990E+04  0.16400815990E+04  0.00000000000E+00 0.  1.
    9000007    2    1    2  502    0 -0.22335963167E+03 -0.87341834414E+02 -0.10578335730E+04  0.11557528106E+04  0.39904206541E+03 0.  0.
    9000005    1    3    3    0    0  0.31816971693E+02 -0.13785682434E+01  0.24648310865E+02  0.40283487440E+02  0.99999687468E+00 0.  0.
          4    1    3    3  502    0 -0.25517660336E+03 -0.85963266170E+02 -0.10824818838E+04  0.11154693232E+04  0.00000000000E+00 0.  1.
   -9000007    1    1    2    0  501  0.22335963167E+03  0.87341834414E+02 -0.43131819834E+03  0.63525861609E+03  0.40000000000E+03 0.  1.
<mgrwt>
<rscale>  2 0.46597754E+03</rscale>
<asrwt>0</asrwt>
<pdfrwt beam="1">  1        1 0.25232026E+00 0.46597754E+03</pdfrwt>
<pdfrwt beam="2">  1       -1 0.23219973E-01 0.46597754E+03</pdfrwt>
<totfact> 0.88375221E+01</totfact>
</mgrwt>
</event>
<event>
 6    1  0.8938744E-004  0.6498369E+03  0.7818608E-02  0.9807085E-01
         -2   -1    0    0    0  501 -0.00000000000E+00  0.00000000000E+00  0.34970217782E+03  0.34970217782E+03  0.00000000000E+00 0.  1.
          2   -1    0    0  502    0  0.00000000000E+00 -0.00000000000E+00 -0.14552768113E+04  0.14552768113E+04  0.00000000000E+00 0. -1.
    9000007    2    1    2  502    0  0.50696902921E+03 -0.82109757125E+02 -0.92432902497E+03  0.11292500646E+04  0.39631042538E+03 0.  0.
    9000005    1    3    3    0    0  0.36044983147E+03 -0.87555042001E+02 -0.90907390780E+03  0.98183824341E+03  0.99999687468E+00 0.  0.
          4    1    3    3  502    0  0.14651919774E+03  0.54452848762E+01 -0.15255117167E+02  0.14741182122E+03  0.00000000000E+00 0.  1.
   -9000007    1    1    2    0  501 -0.50696902921E+03  0.82109757125E+02 -0.18124560852E+03  0.67572892450E+03  0.40000000000E+03 0.  1.
<mgrwt>
<rscale>  2 0.64983693E+03</rscale>
<asrwt>0</asrwt>
<pdfrwt beam="1">  1        2 0.22388874E+00 0.64983693E+03</pdfrwt>
<pdfrwt beam="2">  1       -2 0.53800334E-01 0.64983693E+03</pdfrwt>
<totfact> 0.45247951E+01</totfact>
</mgrwt>
</event>
<event>
 6    1  0.8938744E-004  0.5629844E+03  0.7818608E-02  0.9985324E-01
         -2   -1    0    0    0  501 -0.00000000000E+00  0.00000000000E+00  0.23473416928E+03  0.23473416928E+03  0.00000000000E+00 0.  1.
          2   -1    0    0  502    0  0.00000000000E+00 -0.00000000000E+00 -0.23180683144E+04  0.23180683144E+04  0.00000000000E+00 0. -1.
    9000007    2    1    2  502    0  0.19827594379E+03 -0.34318861914E+03 -0.18662773077E+04  0.19493081185E+04  0.39964906275E+03 0.  0.
    9000005    1    3    3    0    0  0.27380033657E+03 -0.38803831716E+03 -0.15887350504E+04  0.16581979437E+04  0.99999687468E+00 0.  0.
          4    1    3    3  502    0 -0.75524392781E+02  0.44849698017E+02 -0.27754225722E+03  0.29111017478E+03  0.00000000000E+00 0.  1.
   -9000007    1    1    2    0  501 -0.19827594379E+03  0.34318861914E+03 -0.21705683747E+03  0.60349436525E+03  0.40000000000E+03 0.  1.
<mgrwt>
<rscale>  2 0.56298440E+03</rscale>
<asrwt>0</asrwt>
<pdfrwt beam="1">  1        2 0.35662589E+00 0.56298440E+03</pdfrwt>
<pdfrwt beam="2">  1       -2 0.36112950E-01 0.56298440E+03</pdfrwt>
<totfact> 0.34174997E+01</totfact>
</mgrwt>
</event>
<event>
 6    1  0.8938744E-004  0.4660380E+03  0.7818608E-02  0.1023044E+00
          2   -1    0    0  502    0  0.00000000000E+00  0.00000000000E+00  0.20923283835E+04  0.20923283835E+04  0.00000000000E+00 0.  1.
         -2   -1    0    0    0  501 -0.00000000000E+00 -0.00000000000E+00 -0.11541564016E+03  0.11541564016E+03  0.00000000000E+00 0. -1.
    9000007    2    1    2  502    0 -0.19119518411E+03 -0.13959461654E+03  0.64068927857E+03  0.79298771843E+03  0.40287034454E+03 0.  0.
    9000005    1    3    3    0    0 -0.26449384383E+03 -0.22779876190E+03  0.52184304290E+03  0.62782993778E+03  0.99999687468E+00 0.  0.
          4    1    3    3  502    0  0.73298659727E+02  0.88204145361E+02  0.11884623567E+03  0.16515778065E+03  0.00000000000E+00 0.  1.
   -9000007    1    1    2    0  501  0.19119518411E+03  0.13959461654E+03  0.13362234647E+04  0.14147563052E+04  0.40000000000E+03 0.  1.
<mgrwt>
<rscale>  2 0.46603804E+03</rscale>
<asrwt>0</asrwt>
<pdfrwt beam="1">  1        2 0.32189665E+00 0.46603804E+03</pdfrwt>
<pdfrwt beam="2">  1       -2 0.17756254E-01 0.46603804E+03</pdfrwt>
<totfact> 0.16555881E+02</totfact>
</mgrwt>
</event>
<event>
 6    1  0.8938744E-004  0.4841966E+03  0.7818608E-02  0.1017988E+00
          2   -1    0    0  502    0  0.00000000000E+00  0.00000000000E+00  0.48636669360E+03  0.48636669360E+03  0.00000000000E+00 0. -1.
         -2   -1    0    0    0  501 -0.00000000000E+00 -0.00000000000E+00 -0.62753047023E+03  0.62753047023E+03  0.00000000000E+00 0.  1.
    9000007    2    1    2  502    0  0.25951006338E+03  0.83677801125E+02  0.19758301555E+03  0.52305299097E+03  0.40024734344E+03 0.  0.
    9000005    1    3    3    0    0  0.32280771388E+03 -0.51354165428E+02  0.89583336163E+02  0.33892218068E+03  0.99999687468E+00 0.  0.
          4    1    3    3  502    0 -0.63297650499E+02  0.13503196655E+03  0.10799967938E+03  0.18413081029E+03  0.00000000000E+00 0.  1.
   -9000007    1    1    2    0  501 -0.25951006338E+03 -0.83677801125E+02 -0.33874679218E+03  0.59084417287E+03  0.40000000000E+03 0.  1.
<mgrwt>
<rscale>  2 0.48419665E+03</rscale>
<asrwt>0</asrwt>
<pdfrwt beam="1">  1        2 0.74825645E-01 0.48419665E+03</pdfrwt>
<pdfrwt beam="2">  1       -2 0.96543149E-01 0.48419665E+03</pdfrwt>
<totfact> 0.58926505E+01</totfact>
</mgrwt>
</event>
<event>
 6    1  0.8938744E-004  0.4674202E+03  0.7818608E-02  0.1022651E+00
         -2   -1    0    0    0  501 -0.00000000000E+00  0.00000000000E+00  0.10064836997E+04  0.10064836997E+04  0.00000000000E+00 0.  1.
          2   -1    0    0  502    0  0.00000000000E+00 -0.00000000000E+00 -0.25255250756E+03  0.25255250756E+03  0.00000000000E+00 0. -1.
    9000007    2    1    2  502    0  0.16610887203E+03  0.17473234762E+03  0.14128534917E+03  0.48867364354E+03  0.40089503530E+03 0.  0.
    9000005    1    3    3    0    0  0.87323101200E+02  0.20649693758E+03  0.25960398368E+03  0.34301827586E+03  0.99999687468E+00 0.  0.
          4    1    3    3  502    0  0.78785770825E+02 -0.31764589961E+02 -0.11831863452E+03  0.14565536768E+03  0.00000000000E+00 0.  1.
   -9000007    1    1    2    0  501 -0.16610887203E+03 -0.17473234762E+03  0.61264584296E+03  0.77036256371E+03  0.40000000000E+03 0.  1.
<mgrwt>
<rscale>  2 0.46742023E+03</rscale>
<asrwt>0</asrwt>
<pdfrwt beam="1">  1        2 0.38854232E-01 0.46742023E+03</pdfrwt>
<pdfrwt beam="2">  1       -2 0.15484364E+00 0.46742023E+03</pdfrwt>
<totfact> 0.37886714E+01</totfact>
</mgrwt>
</event>
<event>
 6    1  0.8938744E-004  0.4211520E+03  0.7818608E-02  0.1036692E+00
         -1   -1    0    0    0  501 -0.00000000000E+00  0.00000000000E+00  0.72455624287E+03  0.72455624287E+03  0.00000000000E+00 0.  1.
          1   -1    0    0  502    0  0.00000000000E+00 -0.00000000000E+00 -0.25586999576E+03  0.25586999576E+03  0.00000000000E+00 0. -1.
    9000007    2    1    2  502    0  0.12936709561E+03  0.30712434357E+02  0.13216860253E+03  0.44105324694E+03  0.39922465867E+03 0.  0.
    9000005    1    3    3    0    0  0.26786267186E+03 -0.66201522597E+01  0.40927181698E+02  0.27105400124E+03  0.99999687468E+00 0.  0.
          4    1    3    3  502    0 -0.13849557625E+03  0.37332586617E+02  0.91241420830E+02  0.16999924570E+03  0.00000000000E+00 0.  1.
   -9000007    1    1    2    0  501 -0.12936709561E+03 -0.30712434357E+02  0.33651764459E+03  0.53937299169E+03  0.40000000000E+03 0.  1.
<mgrwt>
<rscale>  2 0.42115198E+03</rscale>
<asrwt>0</asrwt>
<pdfrwt beam="1">  1        1 0.39364615E-01 0.42115198E+03</pdfrwt>
<pdfrwt beam="2">  1       -1 0.11147019E+00 0.42115198E+03</pdfrwt>
<totfact> 0.83432203E+01</totfact>
</mgrwt>
</event>
<event>
 6    1  0.8938744E-004  0.4365315E+03  0.7818608E-02  0.1031816E+00
          2   -1    0    0  502    0  0.00000000000E+00  0.00000000000E+00  0.35360398691E+04  0.35360398691E+04  0.00000000000E+00 0.  1.
         -2   -1    0    0    0  501 -0.00000000000E+00 -0.00000000000E+00 -0.54524218786E+02  0.54524218786E+02  0.00000000000E+00 0. -1.
    9000007    2    1    2  502    0  0.15262158818E+03  0.89473123908E+02  0.19309101013E+04  0.19794538006E+04  0.39815165506E+03 0.  0.
    9000005    1    3    3    0    0  0.58026983431E+02 -0.71497871495E+02  0.88872596488E+02  0.12797818109E+03  0.99999687468E+00 0.  0.
          4    1    3    3  502    0  0.94594604747E+02  0.16097099540E+03  0.18420375048E+04  0.18514756195E+04  0.00000000000E+00 0.  1.
   -9000007    1    1    2    0  501 -0.15262158818E+03 -0.89473123908E+02  0.15506055490E+04  0.16111102873E+04  0.40000000000E+03 0. -1.
<mgrwt>
<rscale>  2 0.43653148E+03</rscale>
<asrwt>0</asrwt>
<pdfrwt beam="1">  1        2 0.54400596E+00 0.43653148E+03</pdfrwt>
<pdfrwt beam="2">  1       -2 0.83883441E-02 0.43653148E+03</pdfrwt>
<totfact> 0.79988581E+01</totfact>
</mgrwt>
</event>
<event>
 6    1  0.8938744E-004  0.4606995E+03  0.7818608E-02  0.1024579E+00
         -2   -1    0    0    0  501 -0.00000000000E+00  0.00000000000E+00  0.17377729550E+03  0.17377729550E+03  0.00000000000E+00 0. -1.
          2   -1    0    0  502    0  0.00000000000E+00 -0.00000000000E+00 -0.19119805732E+04  0.19119805732E+04  0.00000000000E+00 0.  1.
    9000007    2    1    2  502    0  0.22692741499E+03 -0.29695047162E+02 -0.24214970879E+03  0.52033328458E+03  0.39966535761E+03 0.  0.
    9000005    1    3    3    0    0  0.70253032959E+02 -0.59582305202E+01  0.11200020365E+03  0.13234815738E+03  0.99999687468E+00 0.  0.
          4    1    3    3  502    0  0.15667438203E+03 -0.23736816641E+02 -0.35414991244E+03  0.38798512720E+03  0.00000000000E+00 0.  1.
   -9000007    1    1    2    0  501 -0.22692741499E+03  0.29695047162E+02 -0.14960535689E+04  0.15654245841E+04  0.40000000000E+03 0.  1.
<mgrwt>
<rscale>  2 0.46069947E+03</rscale>
<asrwt>0</asrwt>
<pdfrwt beam="1">  1        2 0.29415082E+00 0.46069947E+03</pdfrwt>
<pdfrwt beam="2">  1       -2 0.26734972E-01 0.46069947E+03</pdfrwt>
<totfact> 0.10094582E+02</totfact>
</mgrwt>
</event>
<event>
 6    1  0.8938744E-004  0.4805385E+03  0.7818608E-02  0.1018987E+00
          2   -1    0    0  502    0  0.00000000000E+00  0.00000000000E+00  0.26088096596E+04  0.26088096596E+04  0.00000000000E+00 0.  1.
         -2   -1    0    0    0  501 -0.00000000000E+00 -0.00000000000E+00 -0.91066064334E+02  0.91066064334E+02  0.00000000000E+00 0. -1.
    9000007    2    1    2  502    0 -0.16041130199E+02  0.26583322220E+03  0.14848201643E+04  0.15606411413E+04  0.39998153950E+03 0.  0.
    9000005    1    3    3    0    0  0.31136887187E+02  0.59780655891E+02  0.69931041985E+01  0.67772679323E+02  0.99999687468E+00 0.  0.
          4    1    3    3  502    0 -0.47178017387E+02  0.20605256631E+03  0.14778270601E+04  0.14928684620E+04  0.00000000000E+00 0.  1.
   -9000007    1    1    2    0  501  0.16041130199E+02 -0.26583322220E+03  0.10329234310E+04  0.11392345826E+04  0.40000000000E+03 0. -1.
<mgrwt>
<rscale>  2 0.48053849E+03</rscale>
<asrwt>0</asrwt>
<pdfrwt beam="1">  1        2 0.40135528E+00 0.48053849E+03</pdfrwt>
<pdfrwt beam="2">  1       -2 0.14010166E-01 0.48053849E+03</pdfrwt>
<totfact> 0.12793692E+02</totfact>
</mgrwt>
</event>
<event>
 6    1  0.8938744E-004  0.8020906E+03  0.7818608E-02  0.9556996E-01
          2   -1    0    0  502    0  0.00000000000E+00  0.00000000000E+00  0.11019973590E+04  0.11019973590E+04  0.00000000000E+00 0. -1.
         -2   -1    0    0    0  501 -0.00000000000E+00 -0.00000000000E+00 -0.90647811860E+03  0.90647811860E+03  0.00000000000E+00 0.  1.
    9000007    2    1    2  502    0 -0.36441023583E+03  0.59251393952E+03  0.69689112580E+03  0.10623035292E+04  0.39870284482E+03 0.  0.
    9000005    1    3    3    0    0 -0.24459252852E+03  0.58606002521E+03  0.42231872740E+03  0.76265717440E+03  0.99999687468E+00 0.  0.
          4    1    3    3  502    0 -0.11981770731E+03  0.64539143110E+01  0.27457239839E+03  0.29964635482E+03  0.00000000000E+00 0.  1.
   -9000007    1    1    2    0  501  0.36441023583E+03 -0.59251393952E+03 -0.50137188537E+03  0.94617194840E+03  0.40000000000E+03 0.  1.
<mgrwt>
<rscale>  2 0.80209062E+03</rscale>
<asrwt>0</asrwt>
<pdfrwt beam="1">  1        2 0.16953806E+00 0.80209062E+03</pdfrwt>
<pdfrwt beam="2">  1       -2 0.13945817E+00 0.80209062E+03</pdfrwt>
<totfact> 0.79811469E+00</totfact>
</mgrwt>
</event>
<event>
 6    1  0.8938744E-004  0.6879791E+03  0.7818608E-02  0.9738013E-01
         -1   -1    0    0    0  501 -0.00000000000E+00  0.00000000000E+00  0.86194186606E+03  0.86194186606E+03  0.00000000000E+00 0. -1.
          1   -1    0    0  502    0  0.00000000000E+00 -0.00000000000E+00 -0.58130748693E+03  0.58130748693E+03  0.00000000000E+00 0.  1.
    9000007    2    1    2  502    0  0.26582611199E+03  0.49263577025E+03 -0.29476116102E+02  0.68858251046E+03  0.39990437400E+03 0.  0.
    9000005    1    3    3    0    0  0.18989026329E+03  0.14321234617E+03  0.15730838585E+03  0.28515787985E+03  0.99999687468E+00 0.  0.
          4    1    3    3  502    0  0.75935848694E+02  0.34942342408E+03 -0.18678450195E+03  0.40342463061E+03  0.00000000000E+00 0.  1.
   -9000007    1    1    2    0  501 -0.26582611199E+03 -0.49263577025E+03  0.31011049523E+03  0.75466684252E+03  0.40000000000E+03 0. -1.
<mgrwt>
<rscale>  2 0.68797913E+03</rscale>
<asrwt>0</asrwt>
<pdfrwt beam="1">  1        1 0.89431921E-01 0.68797913E+03</pdfrwt>
<pdfrwt beam="2">  1       -1 0.13260644E+00 0.68797913E+03</pdfrwt>
<totfact> 0.17882074E+01</totfact>
</mgrwt>
</event>
<event>
 6    1  0.8938744E-004  0.4586716E+03  0.7818608E-02  0.1025167E+00
          1   -1    0    0  502    0  0.00000000000E+00  0.00000000000E+00  0.17118589794E+04  0.17118589794E+04  0.00000000000E+00 0.  1.
         -1   -1    0    0    0  501 -0.00000000000E+00 -0.00000000000E+00 -0.12675635546E+03  0.12675635546E+03  0.00000000000E+00 0. -1.
    9000007    2    1    2  502    0 -0.22151999541E+03 -0.20377647721E+02  0.63375422729E+03  0.78289277249E+03  0.40223166921E+03 0.  0.
    9000005    1    3    3    0    0  0.77112446272E+02  0.53987303743E+02  0.35632934106E+03  0.36855468743E+03  0.99999687468E+00 0.  0.
          4    1    3    3  502    0 -0.29863244168E+03 -0.74364951464E+02  0.27742488623E+03  0.41433808506E+03  0.00000000000E+00 0.  1.
   -9000007    1    1    2    0  501  0.22151999541E+03  0.20377647721E+02  0.95134839662E+03  0.10557225623E+04  0.40000000000E+03 0.  1.
<mgrwt>
<rscale>  2 0.45867157E+03</rscale>
<asrwt>0</asrwt>
<pdfrwt beam="1">  1        1 0.26336290E+00 0.45867157E+03</pdfrwt>
<pdfrwt beam="2">  1       -1 0.19500979E-01 0.45867157E+03</pdfrwt>
<totfact> 0.10593163E+02</totfact>
</mgrwt>
</event>
<event>
 6    1  0.8938744E-004  0.4658685E+03  0.7818608E-02  0.1023093E+00
          2   -1    0    0  502    0  0.00000000000E+00  0.00000000000E+00  0.15989036656E+04  0.15989036656E+04  0.00000000000E+00 0. -1.
         -2   -1    0    0    0  501 -0.00000000000E+00 -0.00000000000E+00 -0.13804202649E+03  0.13804202649E+03  0.00000000000E+00 0.  1.
    9000007    2    1    2  502    0 -0.71974013365E+01 -0.23680318070E+03  0.61977033863E+03  0.77592429549E+03  0.40226321074E+03 0.  0.
    9000005    1    3    3    0    0 -0.19829743343E+03 -0.61879045325E+02  0.28103026299E+03  0.34947088157E+03  0.99999687468E+00 0.  0.
          4    1    3    3  502    0  0.19110003209E+03 -0.17492413537E+03  0.33874007564E+03  0.42645341392E+03  0.00000000000E+00 0.  1.
   -9000007    1    1    2    0  501  0.71974013365E+01  0.23680318070E+03  0.84109130050E+03  0.96102139662E+03  0.40000000000E+03 0. -1.
<mgrwt>
<rscale>  2 0.46586854E+03</rscale>
<asrwt>0</asrwt>
<pdfrwt beam="1">  1        2 0.24598517E+00 0.46586854E+03</pdfrwt>
<pdfrwt beam="2">  1       -2 0.21237236E-01 0.46586854E+03</pdfrwt>
<totfact> 0.22376633E+02</totfact>
</mgrwt>
</event>
<event>
 6    1  0.8938744E-004  0.4187476E+03  0.7818608E-02  0.1037475E+00
         -1   -1    0    0    0  501 -0.00000000000E+00  0.00000000000E+00  0.19619038896E+03  0.19619038896E+03  0.00000000000E+00 0.  1.
          1   -1    0    0  502    0  0.00000000000E+00 -0.00000000000E+00 -0.90008211447E+03  0.90008211447E+03  0.00000000000E+00 0. -1.
    9000007    2    1    2  502    0 -0.11949413172E+03  0.31860892572E+02 -0.30610759072E+03  0.51875524665E+03  0.40013895691E+03 0.  0.
    9000005    1    3    3    0    0 -0.52028922834E+02  0.20807061478E+03 -0.23224017983E+03  0.31612796566E+03  0.99999687468E+00 0.  0.
          4    1    3    3  502    0 -0.67465208888E+02 -0.17620972221E+03 -0.73867410888E+02  0.20262728100E+03  0.00000000000E+00 0.  1.
   -9000007    1    1    2    0  501  0.11949413172E+03 -0.31860892572E+02 -0.39778413479E+03  0.57751725678E+03  0.40000000000E+03 0. -1.
<mgrwt>
<rscale>  2 0.41874759E+03</rscale>
<asrwt>0</asrwt>
<pdfrwt beam="1">  1        1 0.13847417E+00 0.41874759E+03</pdfrwt>
<pdfrwt beam="2">  1       -1 0.30183137E-01 0.41874759E+03</pdfrwt>
<totfact> 0.19128389E+02</totfact>
</mgrwt>
</event>
<event>
 6    1  0.8938744E-004  0.4633802E+03  0.7818608E-02  0.1023805E+00
         -2   -1    0    0    0  501 -0.00000000000E+00  0.00000000000E+00  0.24037697685E+03  0.24037697685E+03  0.00000000000E+00 0.  1.
          2   -1    0    0  502    0  0.00000000000E+00 -0.00000000000E+00 -0.89607896015E+03  0.89607896015E+03  0.00000000000E+00 0. -1.
    9000007    2    1    2  502    0  0.18504585664E+03 -0.14253381918E+03 -0.35979629276E+03  0.58680328635E+03  0.40040837394E+03 0.  0.
    9000005    1    3    3    0    0  0.29357629936E+03 -0.16844505960E+03 -0.32669508441E+03  0.47041626229E+03  0.99999687468E+00 0.  0.
          4    1    3    3  502    0 -0.10853044272E+03  0.25911240423E+02 -0.33101208342E+02  0.11638702407E+03  0.00000000000E+00 0.  1.
   -9000007    1    1    2    0  501 -0.18504585664E+03  0.14253381918E+03 -0.29590569054E+03  0.54965265065E+03  0.40000000000E+03 0. -1.
<mgrwt>
<rscale>  2 0.46338022E+03</rscale>
<asrwt>0</asrwt>
<pdfrwt beam="1">  1        2 0.13785830E+00 0.46338022E+03</pdfrwt>
<pdfrwt beam="2">  1       -2 0.36981073E-01 0.46338022E+03</pdfrwt>
<totfact> 0.20925688E+02</totfact>
</mgrwt>
</event>
<event>
 6    1  0.8938744E-004  0.4310439E+03  0.7818608E-02  0.1033531E+00
          2   -1    0    0  502    0  0.00000000000E+00  0.00000000000E+00  0.14791316356E+03  0.14791316356E+03  0.00000000000E+00 0.  1.
         -2   -1    0    0    0  501 -0.00000000000E+00 -0.00000000000E+00 -0.13292585756E+04  0.13292585756E+04  0.00000000000E+00 0. -1.
    9000007    2    1    2  502    0 -0.10811979479E+03 -0.12113875428E+03 -0.76305164640E+03  0.87606096553E+03  0.39858564004E+03 0.  0.
    9000005    1    3    3    0    0 -0.59209042064E+02 -0.26819080828E+03 -0.51251681799E+03  0.58146926748E+03  0.99999687468E+00 0.  0.
          4    1    3    3  502    0 -0.48910752724E+02  0.14705205399E+03 -0.25053482841E+03  0.29459169806E+03  0.00000000000E+00 0.  1.
   -9000007    1    1    2    0  501  0.10811979479E+03  0.12113875428E+03 -0.41829376566E+03  0.60111077366E+03  0.40000000000E+03 0.  1.
<mgrwt>
<rscale>  2 0.43104395E+03</rscale>
<asrwt>0</asrwt>
<pdfrwt beam="1">  1        2 0.22755871E-01 0.43104395E+03</pdfrwt>
<pdfrwt beam="2">  1       -2 0.20450132E+00 0.43104395E+03</pdfrwt>
<totfact> 0.31763595E+01</totfact>
</mgrwt>
</event>
<event>
 6    1  0.8938744E-004  0.4087553E+03  0.7818608E-02  0.1040790E+00
         -2   -1    0    0    0  501 -0.00000000000E+00  0.00000000000E+00  0.67914820640E+02  0.67914820640E+02  0.00000000000E+00 0.  1.
          2   -1    0    0  502    0  0.00000000000E+00 -0.00000000000E+00 -0.24699251675E+04  0.24699251675E+04  0.00000000000E+00 0. -1.
    9000007    2    1    2  502    0  0.83653043547E+02  0.98373845884E+01 -0.11211424736E+04  0.11933262788E+04  0.39996569322E+03 0.  0.
    9000005    1    3    3    0    0  0.23404194029E+03  0.15721088653E+02 -0.86498324913E+03  0.89622530857E+03  0.99999687468E+00 0.  0.
          4    1    3    3  502    0 -0.15038889675E+03 -0.58837040648E+01 -0.25615922449E+03  0.29710097026E+03  0.00000000000E+00 0.  1.
   -9000007    1    1    2    0  501 -0.83653043547E+02 -0.98373845884E+01 -0.12808678732E+04  0.13445137093E+04  0.40000000000E+03 0. -1.
<mgrwt>
<rscale>  2 0.40875529E+03</rscale>
<asrwt>0</asrwt>
<pdfrwt beam="1">  1        2 0.37998844E+00 0.40875529E+03</pdfrwt>
<pdfrwt beam="2">  1       -2 0.10448435E-01 0.40875529E+03</pdfrwt>
<totfact> 0.25077846E+02</totfact>
</mgrwt>
</event>
<event>
 6    1  0.8938744E-004  0.5009858E+03  0.7818608E-02  0.1013522E+00
          1   -1    0    0  502    0  0.00000000000E+00  0.00000000000E+00  0.34428315132E+04  0.34428315132E+04  0.00000000000E+00 0.  1.
         -1   -1    0    0    0  501 -0.00000000000E+00 -0.00000000000E+00 -0.74205440456E+02  0.74205440456E+02  0.00000000000E+00 0. -1.
    9000007    2    1    2  502    0 -0.11868867954E+03  0.27751996343E+03  0.14507977368E+04  0.15348235800E+04  0.39970616172E+03 0.  0.
    9000005    1    3    3    0    0 -0.10017721312E+02  0.69534579329E+02  0.53629527243E+01  0.70463988806E+02  0.99999687468E+00 0.  0.
          4    1    3    3  502    0 -0.10867095823E+03  0.20798538410E+03  0.14454347841E+04  0.14643595911E+04  0.00000000000E+00 0.  1.
   -9000007    1    1    2    0  501  0.11868867954E+03 -0.27751996343E+03  0.19178283360E+04  0.19822133737E+04  0.40000000000E+03 0.  1.
<mgrwt>
<rscale>  2 0.50098584E+03</rscale>
<asrwt>0</asrwt>
<pdfrwt beam="1">  1        1 0.52966626E+00 0.50098584E+03</pdfrwt>
<pdfrwt beam="2">  1       -1 0.11416224E-01 0.50098584E+03</pdfrwt>
<totfact> 0.15953351E+01</totfact>
</mgrwt>
</event>
<event>
 6    1  0.8938744E-004  0.4053037E+03  0.7818608E-02  0.1041959E+00
          2   -1    0    0  502    0  0.00000000000E+00  0.00000000000E+00  0.48226159617E+03  0.48226159617E+03  0.00000000000E+00 0. -1.
         -2   -1    0    0    0  501 -0.00000000000E+00 -0.00000000000E+00 -0.34124334886E+03  0.34124334886E+03  0.00000000000E+00 0.  1.
    9000007    2    1    2  502    0  0.50151870042E+02 -0.41032863546E+02  0.88031345820E+02  0.41484063573E+03  0.40018037090E+03 0.  0.
    9000005    1    3    3    0    0 -0.15995305040E+03  0.21407511009E+00 -0.40638723128E+02  0.16503796524E+03  0.99999687468E+00 0.  0.
          4    1    3    3  502    0  0.21010492044E+03 -0.41246938656E+02  0.12867006895E+03  0.24980267049E+03  0.00000000000E+00 0.  1.
   -9000007    1    1    2    0  501 -0.50151870042E+02  0.41032863546E+02  0.52986901487E+02  0.40866430929E+03  0.40000000000E+03 0.  1.
<mgrwt>
<rscale>  2 0.40530366E+03</rscale>
<asrwt>0</asrwt>
<pdfrwt beam="1">  1        2 0.74194091E-01 0.40530366E+03</pdfrwt>
<pdfrwt beam="2">  1       -2 0.52498977E-01 0.40530366E+03</pdfrwt>
<totfact> 0.22550493E+02</totfact>
</mgrwt>
</event>
<event>
 6    1  0.8938744E-004  0.8532159E+03  0.7818608E-02  0.9486031E-01
         -2   -1    0    0    0  501 -0.00000000000E+00  0.00000000000E+00  0.25455394148E+04  0.25455394148E+04  0.00000000000E+00 0.  1.
          2   -1    0    0  502    0  0.00000000000E+00 -0.00000000000E+00 -0.67627227492E+03  0.67627227492E+03  0.00000000000E+00 0. -1.
    9000007    2    1    2  502    0  0.75169212771E+03 -0.52674916516E+02 -0.28910290378E+03  0.90095474733E+03  0.40040387869E+03 0.  0.
    9000005    1    3    3    0    0  0.69708304699E+03 -0.26440127800E+02 -0.37796961624E+03  0.79340146556E+03  0.99999687468E+00 0.  0.
          4    1    3    3  502    0  0.54609080718E+02 -0.26234788716E+02  0.88866712457E+02  0.10755328177E+03  0.00000000000E+00 0.  1.
   -9000007    1    1    2    0  501 -0.75169212771E+03  0.52674916516E+02  0.21583700437E+04  0.23208569424E+04  0.40000000000E+03 0.  1.
<mgrwt>
<rscale>  2 0.85321587E+03</rscale>
<asrwt>0</asrwt>
<pdfrwt beam="1">  1        2 0.10404189E+00 0.85321587E+03</pdfrwt>
<pdfrwt beam="2">  1       -2 0.39162144E+00 0.85321587E+03</pdfrwt>
<totfact> 0.37568789E-01</totfact>
</mgrwt>
</event>
<event>
 6    1  0.8938744E-004  0.4231063E+03  0.7818608E-02  0.1036060E+00
          1   -1    0    0  502    0  0.00000000000E+00  0.00000000000E+00  0.87413683651E+03  0.87413683651E+03  0.00000000000E+00 0. -1.
         -1   -1    0    0    0  501 -0.00000000000E+00 -0.00000000000E+00 -0.21217643944E+03  0.21217643944E+03  0.00000000000E+00 0.  1.
    9000007    2    1    2  502    0  0.57619487604E+02 -0.12498778187E+03  0.22974090587E+03  0.48153592888E+03  0.40019247370E+03 0.  0.
    9000005    1    3    3    0    0  0.14984753749E+03 -0.16691664322E+03  0.28770397970E+03  0.36481506302E+03  0.99999687468E+00 0.  0.
          4    1    3    3  502    0 -0.92228049885E+02  0.41928861358E+02 -0.57963073826E+02  0.11672086586E+03  0.00000000000E+00 0.  1.
   -9000007    1    1    2    0  501 -0.57619487604E+02  0.12498778187E+03  0.43221949120E+03  0.60477734708E+03  0.40000000000E+03 0.  1.
<mgrwt>
<rscale>  2 0.42310630E+03</rscale>
<asrwt>0</asrwt>
<pdfrwt beam="1">  1        1 0.13448259E+00 0.42310630E+03</pdfrwt>
<pdfrwt beam="2">  1       -1 0.32642530E-01 0.42310630E+03</pdfrwt>
<totfact> 0.17513313E+02</totfact>
</mgrwt>
</event>
<event>
 6    1  0.8938744E-004  0.5197824E+03  0.7818608E-02  0.1008741E+00
         -2   -1    0    0    0  501 -0.00000000000E+00  0.00000000000E+00  0.10610406388E+04  0.10610406388E+04  0.00000000000E+00 0.  1.
          2   -1    0    0  502    0  0.00000000000E+00 -0.00000000000E+00 -0.61444728025E+03  0.61444728025E+03  0.00000000000E+00 0. -1.
    9000007    2    1    2  502    0 -0.28368232342E+03 -0.17216027099E+03  0.86438265171E+03  0.10086575711E+04  0.40014735728E+03 0.  0.
    9000005    1    3    3    0    0 -0.27425490134E+02 -0.21848518954E+03  0.20966927890E+03  0.30405614953E+03  0.99999687468E+00 0.  0.
          4    1    3    3  502    0 -0.25625683328E+03  0.46324918549E+02  0.65471337281E+03  0.70460142153E+03  0.00000000000E+00 0.  1.
   -9000007    1    1    2    0  501  0.28368232342E+03  0.17216027099E+03 -0.41778929316E+03  0.66683034799E+03  0.40000000000E+03 0. -1.
<mgrwt>
<rscale>  2 0.51978242E+03</rscale>
<asrwt>0</asrwt>
<pdfrwt beam="1">  1        2 0.94530351E-01 0.51978242E+03</pdfrwt>
<pdfrwt beam="2">  1       -2 0.16323702E+00 0.51978242E+03</pdfrwt>
<totfact> 0.12007992E+01</totfact>
</mgrwt>
</event>
<event>
 6    1  0.8938744E-004  0.4917017E+03  0.7818608E-02  0.1015968E+00
          1   -1    0    0  502    0  0.00000000000E+00  0.00000000000E+00  0.16029141101E+04  0.16029141101E+04  0.00000000000E+00 0.  1.
         -1   -1    0    0    0  501 -0.00000000000E+00 -0.00000000000E+00 -0.15618280716E+03  0.15618280716E+03  0.00000000000E+00 0. -1.
    9000007    2    1    2  502    0 -0.42728926323E+02 -0.28259195885E+03  0.88629192477E+03  0.10135928777E+04  0.40021640336E+03 0.  0.
    9000005    1    3    3    0    0 -0.21147714083E+03 -0.23384508142E+03  0.59736184963E+03  0.67546153301E+03  0.99999687468E+00 0.  0.
          4    1    3    3  502    0  0.16874821450E+03 -0.48746877427E+02  0.28893007514E+03  0.33813134471E+03  0.00000000000E+00 0.  1.
   -9000007    1    1    2    0  501  0.42728926323E+02  0.28259195885E+03  0.56043937819E+03  0.74550403954E+03  0.40000000000E+03 0. -1.
<mgrwt>
<rscale>  2 0.49170168E+03</rscale>
<asrwt>0</asrwt>
<pdfrwt beam="1">  1        1 0.24660216E+00 0.49170168E+03</pdfrwt>
<pdfrwt beam="2">  1       -1 0.24028125E-01 0.49170168E+03</pdfrwt>
<totfact> 0.87997246E+01</totfact>
</mgrwt>
</event>
<event>
 6    1  0.8938744E-004  0.4238373E+03  0.7818608E-02  0.1035825E+00
         -2   -1    0    0    0  501 -0.00000000000E+00  0.00000000000E+00  0.10799595069E+03  0.10799595069E+03  0.00000000000E+00 0. -1.
          2   -1    0    0  502    0  0.00000000000E+00 -0.00000000000E+00 -0.16656730000E+04  0.16656730000E+04  0.00000000000E+00 0.  1.
    9000007    2    1    2  502    0  0.11804159342E+03  0.72721936880E+02 -0.81264251124E+03  0.91675660931E+03  0.40103931448E+03 0.  0.
    9000005    1    3    3    0    0  0.14296716089E+03  0.88491902433E+02 -0.85151709355E+03  0.86795897743E+03  0.99999687468E+00 0.  0.
          4    1    3    3  502    0 -0.24925567478E+02 -0.15769965554E+02  0.38874582311E+02  0.48797631884E+02  0.00000000000E+00 0.  1.
   -9000007    1    1    2    0  501 -0.11804159342E+03 -0.72721936880E+02 -0.74503453804E+03  0.85691234135E+03  0.40000000000E+03 0.  1.
<mgrwt>
<rscale>  2 0.42383733E+03</rscale>
<asrwt>0</asrwt>
<pdfrwt beam="1">  1        2 0.25625738E+00 0.42383733E+03</pdfrwt>
<pdfrwt beam="2">  1       -2 0.16614762E-01 0.42383733E+03</pdfrwt>
<totfact> 0.31576706E+02</totfact>
</mgrwt>
</event>
<event>
 6    1  0.8938744E-004  0.5700758E+03  0.7818608E-02  0.9969511E-01
         -2   -1    0    0    0  501 -0.00000000000E+00  0.00000000000E+00  0.38223382359E+03  0.38223382359E+03  0.00000000000E+00 0. -1.
          2   -1    0    0  502    0  0.00000000000E+00 -0.00000000000E+00 -0.90609453713E+03  0.90609453713E+03  0.00000000000E+00 0.  1.
    9000007    2    1    2  502    0  0.25622150930E+03 -0.31466430732E+03 -0.42200079292E+03  0.70950323035E+03  0.40080802951E+03 0.  0.
    9000005    1    3    3    0    0  0.19824075860E+03  0.45674714069E+02 -0.12334401937E+03  0.23790822807E+03  0.99999687468E+00 0.  0.
          4    1    3    3  502    0  0.57980750698E+02 -0.36033902139E+03 -0.29865677355E+03  0.47159500228E+03  0.00000000000E+00 0.  1.
   -9000007    1    1    2    0  501 -0.25622150930E+03  0.31466430732E+03 -0.10185992062E+03  0.57882513038E+03  0.40000000000E+03 0. -1.
<mgrwt>
<rscale>  2 0.57007584E+03</rscale>
<asrwt>0</asrwt>
<pdfrwt beam="1">  1        2 0.13939916E+00 0.57007584E+03</pdfrwt>
<pdfrwt beam="2">  1       -2 0.58805204E-01 0.57007584E+03</pdfrwt>
<totfact> 0.80780815E+01</totfact>
</mgrwt>
</event>
<event>
 6    1  0.8938744E-004  0.4499161E+03  0.7818608E-02  0.1027747E+00
         -1   -1    0    0    0  501 -0.00000000000E+00  0.00000000000E+00  0.23511152397E+03  0.23511152397E+03  0.00000000000E+00 0.  1.
          1   -1    0    0  502    0  0.00000000000E+00 -0.00000000000E+00 -0.89351904045E+03  0.89351904045E+03  0.00000000000E+00 0. -1.
    9000007    2    1    2  502    0 -0.17441736542E+03  0.10773021700E+03 -0.43721582993E+03  0.62767849165E+03  0.40099300484E+03 0.  0.
    9000005    1    3    3    0    0 -0.18268804305E+03  0.22440056449E+03 -0.41914581778E+03  0.50932774416E+03  0.99999687468E+00 0.  0.
          4    1    3    3  502    0  0.82706776259E+01 -0.11667034749E+03 -0.18070012150E+02  0.11835074749E+03  0.00000000000E+00 0.  1.
   -9000007    1    1    2    0  501  0.17441736542E+03 -0.10773021700E+03 -0.22119168655E+03  0.50095207277E+03  0.40000000000E+03 0. -1.
<mgrwt>
<rscale>  2 0.44991613E+03</rscale>
<asrwt>0</asrwt>
<pdfrwt beam="1">  1        1 0.13746447E+00 0.44991613E+03</pdfrwt>
<pdfrwt beam="2">  1       -1 0.36171004E-01 0.44991613E+03</pdfrwt>
<totfact> 0.14062066E+02</totfact>
</mgrwt>
</event>
<event>
 6    1  0.8938744E-004  0.5228423E+03  0.7818608E-02  0.1007983E+00
         -1   -1    0    0    0  501 -0.00000000000E+00  0.00000000000E+00  0.52618494282E+03  0.52618494282E+03  0.00000000000E+00 0.  1.
          1   -1    0    0  502    0  0.00000000000E+00 -0.00000000000E+00 -0.55670264762E+03  0.55670264762E+03  0.00000000000E+00 0. -1.
    9000007    2    1    2  502    0  0.22508604316E+03 -0.25075538080E+03  0.12467445324E+03  0.53733594876E+03  0.39955502088E+03 0.  0.
    9000005    1    3    3    0    0  0.11513798261E+03  0.38499898833E+02 -0.98061065902E+02  0.15606399293E+03  0.99999687468E+00 0.  0.
          4    1    3    3  502    0  0.10994806055E+03 -0.28925527963E+03  0.22273551914E+03  0.38127195583E+03  0.00000000000E+00 0.  1.
   -9000007    1    1    2    0  501 -0.22508604316E+03  0.25075538080E+03 -0.15519215804E+03  0.54555164168E+03  0.40000000000E+03 0. -1.
<mgrwt>
<rscale>  2 0.52284227E+03</rscale>
<asrwt>0</asrwt>
<pdfrwt beam="1">  1        1 0.85646561E-01 0.52284227E+03</pdfrwt>
<pdfrwt beam="2">  1       -1 0.80951530E-01 0.52284227E+03</pdfrwt>
<totfact> 0.60519372E+01</totfact>
</mgrwt>
</event>
<event>
 6    1  0.8938744E-004  0.4154332E+03  0.7818608E-02  0.1038563E+00
          2   -1    0    0  502    0  0.00000000000E+00  0.00000000000E+00  0.85652926350E+03  0.85652926350E+03  0.00000000000E+00 0. -1.
         -2   -1    0    0    0  501 -0.00000000000E+00 -0.00000000000E+00 -0.21938068732E+03  0.21938068732E+03  0.00000000000E+00 0.  1.
    9000007    2    1    2  502    0 -0.11201671158E+03 -0.15184088264E+02  0.16479935275E+03  0.44671038861E+03  0.39951601272E+03 0.  0.
    9000005    1    3    3    0    0  0.14785995263E+03 -0.18869183946E+02  0.23569603449E+02  0.15091433959E+03  0.99999687468E+00 0.  0.
          4    1    3    3  502    0 -0.25987666421E+03  0.36850956824E+01  0.14122974930E+03  0.29579604902E+03  0.00000000000E+00 0.  1.
   -9000007    1    1    2    0  501  0.11201671158E+03  0.15184088264E+02  0.47234922342E+03  0.62919956220E+03  0.40000000000E+03 0.  1.
<mgrwt>
<rscale>  2 0.41543316E+03</rscale>
<asrwt>0</asrwt>
<pdfrwt beam="1">  1        2 0.13177373E+00 0.41543316E+03</pdfrwt>
<pdfrwt beam="2">  1       -2 0.33750875E-01 0.41543316E+03</pdfrwt>
<totfact> 0.26545654E+02</totfact>
</mgrwt>
</event>
<event>
 6    1  0.8938744E-004  0.4290341E+03  0.7818608E-02  0.1034166E+00
          2   -1    0    0  502    0  0.00000000000E+00  0.00000000000E+00  0.91987616365E+03  0.91987616365E+03  0.00000000000E+00 0. -1.
         -2   -1    0    0    0  501 -0.00000000000E+00 -0.00000000000E+00 -0.20058086865E+03  0.20058086865E+03  0.00000000000E+00 0.  1.
    9000007    2    1    2  502    0 -0.14691977809E+03 -0.49595315740E+02  0.38700705761E+03  0.57781480280E+03  0.40006295399E+03 0.  0.
    9000005    1    3    3    0    0 -0.40777032403E+02  0.85468758771E+02  0.39466026324E+03  0.40586376836E+03  0.99999687468E+00 0.  0.
          4    1    3    3  502    0 -0.10614274569E+03 -0.13506407451E+03 -0.76532056266E+01  0.17195103443E+03  0.00000000000E+00 0.  1.
   -9000007    1    1    2    0  501  0.14691977809E+03  0.49595315740E+02  0.33228823739E+03  0.54264222951E+03  0.40000000000E+03 0.  1.
<mgrwt>
<rscale>  2 0.42903415E+03</rscale>
<asrwt>0</asrwt>
<pdfrwt beam="1">  1        2 0.14151941E+00 0.42903415E+03</pdfrwt>
<pdfrwt beam="2">  1       -2 0.30858596E-01 0.42903415E+03</pdfrwt>
<totfact> 0.28431814E+02</totfact>
</mgrwt>
</event>
<event>
 6    1  0.8938744E-004  0.5087391E+03  0.7818608E-02  0.1011523E+00
         -2   -1    0    0    0  501 -0.00000000000E+00  0.00000000000E+00  0.30457521137E+03  0.30457521137E+03  0.00000000000E+00 0. -1.
          2   -1    0    0  502    0  0.00000000000E+00 -0.00000000000E+00 -0.10608832180E+04  0.10608832180E+04  0.00000000000E+00 0.  1.
    9000007    2    1    2  502    0 -0.29618648030E+03 -0.10543807637E+03 -0.68270528164E+03  0.85139522292E+03  0.39992962502E+03 0.  0.
    9000005    1    3    3    0    0 -0.18166081836E+02 -0.21001194853E+03 -0.25897769746E+03  0.33392435196E+03  0.99999687468E+00 0.  0.
          4    1    3    3  502    0 -0.27802039847E+03  0.10457387216E+03 -0.42372758418E+03  0.51747087096E+03  0.00000000000E+00 0.  1.
   -9000007    1    1    2    0  501  0.29618648030E+03  0.10543807637E+03 -0.73602724947E+02  0.51406320641E+03  0.40000000000E+03 0. -1.
<mgrwt>
<rscale>  2 0.50873910E+03</rscale>
<asrwt>0</asrwt>
<pdfrwt beam="1">  1        2 0.16321280E+00 0.50873910E+03</pdfrwt>
<pdfrwt beam="2">  1       -2 0.46857725E-01 0.50873910E+03</pdfrwt>
<totfact> 0.10309914E+02</totfact>
</mgrwt>
</event>
<event>
 6    1  0.8938744E-004  0.5059737E+03  0.7818608E-02  0.1012231E+00
          2   -1    0    0  502    0  0.00000000000E+00  0.00000000000E+00  0.14628286074E+04  0.14628286074E+04  0.00000000000E+00 0. -1.
         -2   -1    0    0    0  501 -0.00000000000E+00 -0.00000000000E+00 -0.17597821369E+03  0.17597821369E+03  0.00000000000E+00 0.  1.
    9000007    2    1    2  502    0 -0.71256757511E+02  0.30145945836E+03  0.58270878216E+03  0.77175968302E+03  0.40013516842E+03 0.  0.
    9000005    1    3    3    0    0 -0.80582836547E+02  0.60890176196E+02  0.51052527692E+03  0.52042123849E+03  0.99999687468E+00 0.  0.
          4    1    3    3  502    0  0.93260790360E+01  0.24056928216E+03  0.72183505236E+02  0.25133844453E+03  0.00000000000E+00 0.  1.
   -9000007    1    1    2    0  501  0.71256757511E+02 -0.30145945836E+03  0.70414161155E+03  0.86704713808E+03  0.40000000000E+03 0. -1.
<mgrwt>
<rscale>  2 0.50597372E+03</rscale>
<asrwt>0</asrwt>
<pdfrwt beam="1">  1        2 0.22505055E+00 0.50597372E+03</pdfrwt>
<pdfrwt beam="2">  1       -2 0.27073572E-01 0.50597372E+03</pdfrwt>
<totfact> 0.17154293E+02</totfact>
</mgrwt>
</event>
<event>
 6    1  0.8938744E-004  0.3992680E+03  0.7818608E-02  0.1044033E+00
         -1   -1    0    0    0  501 -0.00000000000E+00  0.00000000000E+00  0.18018669360E+04  0.18018669360E+04  0.00000000000E+00 0. -1.
          1   -1    0    0  502    0  0.00000000000E+00 -0.00000000000E+00 -0.88722158675E+02  0.88722158675E+02  0.00000000000E+00 0.  1.
    9000007    2    1    2  502    0  0.24794775964E+02 -0.20286109361E+02  0.90223625647E+03  0.98582451958E+03  0.39597148100E+03 0.  0.
    9000005    1    3    3    0    0  0.16069013831E+03 -0.33137059943E+02  0.79632801227E+03  0.81305515706E+03  0.99999687468E+00 0.  0.
          4    1    3    3  502    0 -0.13589536235E+03  0.12850950582E+02  0.10590824420E+03  0.17276936252E+03  0.00000000000E+00 0.  1.
   -9000007    1    1    2    0  501 -0.24794775964E+02  0.20286109361E+02  0.81090852083E+03  0.90476457507E+03  0.40000000000E+03 0.  1.
<mgrwt>
<rscale>  2 0.39926802E+03</rscale>
<asrwt>0</asrwt>
<pdfrwt beam="1">  1        1 0.13649564E-01 0.39926802E+03</pdfrwt>
<pdfrwt beam="2">  1       -1 0.27721027E+00 0.39926802E+03</pdfrwt>
<totfact> 0.22076138E+01</totfact>
</mgrwt>
</event>
<event>
 6    1  0.8938744E-004  0.4379268E+03  0.7818608E-02  0.1031385E+00
         -1   -1    0    0    0  501 -0.00000000000E+00  0.00000000000E+00  0.47590790664E+03  0.47590790664E+03  0.00000000000E+00 0. -1.
          1   -1    0    0  502    0  0.00000000000E+00 -0.00000000000E+00 -0.40544619323E+03  0.40544619323E+03  0.00000000000E+00 0.  1.
    9000007    2    1    2  502    0  0.14667083650E+03 -0.10135975449E+03  0.69621039550E+02  0.44341935491E+03  0.39998437601E+03 0.  0.
    9000005    1    3    3    0    0  0.75333963971E+02 -0.23752097404E+03 -0.42993451676E+02  0.25286529243E+03  0.99999687468E+00 0.  0.
          4    1    3    3  502    0  0.71336872533E+02  0.13616121955E+03  0.11261449123E+03  0.19055406248E+03  0.00000000000E+00 0.  1.
   -9000007    1    1    2    0  501 -0.14667083650E+03  0.10135975449E+03  0.84067385624E+00  0.43793474496E+03  0.40000000000E+03 0.  1.
<mgrwt>
<rscale>  2 0.43792680E+03</rscale>
<asrwt>0</asrwt>
<pdfrwt beam="1">  1        1 0.62376337E-01 0.43792680E+03</pdfrwt>
<pdfrwt beam="2">  1       -1 0.73216602E-01 0.43792680E+03</pdfrwt>
<totfact> 0.11540296E+02</totfact>
</mgrwt>
</event>
<event>
 6    1  0.8938744E-004  0.5173487E+03  0.7818608E-02  0.1009347E+00
         -1   -1    0    0    0  501 -0.00000000000E+00  0.00000000000E+00  0.26195907718E+03  0.26195907718E+03  0.00000000000E+00 0.  1.
          1   -1    0    0  502    0  0.00000000000E+00 -0.00000000000E+00 -0.10736922879E+04  0.10736922879E+04  0.00000000000E+00 0. -1.
    9000007    2    1    2  502    0  0.30030896817E+02 -0.32650921090E+03 -0.25904246180E+03  0.57869880152E+03  0.40034883077E+03 0.  0.
    9000005    1    3    3    0    0 -0.15416282447E+03 -0.25196956624E+03 -0.68136753417E+02  0.30314758109E+03  0.99999687468E+00 0.  0.
          4    1    3    3  502    0  0.18419372129E+03 -0.74539644659E+02 -0.19090570838E+03  0.27555122043E+03  0.00000000000E+00 0.  1.
   -9000007    1    1    2    0  501 -0.30030896817E+02  0.32650921090E+03 -0.55269074895E+03  0.75695256360E+03  0.40000000000E+03 0.  1.
<mgrwt>
<rscale>  2 0.51734870E+03</rscale>
<asrwt>0</asrwt>
<pdfrwt beam="1">  1        1 0.16518343E+00 0.51734870E+03</pdfrwt>
<pdfrwt beam="2">  1       -1 0.40301396E-01 0.51734870E+03</pdfrwt>
<totfact> 0.83436711E+01</totfact>
</mgrwt>
</event>
<event>
 6    1  0.8938744E-004  0.5485931E+03  0.7818608E-02  0.1001820E+00
         -1   -1    0    0    0  501 -0.00000000000E+00  0.00000000000E+00  0.81220269678E+03  0.81220269678E+03  0.00000000000E+00 0.  1.
          1   -1    0    0  502    0  0.00000000000E+00 -0.00000000000E+00 -0.53615478109E+03  0.53615478109E+03  0.00000000000E+00 0. -1.
    9000007    2    1    2  502    0 -0.22267741423E+03  0.30230259725E+03  0.51271636241E+03  0.75087605994E+03  0.39995587006E+03 0.  0.
    9000005    1    3    3    0    0 -0.10205823469E+03 -0.91244550830E+02  0.12329936565E+03  0.18424219084E+03  0.99999687468E+00 0.  0.
          4    1    3    3  502    0 -0.12061917954E+03  0.39354714808E+03  0.38941699676E+03  0.56663386909E+03  0.00000000000E+00 0.  1.
   -9000007    1    1    2    0  501  0.22267741423E+03 -0.30230259725E+03 -0.23666844671E+03  0.59748141794E+03  0.40000000000E+03 0. -1.
<mgrwt>
<rscale>  2 0.54859315E+03</rscale>
<asrwt>0</asrwt>
<pdfrwt beam="1">  1        1 0.82485351E-01 0.54859315E+03</pdfrwt>
<pdfrwt beam="2">  1       -1 0.12495426E+00 0.54859315E+03</pdfrwt>
<totfact> 0.23669595E+01</totfact>
</mgrwt>
</event>
<event>
 6    1  0.8938744E-004  0.4069893E+03  0.7818608E-02  0.1041386E+00
          2   -1    0    0  502    0  0.00000000000E+00  0.00000000000E+00  0.57264677280E+03  0.57264677280E+03  0.00000000000E+00 0. -1.
         -2   -1    0    0    0  501 -0.00000000000E+00 -0.00000000000E+00 -0.29603356080E+03  0.29603356080E+03  0.00000000000E+00 0.  1.
    9000007    2    1    2  502    0  0.77142661133E+02 -0.33221102372E+01  0.72446927275E+02  0.41299853849E+03  0.39919570255E+03 0.  0.
    9000005    1    3    3    0    0  0.22549307187E+03 -0.60050907432E+02  0.96198972147E+02  0.25240538660E+03  0.99999687468E+00 0.  0.
          4    1    3    3  502    0 -0.14835041074E+03  0.56728797194E+02 -0.23752044872E+02  0.16059315189E+03  0.00000000000E+00 0.  1.
   -9000007    1    1    2    0  501 -0.77142661133E+02  0.33221102372E+01  0.20416628472E+03  0.45568179511E+03  0.40000000000E+03 0. -1.
<mgrwt>
<rscale>  2 0.40698934E+03</rscale>
<asrwt>0</asrwt>
<pdfrwt beam="1">  1        2 0.88099503E-01 0.40698934E+03</pdfrwt>
<pdfrwt beam="2">  1       -2 0.45543625E-01 0.40698934E+03</pdfrwt>
<totfact> 0.24611255E+02</totfact>
</mgrwt>
</event>
<event>
 6    1  0.8938744E-004  0.4566897E+03  0.7818608E-02  0.1025746E+00
         -2   -1    0    0    0  501 -0.00000000000E+00  0.00000000000E+00  0.13833817155E+03  0.13833817155E+03  0.00000000000E+00 0.  1.
          2   -1    0    0  502    0  0.00000000000E+00 -0.00000000000E+00 -0.18683520844E+04  0.18683520844E+04  0.00000000000E+00 0. -1.
    9000007    2    1    2  502    0  0.11874169859E+03  0.18571301218E+03 -0.13058225438E+04  0.13833707300E+04  0.39994142920E+03 0.  0.
    9000005    1    3    3    0    0  0.18435167135E+03  0.25391043016E+03 -0.12046193290E+04  0.12448151562E+04  0.99999687468E+00 0.  0.
          4    1    3    3  502    0 -0.65609972762E+02 -0.68197417980E+02 -0.10120321482E+03  0.13855557381E+03  0.00000000000E+00 0.  1.
   -9000007    1    1    2    0  501 -0.11874169859E+03 -0.18571301218E+03 -0.42419136905E+03  0.62331952597E+03  0.40000000000E+03 0.  1.
<mgrwt>
<rscale>  2 0.45668970E+03</rscale>
<asrwt>0</asrwt>
<pdfrwt beam="1">  1        2 0.28743878E+00 0.45668970E+03</pdfrwt>
<pdfrwt beam="2">  1       -2 0.21282795E-01 0.45668970E+03</pdfrwt>
<totfact> 0.15987897E+02</totfact>
</mgrwt>
</event>
<event>
 6    1  0.8938744E-004  0.5671501E+03  0.7818608E-02  0.9976005E-01
          2   -1    0    0  502    0  0.00000000000E+00  0.00000000000E+00  0.29429976139E+04  0.29429976139E+04  0.00000000000E+00 0. -1.
         -2   -1    0    0    0  501 -0.00000000000E+00 -0.00000000000E+00 -0.21185867350E+03  0.21185867350E+03  0.00000000000E+00 0.  1.
    9000007    2    1    2  502    0 -0.39819570579E+03  0.44537683000E+02  0.24643303567E+04  0.25289727155E+04  0.40278463623E+03 0.  0.
    9000005    1    3    3    0    0 -0.32604215595E+03 -0.94178336895E+02  0.21632845794E+04  0.21897429571E+04  0.99999687468E+00 0.  0.
          4    1    3    3  502    0 -0.72153549838E+02  0.13871601990E+03  0.30104577728E+03  0.33922975835E+03  0.00000000000E+00 0.  1.
   -9000007    1    1    2    0  501  0.39819570579E+03 -0.44537683000E+02  0.26680858372E+03  0.62588357197E+03  0.40000000000E+03 0.  1.
<mgrwt>
<rscale>  2 0.56715008E+03</rscale>
<asrwt>0</asrwt>
<pdfrwt beam="1">  1        2 0.45276883E+00 0.56715008E+03</pdfrwt>
<pdfrwt beam="2">  1       -2 0.32593644E-01 0.56715008E+03</pdfrwt>
<totfact> 0.18173143E+01</totfact>
</mgrwt>
</event>
<event>
 6    1  0.8938744E-004  0.4122172E+03  0.7818608E-02  0.1039630E+00
         -2   -1    0    0    0  501 -0.00000000000E+00  0.00000000000E+00  0.15129842703E+03  0.15129842703E+03  0.00000000000E+00 0.  1.
          2   -1    0    0  502    0  0.00000000000E+00 -0.00000000000E+00 -0.11322791702E+04  0.11322791702E+04  0.00000000000E+00 0. -1.
    9000007    2    1    2  502    0 -0.87759554193E+02 -0.48439045397E+02 -0.43252112669E+03  0.59738809617E+03  0.39968729270E+03 0.  0.
    9000005    1    3    3    0    0 -0.13834375491E+03  0.50564764744E+02 -0.45987972260E+03  0.48289351746E+03  0.99999687468E+00 0.  0.
          4    1    3    3  502    0  0.50584200716E+02 -0.99003810141E+02  0.27358595905E+02  0.11449457871E+03  0.00000000000E+00 0.  1.
   -9000007    1    1    2    0  501  0.87759554193E+02  0.48439045397E+02 -0.54845961652E+03  0.68618950111E+03  0.40000000000E+03 0. -1.
<mgrwt>
<rscale>  2 0.41221718E+03</rscale>
<asrwt>0</asrwt>
<pdfrwt beam="1">  1        2 0.17419680E+00 0.41221718E+03</pdfrwt>
<pdfrwt beam="2">  1       -2 0.23276681E-01 0.41221718E+03</pdfrwt>
<totfact> 0.34997252E+02</totfact>
</mgrwt>
</event>
<event>
 6    1  0.8938744E-004  0.4739410E+03  0.7818608E-02  0.1020814E+00
          1   -1    0    0  502    0  0.00000000000E+00  0.00000000000E+00  0.11232526171E+03  0.11232526171E+03  0.00000000000E+00 0.  1.
         -1   -1    0    0    0  501 -0.00000000000E+00 -0.00000000000E+00 -0.22731585031E+04  0.22731585031E+04  0.00000000000E+00 0. -1.
    9000007    2    1    2  502    0  0.19616082495E+03 -0.16233724549E+03 -0.66629724800E+03  0.81753278151E+03  0.39946886691E+03 0.  0.
    9000005    1    3    3    0    0 -0.65856751193E+02 -0.18681132941E+03 -0.19627514651E+03  0.27885572902E+03  0.99999687468E+00 0.  0.
          4    1    3    3  502    0  0.26201757614E+03  0.24474083922E+02 -0.47002210149E+03  0.53867705249E+03  0.00000000000E+00 0.  1.
   -9000007    1    1    2    0  501 -0.19616082495E+03  0.16233724549E+03 -0.14945359934E+04  0.15679509833E+04  0.40000000000E+03 0. -1.
<mgrwt>
<rscale>  2 0.47394096E+03</rscale>
<asrwt>0</asrwt>
<pdfrwt beam="1">  1        1 0.17280809E-01 0.47394096E+03</pdfrwt>
<pdfrwt beam="2">  1       -1 0.34971670E+00 0.47394096E+03</pdfrwt>
<totfact> 0.54902241E+00</totfact>
</mgrwt>
</event>
<event>
 6    1  0.8938744E-004  0.4097833E+03  0.7818608E-02  0.1040444E+00
         -2   -1    0    0    0  501 -0.00000000000E+00  0.00000000000E+00  0.66749154888E+03  0.66749154888E+03  0.00000000000E+00 0. -1.
          2   -1    0    0  502    0  0.00000000000E+00 -0.00000000000E+00 -0.26524823848E+03  0.26524823848E+03  0.00000000000E+00 0.  1.
    9000007    2    1    2  502    0  0.90613807450E+02 -0.88314641497E+01  0.30680963648E+03  0.51155521621E+03  0.39908361196E+03 0.  0.
    9000005    1    3    3    0    0  0.10253331715E+03 -0.14580528756E+03  0.32715789585E+03  0.37256617106E+03  0.99999687468E+00 0.  0.
          4    1    3    3  502    0 -0.11919509695E+02  0.13697382342E+03 -0.20348259369E+02  0.13898904515E+03  0.00000000000E+00 0.  1.
   -9000007    1    1    2    0  501 -0.90613807450E+02  0.88314641497E+01  0.95433673926E+02  0.42118457115E+03  0.40000000000E+03 0.  1.
<mgrwt>
<rscale>  2 0.40978326E+03</rscale>
<asrwt>0</asrwt>
<pdfrwt beam="1">  1        2 0.40807422E-01 0.40978326E+03</pdfrwt>
<pdfrwt beam="2">  1       -2 0.10269101E+00 0.40978326E+03</pdfrwt>
<totfact> 0.10042457E+02</totfact>
</mgrwt>
</event>
<event>
 6    1  0.8938744E-004  0.4245535E+03  0.7818608E-02  0.1035594E+00
          1   -1    0    0  502    0  0.00000000000E+00  0.00000000000E+00  0.68823419538E+03  0.68823419538E+03  0.00000000000E+00 0. -1.
         -1   -1    0    0    0  501 -0.00000000000E+00 -0.00000000000E+00 -0.48439281681E+03  0.48439281681E+03  0.00000000000E+00 0.  1.
    9000007    2    1    2  502    0 -0.16132045707E+02  0.14223827207E+03  0.49925105901E+03  0.65517281302E+03  0.39938430873E+03 0.  0.
    9000005    1    3    3    0    0 -0.14543679778E+03  0.16293510633E+03  0.47387831013E+03  0.52178670339E+03  0.99999687468E+00 0.  0.
          4    1    3    3  502    0  0.12930475208E+03 -0.20696834260E+02  0.25372748876E+02  0.13338610963E+03  0.00000000000E+00 0.  1.
   -9000007    1    1    2    0  501  0.16132045707E+02 -0.14223827207E+03 -0.29540968044E+03  0.51745419917E+03  0.40000000000E+03 0.  1.
<mgrwt>
<rscale>  2 0.42455355E+03</rscale>
<asrwt>0</asrwt>
<pdfrwt beam="1">  1        1 0.10588218E+00 0.42455355E+03</pdfrwt>
<pdfrwt beam="2">  1       -1 0.74521972E-01 0.42455355E+03</pdfrwt>
<totfact> 0.53774065E+01</totfact>
</mgrwt>
</event>
<event>
 6    1  0.8938744E-004  0.4370839E+03  0.7818608E-02  0.1031645E+00
         -2   -1    0    0    0  501 -0.00000000000E+00  0.00000000000E+00  0.81338034850E+02  0.81338034850E+02  0.00000000000E+00 0.  1.
          2   -1    0    0  502    0  0.00000000000E+00 -0.00000000000E+00 -0.33401049140E+04  0.33401049140E+04  0.00000000000E+00 0. -1.
    9000007    2    1    2  502    0 -0.12239228485E+03  0.12624527757E+03 -0.69775952616E+03  0.82342901441E+03  0.40031143366E+03 0.  0.
    9000005    1    3    3    0    0 -0.43640695875E+02  0.21823771890E+03 -0.66010272440E+03  0.69661238795E+03  0.99999687468E+00 0.  0.
          4    1    3    3  502    0 -0.78751588970E+02 -0.91992441333E+02 -0.37656801763E+02  0.12681662646E+03  0.00000000000E+00 0.  1.
   -9000007    1    1    2    0  501  0.12239228485E+03 -0.12624527757E+03 -0.25610073530E+04  0.25980139344E+04  0.40000000000E+03 0. -1.
<mgrwt>
<rscale>  2 0.43708389E+03</rscale>
<asrwt>0</asrwt>
<pdfrwt beam="1">  1        2 0.51386230E+00 0.43708389E+03</pdfrwt>
<pdfrwt beam="2">  1       -2 0.12513544E-01 0.43708389E+03</pdfrwt>
<totfact> 0.56488961E+01</totfact>
</mgrwt>
</event>
<event>
 6    1  0.8938744E-004  0.5060213E+03  0.7818608E-02  0.1012219E+00
          2   -1    0    0  502    0  0.00000000000E+00  0.00000000000E+00  0.10638107224E+04  0.10638107224E+04  0.00000000000E+00 0. -1.
         -2   -1    0    0    0  501 -0.00000000000E+00 -0.00000000000E+00 -0.24436987864E+03  0.24436987864E+03  0.00000000000E+00 0.  1.
    9000007    2    1    2  502    0 -0.20086166944E+03  0.23562685589E+03  0.49004552516E+03  0.70455265157E+03  0.40048020755E+03 0.  0.
    9000005    1    3    3    0    0 -0.15566809050E+03 -0.79723351051E+02  0.25253905346E+03  0.30718942140E+03  0.99999687468E+00 0.  0.
          4    1    3    3  502    0 -0.45193578934E+02  0.31535020694E+03  0.23750647170E+03  0.39736323017E+03  0.00000000000E+00 0.  1.
   -9000007    1    1    2    0  501  0.20086166944E+03 -0.23562685589E+03  0.32939531861E+03  0.60362794947E+03  0.40000000000E+03 0.  1.
<mgrwt>
<rscale>  2 0.50602130E+03</rscale>
<asrwt>0</asrwt>
<pdfrwt beam="1">  1        2 0.16366319E+00 0.50602130E+03</pdfrwt>
<pdfrwt beam="2">  1       -2 0.37595366E-01 0.50602130E+03</pdfrwt>
<totfact> 0.15800787E+02</totfact>
</mgrwt>
</event>
<event>
 6    1  0.8938744E-004  0.4392488E+03  0.7818608E-02  0.1030978E+00
         -2   -1    0    0    0  501 -0.00000000000E+00  0.00000000000E+00  0.10553394860E+03  0.10553394860E+03  0.00000000000E+00 0. -1.
          2   -1    0    0  502    0  0.00000000000E+00 -0.00000000000E+00 -0.22400631839E+04  0.22400631839E+04  0.00000000000E+00 0.  1.
    9000007    2    1    2  502    0  0.53348995528E+02  0.17397178739E+03 -0.15697472505E+04  0.16299918023E+04  0.39956795076E+03 0.  0.
    9000005    1    3    3    0    0  0.14979489056E+03 -0.61133020096E+02 -0.37326240619E+03  0.40681885312E+03  0.99999687468E+00 0.  0.
          4    1    3    3  502    0 -0.96445895032E+02  0.23510480748E+03 -0.11964848443E+04  0.12231729492E+04  0.00000000000E+00 0.  1.
   -9000007    1    1    2    0  501 -0.53348995528E+02 -0.17397178739E+03 -0.56478198485E+03  0.71560533015E+03  0.40000000000E+03 0. -1.
<mgrwt>
<rscale>  2 0.43924878E+03</rscale>
<asrwt>0</asrwt>
<pdfrwt beam="1">  1        2 0.34462512E+00 0.43924878E+03</pdfrwt>
<pdfrwt beam="2">  1       -2 0.16235991E-01 0.43924878E+03</pdfrwt>
<totfact> 0.16106825E+02</totfact>
</mgrwt>
</event>
<event>
 6    1  0.8938744E-004  0.4952538E+03  0.7818608E-02  0.1015025E+00
         -1   -1    0    0    0  501 -0.00000000000E+00  0.00000000000E+00  0.10191563760E+03  0.10191563760E+03  0.00000000000E+00 0. -1.
          1   -1    0    0  502    0  0.00000000000E+00 -0.00000000000E+00 -0.26641133749E+04  0.26641133749E+04  0.00000000000E+00 0.  1.
    9000007    2    1    2  502    0 -0.26670602760E+03  0.11968742978E+03 -0.17106033889E+04  0.17808030890E+04  0.39954787180E+03 0.  0.
    9000005    1    3    3    0    0 -0.26755385854E+03 -0.73746044622E+02 -0.72306364706E+03  0.77449698774E+03  0.99999687468E+00 0.  0.
          4    1    3    3  502    0  0.84783094660E+00  0.19343347440E+03 -0.98753974180E+03  0.10063061013E+04  0.00000000000E+00 0.  1.
   -9000007    1    1    2    0  501  0.26670602760E+03 -0.11968742978E+03 -0.85159434840E+03  0.98522592344E+03  0.40000000000E+03 0. -1.
<mgrwt>
<rscale>  2 0.49525384E+03</rscale>
<asrwt>0</asrwt>
<pdfrwt beam="1">  1        1 0.40986361E+00 0.49525384E+03</pdfrwt>
<pdfrwt beam="2">  1       -1 0.15679329E-01 0.49525384E+03</pdfrwt>
<totfact> 0.34804353E+01</totfact>
</mgrwt>
</event>
<event>
 6    1  0.8938744E-004  0.5049355E+03  0.7818608E-02  0.1012499E+00
         -2   -1    0    0    0  501 -0.00000000000E+00  0.00000000000E+00  0.11049979463E+03  0.11049979463E+03  0.00000000000E+00 0. -1.
          2   -1    0    0  502    0  0.00000000000E+00 -0.00000000000E+00 -0.23281776967E+04  0.23281776967E+04  0.00000000000E+00 0.  1.
    9000007    2    1    2  502    0 -0.13692312945E+03 -0.27681140849E+03 -0.12233212880E+04  0.13232773052E+04  0.39896786033E+03 0.  0.
    9000005    1    3    3    0    0 -0.16738450813E+03 -0.33519424874E+03 -0.68348349374E+03  0.77943790270E+03  0.99999687468E+00 0.  0.
          4    1    3    3  502    0  0.30461378681E+02  0.58382840244E+02 -0.53983779423E+03  0.54383940249E+03  0.00000000000E+00 0.  1.
   -9000007    1    1    2    0  501  0.13692312945E+03  0.27681140849E+03 -0.99435661415E+03  0.11154001862E+04  0.40000000000E+03 0. -1.
<mgrwt>
<rscale>  2 0.50493548E+03</rscale>
<asrwt>0</asrwt>
<pdfrwt beam="1">  1        2 0.35818115E+00 0.50493548E+03</pdfrwt>
<pdfrwt beam="2">  1       -2 0.16999970E-01 0.50493548E+03</pdfrwt>
<totfact> 0.13189234E+02</totfact>
</mgrwt>
</event>
<event>
 6    1  0.8938744E-004  0.4684041E+03  0.7818608E-02  0.1022372E+00
         -3   -1    0    0    0  501 -0.00000000000E+00  0.00000000000E+00  0.46752587494E+03  0.46752587494E+03  0.00000000000E+00 0.  1.
          3   -1    0    0  502    0  0.00000000000E+00 -0.00000000000E+00 -0.49703116333E+03  0.49703116333E+03  0.00000000000E+00 0. -1.
    9000007    2    1    2  502    0  0.18117365323E+03  0.16291758189E+03 -0.12870393827E+03  0.48580198268E+03  0.40009102906E+03 0.  0.
    9000005    1    3    3    0    0  0.25636574237E+03  0.22421031795E+03 -0.16966429973E+03  0.38050050609E+03  0.99999687468E+00 0.  0.
          4    1    3    3  502    0 -0.75192089138E+02 -0.61292736062E+02  0.40960361453E+02  0.10530147660E+03  0.00000000000E+00 0.  1.
   -9000007    1    1    2    0  501 -0.18117365323E+03 -0.16291758189E+03  0.99198649882E+02  0.47875505559E+03  0.40000000000E+03 0.  1.
<mgrwt>
<rscale>  2 0.46840415E+03</rscale>
<asrwt>0</asrwt>
<pdfrwt beam="1">  1        3 0.76466332E-01 0.46840415E+03</pdfrwt>
<pdfrwt beam="2">  1       -3 0.71927058E-01 0.46840415E+03</pdfrwt>
<totfact> 0.77148400E+00</totfact>
</mgrwt>
</event>
<event>
 6    1  0.8938744E-004  0.4263049E+03  0.7818608E-02  0.1035034E+00
         -2   -1    0    0    0  501 -0.00000000000E+00  0.00000000000E+00  0.29833970226E+03  0.29833970226E+03  0.00000000000E+00 0. -1.
          2   -1    0    0  502    0  0.00000000000E+00 -0.00000000000E+00 -0.65673604612E+03  0.65673604612E+03  0.00000000000E+00 0.  1.
    9000007    2    1    2  502    0 -0.82071298230E+02 -0.12233574591E+03 -0.50679716824E+02  0.42934648795E+03  0.40008529128E+03 0.  0.
    9000005    1    3    3    0    0 -0.99299749142E+02 -0.22015684527E+03 -0.15367244332E+03  0.28626158759E+03  0.99999687468E+00 0.  0.
          4    1    3    3  502    0  0.17228450912E+02  0.97821099363E+02  0.10299272649E+03  0.14308490036E+03  0.00000000000E+00 0.  1.
   -9000007    1    1    2    0  501  0.82071298230E+02  0.12233574591E+03 -0.30771662704E+03  0.52572926044E+03  0.40000000000E+03 0.  1.
<mgrwt>
<rscale>  2 0.42630488E+03</rscale>
<asrwt>0</asrwt>
<pdfrwt beam="1">  1        2 0.10103631E+00 0.42630488E+03</pdfrwt>
<pdfrwt beam="2">  1       -2 0.45898417E-01 0.42630488E+03</pdfrwt>
<totfact> 0.20554502E+02</totfact>
</mgrwt>
</event>
<event>
 6    1  0.8938744E-004  0.4439732E+03  0.7818608E-02  0.1029535E+00
         -1   -1    0    0    0  501 -0.00000000000E+00  0.00000000000E+00  0.22375710525E+03  0.22375710525E+03  0.00000000000E+00 0.  1.
          1   -1    0    0  502    0  0.00000000000E+00 -0.00000000000E+00 -0.97702171011E+03  0.97702171011E+03  0.00000000000E+00 0. -1.
    9000007    2    1    2  502    0  0.97089493502E+02 -0.16425483967E+03 -0.18894674694E+03  0.48324089520E+03  0.40176469172E+03 0.  0.
    9000005    1    3    3    0    0  0.19952287161E+03 -0.23418183365E+03 -0.79332920477E+02  0.31771877466E+03  0.99999687468E+00 0.  0.
          4    1    3    3  502    0 -0.10243337811E+03  0.69926993979E+02 -0.10961382646E+03  0.16552212054E+03  0.00000000000E+00 0.  1.
   -9000007    1    1    2    0  501 -0.97089493502E+02  0.16425483967E+03 -0.56431785792E+03  0.71753792016E+03  0.40000000000E+03 0. -1.
<mgrwt>
<rscale>  2 0.44397318E+03</rscale>
<asrwt>0</asrwt>
<pdfrwt beam="1">  1        1 0.15031103E+00 0.44397318E+03</pdfrwt>
<pdfrwt beam="2">  1       -1 0.34424170E-01 0.44397318E+03</pdfrwt>
<totfact> 0.13200551E+02</totfact>
</mgrwt>
</event>
<event>
 6    1  0.8938744E-004  0.4337024E+03  0.7818608E-02  0.1032697E+00
          2   -1    0    0  502    0  0.00000000000E+00  0.00000000000E+00  0.25835464399E+03  0.25835464399E+03  0.00000000000E+00 0.  1.
         -2   -1    0    0    0  501 -0.00000000000E+00 -0.00000000000E+00 -0.10824794086E+04  0.10824794086E+04  0.00000000000E+00 0. -1.
    9000007    2    1    2  502    0  0.10624866507E+01 -0.16760365914E+03 -0.79567994907E+03  0.90620636938E+03  0.40001410866E+03 0.  0.
    9000005    1    3    3    0    0 -0.16162982217E+03 -0.11613941752E+03 -0.18358407532E+03  0.27077052354E+03  0.99999687468E+00 0.  0.
          4    1    3    3  502    0  0.16269230882E+03 -0.51464241615E+02 -0.61209587375E+03  0.63543584584E+03  0.00000000000E+00 0.  1.
   -9000007    1    1    2    0  501 -0.10624866507E+01  0.16760365914E+03 -0.28444815498E+02  0.43462768315E+03  0.40000000000E+03 0.  1.
<mgrwt>
<rscale>  2 0.43370239E+03</rscale>
<asrwt>0</asrwt>
<pdfrwt beam="1">  1        2 0.39746868E-01 0.43370239E+03</pdfrwt>
<pdfrwt beam="2">  1       -2 0.16653530E+00 0.43370239E+03</pdfrwt>
<totfact> 0.30497211E+01</totfact>
</mgrwt>
</event>
<event>
 6    1  0.8938744E-004  0.4699975E+03  0.7818608E-02  0.1021921E+00
         -2   -1    0    0    0  501 -0.00000000000E+00  0.00000000000E+00  0.11323175640E+03  0.11323175640E+03  0.00000000000E+00 0.  1.
          2   -1    0    0  502    0  0.00000000000E+00 -0.00000000000E+00 -0.19675616530E+04  0.19675616530E+04  0.00000000000E+00 0. -1.
    9000007    2    1    2  502    0 -0.24252286632E+03 -0.43860176316E+02 -0.83159388654E+03  0.95530240453E+03  0.40039135383E+03 0.  0.
    9000005    1    3    3    0    0 -0.17336349235E+03 -0.73788354811E+02 -0.85568851263E+03  0.87618688214E+03  0.99999687468E+00 0.  0.
          4    1    3    3  502    0 -0.69159373977E+02  0.29928178494E+02  0.24094626096E+02  0.79115522393E+02  0.00000000000E+00 0.  1.
   -9000007    1    1    2    0  501  0.24252286632E+03  0.43860176316E+02 -0.10227360100E+04  0.11254910048E+04  0.40000000000E+03 0.  1.
<mgrwt>
<rscale>  2 0.46999747E+03</rscale>
<asrwt>0</asrwt>
<pdfrwt beam="1">  1        2 0.30270177E+00 0.46999747E+03</pdfrwt>
<pdfrwt beam="2">  1       -2 0.17420272E-01 0.46999747E+03</pdfrwt>
<totfact> 0.19950831E+02</totfact>
</mgrwt>
</event>
<event>
 6    1  0.8938744E-004  0.3958435E+03  0.7818608E-02  0.1045229E+00
         -2   -1    0    0    0  501 -0.00000000000E+00  0.00000000000E+00  0.34926162262E+03  0.34926162262E+03  0.00000000000E+00 0.  1.
          2   -1    0    0  502    0  0.00000000000E+00 -0.00000000000E+00 -0.47637581308E+03  0.47637581308E+03  0.00000000000E+00 0. -1.
    9000007    2    1    2  502    0  0.83181500081E+01 -0.21154517025E+02  0.36654698372E+02  0.39281304387E+03  0.39043797883E+03 0.  0.
    9000005    1    3    3    0    0  0.38919474052E+02 -0.14078852240E+03 -0.12301010949E+03  0.19096759026E+03  0.99999687468E+00 0.  0.
          4    1    3    3  502    0 -0.30601324044E+02  0.11963400537E+03  0.15966480786E+03  0.20184545361E+03  0.00000000000E+00 0.  1.
   -9000007    1    1    2    0  501 -0.83181500081E+01  0.21154517025E+02 -0.16376888883E+03  0.43282439183E+03  0.40000000000E+03 0. -1.
<mgrwt>
<rscale>  2 0.39584346E+03</rscale>
<asrwt>0</asrwt>
<pdfrwt beam="1">  1        2 0.73288586E-01 0.39584346E+03</pdfrwt>
<pdfrwt beam="2">  1       -2 0.53732558E-01 0.39584346E+03</pdfrwt>
<totfact> 0.21820258E+02</totfact>
</mgrwt>
</event>
<event>
 6    1  0.8938744E-004  0.4337914E+03  0.7818608E-02  0.1032669E+00
          2   -1    0    0  502    0  0.00000000000E+00  0.00000000000E+00  0.43537311308E+03  0.43537311308E+03  0.00000000000E+00 0.  1.
         -2   -1    0    0    0  501 -0.00000000000E+00 -0.00000000000E+00 -0.44004153289E+03  0.44004153289E+03  0.00000000000E+00 0. -1.
    9000007    2    1    2  502    0 -0.24374595751E+02 -0.16689443515E+03  0.56039230903E+02  0.43708452807E+03  0.39931768791E+03 0.  0.
    9000005    1    3    3    0    0  0.12106523557E+03 -0.22739303502E+03  0.95414750329E+02  0.27471686918E+03  0.99999687468E+00 0.  0.
          4    1    3    3  502    0 -0.14543983132E+03  0.60498599872E+02 -0.39375519426E+02  0.16236765888E+03  0.00000000000E+00 0.  1.
   -9000007    1    1    2    0  501  0.24374595751E+02  0.16689443515E+03 -0.60707650715E+02  0.43833011790E+03  0.40000000000E+03 0.  1.
<mgrwt>
<rscale>  2 0.43379141E+03</rscale>
<asrwt>0</asrwt>
<pdfrwt beam="1">  1        2 0.66980479E-01 0.43379141E+03</pdfrwt>
<pdfrwt beam="2">  1       -2 0.67698697E-01 0.43379141E+03</pdfrwt>
<totfact> 0.14838985E+02</totfact>
</mgrwt>
</event>
<event>
 6    1  0.8938744E-004  0.7155030E+03  0.7818608E-02  0.9691081E-01
         -1   -1    0    0    0  501 -0.00000000000E+00  0.00000000000E+00  0.54501058278E+03  0.54501058278E+03  0.00000000000E+00 0.  1.
          1   -1    0    0  502    0  0.00000000000E+00 -0.00000000000E+00 -0.13889288418E+04  0.13889288418E+04  0.00000000000E+00 0. -1.
    9000007    2    1    2  502    0 -0.49914336348E+03 -0.32083051532E+03 -0.97207818814E+03  0.12069584865E+04  0.39967044846E+03 0.  0.
    9000005    1    3    3    0    0 -0.54484697062E+03 -0.27484265489E+03 -0.70641830497E+03  0.93350122010E+03  0.99999687468E+00 0.  0.
          4    1    3    3  502    0  0.45703607137E+02 -0.45987860433E+02 -0.26565988317E+03  0.27345726639E+03  0.00000000000E+00 0.  1.
   -9000007    1    1    2    0  501  0.49914336348E+03  0.32083051532E+03  0.12815992915E+03  0.72698093807E+03  0.40000000000E+03 0.  1.
<mgrwt>
<rscale>  2 0.71550299E+03</rscale>
<asrwt>0</asrwt>
<pdfrwt beam="1">  1        1 0.21368136E+00 0.71550299E+03</pdfrwt>
<pdfrwt beam="2">  1       -1 0.83847782E-01 0.71550299E+03</pdfrwt>
<totfact> 0.11488454E+01</totfact>
</mgrwt>
</event>
<event>
 6    1  0.8938744E-004  0.4740200E+03  0.7818608E-02  0.1020792E+00
         -2   -1    0    0    0  501 -0.00000000000E+00  0.00000000000E+00  0.11232616970E+03  0.11232616970E+03  0.00000000000E+00 0.  1.
          2   -1    0    0  502    0  0.00000000000E+00 -0.00000000000E+00 -0.20008559784E+04  0.20008559784E+04  0.00000000000E+00 0. -1.
    9000007    2    1    2  502    0 -0.23359642736E+03  0.10033804731E+03 -0.96068925150E+03  0.10712977427E+04  0.40014997308E+03 0.  0.
    9000005    1    3    3    0    0 -0.16313792274E+03 -0.38262109591E+02 -0.96778512509E+02  0.19350723848E+03  0.99999687468E+00 0.  0.
          4    1    3    3  502    0 -0.70458504624E+02  0.13860015690E+03 -0.86391073899E+03  0.87779050423E+03  0.00000000000E+00 0.  1.
   -9000007    1    1    2    0  501  0.23359642736E+03 -0.10033804731E+03 -0.92784055716E+03  0.10418844054E+04  0.40000000000E+03 0.  1.
<mgrwt>
<rscale>  2 0.47402005E+03</rscale>
<asrwt>0</asrwt>
<pdfrwt beam="1">  1        2 0.30782397E+00 0.47402005E+03</pdfrwt>
<pdfrwt beam="2">  1       -2 0.17280951E-01 0.47402005E+03</pdfrwt>
<totfact> 0.19398811E+02</totfact>
</mgrwt>
</event>
<event>
 6    1  0.8938744E-004  0.4505232E+03  0.7818608E-02  0.1027566E+00
          2   -1    0    0  502    0  0.00000000000E+00  0.00000000000E+00  0.87853887042E+03  0.87853887042E+03  0.00000000000E+00 0. -1.
         -2   -1    0    0    0  501 -0.00000000000E+00 -0.00000000000E+00 -0.42237620905E+03  0.42237620905E+03  0.00000000000E+00 0.  1.
    9000007    2    1    2  502    0  0.18133634108E+03 -0.96005146281E+02 -0.20944893037E+03  0.49770984557E+03  0.40217704961E+03 0.  0.
    9000005    1    3    3    0    0  0.81616948388E+02  0.50676231642E+02  0.10148247073E+03  0.13974655122E+03  0.99999687468E+00 0.  0.
          4    1    3    3  502    0  0.99719392694E+02 -0.14668137792E+03 -0.31093140110E+03  0.35796329435E+03  0.00000000000E+00 0.  1.
   -9000007    1    1    2    0  501 -0.18133634108E+03  0.96005146281E+02  0.66561159174E+03  0.80320523390E+03  0.40000000000E+03 0. -1.
<mgrwt>
<rscale>  2 0.45052322E+03</rscale>
<asrwt>0</asrwt>
<pdfrwt beam="1">  1        2 0.13515983E+00 0.45052322E+03</pdfrwt>
<pdfrwt beam="2">  1       -2 0.64980955E-01 0.45052322E+03</pdfrwt>
<totfact> 0.69148619E+01</totfact>
</mgrwt>
</event>
<event>
 6    1  0.8938744E-004  0.4008046E+03  0.7818608E-02  0.1043501E+00
         -2   -1    0    0    0  501 -0.00000000000E+00  0.00000000000E+00  0.95594279020E+02  0.95594279020E+02  0.00000000000E+00 0. -1.
          2   -1    0    0  502    0  0.00000000000E+00 -0.00000000000E+00 -0.17063822008E+04  0.17063822008E+04  0.00000000000E+00 0.  1.
    9000007    2    1    2  502    0  0.19943687663E+02  0.12094963816E+02 -0.69463720722E+03  0.80203839643E+03  0.40025079746E+03 0.  0.
    9000005    1    3    3    0    0  0.20649019818E+03  0.19483430240E+02 -0.43855229709E+03  0.48512567782E+03  0.99999687468E+00 0.  0.
          4    1    3    3  502    0 -0.18654651052E+03 -0.73884664246E+01 -0.25608491013E+03  0.31691271861E+03  0.00000000000E+00 0.  1.
   -9000007    1    1    2    0  501 -0.19943687663E+02 -0.12094963816E+02 -0.91615071458E+03  0.99993808341E+03  0.40000000000E+03 0.  1.
<mgrwt>
<rscale>  2 0.40080464E+03</rscale>
<asrwt>0</asrwt>
<pdfrwt beam="1">  1        2 0.26252031E+00 0.40080464E+03</pdfrwt>
<pdfrwt beam="2">  1       -2 0.14706814E-01 0.40080464E+03</pdfrwt>
<totfact> 0.36964605E+02</totfact>
</mgrwt>
</event>
<event>
 6    1  0.8938744E-004  0.4204564E+03  0.7818608E-02  0.1036918E+00
         -2   -1    0    0    0  501 -0.00000000000E+00  0.00000000000E+00  0.28349174496E+03  0.28349174496E+03  0.00000000000E+00 0.  1.
          2   -1    0    0  502    0  0.00000000000E+00 -0.00000000000E+00 -0.68287037004E+03  0.68287037004E+03  0.00000000000E+00 0. -1.
    9000007    2    1    2  502    0  0.12464545322E+03 -0.33055106631E+02 -0.34212733648E+03  0.54220785164E+03  0.40038620222E+03 0.  0.
    9000005    1    3    3    0    0  0.29151146113E+01 -0.71996782599E+02 -0.39673254534E+03  0.40322418965E+03  0.99999687468E+00 0.  0.
          4    1    3    3  502    0  0.12173033861E+03  0.38941675968E+02  0.54605208853E+02  0.13898366199E+03  0.00000000000E+00 0.  1.
   -9000007    1    1    2    0  501 -0.12464545322E+03  0.33055106631E+02 -0.57251288593E+02  0.42415426336E+03  0.40000000000E+03 0.  1.
<mgrwt>
<rscale>  2 0.42045644E+03</rscale>
<asrwt>0</asrwt>
<pdfrwt beam="1">  1        2 0.10505698E+00 0.42045644E+03</pdfrwt>
<pdfrwt beam="2">  1       -2 0.43614115E-01 0.42045644E+03</pdfrwt>
<totfact> 0.21684389E+02</totfact>
</mgrwt>
</event>
<event>
 6    1  0.8938744E-004  0.4994275E+03  0.7818608E-02  0.1013928E+00
          1   -1    0    0  502    0  0.00000000000E+00  0.00000000000E+00  0.17999725948E+04  0.17999725948E+04  0.00000000000E+00 0.  1.
         -1   -1    0    0    0  501 -0.00000000000E+00 -0.00000000000E+00 -0.42388355199E+03  0.42388355199E+03  0.00000000000E+00 0. -1.
    9000007    2    1    2  502    0 -0.24158113162E+03 -0.17654105236E+03 -0.22424724300E+03  0.54737041348E+03  0.39974911787E+03 0.  0.
    9000005    1    3    3    0    0 -0.10568189672E+03 -0.23979648334E+03 -0.28361110622E+03  0.38614411336E+03  0.99999687468E+00 0.  0.
          4    1    3    3  502    0 -0.13589923490E+03  0.63255430987E+02  0.59363863215E+02  0.16122630013E+03  0.00000000000E+00 0.  1.
   -9000007    1    1    2    0  501  0.24158113162E+03  0.17654105236E+03  0.16003362858E+04  0.16764857333E+04  0.40000000000E+03 0.  1.
<mgrwt>
<rscale>  2 0.49942752E+03</rscale>
<asrwt>0</asrwt>
<pdfrwt beam="1">  1        1 0.27691886E+00 0.49942752E+03</pdfrwt>
<pdfrwt beam="2">  1       -1 0.65212855E-01 0.49942752E+03</pdfrwt>
<totfact> 0.10620814E+01</totfact>
</mgrwt>
</event>
<event>
 6    1  0.8938744E-004  0.5050585E+03  0.7818608E-02  0.1012467E+00
          2   -1    0    0  502    0  0.00000000000E+00  0.00000000000E+00  0.18525590660E+03  0.18525590660E+03  0.00000000000E+00 0.  1.
         -2   -1    0    0    0  501 -0.00000000000E+00 -0.00000000000E+00 -0.13898474156E+04  0.13898474156E+04  0.00000000000E+00 0. -1.
    9000007    2    1    2  502    0  0.20957238570E+03  0.22631897356E+03 -0.67815939140E+03  0.84553383471E+03  0.39985802837E+03 0.  0.
    9000005    1    3    3    0    0 -0.43144919231E+02 -0.88378146391E+01 -0.39942652272E+03  0.40184840185E+03  0.99999687468E+00 0.  0.
          4    1    3    3  502    0  0.25271730493E+03  0.23515678820E+03 -0.27873286868E+03  0.44368543286E+03  0.00000000000E+00 0.  1.
   -9000007    1    1    2    0  501 -0.20957238570E+03 -0.22631897356E+03 -0.52643211762E+03  0.72956948751E+03  0.40000000000E+03 0. -1.
<mgrwt>
<rscale>  2 0.50505849E+03</rscale>
<asrwt>0</asrwt>
<pdfrwt beam="1">  1        2 0.28500908E-01 0.50505849E+03</pdfrwt>
<pdfrwt beam="2">  1       -2 0.21382268E+00 0.50505849E+03</pdfrwt>
<totfact> 0.21291284E+01</totfact>
</mgrwt>
</event>
<event>
 6    1  0.8938744E-004  0.5259827E+03  0.7818608E-02  0.1007211E+00
          2   -1    0    0  502    0  0.00000000000E+00  0.00000000000E+00  0.27617009883E+04  0.27617009883E+04  0.00000000000E+00 0. -1.
         -2   -1    0    0    0  501 -0.00000000000E+00 -0.00000000000E+00 -0.10144170090E+03  0.10144170090E+03  0.00000000000E+00 0.  1.
    9000007    2    1    2  502    0  0.13449053837E+02 -0.34239253741E+03  0.14881960912E+04  0.15781735602E+04  0.39810884619E+03 0.  0.
    9000005    1    3    3    0    0 -0.13113782274E+03 -0.20089696773E+03  0.12136924620E+04  0.12371770740E+04  0.99999687468E+00 0.  0.
          4    1    3    3  502    0  0.14458687658E+03 -0.14149556968E+03  0.27450362925E+03  0.34099648618E+03  0.00000000000E+00 0.  1.
   -9000007    1    1    2    0  501 -0.13449053837E+02  0.34239253741E+03  0.11720631962E+04  0.12849691291E+04  0.40000000000E+03 0. -1.
<mgrwt>
<rscale>  2 0.52598272E+03</rscale>
<asrwt>0</asrwt>
<pdfrwt beam="1">  1        2 0.42487702E+00 0.52598272E+03</pdfrwt>
<pdfrwt beam="2">  1       -2 0.15606418E-01 0.52598272E+03</pdfrwt>
<totfact> 0.86513966E+01</totfact>
</mgrwt>
</event>
<event>
 6    1  0.8938744E-004  0.4851831E+03  0.7818608E-02  0.1017720E+00
         -1   -1    0    0    0  501 -0.00000000000E+00  0.00000000000E+00  0.10590992641E+03  0.10590992641E+03  0.00000000000E+00 0. -1.
          1   -1    0    0  502    0  0.00000000000E+00 -0.00000000000E+00 -0.22564103087E+04  0.22564103087E+04  0.00000000000E+00 0.  1.
    9000007    2    1    2  502    0 -0.21534206945E+03  0.16323730715E+03 -0.93632643819E+03  0.10557074417E+04  0.40594627516E+03 0.  0.
    9000005    1    3    3    0    0 -0.32253395663E+02 -0.11138358138E+03 -0.88423446177E+02  0.14582965940E+03  0.99999687468E+00 0.  0.
          4    1    3    3  502    0 -0.18308867379E+03  0.27462088853E+03 -0.84790299201E+03  0.90987778232E+03  0.00000000000E+00 0.  1.
   -9000007    1    1    2    0  501  0.21534206945E+03 -0.16323730715E+03 -0.12141739441E+04  0.13066127934E+04  0.40000000000E+03 0. -1.
<mgrwt>
<rscale>  2 0.48518308E+03</rscale>
<asrwt>0</asrwt>
<pdfrwt beam="1">  1        1 0.34714002E+00 0.48518308E+03</pdfrwt>
<pdfrwt beam="2">  1       -1 0.16293836E-01 0.48518308E+03</pdfrwt>
<totfact> 0.61708822E+01</totfact>
</mgrwt>
</event>
<event>
 6    1  0.8938744E-004  0.4735104E+03  0.7818608E-02  0.1020934E+00
          1   -1    0    0  502    0  0.00000000000E+00  0.00000000000E+00  0.26728691556E+03  0.26728691556E+03  0.00000000000E+00 0. -1.
         -1   -1    0    0    0  501 -0.00000000000E+00 -0.00000000000E+00 -0.88816167272E+03  0.88816167272E+03  0.00000000000E+00 0.  1.
    9000007    2    1    2  502    0  0.19563592941E+03 -0.16521030452E+03 -0.44567908228E+03  0.64922592374E+03  0.39660634649E+03 0.  0.
    9000005    1    3    3    0    0 -0.11829697837E+03 -0.85096934588E+01 -0.14348372212E+03  0.18615898711E+03  0.99999687468E+00 0.  0.
          4    1    3    3  502    0  0.31393290778E+03 -0.15670061106E+03 -0.30219536016E+03  0.46306693663E+03  0.00000000000E+00 0.  1.
   -9000007    1    1    2    0  501 -0.19563592941E+03  0.16521030452E+03 -0.17519567488E+03  0.50622266454E+03  0.40000000000E+03 0. -1.
<mgrwt>
<rscale>  2 0.47351038E+03</rscale>
<asrwt>0</asrwt>
<pdfrwt beam="1">  1        1 0.41121064E-01 0.47351038E+03</pdfrwt>
<pdfrwt beam="2">  1       -1 0.13664026E+00 0.47351038E+03</pdfrwt>
<totfact> 0.47711431E+01</totfact>
</mgrwt>
</event>
<event>
 6    1  0.8938744E-004  0.4314790E+03  0.7818608E-02  0.1033394E+00
          2   -1    0    0  502    0  0.00000000000E+00  0.00000000000E+00  0.89583831055E+03  0.89583831055E+03  0.00000000000E+00 0. -1.
         -2   -1    0    0    0  501 -0.00000000000E+00 -0.00000000000E+00 -0.24167827434E+03  0.24167827434E+03  0.00000000000E+00 0.  1.
    9000007    2    1    2  502    0 -0.94019396093E+02  0.13255431525E+03  0.11402246819E+03  0.44602624821E+03  0.39940956112E+03 0.  0.
    9000005    1    3    3    0    0  0.13008716559E+03  0.15461132447E+03  0.23885351951E+02  0.20346705468E+03  0.99999687468E+00 0.  0.
          4    1    3    3  502    0 -0.22410656169E+03 -0.22057009225E+02  0.90137116235E+02  0.24255919354E+03  0.00000000000E+00 0.  1.
   -9000007    1    1    2    0  501  0.94019396093E+02 -0.13255431525E+03  0.54013756802E+03  0.69149033668E+03  0.40000000000E+03 0. -1.
<mgrwt>
<rscale>  2 0.43147902E+03</rscale>
<asrwt>0</asrwt>
<pdfrwt beam="1">  1        2 0.13782128E+00 0.43147902E+03</pdfrwt>
<pdfrwt beam="2">  1       -2 0.37181274E-01 0.43147902E+03</pdfrwt>
<totfact> 0.20777387E+02</totfact>
</mgrwt>
</event>
<event>
 6    1  0.8938744E-004  0.4529761E+03  0.7818608E-02  0.1026838E+00
         -1   -1    0    0    0  501 -0.00000000000E+00  0.00000000000E+00  0.18916798572E+03  0.18916798572E+03  0.00000000000E+00 0. -1.
          1   -1    0    0  502    0  0.00000000000E+00 -0.00000000000E+00 -0.12039141350E+04  0.12039141350E+04  0.00000000000E+00 0.  1.
    9000007    2    1    2  502    0 -0.10874204923E+03  0.17873642283E+03 -0.28976739783E+03  0.53905300404E+03  0.40353618698E+03 0.  0.
    9000005    1    3    3    0    0  0.69969545564E+02 -0.17268166005E+01  0.69787478406E+02  0.98843367699E+02  0.99999687468E+00 0.  0.
          4    1    3    3  502    0 -0.17871159479E+03  0.18046323943E+03 -0.35955487624E+03  0.44020963634E+03  0.00000000000E+00 0.  1.
   -9000007    1    1    2    0  501  0.10874204923E+03 -0.17873642283E+03 -0.72497875149E+03  0.85402911674E+03  0.40000000000E+03 0.  1.
<mgrwt>
<rscale>  2 0.45297610E+03</rscale>
<asrwt>0</asrwt>
<pdfrwt beam="1">  1        1 0.18521755E+00 0.45297610E+03</pdfrwt>
<pdfrwt beam="2">  1       -1 0.29102768E-01 0.45297610E+03</pdfrwt>
<totfact> 0.12003713E+02</totfact>
</mgrwt>
</event>
<event>
 6    1  0.8938744E-004  0.5958967E+03  0.7818608E-02  0.9913956E-01
          1   -1    0    0  502    0  0.00000000000E+00  0.00000000000E+00  0.17575673091E+04  0.17575673091E+04  0.00000000000E+00 0. -1.
         -1   -1    0    0    0  501 -0.00000000000E+00 -0.00000000000E+00 -0.22999392481E+03  0.22999392481E+03  0.00000000000E+00 0.  1.
    9000007    2    1    2  502    0 -0.43908587535E+03  0.41535726714E+02  0.41784605674E+03  0.72818981768E+03  0.40142678151E+03 0.  0.
    9000005    1    3    3    0    0 -0.30060606761E+03 -0.91640342841E+02  0.43349652210E+03  0.53542711454E+03  0.99999687468E+00 0.  0.
          4    1    3    3  502    0 -0.13847980774E+03  0.13317606956E+03 -0.15650465363E+02  0.19276270313E+03  0.00000000000E+00 0.  1.
   -9000007    1    1    2    0  501  0.43908587535E+03 -0.41535726714E+02  0.11097273276E+04  0.12593714163E+04  0.40000000000E+03 0.  1.
<mgrwt>
<rscale>  2 0.59589671E+03</rscale>
<asrwt>0</asrwt>
<pdfrwt beam="1">  1        1 0.27039496E+00 0.59589671E+03</pdfrwt>
<pdfrwt beam="2">  1       -1 0.35383682E-01 0.59589671E+03</pdfrwt>
<totfact> 0.34981503E+01</totfact>
</mgrwt>
</event>
<event>
 6    1  0.8938744E-004  0.4565023E+03  0.7818608E-02  0.1025801E+00
          2   -1    0    0  502    0  0.00000000000E+00  0.00000000000E+00  0.13189220984E+04  0.13189220984E+04  0.00000000000E+00 0.  1.
         -2   -1    0    0    0  501 -0.00000000000E+00 -0.00000000000E+00 -0.15827630230E+03  0.15827630230E+03  0.00000000000E+00 0. -1.
    9000007    2    1    2  502    0 -0.21885446177E+03  0.35982742691E+02  0.60984434267E+03  0.76125547399E+03  0.39800469996E+03 0.  0.
    9000005    1    3    3    0    0 -0.22090673528E+03 -0.12896240560E+03  0.21794365306E+03  0.33605285842E+03  0.99999687468E+00 0.  0.
          4    1    3    3  502    0  0.20522735102E+01  0.16494514829E+03  0.39190068961E+03  0.42520261557E+03  0.00000000000E+00 0.  1.
   -9000007    1    1    2    0  501  0.21885446177E+03 -0.35982742691E+02  0.55080145347E+03  0.71594292675E+03  0.40000000000E+03 0.  1.
<mgrwt>
<rscale>  2 0.45650234E+03</rscale>
<asrwt>0</asrwt>
<pdfrwt beam="1">  1        2 0.20291108E+00 0.45650234E+03</pdfrwt>
<pdfrwt beam="2">  1       -2 0.24350201E-01 0.45650234E+03</pdfrwt>
<totfact> 0.25104378E+02</totfact>
</mgrwt>
</event>
<event>
 6    1  0.8938744E-004  0.4494757E+03  0.7818608E-02  0.1027879E+00
         -2   -1    0    0    0  501 -0.00000000000E+00  0.00000000000E+00  0.14836514028E+03  0.14836514028E+03  0.00000000000E+00 0.  1.
          2   -1    0    0  502    0  0.00000000000E+00 -0.00000000000E+00 -0.17609460997E+04  0.17609460997E+04  0.00000000000E+00 0. -1.
    9000007    2    1    2  502    0 -0.20328561888E+03  0.21627163914E+02 -0.35209003414E+03  0.57116694665E+03  0.40058895609E+03 0.  0.
    9000005    1    3    3    0    0  0.37636351603E+02  0.14402847520E+03 -0.23153377794E+03  0.27526275984E+03  0.99999687468E+00 0.  0.
          4    1    3    3  502    0 -0.24092197048E+03 -0.12240131129E+03 -0.12055625620E+03  0.29590418681E+03  0.00000000000E+00 0.  1.
   -9000007    1    1    2    0  501  0.20328561888E+03 -0.21627163914E+02 -0.12604909253E+04  0.13381442933E+04  0.40000000000E+03 0. -1.
<mgrwt>
<rscale>  2 0.44947569E+03</rscale>
<asrwt>0</asrwt>
<pdfrwt beam="1">  1        2 0.27091479E+00 0.44947569E+03</pdfrwt>
<pdfrwt beam="2">  1       -2 0.22825405E-01 0.44947569E+03</pdfrwt>
<totfact> 0.16158768E+02</totfact>
</mgrwt>
</event>
<event>
 6    1  0.8938744E-004  0.4135155E+03  0.7818608E-02  0.1039198E+00
         -1   -1    0    0    0  501 -0.00000000000E+00  0.00000000000E+00  0.50943665086E+02  0.50943665086E+02  0.00000000000E+00 0.  1.
          1   -1    0    0  502    0  0.00000000000E+00 -0.00000000000E+00 -0.33565626664E+04  0.33565626664E+04  0.00000000000E+00 0. -1.
    9000007    2    1    2  502    0  0.64334929346E+02  0.81863519081E+02 -0.16564791558E+04  0.17073584411E+04  0.40038610632E+03 0.  0.
    9000005    1    3    3    0    0  0.21409929167E+03 -0.29949803781E+02 -0.69369643507E+03  0.72660253335E+03  0.99999687468E+00 0.  0.
          4    1    3    3  502    0 -0.14976436232E+03  0.11181332286E+03 -0.96278272071E+03  0.98075590780E+03  0.00000000000E+00 0.  1.
   -9000007    1    1    2    0  501 -0.64334929346E+02 -0.81863519081E+02 -0.16491398455E+04  0.17001478903E+04  0.40000000000E+03 0.  1.
<mgrwt>
<rscale>  2 0.41351550E+03</rscale>
<asrwt>0</asrwt>
<pdfrwt beam="1">  1        1 0.51639431E+00 0.41351550E+03</pdfrwt>
<pdfrwt beam="2">  1       -1 0.78374861E-02 0.41351550E+03</pdfrwt>
<totfact> 0.34108542E+01</totfact>
</mgrwt>
</event>
<event>
 6    1  0.8938744E-004  0.7896423E+03  0.7818608E-02  0.9575132E-01
         -2   -1    0    0    0  501 -0.00000000000E+00  0.00000000000E+00  0.81576470536E+03  0.81576470536E+03  0.00000000000E+00 0. -1.
          2   -1    0    0  502    0  0.00000000000E+00 -0.00000000000E+00 -0.80528725499E+03  0.80528725499E+03  0.00000000000E+00 0.  1.
    9000007    2    1    2  502    0 -0.31691683743E+03 -0.60196744088E+03  0.18797421199E+03  0.81216001324E+03  0.40183143357E+03 0.  0.
    9000005    1    3    3    0    0 -0.19680619126E+03 -0.44755368768E+03  0.31250750154E+03  0.58025763138E+03  0.99999687468E+00 0.  0.
          4    1    3    3  502    0 -0.12011064618E+03 -0.15441375321E+03 -0.12453328955E+03  0.23190238186E+03  0.00000000000E+00 0.  1.
   -9000007    1    1    2    0  501  0.31691683743E+03  0.60196744088E+03 -0.17749676161E+03  0.80889194712E+03  0.40000000000E+03 0.  1.
<mgrwt>
<rscale>  2 0.78964226E+03</rscale>
<asrwt>0</asrwt>
<pdfrwt beam="1">  1        2 0.12389035E+00 0.78964226E+03</pdfrwt>
<pdfrwt beam="2">  1       -2 0.12550226E+00 0.78964226E+03</pdfrwt>
<totfact> 0.16384970E+01</totfact>
</mgrwt>
</event>
<event>
 6    1  0.8938744E-004  0.4617365E+03  0.7818608E-02  0.1024279E+00
          1   -1    0    0  502    0  0.00000000000E+00  0.00000000000E+00  0.70262824393E+03  0.70262824393E+03  0.00000000000E+00 0.  1.
         -1   -1    0    0    0  501 -0.00000000000E+00 -0.00000000000E+00 -0.30476673175E+03  0.30476673175E+03  0.00000000000E+00 0. -1.
    9000007    2    1    2  502    0  0.22303492240E+03 -0.57628613986E+02  0.16567192548E+03  0.49069618727E+03  0.40033726725E+03 0.  0.
    9000005    1    3    3    0    0  0.31953923946E+02 -0.13427666692E+03 -0.88224589024E+02  0.16381652736E+03  0.99999687468E+00 0.  0.
          4    1    3    3  502    0  0.19108099846E+03  0.76648052929E+02  0.25389651450E+03  0.32687965991E+03  0.00000000000E+00 0.  1.
   -9000007    1    1    2    0  501 -0.22303492240E+03  0.57628613986E+02  0.23218958671E+03  0.51669878840E+03  0.40000000000E+03 0. -1.
<mgrwt>
<rscale>  2 0.46173646E+03</rscale>
<asrwt>0</asrwt>
<pdfrwt beam="1">  1        1 0.10809665E+00 0.46173646E+03</pdfrwt>
<pdfrwt beam="2">  1       -1 0.46887190E-01 0.46173646E+03</pdfrwt>
<totfact> 0.12794070E+02</totfact>
</mgrwt>
</event>
<event>
 6    1  0.8938744E-004  0.5600586E+03  0.7818608E-02  0.9991922E-01
          2   -1    0    0  502    0  0.00000000000E+00  0.00000000000E+00  0.10463767344E+04  0.10463767344E+04  0.00000000000E+00 0.  1.
         -2   -1    0    0    0  501 -0.00000000000E+00 -0.00000000000E+00 -0.31028973192E+03  0.31028973192E+03  0.00000000000E+00 0. -1.
    9000007    2    1    2  502    0  0.35070698294E+03 -0.17493937716E+03  0.24314350785E+03  0.61061521977E+03  0.40016622501E+03 0.  0.
    9000005    1    3    3    0    0  0.90725094622E+02  0.10538046849E+03 -0.28073309078E+02  0.14186330255E+03  0.99999687468E+00 0.  0.
          4    1    3    3  502    0  0.25998188831E+03 -0.28031984565E+03  0.27121681692E+03  0.46875191722E+03  0.00000000000E+00 0.  1.
   -9000007    1    1    2    0  501 -0.35070698294E+03  0.17493937716E+03  0.49294349459E+03  0.74605124651E+03  0.40000000000E+03 0. -1.
<mgrwt>
<rscale>  2 0.56005863E+03</rscale>
<asrwt>0</asrwt>
<pdfrwt beam="1">  1        2 0.16098103E+00 0.56005863E+03</pdfrwt>
<pdfrwt beam="2">  1       -2 0.47736882E-01 0.56005863E+03</pdfrwt>
<totfact> 0.10085158E+02</totfact>
</mgrwt>
</event>
<event>
 6    1  0.8938744E-004  0.4712465E+03  0.7818608E-02  0.1021569E+00
         -2   -1    0    0    0  501 -0.00000000000E+00  0.00000000000E+00  0.14953507976E+03  0.14953507976E+03  0.00000000000E+00 0.  1.
          2   -1    0    0  502    0  0.00000000000E+00 -0.00000000000E+00 -0.17006104581E+04  0.17006104581E+04  0.00000000000E+00 0. -1.
    9000007    2    1    2  502    0 -0.24337071024E+03  0.43456186878E+02 -0.44768546892E+03  0.65073441778E+03  0.40238695384E+03 0.  0.
    9000005    1    3    3    0    0 -0.45746333459E+02 -0.23480265249E+02 -0.43889369267E+03  0.44189673380E+03  0.99999687468E+00 0.  0.
          4    1    3    3  502    0 -0.19762437678E+03  0.66936452127E+02 -0.87917762529E+01  0.20883768399E+03  0.00000000000E+00 0.  1.
   -9000007    1    1    2    0  501  0.24337071024E+03 -0.43456186878E+02 -0.11033899094E+04  0.11994111201E+04  0.40000000000E+03 0. -1.
<mgrwt>
<rscale>  2 0.47124655E+03</rscale>
<asrwt>0</asrwt>
<pdfrwt beam="1">  1        2 0.26163238E+00 0.47124655E+03</pdfrwt>
<pdfrwt beam="2">  1       -2 0.23005397E-01 0.47124655E+03</pdfrwt>
<totfact> 0.17118677E+02</totfact>
</mgrwt>
</event>
<event>
 6    1  0.8938744E-004  0.4037953E+03  0.7818608E-02  0.1042473E+00
         -2   -1    0    0    0  501 -0.00000000000E+00  0.00000000000E+00  0.44369656211E+03  0.44369656211E+03  0.00000000000E+00 0. -1.
          2   -1    0    0  502    0  0.00000000000E+00 -0.00000000000E+00 -0.47587605316E+03  0.47587605316E+03  0.00000000000E+00 0.  1.
    9000007    2    1    2  502    0 -0.41065632409E+02  0.28513469006E+02 -0.23554719951E+03  0.46806643710E+03  0.40137800421E+03 0.  0.
    9000005    1    3    3    0    0 -0.41687284113E+02  0.20715827255E+03 -0.65003310652E+02  0.22108552628E+03  0.99999687468E+00 0.  0.
          4    1    3    3  502    0  0.62165170472E+00 -0.17864480354E+03 -0.17054388886E+03  0.24698091082E+03  0.00000000000E+00 0.  1.
   -9000007    1    1    2    0  501  0.41065632409E+02 -0.28513469006E+02  0.20336770846E+03  0.45150617817E+03  0.40000000000E+03 0. -1.
<mgrwt>
<rscale>  2 0.40379527E+03</rscale>
<asrwt>0</asrwt>
<pdfrwt beam="1">  1        2 0.73211701E-01 0.40379527E+03</pdfrwt>
<pdfrwt beam="2">  1       -2 0.68261009E-01 0.40379527E+03</pdfrwt>
<totfact> 0.13219032E+02</totfact>
</mgrwt>
</event>
<event>
 6    1  0.8938744E-004  0.5687965E+03  0.7818608E-02  0.9972345E-01
         -2   -1    0    0    0  501 -0.00000000000E+00  0.00000000000E+00  0.46600158340E+03  0.46600158340E+03  0.00000000000E+00 0. -1.
          2   -1    0    0  502    0  0.00000000000E+00 -0.00000000000E+00 -0.70852400246E+03  0.70852400246E+03  0.00000000000E+00 0.  1.
    9000007    2    1    2  502    0  0.33771366875E+03 -0.22203436064E+03 -0.37989183547E+02  0.57022133815E+03  0.40044901930E+03 0.  0.
    9000005    1    3    3    0    0  0.29936328227E+03 -0.35705942728E+02 -0.16286261678E+03  0.34266386016E+03  0.99999687468E+00 0.  0.
          4    1    3    3  502    0  0.38350386477E+02 -0.18632841791E+03  0.12487343324E+03  0.22755747800E+03  0.00000000000E+00 0.  1.
   -9000007    1    1    2    0  501 -0.33771366875E+03  0.22203436064E+03 -0.20453323552E+03  0.60430424770E+03  0.40000000000E+03 0.  1.
<mgrwt>
<rscale>  2 0.56879648E+03</rscale>
<asrwt>0</asrwt>
<pdfrwt beam="1">  1        2 0.10900369E+00 0.56879648E+03</pdfrwt>
<pdfrwt beam="2">  1       -2 0.71692552E-01 0.56879648E+03</pdfrwt>
<totfact> 0.73092440E+01</totfact>
</mgrwt>
</event>
<event>
 6    1  0.8938744E-004  0.4189927E+03  0.7818608E-02  0.1037395E+00
         -2   -1    0    0    0  501 -0.00000000000E+00  0.00000000000E+00  0.13635032335E+03  0.13635032335E+03  0.00000000000E+00 0. -1.
          2   -1    0    0  502    0  0.00000000000E+00 -0.00000000000E+00 -0.14376439815E+04  0.14376439815E+04  0.00000000000E+00 0.  1.
    9000007    2    1    2  502    0 -0.12414894776E+03  0.16431672322E+02 -0.39612578279E+03  0.57649150101E+03  0.39967968909E+03 0.  0.
    9000005    1    3    3    0    0 -0.17210425377E+03 -0.10831274196E+03 -0.55807081021E+02  0.21087189125E+03  0.99999687468E+00 0.  0.
          4    1    3    3  502    0  0.47955306009E+02  0.12474441428E+03 -0.34031870176E+03  0.36561960976E+03  0.00000000000E+00 0.  1.
   -9000007    1    1    2    0  501  0.12414894776E+03 -0.16431672322E+02 -0.90516787535E+03  0.99750280383E+03  0.40000000000E+03 0.  1.
<mgrwt>
<rscale>  2 0.41899265E+03</rscale>
<asrwt>0</asrwt>
<pdfrwt beam="1">  1        2 0.22117601E+00 0.41899265E+03</pdfrwt>
<pdfrwt beam="2">  1       -2 0.20976972E-01 0.41899265E+03</pdfrwt>
<totfact> 0.28154065E+02</totfact>
</mgrwt>
</event>
<event>
 6    1  0.8938744E-004  0.4452874E+03  0.7818608E-02  0.1029137E+00
         -2   -1    0    0    0  501 -0.00000000000E+00  0.00000000000E+00  0.28229683599E+03  0.28229683599E+03  0.00000000000E+00 0. -1.
          2   -1    0    0  502    0  0.00000000000E+00 -0.00000000000E+00 -0.82234213816E+03  0.82234213816E+03  0.00000000000E+00 0.  1.
    9000007    2    1    2  502    0 -0.12221499681E+02 -0.19618348429E+03 -0.58866639599E+02  0.44876533549E+03  0.39910865753E+03 0.  0.
    9000005    1    3    3    0    0  0.71377946751E+02  0.70220798877E+02 -0.12663946194E+03  0.16144449570E+03  0.99999687468E+00 0.  0.
          4    1    3    3  502    0 -0.83599446432E+02 -0.26640428317E+03  0.67772822337E+02  0.28732083980E+03  0.00000000000E+00 0.  1.
   -9000007    1    1    2    0  501  0.12221499681E+02  0.19618348429E+03 -0.48117866257E+03  0.65587363865E+03  0.40000000000E+03 0. -1.
<mgrwt>
<rscale>  2 0.44528740E+03</rscale>
<asrwt>0</asrwt>
<pdfrwt beam="1">  1        2 0.12651417E+00 0.44528740E+03</pdfrwt>
<pdfrwt beam="2">  1       -2 0.43430283E-01 0.44528740E+03</pdfrwt>
<totfact> 0.17230459E+02</totfact>
</mgrwt>
</event>
<event>
 6    1  0.8938744E-004  0.4293922E+03  0.7818608E-02  0.1034052E+00
         -2   -1    0    0    0  501 -0.00000000000E+00  0.00000000000E+00  0.19989628947E+03  0.19989628947E+03  0.00000000000E+00 0.  1.
          2   -1    0    0  502    0  0.00000000000E+00 -0.00000000000E+00 -0.95445684698E+03  0.95445684698E+03  0.00000000000E+00 0. -1.
    9000007    2    1    2  502    0  0.15539532774E+03  0.80453187070E+01 -0.27161183406E+03  0.50824795575E+03  0.40041298816E+03 0.  0.
    9000005    1    3    3    0    0 -0.85974383340E+01  0.14394285347E+03 -0.25708975009E+03  0.29477042016E+03  0.99999687468E+00 0.  0.
          4    1    3    3  502    0  0.16399276607E+03 -0.13589753476E+03 -0.14522083970E+02  0.21347753559E+03  0.00000000000E+00 0.  1.
   -9000007    1    1    2    0  501 -0.15539532774E+03 -0.80453187070E+01 -0.48294872345E+03  0.64610518069E+03  0.40000000000E+03 0. -1.
<mgrwt>
<rscale>  2 0.42939218E+03</rscale>
<asrwt>0</asrwt>
<pdfrwt beam="1">  1        2 0.14683952E+00 0.42939218E+03</pdfrwt>
<pdfrwt beam="2">  1       -2 0.30753275E-01 0.42939218E+03</pdfrwt>
<totfact> 0.27176155E+02</totfact>
</mgrwt>
</event>
<event>
 6    1  0.8938744E-004  0.4467731E+03  0.7818608E-02  0.1028689E+00
         -1   -1    0    0    0  501 -0.00000000000E+00  0.00000000000E+00  0.13400225850E+03  0.13400225850E+03  0.00000000000E+00 0. -1.
          1   -1    0    0  502    0  0.00000000000E+00 -0.00000000000E+00 -0.15527086229E+04  0.15527086229E+04  0.00000000000E+00 0.  1.
    9000007    2    1    2  502    0 -0.11051723568E+03  0.16855390539E+03 -0.53757577623E+03  0.69826989084E+03  0.39745269763E+03 0.  0.
    9000005    1    3    3    0    0 -0.98822397752E+02  0.26706432833E+03 -0.20410310244E+03  0.35035453213E+03  0.99999687468E+00 0.  0.
          4    1    3    3  502    0 -0.11694837924E+02 -0.98510422934E+02 -0.33347267379E+03  0.34791535871E+03  0.00000000000E+00 0.  1.
   -9000007    1    1    2    0  501  0.11051723568E+03 -0.16855390539E+03 -0.88113058814E+03  0.98844099053E+03  0.40000000000E+03 0.  1.
<mgrwt>
<rscale>  2 0.44677312E+03</rscale>
<asrwt>0</asrwt>
<pdfrwt beam="1">  1        1 0.23887824E+00 0.44677312E+03</pdfrwt>
<pdfrwt beam="2">  1       -1 0.20615733E-01 0.44677312E+03</pdfrwt>
<totfact> 0.12361023E+02</totfact>
</mgrwt>
</event>
<event>
 6    1  0.8938744E-004  0.4713863E+03  0.7818608E-02  0.1021530E+00
         -2   -1    0    0    0  501 -0.00000000000E+00  0.00000000000E+00  0.13195420050E+03  0.13195420050E+03  0.00000000000E+00 0.  1.
          2   -1    0    0  502    0  0.00000000000E+00 -0.00000000000E+00 -0.24180289985E+04  0.24180289985E+04  0.00000000000E+00 0. -1.
    9000007    2    1    2  502    0  0.18557062362E+03 -0.16606002078E+03 -0.44088295109E+03  0.64558162928E+03  0.40048155595E+03 0.  0.
    9000005    1    3    3    0    0 -0.80300786365E+02  0.41790185425E+02 -0.20959932293E+00  0.90529994004E+02  0.99999687468E+00 0.  0.
          4    1    3    3  502    0  0.26587140999E+03 -0.20785020620E+03 -0.44067335177E+03  0.55505163528E+03  0.00000000000E+00 0.  1.
   -9000007    1    1    2    0  501 -0.18557062362E+03  0.16606002078E+03 -0.18451918469E+04  0.19044015698E+04  0.40000000000E+03 0. -1.
<mgrwt>
<rscale>  2 0.47138630E+03</rscale>
<asrwt>0</asrwt>
<pdfrwt beam="1">  1        2 0.37200446E+00 0.47138630E+03</pdfrwt>
<pdfrwt beam="2">  1       -2 0.20300646E-01 0.47138630E+03</pdfrwt>
<totfact> 0.87222153E+01</totfact>
</mgrwt>
</event>
<event>
 6    1  0.8938744E-004  0.5018913E+03  0.7818608E-02  0.1013286E+00
         -1   -1    0    0    0  501 -0.00000000000E+00  0.00000000000E+00  0.88710505727E+03  0.88710505727E+03  0.00000000000E+00 0.  1.
          1   -1    0    0  502    0  0.00000000000E+00 -0.00000000000E+00 -0.33669105780E+03  0.33669105780E+03  0.00000000000E+00 0. -1.
    9000007    2    1    2  502    0  0.46327018052E+02  0.29934668396E+03  0.51744765830E+03  0.72096273368E+03  0.40035053948E+03 0.  0.
    9000005    1    3    3    0    0  0.48429748384E+02  0.34576136546E+03  0.20457340856E+03  0.40465743766E+03  0.99999687468E+00 0.  0.
          4    1    3    3  502    0 -0.21027303315E+01 -0.46414681496E+02  0.31287424975E+03  0.31630529601E+03  0.00000000000E+00 0.  1.
   -9000007    1    1    2    0  501 -0.46327018052E+02 -0.29934668396E+03  0.32966341160E+02  0.50283338140E+03  0.40000000000E+03 0. -1.
<mgrwt>
<rscale>  2 0.50189129E+03</rscale>
<asrwt>0</asrwt>
<pdfrwt beam="1">  1        1 0.51798625E-01 0.50189129E+03</pdfrwt>
<pdfrwt beam="2">  1       -1 0.13647770E+00 0.50189129E+03</pdfrwt>
<totfact> 0.35444532E+01</totfact>
</mgrwt>
</event>
<event>
 6    1  0.8938744E-004  0.5764082E+03  0.7818608E-02  0.9955598E-01
          2   -1    0    0  502    0  0.00000000000E+00  0.00000000000E+00  0.13190317350E+04  0.13190317350E+04  0.00000000000E+00 0. -1.
         -2   -1    0    0    0  501 -0.00000000000E+00 -0.00000000000E+00 -0.30883274746E+03  0.30883274746E+03  0.00000000000E+00 0.  1.
    9000007    2    1    2  502    0 -0.38932278185E+03  0.14417040936E+03  0.15552133762E+03  0.59692742295E+03  0.39972256180E+03 0.  0.
    9000005    1    3    3    0    0 -0.72389860101E+02  0.41918059485E+02 -0.13245645802E+03  0.15666246781E+03  0.99999687468E+00 0.  0.
          4    1    3    3  502    0 -0.31693292175E+03  0.10225234987E+03  0.28797779564E+03  0.44026495514E+03  0.00000000000E+00 0.  1.
   -9000007    1    1    2    0  501  0.38932278185E+03 -0.14417040936E+03  0.85467764991E+03  0.10309370595E+04  0.40000000000E+03 0. -1.
<mgrwt>
<rscale>  2 0.57640817E+03</rscale>
<asrwt>0</asrwt>
<pdfrwt beam="1">  1        2 0.20292796E+00 0.57640817E+03</pdfrwt>
<pdfrwt beam="2">  1       -2 0.47512731E-01 0.57640817E+03</pdfrwt>
<totfact> 0.70132985E+01</totfact>
</mgrwt>
</event>
<event>
 6    1  0.8938744E-004  0.6660422E+03  0.7818608E-02  0.9777134E-01
          2   -1    0    0  502    0  0.00000000000E+00  0.00000000000E+00  0.11003631835E+04  0.11003631835E+04  0.00000000000E+00 0.  1.
         -2   -1    0    0    0  501 -0.00000000000E+00 -0.00000000000E+00 -0.40346951680E+03  0.40346951680E+03  0.00000000000E+00 0. -1.
    9000007    2    1    2  502    0  0.10787441931E+02 -0.53323801505E+03  0.36923790775E+03  0.76098854034E+03  0.39787909775E+03 0.  0.
    9000005    1    3    3    0    0  0.16807891105E+02 -0.21412720392E+03 -0.62857942087E+02  0.22379697393E+03  0.99999687468E+00 0.  0.
          4    1    3    3  502    0 -0.60204491739E+01 -0.31911081113E+03  0.43209584983E+03  0.53719156642E+03  0.00000000000E+00 0.  1.
   -9000007    1    1    2    0  501 -0.10787441931E+02  0.53323801505E+03  0.32765575892E+03  0.74284415994E+03  0.40000000000E+03 0. -1.
<mgrwt>
<rscale>  2 0.66604221E+03</rscale>
<asrwt>0</asrwt>
<pdfrwt beam="1">  1        2 0.16928664E+00 0.66604221E+03</pdfrwt>
<pdfrwt beam="2">  1       -2 0.62072234E-01 0.66604221E+03</pdfrwt>
<totfact> 0.53757758E+01</totfact>
</mgrwt>
</event>
<event>
 6    1  0.8938744E-004  0.4872865E+03  0.7818608E-02  0.1017152E+00
          1   -1    0    0  502    0  0.00000000000E+00  0.00000000000E+00  0.10902302637E+04  0.10902302637E+04  0.00000000000E+00 0. -1.
         -1   -1    0    0    0  501 -0.00000000000E+00 -0.00000000000E+00 -0.22489014783E+03  0.22489014783E+03  0.00000000000E+00 0.  1.
    9000007    2    1    2  502    0  0.26060955490E+03  0.95201785378E+02  0.31629878374E+03  0.58134448904E+03  0.40116801256E+03 0.  0.
    9000005    1    3    3    0    0  0.15200672852E+03 -0.20707303687E+02  0.38031476375E+03  0.41009164520E+03  0.99999687468E+00 0.  0.
          4    1    3    3  502    0  0.10860282637E+03  0.11590908907E+03 -0.64015980018E+02  0.17125284384E+03  0.00000000000E+00 0.  1.
   -9000007    1    1    2    0  501 -0.26060955490E+03 -0.95201785378E+02  0.54904133212E+03  0.73377592249E+03  0.40000000000E+03 0. -1.
<mgrwt>
<rscale>  2 0.48728651E+03</rscale>
<asrwt>0</asrwt>
<pdfrwt beam="1">  1        1 0.16772773E+00 0.48728651E+03</pdfrwt>
<pdfrwt beam="2">  1       -1 0.34598485E-01 0.48728651E+03</pdfrwt>
<totfact> 0.10690930E+02</totfact>
</mgrwt>
</event>
<event>
 6    1  0.8938744E-004  0.4198409E+03  0.7818608E-02  0.1037118E+00
          3   -1    0    0  502    0  0.00000000000E+00  0.00000000000E+00  0.55017240325E+03  0.55017240325E+03  0.00000000000E+00 0. -1.
         -3   -1    0    0    0  501 -0.00000000000E+00 -0.00000000000E+00 -0.32792255944E+03  0.32792255944E+03  0.00000000000E+00 0.  1.
    9000007    2    1    2  502    0  0.12453366580E+03 -0.23300187444E+02  0.44622642919E+02  0.42246028979E+03  0.40053711880E+03 0.  0.
    9000005    1    3    3    0    0 -0.65666023017E+02 -0.78595761838E+02 -0.12505586603E+03  0.16164556901E+03  0.99999687468E+00 0.  0.
          4    1    3    3  502    0  0.19019968882E+03  0.55295574394E+02  0.16967850895E+03  0.26081472078E+03  0.00000000000E+00 0.  1.
   -9000007    1    1    2    0  501 -0.12453366580E+03  0.23300187444E+02  0.17762720089E+03  0.45563467290E+03  0.40000000000E+03 0. -1.
<mgrwt>
<rscale>  2 0.41984091E+03</rscale>
<asrwt>0</asrwt>
<pdfrwt beam="1">  1        3 0.84641908E-01 0.41984091E+03</pdfrwt>
<pdfrwt beam="2">  1       -3 0.50449625E-01 0.41984091E+03</pdfrwt>
<totfact> 0.12981635E+01</totfact>
</mgrwt>
</event>
<event>
 6    1  0.8938744E-004  0.4346679E+03  0.7818608E-02  0.1032395E+00
          1   -1    0    0  502    0  0.00000000000E+00  0.00000000000E+00  0.43881688190E+03  0.43881688190E+03  0.00000000000E+00 0. -1.
         -1   -1    0    0    0  501 -0.00000000000E+00 -0.00000000000E+00 -0.47810780242E+03  0.47810780242E+03  0.00000000000E+00 0.  1.
    9000007    2    1    2  502    0  0.15268542263E+03 -0.73840167435E+02 -0.16423531572E+03  0.46484470191E+03  0.40042745829E+03 0.  0.
    9000005    1    3    3    0    0  0.19121864464E+03  0.10277036111E+03 -0.18189453474E+03  0.28321888875E+03  0.99999687468E+00 0.  0.
          4    1    3    3  502    0 -0.38533222009E+02 -0.17661052854E+03  0.17659219021E+02  0.18162581316E+03  0.00000000000E+00 0.  1.
   -9000007    1    1    2    0  501 -0.15268542263E+03  0.73840167435E+02  0.12494439520E+03  0.45207998242E+03  0.40000000000E+03 0. -1.
<mgrwt>
<rscale>  2 0.43466793E+03</rscale>
<asrwt>0</asrwt>
<pdfrwt beam="1">  1        1 0.67510289E-01 0.43466793E+03</pdfrwt>
<pdfrwt beam="2">  1       -1 0.73555047E-01 0.43466793E+03</pdfrwt>
<totfact> 0.10305187E+02</totfact>
</mgrwt>
</event>
<event>
 6    1  0.8938744E-004  0.4886685E+03  0.7818608E-02  0.1016780E+00
         -1   -1    0    0    0  501 -0.00000000000E+00  0.00000000000E+00  0.94845618971E+02  0.94845618971E+02  0.00000000000E+00 0. -1.
          1   -1    0    0  502    0  0.00000000000E+00 -0.00000000000E+00 -0.25580145896E+04  0.25580145896E+04  0.00000000000E+00 0.  1.
    9000007    2    1    2  502    0 -0.25197041073E+03  0.12178930922E+03 -0.13992173898E+04  0.14822557963E+04  0.40118726048E+03 0.  0.
    9000005    1    3    3    0    0 -0.13274509848E+03  0.19512327240E+03 -0.34028619629E+03  0.41411356895E+03  0.99999687468E+00 0.  0.
          4    1    3    3  502    0 -0.11922531224E+03 -0.73333963183E+02 -0.10589311935E+04  0.10681422274E+04  0.00000000000E+00 0.  1.
   -9000007    1    1    2    0  501  0.25197041073E+03 -0.12178930922E+03 -0.10639515808E+04  0.11706044123E+04  0.40000000000E+03 0. -1.
<mgrwt>
<rscale>  2 0.48866846E+03</rscale>
<asrwt>0</asrwt>
<pdfrwt beam="1">  1        1 0.39354061E+00 0.48866846E+03</pdfrwt>
<pdfrwt beam="2">  1       -1 0.14591637E-01 0.48866846E+03</pdfrwt>
<totfact> 0.46235761E+01</totfact>
</mgrwt>
</event>
<event>
 6    1  0.8938744E-004  0.4248695E+03  0.7818608E-02  0.1035493E+00
          1   -1    0    0  502    0  0.00000000000E+00  0.00000000000E+00  0.15008039729E+04  0.15008039729E+04  0.00000000000E+00 0. -1.
         -1   -1    0    0    0  501 -0.00000000000E+00 -0.00000000000E+00 -0.15008415562E+03  0.15008415562E+03  0.00000000000E+00 0.  1.
    9000007    2    1    2  502    0 -0.61437569341E+02  0.12824042810E+03  0.10436506904E+04  0.11269495529E+04  0.40073476138E+03 0.  0.
    9000005    1    3    3    0    0 -0.19630699594E+03 -0.42673033768E+02  0.60034236943E+03  0.63306349208E+03  0.99999687468E+00 0.  0.
          4    1    3    3  502    0  0.13486942660E+03  0.17091346187E+03  0.44330832093E+03  0.49388606084E+03  0.00000000000E+00 0.  1.
   -9000007    1    1    2    0  501  0.61437569341E+02 -0.12824042810E+03  0.30706912693E+03  0.52393857564E+03  0.40000000000E+03 0.  1.
<mgrwt>
<rscale>  2 0.42486953E+03</rscale>
<asrwt>0</asrwt>
<pdfrwt beam="1">  1        1 0.23089291E+00 0.42486953E+03</pdfrwt>
<pdfrwt beam="2">  1       -1 0.23089871E-01 0.42486953E+03</pdfrwt>
<totfact> 0.11130727E+02</totfact>
</mgrwt>
</event>
<event>
 6    1  0.8938744E-004  0.4554370E+03  0.7818608E-02  0.1026113E+00
          2   -1    0    0  502    0  0.00000000000E+00  0.00000000000E+00  0.99464515346E+03  0.99464515346E+03  0.00000000000E+00 0. -1.
         -2   -1    0    0    0  501 -0.00000000000E+00 -0.00000000000E+00 -0.21555195249E+03  0.21555195249E+03  0.00000000000E+00 0.  1.
    9000007    2    1    2  502    0 -0.20407292489E+03 -0.78836121240E+02  0.49828693936E+03  0.67474117943E+03  0.39890461591E+03 0.  0.
    9000005    1    3    3    0    0 -0.10333573717E+03 -0.22159885420E+03  0.41384634874E+03  0.48068089947E+03  0.99999687468E+00 0.  0.
          4    1    3    3  502    0 -0.10073718772E+03  0.14276273296E+03  0.84440590619E+02  0.19406027995E+03  0.00000000000E+00 0.  1.
   -9000007    1    1    2    0  501  0.20407292489E+03  0.78836121240E+02  0.28080626162E+03  0.53545592652E+03  0.40000000000E+03 0. -1.
<mgrwt>
<rscale>  2 0.45543702E+03</rscale>
<asrwt>0</asrwt>
<pdfrwt beam="1">  1        2 0.15302233E+00 0.45543702E+03</pdfrwt>
<pdfrwt beam="2">  1       -2 0.33161839E-01 0.45543702E+03</pdfrwt>
<totfact> 0.22224427E+02</totfact>
</mgrwt>
</event>
<event>
 6    1  0.8938744E-004  0.8473999E+03  0.7818608E-02  0.9493833E-01
         -2   -1    0    0    0  501 -0.00000000000E+00  0.00000000000E+00  0.23082032465E+04  0.23082032465E+04  0.00000000000E+00 0. -1.
          2   -1    0    0  502    0  0.00000000000E+00 -0.00000000000E+00 -0.34632365968E+03  0.34632365968E+03  0.00000000000E+00 0.  1.
    9000007    2    1    2  502    0 -0.10539090215E+01  0.74701808933E+03  0.55769647521E+03  0.10144758864E+04  0.40012351734E+03 0.  0.
    9000005    1    3    3    0    0 -0.15798375676E+03  0.14469479886E+03  0.21685872737E+03  0.30483464345E+03  0.99999687468E+00 0.  0.
          4    1    3    3  502    0  0.15692984774E+03  0.60232329047E+03  0.34083774784E+03  0.70964124296E+03  0.00000000000E+00 0.  1.
   -9000007    1    1    2    0  501  0.10539090215E+01 -0.74701808933E+03  0.14041831116E+04  0.16400510197E+04  0.40000000000E+03 0. -1.
<mgrwt>
<rscale>  2 0.84739988E+03</rscale>
<asrwt>0</asrwt>
<pdfrwt beam="1">  1        2 0.53280564E-01 0.84739988E+03</pdfrwt>
<pdfrwt beam="2">  1       -2 0.35510818E+00 0.84739988E+03</pdfrwt>
<totfact> 0.14020300E+00</totfact>
</mgrwt>
</event>
<event>
 6    1  0.8938744E-004  0.4164796E+03  0.7818608E-02  0.1038218E+00
          1   -1    0    0  502    0  0.00000000000E+00  0.00000000000E+00  0.98157190671E+03  0.98157190671E+03  0.00000000000E+00 0. -1.
         -1   -1    0    0    0  501 -0.00000000000E+00 -0.00000000000E+00 -0.18579217685E+03  0.18579217685E+03  0.00000000000E+00 0.  1.
    9000007    2    1    2  502    0 -0.38103161056E+02 -0.11779230700E+03  0.26685932561E+03  0.49276518607E+03  0.39531854304E+03 0.  0.
    9000005    1    3    3    0    0  0.92487849128E+02 -0.20273215068E+03  0.25181952406E+03  0.33625644952E+03  0.99999687468E+00 0.  0.
          4    1    3    3  502    0 -0.13059101018E+03  0.84939843680E+02  0.15039801554E+02  0.15650873655E+03  0.00000000000E+00 0.  1.
   -9000007    1    1    2    0  501  0.38103161056E+02  0.11779230700E+03  0.52892040424E+03  0.67459889749E+03  0.40000000000E+03 0. -1.
<mgrwt>
<rscale>  2 0.41647961E+03</rscale>
<asrwt>0</asrwt>
<pdfrwt beam="1">  1        1 0.15101106E+00 0.41647961E+03</pdfrwt>
<pdfrwt beam="2">  1       -1 0.28583412E-01 0.41647961E+03</pdfrwt>
<totfact> 0.18139924E+02</totfact>
</mgrwt>
</event>
<event>
 6    1  0.8938744E-004  0.4996921E+03  0.7818608E-02  0.1013859E+00
          2   -1    0    0  502    0  0.00000000000E+00  0.00000000000E+00  0.47868388801E+03  0.47868388801E+03  0.00000000000E+00 0. -1.
         -2   -1    0    0    0  501 -0.00000000000E+00 -0.00000000000E+00 -0.58751485248E+03  0.58751485248E+03  0.00000000000E+00 0.  1.
    9000007    2    1    2  502    0  0.21936927806E+03 -0.20809698540E+03  0.12427468252E+03  0.51323809258E+03  0.39565377222E+03 0.  0.
    9000005    1    3    3    0    0 -0.95287879613E+02 -0.96264497176E+02 -0.39784018625E+02  0.14117507411E+03  0.99999687468E+00 0.  0.
          4    1    3    3  502    0  0.31465715767E+03 -0.11183248822E+03  0.16405870114E+03  0.37206301847E+03  0.00000000000E+00 0.  1.
   -9000007    1    1    2    0  501 -0.21936927806E+03  0.20809698540E+03 -0.23310564698E+03  0.55296064791E+03  0.40000000000E+03 0. -1.
<mgrwt>
<rscale>  2 0.49969211E+03</rscale>
<asrwt>0</asrwt>
<pdfrwt beam="1">  1        2 0.73643675E-01 0.49969211E+03</pdfrwt>
<pdfrwt beam="2">  1       -2 0.90386900E-01 0.49969211E+03</pdfrwt>
<totfact> 0.69786730E+01</totfact>
</mgrwt>
</event>
<event>
 6    1  0.8938744E-004  0.4421640E+03  0.7818608E-02  0.1030085E+00
         -2   -1    0    0    0  501 -0.00000000000E+00  0.00000000000E+00  0.15109163806E+03  0.15109163806E+03  0.00000000000E+00 0.  1.
          2   -1    0    0  502    0  0.00000000000E+00 -0.00000000000E+00 -0.12940120362E+04  0.12940120362E+04  0.00000000000E+00 0. -1.
    9000007    2    1    2  502    0  0.18006490933E+03 -0.53163486106E+02 -0.57559637417E+03  0.72600265494E+03  0.40064815137E+03 0.  0.
    9000005    1    3    3    0    0  0.95451450709E+02 -0.14063321488E+03 -0.57983224577E+03  0.60423101029E+03  0.99999687468E+00 0.  0.
          4    1    3    3  502    0  0.84613458623E+02  0.87469728777E+02  0.42358716004E+01  0.12177164465E+03  0.00000000000E+00 0.  1.
   -9000007    1    1    2    0  501 -0.18006490933E+03  0.53163486106E+02 -0.56732402401E+03  0.71910101936E+03  0.40000000000E+03 0. -1.
<mgrwt>
<rscale>  2 0.44216403E+03</rscale>
<asrwt>0</asrwt>
<pdfrwt beam="1">  1        2 0.19907878E+00 0.44216403E+03</pdfrwt>
<pdfrwt beam="2">  1       -2 0.23244866E-01 0.44216403E+03</pdfrwt>
<totfact> 0.28203279E+02</totfact>
</mgrwt>
</event>
<event>
 6    1  0.8938744E-004  0.4229099E+03  0.7818608E-02  0.1036123E+00
          2   -1    0    0  502    0  0.00000000000E+00  0.00000000000E+00  0.18762841730E+04  0.18762841730E+04  0.00000000000E+00 0. -1.
         -2   -1    0    0    0  501 -0.00000000000E+00 -0.00000000000E+00 -0.95568962933E+02  0.95568962933E+02  0.00000000000E+00 0.  1.
    9000007    2    1    2  502    0 -0.13080001283E+03  0.27164452870E+02  0.84290996029E+03  0.94358992189E+03  0.40251483037E+03 0.  0.
    9000005    1    3    3    0    0 -0.15598410900E+03  0.26749544765E+02  0.88254803261E+03  0.89662623777E+03  0.99999687468E+00 0.  0.
          4    1    3    3  502    0  0.25184096165E+02  0.41490810415E+00 -0.39638072317E+02  0.46963684113E+02  0.00000000000E+00 0.  1.
   -9000007    1    1    2    0  501  0.13080001283E+03 -0.27164452870E+02  0.93780524976E+03  0.10282632140E+04  0.40000000000E+03 0.  1.
<mgrwt>
<rscale>  2 0.42290992E+03</rscale>
<asrwt>0</asrwt>
<pdfrwt beam="1">  1        2 0.28865908E+00 0.42290992E+03</pdfrwt>
<pdfrwt beam="2">  1       -2 0.14702919E-01 0.42290992E+03</pdfrwt>
<totfact> 0.29919911E+02</totfact>
</mgrwt>
</event>
<event>
 6    1  0.8938744E-004  0.4057527E+03  0.7818608E-02  0.1041806E+00
          2   -1    0    0  502    0  0.00000000000E+00  0.00000000000E+00  0.31296270517E+04  0.31296270517E+04  0.00000000000E+00 0. -1.
         -2   -1    0    0    0  501 -0.00000000000E+00 -0.00000000000E+00 -0.52630330949E+02  0.52630330949E+02  0.00000000000E+00 0.  1.
    9000007    2    1    2  502    0  0.16861697405E+02 -0.57935770885E+02  0.15088524105E+04  0.15627767721E+04  0.40248574155E+03 0.  0.
    9000005    1    3    3    0    0 -0.96453625922E+02 -0.11865878943E+03  0.13490094339E+04  0.13576489469E+04  0.99999687468E+00 0.  0.
          4    1    3    3  502    0  0.11331532333E+03  0.60723018549E+02  0.15984297666E+03  0.20512782519E+03  0.00000000000E+00 0.  1.
   -9000007    1    1    2    0  501 -0.16861697405E+02  0.57935770885E+02  0.15681443102E+04  0.16194806106E+04  0.40000000000E+03 0. -1.
<mgrwt>
<rscale>  2 0.40575268E+03</rscale>
<asrwt>0</asrwt>
<pdfrwt beam="1">  1        2 0.48148094E+00 0.40575268E+03</pdfrwt>
<pdfrwt beam="2">  1       -2 0.80969764E-02 0.40575268E+03</pdfrwt>
<totfact> 0.15591840E+02</totfact>
</mgrwt>
</event>
<event>
 6    1  0.8938744E-004  0.4406841E+03  0.7818608E-02  0.1030537E+00
          1   -1    0    0  502    0  0.00000000000E+00  0.00000000000E+00  0.71047714433E+03  0.71047714433E+03  0.00000000000E+00 0. -1.
         -1   -1    0    0    0  501 -0.00000000000E+00 -0.00000000000E+00 -0.31251755111E+03  0.31251755111E+03  0.00000000000E+00 0.  1.
    9000007    2    1    2  502    0 -0.16177029546E+03 -0.90229155215E+02  0.38003170342E+03  0.58182314357E+03  0.39972884040E+03 0.  0.
    9000005    1    3    3    0    0 -0.23701604620E+03  0.40818089723E+02  0.93801528643E+02  0.25815198890E+03  0.99999687468E+00 0.  0.
          4    1    3    3  502    0  0.75245750737E+02 -0.13104724494E+03  0.28623017478E+03  0.32367115467E+03  0.00000000000E+00 0.  1.
   -9000007    1    1    2    0  501  0.16177029546E+03  0.90229155215E+02  0.17927889798E+02  0.44117155187E+03  0.40000000000E+03 0.  1.
<mgrwt>
<rscale>  2 0.44068410E+03</rscale>
<asrwt>0</asrwt>
<pdfrwt beam="1">  1        1 0.10930418E+00 0.44068410E+03</pdfrwt>
<pdfrwt beam="2">  1       -1 0.48079623E-01 0.44068410E+03</pdfrwt>
<totfact> 0.12038213E+02</totfact>
</mgrwt>
</event>
<event>
 6    1  0.8938744E-004  0.4386330E+03  0.7818608E-02  0.1031167E+00
          2   -1    0    0  502    0  0.00000000000E+00  0.00000000000E+00  0.15071147035E+04  0.15071147035E+04  0.00000000000E+00 0. -1.
         -2   -1    0    0    0  501 -0.00000000000E+00 -0.00000000000E+00 -0.26660346799E+03  0.26660346799E+03  0.00000000000E+00 0.  1.
    9000007    2    1    2  502    0  0.10932316201E+03  0.14006840639E+03  0.12611301664E+04  0.13355448582E+04  0.40206971957E+03 0.  0.
    9000005    1    3    3    0    0  0.18776236447E+03  0.24353220327E+03  0.94561349532E+03  0.99435834691E+03  0.99999687468E+00 0.  0.
          4    1    3    3  502    0 -0.78439202455E+02 -0.10346379688E+03  0.31551667108E+03  0.34118651127E+03  0.00000000000E+00 0.  1.
   -9000007    1    1    2    0  501 -0.10932316201E+03 -0.14006840639E+03 -0.20618930848E+02  0.43817331335E+03  0.40000000000E+03 0.  1.
<mgrwt>
<rscale>  2 0.43863305E+03</rscale>
<asrwt>0</asrwt>
<pdfrwt beam="1">  1        2 0.23186380E+00 0.43863305E+03</pdfrwt>
<pdfrwt beam="2">  1       -2 0.41015919E-01 0.43863305E+03</pdfrwt>
<totfact> 0.75121849E+01</totfact>
</mgrwt>
</event>
<event>
 6    1  0.8938744E-004  0.4092915E+03  0.7818608E-02  0.1040609E+00
          1   -1    0    0  502    0  0.00000000000E+00  0.00000000000E+00  0.27132255417E+03  0.27132255417E+03  0.00000000000E+00 0. -1.
         -1   -1    0    0    0  501 -0.00000000000E+00 -0.00000000000E+00 -0.84992707119E+03  0.84992707119E+03  0.00000000000E+00 0.  1.
    9000007    2    1    2  502    0 -0.85588185249E+02  0.15055466891E+02  0.39430729047E+01  0.40927090442E+03  0.39991889283E+03 0.  0.
    9000005    1    3    3    0    0 -0.16534367810E+03 -0.65304511400E+02 -0.13989522716E+03  0.22621866783E+03  0.99999687468E+00 0.  0.
          4    1    3    3  502    0  0.79755492856E+02  0.80359978290E+02  0.14383830007E+03  0.18305223658E+03  0.00000000000E+00 0.  1.
   -9000007    1    1    2    0  501  0.85588185249E+02 -0.15055466891E+02 -0.58254758993E+03  0.71197872094E+03  0.40000000000E+03 0.  1.
<mgrwt>
<rscale>  2 0.40929154E+03</rscale>
<asrwt>0</asrwt>
<pdfrwt beam="1">  1        1 0.41741932E-01 0.40929154E+03</pdfrwt>
<pdfrwt beam="2">  1       -1 0.13075801E+00 0.40929154E+03</pdfrwt>
<totfact> 0.52733766E+01</totfact>
</mgrwt>
</event>
<event>
 6    1  0.8938744E-004  0.7013092E+03  0.7818608E-02  0.9714996E-01
          1   -1    0    0  502    0  0.00000000000E+00  0.00000000000E+00  0.53752224980E+03  0.53752224980E+03  0.00000000000E+00 0.  1.
         -1   -1    0    0    0  501 -0.00000000000E+00 -0.00000000000E+00 -0.91512580684E+03  0.91512580684E+03  0.00000000000E+00 0. -1.
    9000007    2    1    2  502    0 -0.86112404561E+02  0.57261473111E+03 -0.18012649336E+03  0.72168966714E+03  0.39126390779E+03 0.  0.
    9000005    1    3    3    0    0 -0.15333120438E+03  0.21482766266E+03 -0.23516769640E+03  0.35350562698E+03  0.99999687468E+00 0.  0.
          4    1    3    3  502    0  0.67218799818E+02  0.35778706845E+03  0.55041203040E+02  0.36818404016E+03  0.00000000000E+00 0.  1.
   -9000007    1    1    2    0  501  0.86112404561E+02 -0.57261473111E+03 -0.19747706368E+03  0.73095838950E+03  0.40000000000E+03 0. -1.
<mgrwt>
<rscale>  2 0.70130917E+03</rscale>
<asrwt>0</asrwt>
<pdfrwt beam="1">  1        1 0.82695732E-01 0.70130917E+03</pdfrwt>
<pdfrwt beam="2">  1       -1 0.14078858E+00 0.70130917E+03</pdfrwt>
<totfact> 0.17093343E+01</totfact>
</mgrwt>
</event>
<event>
 6    1  0.8938744E-004  0.5018348E+03  0.7818608E-02  0.1013301E+00
         -2   -1    0    0    0  501 -0.00000000000E+00  0.00000000000E+00  0.10529404914E+03  0.10529404914E+03  0.00000000000E+00 0. -1.
          2   -1    0    0  502    0  0.00000000000E+00 -0.00000000000E+00 -0.25697581792E+04  0.25697581792E+04  0.00000000000E+00 0.  1.
    9000007    2    1    2  502    0  0.30209012828E+03  0.98134266547E-01 -0.15855667717E+04  0.16632622196E+04  0.40144833839E+03 0.  0.
    9000005    1    3    3    0    0  0.26618433053E+03 -0.24461427574E+02 -0.42627066141E+03  0.50315021219E+03  0.99999687468E+00 0.  0.
          4    1    3    3  502    0  0.35905797748E+02  0.24559561841E+02 -0.11592961103E+04  0.11601120074E+04  0.00000000000E+00 0.  1.
   -9000007    1    1    2    0  501 -0.30209012828E+03 -0.98134266547E-01 -0.87889735832E+03  0.10117900087E+04  0.40000000000E+03 0. -1.
<mgrwt>
<rscale>  2 0.50183480E+03</rscale>
<asrwt>0</asrwt>
<pdfrwt beam="1">  1        2 0.39534737E+00 0.50183480E+03</pdfrwt>
<pdfrwt beam="2">  1       -2 0.16199086E-01 0.50183480E+03</pdfrwt>
<totfact> 0.10508018E+02</totfact>
</mgrwt>
</event>
<event>
 6    1  0.8938744E-004  0.4207033E+03  0.7818608E-02  0.1036838E+00
          2   -1    0    0  502    0  0.00000000000E+00  0.00000000000E+00  0.46569940122E+03  0.46569940122E+03  0.00000000000E+00 0. -1.
         -2   -1    0    0    0  501 -0.00000000000E+00 -0.00000000000E+00 -0.42628408229E+03  0.42628408229E+03  0.00000000000E+00 0.  1.
    9000007    2    1    2  502    0  0.95068785153E+02  0.89097351112E+02  0.16657945629E+03  0.45249841015E+03  0.40003710333E+03 0.  0.
    9000005    1    3    3    0    0 -0.98696802564E+02  0.70004224286E+02  0.21957526408E+03  0.25071088298E+03  0.99999687468E+00 0.  0.
          4    1    3    3  502    0  0.19376558772E+03  0.19093126826E+02 -0.52995807796E+02  0.20178752716E+03  0.00000000000E+00 0.  1.
   -9000007    1    1    2    0  501 -0.95068785153E+02 -0.89097351112E+02 -0.12716413735E+03  0.43948507337E+03  0.40000000000E+03 0.  1.
<mgrwt>
<rscale>  2 0.42070328E+03</rscale>
<asrwt>0</asrwt>
<pdfrwt beam="1">  1        2 0.71646062E-01 0.42070328E+03</pdfrwt>
<pdfrwt beam="2">  1       -2 0.65582166E-01 0.42070328E+03</pdfrwt>
<totfact> 0.14739571E+02</totfact>
</mgrwt>
</event>
<event>
 6    1  0.8938744E-004  0.4102461E+03  0.7818608E-02  0.1040288E+00
         -2   -1    0    0    0  501 -0.00000000000E+00  0.00000000000E+00  0.24054198995E+03  0.24054198995E+03  0.00000000000E+00 0. -1.
          2   -1    0    0  502    0  0.00000000000E+00 -0.00000000000E+00 -0.72719417327E+03  0.72719417327E+03  0.00000000000E+00 0.  1.
    9000007    2    1    2  502    0  0.10415323622E+03  0.28638884654E+02 -0.33500968533E+03  0.52652926219E+03  0.39157820719E+03 0.  0.
    9000005    1    3    3    0    0  0.46592532859E+02  0.15899147435E+03 -0.35290610836E+01  0.16571845794E+03  0.99999687468E+00 0.  0.
          4    1    3    3  502    0  0.57560703359E+02 -0.13035258970E+03 -0.33148062425E+03  0.36081080425E+03  0.00000000000E+00 0.  1.
   -9000007    1    1    2    0  501 -0.10415323622E+03 -0.28638884654E+02 -0.15164249799E+03  0.44120690104E+03  0.40000000000E+03 0. -1.
<mgrwt>
<rscale>  2 0.41024605E+03</rscale>
<asrwt>0</asrwt>
<pdfrwt beam="1">  1        2 0.11187603E+00 0.41024605E+03</pdfrwt>
<pdfrwt beam="2">  1       -2 0.37006460E-01 0.41024605E+03</pdfrwt>
<totfact> 0.27576436E+02</totfact>
</mgrwt>
</event>
<event>
 6    1  0.8938744E-004  0.4256897E+03  0.7818608E-02  0.1035230E+00
         -2   -1    0    0    0  501 -0.00000000000E+00  0.00000000000E+00  0.26418144239E+03  0.26418144239E+03  0.00000000000E+00 0.  1.
          2   -1    0    0  502    0  0.00000000000E+00 -0.00000000000E+00 -0.76320920338E+03  0.76320920338E+03  0.00000000000E+00 0. -1.
    9000007    2    1    2  502    0 -0.62822765686E+02 -0.13140531139E+03 -0.41296675943E+03  0.59308596961E+03  0.39999420896E+03 0.  0.
    9000005    1    3    3    0    0  0.53704225176E+02  0.75396691149E+02 -0.32824223837E+03  0.34104658316E+03  0.99999687468E+00 0.  0.
          4    1    3    3  502    0 -0.11652699086E+03 -0.20680200254E+03 -0.84724521061E+02  0.25203938645E+03  0.00000000000E+00 0.  1.
   -9000007    1    1    2    0  501  0.62822765686E+02  0.13140531139E+03 -0.86061001554E+02  0.43430467616E+03  0.40000000000E+03 0.  1.
<mgrwt>
<rscale>  2 0.42568972E+03</rscale>
<asrwt>0</asrwt>
<pdfrwt beam="1">  1        2 0.11741680E+00 0.42568972E+03</pdfrwt>
<pdfrwt beam="2">  1       -2 0.40643300E-01 0.42568972E+03</pdfrwt>
<totfact> 0.21639844E+02</totfact>
</mgrwt>
</event>
<event>
 6    1  0.8938744E-004  0.5779061E+03  0.7818608E-02  0.9952335E-01
         -2   -1    0    0    0  501 -0.00000000000E+00  0.00000000000E+00  0.32973313592E+03  0.32973313592E+03  0.00000000000E+00 0. -1.
          2   -1    0    0  502    0  0.00000000000E+00 -0.00000000000E+00 -0.10941040979E+04  0.10941040979E+04  0.00000000000E+00 0.  1.
    9000007    2    1    2  502    0 -0.12885276070E+03  0.39655503342E+03 -0.18825636937E+03  0.60789179921E+03  0.40029120708E+03 0.  0.
    9000005    1    3    3    0    0  0.54766815861E+02  0.48575616550E+02  0.97276800586E+02  0.12174880110E+03  0.99999687468E+00 0.  0.
          4    1    3    3  502    0 -0.18361957656E+03  0.34797941687E+03 -0.28553316996E+03  0.48614299811E+03  0.00000000000E+00 0.  1.
   -9000007    1    1    2    0  501  0.12885276070E+03 -0.39655503342E+03 -0.57611459263E+03  0.81594543464E+03  0.40000000000E+03 0. -1.
<mgrwt>
<rscale>  2 0.57790608E+03</rscale>
<asrwt>0</asrwt>
<pdfrwt beam="1">  1        2 0.16832371E+00 0.57790608E+03</pdfrwt>
<pdfrwt beam="2">  1       -2 0.50728174E-01 0.57790608E+03</pdfrwt>
<totfact> 0.83232245E+01</totfact>
</mgrwt>
</event>
<event>
 6    1  0.8938744E-004  0.4479589E+03  0.7818608E-02  0.1028332E+00
         -1   -1    0    0    0  501 -0.00000000000E+00  0.00000000000E+00  0.14500286697E+03  0.14500286697E+03  0.00000000000E+00 0. -1.
          1   -1    0    0  502    0  0.00000000000E+00 -0.00000000000E+00 -0.16885357036E+04  0.16885357036E+04  0.00000000000E+00 0.  1.
    9000007    2    1    2  502    0 -0.19916281196E+03 -0.28601576599E+02 -0.11614646497E+04  0.12449300629E+04  0.40045830390E+03 0.  0.
    9000005    1    3    3    0    0 -0.25768406871E+03  0.62471097212E+02 -0.42769094863E+03  0.50321393541E+03  0.99999687468E+00 0.  0.
          4    1    3    3  502    0  0.58521256750E+02 -0.91072673811E+02 -0.73377370105E+03  0.74171612748E+03  0.00000000000E+00 0.  1.
   -9000007    1    1    2    0  501  0.19916281196E+03  0.28601576599E+02 -0.38206818695E+03  0.58860850769E+03  0.40000000000E+03 0. -1.
<mgrwt>
<rscale>  2 0.44795895E+03</rscale>
<asrwt>0</asrwt>
<pdfrwt beam="1">  1        1 0.25977473E+00 0.44795895E+03</pdfrwt>
<pdfrwt beam="2">  1       -1 0.22308133E-01 0.44795895E+03</pdfrwt>
<totfact> 0.87996037E+01</totfact>
</mgrwt>
</event>
<event>
 6    1  0.8938744E-004  0.4631255E+03  0.7818608E-02  0.1023879E+00
         -1   -1    0    0    0  501 -0.00000000000E+00  0.00000000000E+00  0.24978110653E+03  0.24978110653E+03  0.00000000000E+00 0. -1.
          1   -1    0    0  502    0  0.00000000000E+00 -0.00000000000E+00 -0.11784222284E+04  0.11784222284E+04  0.00000000000E+00 0.  1.
    9000007    2    1    2  502    0  0.19161492108E+03  0.13348774058E+03 -0.92317151099E+02  0.47218396328E+03  0.39987496036E+03 0.  0.
    9000005    1    3    3    0    0  0.19067772114E+03  0.25550153114E+03 -0.13027274021E+03  0.34439949563E+03  0.99999687468E+00 0.  0.
          4    1    3    3  502    0  0.93719994815E+00 -0.12201379056E+03  0.37955589110E+02  0.12778446766E+03  0.00000000000E+00 0.  1.
   -9000007    1    1    2    0  501 -0.19161492108E+03 -0.13348774058E+03 -0.83632397078E+03  0.95601937165E+03  0.40000000000E+03 0.  1.
<mgrwt>
<rscale>  2 0.46312551E+03</rscale>
<asrwt>0</asrwt>
<pdfrwt beam="1">  1        1 0.18129573E+00 0.46312551E+03</pdfrwt>
<pdfrwt beam="2">  1       -1 0.38427863E-01 0.46312551E+03</pdfrwt>
<totfact> 0.76785210E+01</totfact>
</mgrwt>
</event>
<event>
 6    1  0.8938744E-004  0.5250113E+03  0.7818608E-02  0.1007449E+00
         -1   -1    0    0    0  501 -0.00000000000E+00  0.00000000000E+00  0.40526385622E+03  0.40526385622E+03  0.00000000000E+00 0.  1.
          1   -1    0    0  502    0  0.00000000000E+00 -0.00000000000E+00 -0.72662107280E+03  0.72662107280E+03  0.00000000000E+00 0. -1.
    9000007    2    1    2  502    0  0.19149079109E+03 -0.28145697694E+03 -0.17474981361E+02  0.52506439063E+03  0.39937511990E+03 0.  0.
    9000005    1    3    3    0    0  0.27733928575E+03 -0.32458457464E+03 -0.30932465231E+02  0.42805378507E+03  0.99999687468E+00 0.  0.
          4    1    3    3  502    0 -0.85848494660E+02  0.43127597701E+02  0.13457483870E+02  0.97010605559E+02  0.00000000000E+00 0.  1.
   -9000007    1    1    2    0  501 -0.19149079109E+03  0.28145697694E+03 -0.30388223522E+03  0.60682053840E+03  0.40000000000E+03 0.  1.
<mgrwt>
<rscale>  2 0.52501132E+03</rscale>
<asrwt>0</asrwt>
<pdfrwt beam="1">  1        1 0.11178786E+00 0.52501132E+03</pdfrwt>
<pdfrwt beam="2">  1       -1 0.62348286E-01 0.52501132E+03</pdfrwt>
<totfact> 0.70054710E+01</totfact>
</mgrwt>
</event>
<event>
 6    1  0.8938744E-004  0.6402014E+03  0.7818608E-02  0.9825341E-01
          2   -1    0    0  502    0  0.00000000000E+00  0.00000000000E+00  0.57691960495E+03  0.57691960495E+03  0.00000000000E+00 0. -1.
         -2   -1    0    0    0  501 -0.00000000000E+00 -0.00000000000E+00 -0.13167575404E+04  0.13167575404E+04  0.00000000000E+00 0.  1.
    9000007    2    1    2  502    0 -0.41197312310E+03 -0.28417190190E+03 -0.10122765609E+04  0.11974743526E+04  0.39845384337E+03 0.  0.
    9000005    1    3    3    0    0 -0.11584698889E+02  0.18631150892E+01  0.36849352827E+02  0.38685284589E+02  0.99999687468E+00 0.  0.
          4    1    3    3  502    0 -0.40038842421E+03 -0.28603501699E+03 -0.10491259138E+04  0.11587890680E+04  0.00000000000E+00 0.  1.
   -9000007    1    1    2    0  501  0.41197312310E+03  0.28417190190E+03  0.27243862548E+03  0.69620279276E+03  0.40000000000E+03 0. -1.
<mgrwt>
<rscale>  2 0.64020137E+03</rscale>
<asrwt>0</asrwt>
<pdfrwt beam="1">  1        2 0.88756862E-01 0.64020137E+03</pdfrwt>
<pdfrwt beam="2">  1       -2 0.20257808E+00 0.64020137E+03</pdfrwt>
<totfact> 0.68838879E+00</totfact>
</mgrwt>
</event>
<event>
 6    1  0.8938744E-004  0.4007651E+03  0.7818608E-02  0.1043515E+00
         -1   -1    0    0    0  501 -0.00000000000E+00  0.00000000000E+00  0.29219947994E+03  0.29219947994E+03  0.00000000000E+00 0.  1.
          1   -1    0    0  502    0  0.00000000000E+00 -0.00000000000E+00 -0.60953581894E+03  0.60953581894E+03  0.00000000000E+00 0. -1.
    9000007    2    1    2  502    0 -0.19357694250E+02 -0.16787403981E+02 -0.29995013509E+03  0.50053856740E+03  0.39989028078E+03 0.  0.
    9000005    1    3    3    0    0  0.67684582031E+02 -0.26151802117E+02 -0.37699736590E+03  0.38391813357E+03  0.99999687468E+00 0.  0.
          4    1    3    3  502    0 -0.87042276281E+02  0.93643981351E+01  0.77047230806E+02  0.11662043383E+03  0.00000000000E+00 0.  1.
   -9000007    1    1    2    0  501  0.19357694250E+02  0.16787403981E+02 -0.17386203912E+02  0.40119673147E+03  0.40000000000E+03 0.  1.
<mgrwt>
<rscale>  2 0.40076508E+03</rscale>
<asrwt>0</asrwt>
<pdfrwt beam="1">  1        1 0.93774742E-01 0.40076508E+03</pdfrwt>
<pdfrwt beam="2">  1       -1 0.44953766E-01 0.40076508E+03</pdfrwt>
<totfact> 0.17110916E+02</totfact>
</mgrwt>
</event>
<event>
 6    1  0.8938744E-004  0.5011845E+03  0.7818608E-02  0.1013470E+00
          2   -1    0    0  502    0  0.00000000000E+00  0.00000000000E+00  0.17783159361E+04  0.17783159361E+04  0.00000000000E+00 0.  1.
         -2   -1    0    0    0  501 -0.00000000000E+00 -0.00000000000E+00 -0.14390229274E+03  0.14390229274E+03  0.00000000000E+00 0. -1.
    9000007    2    1    2  502    0  0.21323492530E+03  0.21335724019E+03  0.68702084339E+03  0.85051698187E+03  0.40048851655E+03 0.  0.
    9000005    1    3    3    0    0  0.24208264728E+03  0.76066523023E+02  0.14847754592E+03  0.29400120013E+03  0.99999687468E+00 0.  0.
          4    1    3    3  502    0 -0.28847721978E+02  0.13729071716E+03  0.53854329746E+03  0.55651578174E+03  0.00000000000E+00 0.  1.
   -9000007    1    1    2    0  501 -0.21323492530E+03 -0.21335724019E+03  0.94739279996E+03  0.10717012470E+04  0.40000000000E+03 0.  1.
<mgrwt>
<rscale>  2 0.50118449E+03</rscale>
<asrwt>0</asrwt>
<pdfrwt beam="1">  1        2 0.27358705E+00 0.50118449E+03</pdfrwt>
<pdfrwt beam="2">  1       -2 0.22138816E-01 0.50118449E+03</pdfrwt>
<totfact> 0.16570788E+02</totfact>
</mgrwt>
</event>
<event>
 6    1  0.8938744E-004  0.4907187E+03  0.7818608E-02  0.1016230E+00
          2   -1    0    0  502    0  0.00000000000E+00  0.00000000000E+00  0.96616264998E+02  0.96616264998E+02  0.00000000000E+00 0. -1.
         -2   -1    0    0    0  501 -0.00000000000E+00 -0.00000000000E+00 -0.25083547714E+04  0.25083547714E+04  0.00000000000E+00 0.  1.
    9000007    2    1    2  502    0  0.21296275720E+03  0.18942659963E+03 -0.13087214742E+04  0.13975431314E+04  0.39892271722E+03 0.  0.
    9000005    1    3    3    0    0 -0.11497893407E+03  0.85349540698E+02 -0.45858906402E+03  0.48042650740E+03  0.99999687468E+00 0.  0.
          4    1    3    3  502    0  0.32794169127E+03  0.10407705894E+03 -0.85013241020E+03  0.91711662396E+03  0.00000000000E+00 0.  1.
   -9000007    1    1    2    0  501 -0.21296275720E+03 -0.18942659963E+03 -0.11030170322E+04  0.12074279051E+04  0.40000000000E+03 0. -1.
<mgrwt>
<rscale>  2 0.49071871E+03</rscale>
<asrwt>0</asrwt>
<pdfrwt beam="1">  1        2 0.14864043E-01 0.49071871E+03</pdfrwt>
<pdfrwt beam="2">  1       -2 0.38590067E+00 0.49071871E+03</pdfrwt>
<totfact> 0.41113000E+00</totfact>
</mgrwt>
</event>
<event>
 6    1  0.8938744E-004  0.4190485E+03  0.7818608E-02  0.1037376E+00
         -2   -1    0    0    0  501 -0.00000000000E+00  0.00000000000E+00  0.14373192329E+03  0.14373192329E+03  0.00000000000E+00 0. -1.
          2   -1    0    0  502    0  0.00000000000E+00 -0.00000000000E+00 -0.12217431928E+04  0.12217431928E+04  0.00000000000E+00 0.  1.
    9000007    2    1    2  502    0 -0.11204036663E+03  0.43771264484E+02 -0.54037009746E+03  0.68464694597E+03  0.40283077223E+03 0.  0.
    9000005    1    3    3    0    0  0.98385208753E+02 -0.10417975317E+03 -0.10030089181E+03  0.17491237567E+03  0.99999687468E+00 0.  0.
          4    1    3    3  502    0 -0.21042557538E+03  0.14795101765E+03 -0.44006920565E+03  0.50973457030E+03  0.00000000000E+00 0.  1.
   -9000007    1    1    2    0  501  0.11204036663E+03 -0.43771264484E+02 -0.53764117208E+03  0.68082817015E+03  0.40000000000E+03 0.  1.
<mgrwt>
<rscale>  2 0.41904845E+03</rscale>
<asrwt>0</asrwt>
<pdfrwt beam="1">  1        2 0.18796049E+00 0.41904845E+03</pdfrwt>
<pdfrwt beam="2">  1       -2 0.22112604E-01 0.41904845E+03</pdfrwt>
<totfact> 0.33945618E+02</totfact>
</mgrwt>
</event>
<event>
 6    1  0.8938744E-004  0.5220312E+03  0.7818608E-02  0.1008183E+00
         -2   -1    0    0    0  501 -0.00000000000E+00  0.00000000000E+00  0.16052156992E+04  0.16052156992E+04  0.00000000000E+00 0.  1.
          2   -1    0    0  502    0  0.00000000000E+00 -0.00000000000E+00 -0.23454516287E+03  0.23454516287E+03  0.00000000000E+00 0. -1.
    9000007    2    1    2  502    0  0.26730300814E+03 -0.20277505640E+03  0.11687074468E+04  0.12799772332E+04  0.39986997831E+03 0.  0.
    9000005    1    3    3    0    0  0.10159539542E+03  0.83436702899E+02  0.11194581744E+03  0.17267360481E+03  0.99999687468E+00 0.  0.
          4    1    3    3  502    0  0.16570761272E+03 -0.28621175930E+03  0.10567616294E+04  0.11073036284E+04  0.00000000000E+00 0.  1.
   -9000007    1    1    2    0  501 -0.26730300814E+03  0.20277505640E+03  0.20196308952E+03  0.55978362890E+03  0.40000000000E+03 0. -1.
<mgrwt>
<rscale>  2 0.52203124E+03</rscale>
<asrwt>0</asrwt>
<pdfrwt beam="1">  1        2 0.36083872E-01 0.52203124E+03</pdfrwt>
<pdfrwt beam="2">  1       -2 0.24695625E+00 0.52203124E+03</pdfrwt>
<totfact> 0.10232392E+01</totfact>
</mgrwt>
</event>
<event>
 6    1  0.8938744E-004  0.4975016E+03  0.7818608E-02  0.1014433E+00
          1   -1    0    0  502    0  0.00000000000E+00  0.00000000000E+00  0.30964501140E+03  0.30964501140E+03  0.00000000000E+00 0.  1.
         -1   -1    0    0    0  501 -0.00000000000E+00 -0.00000000000E+00 -0.79968748835E+03  0.79968748835E+03  0.00000000000E+00 0. -1.
    9000007    2    1    2  502    0 -0.14237679739E+03  0.25923776775E+03 -0.23327311445E+03  0.54950584963E+03  0.40008119200E+03 0.  0.
    9000005    1    3    3    0    0 -0.20942148040E+03  0.94988677434E+02  0.30136389483E+02  0.23192543470E+03  0.99999687468E+00 0.  0.
          4    1    3    3  502    0  0.67044683007E+02  0.16424909031E+03 -0.26340950393E+03  0.31758041494E+03  0.00000000000E+00 0.  1.
   -9000007    1    1    2    0  501  0.14237679739E+03 -0.25923776775E+03 -0.25676936249E+03  0.55982665011E+03  0.40000000000E+03 0.  1.
<mgrwt>
<rscale>  2 0.49750161E+03</rscale>
<asrwt>0</asrwt>
<pdfrwt beam="1">  1        1 0.47637695E-01 0.49750161E+03</pdfrwt>
<pdfrwt beam="2">  1       -1 0.12302884E+00 0.49750161E+03</pdfrwt>
<totfact> 0.51174584E+01</totfact>
</mgrwt>
</event>
<event>
 6    1  0.8938744E-004  0.5319761E+03  0.7818608E-02  0.1005754E+00
          2   -1    0    0  502    0  0.00000000000E+00  0.00000000000E+00  0.11027385354E+04  0.11027385354E+04  0.00000000000E+00 0. -1.
         -2   -1    0    0    0  501 -0.00000000000E+00 -0.00000000000E+00 -0.25708816508E+03  0.25708816508E+03  0.00000000000E+00 0.  1.
    9000007    2    1    2  502    0  0.26318215312E+03  0.23218703636E+03  0.45131652407E+03  0.69750136662E+03  0.39955711227E+03 0.  0.
    9000005    1    3    3    0    0  0.10528564084E+03  0.31841105421E+03  0.37209599082E+03  0.50092623408E+03  0.99999687468E+00 0.  0.
          4    1    3    3  502    0  0.15789651228E+03 -0.86224017851E+02  0.79220533246E+02  0.19657513254E+03  0.00000000000E+00 0.  1.
   -9000007    1    1    2    0  501 -0.26318215312E+03 -0.23218703636E+03  0.39433384625E+03  0.66232533386E+03  0.40000000000E+03 0.  1.
<mgrwt>
<rscale>  2 0.53197608E+03</rscale>
<asrwt>0</asrwt>
<pdfrwt beam="1">  1        2 0.16965208E+00 0.53197608E+03</pdfrwt>
<pdfrwt beam="2">  1       -2 0.39552026E-01 0.53197608E+03</pdfrwt>
<totfact> 0.13535335E+02</totfact>
</mgrwt>
</event>
<event>
 6    1  0.8938744E-004  0.5202015E+03  0.7818608E-02  0.1008637E+00
          2   -1    0    0  502    0  0.00000000000E+00  0.00000000000E+00  0.17661205070E+04  0.17661205070E+04  0.00000000000E+00 0. -1.
         -2   -1    0    0    0  501 -0.00000000000E+00 -0.00000000000E+00 -0.42518803997E+03  0.42518803997E+03  0.00000000000E+00 0.  1.
    9000007    2    1    2  502    0  0.40872157878E+02  0.33025460783E+03 -0.20586519494E+03  0.55933990561E+03  0.39967738520E+03 0.  0.
    9000005    1    3    3    0    0  0.21517429097E+03  0.16102799856E+03 -0.58015817902E+02  0.27494877148E+03  0.99999687468E+00 0.  0.
          4    1    3    3  502    0 -0.17430213309E+03  0.16922660927E+03 -0.14784937704E+03  0.28439113414E+03  0.00000000000E+00 0.  1.
   -9000007    1    1    2    0  501 -0.40872157878E+02 -0.33025460783E+03  0.15467976620E+04  0.16319686414E+04  0.40000000000E+03 0. -1.
<mgrwt>
<rscale>  2 0.52020151E+03</rscale>
<asrwt>0</asrwt>
<pdfrwt beam="1">  1        2 0.27171084E+00 0.52020151E+03</pdfrwt>
<pdfrwt beam="2">  1       -2 0.65413546E-01 0.52020151E+03</pdfrwt>
<totfact> 0.20705893E+01</totfact>
</mgrwt>
</event>
<event>
 6    1  0.8938744E-004  0.4410646E+03  0.7818608E-02  0.1030421E+00
          2   -1    0    0  502    0  0.00000000000E+00  0.00000000000E+00  0.51278319972E+03  0.51278319972E+03  0.00000000000E+00 0.  1.
         -2   -1    0    0    0  501 -0.00000000000E+00 -0.00000000000E+00 -0.46971837705E+03  0.46971837705E+03  0.00000000000E+00 0. -1.
    9000007    2    1    2  502    0  0.96532668546E+02 -0.16492327040E+03 -0.19398299032E+03  0.47979897397E+03  0.39504355921E+03 0.  0.
    9000005    1    3    3    0    0  0.11649526704E+03 -0.24361462713E+03 -0.26022699145E+03  0.37501776073E+03  0.99999687468E+00 0.  0.
          4    1    3    3  502    0 -0.19962598491E+02  0.78691356733E+02  0.66244001125E+02  0.10478121324E+03  0.00000000000E+00 0.  1.
   -9000007    1    1    2    0  501 -0.96532668546E+02  0.16492327040E+03  0.23704781299E+03  0.50270260280E+03  0.40000000000E+03 0.  1.
<mgrwt>
<rscale>  2 0.44106459E+03</rscale>
<asrwt>0</asrwt>
<pdfrwt beam="1">  1        2 0.78889723E-01 0.44106459E+03</pdfrwt>
<pdfrwt beam="2">  1       -2 0.72264366E-01 0.44106459E+03</pdfrwt>
<totfact> 0.10696993E+02</totfact>
</mgrwt>
</event>
<event>
 6    1  0.8938744E-004  0.4170438E+03  0.7818608E-02  0.1038033E+00
          1   -1    0    0  502    0  0.00000000000E+00  0.00000000000E+00  0.21933114056E+03  0.21933114056E+03  0.00000000000E+00 0.  1.
         -1   -1    0    0    0  501 -0.00000000000E+00 -0.00000000000E+00 -0.79736512534E+03  0.79736512534E+03  0.00000000000E+00 0. -1.
    9000007    2    1    2  502    0 -0.11876046723E+03 -0.16344865882E+02 -0.32633505172E+03  0.52912723888E+03  0.39888578029E+03 0.  0.
    9000005    1    3    3    0    0  0.74687638554E+02 -0.14816676548E+03 -0.21023120868E+03  0.26782418644E+03  0.99999687468E+00 0.  0.
          4    1    3    3  502    0 -0.19344810578E+03  0.13182189960E+03 -0.11610384304E+03  0.26130305244E+03  0.00000000000E+00 0.  1.
   -9000007    1    1    2    0  501  0.11876046723E+03  0.16344865882E+02 -0.25169893305E+03  0.48756902703E+03  0.40000000000E+03 0.  1.
<mgrwt>
<rscale>  2 0.41704384E+03</rscale>
<asrwt>0</asrwt>
<pdfrwt beam="1">  1        1 0.33743253E-01 0.41704384E+03</pdfrwt>
<pdfrwt beam="2">  1       -1 0.12267155E+00 0.41704384E+03</pdfrwt>
<totfact> 0.80881230E+01</totfact>
</mgrwt>
</event>
<event>
 6    1  0.8938744E-004  0.5283786E+03  0.7818608E-02  0.1006626E+00
         -2   -1    0    0    0  501 -0.00000000000E+00  0.00000000000E+00  0.52920981916E+03  0.52920981916E+03  0.00000000000E+00 0.  1.
          2   -1    0    0  502    0  0.00000000000E+00 -0.00000000000E+00 -0.93452415714E+03  0.93452415714E+03  0.00000000000E+00 0. -1.
    9000007    2    1    2  502    0  0.20773177201E+02  0.34415691020E+03  0.28025044538E+03  0.59835858036E+03  0.40077072600E+03 0.  0.
    9000005    1    3    3    0    0 -0.18218493772E+03  0.17004428878E+03  0.71940988500E+02  0.25938950923E+03  0.99999687468E+00 0.  0.
          4    1    3    3  502    0  0.20295811492E+03  0.17411262143E+03  0.20830945688E+03  0.33896907113E+03  0.00000000000E+00 0.  1.
   -9000007    1    1    2    0  501 -0.20773177201E+02 -0.34415691020E+03 -0.68556478336E+03  0.86537539595E+03  0.40000000000E+03 0. -1.
<mgrwt>
<rscale>  2 0.52837858E+03</rscale>
<asrwt>0</asrwt>
<pdfrwt beam="1">  1        2 0.14377295E+00 0.52837858E+03</pdfrwt>
<pdfrwt beam="2">  1       -2 0.81416895E-01 0.52837858E+03</pdfrwt>
<totfact> 0.38390847E+01</totfact>
</mgrwt>
</event>
<event>
 6    1  0.8938744E-004  0.4418571E+03  0.7818608E-02  0.1030179E+00
         -2   -1    0    0    0  501 -0.00000000000E+00  0.00000000000E+00  0.37793742201E+03  0.37793742201E+03  0.00000000000E+00 0.  1.
          2   -1    0    0  502    0  0.00000000000E+00 -0.00000000000E+00 -0.63900764950E+03  0.63900764950E+03  0.00000000000E+00 0. -1.
    9000007    2    1    2  502    0 -0.23165282799E+02 -0.18630000328E+03 -0.35309035022E+03  0.56560038667E+03  0.39998335020E+03 0.  0.
    9000005    1    3    3    0    0  0.10763194586E+03 -0.12843406915E+03 -0.38426705246E+03  0.41921607017E+03  0.99999687468E+00 0.  0.
          4    1    3    3  502    0 -0.13079722866E+03 -0.57865934125E+02  0.31176702239E+02  0.14638431651E+03  0.00000000000E+00 0.  1.
   -9000007    1    1    2    0  501  0.23165282799E+02  0.18630000328E+03  0.92020122730E+02  0.45134468484E+03  0.40000000000E+03 0.  1.
<mgrwt>
<rscale>  2 0.44185706E+03</rscale>
<asrwt>0</asrwt>
<pdfrwt beam="1">  1        2 0.98308868E-01 0.44185706E+03</pdfrwt>
<pdfrwt beam="2">  1       -2 0.58144219E-01 0.44185706E+03</pdfrwt>
<totfact> 0.13122952E+02</totfact>
</mgrwt>
</event>
<event>
 6    1  0.8938744E-004  0.4618997E+03  0.7818608E-02  0.1024232E+00
         -2   -1    0    0    0  501 -0.00000000000E+00  0.00000000000E+00  0.72106091711E+02  0.72106091711E+02  0.00000000000E+00 0.  1.
          2   -1    0    0  502    0  0.00000000000E+00 -0.00000000000E+00 -0.29687298917E+04  0.29687298917E+04  0.00000000000E+00 0. -1.
    9000007    2    1    2  502    0  0.12492155925E+03  0.19438406686E+03 -0.13604822960E+04  0.14367408236E+04  0.39990193183E+03 0.  0.
    9000005    1    3    3    0    0 -0.14236474351E+03  0.11272860976E+03 -0.49547441585E+03  0.52770385294E+03  0.99999687468E+00 0.  0.
          4    1    3    3  502    0  0.26728630276E+03  0.81655457097E+02 -0.86500788013E+03  0.90903697065E+03  0.00000000000E+00 0.  1.
   -9000007    1    1    2    0  501 -0.12492155925E+03 -0.19438406686E+03 -0.15361415040E+04  0.16040951598E+04  0.40000000000E+03 0. -1.
<mgrwt>
<rscale>  2 0.46189970E+03</rscale>
<asrwt>0</asrwt>
<pdfrwt beam="1">  1        2 0.45672767E+00 0.46189970E+03</pdfrwt>
<pdfrwt beam="2">  1       -2 0.11093245E-01 0.46189970E+03</pdfrwt>
<totfact> 0.11639752E+02</totfact>
</mgrwt>
</event>
<event>
 6    1  0.8938744E-004  0.4015674E+03  0.7818608E-02  0.1043238E+00
          1   -1    0    0  502    0  0.00000000000E+00  0.00000000000E+00  0.11018778545E+04  0.11018778545E+04  0.00000000000E+00 0. -1.
         -1   -1    0    0    0  501 -0.00000000000E+00 -0.00000000000E+00 -0.24458778208E+03  0.24458778208E+03  0.00000000000E+00 0.  1.
    9000007    2    1    2  502    0  0.30384777810E+02  0.16024179429E+02  0.20338602609E+01  0.40166767008E+03  0.40019091888E+03 0.  0.
    9000005    1    3    3    0    0  0.21460226227E+03  0.27837571867E+02  0.12605119887E+02  0.21676934843E+03  0.99999687468E+00 0.  0.
          4    1    3    3  502    0 -0.18421748446E+03 -0.11813392438E+02 -0.10571259626E+02  0.18489832165E+03  0.00000000000E+00 0.  1.
   -9000007    1    1    2    0  501 -0.30384777810E+02 -0.16024179429E+02  0.85525621218E+03  0.94479796651E+03  0.40000000000E+03 0. -1.
<mgrwt>
<rscale>  2 0.40156740E+03</rscale>
<asrwt>0</asrwt>
<pdfrwt beam="1">  1        1 0.16951967E+00 0.40156740E+03</pdfrwt>
<pdfrwt beam="2">  1       -1 0.37628890E-01 0.40156740E+03</pdfrwt>
<totfact> 0.91446199E+01</totfact>
</mgrwt>
</event>
<event>
 6    1  0.8938744E-004  0.5216819E+03  0.7818608E-02  0.1008270E+00
          2   -1    0    0  502    0  0.00000000000E+00  0.00000000000E+00  0.27783094374E+04  0.27783094374E+04  0.00000000000E+00 0.  1.
         -2   -1    0    0    0  501 -0.00000000000E+00 -0.00000000000E+00 -0.98856603622E+02  0.98856603622E+02  0.00000000000E+00 0. -1.
    9000007    2    1    2  502    0  0.33068578331E+03 -0.51148847899E+02  0.14774826265E+04  0.15669364157E+04  0.40045664841E+03 0.  0.
    9000005    1    3    3    0    0  0.13122013405E+03 -0.12740954675E+01  0.78481732954E+02  0.15290758419E+03  0.99999687468E+00 0.  0.
          4    1    3    3  502    0  0.19946564926E+03 -0.49874752431E+02  0.13990008935E+04  0.14140288315E+04  0.00000000000E+00 0.  1.
   -9000007    1    1    2    0  501 -0.33068578331E+03  0.51148847899E+02  0.12019702073E+04  0.13102296253E+04  0.40000000000E+03 0. -1.
<mgrwt>
<rscale>  2 0.52168189E+03</rscale>
<asrwt>0</asrwt>
<pdfrwt beam="1">  1        2 0.42743216E+00 0.52168189E+03</pdfrwt>
<pdfrwt beam="2">  1       -2 0.15208710E-01 0.52168189E+03</pdfrwt>
<totfact> 0.88442337E+01</totfact>
</mgrwt>
</event>
<event>
 6    1  0.8938744E-004  0.5672186E+03  0.7818608E-02  0.9975852E-01
         -2   -1    0    0    0  501 -0.00000000000E+00  0.00000000000E+00  0.15367680362E+04  0.15367680362E+04  0.00000000000E+00 0.  1.
          2   -1    0    0  502    0  0.00000000000E+00 -0.00000000000E+00 -0.25411393423E+03  0.25411393423E+03  0.00000000000E+00 0. -1.
    9000007    2    1    2  502    0  0.27259662610E+03 -0.29570493383E+03  0.10171022638E+04  0.11645688641E+04  0.39996661825E+03 0.  0.
    9000005    1    3    3    0    0  0.24031248769E+03  0.27502341918E+02  0.40988693043E+03  0.47593567452E+03  0.99999687468E+00 0.  0.
          4    1    3    3  502    0  0.32284138416E+02 -0.32320727575E+03  0.60721533337E+03  0.68863318956E+03  0.00000000000E+00 0.  1.
   -9000007    1    1    2    0  501 -0.27259662610E+03  0.29570493383E+03  0.26555183820E+03  0.62631310638E+03  0.40000000000E+03 0. -1.
<mgrwt>
<rscale>  2 0.56721863E+03</rscale>
<asrwt>0</asrwt>
<pdfrwt beam="1">  1        2 0.39094452E-01 0.56721863E+03</pdfrwt>
<pdfrwt beam="2">  1       -2 0.23642585E+00 0.56721863E+03</pdfrwt>
<totfact> 0.10771288E+01</totfact>
</mgrwt>
</event>
<event>
 6    1  0.8938744E-004  0.4748346E+03  0.7818608E-02  0.1020564E+00
          2   -1    0    0  502    0  0.00000000000E+00  0.00000000000E+00  0.15655335393E+04  0.15655335393E+04  0.00000000000E+00 0. -1.
         -2   -1    0    0    0  501 -0.00000000000E+00 -0.00000000000E+00 -0.14699954468E+03  0.14699954468E+03  0.00000000000E+00 0.  1.
    9000007    2    1    2  502    0 -0.25002990919E+03  0.25052190710E+02  0.59104073476E+03  0.75970169130E+03  0.40580160408E+03 0.  0.
    9000005    1    3    3    0    0 -0.50925089734E+02  0.19114671500E+03  0.36749125938E+03  0.41735028110E+03  0.99999687468E+00 0.  0.
          4    1    3    3  502    0 -0.19910481945E+03 -0.16609452428E+03  0.22354947538E+03  0.34235141020E+03  0.00000000000E+00 0.  1.
   -9000007    1    1    2    0  501  0.25002990919E+03 -0.25052190710E+02  0.82749325986E+03  0.95283139267E+03  0.40000000000E+03 0. -1.
<mgrwt>
<rscale>  2 0.47483463E+03</rscale>
<asrwt>0</asrwt>
<pdfrwt beam="1">  1        2 0.24085130E+00 0.47483463E+03</pdfrwt>
<pdfrwt beam="2">  1       -2 0.22615316E-01 0.47483463E+03</pdfrwt>
<totfact> 0.20867494E+02</totfact>
</mgrwt>
</event>
<event>
 6    1  0.8938744E-004  0.4715370E+03  0.7818608E-02  0.1021487E+00
          2   -1    0    0  502    0  0.00000000000E+00  0.00000000000E+00  0.20883844126E+04  0.20883844126E+04  0.00000000000E+00 0. -1.
         -2   -1    0    0    0  501 -0.00000000000E+00 -0.00000000000E+00 -0.10649871703E+03  0.10649871703E+03  0.00000000000E+00 0.  1.
    9000007    2    1    2  502    0 -0.22742163585E+03 -0.10588784607E+03  0.10080651752E+04  0.11126358186E+04  0.39853510625E+03 0.  0.
    9000005    1    3    3    0    0 -0.14429220281E+03 -0.24663638399E+03  0.79010851574E+03  0.84019177117E+03  0.99999687468E+00 0.  0.
          4    1    3    3  502    0 -0.83129433032E+02  0.14074853791E+03  0.21795665947E+03  0.27244404741E+03  0.00000000000E+00 0.  1.
   -9000007    1    1    2    0  501  0.22742163585E+03  0.10588784607E+03  0.97382052032E+03  0.10822473110E+04  0.40000000000E+03 0. -1.
<mgrwt>
<rscale>  2 0.47153704E+03</rscale>
<asrwt>0</asrwt>
<pdfrwt beam="1">  1        2 0.32128988E+00 0.47153704E+03</pdfrwt>
<pdfrwt beam="2">  1       -2 0.16384420E-01 0.47153704E+03</pdfrwt>
<totfact> 0.19060288E+02</totfact>
</mgrwt>
</event>
<event>
 6    1  0.8938744E-004  0.5414155E+03  0.7818608E-02  0.1003501E+00
         -2   -1    0    0    0  501 -0.00000000000E+00  0.00000000000E+00  0.54335324745E+03  0.54335324745E+03  0.00000000000E+00 0.  1.
          2   -1    0    0  502    0  0.00000000000E+00 -0.00000000000E+00 -0.57974274142E+03  0.57974274142E+03  0.00000000000E+00 0. -1.
    9000007    2    1    2  502    0  0.25122603784E+03  0.26434518201E+03  0.12977872760E+03  0.55687626544E+03  0.40034455102E+03 0.  0.
    9000005    1    3    3    0    0 -0.51704510133E+02  0.21980204118E+03  0.39403435390E+01  0.22583803926E+03  0.99999687468E+00 0.  0.
          4    1    3    3  502    0  0.30293054797E+03  0.44543140834E+02  0.12583838406E+03  0.33103822618E+03  0.00000000000E+00 0.  1.
   -9000007    1    1    2    0  501 -0.25122603784E+03 -0.26434518201E+03 -0.16616822156E+03  0.56621972343E+03  0.40000000000E+03 0. -1.
<mgrwt>
<rscale>  2 0.54141550E+03</rscale>
<asrwt>0</asrwt>
<pdfrwt beam="1">  1        2 0.89191190E-01 0.54141550E+03</pdfrwt>
<pdfrwt beam="2">  1       -2 0.83592808E-01 0.54141550E+03</pdfrwt>
<totfact> 0.66508175E+01</totfact>
</mgrwt>
</event>
<event>
 6    1  0.8938744E-004  0.5288584E+03  0.7818608E-02  0.1006509E+00
          1   -1    0    0  502    0  0.00000000000E+00  0.00000000000E+00  0.33388458004E+03  0.33388458004E+03  0.00000000000E+00 0. -1.
         -1   -1    0    0    0  501 -0.00000000000E+00 -0.00000000000E+00 -0.84643420559E+03  0.84643420559E+03  0.00000000000E+00 0.  1.
    9000007    2    1    2  502    0 -0.29664678675E+02  0.34468038627E+03 -0.19628841594E+03  0.56411612859E+03  0.40001662774E+03 0.  0.
    9000005    1    3    3    0    0 -0.44657770973E+00  0.64577403475E+02  0.12266226620E+03  0.13862709697E+03  0.99999687468E+00 0.  0.
          4    1    3    3  502    0 -0.29218100965E+02  0.28010298279E+03 -0.31895068214E+03  0.42548903162E+03  0.00000000000E+00 0.  1.
   -9000007    1    1    2    0  501  0.29664678675E+02 -0.34468038627E+03 -0.31626120961E+03  0.61620265704E+03  0.40000000000E+03 0.  1.
<mgrwt>
<rscale>  2 0.52885841E+03</rscale>
<asrwt>0</asrwt>
<pdfrwt beam="1">  1        1 0.51366858E-01 0.52885841E+03</pdfrwt>
<pdfrwt beam="2">  1       -1 0.13022065E+00 0.52885841E+03</pdfrwt>
<totfact> 0.40197408E+01</totfact>
</mgrwt>
</event>
<event>
 6    1  0.8938744E-004  0.4882047E+03  0.7818608E-02  0.1016904E+00
          1   -1    0    0  502    0  0.00000000000E+00  0.00000000000E+00  0.30554070739E+04  0.30554070739E+04  0.00000000000E+00 0.  1.
         -1   -1    0    0    0  501 -0.00000000000E+00 -0.00000000000E+00 -0.99082227990E+02  0.99082227990E+02  0.00000000000E+00 0. -1.
    9000007    2    1    2  502    0  0.26657394790E+02 -0.27865810145E+03  0.22055400588E+04  0.22589231397E+04  0.39995730541E+03 0.  0.
    9000005    1    3    3    0    0  0.33106752376E+02  0.10106669277E+03  0.57342790447E+03  0.58320759174E+03  0.99999687468E+00 0.  0.
          4    1    3    3  502    0 -0.64493575858E+01 -0.37972479422E+03  0.16321121543E+04  0.16757155480E+04  0.00000000000E+00 0.  1.
   -9000007    1    1    2    0  501 -0.26657394790E+02  0.27865810145E+03  0.75078478709E+03  0.89556616212E+03  0.40000000000E+03 0. -1.
<mgrwt>
<rscale>  2 0.48820475E+03</rscale>
<asrwt>0</asrwt>
<pdfrwt beam="1">  1        1 0.47006255E+00 0.48820475E+03</pdfrwt>
<pdfrwt beam="2">  1       -1 0.15243422E-01 0.48820475E+03</pdfrwt>
<totfact> 0.19432180E+01</totfact>
</mgrwt>
</event>
<event>
 6    1  0.8938744E-004  0.4144367E+03  0.7818608E-02  0.1038892E+00
          1   -1    0    0  502    0  0.00000000000E+00  0.00000000000E+00  0.82952878066E+03  0.82952878066E+03  0.00000000000E+00 0. -1.
         -1   -1    0    0    0  501 -0.00000000000E+00 -0.00000000000E+00 -0.21417453160E+03  0.21417453160E+03  0.00000000000E+00 0.  1.
    9000007    2    1    2  502    0  0.10756367106E+03  0.27042229192E+01  0.21268578494E+03  0.46601901426E+03  0.40045127342E+03 0.  0.
    9000005    1    3    3    0    0  0.79087291958E+02 -0.18896672847E+03  0.17320880329E+03  0.26826388827E+03  0.99999687468E+00 0.  0.
          4    1    3    3  502    0  0.28476379102E+02  0.19167095139E+03  0.39476981644E+02  0.19775512599E+03  0.00000000000E+00 0.  1.
   -9000007    1    1    2    0  501 -0.10756367106E+03 -0.27042229192E+01  0.40266846413E+03  0.57768429800E+03  0.40000000000E+03 0. -1.
<mgrwt>
<rscale>  2 0.41443669E+03</rscale>
<asrwt>0</asrwt>
<pdfrwt beam="1">  1        1 0.12761981E+00 0.41443669E+03</pdfrwt>
<pdfrwt beam="2">  1       -1 0.32949928E-01 0.41443669E+03</pdfrwt>
<totfact> 0.18765549E+02</totfact>
</mgrwt>
</event>
<event>
 6    1  0.8938744E-004  0.4129991E+03  0.7818608E-02  0.1039369E+00
         -2   -1    0    0    0  501 -0.00000000000E+00  0.00000000000E+00  0.17446414115E+03  0.17446414115E+03  0.00000000000E+00 0. -1.
          2   -1    0    0  502    0  0.00000000000E+00 -0.00000000000E+00 -0.14117348825E+04  0.14117348825E+04  0.00000000000E+00 0.  1.
    9000007    2    1    2  502    0  0.59852050755E+01 -0.10251326709E+03 -0.10584379630E+04  0.11361701854E+04  0.40005871586E+03 0.  0.
    9000005    1    3    3    0    0 -0.76735599099E+02  0.44139796759E+02 -0.29156894935E+02  0.93208359835E+02  0.99999687468E+00 0.  0.
          4    1    3    3  502    0  0.82720804175E+02 -0.14665306385E+03 -0.10292810681E+04  0.10429618256E+04  0.00000000000E+00 0.  1.
   -9000007    1    1    2    0  501 -0.59852050755E+01  0.10251326709E+03 -0.17883277834E+03  0.45002883821E+03  0.40000000000E+03 0. -1.
<mgrwt>
<rscale>  2 0.41299913E+03</rscale>
<asrwt>0</asrwt>
<pdfrwt beam="1">  1        2 0.21718999E+00 0.41299913E+03</pdfrwt>
<pdfrwt beam="2">  1       -2 0.26840636E-01 0.41299913E+03</pdfrwt>
<totfact> 0.18808317E+02</totfact>
</mgrwt>
</event>
<event>
 6    1  0.8938744E-004  0.4068078E+03  0.7818608E-02  0.1041448E+00
          2   -1    0    0  502    0  0.00000000000E+00  0.00000000000E+00  0.13128018803E+04  0.13128018803E+04  0.00000000000E+00 0. -1.
         -2   -1    0    0    0  501 -0.00000000000E+00 -0.00000000000E+00 -0.13967080699E+03  0.13967080699E+03  0.00000000000E+00 0.  1.
    9000007    2    1    2  502    0  0.64481784992E+02 -0.36193671038E+02  0.35990193575E+03  0.54318202278E+03  0.40006177534E+03 0.  0.
    9000005    1    3    3    0    0  0.38432689783E+02 -0.20633118469E+03  0.28866940796E+03  0.35690426799E+03  0.99999687468E+00 0.  0.
          4    1    3    3  502    0  0.26049095209E+02  0.17013751365E+03  0.71232527790E+02  0.18627775479E+03  0.00000000000E+00 0.  1.
   -9000007    1    1    2    0  501 -0.64481784992E+02  0.36193671038E+02  0.81322913759E+03  0.90929066455E+03  0.40000000000E+03 0.  1.
<mgrwt>
<rscale>  2 0.40680781E+03</rscale>
<asrwt>0</asrwt>
<pdfrwt beam="1">  1        2 0.20196951E+00 0.40680781E+03</pdfrwt>
<pdfrwt beam="2">  1       -2 0.21487817E-01 0.40680781E+03</pdfrwt>
<totfact> 0.31717498E+02</totfact>
</mgrwt>
</event>
<event>
 6    1  0.8938744E-004  0.4453175E+03  0.7818608E-02  0.1029128E+00
          1   -1    0    0  502    0  0.00000000000E+00  0.00000000000E+00  0.84895881991E+03  0.84895881991E+03  0.00000000000E+00 0. -1.
         -1   -1    0    0    0  501 -0.00000000000E+00 -0.00000000000E+00 -0.32023651622E+03  0.32023651622E+03  0.00000000000E+00 0.  1.
    9000007    2    1    2  502    0  0.20573974739E+02 -0.19451895055E+03  0.56847167897E+03  0.72215962906E+03  0.40011694477E+03 0.  0.
    9000005    1    3    3    0    0 -0.32159809151E+02 -0.10808332334E+03  0.60431768333E+03  0.61474964050E+03  0.99999687468E+00 0.  0.
          4    1    3    3  502    0  0.52733783890E+02 -0.86435627214E+02 -0.35846004358E+02  0.10740998857E+03  0.00000000000E+00 0.  1.
   -9000007    1    1    2    0  501 -0.20573974739E+02  0.19451895055E+03 -0.39749375287E+02  0.44703570707E+03  0.40000000000E+03 0.  1.
<mgrwt>
<rscale>  2 0.44531752E+03</rscale>
<asrwt>0</asrwt>
<pdfrwt beam="1">  1        1 0.13060905E+00 0.44531752E+03</pdfrwt>
<pdfrwt beam="2">  1       -1 0.49267157E-01 0.44531752E+03</pdfrwt>
<totfact> 0.87204638E+01</totfact>
</mgrwt>
</event>
<event>
 6    1  0.8938744E-004  0.4418011E+03  0.7818608E-02  0.1030196E+00
         -2   -1    0    0    0  501 -0.00000000000E+00  0.00000000000E+00  0.24401554295E+03  0.24401554295E+03  0.00000000000E+00 0.  1.
          2   -1    0    0  502    0  0.00000000000E+00 -0.00000000000E+00 -0.91706664814E+03  0.91706664814E+03  0.00000000000E+00 0. -1.
    9000007    2    1    2  502    0 -0.15367784677E+03 -0.10883941289E+03 -0.54382592111E+03  0.70047167603E+03  0.39931320798E+03 0.  0.
    9000005    1    3    3    0    0 -0.79393902783E+02 -0.18936865203E+03 -0.55362186178E+03  0.59047611637E+03  0.99999687468E+00 0.  0.
          4    1    3    3  502    0 -0.74283943987E+02  0.80529239145E+02  0.97959406693E+01  0.10999555966E+03  0.00000000000E+00 0.  1.
   -9000007    1    1    2    0  501  0.15367784677E+03  0.10883941289E+03 -0.12922518408E+03  0.46061051506E+03  0.40000000000E+03 0.  1.
<mgrwt>
<rscale>  2 0.44180111E+03</rscale>
<asrwt>0</asrwt>
<pdfrwt beam="1">  1        2 0.14108718E+00 0.44180111E+03</pdfrwt>
<pdfrwt beam="2">  1       -2 0.37540852E-01 0.44180111E+03</pdfrwt>
<totfact> 0.19734648E+02</totfact>
</mgrwt>
</event>
<event>
 6    1  0.8938744E-004  0.5600315E+03  0.7818608E-02  0.9991983E-01
          2   -1    0    0  502    0  0.00000000000E+00  0.00000000000E+00  0.13254768826E+04  0.13254768826E+04  0.00000000000E+00 0. -1.
         -2   -1    0    0    0  501 -0.00000000000E+00 -0.00000000000E+00 -0.24375383090E+03  0.24375383090E+03  0.00000000000E+00 0.  1.
    9000007    2    1    2  502    0 -0.38684216686E+03  0.61252412155E+02  0.67528009081E+03  0.87742539371E+03  0.40059131347E+03 0.  0.
    9000005    1    3    3    0    0 -0.25270418642E+03 -0.16115150043E+03  0.33829988524E+03  0.45197015861E+03  0.99999687468E+00 0.  0.
          4    1    3    3  502    0 -0.13413798044E+03  0.22240391259E+03  0.33698020557E+03  0.42545523511E+03  0.00000000000E+00 0.  1.
   -9000007    1    1    2    0  501  0.38684216686E+03 -0.61252412155E+02  0.40644296091E+03  0.69180531982E+03  0.40000000000E+03 0. -1.
<mgrwt>
<rscale>  2 0.56003154E+03</rscale>
<asrwt>0</asrwt>
<pdfrwt beam="1">  1        2 0.20391952E+00 0.56003154E+03</pdfrwt>
<pdfrwt beam="2">  1       -2 0.37500590E-01 0.56003154E+03</pdfrwt>
<totfact> 0.11084134E+02</totfact>
</mgrwt>
</event>
<event>
 6    1  0.8938744E-004  0.4317840E+03  0.7818608E-02  0.1033298E+00
          1   -1    0    0  502    0  0.00000000000E+00  0.00000000000E+00  0.28527151225E+03  0.28527151225E+03  0.00000000000E+00 0.  1.
         -1   -1    0    0    0  501 -0.00000000000E+00 -0.00000000000E+00 -0.65534294032E+03  0.65534294032E+03  0.00000000000E+00 0. -1.
    9000007    2    1    2  502    0  0.12220714023E+03 -0.10775923395E+03 -0.20962350375E+03  0.47986487412E+03  0.39972696489E+03 0.  0.
    9000005    1    3    3    0    0  0.78300595208E+02 -0.21679516691E+03 -0.26390124530E+03  0.35039405656E+03  0.99999687468E+00 0.  0.
          4    1    3    3  502    0  0.43906545026E+02  0.10903593296E+03  0.54277741545E+02  0.12947081756E+03  0.00000000000E+00 0.  1.
   -9000007    1    1    2    0  501 -0.12220714023E+03  0.10775923395E+03 -0.16044792432E+03  0.46074957845E+03  0.40000000000E+03 0.  1.
<mgrwt>
<rscale>  2 0.43178401E+03</rscale>
<asrwt>0</asrwt>
<pdfrwt beam="1">  1        1 0.43887926E-01 0.43178401E+03</pdfrwt>
<pdfrwt beam="2">  1       -1 0.10082199E+00 0.43178401E+03</pdfrwt>
<totfact> 0.91401592E+01</totfact>
</mgrwt>
</event>
<event>
 6    1  0.8938744E-004  0.4741448E+03  0.7818608E-02  0.1020757E+00
         -2   -1    0    0    0  501 -0.00000000000E+00  0.00000000000E+00  0.10182442524E+03  0.10182442524E+03  0.00000000000E+00 0.  1.
          2   -1    0    0  502    0  0.00000000000E+00 -0.00000000000E+00 -0.25721749730E+04  0.25721749730E+04  0.00000000000E+00 0. -1.
    9000007    2    1    2  502    0 -0.18127356734E+03 -0.17887909026E+03 -0.17382513294E+04  0.18017453637E+04  0.39988853010E+03 0.  0.
    9000005    1    3    3    0    0 -0.90417738525E+02  0.12501288468E+03 -0.48321265232E+03  0.50724654374E+03  0.99999687468E+00 0.  0.
          4    1    3    3  502    0 -0.90855828820E+02 -0.30389197494E+03 -0.12550386771E+04  0.12944988200E+04  0.00000000000E+00 0.  1.
   -9000007    1    1    2    0  501  0.18127356734E+03  0.17887909026E+03 -0.73209921841E+03  0.87225403453E+03  0.40000000000E+03 0.  1.
<mgrwt>
<rscale>  2 0.47414476E+03</rscale>
<asrwt>0</asrwt>
<pdfrwt beam="1">  1        2 0.39571921E+00 0.47414476E+03</pdfrwt>
<pdfrwt beam="2">  1       -2 0.15665297E-01 0.47414476E+03</pdfrwt>
<totfact> 0.11141847E+02</totfact>
</mgrwt>
</event>
<event>
 6    1  0.8938744E-004  0.4357866E+03  0.7818608E-02  0.1032047E+00
         -4   -1    0    0    0  501 -0.00000000000E+00  0.00000000000E+00  0.12841694302E+04  0.12841694302E+04  0.00000000000E+00 0. -1.
          4   -1    0    0  502    0  0.00000000000E+00 -0.00000000000E+00 -0.15019887504E+03  0.15019887504E+03  0.00000000000E+00 0.  1.
    9000007    2    1    2  502    0 -0.84761031556E+02 -0.15054709742E+03  0.65608294510E+03  0.78766479600E+03  0.40015264461E+03 0.  0.
    9000005    1    3    3    0    0 -0.39989145054E+02 -0.96104015357E+02  0.69795693640E+03  0.70567697890E+03  0.99999687468E+00 0.  0.
          4    1    3    3  502    0 -0.44771886502E+02 -0.54443082063E+02 -0.41873991296E+02  0.81987817099E+02  0.00000000000E+00 0.  1.
   -9000007    1    1    2    0  501  0.84761031556E+02  0.15054709742E+03  0.47788761008E+03  0.64670350925E+03  0.40000000000E+03 0.  1.
<mgrwt>
<rscale>  2 0.43578655E+03</rscale>
<asrwt>0</asrwt>
<pdfrwt beam="1">  1        4 0.23107520E-01 0.43578655E+03</pdfrwt>
<pdfrwt beam="2">  1       -4 0.19756452E+00 0.43578655E+03</pdfrwt>
<totfact> 0.47727590E+00</totfact>
</mgrwt>
</event>
<event>
 6    1  0.8938744E-004  0.4891991E+03  0.7818608E-02  0.1016637E+00
          1   -1    0    0  502    0  0.00000000000E+00  0.00000000000E+00  0.78856555695E+03  0.78856555695E+03  0.00000000000E+00 0. -1.
         -1   -1    0    0    0  501 -0.00000000000E+00 -0.00000000000E+00 -0.53754638706E+03  0.53754638706E+03  0.00000000000E+00 0.  1.
    9000007    2    1    2  502    0  0.77041959322E+02  0.27053420418E+03  0.56306961111E+03  0.74602600468E+03  0.40047870552E+03 0.  0.
    9000005    1    3    3    0    0  0.15458171626E+03 -0.95532776350E+01  0.35878977968E+03  0.39079134856E+03  0.99999687468E+00 0.  0.
          4    1    3    3  502    0 -0.77539756938E+02  0.28008748182E+03  0.20427983144E+03  0.35523465612E+03  0.00000000000E+00 0.  1.
   -9000007    1    1    2    0  501 -0.77041959322E+02 -0.27053420418E+03 -0.31205044122E+03  0.58008593932E+03  0.40000000000E+03 0.  1.
<mgrwt>
<rscale>  2 0.48919908E+03</rscale>
<asrwt>0</asrwt>
<pdfrwt beam="1">  1        1 0.12131778E+00 0.48919908E+03</pdfrwt>
<pdfrwt beam="2">  1       -1 0.82699444E-01 0.48919908E+03</pdfrwt>
<totfact> 0.34815556E+01</totfact>
</mgrwt>
</event>
<event>
 6    1  0.8938744E-004  0.4666987E+03  0.7818608E-02  0.1022856E+00
         -4   -1    0    0    0  501 -0.00000000000E+00  0.00000000000E+00  0.52547607180E+03  0.52547607180E+03  0.00000000000E+00 0. -1.
          4   -1    0    0  502    0  0.00000000000E+00 -0.00000000000E+00 -0.10530902148E+04  0.10530902148E+04  0.00000000000E+00 0.  1.
    9000007    2    1    2  502    0 -0.41415011610E+02 -0.23737224985E+03 -0.87837495864E+03  0.99453380640E+03  0.39936716933E+03 0.  0.
    9000005    1    3    3    0    0  0.16264420678E+03 -0.13166129153E+02 -0.31641992181E+03  0.35601833080E+03  0.99999687468E+00 0.  0.
          4    1    3    3  502    0 -0.20405921839E+03 -0.22420612069E+03 -0.56195503683E+03  0.63851547560E+03  0.00000000000E+00 0.  1.
   -9000007    1    1    2    0  501  0.41415011610E+02  0.23737224985E+03  0.35076081561E+03  0.58403248022E+03  0.40000000000E+03 0. -1.
<mgrwt>
<rscale>  2 0.46669874E+03</rscale>
<asrwt>0</asrwt>
<pdfrwt beam="1">  1        4 0.16201388E+00 0.46669874E+03</pdfrwt>
<pdfrwt beam="2">  1       -4 0.80842472E-01 0.46669874E+03</pdfrwt>
<totfact> 0.64389422E-01</totfact>
</mgrwt>
</event>
<event>
 6    1  0.8938744E-004  0.4477088E+03  0.7818608E-02  0.1028408E+00
         -1   -1    0    0    0  501 -0.00000000000E+00  0.00000000000E+00  0.32838882417E+03  0.32838882417E+03  0.00000000000E+00 0.  1.
          1   -1    0    0  502    0  0.00000000000E+00 -0.00000000000E+00 -0.70859035807E+03  0.70859035807E+03  0.00000000000E+00 0. -1.
    9000007    2    1    2  502    0  0.14507225393E+03 -0.14203123045E+03 -0.38280672930E+03  0.58839739892E+03  0.39805989220E+03 0.  0.
    9000005    1    3    3    0    0 -0.73914782678E+02 -0.20552026941E+03 -0.20020052865E+03  0.29628234490E+03  0.99999687468E+00 0.  0.
          4    1    3    3  502    0  0.21898703660E+03  0.63489038962E+02 -0.18260620065E+03  0.29211505402E+03  0.00000000000E+00 0.  1.
   -9000007    1    1    2    0  501 -0.14507225393E+03  0.14203123045E+03  0.26051953978E+01  0.44858178332E+03  0.40000000000E+03 0. -1.
<mgrwt>
<rscale>  2 0.44770880E+03</rscale>
<asrwt>0</asrwt>
<pdfrwt beam="1">  1        1 0.10901390E+00 0.44770880E+03</pdfrwt>
<pdfrwt beam="2">  1       -1 0.50521357E-01 0.44770880E+03</pdfrwt>
<totfact> 0.11008037E+02</totfact>
</mgrwt>
</event>
<event>
 6    1  0.8938744E-004  0.5458728E+03  0.7818608E-02  0.1002454E+00
         -2   -1    0    0    0  501 -0.00000000000E+00  0.00000000000E+00  0.26339087980E+03  0.26339087980E+03  0.00000000000E+00 0.  1.
          2   -1    0    0  502    0  0.00000000000E+00 -0.00000000000E+00 -0.11427062794E+04  0.11427062794E+04  0.00000000000E+00 0. -1.
    9000007    2    1    2  502    0 -0.90764844518E+02 -0.35967859387E+03 -0.36972449617E+03  0.65957868203E+03  0.40092503893E+03 0.  0.
    9000005    1    3    3    0    0  0.10013435024E+03 -0.22219809222E+03 -0.34587840879E+03  0.42312144113E+03  0.99999687468E+00 0.  0.
          4    1    3    3  502    0 -0.19089919476E+03 -0.13748050164E+03 -0.23846087379E+02  0.23645724090E+03  0.00000000000E+00 0.  1.
   -9000007    1    1    2    0  501  0.90764844518E+02  0.35967859387E+03 -0.50959090345E+03  0.74651847718E+03  0.40000000000E+03 0.  1.
<mgrwt>
<rscale>  2 0.54587284E+03</rscale>
<asrwt>0</asrwt>
<pdfrwt beam="1">  1        2 0.17580097E+00 0.54587284E+03</pdfrwt>
<pdfrwt beam="2">  1       -2 0.40521674E-01 0.54587284E+03</pdfrwt>
<totfact> 0.12203170E+02</totfact>
</mgrwt>
</event>
<event>
 6    1  0.8938744E-004  0.6430447E+03  0.7818608E-02  0.9819919E-01
         -2   -1    0    0    0  501 -0.00000000000E+00  0.00000000000E+00  0.18953952094E+03  0.18953952094E+03  0.00000000000E+00 0.  1.
          2   -1    0    0  502    0  0.00000000000E+00 -0.00000000000E+00 -0.22897646403E+04  0.22897646403E+04  0.00000000000E+00 0. -1.
    9000007    2    1    2  502    0 -0.42332666831E+03 -0.27271305249E+03 -0.78064195982E+03  0.10113540286E+04  0.39982149086E+03 0.  0.
    9000005    1    3    3    0    0 -0.15021381890E+03  0.21411793197E+02 -0.49759810831E+03  0.52021873636E+03  0.99999687468E+00 0.  0.
          4    1    3    3  502    0 -0.27311284942E+03 -0.29412484569E+03 -0.28304385151E+03  0.49113529220E+03  0.00000000000E+00 0.  1.
   -9000007    1    1    2    0  501  0.42332666831E+03  0.27271305249E+03 -0.13195831596E+04  0.14679501327E+04  0.40000000000E+03 0.  1.
<mgrwt>
<rscale>  2 0.64304470E+03</rscale>
<asrwt>0</asrwt>
<pdfrwt beam="1">  1        2 0.35227146E+00 0.64304470E+03</pdfrwt>
<pdfrwt beam="2">  1       -2 0.29159929E-01 0.64304470E+03</pdfrwt>
<totfact> 0.52190781E+01</totfact>
</mgrwt>
</event>
<event>
 6    1  0.8938744E-004  0.4507959E+03  0.7818608E-02  0.1027485E+00
         -2   -1    0    0    0  501 -0.00000000000E+00  0.00000000000E+00  0.10072011719E+03  0.10072011719E+03  0.00000000000E+00 0.  1.
          2   -1    0    0  502    0  0.00000000000E+00 -0.00000000000E+00 -0.21575995174E+04  0.21575995174E+04  0.00000000000E+00 0. -1.
    9000007    2    1    2  502    0  0.20128838931E+03 -0.43323657608E+02 -0.13179704003E+04  0.13932297750E+04  0.40205630822E+03 0.  0.
    9000005    1    3    3    0    0  0.21780348807E+02  0.77595701120E+02 -0.10292023466E+04  0.10323535958E+04  0.99999687468E+00 0.  0.
          4    1    3    3  502    0  0.17950804051E+03 -0.12091935873E+03 -0.28876805363E+03  0.36087617921E+03  0.00000000000E+00 0.  1.
   -9000007    1    1    2    0  501 -0.20128838931E+03  0.43323657608E+02 -0.73890899997E+03  0.86508985962E+03  0.40000000000E+03 0.  1.
<mgrwt>
<rscale>  2 0.45079587E+03</rscale>
<asrwt>0</asrwt>
<pdfrwt beam="1">  1        2 0.33193841E+00 0.45079587E+03</pdfrwt>
<pdfrwt beam="2">  1       -2 0.15495402E-01 0.45079587E+03</pdfrwt>
<totfact> 0.19276996E+02</totfact>
</mgrwt>
</event>
<event>
 6    1  0.8938744E-004  0.4991393E+03  0.7818608E-02  0.1014004E+00
         -2   -1    0    0    0  501 -0.00000000000E+00  0.00000000000E+00  0.49073219271E+03  0.49073219271E+03  0.00000000000E+00 0.  1.
          2   -1    0    0  502    0  0.00000000000E+00 -0.00000000000E+00 -0.50955618950E+03  0.50955618950E+03  0.00000000000E+00 0. -1.
    9000007    2    1    2  502    0  0.23482738659E+02  0.29800664752E+03  0.20856072088E+02  0.49935534393E+03  0.39945135221E+03 0.  0.
    9000005    1    3    3    0    0  0.35174849702E+02 -0.67757285655E+02  0.99132864872E+02  0.12512651479E+03  0.99999687468E+00 0.  0.
          4    1    3    3  502    0 -0.11692111043E+02  0.36576393317E+03 -0.78276792784E+02  0.37422882914E+03  0.00000000000E+00 0.  1.
   -9000007    1    1    2    0  501 -0.23482738659E+02 -0.29800664752E+03 -0.39680068883E+02  0.50093303829E+03  0.40000000000E+03 0. -1.
<mgrwt>
<rscale>  2 0.49913925E+03</rscale>
<asrwt>0</asrwt>
<pdfrwt beam="1">  1        2 0.78393260E-01 0.49913925E+03</pdfrwt>
<pdfrwt beam="2">  1       -2 0.75497261E-01 0.49913925E+03</pdfrwt>
<totfact> 0.97418417E+01</totfact>
</mgrwt>
</event>
<event>
 6    1  0.8938744E-004  0.4215289E+03  0.7818608E-02  0.1036570E+00
         -2   -1    0    0    0  501 -0.00000000000E+00  0.00000000000E+00  0.14198460284E+03  0.14198460284E+03  0.00000000000E+00 0.  1.
          2   -1    0    0  502    0  0.00000000000E+00 -0.00000000000E+00 -0.16453767359E+04  0.16453767359E+04  0.00000000000E+00 0. -1.
    9000007    2    1    2  502    0  0.11528402225E+03 -0.66261457854E+02 -0.31442747139E+03  0.52588682323E+03  0.40001416162E+03 0.  0.
    9000005    1    3    3    0    0  0.18493118499E+03  0.31606854104E+02 -0.35297015747E+03  0.39973424730E+03  0.99999687468E+00 0.  0.
          4    1    3    3  502    0 -0.69647162737E+02 -0.97868311958E+02  0.38542686080E+02  0.12615257593E+03  0.00000000000E+00 0.  1.
   -9000007    1    1    2    0  501 -0.11528402225E+03  0.66261457854E+02 -0.11889646617E+04  0.12614745155E+04  0.40000000000E+03 0. -1.
<mgrwt>
<rscale>  2 0.42152894E+03</rscale>
<asrwt>0</asrwt>
<pdfrwt beam="1">  1        2 0.25313487E+00 0.42152894E+03</pdfrwt>
<pdfrwt beam="2">  1       -2 0.21843786E-01 0.42152894E+03</pdfrwt>
<totfact> 0.20220423E+02</totfact>
</mgrwt>
</event>
<event>
 6    1  0.8938744E-004  0.4061816E+03  0.7818608E-02  0.1041660E+00
         -1   -1    0    0    0  501 -0.00000000000E+00  0.00000000000E+00  0.43702444609E+03  0.43702444609E+03  0.00000000000E+00 0. -1.
          1   -1    0    0  502    0  0.00000000000E+00 -0.00000000000E+00 -0.42845136889E+03  0.42845136889E+03  0.00000000000E+00 0.  1.
    9000007    2    1    2  502    0  0.69574495371E+02  0.16161236824E+02 -0.14492062832E+03  0.43112329269E+03  0.39970427694E+03 0.  0.
    9000005    1    3    3    0    0 -0.14667556189E+03  0.57655426607E+02 -0.14010588475E+03  0.21087562118E+03  0.99999687468E+00 0.  0.
          4    1    3    3  502    0  0.21625005726E+03 -0.41494189783E+02 -0.48147435736E+01  0.22024767151E+03  0.00000000000E+00 0.  1.
   -9000007    1    1    2    0  501 -0.69574495371E+02 -0.16161236824E+02  0.15349370553E+03  0.43435252229E+03  0.40000000000E+03 0. -1.
<mgrwt>
<rscale>  2 0.40618162E+03</rscale>
<asrwt>0</asrwt>
<pdfrwt beam="1">  1        1 0.65915595E-01 0.40618162E+03</pdfrwt>
<pdfrwt beam="2">  1       -1 0.67234530E-01 0.40618162E+03</pdfrwt>
<totfact> 0.12798111E+02</totfact>
</mgrwt>
</event>
<event>
 6    1  0.8938744E-004  0.4650777E+03  0.7818608E-02  0.1023319E+00
          1   -1    0    0  502    0  0.00000000000E+00  0.00000000000E+00  0.11926888290E+03  0.11926888290E+03  0.00000000000E+00 0. -1.
         -1   -1    0    0    0  501 -0.00000000000E+00 -0.00000000000E+00 -0.20427292319E+04  0.20427292319E+04  0.00000000000E+00 0.  1.
    9000007    2    1    2  502    0  0.16746241001E+03 -0.16736510235E+03 -0.60010811337E+03  0.75938773560E+03  0.40060610205E+03 0.  0.
    9000005    1    3    3    0    0  0.21801448962E+03 -0.21677878822E+03 -0.23360401858E+03  0.38612847369E+03  0.99999687468E+00 0.  0.
          4    1    3    3  502    0 -0.50552079608E+02  0.49413685869E+02 -0.36650409479E+03  0.37325926191E+03  0.00000000000E+00 0.  1.
   -9000007    1    1    2    0  501 -0.16746241001E+03  0.16736510235E+03 -0.13233522356E+04  0.14026103792E+04  0.40000000000E+03 0.  1.
<mgrwt>
<rscale>  2 0.46507765E+03</rscale>
<asrwt>0</asrwt>
<pdfrwt beam="1">  1        1 0.18349059E-01 0.46507765E+03</pdfrwt>
<pdfrwt beam="2">  1       -1 0.31426604E+00 0.46507765E+03</pdfrwt>
<totfact> 0.85789706E+00</totfact>
</mgrwt>
</event>
<event>
 6    1  0.8938744E-004  0.7664519E+03  0.7818608E-02  0.9609888E-01
         -2   -1    0    0    0  501 -0.00000000000E+00  0.00000000000E+00  0.42384077742E+03  0.42384077742E+03  0.00000000000E+00 0.  1.
          2   -1    0    0  502    0  0.00000000000E+00 -0.00000000000E+00 -0.20889472405E+04  0.20889472405E+04  0.00000000000E+00 0. -1.
    9000007    2    1    2  502    0  0.65365987131E+03 -0.29797165355E+00 -0.15614555318E+04  0.17394738310E+04  0.40044289815E+03 0.  0.
    9000005    1    3    3    0    0  0.59634870295E+03  0.94007830828E+01 -0.92656038212E+03  0.11019234510E+04  0.99999687468E+00 0.  0.
          4    1    3    3  502    0  0.57311168363E+02 -0.96987547364E+01 -0.63489514970E+03  0.63755037995E+03  0.00000000000E+00 0.  1.
   -9000007    1    1    2    0  501 -0.65365987131E+03  0.29797165355E+00 -0.10365093126E+03  0.77331418692E+03  0.40000000000E+03 0.  1.
<mgrwt>
<rscale>  2 0.76645192E+03</rscale>
<asrwt>0</asrwt>
<pdfrwt beam="1">  1        2 0.32137650E+00 0.76645192E+03</pdfrwt>
<pdfrwt beam="2">  1       -2 0.65206274E-01 0.76645192E+03</pdfrwt>
<totfact> 0.13370206E+01</totfact>
</mgrwt>
</event>
<event>
 6    1  0.8938744E-004  0.5161883E+03  0.7818608E-02  0.1009638E+00
          2   -1    0    0  502    0  0.00000000000E+00  0.00000000000E+00  0.18960163139E+04  0.18960163139E+04  0.00000000000E+00 0.  1.
         -2   -1    0    0    0  501 -0.00000000000E+00 -0.00000000000E+00 -0.14435960088E+03  0.14435960088E+03  0.00000000000E+00 0. -1.
    9000007    2    1    2  502    0 -0.32594486215E+03  0.85156437245E+01  0.10421749932E+04  0.11630636100E+04  0.40034444564E+03 0.  0.
    9000005    1    3    3    0    0 -0.18364296782E+03 -0.17714915354E+03  0.35517410618E+03  0.43732848972E+03  0.99999687468E+00 0.  0.
          4    1    3    3  502    0 -0.14230189433E+03  0.18566479726E+03  0.68700088700E+03  0.72573512028E+03  0.00000000000E+00 0.  1.
   -9000007    1    1    2    0  501  0.32594486215E+03 -0.85156437245E+01  0.70948171989E+03  0.87731230483E+03  0.40000000000E+03 0. -1.
<mgrwt>
<rscale>  2 0.51618831E+03</rscale>
<asrwt>0</asrwt>
<pdfrwt beam="1">  1        2 0.29169480E+00 0.51618831E+03</pdfrwt>
<pdfrwt beam="2">  1       -2 0.22209171E-01 0.51618831E+03</pdfrwt>
<totfact> 0.14214439E+02</totfact>
</mgrwt>
</event>
<event>
 6    1  0.8938744E-004  0.4101247E+03  0.7818608E-02  0.1040329E+00
          1   -1    0    0  502    0  0.00000000000E+00  0.00000000000E+00  0.51336786413E+03  0.51336786413E+03  0.00000000000E+00 0.  1.
         -1   -1    0    0    0  501 -0.00000000000E+00 -0.00000000000E+00 -0.33954511248E+03  0.33954511248E+03  0.00000000000E+00 0. -1.
    9000007    2    1    2  502    0  0.83873560076E+02 -0.24531903399E+02  0.16688672952E+03  0.44341975717E+03  0.40141414050E+03 0.  0.
    9000005    1    3    3    0    0  0.20308582956E+03 -0.12403409346E+03  0.36694802080E+02  0.24078168328E+03  0.99999687468E+00 0.  0.
          4    1    3    3  502    0 -0.11921226948E+03  0.99502190056E+02  0.13019192744E+03  0.20263807390E+03  0.00000000000E+00 0.  1.
   -9000007    1    1    2    0  501 -0.83873560076E+02  0.24531903399E+02  0.69360221240E+01  0.40949321944E+03  0.40000000000E+03 0. -1.
<mgrwt>
<rscale>  2 0.41012472E+03</rscale>
<asrwt>0</asrwt>
<pdfrwt beam="1">  1        1 0.78979672E-01 0.41012472E+03</pdfrwt>
<pdfrwt beam="2">  1       -1 0.52237709E-01 0.41012472E+03</pdfrwt>
<totfact> 0.16405608E+02</totfact>
</mgrwt>
</event>
<event>
 6    1  0.8938744E-004  0.4006784E+03  0.7818608E-02  0.1043545E+00
         -2   -1    0    0    0  501 -0.00000000000E+00  0.00000000000E+00  0.58057441893E+02  0.58057441893E+02  0.00000000000E+00 0. -1.
          2   -1    0    0  502    0  0.00000000000E+00 -0.00000000000E+00 -0.31186065324E+04  0.31186065324E+04  0.00000000000E+00 0.  1.
    9000007    2    1    2  502    0 -0.25106121853E+02 -0.25508248806E+02 -0.99252637180E+03  0.10700081046E+04  0.39815544344E+03 0.  0.
    9000005    1    3    3    0    0 -0.20899078781E+03 -0.33883143262E+02 -0.45527246595E+03  0.50209484665E+03  0.99999687468E+00 0.  0.
          4    1    3    3  502    0  0.18388466596E+03  0.83748944555E+01 -0.53725390585E+03  0.56791325797E+03  0.00000000000E+00 0.  1.
   -9000007    1    1    2    0  501  0.25106121853E+02  0.25508248806E+02 -0.20680227187E+04  0.21066558697E+04  0.40000000000E+03 0.  1.
<mgrwt>
<rscale>  2 0.40067840E+03</rscale>
<asrwt>0</asrwt>
<pdfrwt beam="1">  1        2 0.47978575E+00 0.40067840E+03</pdfrwt>
<pdfrwt beam="2">  1       -2 0.89319118E-02 0.40067840E+03</pdfrwt>
<totfact> 0.13566327E+02</totfact>
</mgrwt>
</event>
<event>
 6    1  0.8938744E-004  0.4206927E+03  0.7818608E-02  0.1036841E+00
          1   -1    0    0  502    0  0.00000000000E+00  0.00000000000E+00  0.44957326835E+03  0.44957326835E+03  0.00000000000E+00 0.  1.
         -1   -1    0    0    0  501 -0.00000000000E+00 -0.00000000000E+00 -0.39465307126E+03  0.39465307126E+03  0.00000000000E+00 0. -1.
    9000007    2    1    2  502    0 -0.11359618048E+03  0.69182123331E+02  0.48484709258E+02  0.42264399427E+03  0.39822973326E+03 0.  0.
    9000005    1    3    3    0    0 -0.18469564897E+03  0.15169890245E+03  0.14292158327E+03  0.27848270810E+03  0.99999687468E+00 0.  0.
          4    1    3    3  502    0  0.71099468495E+02 -0.82516779122E+02 -0.94436874007E+02  0.14416128617E+03  0.00000000000E+00 0.  1.
   -9000007    1    1    2    0  501  0.11359618048E+03 -0.69182123331E+02  0.64354878327E+01  0.42158234535E+03  0.40000000000E+03 0. -1.
<mgrwt>
<rscale>  2 0.42069265E+03</rscale>
<asrwt>0</asrwt>
<pdfrwt beam="1">  1        1 0.69165118E-01 0.42069265E+03</pdfrwt>
<pdfrwt beam="2">  1       -1 0.60715857E-01 0.42069265E+03</pdfrwt>
<totfact> 0.14671432E+02</totfact>
</mgrwt>
</event>
<event>
 6    1  0.8938744E-004  0.4686349E+03  0.7818608E-02  0.1022306E+00
         -1   -1    0    0    0  501 -0.00000000000E+00  0.00000000000E+00  0.17784764443E+03  0.17784764443E+03  0.00000000000E+00 0. -1.
          1   -1    0    0  502    0  0.00000000000E+00 -0.00000000000E+00 -0.12621725159E+04  0.12621725159E+04  0.00000000000E+00 0.  1.
    9000007    2    1    2  502    0  0.21781769849E+03 -0.11069966635E+03 -0.43616919615E+03  0.64014220379E+03  0.39979933404E+03 0.  0.
    9000005    1    3    3    0    0  0.27698180890E+03  0.19253558652E+02 -0.13911784842E+03  0.31055498341E+03  0.99999687468E+00 0.  0.
          4    1    3    3  502    0 -0.59164110410E+02 -0.12995322500E+03 -0.29705134773E+03  0.32958722038E+03  0.00000000000E+00 0.  1.
   -9000007    1    1    2    0  501 -0.21781769849E+03  0.11069966635E+03 -0.64815567538E+03  0.79987795658E+03  0.40000000000E+03 0.  1.
<mgrwt>
<rscale>  2 0.46863494E+03</rscale>
<asrwt>0</asrwt>
<pdfrwt beam="1">  1        1 0.19418038E+00 0.46863494E+03</pdfrwt>
<pdfrwt beam="2">  1       -1 0.27361177E-01 0.46863494E+03</pdfrwt>
<totfact> 0.12109263E+02</totfact>
</mgrwt>
</event>
<event>
 6    1  0.8938744E-004  0.4029712E+03  0.7818608E-02  0.1042756E+00
         -1   -1    0    0    0  501 -0.00000000000E+00  0.00000000000E+00  0.12603562154E+03  0.12603562154E+03  0.00000000000E+00 0.  1.
          1   -1    0    0  502    0  0.00000000000E+00 -0.00000000000E+00 -0.12928375326E+04  0.12928375326E+04  0.00000000000E+00 0. -1.
    9000007    2    1    2  502    0 -0.20014475430E+02  0.46765472756E+02 -0.54153575795E+03  0.67486686996E+03  0.39949558992E+03 0.  0.
    9000005    1    3    3    0    0  0.49054935264E+02 -0.82915009726E+02 -0.51700565667E+03  0.52590601302E+03  0.99999687468E+00 0.  0.
          4    1    3    3  502    0 -0.69069410694E+02  0.12968048248E+03 -0.24530101277E+02  0.14896085694E+03  0.00000000000E+00 0.  1.
   -9000007    1    1    2    0  501  0.20014475430E+02 -0.46765472756E+02 -0.62526615311E+03  0.74400628417E+03  0.40000000000E+03 0. -1.
<mgrwt>
<rscale>  2 0.40297125E+03</rscale>
<asrwt>0</asrwt>
<pdfrwt beam="1">  1        1 0.19889808E+00 0.40297125E+03</pdfrwt>
<pdfrwt beam="2">  1       -1 0.19390096E-01 0.40297125E+03</pdfrwt>
<totfact> 0.20681344E+02</totfact>
</mgrwt>
</event>
<event>
 6    1  0.8938744E-004  0.4414385E+03  0.7818608E-02  0.1030306E+00
         -2   -1    0    0    0  501 -0.00000000000E+00  0.00000000000E+00  0.45531513637E+03  0.45531513637E+03  0.00000000000E+00 0. -1.
          2   -1    0    0  502    0  0.00000000000E+00 -0.00000000000E+00 -0.11786241754E+04  0.11786241754E+04  0.00000000000E+00 0.  1.
    9000007    2    1    2  502    0 -0.18392520743E+03  0.36932683187E+02  0.29043403716E+03  0.52810590229E+03  0.39918843806E+03 0.  0.
    9000005    1    3    3    0    0 -0.25239209122E+03  0.14127650089E+03  0.11159150933E+03  0.31002335777E+03  0.99999687468E+00 0.  0.
          4    1    3    3  502    0  0.68466883792E+02 -0.10434381770E+03  0.17884252782E+03  0.21808254452E+03  0.00000000000E+00 0.  1.
   -9000007    1    1    2    0  501  0.18392520743E+03 -0.36932683187E+02 -0.10137430762E+04  0.11058334095E+04  0.40000000000E+03 0.  1.
<mgrwt>
<rscale>  2 0.44143849E+03</rscale>
<asrwt>0</asrwt>
<pdfrwt beam="1">  1        2 0.18132679E+00 0.44143849E+03</pdfrwt>
<pdfrwt beam="2">  1       -2 0.70048483E-01 0.44143849E+03</pdfrwt>
<totfact> 0.38354669E+01</totfact>
</mgrwt>
</event>
<event>
 6    1  0.8938744E-004  0.4534834E+03  0.7818608E-02  0.1026688E+00
          1   -1    0    0  502    0  0.00000000000E+00  0.00000000000E+00  0.19346378087E+03  0.19346378087E+03  0.00000000000E+00 0. -1.
         -1   -1    0    0    0  501 -0.00000000000E+00 -0.00000000000E+00 -0.11801570699E+04  0.11801570699E+04  0.00000000000E+00 0.  1.
    9000007    2    1    2  502    0 -0.32548652448E+02 -0.21208767579E+03 -0.70934083145E+03  0.84167632104E+03  0.39901631200E+03 0.  0.
    9000005    1    3    3    0    0  0.18590405394E+02 -0.19806140862E+03 -0.87077417484E+02  0.21715754969E+03  0.99999687468E+00 0.  0.
          4    1    3    3  502    0 -0.51139057842E+02 -0.14026267170E+02 -0.62226341397E+03  0.62451877135E+03  0.00000000000E+00 0.  1.
   -9000007    1    1    2    0  501  0.32548652448E+02  0.21208767579E+03 -0.27735245761E+03  0.53194452976E+03  0.40000000000E+03 0.  1.
<mgrwt>
<rscale>  2 0.45348344E+03</rscale>
<asrwt>0</asrwt>
<pdfrwt beam="1">  1        1 0.29763659E-01 0.45348344E+03</pdfrwt>
<pdfrwt beam="2">  1       -1 0.18156262E+00 0.45348344E+03</pdfrwt>
<totfact> 0.33295773E+01</totfact>
</mgrwt>
</event>
<event>
 6    1  0.8938744E-004  0.8209522E+03  0.7818608E-02  0.9530175E-01
         -1   -1    0    0    0  501 -0.00000000000E+00  0.00000000000E+00  0.33962778193E+03  0.33962778193E+03  0.00000000000E+00 0.  1.
          1   -1    0    0  502    0  0.00000000000E+00 -0.00000000000E+00 -0.20297602580E+04  0.20297602580E+04  0.00000000000E+00 0. -1.
    9000007    2    1    2  502    0  0.68414368870E+03 -0.21430409664E+03 -0.10221280300E+04  0.13109888844E+04  0.39995913853E+03 0.  0.
    9000005    1    3    3    0    0  0.70980916946E+03 -0.24801371909E+03 -0.10217898110E+04  0.12686194385E+04  0.99999687468E+00 0.  0.
          4    1    3    3  502    0 -0.25665480758E+02  0.33709622457E+02 -0.33821903006E+00  0.42369445840E+02  0.00000000000E+00 0.  1.
   -9000007    1    1    2    0  501 -0.68414368870E+03  0.21430409664E+03 -0.66800444607E+03  0.10583991556E+04  0.40000000000E+03 0.  1.
<mgrwt>
<rscale>  2 0.82095218E+03</rscale>
<asrwt>0</asrwt>
<pdfrwt beam="1">  1        1 0.31227080E+00 0.82095218E+03</pdfrwt>
<pdfrwt beam="2">  1       -1 0.52250430E-01 0.82095218E+03</pdfrwt>
<totfact> 0.10859389E+01</totfact>
</mgrwt>
</event>
<event>
 6    1  0.8938744E-004  0.4630342E+03  0.7818608E-02  0.1023905E+00
          2   -1    0    0  502    0  0.00000000000E+00  0.00000000000E+00  0.17861613762E+04  0.17861613762E+04  0.00000000000E+00 0.  1.
         -2   -1    0    0    0  501 -0.00000000000E+00 -0.00000000000E+00 -0.36869240534E+03  0.36869240534E+03  0.00000000000E+00 0. -1.
    9000007    2    1    2  502    0  0.21269649817E+03 -0.94468888414E+02  0.15936859169E+04  0.16596603009E+04  0.40059123993E+03 0.  0.
    9000005    1    3    3    0    0  0.24609909721E+03 -0.21554893730E+03  0.12940630807E+04  0.13347757740E+04  0.99999687468E+00 0.  0.
          4    1    3    3  502    0 -0.33402599041E+02  0.12108004889E+03  0.29962283618E+03  0.32488452691E+03  0.00000000000E+00 0.  1.
   -9000007    1    1    2    0  501 -0.21269649817E+03  0.94468888414E+02 -0.17621694602E+03  0.49519348065E+03  0.40000000000E+03 0. -1.
<mgrwt>
<rscale>  2 0.46303424E+03</rscale>
<asrwt>0</asrwt>
<pdfrwt beam="1">  1        2 0.27479405E+00 0.46303424E+03</pdfrwt>
<pdfrwt beam="2">  1       -2 0.56721909E-01 0.46303424E+03</pdfrwt>
<totfact> 0.27582741E+01</totfact>
</mgrwt>
</event>
<event>
 6    1  0.8938744E-004  0.6041792E+03  0.7818608E-02  0.9896773E-01
         -2   -1    0    0    0  501 -0.00000000000E+00  0.00000000000E+00  0.46418745524E+03  0.46418745524E+03  0.00000000000E+00 0. -1.
          2   -1    0    0  502    0  0.00000000000E+00 -0.00000000000E+00 -0.89017765948E+03  0.89017765948E+03  0.00000000000E+00 0.  1.
    9000007    2    1    2  502    0 -0.45277664472E+03  0.73310920681E+01  0.18239546676E+02  0.60443144664E+03  0.39993031607E+03 0.  0.
    9000005    1    3    3    0    0 -0.12002480295E+02  0.11911852623E+03  0.82198034425E+02  0.14522671821E+03  0.99999687468E+00 0.  0.
          4    1    3    3  502    0 -0.44077416443E+03 -0.11178743416E+03 -0.63958487749E+02  0.45920472844E+03  0.00000000000E+00 0.  1.
   -9000007    1    1    2    0  501  0.45277664472E+03 -0.73310920681E+01 -0.44422975092E+03  0.74993366808E+03  0.40000000000E+03 0.  1.
<mgrwt>
<rscale>  2 0.60417925E+03</rscale>
<asrwt>0</asrwt>
<pdfrwt beam="1">  1        2 0.13695041E+00 0.60417925E+03</pdfrwt>
<pdfrwt beam="2">  1       -2 0.71413456E-01 0.60417925E+03</pdfrwt>
<totfact> 0.54448775E+01</totfact>
</mgrwt>
</event>
<event>
 6    1  0.8938744E-004  0.6656981E+03  0.7818608E-02  0.9777761E-01
         -2   -1    0    0    0  501 -0.00000000000E+00  0.00000000000E+00  0.29978654676E+03  0.29978654676E+03  0.00000000000E+00 0.  1.
          2   -1    0    0  502    0  0.00000000000E+00 -0.00000000000E+00 -0.18447316858E+04  0.18447316858E+04  0.00000000000E+00 0. -1.
    9000007    2    1    2  502    0 -0.52844060283E+03  0.62288125602E+02 -0.12504262931E+04  0.14165960994E+04  0.40006163641E+03 0.  0.
    9000005    1    3    3    0    0 -0.42517374658E+03 -0.54209165216E+02 -0.11597874473E+04  0.12364543143E+04  0.99999687468E+00 0.  0.
          4    1    3    3  502    0 -0.10326685625E+03  0.11649729082E+03 -0.90638845816E+02  0.18014178510E+03  0.00000000000E+00 0.  1.
   -9000007    1    1    2    0  501  0.52844060283E+03 -0.62288125602E+02 -0.29451884586E+03  0.72792213312E+03  0.40000000000E+03 0.  1.
<mgrwt>
<rscale>  2 0.66569808E+03</rscale>
<asrwt>0</asrwt>
<pdfrwt beam="1">  1        2 0.28380488E+00 0.66569808E+03</pdfrwt>
<pdfrwt beam="2">  1       -2 0.46121007E-01 0.66569808E+03</pdfrwt>
<totfact> 0.37772120E+01</totfact>
</mgrwt>
</event>
<event>
 6    1  0.8938744E-004  0.4068889E+03  0.7818608E-02  0.1041420E+00
         -2   -1    0    0    0  501 -0.00000000000E+00  0.00000000000E+00  0.84554349010E+02  0.84554349010E+02  0.00000000000E+00 0. -1.
          2   -1    0    0  502    0  0.00000000000E+00 -0.00000000000E+00 -0.19835046691E+04  0.19835046691E+04  0.00000000000E+00 0.  1.
    9000007    2    1    2  502    0 -0.40353782295E+01 -0.74175094908E+02 -0.10668111215E+04  0.11417902262E+04  0.40010089075E+03 0.  0.
    9000005    1    3    3    0    0 -0.15495221342E+03  0.70852736983E+02 -0.28136107820E+03  0.32893062354E+03  0.99999687468E+00 0.  0.
          4    1    3    3  502    0  0.15091683519E+03 -0.14502783189E+03 -0.78545004331E+03  0.81285960270E+03  0.00000000000E+00 0.  1.
   -9000007    1    1    2    0  501  0.40353782295E+01  0.74175094908E+02 -0.83213919862E+03  0.92626879190E+03  0.40000000000E+03 0. -1.
<mgrwt>
<rscale>  2 0.40688891E+03</rscale>
<asrwt>0</asrwt>
<pdfrwt beam="1">  1        2 0.30515455E+00 0.40688891E+03</pdfrwt>
<pdfrwt beam="2">  1       -2 0.13008362E-01 0.40688891E+03</pdfrwt>
<totfact> 0.32202629E+02</totfact>
</mgrwt>
</event>
<event>
 6    1  0.8938744E-004  0.4070793E+03  0.7818608E-02  0.1041356E+00
          2   -1    0    0  502    0  0.00000000000E+00  0.00000000000E+00  0.50274934493E+04  0.50274934493E+04  0.00000000000E+00 0.  1.
         -2   -1    0    0    0  501 -0.00000000000E+00 -0.00000000000E+00 -0.68522128715E+02  0.68522128715E+02  0.00000000000E+00 0. -1.
    9000007    2    1    2  502    0  0.66066659752E+02 -0.36786963277E+02  0.64390217766E+03  0.76178672014E+03  0.39998863533E+03 0.  0.
    9000005    1    3    3    0    0 -0.83950937178E+02 -0.55933653202E+02  0.53581660130E+00  0.10088419354E+03  0.99999687468E+00 0.  0.
          4    1    3    3  502    0  0.15001759693E+03  0.19146689925E+02  0.64336636105E+03  0.66090252659E+03  0.00000000000E+00 0.  1.
   -9000007    1    1    2    0  501 -0.66066659752E+02  0.36786963277E+02  0.43150691429E+04  0.43342288579E+04  0.40000000000E+03 0.  1.
<mgrwt>
<rscale>  2 0.40707928E+03</rscale>
<asrwt>0</asrwt>
<pdfrwt beam="1">  1        2 0.77346024E+00 0.40707928E+03</pdfrwt>
<pdfrwt beam="2">  1       -2 0.10541870E-01 0.40707928E+03</pdfrwt>
<totfact> 0.26406777E+00</totfact>
</mgrwt>
</event>
<event>
 6    1  0.8938744E-004  0.4401015E+03  0.7818608E-02  0.1030716E+00
         -2   -1    0    0    0  501 -0.00000000000E+00  0.00000000000E+00  0.48882688742E+03  0.48882688742E+03  0.00000000000E+00 0. -1.
          2   -1    0    0  502    0  0.00000000000E+00 -0.00000000000E+00 -0.64863145707E+03  0.64863145707E+03  0.00000000000E+00 0.  1.
    9000007    2    1    2  502    0 -0.12977730603E+03 -0.12934074899E+03 -0.43468954484E+03  0.61867811346E+03  0.40029542737E+03 0.  0.
    9000005    1    3    3    0    0  0.26171479964E+02 -0.21775966775E+03 -0.36602429430E+03  0.42670716337E+03  0.99999687468E+00 0.  0.
          4    1    3    3  502    0 -0.15594878600E+03  0.88418918756E+02 -0.68665250539E+02  0.19197095009E+03  0.00000000000E+00 0.  1.
   -9000007    1    1    2    0  501  0.12977730603E+03  0.12934074899E+03  0.27488497519E+03  0.51878023102E+03  0.40000000000E+03 0. -1.
<mgrwt>
<rscale>  2 0.44010153E+03</rscale>
<asrwt>0</asrwt>
<pdfrwt beam="1">  1        2 0.99789455E-01 0.44010153E+03</pdfrwt>
<pdfrwt beam="2">  1       -2 0.75204137E-01 0.44010153E+03</pdfrwt>
<totfact> 0.74331318E+01</totfact>
</mgrwt>
</event>
<event>
 6    1  0.8938744E-004  0.4327264E+03  0.7818608E-02  0.1033002E+00
         -1   -1    0    0    0  501 -0.00000000000E+00  0.00000000000E+00  0.52658545849E+03  0.52658545849E+03  0.00000000000E+00 0.  1.
          1   -1    0    0  502    0  0.00000000000E+00 -0.00000000000E+00 -0.41783294963E+03  0.41783294963E+03  0.00000000000E+00 0. -1.
    9000007    2    1    2  502    0 -0.58929615324E+02 -0.15004892304E+03  0.23677051147E+03  0.49455622049E+03  0.40316026746E+03 0.  0.
    9000005    1    3    3    0    0 -0.16017550334E+03 -0.15417735658E+03 -0.15331720441E+02  0.22285176867E+03  0.99999687468E+00 0.  0.
          4    1    3    3  502    0  0.10124588802E+03  0.41284335375E+01  0.25210223191E+03  0.27170445182E+03  0.00000000000E+00 0.  1.
   -9000007    1    1    2    0  501  0.58929615324E+02  0.15004892304E+03 -0.12801800261E+03  0.44986218763E+03  0.40000000000E+03 0. -1.
<mgrwt>
<rscale>  2 0.43272645E+03</rscale>
<asrwt>0</asrwt>
<pdfrwt beam="1">  1        1 0.64281992E-01 0.43272645E+03</pdfrwt>
<pdfrwt beam="2">  1       -1 0.81013148E-01 0.43272645E+03</pdfrwt>
<totfact> 0.89951189E+01</totfact>
</mgrwt>
</event>
<event>
 6    1  0.8938744E-004  0.4077287E+03  0.7818608E-02  0.1041136E+00
         -2   -1    0    0    0  501 -0.00000000000E+00  0.00000000000E+00  0.60648459319E+02  0.60648459319E+02  0.00000000000E+00 0.  1.
          2   -1    0    0  502    0  0.00000000000E+00 -0.00000000000E+00 -0.27604568190E+04  0.27604568190E+04  0.00000000000E+00 0. -1.
    9000007    2    1    2  502    0  0.68402029722E+02  0.34204013582E+02 -0.12333494542E+04  0.12991491443E+04  0.40098487616E+03 0.  0.
    9000005    1    3    3    0    0 -0.15917494621E+03  0.63496891254E+02 -0.40879246511E+03  0.44326154607E+03  0.99999687468E+00 0.  0.
          4    1    3    3  502    0  0.22757697593E+03 -0.29292877672E+02 -0.82455698906E+03  0.85588759826E+03  0.00000000000E+00 0.  1.
   -9000007    1    1    2    0  501 -0.68402029722E+02 -0.34204013582E+02 -0.14664589055E+04  0.15219561340E+04  0.40000000000E+03 0. -1.
<mgrwt>
<rscale>  2 0.40772873E+03</rscale>
<asrwt>0</asrwt>
<pdfrwt beam="1">  1        2 0.42468562E+00 0.40772873E+03</pdfrwt>
<pdfrwt beam="2">  1       -2 0.93305331E-02 0.40772873E+03</pdfrwt>
<totfact> 0.20624040E+02</totfact>
</mgrwt>
</event>
<event>
 6    1  0.8938744E-004  0.5010430E+03  0.7818608E-02  0.1013507E+00
         -2   -1    0    0    0  501 -0.00000000000E+00  0.00000000000E+00  0.23212514755E+03  0.23212514755E+03  0.00000000000E+00 0. -1.
          2   -1    0    0  502    0  0.00000000000E+00 -0.00000000000E+00 -0.11247067532E+04  0.11247067532E+04  0.00000000000E+00 0.  1.
    9000007    2    1    2  502    0  0.73129113606E+02  0.29307706500E+03 -0.57908621621E+03  0.76562855800E+03  0.39950495584E+03 0.  0.
    9000005    1    3    3    0    0 -0.33407138893E+02  0.27175793236E+03 -0.12910570354E+03  0.30271718387E+03  0.99999687468E+00 0.  0.
          4    1    3    3  502    0  0.10653625250E+03  0.21319132631E+02 -0.44998051267E+03  0.46291137413E+03  0.00000000000E+00 0.  1.
   -9000007    1    1    2    0  501 -0.73129113606E+02 -0.29307706500E+03 -0.31349538947E+03  0.59120334277E+03  0.40000000000E+03 0. -1.
<mgrwt>
<rscale>  2 0.50104297E+03</rscale>
<asrwt>0</asrwt>
<pdfrwt beam="1">  1        2 0.17303181E+00 0.50104297E+03</pdfrwt>
<pdfrwt beam="2">  1       -2 0.35711560E-01 0.50104297E+03</pdfrwt>
<totfact> 0.16019322E+02</totfact>
</mgrwt>
</event>
<event>
 6    1  0.8938744E-004  0.4190184E+03  0.7818608E-02  0.1037386E+00
          2   -1    0    0  502    0  0.00000000000E+00  0.00000000000E+00  0.45643377209E+03  0.45643377209E+03  0.00000000000E+00 0. -1.
         -2   -1    0    0    0  501 -0.00000000000E+00 -0.00000000000E+00 -0.40080341894E+03  0.40080341894E+03  0.00000000000E+00 0.  1.
    9000007    2    1    2  502    0 -0.11018313741E+03  0.57367023351E+02  0.11381998496E+03  0.43436920645E+03  0.40036273478E+03 0.  0.
    9000005    1    3    3    0    0  0.44687445840E+01 -0.82875815165E+02 -0.11544002891E+03  0.14218217429E+03  0.99999687468E+00 0.  0.
          4    1    3    3  502    0 -0.11465188199E+03  0.14024283852E+03  0.22926001387E+03  0.29218703215E+03  0.00000000000E+00 0.  1.
   -9000007    1    1    2    0  501  0.11018313741E+03 -0.57367023351E+02 -0.58189631800E+02  0.42286798458E+03  0.40000000000E+03 0.  1.
<mgrwt>
<rscale>  2 0.41901838E+03</rscale>
<asrwt>0</asrwt>
<pdfrwt beam="1">  1        2 0.70220581E-01 0.41901838E+03</pdfrwt>
<pdfrwt beam="2">  1       -2 0.61662064E-01 0.41901838E+03</pdfrwt>
<totfact> 0.17183407E+02</totfact>
</mgrwt>
</event>
<event>
 6    1  0.8938744E-004  0.5481442E+03  0.7818608E-02  0.1001924E+00
         -1   -1    0    0    0  501 -0.00000000000E+00  0.00000000000E+00  0.29814999105E+03  0.29814999105E+03  0.00000000000E+00 0. -1.
          1   -1    0    0  502    0  0.00000000000E+00 -0.00000000000E+00 -0.10204917506E+04  0.10204917506E+04  0.00000000000E+00 0.  1.
    9000007    2    1    2  502    0 -0.37376188417E+03 -0.25961149691E+02 -0.43488377531E+03  0.69976855590E+03  0.40022519468E+03 0.  0.
    9000005    1    3    3    0    0 -0.74766733023E+02  0.11324846159E+03  0.20758832077E+02  0.13728513220E+03  0.99999687468E+00 0.  0.
          4    1    3    3  502    0 -0.29899515114E+03 -0.13920961128E+03 -0.45564260739E+03  0.56248342371E+03  0.00000000000E+00 0.  1.
   -9000007    1    1    2    0  501  0.37376188417E+03  0.25961149691E+02 -0.28745798427E+03  0.61887318577E+03  0.40000000000E+03 0.  1.
<mgrwt>
<rscale>  2 0.54814416E+03</rscale>
<asrwt>0</asrwt>
<pdfrwt beam="1">  1        1 0.15699873E+00 0.54814416E+03</pdfrwt>
<pdfrwt beam="2">  1       -1 0.45869229E-01 0.54814416E+03</pdfrwt>
<totfact> 0.71926213E+01</totfact>
</mgrwt>
</event>
<event>
 6    1  0.8938744E-004  0.4932636E+03  0.7818608E-02  0.1015552E+00
          1   -1    0    0  502    0  0.00000000000E+00  0.00000000000E+00  0.34969152676E+03  0.34969152676E+03  0.00000000000E+00 0.  1.
         -1   -1    0    0    0  501 -0.00000000000E+00 -0.00000000000E+00 -0.82714011646E+03  0.82714011646E+03  0.00000000000E+00 0. -1.
    9000007    2    1    2  502    0  0.16259083266E+03  0.23932513924E+03 -0.40688303245E+01  0.49287207005E+03  0.39899125419E+03 0.  0.
    9000005    1    3    3    0    0  0.16546185884E+03  0.38191594941E+02 -0.16385488534E+03  0.23597806699E+03  0.99999687468E+00 0.  0.
          4    1    3    3  502    0 -0.28710261821E+01  0.20113354430E+03  0.15978605502E+03  0.25689400306E+03  0.00000000000E+00 0.  1.
   -9000007    1    1    2    0  501 -0.16259083266E+03 -0.23932513924E+03 -0.47337975938E+03  0.68395957317E+03  0.40000000000E+03 0.  1.
<mgrwt>
<rscale>  2 0.49326360E+03</rscale>
<asrwt>0</asrwt>
<pdfrwt beam="1">  1        1 0.53798697E-01 0.49326360E+03</pdfrwt>
<pdfrwt beam="2">  1       -1 0.12725232E+00 0.49326360E+03</pdfrwt>
<totfact> 0.40275663E+01</totfact>
</mgrwt>
</event>
<event>
 6    1  0.8938744E-004  0.5993271E+03  0.7818608E-02  0.9906803E-01
         -2   -1    0    0    0  501 -0.00000000000E+00  0.00000000000E+00  0.48592362292E+03  0.48592362292E+03  0.00000000000E+00 0. -1.
          2   -1    0    0  502    0  0.00000000000E+00 -0.00000000000E+00 -0.10676773749E+04  0.10676773749E+04  0.00000000000E+00 0.  1.
    9000007    2    1    2  502    0 -0.21090543754E+03  0.39736702543E+03 -0.72084287943E+03  0.93576004589E+03  0.39198309934E+03 0.  0.
    9000005    1    3    3    0    0  0.57065946696E+02 -0.16065079038E+02 -0.24039610238E+03  0.24760027276E+03  0.99999687468E+00 0.  0.
          4    1    3    3  502    0 -0.26797138423E+03  0.41343210447E+03 -0.48044677706E+03  0.68815977313E+03  0.00000000000E+00 0.  1.
   -9000007    1    1    2    0  501  0.21090543754E+03 -0.39736702543E+03  0.13908912747E+03  0.61784095191E+03  0.40000000000E+03 0. -1.
<mgrwt>
<rscale>  2 0.59932713E+03</rscale>
<asrwt>0</asrwt>
<pdfrwt beam="1">  1        2 0.16425806E+00 0.59932713E+03</pdfrwt>
<pdfrwt beam="2">  1       -2 0.74757480E-01 0.59932713E+03</pdfrwt>
<totfact> 0.37911906E+01</totfact>
</mgrwt>
</event>
<event>
 6    1  0.8938744E-004  0.4336721E+03  0.7818608E-02  0.1032706E+00
         -1   -1    0    0    0  501 -0.00000000000E+00  0.00000000000E+00  0.36348071615E+03  0.36348071615E+03  0.00000000000E+00 0. -1.
          1   -1    0    0  502    0  0.00000000000E+00 -0.00000000000E+00 -0.61445889800E+03  0.61445889800E+03  0.00000000000E+00 0.  1.
    9000007    2    1    2  502    0  0.12457373498E+03 -0.11299757639E+03 -0.31974625988E+03  0.53860361941E+03  0.39946103742E+03 0.  0.
    9000005    1    3    3    0    0  0.12599280993E+03 -0.18789366748E+03 -0.17154802465E+02  0.22687773287E+03  0.99999687468E+00 0.  0.
          4    1    3    3  502    0 -0.14190749465E+01  0.74896091091E+02 -0.30259145742E+03  0.31172588653E+03  0.00000000000E+00 0.  1.
   -9000007    1    1    2    0  501 -0.12457373498E+03  0.11299757639E+03  0.68768078029E+02  0.43933599474E+03  0.40000000000E+03 0. -1.
<mgrwt>
<rscale>  2 0.43367212E+03</rscale>
<asrwt>0</asrwt>
<pdfrwt beam="1">  1        1 0.94532137E-01 0.43367212E+03</pdfrwt>
<pdfrwt beam="2">  1       -1 0.55920111E-01 0.43367212E+03</pdfrwt>
<totfact> 0.11195866E+02</totfact>
</mgrwt>
</event>
<event>
 6    1  0.8938744E-004  0.4066866E+03  0.7818608E-02  0.1041489E+00
         -1   -1    0    0    0  501 -0.00000000000E+00  0.00000000000E+00  0.10689838474E+03  0.10689838474E+03  0.00000000000E+00 0. -1.
          1   -1    0    0  502    0  0.00000000000E+00 -0.00000000000E+00 -0.16348200184E+04  0.16348200184E+04  0.00000000000E+00 0.  1.
    9000007    2    1    2  502    0  0.58145450892E+02 -0.43685169561E+02 -0.56258743939E+03  0.69426463609E+03  0.40026175244E+03 0.  0.
    9000005    1    3    3    0    0  0.93914895100E+02 -0.10158805188E+03 -0.11322371580E+02  0.13881403351E+03  0.99999687468E+00 0.  0.
          4    1    3    3  502    0 -0.35769444207E+02  0.57902882321E+02 -0.55126506781E+03  0.55545060258E+03  0.00000000000E+00 0.  1.
   -9000007    1    1    2    0  501 -0.58145450892E+02  0.43685169561E+02 -0.96533419428E+03  0.10474537671E+04  0.40000000000E+03 0.  1.
<mgrwt>
<rscale>  2 0.40668660E+03</rscale>
<asrwt>0</asrwt>
<pdfrwt beam="1">  1        1 0.25151077E+00 0.40668660E+03</pdfrwt>
<pdfrwt beam="2">  1       -1 0.16445905E-01 0.40668660E+03</pdfrwt>
<totfact> 0.15864561E+02</totfact>
</mgrwt>
</event>
<event>
 6    1  0.8938744E-004  0.5934809E+03  0.7818608E-02  0.9919024E-01
          1   -1    0    0  502    0  0.00000000000E+00  0.00000000000E+00  0.83234189892E+03  0.83234189892E+03  0.00000000000E+00 0.  1.
         -1   -1    0    0    0  501 -0.00000000000E+00 -0.00000000000E+00 -0.42454631183E+03  0.42454631183E+03  0.00000000000E+00 0. -1.
    9000007    2    1    2  502    0  0.35546477926E+03 -0.25642806666E+03  0.23975026956E+03  0.64016315742E+03  0.40027254926E+03 0.  0.
    9000005    1    3    3    0    0  0.38081478540E+02 -0.26622028510E+03  0.15939249274E+03  0.31261862699E+03  0.99999687468E+00 0.  0.
          4    1    3    3  502    0  0.31738330072E+03  0.97922184340E+01  0.80357776816E+02  0.32754453043E+03  0.00000000000E+00 0.  1.
   -9000007    1    1    2    0  501 -0.35546477926E+03  0.25642806666E+03  0.16804531753E+03  0.61672505334E+03  0.40000000000E+03 0. -1.
<mgrwt>
<rscale>  2 0.59348092E+03</rscale>
<asrwt>0</asrwt>
<pdfrwt beam="1">  1        1 0.12805260E+00 0.59348092E+03</pdfrwt>
<pdfrwt beam="2">  1       -1 0.65314817E-01 0.59348092E+03</pdfrwt>
<totfact> 0.51233145E+01</totfact>
</mgrwt>
</event>
<event>
 6    1  0.8938744E-004  0.7444317E+03  0.7818608E-02  0.9644127E-01
         -2   -1    0    0    0  501 -0.00000000000E+00  0.00000000000E+00  0.21950027667E+03  0.21950027667E+03  0.00000000000E+00 0.  1.
          2   -1    0    0  502    0  0.00000000000E+00 -0.00000000000E+00 -0.25813084443E+04  0.25813084443E+04  0.00000000000E+00 0. -1.
    9000007    2    1    2  502    0  0.59597095172E+02  0.62496159072E+03 -0.13882873211E+04  0.15752999930E+04  0.40012445374E+03 0.  0.
    9000005    1    3    3    0    0 -0.17029828160E+03  0.21751080696E+03 -0.54001022020E+03  0.60656779817E+03  0.99999687468E+00 0.  0.
          4    1    3    3  502    0  0.22989537677E+03  0.40745078376E+03 -0.84827710089E+03  0.96873219485E+03  0.00000000000E+00 0.  1.
   -9000007    1    1    2    0  501 -0.59597095172E+02 -0.62496159072E+03 -0.97352084649E+03  0.12255087279E+04  0.40000000000E+03 0. -1.
<mgrwt>
<rscale>  2 0.74443172E+03</rscale>
<asrwt>0</asrwt>
<pdfrwt beam="1">  1        2 0.39712438E+00 0.74443172E+03</pdfrwt>
<pdfrwt beam="2">  1       -2 0.33769273E-01 0.74443172E+03</pdfrwt>
<totfact> 0.26802528E+01</totfact>
</mgrwt>
</event>
<event>
 6    1  0.8938744E-004  0.5061894E+03  0.7818608E-02  0.1012176E+00
         -2   -1    0    0    0  501 -0.00000000000E+00  0.00000000000E+00  0.26026572757E+03  0.26026572757E+03  0.00000000000E+00 0. -1.
          2   -1    0    0  502    0  0.00000000000E+00 -0.00000000000E+00 -0.11283658895E+04  0.11283658895E+04  0.00000000000E+00 0.  1.
    9000007    2    1    2  502    0  0.27242497118E+03  0.14893177162E+03 -0.18599341775E+03  0.53912255417E+03  0.39957920297E+03 0.  0.
    9000005    1    3    3    0    0  0.36545365378E+03  0.95476387367E+02 -0.75663243192E+02  0.38522466169E+03  0.99999687468E+00 0.  0.
          4    1    3    3  502    0 -0.93028682599E+02  0.53455384250E+02 -0.11033017456E+03  0.15389789248E+03  0.00000000000E+00 0.  1.
   -9000007    1    1    2    0  501 -0.27242497118E+03 -0.14893177162E+03 -0.68210674423E+03  0.84950906295E+03  0.40000000000E+03 0.  1.
<mgrwt>
<rscale>  2 0.50618944E+03</rscale>
<asrwt>0</asrwt>
<pdfrwt beam="1">  1        2 0.17359475E+00 0.50618944E+03</pdfrwt>
<pdfrwt beam="2">  1       -2 0.40040882E-01 0.50618944E+03</pdfrwt>
<totfact> 0.12790810E+02</totfact>
</mgrwt>
</event>
<event>
 6    1  0.8938744E-004  0.4286536E+03  0.7818608E-02  0.1034286E+00
         -1   -1    0    0    0  501 -0.00000000000E+00  0.00000000000E+00  0.13359351860E+03  0.13359351860E+03  0.00000000000E+00 0. -1.
          1   -1    0    0  502    0  0.00000000000E+00 -0.00000000000E+00 -0.15589272077E+04  0.15589272077E+04  0.00000000000E+00 0.  1.
    9000007    2    1    2  502    0 -0.12055090742E+03 -0.96415239831E+02 -0.42215538551E+03  0.60156008147E+03  0.39978862210E+03 0.  0.
    9000005    1    3    3    0    0 -0.10789034165E+03 -0.20994522126E+03 -0.93974244924E+02  0.25406589786E+03  0.99999687468E+00 0.  0.
          4    1    3    3  502    0 -0.12660565764E+02  0.11352998143E+03 -0.32818114058E+03  0.34749418361E+03  0.00000000000E+00 0.  1.
   -9000007    1    1    2    0  501  0.12055090742E+03  0.96415239831E+02 -0.10031783036E+04  0.10909606449E+04  0.40000000000E+03 0.  1.
<mgrwt>
<rscale>  2 0.42865356E+03</rscale>
<asrwt>0</asrwt>
<pdfrwt beam="1">  1        1 0.23983496E+00 0.42865356E+03</pdfrwt>
<pdfrwt beam="2">  1       -1 0.20552848E-01 0.42865356E+03</pdfrwt>
<totfact> 0.12338580E+02</totfact>
</mgrwt>
</event>
<event>
 6    1  0.8938744E-004  0.8322748E+03  0.7818608E-02  0.9514441E-01
          2   -1    0    0  502    0  0.00000000000E+00  0.00000000000E+00  0.96842571115E+03  0.96842571115E+03  0.00000000000E+00 0.  1.
         -2   -1    0    0    0  501 -0.00000000000E+00 -0.00000000000E+00 -0.93729563046E+03  0.93729563046E+03  0.00000000000E+00 0. -1.
    9000007    2    1    2  502    0 -0.58208054546E+03 -0.44013222316E+03  0.47933054379E+03  0.96051353885E+03  0.40036777197E+03 0.  0.
    9000005    1    3    3    0    0 -0.16084468473E+03 -0.36289028656E+03  0.16789542814E+03  0.43098752589E+03  0.99999687468E+00 0.  0.
          4    1    3    3  502    0 -0.42123586074E+03 -0.77241936595E+02  0.31143511566E+03  0.52952601296E+03  0.00000000000E+00 0.  1.
   -9000007    1    1    2    0  501  0.58208054546E+03  0.44013222316E+03 -0.44820046310E+03  0.94520780276E+03  0.40000000000E+03 0.  1.
<mgrwt>
<rscale>  2 0.83227477E+03</rscale>
<asrwt>0</asrwt>
<pdfrwt beam="1">  1        2 0.14898857E+00 0.83227477E+03</pdfrwt>
<pdfrwt beam="2">  1       -2 0.14419933E+00 0.83227477E+03</pdfrwt>
<totfact> 0.88498420E+00</totfact>
</mgrwt>
</event>
<event>
 6    1  0.8938744E-004  0.4186679E+03  0.7818608E-02  0.1037501E+00
         -1   -1    0    0    0  501 -0.00000000000E+00  0.00000000000E+00  0.18972380900E+04  0.18972380900E+04  0.00000000000E+00 0.  1.
          1   -1    0    0  502    0  0.00000000000E+00 -0.00000000000E+00 -0.94864166022E+02  0.94864166022E+02  0.00000000000E+00 0. -1.
    9000007    2    1    2  502    0  0.11487356259E+03  0.44603384607E+02  0.74052088087E+03  0.85073584577E+03  0.40024355956E+03 0.  0.
    9000005    1    3    3    0    0 -0.90127011082E+02 -0.95309315419E+02  0.44951002266E+03  0.46825954789E+03  0.99999687468E+00 0.  0.
          4    1    3    3  502    0  0.20500057367E+03  0.13991270003E+03  0.29101085822E+03  0.38247629788E+03  0.00000000000E+00 0.  1.
   -9000007    1    1    2    0  501 -0.11487356259E+03 -0.44603384607E+02  0.10618530431E+04  0.11413664102E+04  0.40000000000E+03 0. -1.
<mgrwt>
<rscale>  2 0.41866792E+03</rscale>
<asrwt>0</asrwt>
<pdfrwt beam="1">  1        1 0.14594488E-01 0.41866792E+03</pdfrwt>
<pdfrwt beam="2">  1       -1 0.29188275E+00 0.41866792E+03</pdfrwt>
<totfact> 0.16255901E+01</totfact>
</mgrwt>
</event>
<event>
 6    1  0.8938744E-004  0.4188652E+03  0.7818608E-02  0.1037436E+00
          1   -1    0    0  502    0  0.00000000000E+00  0.00000000000E+00  0.86004397404E+03  0.86004397404E+03  0.00000000000E+00 0.  1.
         -1   -1    0    0    0  501 -0.00000000000E+00 -0.00000000000E+00 -0.22361562736E+03  0.22361562736E+03  0.00000000000E+00 0. -1.
    9000007    2    1    2  502    0  0.12748448363E+03  0.41241256341E+02  0.15572031348E+03  0.44410245151E+03  0.39373218895E+03 0.  0.
    9000005    1    3    3    0    0 -0.93848951380E+02 -0.96620365927E+02 -0.10113947948E+02  0.13507928310E+03  0.99999687468E+00 0.  0.
          4    1    3    3  502    0  0.22133343501E+03  0.13786162227E+03  0.16583426143E+03  0.30902316841E+03  0.00000000000E+00 0.  1.
   -9000007    1    1    2    0  501 -0.12748448363E+03 -0.41241256341E+02  0.48070803319E+03  0.63955714989E+03  0.40000000000E+03 0.  1.
<mgrwt>
<rscale>  2 0.41886516E+03</rscale>
<asrwt>0</asrwt>
<pdfrwt beam="1">  1        1 0.13231446E+00 0.41886516E+03</pdfrwt>
<pdfrwt beam="2">  1       -1 0.34402405E-01 0.41886516E+03</pdfrwt>
<totfact> 0.16411506E+02</totfact>
</mgrwt>
</event>
<event>
 6    1  0.8938744E-004  0.4238871E+03  0.7818608E-02  0.1035809E+00
         -1   -1    0    0    0  501 -0.00000000000E+00  0.00000000000E+00  0.20145914797E+03  0.20145914797E+03  0.00000000000E+00 0.  1.
          1   -1    0    0  502    0  0.00000000000E+00 -0.00000000000E+00 -0.89535775094E+03  0.89535775094E+03  0.00000000000E+00 0. -1.
    9000007    2    1    2  502    0  0.91396254003E+02  0.10833489168E+03 -0.38065767666E+03  0.56936111697E+03  0.39897630345E+03 0.  0.
    9000005    1    3    3    0    0  0.16379904956E+02 -0.10369439271E+03 -0.31946977069E+03  0.33627780590E+03  0.99999687468E+00 0.  0.
          4    1    3    3  502    0  0.75016349047E+02  0.21202928438E+03 -0.61187905978E+02  0.23308331107E+03  0.00000000000E+00 0.  1.
   -9000007    1    1    2    0  501 -0.91396254003E+02 -0.10833489168E+03 -0.31324092631E+03  0.52745578195E+03  0.40000000000E+03 0.  1.
<mgrwt>
<rscale>  2 0.42388714E+03</rscale>
<asrwt>0</asrwt>
<pdfrwt beam="1">  1        1 0.13774735E+00 0.42388714E+03</pdfrwt>
<pdfrwt beam="2">  1       -1 0.30993715E-01 0.42388714E+03</pdfrwt>
<totfact> 0.18421602E+02</totfact>
</mgrwt>
</event>
<event>
 6    1  0.8938744E-004  0.4460164E+03  0.7818608E-02  0.1028917E+00
          2   -1    0    0  502    0  0.00000000000E+00  0.00000000000E+00  0.69032907619E+03  0.69032907619E+03  0.00000000000E+00 0.  1.
         -2   -1    0    0    0  501 -0.00000000000E+00 -0.00000000000E+00 -0.29699213232E+03  0.29699213232E+03  0.00000000000E+00 0. -1.
    9000007    2    1    2  502    0 -0.12458097133E+03  0.15382338709E+03  0.28164067506E+03  0.52725805057E+03  0.39937141762E+03 0.  0.
    9000005    1    3    3    0    0 -0.80101935032E+02 -0.32809483183E+02 -0.80002219431E+02  0.11787339518E+03  0.99999687468E+00 0.  0.
          4    1    3    3  502    0 -0.44479036296E+02  0.18663287027E+03  0.36164289449E+03  0.40938465539E+03  0.00000000000E+00 0.  1.
   -9000007    1    1    2    0  501  0.12458097133E+03 -0.15382338709E+03  0.11169626881E+03  0.46006315795E+03  0.40000000000E+03 0. -1.
<mgrwt>
<rscale>  2 0.44601643E+03</rscale>
<asrwt>0</asrwt>
<pdfrwt beam="1">  1        2 0.10620447E+00 0.44601643E+03</pdfrwt>
<pdfrwt beam="2">  1       -2 0.45691098E-01 0.44601643E+03</pdfrwt>
<totfact> 0.19480307E+02</totfact>
</mgrwt>
</event>
<event>
 6    1  0.8938744E-004  0.4299934E+03  0.7818608E-02  0.1033862E+00
          2   -1    0    0  502    0  0.00000000000E+00  0.00000000000E+00  0.11515974526E+04  0.11515974526E+04  0.00000000000E+00 0. -1.
         -2   -1    0    0    0  501 -0.00000000000E+00 -0.00000000000E+00 -0.26946505445E+03  0.26946505445E+03  0.00000000000E+00 0.  1.
    9000007    2    1    2  502    0 -0.12714439548E+03  0.93647442679E+02  0.89275411407E+03  0.99089002811E+03  0.39989698523E+03 0.  0.
    9000005    1    3    3    0    0 -0.23522051602E+03 -0.18571143751E+02  0.72276152175E+03  0.76030177946E+03  0.99999687468E+00 0.  0.
          4    1    3    3  502    0  0.10807612054E+03  0.11221858643E+03  0.16999259232E+03  0.23058824865E+03  0.00000000000E+00 0.  1.
   -9000007    1    1    2    0  501  0.12714439548E+03 -0.93647442679E+02 -0.10621715887E+02  0.43017247898E+03  0.40000000000E+03 0.  1.
<mgrwt>
<rscale>  2 0.42999341E+03</rscale>
<asrwt>0</asrwt>
<pdfrwt beam="1">  1        2 0.17716884E+00 0.42999341E+03</pdfrwt>
<pdfrwt beam="2">  1       -2 0.41456163E-01 0.42999341E+03</pdfrwt>
<totfact> 0.11688098E+02</totfact>
</mgrwt>
</event>
<event>
 6    1  0.8938744E-004  0.4647278E+03  0.7818608E-02  0.1023419E+00
          2   -1    0    0  502    0  0.00000000000E+00  0.00000000000E+00  0.19229230827E+04  0.19229230827E+04  0.00000000000E+00 0. -1.
         -2   -1    0    0    0  501 -0.00000000000E+00 -0.00000000000E+00 -0.14547716472E+03  0.14547716472E+03  0.00000000000E+00 0.  1.
    9000007    2    1    2  502    0  0.20783687242E+03 -0.11281363050E+03  0.39502179999E+03  0.60996974761E+03  0.40012221854E+03 0.  0.
    9000005    1    3    3    0    0 -0.78719907585E+02  0.44905838022E+01  0.26085838343E+03  0.27251621125E+03  0.99999687468E+00 0.  0.
          4    1    3    3  502    0  0.28655678000E+03 -0.11730421430E+03  0.13416341655E+03  0.33745353636E+03  0.00000000000E+00 0.  1.
   -9000007    1    1    2    0  501 -0.20783687242E+03  0.11281363050E+03  0.13824241180E+04  0.14584304998E+04  0.40000000000E+03 0. -1.
<mgrwt>
<rscale>  2 0.46472785E+03</rscale>
<asrwt>0</asrwt>
<pdfrwt beam="1">  1        2 0.29583430E+00 0.46472785E+03</pdfrwt>
<pdfrwt beam="2">  1       -2 0.22381104E-01 0.46472785E+03</pdfrwt>
<totfact> 0.13666339E+02</totfact>
</mgrwt>
</event>
<event>
 6    1  0.8938744E-004  0.4291344E+03  0.7818608E-02  0.1034134E+00
         -1   -1    0    0    0  501 -0.00000000000E+00  0.00000000000E+00  0.14015918468E+03  0.14015918468E+03  0.00000000000E+00 0. -1.
          1   -1    0    0  502    0  0.00000000000E+00 -0.00000000000E+00 -0.31109214669E+04  0.31109214669E+04  0.00000000000E+00 0.  1.
    9000007    2    1    2  502    0 -0.14358953930E+03 -0.64288385632E+02 -0.24891131019E+03  0.49550019255E+03  0.39851304640E+03 0.  0.
    9000005    1    3    3    0    0 -0.17280556789E+03 -0.21506034489E+02  0.58537650004E+02  0.18371698417E+03  0.99999687468E+00 0.  0.
          4    1    3    3  502    0  0.29216028588E+02 -0.42782351143E+02 -0.30744896020E+03  0.31178320837E+03  0.00000000000E+00 0.  1.
   -9000007    1    1    2    0  501  0.14358953930E+03  0.64288385632E+02 -0.27218509721E+04  0.27555804591E+04  0.40000000000E+03 0.  1.
<mgrwt>
<rscale>  2 0.42913438E+03</rscale>
<asrwt>0</asrwt>
<pdfrwt beam="1">  1        1 0.47860325E+00 0.42913438E+03</pdfrwt>
<pdfrwt beam="2">  1       -1 0.21562954E-01 0.42913438E+03</pdfrwt>
<totfact> 0.10213304E+01</totfact>
</mgrwt>
</event>
<event>
 6    1  0.8938744E-004  0.4966013E+03  0.7818608E-02  0.1014670E+00
         -2   -1    0    0    0  501 -0.00000000000E+00  0.00000000000E+00  0.38551451273E+03  0.38551451273E+03  0.00000000000E+00 0. -1.
          2   -1    0    0  502    0  0.00000000000E+00 -0.00000000000E+00 -0.67132599396E+03  0.67132599396E+03  0.00000000000E+00 0.  1.
    9000007    2    1    2  502    0  0.25666240493E+03 -0.14345747566E+03 -0.25764496917E+03  0.55959912684E+03  0.40039307586E+03 0.  0.
    9000005    1    3    3    0    0 -0.28539001808E+02  0.62968362836E+02  0.55312088677E+02  0.88543302909E+02  0.99999687468E+00 0.  0.
          4    1    3    3  502    0  0.28520140673E+03 -0.20642583850E+03 -0.31295705785E+03  0.47105582393E+03  0.00000000000E+00 0.  1.
   -9000007    1    1    2    0  501 -0.25666240493E+03  0.14345747566E+03 -0.28166512060E+02  0.49724137984E+03  0.40000000000E+03 0. -1.
<mgrwt>
<rscale>  2 0.49660134E+03</rscale>
<asrwt>0</asrwt>
<pdfrwt beam="1">  1        2 0.10328092E+00 0.49660134E+03</pdfrwt>
<pdfrwt beam="2">  1       -2 0.59309925E-01 0.49660134E+03</pdfrwt>
<totfact> 0.11799674E+02</totfact>
</mgrwt>
</event>
<event>
 6    1  0.8938744E-004  0.4528495E+03  0.7818608E-02  0.1026876E+00
          2   -1    0    0  502    0  0.00000000000E+00  0.00000000000E+00  0.76745056845E+03  0.76745056845E+03  0.00000000000E+00 0. -1.
         -2   -1    0    0    0  501 -0.00000000000E+00 -0.00000000000E+00 -0.41575424914E+03  0.41575424914E+03  0.00000000000E+00 0.  1.
    9000007    2    1    2  502    0 -0.21081792727E+03 -0.23374509877E+02  0.52948948599E+03  0.69678835376E+03  0.40020535727E+03 0.  0.
    9000005    1    3    3    0    0 -0.28530446255E+03  0.70046277539E+02  0.48931844435E+03  0.57073519019E+03  0.99999687468E+00 0.  0.
          4    1    3    3  502    0  0.74486535274E+02 -0.93420787416E+02  0.40171041638E+02  0.12605316357E+03  0.00000000000E+00 0.  1.
   -9000007    1    1    2    0  501  0.21081792727E+03  0.23374509877E+02 -0.17779316667E+03  0.48641646383E+03  0.40000000000E+03 0.  1.
<mgrwt>
<rscale>  2 0.45284955E+03</rscale>
<asrwt>0</asrwt>
<pdfrwt beam="1">  1        2 0.11806932E+00 0.45284955E+03</pdfrwt>
<pdfrwt beam="2">  1       -2 0.63962192E-01 0.45284955E+03</pdfrwt>
<totfact> 0.85430326E+01</totfact>
</mgrwt>
</event>
<event>
 6    1  0.8938744E-004  0.4606081E+03  0.7818608E-02  0.1024605E+00
         -1   -1    0    0    0  501 -0.00000000000E+00  0.00000000000E+00  0.55369230714E+03  0.55369230714E+03  0.00000000000E+00 0. -1.
          1   -1    0    0  502    0  0.00000000000E+00 -0.00000000000E+00 -0.38469304172E+03  0.38469304172E+03  0.00000000000E+00 0.  1.
    9000007    2    1    2  502    0 -0.14909868467E+03 -0.17189494486E+03  0.55083060582E+02  0.46430182081E+03  0.40095354770E+03 0.  0.
    9000005    1    3    3    0    0 -0.13762314494E+02 -0.13327898597E+03 -0.15910735554E+03  0.20801163425E+03  0.99999687468E+00 0.  0.
          4    1    3    3  502    0 -0.13533637017E+03 -0.38615958889E+02  0.21419041612E+03  0.25629018657E+03  0.00000000000E+00 0.  1.
   -9000007    1    1    2    0  501  0.14909868467E+03  0.17189494486E+03  0.11391620485E+03  0.47408352805E+03  0.40000000000E+03 0. -1.
<mgrwt>
<rscale>  2 0.46060810E+03</rscale>
<asrwt>0</asrwt>
<pdfrwt beam="1">  1        1 0.59183545E-01 0.46060810E+03</pdfrwt>
<pdfrwt beam="2">  1       -1 0.85183432E-01 0.46060810E+03</pdfrwt>
<totfact> 0.89804840E+01</totfact>
</mgrwt>
</event>
<event>
 6    1  0.8938744E-004  0.7099473E+03  0.7818608E-02  0.9700371E-01
         -2   -1    0    0    0  501 -0.00000000000E+00  0.00000000000E+00  0.20910867801E+03  0.20910867801E+03  0.00000000000E+00 0. -1.
          2   -1    0    0  502    0  0.00000000000E+00 -0.00000000000E+00 -0.38110095786E+04  0.38110095786E+04  0.00000000000E+00 0.  1.
    9000007    2    1    2  502    0  0.13241601163E+03  0.57169951759E+03 -0.30191387180E+04  0.31014310955E+04  0.39912642475E+03 0.  0.
    9000005    1    3    3    0    0 -0.75433930752E+02  0.26333498949E+03 -0.68307967811E+03  0.73595817901E+03  0.99999687468E+00 0.  0.
          4    1    3    3  502    0  0.20784994238E+03  0.30836452809E+03 -0.23360590399E+04  0.23654729165E+04  0.00000000000E+00 0.  1.
   -9000007    1    1    2    0  501 -0.13241601163E+03 -0.57169951759E+03 -0.58276218254E+03  0.91868716109E+03  0.40000000000E+03 0. -1.
<mgrwt>
<rscale>  2 0.70994730E+03</rscale>
<asrwt>0</asrwt>
<pdfrwt beam="1">  1        2 0.58630916E+00 0.70994730E+03</pdfrwt>
<pdfrwt beam="2">  1       -2 0.32170566E-01 0.70994730E+03</pdfrwt>
<totfact> 0.47907228E+00</totfact>
</mgrwt>
</event>
<event>
 6    1  0.8938744E-004  0.5350928E+03  0.7818608E-02  0.1005004E+00
         -2   -1    0    0    0  501 -0.00000000000E+00  0.00000000000E+00  0.11287408926E+03  0.11287408926E+03  0.00000000000E+00 0.  1.
          2   -1    0    0  502    0  0.00000000000E+00 -0.00000000000E+00 -0.30387351298E+04  0.30387351298E+04  0.00000000000E+00 0. -1.
    9000007    2    1    2  502    0 -0.70490492839E+02 -0.34851696347E+03 -0.82217413621E+03  0.98091081190E+03  0.39972831679E+03 0.  0.
    9000005    1    3    3    0    0 -0.18119068791E+03 -0.34677656082E+02 -0.42117361387E+03  0.45980519596E+03  0.99999687468E+00 0.  0.
          4    1    3    3  502    0  0.11070019507E+03 -0.31383930738E+03 -0.40100052234E+03  0.52110561594E+03  0.00000000000E+00 0.  1.
   -9000007    1    1    2    0  501  0.70490492839E+02  0.34851696347E+03 -0.21036869043E+04  0.21706984071E+04  0.40000000000E+03 0. -1.
<mgrwt>
<rscale>  2 0.53509282E+03</rscale>
<asrwt>0</asrwt>
<pdfrwt beam="1">  1        2 0.46749774E+00 0.53509282E+03</pdfrwt>
<pdfrwt beam="2">  1       -2 0.17365243E-01 0.53509282E+03</pdfrwt>
<totfact> 0.49281018E+01</totfact>
</mgrwt>
</event>
<event>
 6    1  0.8938744E-004  0.4120223E+03  0.7818608E-02  0.1039694E+00
          1   -1    0    0  502    0  0.00000000000E+00  0.00000000000E+00  0.17466665418E+03  0.17466665418E+03  0.00000000000E+00 0.  1.
         -1   -1    0    0    0  501 -0.00000000000E+00 -0.00000000000E+00 -0.10283083535E+04  0.10283083535E+04  0.00000000000E+00 0. -1.
    9000007    2    1    2  502    0 -0.32820999905E+02  0.92976767354E+02 -0.56771723769E+03  0.70150248093E+03  0.40010120155E+03 0.  0.
    9000005    1    3    3    0    0 -0.11608302730E+03  0.10723153143E+03 -0.59270413239E+03  0.61341100341E+03  0.99999687468E+00 0.  0.
          4    1    3    3  502    0  0.83262027390E+02 -0.14254764074E+02  0.24986894708E+02  0.88091477517E+02  0.00000000000E+00 0.  1.
   -9000007    1    1    2    0  501  0.32820999905E+02 -0.92976767354E+02 -0.28592446159E+03  0.50147252670E+03  0.40000000000E+03 0.  1.
<mgrwt>
<rscale>  2 0.41202230E+03</rscale>
<asrwt>0</asrwt>
<pdfrwt beam="1">  1        1 0.26871793E-01 0.41202230E+03</pdfrwt>
<pdfrwt beam="2">  1       -1 0.15820129E+00 0.41202230E+03</pdfrwt>
<totfact> 0.56382485E+01</totfact>
</mgrwt>
</event>
<event>
 6    1  0.8938744E-004  0.4004626E+03  0.7818608E-02  0.1043620E+00
         -2   -1    0    0    0  501 -0.00000000000E+00  0.00000000000E+00  0.28268303259E+03  0.28268303259E+03  0.00000000000E+00 0.  1.
          2   -1    0    0  502    0  0.00000000000E+00 -0.00000000000E+00 -0.60647473688E+03  0.60647473688E+03  0.00000000000E+00 0. -1.
    9000007    2    1    2  502    0 -0.54230238145E+01 -0.14990773350E+02 -0.48981094996E+02  0.40359108666E+03  0.40029050088E+03 0.  0.
    9000005    1    3    3    0    0  0.10139750000E+03 -0.12764040965E+03 -0.14740295472E+03  0.21977751986E+03  0.99999687468E+00 0.  0.
          4    1    3    3  502    0 -0.10682052382E+03  0.11264963630E+03  0.98421859723E+02  0.18381356680E+03  0.00000000000E+00 0.  1.
   -9000007    1    1    2    0  501  0.54230238145E+01  0.14990773350E+02 -0.27481060929E+03  0.48556668281E+03  0.40000000000E+03 0. -1.
<mgrwt>
<rscale>  2 0.40046265E+03</rscale>
<asrwt>0</asrwt>
<pdfrwt beam="1">  1        2 0.93303805E-01 0.40046265E+03</pdfrwt>
<pdfrwt beam="2">  1       -2 0.43489698E-01 0.40046265E+03</pdfrwt>
<totfact> 0.25201081E+02</totfact>
</mgrwt>
</event>
<event>
 6    1  0.8938744E-004  0.4393044E+03  0.7818608E-02  0.1030960E+00
         -2   -1    0    0    0  501 -0.00000000000E+00  0.00000000000E+00  0.19909474257E+03  0.19909474257E+03  0.00000000000E+00 0.  1.
          2   -1    0    0  502    0  0.00000000000E+00 -0.00000000000E+00 -0.10072614119E+04  0.10072614119E+04  0.00000000000E+00 0. -1.
    9000007    2    1    2  502    0 -0.17380921085E+03 -0.53891821512E+02 -0.28690541262E+03  0.52457373468E+03  0.39968602318E+03 0.  0.
    9000005    1    3    3    0    0 -0.20075767439E+03 -0.29825290680E+02 -0.37663603415E+03  0.42784213678E+03  0.99999687468E+00 0.  0.
          4    1    3    3  502    0  0.26948463535E+02 -0.24066530832E+02  0.89730621529E+02  0.96731597905E+02  0.00000000000E+00 0.  1.
   -9000007    1    1    2    0  501  0.17380921085E+03  0.53891821512E+02 -0.52126125674E+03  0.68178241982E+03  0.40000000000E+03 0. -1.
<mgrwt>
<rscale>  2 0.43930444E+03</rscale>
<asrwt>0</asrwt>
<pdfrwt beam="1">  1        2 0.15496329E+00 0.43930444E+03</pdfrwt>
<pdfrwt beam="2">  1       -2 0.30629960E-01 0.43930444E+03</pdfrwt>
<totfact> 0.25331598E+02</totfact>
</mgrwt>
</event>
<event>
 6    1  0.8938744E-004  0.4005352E+03  0.7818608E-02  0.1043595E+00
         -2   -1    0    0    0  501 -0.00000000000E+00  0.00000000000E+00  0.47083680336E+03  0.47083680336E+03  0.00000000000E+00 0.  1.
          2   -1    0    0  502    0  0.00000000000E+00 -0.00000000000E+00 -0.56855903467E+03  0.56855903467E+03  0.00000000000E+00 0. -1.
    9000007    2    1    2  502    0 -0.58871338424E+00 -0.14287241914E+02  0.28009657146E+03  0.48898551873E+03  0.40055995346E+03 0.  0.
    9000005    1    3    3    0    0 -0.55469945857E+02  0.18062093543E+03  0.82878942590E+02  0.20632681921E+03  0.99999687468E+00 0.  0.
          4    1    3    3  502    0  0.54881232473E+02 -0.19490817734E+03  0.19721762887E+03  0.28265869951E+03  0.00000000000E+00 0.  1.
   -9000007    1    1    2    0  501  0.58871338424E+00  0.14287241914E+02 -0.37781880278E+03  0.55041031930E+03  0.40000000000E+03 0. -1.
<mgrwt>
<rscale>  2 0.40053521E+03</rscale>
<asrwt>0</asrwt>
<pdfrwt beam="1">  1        2 0.87470620E-01 0.40053521E+03</pdfrwt>
<pdfrwt beam="2">  1       -2 0.72436432E-01 0.40053521E+03</pdfrwt>
<totfact> 0.94785049E+01</totfact>
</mgrwt>
</event>
<event>
 6    1  0.8938744E-004  0.7666108E+03  0.7818608E-02  0.9609645E-01
          2   -1    0    0  502    0  0.00000000000E+00  0.00000000000E+00  0.13046760645E+04  0.13046760645E+04  0.00000000000E+00 0.  1.
         -2   -1    0    0    0  501 -0.00000000000E+00 -0.00000000000E+00 -0.65840575083E+03  0.65840575083E+03  0.00000000000E+00 0. -1.
    9000007    2    1    2  502    0  0.63411858230E+02  0.65066264300E+03 -0.22843487414E+03  0.80011487497E+03  0.40077223290E+03 0.  0.
    9000005    1    3    3    0    0  0.41905979837E+02  0.25109416084E+02 -0.16371921492E+03  0.17085542207E+03  0.99999687468E+00 0.  0.
          4    1    3    3  502    0  0.21505878393E+02  0.62555322692E+03 -0.64715659216E+02  0.62925945290E+03  0.00000000000E+00 0.  1.
   -9000007    1    1    2    0  501 -0.63411858230E+02 -0.65066264300E+03  0.87470518778E+03  0.11629669403E+04  0.40000000000E+03 0. -1.
<mgrwt>
<rscale>  2 0.76661075E+03</rscale>
<asrwt>0</asrwt>
<pdfrwt beam="1">  1        2 0.20071939E+00 0.76661075E+03</pdfrwt>
<pdfrwt beam="2">  1       -2 0.10129319E+00 0.76661075E+03</pdfrwt>
<totfact> 0.13410815E+01</totfact>
</mgrwt>
</event>
<event>
 6    1  0.8938744E-004  0.4207071E+03  0.7818608E-02  0.1036836E+00
          1   -1    0    0  502    0  0.00000000000E+00  0.00000000000E+00  0.38402336220E+03  0.38402336220E+03  0.00000000000E+00 0.  1.
         -1   -1    0    0    0  501 -0.00000000000E+00 -0.00000000000E+00 -0.54944926330E+03  0.54944926330E+03  0.00000000000E+00 0. -1.
    9000007    2    1    2  502    0 -0.55005346318E+02  0.12564144401E+03 -0.26971930568E+03  0.49794022163E+03  0.39545492775E+03 0.  0.
    9000005    1    3    3    0    0 -0.76621212051E+02 -0.24078450128E+02 -0.32659660057E+03  0.33632859140E+03  0.99999687468E+00 0.  0.
          4    1    3    3  502    0  0.21615865733E+02  0.14971989414E+03  0.56877294886E+02  0.16161163023E+03  0.00000000000E+00 0.  1.
   -9000007    1    1    2    0  501  0.55005346318E+02 -0.12564144401E+03  0.10429340458E+03  0.43553240386E+03  0.40000000000E+03 0.  1.
<mgrwt>
<rscale>  2 0.42070706E+03</rscale>
<asrwt>0</asrwt>
<pdfrwt beam="1">  1        1 0.59080517E-01 0.42070706E+03</pdfrwt>
<pdfrwt beam="2">  1       -1 0.84530656E-01 0.42070706E+03</pdfrwt>
<totfact> 0.91907015E+01</totfact>
</mgrwt>
</event>
<event>
 6    1  0.8938744E-004  0.4363952E+03  0.7818608E-02  0.1031859E+00
         -1   -1    0    0    0  501 -0.00000000000E+00  0.00000000000E+00  0.82414269734E+03  0.82414269734E+03  0.00000000000E+00 0.  1.
          1   -1    0    0  502    0  0.00000000000E+00 -0.00000000000E+00 -0.23542856087E+03  0.23542856087E+03  0.00000000000E+00 0. -1.
    9000007    2    1    2  502    0 -0.12897428474E+03  0.11907911828E+03  0.36609513794E+03  0.56929233653E+03  0.39906630010E+03 0.  0.
    9000005    1    3    3    0    0  0.10996443514E+03 -0.64629997000E+02  0.64591452483E+02  0.14297646392E+03  0.99999687468E+00 0.  0.
          4    1    3    3  502    0 -0.23893871988E+03  0.18370911528E+03  0.30150368546E+03  0.42631587261E+03  0.00000000000E+00 0.  1.
   -9000007    1    1    2    0  501  0.12897428474E+03 -0.11907911828E+03  0.22261899852E+03  0.49027892168E+03  0.40000000000E+03 0. -1.
<mgrwt>
<rscale>  2 0.43639523E+03</rscale>
<asrwt>0</asrwt>
<pdfrwt beam="1">  1        1 0.36219779E-01 0.43639523E+03</pdfrwt>
<pdfrwt beam="2">  1       -1 0.12679118E+00 0.43639523E+03</pdfrwt>
<totfact> 0.67986650E+01</totfact>
</mgrwt>
</event>
<event>
 6    1  0.8938744E-004  0.4112632E+03  0.7818608E-02  0.1039948E+00
          1   -1    0    0  502    0  0.00000000000E+00  0.00000000000E+00  0.11108584357E+04  0.11108584357E+04  0.00000000000E+00 0. -1.
         -1   -1    0    0    0  501 -0.00000000000E+00 -0.00000000000E+00 -0.15487581395E+03  0.15487581395E+03  0.00000000000E+00 0.  1.
    9000007    2    1    2  502    0 -0.63331534580E+02  0.71015364551E+02  0.56038187166E+03  0.69516083741E+03  0.40020829890E+03 0.  0.
    9000005    1    3    3    0    0  0.62733127149E+02  0.17733911217E+03  0.11560471987E+03  0.22079415119E+03  0.99999687468E+00 0.  0.
          4    1    3    3  502    0 -0.12606466173E+03 -0.10632374762E+03  0.44477715179E+03  0.47436668622E+03  0.00000000000E+00 0.  1.
   -9000007    1    1    2    0  501  0.63331534580E+02 -0.71015364551E+02  0.39560075004E+03  0.57057341220E+03  0.40000000000E+03 0.  1.
<mgrwt>
<rscale>  2 0.41126316E+03</rscale>
<asrwt>0</asrwt>
<pdfrwt beam="1">  1        1 0.17090129E+00 0.41126316E+03</pdfrwt>
<pdfrwt beam="2">  1       -1 0.23827049E-01 0.41126316E+03</pdfrwt>
<totfact> 0.19775356E+02</totfact>
</mgrwt>
</event>
<event>
 6    1  0.8938744E-004  0.4215183E+03  0.7818608E-02  0.1036573E+00
         -1   -1    0    0    0  501 -0.00000000000E+00  0.00000000000E+00  0.18639565462E+03  0.18639565462E+03  0.00000000000E+00 0.  1.
          1   -1    0    0  502    0  0.00000000000E+00 -0.00000000000E+00 -0.11239428528E+04  0.11239428528E+04  0.00000000000E+00 0. -1.
    9000007    2    1    2  502    0 -0.14396541206E+03  0.38499195548E+02 -0.71897622408E+03  0.83077464446E+03  0.38865340748E+03 0.  0.
    9000005    1    3    3    0    0 -0.57748031198E+02  0.16701194210E+03 -0.62549083902E+03  0.64997508691E+03  0.99999687468E+00 0.  0.
          4    1    3    3  502    0 -0.86217380865E+02 -0.12851274655E+03 -0.93485385062E+02  0.18079955755E+03  0.00000000000E+00 0.  1.
   -9000007    1    1    2    0  501  0.14396541206E+03 -0.38499195548E+02 -0.21857097407E+03  0.47956386294E+03  0.40000000000E+03 0.  1.
<mgrwt>
<rscale>  2 0.42151825E+03</rscale>
<asrwt>0</asrwt>
<pdfrwt beam="1">  1        1 0.17291428E+00 0.42151825E+03</pdfrwt>
<pdfrwt beam="2">  1       -1 0.28676255E-01 0.42151825E+03</pdfrwt>
<totfact> 0.14115736E+02</totfact>
</mgrwt>
</event>
<event>
 6    1  0.8938744E-004  0.4015853E+03  0.7818608E-02  0.1043232E+00
          2   -1    0    0  502    0  0.00000000000E+00  0.00000000000E+00  0.18448717331E+04  0.18448717331E+04  0.00000000000E+00 0. -1.
         -2   -1    0    0    0  501 -0.00000000000E+00 -0.00000000000E+00 -0.87419460001E+02  0.87419460001E+02  0.00000000000E+00 0.  1.
    9000007    2    1    2  502    0 -0.33310740953E+02  0.23246260048E+02  0.87146294559E+03  0.95934356731E+03  0.39905190205E+03 0.  0.
    9000005    1    3    3    0    0 -0.15098119269E+03 -0.13584036394E+03  0.45406053702E+03  0.49741320478E+03  0.99999687468E+00 0.  0.
          4    1    3    3  502    0  0.11767045173E+03  0.15908662399E+03  0.41740240857E+03  0.46193036253E+03  0.00000000000E+00 0.  1.
   -9000007    1    1    2    0  501  0.33310740953E+02 -0.23246260048E+02  0.88598932747E+03  0.97294762575E+03  0.40000000000E+03 0.  1.
<mgrwt>
<rscale>  2 0.40158531E+03</rscale>
<asrwt>0</asrwt>
<pdfrwt beam="1">  1        2 0.28382639E+00 0.40158531E+03</pdfrwt>
<pdfrwt beam="2">  1       -2 0.13449149E-01 0.40158531E+03</pdfrwt>
<totfact> 0.36164429E+02</totfact>
</mgrwt>
</event>
<event>
 6    1  0.8938744E-004  0.5268031E+03  0.7818608E-02  0.1007010E+00
         -2   -1    0    0    0  501 -0.00000000000E+00  0.00000000000E+00  0.27435363137E+03  0.27435363137E+03  0.00000000000E+00 0. -1.
          2   -1    0    0  502    0  0.00000000000E+00 -0.00000000000E+00 -0.11323971817E+04  0.11323971817E+04  0.00000000000E+00 0.  1.
    9000007    2    1    2  502    0  0.33526078476E+03  0.68534768919E+02 -0.19953607554E+03  0.56370342254E+03  0.40106121078E+03 0.  0.
    9000005    1    3    3    0    0  0.19431727290E+03  0.23871421448E+02  0.10718948294E+03  0.22320311950E+03  0.99999687468E+00 0.  0.
          4    1    3    3  502    0  0.14094351186E+03  0.44663347471E+02 -0.30672555848E+03  0.34050030304E+03  0.00000000000E+00 0.  1.
   -9000007    1    1    2    0  501 -0.33526078476E+03 -0.68534768919E+02 -0.65850747484E+03  0.84304739058E+03  0.40000000000E+03 0.  1.
<mgrwt>
<rscale>  2 0.52680312E+03</rscale>
<asrwt>0</asrwt>
<pdfrwt beam="1">  1        2 0.17421496E+00 0.52680312E+03</pdfrwt>
<pdfrwt beam="2">  1       -2 0.42208250E-01 0.52680312E+03</pdfrwt>
<totfact> 0.11452949E+02</totfact>
</mgrwt>
</event>
<event>
 6    1  0.8938744E-004  0.5070101E+03  0.7818608E-02  0.1011965E+00
         -2   -1    0    0    0  501 -0.00000000000E+00  0.00000000000E+00  0.73184151078E+03  0.73184151078E+03  0.00000000000E+00 0.  1.
          2   -1    0    0  502    0  0.00000000000E+00 -0.00000000000E+00 -0.40152100895E+03  0.40152100895E+03  0.00000000000E+00 0. -1.
    9000007    2    1    2  502    0  0.28951156925E+03  0.11255156819E+03  0.36583458197E+03  0.62567555504E+03  0.40143511877E+03 0.  0.
    9000005    1    3    3    0    0  0.34005512391E+03  0.37372329461E+02  0.11812968158E+03  0.36192513034E+03  0.99999687468E+00 0.  0.
          4    1    3    3  502    0 -0.50543554667E+02  0.75179238730E+02  0.24770490039E+03  0.26375042470E+03  0.00000000000E+00 0.  1.
   -9000007    1    1    2    0  501 -0.28951156925E+03 -0.11255156819E+03 -0.35514080129E+02  0.50768696469E+03  0.40000000000E+03 0. -1.
<mgrwt>
<rscale>  2 0.50701010E+03</rscale>
<asrwt>0</asrwt>
<pdfrwt beam="1">  1        2 0.61772463E-01 0.50701010E+03</pdfrwt>
<pdfrwt beam="2">  1       -2 0.11259100E+00 0.50701010E+03</pdfrwt>
<totfact> 0.50627620E+01</totfact>
</mgrwt>
</event>
<event>
 6    1  0.8938744E-004  0.5536143E+03  0.7818608E-02  0.1000661E+00
          3   -1    0    0  502    0  0.00000000000E+00  0.00000000000E+00  0.47576333293E+03  0.47576333293E+03  0.00000000000E+00 0.  1.
         -3   -1    0    0    0  501 -0.00000000000E+00 -0.00000000000E+00 -0.64881847990E+03  0.64881847990E+03  0.00000000000E+00 0. -1.
    9000007    2    1    2  502    0  0.23152041591E+03  0.30352945850E+03 -0.39220645357E+02  0.55568506563E+03  0.40189028102E+03 0.  0.
    9000005    1    3    3    0    0 -0.27724576119E+02  0.22176952342E+03  0.10614803514E+03  0.24742428942E+03  0.99999687468E+00 0.  0.
          4    1    3    3  502    0  0.25924499203E+03  0.81759935079E+02 -0.14536868050E+03  0.30826077621E+03  0.00000000000E+00 0.  1.
   -9000007    1    1    2    0  501 -0.23152041591E+03 -0.30352945850E+03 -0.13383450161E+03  0.56889674721E+03  0.40000000000E+03 0. -1.
<mgrwt>
<rscale>  2 0.55361430E+03</rscale>
<asrwt>0</asrwt>
<pdfrwt beam="1">  1        3 0.73194359E-01 0.55361430E+03</pdfrwt>
<pdfrwt beam="2">  1       -3 0.99818228E-01 0.55361430E+03</pdfrwt>
<totfact> 0.40613401E+00</totfact>
</mgrwt>
</event>
<event>
 6    1  0.8938744E-004  0.4631240E+03  0.7818608E-02  0.1023879E+00
         -2   -1    0    0    0  501 -0.00000000000E+00  0.00000000000E+00  0.21093294059E+03  0.21093294059E+03  0.00000000000E+00 0. -1.
          2   -1    0    0  502    0  0.00000000000E+00 -0.00000000000E+00 -0.10181744015E+04  0.10181744015E+04  0.00000000000E+00 0.  1.
    9000007    2    1    2  502    0 -0.23579874002E+03  0.21525868305E+02 -0.42432265935E+03  0.62686883668E+03  0.39604344504E+03 0.  0.
    9000005    1    3    3    0    0 -0.59335901057E+02  0.56186223418E+02  0.65720179254E+02  0.10487031425E+03  0.99999687468E+00 0.  0.
          4    1    3    3  502    0 -0.17646283896E+03 -0.34660355113E+02 -0.49004283860E+03  0.52199852243E+03  0.00000000000E+00 0.  1.
   -9000007    1    1    2    0  501  0.23579874002E+03 -0.21525868305E+02 -0.38291880152E+03  0.60223850538E+03  0.40000000000E+03 0.  1.
<mgrwt>
<rscale>  2 0.46312399E+03</rscale>
<asrwt>0</asrwt>
<pdfrwt beam="1">  1        2 0.15664221E+00 0.46312399E+03</pdfrwt>
<pdfrwt beam="2">  1       -2 0.32451222E-01 0.46312399E+03</pdfrwt>
<totfact> 0.22355740E+02</totfact>
</mgrwt>
</event>
<event>
 6    1  0.8938744E-004  0.4985750E+03  0.7818608E-02  0.1014152E+00
         -4   -1    0    0    0  501 -0.00000000000E+00  0.00000000000E+00  0.29294246262E+03  0.29294246262E+03  0.00000000000E+00 0.  1.
          4   -1    0    0  502    0  0.00000000000E+00 -0.00000000000E+00 -0.24129822294E+04  0.24129822294E+04  0.00000000000E+00 0. -1.
    9000007    2    1    2  502    0 -0.12536577495E+03 -0.26983988012E+03  0.29343184468E+02  0.49948475185E+03  0.40011730333E+03 0.  0.
    9000005    1    3    3    0    0 -0.52984677374E+02 -0.23533821726E+03 -0.16297248362E+03  0.29112279703E+03  0.99999687468E+00 0.  0.
          4    1    3    3  502    0 -0.72381097574E+02 -0.34501662858E+02  0.19231566809E+03  0.20836195482E+03  0.00000000000E+00 0.  1.
   -9000007    1    1    2    0  501  0.12536577495E+03  0.26983988012E+03 -0.21493829512E+04  0.22064399401E+04  0.40000000000E+03 0. -1.
<mgrwt>
<rscale>  2 0.49857503E+03</rscale>
<asrwt>0</asrwt>
<pdfrwt beam="1">  1        4 0.37122804E+00 0.49857503E+03</pdfrwt>
<pdfrwt beam="2">  1       -4 0.45068071E-01 0.49857503E+03</pdfrwt>
<totfact> 0.10891495E-01</totfact>
</mgrwt>
</event>
<event>
 6    1  0.8938744E-004  0.4650230E+03  0.7818608E-02  0.1023334E+00
          2   -1    0    0  502    0  0.00000000000E+00  0.00000000000E+00  0.30782776087E+04  0.30782776087E+04  0.00000000000E+00 0. -1.
         -2   -1    0    0    0  501 -0.00000000000E+00 -0.00000000000E+00 -0.99110046421E+02  0.99110046421E+02  0.00000000000E+00 0.  1.
    9000007    2    1    2  502    0 -0.38120766156E+02 -0.23519847823E+03  0.63099868905E+03  0.78350616804E+03  0.39868665993E+03 0.  0.
    9000005    1    3    3    0    0  0.43121117404E+01 -0.55832326120E+02  0.59258868044E+03  0.59522952475E+03  0.99999687468E+00 0.  0.
          4    1    3    3  502    0 -0.42432877897E+02 -0.17936615211E+03  0.38410008610E+02  0.18827664330E+03  0.00000000000E+00 0.  1.
   -9000007    1    1    2    0  501  0.38120766156E+02  0.23519847823E+03  0.23481688732E+04  0.23938814871E+04  0.40000000000E+03 0. -1.
<mgrwt>
<rscale>  2 0.46502302E+03</rscale>
<asrwt>0</asrwt>
<pdfrwt beam="1">  1        2 0.47358110E+00 0.46502302E+03</pdfrwt>
<pdfrwt beam="2">  1       -2 0.15247702E-01 0.46502302E+03</pdfrwt>
<totfact> 0.59011137E+01</totfact>
</mgrwt>
</event>
<event>
 6    1  0.8938744E-004  0.4579618E+03  0.7818608E-02  0.1025374E+00
         -3   -1    0    0    0  501 -0.00000000000E+00  0.00000000000E+00  0.41104551344E+03  0.41104551344E+03  0.00000000000E+00 0. -1.
          3   -1    0    0  502    0  0.00000000000E+00 -0.00000000000E+00 -0.51025171228E+03  0.51025171228E+03  0.00000000000E+00 0.  1.
    9000007    2    1    2  502    0  0.21790024797E+03 -0.42724804377E+02 -0.52402100864E+02  0.46140968451E+03  0.40105733980E+03 0.  0.
    9000005    1    3    3    0    0  0.10240117431E+03 -0.32771559139E+01  0.17530798666E+03  0.20305326994E+03  0.99999687468E+00 0.  0.
          4    1    3    3  502    0  0.11549907367E+03 -0.39447648463E+02 -0.22771008753E+03  0.25835641457E+03  0.00000000000E+00 0.  1.
   -9000007    1    1    2    0  501 -0.21790024797E+03  0.42724804377E+02 -0.46804097974E+02  0.45988754121E+03  0.40000000000E+03 0.  1.
<mgrwt>
<rscale>  2 0.45796178E+03</rscale>
<asrwt>0</asrwt>
<pdfrwt beam="1">  1        3 0.78500263E-01 0.45796178E+03</pdfrwt>
<pdfrwt beam="2">  1       -3 0.63237771E-01 0.45796178E+03</pdfrwt>
<totfact> 0.96035742E+00</totfact>
</mgrwt>
</event>
<event>
 6    1  0.8938744E-004  0.4253088E+03  0.7818608E-02  0.1035352E+00
          2   -1    0    0  502    0  0.00000000000E+00  0.00000000000E+00  0.18638531820E+04  0.18638531820E+04  0.00000000000E+00 0.  1.
         -2   -1    0    0    0  501 -0.00000000000E+00 -0.00000000000E+00 -0.11617502223E+03  0.11617502223E+03  0.00000000000E+00 0. -1.
    9000007    2    1    2  502    0  0.13956856791E+03 -0.45522138912E+02  0.47082366686E+03  0.63395649502E+03  0.39833938046E+03 0.  0.
    9000005    1    3    3    0    0 -0.76684061892E+02 -0.15821025022E+03  0.24532638070E+03  0.30182273222E+03  0.99999687468E+00 0.  0.
          4    1    3    3  502    0  0.21625262980E+03  0.11268811131E+03  0.22549728616E+03  0.33213376280E+03  0.00000000000E+00 0.  1.
   -9000007    1    1    2    0  501 -0.13956856791E+03  0.45522138912E+02  0.12768544929E+04  0.13460717092E+04  0.40000000000E+03 0.  1.
<mgrwt>
<rscale>  2 0.42530879E+03</rscale>
<asrwt>0</asrwt>
<pdfrwt beam="1">  1        2 0.28674662E+00 0.42530879E+03</pdfrwt>
<pdfrwt beam="2">  1       -2 0.17873082E-01 0.42530879E+03</pdfrwt>
<totfact> 0.21840823E+02</totfact>
</mgrwt>
</event>
<event>
 6    1  0.8938744E-004  0.4767409E+03  0.7818608E-02  0.1020035E+00
          1   -1    0    0  502    0  0.00000000000E+00  0.00000000000E+00  0.62004598570E+03  0.62004598570E+03  0.00000000000E+00 0.  1.
         -1   -1    0    0    0  501 -0.00000000000E+00 -0.00000000000E+00 -0.67711033560E+03  0.67711033560E+03  0.00000000000E+00 0. -1.
    9000007    2    1    2  502    0 -0.81964058542E+02 -0.24565773835E+03  0.41069960305E+03  0.62942213243E+03  0.40053991754E+03 0.  0.
    9000005    1    3    3    0    0  0.10580460426E+03 -0.63471053921E+02 -0.20481625880E+02  0.12507472151E+03  0.99999687468E+00 0.  0.
          4    1    3    3  502    0 -0.18776866281E+03 -0.18218668443E+03  0.43118122893E+03  0.50434741092E+03  0.00000000000E+00 0.  1.
   -9000007    1    1    2    0  501  0.81964058542E+02  0.24565773835E+03 -0.46776395295E+03  0.66773418887E+03  0.40000000000E+03 0. -1.
<mgrwt>
<rscale>  2 0.47674085E+03</rscale>
<asrwt>0</asrwt>
<pdfrwt beam="1">  1        1 0.95391690E-01 0.47674085E+03</pdfrwt>
<pdfrwt beam="2">  1       -1 0.10417082E+00 0.47674085E+03</pdfrwt>
<totfact> 0.30030921E+01</totfact>
</mgrwt>
</event>
<event>
 6    1  0.8938744E-004  0.4013693E+03  0.7818608E-02  0.1043307E+00
          1   -1    0    0  502    0  0.00000000000E+00  0.00000000000E+00  0.25452702624E+03  0.25452702624E+03  0.00000000000E+00 0.  1.
         -1   -1    0    0    0  501 -0.00000000000E+00 -0.00000000000E+00 -0.63426464667E+03  0.63426464667E+03  0.00000000000E+00 0. -1.
    9000007    2    1    2  502    0  0.95296050040E+01 -0.30571746087E+02 -0.21030978285E+03  0.45321017976E+03  0.40017973118E+03 0.  0.
    9000005    1    3    3    0    0  0.57258008168E+02  0.16746199914E+03 -0.17030478822E+03  0.24561498639E+03  0.99999687468E+00 0.  0.
          4    1    3    3  502    0 -0.47728403164E+02 -0.19803374522E+03 -0.40004994628E+02  0.20759519337E+03  0.00000000000E+00 0.  1.
   -9000007    1    1    2    0  501 -0.95296050040E+01  0.30571746087E+02 -0.16942783758E+03  0.43558149315E+03  0.40000000000E+03 0.  1.
<mgrwt>
<rscale>  2 0.40136933E+03</rscale>
<asrwt>0</asrwt>
<pdfrwt beam="1">  1        1 0.39158005E-01 0.40136933E+03</pdfrwt>
<pdfrwt beam="2">  1       -1 0.97579175E-01 0.40136933E+03</pdfrwt>
<totfact> 0.11413547E+02</totfact>
</mgrwt>
</event>
<event>
 6    1  0.8938744E-004  0.5687226E+03  0.7818608E-02  0.9972509E-01
          1   -1    0    0  502    0  0.00000000000E+00  0.00000000000E+00  0.37788817638E+03  0.37788817638E+03  0.00000000000E+00 0. -1.
         -1   -1    0    0    0  501 -0.00000000000E+00 -0.00000000000E+00 -0.86348583775E+03  0.86348583775E+03  0.00000000000E+00 0.  1.
    9000007    2    1    2  502    0  0.36147235646E+03 -0.18154021447E+03 -0.18466919735E+03  0.59780812442E+03  0.39956567323E+03 0.  0.
    9000005    1    3    3    0    0  0.28216030264E+02 -0.32813370598E+02  0.11673102996E+03  0.12449897592E+03  0.99999687468E+00 0.  0.
          4    1    3    3  502    0  0.33325632619E+03 -0.14872684387E+03 -0.30140022731E+03  0.47330914851E+03  0.00000000000E+00 0.  1.
   -9000007    1    1    2    0  501 -0.36147235646E+03  0.18154021447E+03 -0.30092846402E+03  0.64356588972E+03  0.40000000000E+03 0.  1.
<mgrwt>
<rscale>  2 0.56872263E+03</rscale>
<asrwt>0</asrwt>
<pdfrwt beam="1">  1        1 0.58136643E-01 0.56872263E+03</pdfrwt>
<pdfrwt beam="2">  1       -1 0.13284397E+00 0.56872263E+03</pdfrwt>
<totfact> 0.32388599E+01</totfact>
</mgrwt>
</event>
<event>
 6    1  0.8938744E-004  0.4583757E+03  0.7818608E-02  0.1025253E+00
          3   -1    0    0  502    0  0.00000000000E+00  0.00000000000E+00  0.18527266597E+04  0.18527266597E+04  0.00000000000E+00 0. -1.
         -3   -1    0    0    0  501 -0.00000000000E+00 -0.00000000000E+00 -0.13288990332E+03  0.13288990332E+03  0.00000000000E+00 0.  1.
    9000007    2    1    2  502    0  0.16942208026E+02 -0.22329900198E+03  0.47968357666E+03  0.66344811995E+03  0.39989697605E+03 0.  0.
    9000005    1    3    3    0    0 -0.13796641577E+03 -0.15029434684E+03  0.44384325091E+03  0.48848843789E+03  0.99999687468E+00 0.  0.
          4    1    3    3  502    0  0.15490862380E+03 -0.73004655141E+02  0.35840325749E+02  0.17495968207E+03  0.00000000000E+00 0.  1.
   -9000007    1    1    2    0  501 -0.16942208026E+02  0.22329900198E+03  0.12401531797E+04  0.13221684431E+04  0.40000000000E+03 0. -1.
<mgrwt>
<rscale>  2 0.45837569E+03</rscale>
<asrwt>0</asrwt>
<pdfrwt beam="1">  1        3 0.28503485E+00 0.45837569E+03</pdfrwt>
<pdfrwt beam="2">  1       -3 0.20444602E-01 0.45837569E+03</pdfrwt>
<totfact> 0.28107461E+00</totfact>
</mgrwt>
</event>
<event>
 6    1  0.8938744E-004  0.6494423E+03  0.7818608E-02  0.9807826E-01
          2   -1    0    0  502    0  0.00000000000E+00  0.00000000000E+00  0.10223724720E+04  0.10223724720E+04  0.00000000000E+00 0.  1.
         -2   -1    0    0    0  501 -0.00000000000E+00 -0.00000000000E+00 -0.41764165838E+03  0.41764165838E+03  0.00000000000E+00 0. -1.
    9000007    2    1    2  502    0  0.54779372988E+02  0.50875827305E+03  0.22281021173E+03  0.68655603185E+03  0.39984876430E+03 0.  0.
    9000005    1    3    3    0    0 -0.23000923131E+02  0.27718602673E+03 -0.87545291689E+02  0.29159271933E+03  0.99999687468E+00 0.  0.
          4    1    3    3  502    0  0.77780296119E+02  0.23157224633E+03  0.31035550341E+03  0.39496331252E+03  0.00000000000E+00 0.  1.
   -9000007    1    1    2    0  501 -0.54779372988E+02 -0.50875827305E+03  0.38192060191E+03  0.75345809855E+03  0.40000000000E+03 0. -1.
<mgrwt>
<rscale>  2 0.64944228E+03</rscale>
<asrwt>0</asrwt>
<pdfrwt beam="1">  1        2 0.15728807E+00 0.64944228E+03</pdfrwt>
<pdfrwt beam="2">  1       -2 0.64252563E-01 0.64944228E+03</pdfrwt>
<totfact> 0.55905807E+01</totfact>
</mgrwt>
</event>
<event>
 6    1  0.8938744E-004  0.4826473E+03  0.7818608E-02  0.1018410E+00
         -2   -1    0    0    0  501 -0.00000000000E+00  0.00000000000E+00  0.18404909677E+03  0.18404909677E+03  0.00000000000E+00 0.  1.
          2   -1    0    0  502    0  0.00000000000E+00 -0.00000000000E+00 -0.12755474290E+04  0.12755474290E+04  0.00000000000E+00 0. -1.
    9000007    2    1    2  502    0 -0.57398994881E+02 -0.26358720977E+03 -0.61012096304E+03  0.77805633373E+03  0.40043876829E+03 0.  0.
    9000005    1    3    3    0    0 -0.22002787812E+02 -0.29900275242E+03 -0.64884091359E+03  0.71476030931E+03  0.99999687468E+00 0.  0.
          4    1    3    3  502    0 -0.35396207069E+02  0.35415542648E+02  0.38719950555E+02  0.63296024416E+02  0.00000000000E+00 0.  1.
   -9000007    1    1    2    0  501  0.57398994881E+02  0.26358720977E+03 -0.48137736916E+03  0.68154019199E+03  0.40000000000E+03 0.  1.
<mgrwt>
<rscale>  2 0.48264728E+03</rscale>
<asrwt>0</asrwt>
<pdfrwt beam="1">  1        2 0.19623807E+00 0.48264728E+03</pdfrwt>
<pdfrwt beam="2">  1       -2 0.28315246E-01 0.48264728E+03</pdfrwt>
<totfact> 0.20185222E+02</totfact>
</mgrwt>
</event>
<event>
 6    1  0.8938744E-004  0.4222550E+03  0.7818608E-02  0.1036335E+00
          2   -1    0    0  502    0  0.00000000000E+00  0.00000000000E+00  0.21712025525E+04  0.21712025525E+04  0.00000000000E+00 0. -1.
         -2   -1    0    0    0  501 -0.00000000000E+00 -0.00000000000E+00 -0.83530290176E+02  0.83530290176E+02  0.00000000000E+00 0.  1.
    9000007    2    1    2  502    0 -0.13095166350E+03 -0.30263167591E+02  0.11909940374E+04  0.12637252562E+04  0.40058772877E+03 0.  0.
    9000005    1    3    3    0    0 -0.23475988479E+02  0.37669793597E+02  0.11144156102E+04  0.11152996403E+04  0.99999687468E+00 0.  0.
          4    1    3    3  502    0 -0.10747567502E+03 -0.67932961188E+02  0.76578427228E+02  0.14842561589E+03  0.00000000000E+00 0.  1.
   -9000007    1    1    2    0  501  0.13095166350E+03  0.30263167591E+02  0.89667822495E+03  0.99100758654E+03  0.40000000000E+03 0.  1.
<mgrwt>
<rscale>  2 0.42225503E+03</rscale>
<asrwt>0</asrwt>
<pdfrwt beam="1">  1        2 0.33403112E+00 0.42225503E+03</pdfrwt>
<pdfrwt beam="2">  1       -2 0.12850816E-01 0.42225503E+03</pdfrwt>
<totfact> 0.25995444E+02</totfact>
</mgrwt>
</event>
<event>
 6    1  0.8938744E-004  0.4999672E+03  0.7818608E-02  0.1013787E+00
          2   -1    0    0  502    0  0.00000000000E+00  0.00000000000E+00  0.10077665466E+04  0.10077665466E+04  0.00000000000E+00 0.  1.
         -2   -1    0    0    0  501 -0.00000000000E+00 -0.00000000000E+00 -0.25532129091E+03  0.25532129091E+03  0.00000000000E+00 0. -1.
    9000007    2    1    2  502    0  0.11478794043E+03  0.27699886913E+03  0.26962306374E+03  0.56809005778E+03  0.40015631006E+03 0.  0.
    9000005    1    3    3    0    0 -0.94772532719E+02  0.70942709125E+02 -0.54700214200E+02  0.13041401138E+03  0.99999687468E+00 0.  0.
          4    1    3    3  502    0  0.20956047315E+03  0.20605616001E+03  0.32432327794E+03  0.43767604641E+03  0.00000000000E+00 0.  1.
   -9000007    1    1    2    0  501 -0.11478794043E+03 -0.27699886913E+03  0.48282219191E+03  0.69499777969E+03  0.40000000000E+03 0.  1.
<mgrwt>
<rscale>  2 0.49996717E+03</rscale>
<asrwt>0</asrwt>
<pdfrwt beam="1">  1        2 0.15504101E+00 0.49996717E+03</pdfrwt>
<pdfrwt beam="2">  1       -2 0.39280199E-01 0.49996717E+03</pdfrwt>
<totfact> 0.15740448E+02</totfact>
</mgrwt>
</event>
<event>
 6    1  0.8938744E-004  0.8032945E+03  0.7818608E-02  0.9555261E-01
          2   -1    0    0  502    0  0.00000000000E+00  0.00000000000E+00  0.48689980503E+03  0.48689980503E+03  0.00000000000E+00 0.  1.
         -2   -1    0    0    0  501 -0.00000000000E+00 -0.00000000000E+00 -0.13336059688E+04  0.13336059688E+04  0.00000000000E+00 0. -1.
    9000007    2    1    2  502    0 -0.41959170687E+03  0.55588104686E+03 -0.35153307511E+03  0.87697128772E+03  0.40055236593E+03 0.  0.
    9000005    1    3    3    0    0 -0.58814879778E+02  0.15443681566E+03 -0.28993918529E+03  0.33372990767E+03  0.99999687468E+00 0.  0.
          4    1    3    3  502    0 -0.36077682709E+03  0.40144423120E+03 -0.61593889820E+02  0.54324138004E+03  0.00000000000E+00 0.  1.
   -9000007    1    1    2    0  501  0.41959170687E+03 -0.55588104686E+03 -0.49517308863E+03  0.94353448609E+03  0.40000000000E+03 0. -1.
<mgrwt>
<rscale>  2 0.80329447E+03</rscale>
<asrwt>0</asrwt>
<pdfrwt beam="1">  1        2 0.74907664E-01 0.80329447E+03</pdfrwt>
<pdfrwt beam="2">  1       -2 0.20517014E+00 0.80329447E+03</pdfrwt>
<totfact> 0.79261644E+00</totfact>
</mgrwt>
</event>
<event>
 6    1  0.8938744E-004  0.4004517E+03  0.7818608E-02  0.1043623E+00
         -2   -1    0    0    0  501 -0.00000000000E+00  0.00000000000E+00  0.76704675041E+02  0.76704675041E+02  0.00000000000E+00 0. -1.
          2   -1    0    0  502    0  0.00000000000E+00 -0.00000000000E+00 -0.21637809406E+04  0.21637809406E+04  0.00000000000E+00 0.  1.
    9000007    2    1    2  502    0  0.22274434021E+02 -0.40583386048E+02 -0.83209368365E+03  0.92248544776E+03  0.39554562484E+03 0.  0.
    9000005    1    3    3    0    0  0.10025298213E+03  0.14718240218E+03 -0.25833881394E+03  0.31377262901E+03  0.99999687468E+00 0.  0.
          4    1    3    3  502    0 -0.77978548105E+02 -0.18776578823E+03 -0.57375486971E+03  0.60871281875E+03  0.00000000000E+00 0.  1.
   -9000007    1    1    2    0  501 -0.22274434021E+02  0.40583386048E+02 -0.12549825819E+04  0.13180001679E+04  0.40000000000E+03 0.  1.
<mgrwt>
<rscale>  2 0.40045168E+03</rscale>
<asrwt>0</asrwt>
<pdfrwt beam="1">  1        2 0.33288934E+00 0.40045168E+03</pdfrwt>
<pdfrwt beam="2">  1       -2 0.11800721E-01 0.40045168E+03</pdfrwt>
<totfact> 0.30273882E+02</totfact>
</mgrwt>
</event>
<event>
 6    1  0.8938744E-004  0.4073205E+03  0.7818608E-02  0.1041274E+00
          2   -1    0    0  502    0  0.00000000000E+00  0.00000000000E+00  0.16476338855E+04  0.16476338855E+04  0.00000000000E+00 0. -1.
         -2   -1    0    0    0  501 -0.00000000000E+00 -0.00000000000E+00 -0.11786563321E+03  0.11786563321E+03  0.00000000000E+00 0.  1.
    9000007    2    1    2  502    0 -0.61162039269E+02 -0.49784657455E+02  0.42735726684E+03  0.59011477828E+03  0.39922664097E+03 0.  0.
    9000005    1    3    3    0    0 -0.99822644360E+02 -0.18063298366E+03  0.40122691384E+03  0.45119493735E+03  0.99999687468E+00 0.  0.
          4    1    3    3  502    0  0.38660605091E+02  0.13084832620E+03  0.26130353001E+02  0.13891984093E+03  0.00000000000E+00 0.  1.
   -9000007    1    1    2    0  501  0.61162039269E+02  0.49784657455E+02  0.11024109855E+04  0.11753847404E+04  0.40000000000E+03 0. -1.
<mgrwt>
<rscale>  2 0.40732048E+03</rscale>
<asrwt>0</asrwt>
<pdfrwt beam="1">  1        2 0.25348212E+00 0.40732048E+03</pdfrwt>
<pdfrwt beam="2">  1       -2 0.18133175E-01 0.40732048E+03</pdfrwt>
<totfact> 0.27883887E+02</totfact>
</mgrwt>
</event>
<event>
 6    1  0.8938744E-004  0.4015784E+03  0.7818608E-02  0.1043235E+00
         -1   -1    0    0    0  501 -0.00000000000E+00  0.00000000000E+00  0.11768903591E+04  0.11768903591E+04  0.00000000000E+00 0.  1.
          1   -1    0    0  502    0  0.00000000000E+00 -0.00000000000E+00 -0.15729944454E+03  0.15729944454E+03  0.00000000000E+00 0. -1.
    9000007    2    1    2  502    0 -0.48672000256E+02 -0.11334141492E+01  0.26880265178E+03  0.48210221204E+03  0.39723724524E+03 0.  0.
    9000005    1    3    3    0    0 -0.86567246485E+02 -0.15073152028E+03  0.19451388807E+01  0.17383516022E+03  0.99999687468E+00 0.  0.
          4    1    3    3  502    0  0.37895246229E+02  0.14959810613E+03  0.26685751290E+03  0.30826705182E+03  0.00000000000E+00 0.  1.
   -9000007    1    1    2    0  501  0.48672000256E+02  0.11334141492E+01  0.75078826278E+03  0.85208759160E+03  0.40000000000E+03 0.  1.
<mgrwt>
<rscale>  2 0.40157839E+03</rscale>
<asrwt>0</asrwt>
<pdfrwt beam="1">  1        1 0.24199915E-01 0.40157839E+03</pdfrwt>
<pdfrwt beam="2">  1       -1 0.18106005E+00 0.40157839E+03</pdfrwt>
<totfact> 0.44160486E+01</totfact>
</mgrwt>
</event>
<event>
 6    1  0.8938744E-004  0.4663001E+03  0.7818608E-02  0.1022970E+00
          3   -1    0    0  502    0  0.00000000000E+00  0.00000000000E+00  0.79735999368E+03  0.79735999368E+03  0.00000000000E+00 0.  1.
         -3   -1    0    0    0  501 -0.00000000000E+00 -0.00000000000E+00 -0.43894824545E+03  0.43894824545E+03  0.00000000000E+00 0. -1.
    9000007    2    1    2  502    0  0.23631127476E+03 -0.41663030325E+02 -0.20126148194E+03  0.50773912693E+03  0.39964235289E+03 0.  0.
    9000005    1    3    3    0    0  0.39032635712E+02 -0.69779887238E+02 -0.28171166747E+03  0.29283996123E+03  0.99999687468E+00 0.  0.
          4    1    3    3  502    0  0.19727863905E+03  0.28116856913E+02  0.80450185523E+02  0.21489916570E+03  0.00000000000E+00 0.  1.
   -9000007    1    1    2    0  501 -0.23631127476E+03  0.41663030325E+02  0.55967323017E+03  0.72856911220E+03  0.40000000000E+03 0.  1.
<mgrwt>
<rscale>  2 0.46630010E+03</rscale>
<asrwt>0</asrwt>
<pdfrwt beam="1">  1        3 0.12267077E+00 0.46630010E+03</pdfrwt>
<pdfrwt beam="2">  1       -3 0.67530500E-01 0.46630010E+03</pdfrwt>
<totfact> 0.29650553E+00</totfact>
</mgrwt>
</event>
<event>
 6    1  0.8938744E-004  0.5173453E+03  0.7818608E-02  0.1009348E+00
          2   -1    0    0  502    0  0.00000000000E+00  0.00000000000E+00  0.12698673649E+04  0.12698673649E+04  0.00000000000E+00 0. -1.
         -2   -1    0    0    0  501 -0.00000000000E+00 -0.00000000000E+00 -0.29653128055E+03  0.29653128055E+03  0.00000000000E+00 0.  1.
    9000007    2    1    2  502    0 -0.29595128225E+03 -0.14003970079E+03  0.90815901421E+03  0.10453935306E+04  0.40111913371E+03 0.  0.
    9000005    1    3    3    0    0 -0.12081647844E+03 -0.26127504821E+03  0.64871074093E+03  0.70970972776E+03  0.99999687468E+00 0.  0.
          4    1    3    3  502    0 -0.17513480381E+03  0.12123534742E+03  0.25944827328E+03  0.33568380282E+03  0.00000000000E+00 0.  1.
   -9000007    1    1    2    0  501  0.29595128225E+03  0.14003970079E+03  0.65177070161E+02  0.52100511489E+03  0.40000000000E+03 0.  1.
<mgrwt>
<rscale>  2 0.51734532E+03</rscale>
<asrwt>0</asrwt>
<pdfrwt beam="1">  1        2 0.19536421E+00 0.51734532E+03</pdfrwt>
<pdfrwt beam="2">  1       -2 0.45620198E-01 0.51734532E+03</pdfrwt>
<totfact> 0.81736946E+01</totfact>
</mgrwt>
</event>
<event>
 6    1  0.8938744E-004  0.8447148E+03  0.7818608E-02  0.9497458E-01
          1   -1    0    0  502    0  0.00000000000E+00  0.00000000000E+00  0.99032107502E+03  0.99032107502E+03  0.00000000000E+00 0.  1.
         -1   -1    0    0    0  501 -0.00000000000E+00 -0.00000000000E+00 -0.72067316769E+03  0.72067316769E+03  0.00000000000E+00 0. -1.
    9000007    2    1    2  502    0 -0.61498819017E+03 -0.41891580277E+03  0.12221413720E+03  0.85341763363E+03  0.39960535308E+03 0.  0.
    9000005    1    3    3    0    0 -0.36478231578E+03 -0.26611317812E+03 -0.12654025488E+03  0.46893048267E+03  0.99999687468E+00 0.  0.
          4    1    3    3  502    0 -0.25020587439E+03 -0.15280262464E+03  0.24875439208E+03  0.38448715097E+03  0.00000000000E+00 0.  1.
   -9000007    1    1    2    0  501  0.61498819017E+03  0.41891580277E+03  0.14743377014E+03  0.85757660908E+03  0.40000000000E+03 0.  1.
<mgrwt>
<rscale>  2 0.84471482E+03</rscale>
<asrwt>0</asrwt>
<pdfrwt beam="1">  1        1 0.15235709E+00 0.84471482E+03</pdfrwt>
<pdfrwt beam="2">  1       -1 0.11087279E+00 0.84471482E+03</pdfrwt>
<totfact> 0.11757671E+01</totfact>
</mgrwt>
</event>
<event>
 6    1  0.8938744E-004  0.5095676E+03  0.7818608E-02  0.1011311E+00
          2   -1    0    0  502    0  0.00000000000E+00  0.00000000000E+00  0.61618649297E+03  0.61618649297E+03  0.00000000000E+00 0.  1.
         -2   -1    0    0    0  501 -0.00000000000E+00 -0.00000000000E+00 -0.63434027551E+03  0.63434027551E+03  0.00000000000E+00 0. -1.
    9000007    2    1    2  502    0 -0.23801898798E+03  0.21302962696E+03  0.35321185563E+03  0.61811306068E+03  0.39404375419E+03 0.  0.
    9000005    1    3    3    0    0 -0.98218215505E+02 -0.81360757747E+02  0.24237021808E+03  0.27388083789E+03  0.99999687468E+00 0.  0.
          4    1    3    3  502    0 -0.13980077247E+03  0.29439038470E+03  0.11084163756E+03  0.34423222279E+03  0.00000000000E+00 0.  1.
   -9000007    1    1    2    0  501  0.23801898798E+03 -0.21302962696E+03 -0.37136563818E+03  0.63241370780E+03  0.40000000000E+03 0.  1.
<mgrwt>
<rscale>  2 0.50956759E+03</rscale>
<asrwt>0</asrwt>
<pdfrwt beam="1">  1        2 0.94797923E-01 0.50956759E+03</pdfrwt>
<pdfrwt beam="2">  1       -2 0.97590811E-01 0.50956759E+03</pdfrwt>
<totfact> 0.43467606E+01</totfact>
</mgrwt>
</event>
<event>
 6    1  0.8938744E-004  0.4242894E+03  0.7818608E-02  0.1035679E+00
         -2   -1    0    0    0  501 -0.00000000000E+00  0.00000000000E+00  0.12689420845E+03  0.12689420845E+03  0.00000000000E+00 0.  1.
          2   -1    0    0  502    0  0.00000000000E+00 -0.00000000000E+00 -0.14487509438E+04  0.14487509438E+04  0.00000000000E+00 0. -1.
    9000007    2    1    2  502    0 -0.28456279842E+02  0.13865459750E+03 -0.77441823582E+03  0.88302421115E+03  0.39996661891E+03 0.  0.
    9000005    1    3    3    0    0 -0.16481738222E+03 -0.81017818023E+01 -0.13576934350E+03  0.21369305786E+03  0.99999687468E+00 0.  0.
          4    1    3    3  502    0  0.13636110238E+03  0.14675637931E+03 -0.63864889231E+03  0.66933115329E+03  0.00000000000E+00 0.  1.
   -9000007    1    1    2    0  501  0.28456279842E+02 -0.13865459750E+03 -0.54743849953E+03  0.69262094109E+03  0.40000000000E+03 0.  1.
<mgrwt>
<rscale>  2 0.42428941E+03</rscale>
<asrwt>0</asrwt>
<pdfrwt beam="1">  1        2 0.22288477E+00 0.42428941E+03</pdfrwt>
<pdfrwt beam="2">  1       -2 0.19522185E-01 0.42428941E+03</pdfrwt>
<totfact> 0.31429331E+02</totfact>
</mgrwt>
</event>
<event>
 6    1  0.8938744E-004  0.3974530E+03  0.7818608E-02  0.1044665E+00
         -2   -1    0    0    0  501 -0.00000000000E+00  0.00000000000E+00  0.28196092564E+04  0.28196092564E+04  0.00000000000E+00 0. -1.
          2   -1    0    0  502    0  0.00000000000E+00 -0.00000000000E+00 -0.71283170771E+02  0.71283170771E+02  0.00000000000E+00 0.  1.
    9000007    2    1    2  502    0 -0.10027289907E+02 -0.11907401606E+02  0.20351120105E+04  0.20730191792E+04  0.39431623018E+03 0.  0.
    9000005    1    3    3    0    0 -0.10343183557E+03  0.13069916320E+03  0.47056516827E+03  0.49921237310E+03  0.99999687468E+00 0.  0.
          4    1    3    3  502    0  0.93404545661E+02 -0.14260656481E+03  0.15645468422E+04  0.15738068061E+04  0.00000000000E+00 0.  1.
   -9000007    1    1    2    0  501  0.10027289907E+02  0.11907401606E+02  0.71321407518E+03  0.81787324800E+03  0.40000000000E+03 0.  1.
<mgrwt>
<rscale>  2 0.39745295E+03</rscale>
<asrwt>0</asrwt>
<pdfrwt beam="1">  1        2 0.10966644E-01 0.39745295E+03</pdfrwt>
<pdfrwt beam="2">  1       -2 0.43378595E+00 0.39745295E+03</pdfrwt>
<totfact> 0.29903285E+00</totfact>
</mgrwt>
</event>
<event>
 6    1  0.8938744E-004  0.4454063E+03  0.7818608E-02  0.1029101E+00
          1   -1    0    0  502    0  0.00000000000E+00  0.00000000000E+00  0.31092388661E+03  0.31092388661E+03  0.00000000000E+00 0.  1.
         -1   -1    0    0    0  501 -0.00000000000E+00 -0.00000000000E+00 -0.64030896520E+03  0.64030896520E+03  0.00000000000E+00 0. -1.
    9000007    2    1    2  502    0  0.30388841962E+02 -0.19512954692E+03 -0.19264460487E+03  0.48465276334E+03  0.39846873833E+03 0.  0.
    9000005    1    3    3    0    0 -0.15047651943E+03 -0.12802468604E+03 -0.21317436243E+03  0.29065066993E+03  0.99999687468E+00 0.  0.
          4    1    3    3  502    0  0.18086536139E+03 -0.67104860878E+02  0.20529757562E+02  0.19400209342E+03  0.00000000000E+00 0.  1.
   -9000007    1    1    2    0  501 -0.30388841962E+02  0.19512954692E+03 -0.13674047372E+03  0.46658008846E+03  0.40000000000E+03 0.  1.
<mgrwt>
<rscale>  2 0.44540627E+03</rscale>
<asrwt>0</asrwt>
<pdfrwt beam="1">  1        1 0.47834444E-01 0.44540627E+03</pdfrwt>
<pdfrwt beam="2">  1       -1 0.98509071E-01 0.44540627E+03</pdfrwt>
<totfact> 0.86129745E+01</totfact>
</mgrwt>
</event>
<event>
 6    1  0.8938744E-004  0.5524340E+03  0.7818608E-02  0.1000932E+00
          2   -1    0    0  502    0  0.00000000000E+00  0.00000000000E+00  0.12612302608E+04  0.12612302608E+04  0.00000000000E+00 0.  1.
         -2   -1    0    0    0  501 -0.00000000000E+00 -0.00000000000E+00 -0.24704263889E+03  0.24704263889E+03  0.00000000000E+00 0. -1.
    9000007    2    1    2  502    0 -0.19853436628E+03 -0.32598439352E+03  0.39865543097E+03  0.68089052283E+03  0.39875309658E+03 0.  0.
    9000005    1    3    3    0    0 -0.31930439320E+02 -0.16027851192E+03 -0.52962876395E+02  0.17179877941E+03  0.99999687468E+00 0.  0.
          4    1    3    3  502    0 -0.16660392696E+03 -0.16570588160E+03  0.45161830736E+03  0.50909174342E+03  0.00000000000E+00 0.  1.
   -9000007    1    1    2    0  501  0.19853436628E+03  0.32598439352E+03  0.61553219090E+03  0.82738237680E+03  0.40000000000E+03 0. -1.
<mgrwt>
<rscale>  2 0.55243400E+03</rscale>
<asrwt>0</asrwt>
<pdfrwt beam="1">  1        2 0.19403542E+00 0.55243400E+03</pdfrwt>
<pdfrwt beam="2">  1       -2 0.38006561E-01 0.55243400E+03</pdfrwt>
<totfact> 0.11765430E+02</totfact>
</mgrwt>
</event>
<event>
 6    1  0.8938744E-004  0.4305958E+03  0.7818608E-02  0.1033672E+00
         -2   -1    0    0    0  501 -0.00000000000E+00  0.00000000000E+00  0.82633364810E+03  0.82633364810E+03  0.00000000000E+00 0.  1.
          2   -1    0    0  502    0  0.00000000000E+00 -0.00000000000E+00 -0.24087860258E+03  0.24087860258E+03  0.00000000000E+00 0. -1.
    9000007    2    1    2  502    0  0.81269201914E+02 -0.13623150143E+03  0.15325974045E+03  0.45732989571E+03  0.40062249102E+03 0.  0.
    9000005    1    3    3    0    0  0.14002832285E+03 -0.24325496452E+03  0.17853144520E+03  0.33264904311E+03  0.99999687468E+00 0.  0.
          4    1    3    3  502    0 -0.58759120934E+02  0.10702346309E+03 -0.25271704755E+02  0.12468085260E+03  0.00000000000E+00 0.  1.
   -9000007    1    1    2    0  501 -0.81269201914E+02  0.13623150143E+03  0.43219530508E+03  0.60988235496E+03  0.40000000000E+03 0.  1.
<mgrwt>
<rscale>  2 0.43059578E+03</rscale>
<asrwt>0</asrwt>
<pdfrwt beam="1">  1        2 0.37058247E-01 0.43059578E+03</pdfrwt>
<pdfrwt beam="2">  1       -2 0.12712825E+00 0.43059578E+03</pdfrwt>
<totfact> 0.66439075E+01</totfact>
</mgrwt>
</event>
<event>
 6    1  0.8938744E-004  0.4212203E+03  0.7818608E-02  0.1036670E+00
          2   -1    0    0  502    0  0.00000000000E+00  0.00000000000E+00  0.16652249307E+04  0.16652249307E+04  0.00000000000E+00 0. -1.
         -2   -1    0    0    0  501 -0.00000000000E+00 -0.00000000000E+00 -0.34933692327E+03  0.34933692327E+03  0.00000000000E+00 0.  1.
    9000007    2    1    2  502    0 -0.11863064995E+03  0.53841161996E+02 -0.18153411829E+03  0.45916958049E+03  0.40113584446E+03 0.  0.
    9000005    1    3    3    0    0 -0.26819706760E+03  0.24565528370E+02 -0.11874460714E+03  0.29433724530E+03  0.99999687468E+00 0.  0.
          4    1    3    3  502    0  0.14956641765E+03  0.29275633626E+02 -0.62789511152E+02  0.16483233519E+03  0.00000000000E+00 0.  1.
   -9000007    1    1    2    0  501  0.11863064995E+03 -0.53841161996E+02  0.14974221258E+04  0.15553922735E+04  0.40000000000E+03 0. -1.
<mgrwt>
<rscale>  2 0.42122025E+03</rscale>
<asrwt>0</asrwt>
<pdfrwt beam="1">  1        2 0.25618845E+00 0.42122025E+03</pdfrwt>
<pdfrwt beam="2">  1       -2 0.53744143E-01 0.42122025E+03</pdfrwt>
<totfact> 0.36108488E+01</totfact>
</mgrwt>
</event>
<event>
 6    1  0.8938744E-004  0.5604990E+03  0.7818608E-02  0.9990926E-01
          2   -1    0    0  502    0  0.00000000000E+00  0.00000000000E+00  0.23575555662E+04  0.23575555662E+04  0.00000000000E+00 0.  1.
         -2   -1    0    0    0  501 -0.00000000000E+00 -0.00000000000E+00 -0.16619441846E+03  0.16619441846E+03  0.00000000000E+00 0. -1.
    9000007    2    1    2  502    0 -0.11926719806E+03  0.37386403779E+03  0.16576731537E+04  0.17499141763E+04  0.40040024565E+03 0.  0.
    9000005    1    3    3    0    0  0.10971632909E+03  0.10968700782E+03  0.21282325388E+03  0.26336979694E+03  0.99999687468E+00 0.  0.
          4    1    3    3  502    0 -0.22898352716E+03  0.26417702996E+03  0.14448498998E+04  0.14865443794E+04  0.00000000000E+00 0.  1.
   -9000007    1    1    2    0  501  0.11926719806E+03 -0.37386403779E+03  0.53368799402E+03  0.77383580833E+03  0.40000000000E+03 0. -1.
<mgrwt>
<rscale>  2 0.56049899E+03</rscale>
<asrwt>0</asrwt>
<pdfrwt beam="1">  1        2 0.36270083E+00 0.56049899E+03</pdfrwt>
<pdfrwt beam="2">  1       -2 0.25568374E-01 0.56049899E+03</pdfrwt>
<totfact> 0.61633509E+01</totfact>
</mgrwt>
</event>
<event>
 6    1  0.8938744E-004  0.4168152E+03  0.7818608E-02  0.1038108E+00
         -2   -1    0    0    0  501 -0.00000000000E+00  0.00000000000E+00  0.58283453315E+03  0.58283453315E+03  0.00000000000E+00 0. -1.
          2   -1    0    0  502    0  0.00000000000E+00 -0.00000000000E+00 -0.31488231371E+03  0.31488231371E+03  0.00000000000E+00 0.  1.
    9000007    2    1    2  502    0  0.83245231668E+02 -0.82295117667E+02  0.30321151081E+02  0.41795567749E+03  0.40008164311E+03 0.  0.
    9000005    1    3    3    0    0  0.40311326986E+02 -0.24125249331E+03 -0.20974799114E+02  0.24549686516E+03  0.99999687468E+00 0.  0.
          4    1    3    3  502    0  0.42933904682E+02  0.15895737565E+03  0.51295950195E+02  0.17245881233E+03  0.00000000000E+00 0.  1.
   -9000007    1    1    2    0  501 -0.83245231668E+02  0.82295117667E+02  0.23763106836E+03  0.47976116937E+03  0.40000000000E+03 0. -1.
<mgrwt>
<rscale>  2 0.41681520E+03</rscale>
<asrwt>0</asrwt>
<pdfrwt beam="1">  1        2 0.48443433E-01 0.41681520E+03</pdfrwt>
<pdfrwt beam="2">  1       -2 0.89666851E-01 0.41681520E+03</pdfrwt>
<totfact> 0.11398537E+02</totfact>
</mgrwt>
</event>
<event>
 6    1  0.8938744E-004  0.4069355E+03  0.7818608E-02  0.1041404E+00
          2   -1    0    0  502    0  0.00000000000E+00  0.00000000000E+00  0.14501813329E+04  0.14501813329E+04  0.00000000000E+00 0.  1.
         -2   -1    0    0    0  501 -0.00000000000E+00 -0.00000000000E+00 -0.11595496409E+03  0.11595496409E+03  0.00000000000E+00 0. -1.
    9000007    2    1    2  502    0  0.64211558438E+02  0.35521713896E+02  0.76413655463E+03  0.86585969977E+03  0.40052893674E+03 0.  0.
    9000005    1    3    3    0    0  0.64933113429E+02  0.21532412370E+03  0.47161682271E+03  0.52249805256E+03  0.99999687468E+00 0.  0.
          4    1    3    3  502    0 -0.72155499084E+00 -0.17980240981E+03  0.29251973191E+03  0.34336164721E+03  0.00000000000E+00 0.  1.
   -9000007    1    1    2    0  501 -0.64211558438E+02 -0.35521713896E+02  0.57008981423E+03  0.70027659727E+03  0.40000000000E+03 0. -1.
<mgrwt>
<rscale>  2 0.40693549E+03</rscale>
<asrwt>0</asrwt>
<pdfrwt beam="1">  1        2 0.22310481E+00 0.40693549E+03</pdfrwt>
<pdfrwt beam="2">  1       -2 0.17839226E-01 0.40693549E+03</pdfrwt>
<totfact> 0.36691353E+02</totfact>
</mgrwt>
</event>
<event>
 6    1  0.8938744E-004  0.4279808E+03  0.7818608E-02  0.1034500E+00
         -2   -1    0    0    0  501 -0.00000000000E+00  0.00000000000E+00  0.74421586671E+02  0.74421586671E+02  0.00000000000E+00 0. -1.
          2   -1    0    0  502    0  0.00000000000E+00 -0.00000000000E+00 -0.25941256451E+04  0.25941256451E+04  0.00000000000E+00 0.  1.
    9000007    2    1    2  502    0 -0.32312607438E+02 -0.14844222688E+03 -0.15621556048E+04  0.16197487572E+04  0.40022081822E+03 0.  0.
    9000005    1    3    3    0    0  0.75770871348E+02  0.10313116138E+03 -0.26857700262E+03  0.29750944141E+03  0.99999687468E+00 0.  0.
          4    1    3    3  502    0 -0.10808347879E+03 -0.25157338827E+03 -0.12935786022E+04  0.13222393158E+04  0.00000000000E+00 0.  1.
   -9000007    1    1    2    0  501  0.32312607438E+02  0.14844222688E+03 -0.95754845354E+03  0.10487984745E+04  0.40000000000E+03 0. -1.
<mgrwt>
<rscale>  2 0.42798076E+03</rscale>
<asrwt>0</asrwt>
<pdfrwt beam="1">  1        2 0.39909625E+00 0.42798076E+03</pdfrwt>
<pdfrwt beam="2">  1       -2 0.11449475E-01 0.42798076E+03</pdfrwt>
<totfact> 0.18362057E+02</totfact>
</mgrwt>
</event>
<event>
 6    1  0.8938744E-004  0.6469487E+03  0.7818608E-02  0.9812522E-01
          1   -1    0    0  502    0  0.00000000000E+00  0.00000000000E+00  0.50268110036E+03  0.50268110036E+03  0.00000000000E+00 0. -1.
         -1   -1    0    0    0  501 -0.00000000000E+00 -0.00000000000E+00 -0.83315617437E+03  0.83315617437E+03  0.00000000000E+00 0.  1.
    9000007    2    1    2  502    0  0.44428435335E+03 -0.24696023058E+03 -0.14833510695E+03  0.66386040778E+03  0.40041153199E+03 0.  0.
    9000005    1    3    3    0    0  0.50582515677E+03 -0.14340599070E+03 -0.10727454387E+03  0.53659406925E+03  0.99999687468E+00 0.  0.
          4    1    3    3  502    0 -0.61540803425E+02 -0.10355423989E+03 -0.41060563072E+02  0.12726633854E+03  0.00000000000E+00 0.  1.
   -9000007    1    1    2    0  501 -0.44428435335E+03  0.24696023058E+03 -0.18213996706E+03  0.67197686695E+03  0.40000000000E+03 0.  1.
<mgrwt>
<rscale>  2 0.64694869E+03</rscale>
<asrwt>0</asrwt>
<pdfrwt beam="1">  1        1 0.77335555E-01 0.64694869E+03</pdfrwt>
<pdfrwt beam="2">  1       -1 0.12817787E+00 0.64694869E+03</pdfrwt>
<totfact> 0.23973359E+01</totfact>
</mgrwt>
</event>
<event>
 6    1  0.8938744E-004  0.4286927E+03  0.7818608E-02  0.1034274E+00
          1   -1    0    0  502    0  0.00000000000E+00  0.00000000000E+00  0.30937948983E+03  0.30937948983E+03  0.00000000000E+00 0. -1.
         -1   -1    0    0    0  501 -0.00000000000E+00 -0.00000000000E+00 -0.60676892981E+03  0.60676892981E+03  0.00000000000E+00 0.  1.
    9000007    2    1    2  502    0  0.14129000791E+03  0.67851408829E+02 -0.81989969490E+02  0.43556168251E+03  0.39802631089E+03 0.  0.
    9000005    1    3    3    0    0  0.80444438906E+02 -0.16221989155E+03 -0.79013579550E+02  0.19756200726E+03  0.99999687468E+00 0.  0.
          4    1    3    3  502    0  0.60845569003E+02  0.23007130038E+03 -0.29763899396E+01  0.23799967525E+03  0.00000000000E+00 0.  1.
   -9000007    1    1    2    0  501 -0.14129000791E+03 -0.67851408829E+02 -0.21539947049E+03  0.48058673713E+03  0.40000000000E+03 0. -1.
<mgrwt>
<rscale>  2 0.42869274E+03</rscale>
<asrwt>0</asrwt>
<pdfrwt beam="1">  1        1 0.47596845E-01 0.42869274E+03</pdfrwt>
<pdfrwt beam="2">  1       -1 0.93349066E-01 0.42869274E+03</pdfrwt>
<totfact> 0.97865700E+01</totfact>
</mgrwt>
</event>
<event>
 6    1  0.8938744E-004  0.4673769E+03  0.7818608E-02  0.1022663E+00
         -1   -1    0    0    0  501 -0.00000000000E+00  0.00000000000E+00  0.15757823772E+03  0.15757823772E+03  0.00000000000E+00 0. -1.
          1   -1    0    0  502    0  0.00000000000E+00 -0.00000000000E+00 -0.15622683091E+04  0.15622683091E+04  0.00000000000E+00 0.  1.
    9000007    2    1    2  502    0 -0.70999144306E+02  0.23123830831E+03 -0.41359226890E+03  0.62404232718E+03  0.39982274509E+03 0.  0.
    9000005    1    3    3    0    0 -0.29796886256E+02 -0.37706757006E+02  0.60591788758E+02  0.77343511771E+02  0.99999687468E+00 0.  0.
          4    1    3    3  502    0 -0.41202258050E+02  0.26894506532E+03 -0.47418405766E+03  0.54669881541E+03  0.00000000000E+00 0.  1.
   -9000007    1    1    2    0  501  0.70999144306E+02 -0.23123830831E+03 -0.99109780244E+03  0.10958042196E+04  0.40000000000E+03 0.  1.
<mgrwt>
<rscale>  2 0.46737687E+03</rscale>
<asrwt>0</asrwt>
<pdfrwt beam="1">  1        1 0.24034896E+00 0.46737687E+03</pdfrwt>
<pdfrwt beam="2">  1       -1 0.24242807E-01 0.46737687E+03</pdfrwt>
<totfact> 0.92645224E+01</totfact>
</mgrwt>
</event>
<event>
 6    1  0.8938744E-004  0.4205594E+03  0.7818608E-02  0.1036884E+00
          1   -1    0    0  502    0  0.00000000000E+00  0.00000000000E+00  0.47237218558E+03  0.47237218558E+03  0.00000000000E+00 0.  1.
         -1   -1    0    0    0  501 -0.00000000000E+00 -0.00000000000E+00 -0.37751054915E+03  0.37751054915E+03  0.00000000000E+00 0. -1.
    9000007    2    1    2  502    0 -0.12477462525E+03 -0.38791719757E+02  0.85791469875E+02  0.42898396715E+03  0.39949163088E+03 0.  0.
    9000005    1    3    3    0    0 -0.12673590612E+03 -0.21129991128E+03  0.67649213092E+02  0.25551332339E+03  0.99999687468E+00 0.  0.
          4    1    3    3  502    0  0.19612808719E+01  0.17250819152E+03  0.18142256783E+02  0.17347064376E+03  0.00000000000E+00 0.  1.
   -9000007    1    1    2    0  501  0.12477462525E+03  0.38791719757E+02  0.90701665559E+01  0.42089876758E+03  0.40000000000E+03 0.  1.
<mgrwt>
<rscale>  2 0.42055935E+03</rscale>
<asrwt>0</asrwt>
<pdfrwt beam="1">  1        1 0.72672644E-01 0.42055935E+03</pdfrwt>
<pdfrwt beam="2">  1       -1 0.58078546E-01 0.42055935E+03</pdfrwt>
<totfact> 0.14974424E+02</totfact>
</mgrwt>
</event>
<event>
 6    1  0.8938744E-004  0.4549323E+03  0.7818608E-02  0.1026261E+00
          1   -1    0    0  502    0  0.00000000000E+00  0.00000000000E+00  0.25347040983E+03  0.25347040983E+03  0.00000000000E+00 0. -1.
         -1   -1    0    0    0  501 -0.00000000000E+00 -0.00000000000E+00 -0.82784665705E+03  0.82784665705E+03  0.00000000000E+00 0.  1.
    9000007    2    1    2  502    0  0.21259180859E+03 -0.59447386882E+02 -0.34918713249E+03  0.57196511953E+03  0.39557954393E+03 0.  0.
    9000005    1    3    3    0    0 -0.67485853761E+02  0.72194855071E+02  0.82460649275E+01  0.99173762342E+02  0.99999687468E+00 0.  0.
          4    1    3    3  502    0  0.28007766235E+03 -0.13164224195E+03 -0.35743319742E+03  0.47279135718E+03  0.00000000000E+00 0.  1.
   -9000007    1    1    2    0  501 -0.21259180859E+03  0.59447386882E+02 -0.22518911473E+03  0.50935194736E+03  0.40000000000E+03 0. -1.
<mgrwt>
<rscale>  2 0.45493229E+03</rscale>
<asrwt>0</asrwt>
<pdfrwt beam="1">  1        1 0.38995447E-01 0.45493229E+03</pdfrwt>
<pdfrwt beam="2">  1       -1 0.12736103E+00 0.45493229E+03</pdfrwt>
<totfact> 0.61047521E+01</totfact>
</mgrwt>
</event>
<event>
 6    1  0.8938744E-004  0.4724638E+03  0.7818608E-02  0.1021227E+00
         -2   -1    0    0    0  501 -0.00000000000E+00  0.00000000000E+00  0.41345391102E+03  0.41345391102E+03  0.00000000000E+00 0. -1.
          2   -1    0    0  502    0  0.00000000000E+00 -0.00000000000E+00 -0.18410814391E+04  0.18410814391E+04  0.00000000000E+00 0.  1.
    9000007    2    1    2  502    0 -0.17197181264E+03  0.17272270111E+03 -0.16632695989E+04  0.17301932658E+04  0.40950646213E+03 0.  0.
    9000005    1    3    3    0    0  0.94519798351E+02 -0.32894033668E+02 -0.15269978850E+03  0.18257665550E+03  0.99999687468E+00 0.  0.
          4    1    3    3  502    0 -0.26649161099E+03  0.20561673478E+03 -0.15105698104E+04  0.15476166103E+04  0.00000000000E+00 0.  1.
   -9000007    1    1    2    0  501  0.17197181264E+03 -0.17272270111E+03  0.23564207085E+03  0.52434208431E+03  0.40000000000E+03 0. -1.
<mgrwt>
<rscale>  2 0.47246380E+03</rscale>
<asrwt>0</asrwt>
<pdfrwt beam="1">  1        2 0.28324329E+00 0.47246380E+03</pdfrwt>
<pdfrwt beam="2">  1       -2 0.63608295E-01 0.47246380E+03</pdfrwt>
<totfact> 0.20226389E+01</totfact>
</mgrwt>
</event>
<event>
 6    1  0.8938744E-004  0.4583613E+03  0.7818608E-02  0.1025258E+00
         -1   -1    0    0    0  501 -0.00000000000E+00  0.00000000000E+00  0.26688308198E+03  0.26688308198E+03  0.00000000000E+00 0. -1.
          1   -1    0    0  502    0  0.00000000000E+00 -0.00000000000E+00 -0.79119842766E+03  0.79119842766E+03  0.00000000000E+00 0.  1.
    9000007    2    1    2  502    0 -0.89075744364E+02 -0.20646532886E+03 -0.22434693701E+03  0.50986306189E+03  0.39883125940E+03 0.  0.
    9000005    1    3    3    0    0 -0.17632781752E+03 -0.25777181223E+03 -0.61785425384E+02  0.31836495598E+03  0.99999687468E+00 0.  0.
          4    1    3    3  502    0  0.87252073153E+02  0.51306483371E+02 -0.16256151163E+03  0.19149810591E+03  0.00000000000E+00 0.  1.
   -9000007    1    1    2    0  501  0.89075744364E+02  0.20646532886E+03 -0.29996840867E+03  0.54821844775E+03  0.40000000000E+03 0. -1.
<mgrwt>
<rscale>  2 0.45836131E+03</rscale>
<asrwt>0</asrwt>
<pdfrwt beam="1">  1        1 0.12172283E+00 0.45836131E+03</pdfrwt>
<pdfrwt beam="2">  1       -1 0.41058936E-01 0.45836131E+03</pdfrwt>
<totfact> 0.13614856E+02</totfact>
</mgrwt>
</event>
<event>
 6    1  0.8938744E-004  0.4230367E+03  0.7818608E-02  0.1036082E+00
          2   -1    0    0  502    0  0.00000000000E+00  0.00000000000E+00  0.88069462449E+03  0.88069462449E+03  0.00000000000E+00 0.  1.
         -2   -1    0    0    0  501 -0.00000000000E+00 -0.00000000000E+00 -0.20433709093E+03  0.20433709093E+03  0.00000000000E+00 0. -1.
    9000007    2    1    2  502    0  0.99817986504E+02  0.92282590238E+02  0.37903643131E+03  0.56842785874E+03  0.40120058255E+03 0.  0.
    9000005    1    3    3    0    0 -0.32607997600E+02 -0.61260256194E+02 -0.55530393497E+02  0.88886023042E+02  0.99999687468E+00 0.  0.
          4    1    3    3  502    0  0.13242598410E+03  0.15354284643E+03  0.43456682481E+03  0.47954183570E+03  0.00000000000E+00 0.  1.
   -9000007    1    1    2    0  501 -0.99817986504E+02 -0.92282590238E+02  0.29732110224E+03  0.51660385667E+03  0.40000000000E+03 0.  1.
<mgrwt>
<rscale>  2 0.42303666E+03</rscale>
<asrwt>0</asrwt>
<pdfrwt beam="1">  1        2 0.13549148E+00 0.42303666E+03</pdfrwt>
<pdfrwt beam="2">  1       -2 0.31436476E-01 0.42303666E+03</pdfrwt>
<totfact> 0.29171567E+02</totfact>
</mgrwt>
</event>
<event>
 6    1  0.8938744E-004  0.4638147E+03  0.7818608E-02  0.1023681E+00
         -2   -1    0    0    0  501 -0.00000000000E+00  0.00000000000E+00  0.12488613394E+03  0.12488613394E+03  0.00000000000E+00 0.  1.
          2   -1    0    0  502    0  0.00000000000E+00 -0.00000000000E+00 -0.17957707572E+04  0.17957707572E+04  0.00000000000E+00 0. -1.
    9000007    2    1    2  502    0 -0.50103519138E+02 -0.23121156375E+03 -0.63998104674E+03  0.78984685673E+03  0.39788587191E+03 0.  0.
    9000005    1    3    3    0    0 -0.19728816766E+03 -0.23876973948E+03 -0.48915051701E+03  0.57896704386E+03  0.99999687468E+00 0.  0.
          4    1    3    3  502    0  0.14718464852E+03  0.75581757235E+01 -0.15083052973E+03  0.21087981288E+03  0.00000000000E+00 0.  1.
   -9000007    1    1    2    0  501  0.50103519138E+02  0.23121156375E+03 -0.10309035766E+04  0.11308100344E+04  0.40000000000E+03 0. -1.
<mgrwt>
<rscale>  2 0.46381470E+03</rscale>
<asrwt>0</asrwt>
<pdfrwt beam="1">  1        2 0.27627242E+00 0.46381470E+03</pdfrwt>
<pdfrwt beam="2">  1       -2 0.19213251E-01 0.46381470E+03</pdfrwt>
<totfact> 0.20866976E+02</totfact>
</mgrwt>
</event>
<event>
 6    1  0.8938744E-004  0.5004839E+03  0.7818608E-02  0.1013653E+00
         -1   -1    0    0    0  501 -0.00000000000E+00  0.00000000000E+00  0.17548962236E+03  0.17548962236E+03  0.00000000000E+00 0. -1.
          1   -1    0    0  502    0  0.00000000000E+00 -0.00000000000E+00 -0.17224010091E+04  0.17224010091E+04  0.00000000000E+00 0.  1.
    9000007    2    1    2  502    0  0.26298153530E+03 -0.14112028568E+03 -0.11680153650E+04  0.12712835630E+04  0.40351924583E+03 0.  0.
    9000005    1    3    3    0    0  0.26464260616E+03 -0.26674601274E+03 -0.89955802546E+03  0.97488193412E+03  0.99999687468E+00 0.  0.
          4    1    3    3  502    0 -0.16610708579E+01  0.12562572706E+03 -0.26845733959E+03  0.29640162893E+03  0.00000000000E+00 0.  1.
   -9000007    1    1    2    0  501 -0.26298153530E+03  0.14112028568E+03 -0.37889602171E+03  0.62660706843E+03  0.40000000000E+03 0.  1.
<mgrwt>
<rscale>  2 0.50048389E+03</rscale>
<asrwt>0</asrwt>
<pdfrwt beam="1">  1        1 0.26498476E+00 0.50048389E+03</pdfrwt>
<pdfrwt beam="2">  1       -1 0.26998404E-01 0.50048389E+03</pdfrwt>
<totfact> 0.60030459E+01</totfact>
</mgrwt>
</event>
<event>
 6    1  0.8938744E-004  0.4074766E+03  0.7818608E-02  0.1041221E+00
          2   -1    0    0  502    0  0.00000000000E+00  0.00000000000E+00  0.15701368997E+04  0.15701368997E+04  0.00000000000E+00 0.  1.
         -2   -1    0    0    0  501 -0.00000000000E+00 -0.00000000000E+00 -0.13808118774E+03  0.13808118774E+03  0.00000000000E+00 0. -1.
    9000007    2    1    2  502    0 -0.70072728002E+02 -0.36230092519E+02  0.30241025983E+03  0.50725112107E+03  0.39953589045E+03 0.  0.
    9000005    1    3    3    0    0  0.70334947280E+02 -0.14893976493E+03  0.11481570591E+02  0.16511476264E+03  0.99999687468E+00 0.  0.
          4    1    3    3  502    0 -0.14040767528E+03  0.11270967241E+03  0.29092868924E+03  0.34213635843E+03  0.00000000000E+00 0.  1.
   -9000007    1    1    2    0  501  0.70072728002E+02  0.36230092519E+02  0.11296454522E+04  0.12009669664E+04  0.40000000000E+03 0.  1.
<mgrwt>
<rscale>  2 0.40747658E+03</rscale>
<asrwt>0</asrwt>
<pdfrwt beam="1">  1        2 0.24155951E+00 0.40747658E+03</pdfrwt>
<pdfrwt beam="2">  1       -2 0.21243261E-01 0.40747658E+03</pdfrwt>
<totfact> 0.23354934E+02</totfact>
</mgrwt>
</event>
<event>
 6    1  0.8938744E-004  0.4219724E+03  0.7818608E-02  0.1036426E+00
         -2   -1    0    0    0  501 -0.00000000000E+00  0.00000000000E+00  0.15362117534E+03  0.15362117534E+03  0.00000000000E+00 0. -1.
          2   -1    0    0  502    0  0.00000000000E+00 -0.00000000000E+00 -0.16429335861E+04  0.16429335861E+04  0.00000000000E+00 0.  1.
    9000007    2    1    2  502    0  0.12665076185E+03  0.45257893662E+02 -0.12320907434E+04  0.13023365115E+04  0.39993011482E+03 0.  0.
    9000005    1    3    3    0    0 -0.40153623995E+02  0.10210117601E+03 -0.77388293511E+02  0.13426433491E+03  0.99999687468E+00 0.  0.
          4    1    3    3  502    0  0.16680438584E+03 -0.56843282351E+02 -0.11547024499E+04  0.11680721766E+04  0.00000000000E+00 0.  1.
   -9000007    1    1    2    0  501 -0.12665076185E+03 -0.45257893662E+02 -0.25722166733E+03  0.49421824992E+03  0.40000000000E+03 0. -1.
<mgrwt>
<rscale>  2 0.42197244E+03</rscale>
<asrwt>0</asrwt>
<pdfrwt beam="1">  1        2 0.25275901E+00 0.42197244E+03</pdfrwt>
<pdfrwt beam="2">  1       -2 0.23634027E-01 0.42197244E+03</pdfrwt>
<totfact> 0.17651902E+02</totfact>
</mgrwt>
</event>
<event>
 6    1  0.8938744E-004  0.4402131E+03  0.7818608E-02  0.1030681E+00
         -2   -1    0    0    0  501 -0.00000000000E+00  0.00000000000E+00  0.16411437700E+03  0.16411437700E+03  0.00000000000E+00 0.  1.
          2   -1    0    0  502    0  0.00000000000E+00 -0.00000000000E+00 -0.13872602511E+04  0.13872602511E+04  0.00000000000E+00 0. -1.
    9000007    2    1    2  502    0  0.18252189009E+03 -0.22803228165E+02 -0.91074875206E+03  0.10115355878E+04  0.39988339356E+03 0.  0.
    9000005    1    3    3    0    0  0.28643095778E+03 -0.85709713604E+02 -0.76774829791E+03  0.82390976297E+03  0.99999687468E+00 0.  0.
          4    1    3    3  502    0 -0.10390906769E+03  0.62906485439E+02 -0.14300045416E+03  0.18762582484E+03  0.00000000000E+00 0.  1.
   -9000007    1    1    2    0  501 -0.18252189009E+03  0.22803228165E+02 -0.31239712206E+03  0.53983904032E+03  0.40000000000E+03 0.  1.
<mgrwt>
<rscale>  2 0.44021311E+03</rscale>
<asrwt>0</asrwt>
<pdfrwt beam="1">  1        2 0.21342465E+00 0.44021311E+03</pdfrwt>
<pdfrwt beam="2">  1       -2 0.25248366E-01 0.44021311E+03</pdfrwt>
<totfact> 0.21585999E+02</totfact>
</mgrwt>
</event>
<event>
 6    1  0.8938744E-004  0.4670338E+03  0.7818608E-02  0.1022761E+00
          2   -1    0    0  502    0  0.00000000000E+00  0.00000000000E+00  0.14344437875E+04  0.14344437875E+04  0.00000000000E+00 0.  1.
         -2   -1    0    0    0  501 -0.00000000000E+00 -0.00000000000E+00 -0.18692454605E+03  0.18692454605E+03  0.00000000000E+00 0. -1.
    9000007    2    1    2  502    0 -0.20862590473E+03 -0.12127959418E+03  0.27351023117E+03  0.54112435175E+03  0.39971766213E+03 0.  0.
    9000005    1    3    3    0    0 -0.65592118265E+02 -0.11617423475E+03 -0.82883741105E+02  0.15706525183E+03  0.99999687468E+00 0.  0.
          4    1    3    3  502    0 -0.14303378646E+03 -0.51053594349E+01  0.35639397227E+03  0.38405909993E+03  0.00000000000E+00 0.  1.
   -9000007    1    1    2    0  501  0.20862590473E+03  0.12127959418E+03  0.97400901024E+03  0.10802439818E+04  0.40000000000E+03 0. -1.
<mgrwt>
<rscale>  2 0.46703381E+03</rscale>
<asrwt>0</asrwt>
<pdfrwt beam="1">  1        2 0.22068365E+00 0.46703381E+03</pdfrwt>
<pdfrwt beam="2">  1       -2 0.28757623E-01 0.46703381E+03</pdfrwt>
<totfact> 0.16008029E+02</totfact>
</mgrwt>
</event>
<event>
 6    1  0.8938744E-004  0.4926806E+03  0.7818608E-02  0.1015707E+00
         -1   -1    0    0    0  501 -0.00000000000E+00  0.00000000000E+00  0.20779717796E+03  0.20779717796E+03  0.00000000000E+00 0.  1.
          1   -1    0    0  502    0  0.00000000000E+00 -0.00000000000E+00 -0.18234980625E+04  0.18234980625E+04  0.00000000000E+00 0. -1.
    9000007    2    1    2  502    0  0.28340021682E+03  0.43466652436E+02 -0.14172959907E+04  0.15006639799E+04  0.40132209326E+03 0.  0.
    9000005    1    3    3    0    0  0.20257530341E+03 -0.30497503476E+02 -0.13631440847E+04  0.13784519023E+04  0.99999687468E+00 0.  0.
          4    1    3    3  502    0  0.80824913409E+02  0.73964155912E+02 -0.54151905972E+02  0.12221207759E+03  0.00000000000E+00 0.  1.
   -9000007    1    1    2    0  501 -0.28340021682E+03 -0.43466652436E+02 -0.19840489382E+03  0.53063126054E+03  0.40000000000E+03 0.  1.
<mgrwt>
<rscale>  2 0.49268059E+03</rscale>
<asrwt>0</asrwt>
<pdfrwt beam="1">  1        1 0.28053816E+00 0.49268059E+03</pdfrwt>
<pdfrwt beam="2">  1       -1 0.31968797E-01 0.49268059E+03</pdfrwt>
<totfact> 0.38485096E+01</totfact>
</mgrwt>
</event>
<event>
 6    1  0.8938744E-004  0.4123966E+03  0.7818608E-02  0.1039570E+00
          1   -1    0    0  502    0  0.00000000000E+00  0.00000000000E+00  0.17161640941E+03  0.17161640941E+03  0.00000000000E+00 0.  1.
         -1   -1    0    0    0  501 -0.00000000000E+00 -0.00000000000E+00 -0.17660889851E+04  0.17660889851E+04  0.00000000000E+00 0. -1.
    9000007    2    1    2  502    0 -0.34317869528E+02  0.98143821037E+02 -0.14381066329E+04  0.14958227926E+04  0.39815224924E+03 0.  0.
    9000005    1    3    3    0    0 -0.19271959452E+01 -0.90146636870E+02 -0.69245632924E+02  0.11369295447E+03  0.99999687468E+00 0.  0.
          4    1    3    3  502    0 -0.32390673583E+02  0.18829045791E+03 -0.13688610000E+04  0.13821298382E+04  0.00000000000E+00 0.  1.
   -9000007    1    1    2    0  501  0.34317869528E+02 -0.98143821037E+02 -0.15636594278E+03  0.44188260187E+03  0.40000000000E+03 0.  1.
<mgrwt>
<rscale>  2 0.41239657E+03</rscale>
<asrwt>0</asrwt>
<pdfrwt beam="1">  1        1 0.26402526E-01 0.41239657E+03</pdfrwt>
<pdfrwt beam="2">  1       -1 0.27170598E+00 0.41239657E+03</pdfrwt>
<totfact> 0.10029027E+01</totfact>
</mgrwt>
</event>
<event>
 6    1  0.8938744E-004  0.6704285E+03  0.7818608E-02  0.9769184E-01
         -2   -1    0    0    0  501 -0.00000000000E+00  0.00000000000E+00  0.51434306122E+03  0.51434306122E+03  0.00000000000E+00 0. -1.
          2   -1    0    0  502    0  0.00000000000E+00 -0.00000000000E+00 -0.89727262867E+03  0.89727262867E+03  0.00000000000E+00 0.  1.
    9000007    2    1    2  502    0 -0.45368793156E+03 -0.28856015265E+03 -0.77581481668E+02  0.67518025183E+03  0.40093613608E+03 0.  0.
    9000005    1    3    3    0    0 -0.21653611919E+03 -0.34912467346E+03  0.20880348965E+02  0.41135497748E+03  0.99999687468E+00 0.  0.
          4    1    3    3  502    0 -0.23715181237E+03  0.60564520810E+02 -0.98461830633E+02  0.26382527435E+03  0.00000000000E+00 0.  1.
   -9000007    1    1    2    0  501  0.45368793156E+03  0.28856015265E+03 -0.30534808578E+03  0.73643543806E+03  0.40000000000E+03 0. -1.
<mgrwt>
<rscale>  2 0.67042855E+03</rscale>
<asrwt>0</asrwt>
<pdfrwt beam="1">  1        2 0.13804194E+00 0.67042855E+03</pdfrwt>
<pdfrwt beam="2">  1       -2 0.79129702E-01 0.67042855E+03</pdfrwt>
<totfact> 0.42638624E+01</totfact>
</mgrwt>
</event>
<event>
 6    1  0.8938744E-004  0.5008078E+03  0.7818608E-02  0.1013568E+00
          1   -1    0    0  502    0  0.00000000000E+00  0.00000000000E+00  0.12910978796E+04  0.12910978796E+04  0.00000000000E+00 0. -1.
         -1   -1    0    0    0  501 -0.00000000000E+00 -0.00000000000E+00 -0.20199021984E+03  0.20199021984E+03  0.00000000000E+00 0.  1.
    9000007    2    1    2  502    0  0.14036788479E+03 -0.26676366437E+03  0.39844733736E+03  0.63993062473E+03  0.39985613426E+03 0.  0.
    9000005    1    3    3    0    0  0.22466843175E+03 -0.17574813047E+03  0.77118632665E+02  0.29548535173E+03  0.99999687468E+00 0.  0.
          4    1    3    3  502    0 -0.84300546961E+02 -0.91015533902E+02  0.32132870470E+03  0.34444527300E+03  0.00000000000E+00 0.  1.
   -9000007    1    1    2    0  501 -0.14036788479E+03  0.26676366437E+03  0.69066032242E+03  0.85315747472E+03  0.40000000000E+03 0.  1.
<mgrwt>
<rscale>  2 0.50080780E+03</rscale>
<asrwt>0</asrwt>
<pdfrwt beam="1">  1        1 0.19863044E+00 0.50080780E+03</pdfrwt>
<pdfrwt beam="2">  1       -1 0.31075419E-01 0.50080780E+03</pdfrwt>
<totfact> 0.92408899E+01</totfact>
</mgrwt>
</event>
<event>
 6    1  0.8938744E-004  0.4083831E+03  0.7818608E-02  0.1040915E+00
          2   -1    0    0  502    0  0.00000000000E+00  0.00000000000E+00  0.44957982778E+03  0.44957982778E+03  0.00000000000E+00 0.  1.
         -2   -1    0    0    0  501 -0.00000000000E+00 -0.00000000000E+00 -0.37130032688E+03  0.37130032688E+03  0.00000000000E+00 0. -1.
    9000007    2    1    2  502    0  0.56613777625E+02  0.63647750047E+02  0.51471698542E+02  0.41103284874E+03  0.39880134289E+03 0.  0.
    9000005    1    3    3    0    0 -0.26079260924E+02  0.21678958903E+03  0.84041499652E+02  0.23396971475E+03  0.99999687468E+00 0.  0.
          4    1    3    3  502    0  0.82693038549E+02 -0.15314183899E+03 -0.32569801111E+02  0.17706313399E+03  0.00000000000E+00 0.  1.
   -9000007    1    1    2    0  501 -0.56613777625E+02 -0.63647750047E+02  0.26807802349E+02  0.40984730592E+03  0.40000000000E+03 0.  1.
<mgrwt>
<rscale>  2 0.40838306E+03</rscale>
<asrwt>0</asrwt>
<pdfrwt beam="1">  1        2 0.69166127E-01 0.40838306E+03</pdfrwt>
<pdfrwt beam="2">  1       -2 0.57123127E-01 0.40838306E+03</pdfrwt>
<totfact> 0.20518059E+02</totfact>
</mgrwt>
</event>
<event>
 6    1  0.8938744E-004  0.6129136E+03  0.7818608E-02  0.9878971E-01
         -2   -1    0    0    0  501 -0.00000000000E+00  0.00000000000E+00  0.89464612203E+03  0.89464612203E+03  0.00000000000E+00 0. -1.
          2   -1    0    0  502    0  0.00000000000E+00 -0.00000000000E+00 -0.49817305750E+03  0.49817305750E+03  0.00000000000E+00 0.  1.
    9000007    2    1    2  502    0 -0.28583067827E+03  0.36608529229E+03 -0.77818782255E+02  0.61778990667E+03  0.39986371182E+03 0.  0.
    9000005    1    3    3    0    0 -0.98304450254E+00 -0.50591624105E+02  0.74953560646E+02  0.90440671455E+02  0.99999687468E+00 0.  0.
          4    1    3    3  502    0 -0.28484763377E+03  0.41667691640E+03 -0.15277234290E+03  0.52734923521E+03  0.00000000000E+00 0.  1.
   -9000007    1    1    2    0  501  0.28583067827E+03 -0.36608529229E+03  0.47429184678E+03  0.77502927286E+03  0.40000000000E+03 0. -1.
<mgrwt>
<rscale>  2 0.61291362E+03</rscale>
<asrwt>0</asrwt>
<pdfrwt beam="1">  1        2 0.76642009E-01 0.61291362E+03</pdfrwt>
<pdfrwt beam="2">  1       -2 0.13763787E+00 0.61291362E+03</pdfrwt>
<totfact> 0.23809432E+01</totfact>
</mgrwt>
</event>
<event>
 6    1  0.8938744E-004  0.4622330E+03  0.7818608E-02  0.1024136E+00
         -2   -1    0    0    0  501 -0.00000000000E+00  0.00000000000E+00  0.14297025970E+03  0.14297025970E+03  0.00000000000E+00 0. -1.
          2   -1    0    0  502    0  0.00000000000E+00 -0.00000000000E+00 -0.27424314050E+04  0.27424314050E+04  0.00000000000E+00 0.  1.
    9000007    2    1    2  502    0  0.18101996146E+03  0.14553997003E+03 -0.32601923041E+03  0.56538264545E+03  0.39927294907E+03 0.  0.
    9000005    1    3    3    0    0  0.10590166118E+03 -0.11514533855E+03 -0.22106769766E+02  0.15799784838E+03  0.99999687468E+00 0.  0.
          4    1    3    3  502    0  0.75118300280E+02  0.26068530858E+03 -0.30391246064E+03  0.40738479707E+03  0.00000000000E+00 0.  1.
   -9000007    1    1    2    0  501 -0.18101996146E+03 -0.14553997003E+03 -0.22734419149E+04  0.23200190193E+04  0.40000000000E+03 0.  1.
<mgrwt>
<rscale>  2 0.46223301E+03</rscale>
<asrwt>0</asrwt>
<pdfrwt beam="1">  1        2 0.42191253E+00 0.46223301E+03</pdfrwt>
<pdfrwt beam="2">  1       -2 0.21995424E-01 0.46223301E+03</pdfrwt>
<totfact> 0.49826393E+01</totfact>
</mgrwt>
</event>
<event>
 6    1  0.8938744E-004  0.4145406E+03  0.7818608E-02  0.1038858E+00
         -3   -1    0    0    0  501 -0.00000000000E+00  0.00000000000E+00  0.24645353509E+04  0.24645353509E+04  0.00000000000E+00 0.  1.
          3   -1    0    0  502    0  0.00000000000E+00 -0.00000000000E+00 -0.78593324221E+02  0.78593324221E+02  0.00000000000E+00 0. -1.
    9000007    2    1    2  502    0 -0.98701029477E+02  0.42547759001E+02  0.16209641632E+04  0.16732187162E+04  0.40072914649E+03 0.  0.
    9000005    1    3    3    0    0  0.13130421043E+03  0.39746373369E+02  0.27046358489E+03  0.30326905648E+03  0.99999687468E+00 0.  0.
          4    1    3    3  502    0 -0.23000523991E+03  0.28013856319E+01  0.13505005783E+04  0.13699496597E+04  0.00000000000E+00 0.  1.
   -9000007    1    1    2    0  501  0.98701029477E+02 -0.42547759001E+02  0.76497786348E+03  0.86990995892E+03  0.40000000000E+03 0. -1.
<mgrwt>
<rscale>  2 0.41454057E+03</rscale>
<asrwt>0</asrwt>
<pdfrwt beam="1">  1        3 0.12091283E-01 0.41454057E+03</pdfrwt>
<pdfrwt beam="2">  1       -3 0.37915923E+00 0.41454057E+03</pdfrwt>
<totfact> 0.21633227E+00</totfact>
</mgrwt>
</event>
<event>
 6    1  0.8938744E-004  0.4071981E+03  0.7818608E-02  0.1041315E+00
          2   -1    0    0  502    0  0.00000000000E+00  0.00000000000E+00  0.64091375083E+03  0.64091375083E+03  0.00000000000E+00 0.  1.
         -2   -1    0    0    0  501 -0.00000000000E+00 -0.00000000000E+00 -0.26579354908E+03  0.26579354908E+03  0.00000000000E+00 0. -1.
    9000007    2    1    2  502    0  0.63575298670E+02 -0.40235291201E+02  0.26165649065E+03  0.48417361959E+03  0.40037392217E+03 0.  0.
    9000005    1    3    3    0    0 -0.28362724833E+02 -0.89231780454E+02 -0.82375715971E+02  0.12471372570E+03  0.99999687468E+00 0.  0.
          4    1    3    3  502    0  0.91938023503E+02  0.48996489253E+02  0.34403220662E+03  0.35945989389E+03  0.00000000000E+00 0.  1.
   -9000007    1    1    2    0  501 -0.63575298670E+02  0.40235291201E+02  0.11346371110E+03  0.42253368031E+03  0.40000000000E+03 0. -1.
<mgrwt>
<rscale>  2 0.40719807E+03</rscale>
<asrwt>0</asrwt>
<pdfrwt beam="1">  1        2 0.98602115E-01 0.40719807E+03</pdfrwt>
<pdfrwt beam="2">  1       -2 0.40891315E-01 0.40719807E+03</pdfrwt>
<totfact> 0.26589770E+02</totfact>
</mgrwt>
</event>
<event>
 6    1  0.8938744E-004  0.4704476E+03  0.7818608E-02  0.1021794E+00
          1   -1    0    0  502    0  0.00000000000E+00  0.00000000000E+00  0.56934168346E+03  0.56934168346E+03  0.00000000000E+00 0.  1.
         -1   -1    0    0    0  501 -0.00000000000E+00 -0.00000000000E+00 -0.41618610962E+03  0.41618610962E+03  0.00000000000E+00 0. -1.
    9000007    2    1    2  502    0 -0.21126954917E+03  0.12736390308E+03 -0.49908254983E+02  0.47357925583E+03  0.40116092958E+03 0.  0.
    9000005    1    3    3    0    0 -0.12578288011E+03  0.51408105210E+02 -0.22594523095E+03  0.26365957899E+03  0.99999687468E+00 0.  0.
          4    1    3    3  502    0 -0.85486669059E+02  0.75955797866E+02  0.17603697597E+03  0.20991967684E+03  0.00000000000E+00 0.  1.
   -9000007    1    1    2    0  501  0.21126954917E+03 -0.12736390308E+03  0.20306382882E+03  0.51194853725E+03  0.40000000000E+03 0.  1.
<mgrwt>
<rscale>  2 0.47044760E+03</rscale>
<asrwt>0</asrwt>
<pdfrwt beam="1">  1        1 0.87591028E-01 0.47044760E+03</pdfrwt>
<pdfrwt beam="2">  1       -1 0.64028632E-01 0.47044760E+03</pdfrwt>
<totfact> 0.95347937E+01</totfact>
</mgrwt>
</event>
<event>
 6    1  0.8938744E-004  0.5954469E+03  0.7818608E-02  0.9914898E-01
         -1   -1    0    0    0  501 -0.00000000000E+00  0.00000000000E+00  0.35606314872E+03  0.35606314872E+03  0.00000000000E+00 0. -1.
          1   -1    0    0  502    0  0.00000000000E+00 -0.00000000000E+00 -0.16635004075E+04  0.16635004075E+04  0.00000000000E+00 0.  1.
    9000007    2    1    2  502    0 -0.25398525393E+03 -0.35346432187E+03 -0.12962840687E+04  0.14283191654E+04  0.41267143734E+03 0.  0.
    9000005    1    3    3    0    0 -0.17834398448E+03 -0.29068009419E+02 -0.15070932279E+03  0.23529943889E+03  0.99999687468E+00 0.  0.
          4    1    3    3  502    0 -0.75641269450E+02 -0.32439631245E+03 -0.11455747460E+04  0.11930197265E+04  0.00000000000E+00 0.  1.
   -9000007    1    1    2    0  501  0.25398525393E+03  0.35346432187E+03 -0.11153190008E+02  0.59124439083E+03  0.40000000000E+03 0. -1.
<mgrwt>
<rscale>  2 0.59544690E+03</rscale>
<asrwt>0</asrwt>
<pdfrwt beam="1">  1        1 0.25592314E+00 0.59544690E+03</pdfrwt>
<pdfrwt beam="2">  1       -1 0.54778946E-01 0.59544690E+03</pdfrwt>
<totfact> 0.18061991E+01</totfact>
</mgrwt>
</event>
<event>
 6    1  0.8938744E-004  0.4848724E+03  0.7818608E-02  0.1017805E+00
          2   -1    0    0  502    0  0.00000000000E+00  0.00000000000E+00  0.15222867657E+04  0.15222867657E+04  0.00000000000E+00 0. -1.
         -2   -1    0    0    0  501 -0.00000000000E+00 -0.00000000000E+00 -0.20081519520E+03  0.20081519520E+03  0.00000000000E+00 0.  1.
    9000007    2    1    2  502    0 -0.27149088743E+03  0.38889316333E+02  0.24658163909E+03  0.54386150810E+03  0.39970383332E+03 0.  0.
    9000005    1    3    3    0    0 -0.16146418094E+03 -0.49539185827E+01  0.35072917993E+03  0.38614398957E+03  0.99999687468E+00 0.  0.
          4    1    3    3  502    0 -0.11002670649E+03  0.43843234916E+02 -0.10414754083E+03  0.15771751853E+03  0.00000000000E+00 0.  1.
   -9000007    1    1    2    0  501  0.27149088743E+03 -0.38889316333E+02  0.10748899314E+04  0.11792404528E+04  0.40000000000E+03 0. -1.
<mgrwt>
<rscale>  2 0.48487238E+03</rscale>
<asrwt>0</asrwt>
<pdfrwt beam="1">  1        2 0.23419796E+00 0.48487238E+03</pdfrwt>
<pdfrwt beam="2">  1       -2 0.30894646E-01 0.48487238E+03</pdfrwt>
<totfact> 0.12524332E+02</totfact>
</mgrwt>
</event>
<event>
 6    1  0.8938744E-004  0.4763185E+03  0.7818608E-02  0.1020152E+00
         -1   -1    0    0    0  501 -0.00000000000E+00  0.00000000000E+00  0.76615825672E+03  0.76615825672E+03  0.00000000000E+00 0.  1.
          1   -1    0    0  502    0  0.00000000000E+00 -0.00000000000E+00 -0.31003430612E+03  0.31003430612E+03  0.00000000000E+00 0. -1.
    9000007    2    1    2  502    0  0.76495595183E+02  0.24740160845E+03  0.11400511953E+03  0.48958841478E+03  0.39955039315E+03 0.  0.
    9000005    1    3    3    0    0 -0.10015791496E+03  0.13648830696E+03 -0.95146995233E+02  0.19420251430E+03  0.99999687468E+00 0.  0.
          4    1    3    3  502    0  0.17665351014E+03  0.11091330149E+03  0.20915211477E+03  0.29538590048E+03  0.00000000000E+00 0.  1.
   -9000007    1    1    2    0  501 -0.76495595183E+02 -0.24740160845E+03  0.34211883106E+03  0.58660414805E+03  0.40000000000E+03 0.  1.
<mgrwt>
<rscale>  2 0.47631851E+03</rscale>
<asrwt>0</asrwt>
<pdfrwt beam="1">  1        1 0.47697586E-01 0.47631851E+03</pdfrwt>
<pdfrwt beam="2">  1       -1 0.11787050E+00 0.47631851E+03</pdfrwt>
<totfact> 0.56821789E+01</totfact>
</mgrwt>
</event>
<event>
 6    1  0.8938744E-004  0.4106095E+03  0.7818608E-02  0.1040167E+00
         -2   -1    0    0    0  501 -0.00000000000E+00  0.00000000000E+00  0.48052726196E+02  0.48052726196E+02  0.00000000000E+00 0.  1.
          2   -1    0    0  502    0  0.00000000000E+00 -0.00000000000E+00 -0.36082559425E+04  0.36082559425E+04  0.00000000000E+00 0. -1.
    9000007    2    1    2  502    0  0.60056153698E+02 -0.74520111393E+02 -0.14735041472E+04  0.15294628836E+04  0.39860036614E+03 0.  0.
    9000005    1    3    3    0    0  0.34410493769E+02  0.13202537186E+03 -0.10363284773E+04  0.10452714929E+04  0.99999687468E+00 0.  0.
          4    1    3    3  502    0  0.25645659930E+02 -0.20654548326E+03 -0.43717566993E+03  0.48419139078E+03  0.00000000000E+00 0.  1.
   -9000007    1    1    2    0  501 -0.60056153698E+02  0.74520111393E+02 -0.20866990690E+04  0.21268457850E+04  0.40000000000E+03 0. -1.
<mgrwt>
<rscale>  2 0.41060953E+03</rscale>
<asrwt>0</asrwt>
<pdfrwt beam="1">  1        2 0.55511642E+00 0.41060953E+03</pdfrwt>
<pdfrwt beam="2">  1       -2 0.73927255E-02 0.41060953E+03</pdfrwt>
<totfact> 0.87769354E+01</totfact>
</mgrwt>
</event>
<event>
 6    1  0.8938744E-004  0.4554519E+03  0.7818608E-02  0.1026109E+00
         -4   -1    0    0    0  501 -0.00000000000E+00  0.00000000000E+00  0.32663836685E+03  0.32663836685E+03  0.00000000000E+00 0. -1.
          4   -1    0    0  502    0  0.00000000000E+00 -0.00000000000E+00 -0.69208674387E+03  0.69208674387E+03  0.00000000000E+00 0.  1.
    9000007    2    1    2  502    0  0.20574172792E+03  0.68253674689E+02 -0.36699178634E+02  0.45741925991E+03  0.40112009038E+03 0.  0.
    9000005    1    3    3    0    0  0.12130001144E+03  0.16893666993E+02  0.18088042251E+03  0.21844407980E+03  0.99999687468E+00 0.  0.
          4    1    3    3  502    0  0.84441716481E+02  0.51360007696E+02 -0.21757960114E+03  0.23897518011E+03  0.00000000000E+00 0.  1.
   -9000007    1    1    2    0  501 -0.20574172792E+03 -0.68253674689E+02 -0.32874919839E+03  0.56130585081E+03  0.40000000000E+03 0. -1.
<mgrwt>
<rscale>  2 0.45545186E+03</rscale>
<asrwt>0</asrwt>
<pdfrwt beam="1">  1        4 0.10647488E+00 0.45545186E+03</pdfrwt>
<pdfrwt beam="2">  1       -4 0.50252057E-01 0.45545186E+03</pdfrwt>
<totfact> 0.52614758E+00</totfact>
</mgrwt>
</event>
<event>
 6    1  0.8938744E-004  0.4672867E+03  0.7818608E-02  0.1022689E+00
         -1   -1    0    0    0  501 -0.00000000000E+00  0.00000000000E+00  0.49924913950E+03  0.49924913950E+03  0.00000000000E+00 0.  1.
          1   -1    0    0  502    0  0.00000000000E+00 -0.00000000000E+00 -0.58388666768E+03  0.58388666768E+03  0.00000000000E+00 0. -1.
    9000007    2    1    2  502    0  0.11904826024E+02 -0.24153769158E+03  0.22897881810E+03  0.52025269854E+03  0.39968661457E+03 0.  0.
    9000005    1    3    3    0    0 -0.24375270832E+02 -0.30687372539E+03  0.31912305972E+02  0.30949157086E+03  0.99999687468E+00 0.  0.
          4    1    3    3  502    0  0.36280096856E+02  0.65336033811E+02  0.19706651212E+03  0.21076112768E+03  0.00000000000E+00 0.  1.
   -9000007    1    1    2    0  501 -0.11904826024E+02  0.24153769158E+03 -0.31361634627E+03  0.56288310863E+03  0.40000000000E+03 0. -1.
<mgrwt>
<rscale>  2 0.46728668E+03</rscale>
<asrwt>0</asrwt>
<pdfrwt beam="1">  1        1 0.89828719E-01 0.46728668E+03</pdfrwt>
<pdfrwt beam="2">  1       -1 0.76807559E-01 0.46728668E+03</pdfrwt>
<totfact> 0.63634852E+01</totfact>
</mgrwt>
</event>
<event>
 6    1  0.8938744E-004  0.5636790E+03  0.7818608E-02  0.9983765E-01
          2   -1    0    0  502    0  0.00000000000E+00  0.00000000000E+00  0.66720740789E+03  0.66720740789E+03  0.00000000000E+00 0. -1.
         -2   -1    0    0    0  501 -0.00000000000E+00 -0.00000000000E+00 -0.48063321314E+03  0.48063321314E+03  0.00000000000E+00 0.  1.
    9000007    2    1    2  502    0 -0.24777025233E+03  0.31024037439E+03  0.14832860845E+03  0.58294955833E+03  0.40023695936E+03 0.  0.
    9000005    1    3    3    0    0 -0.14405982855E+03 -0.75797847887E+02  0.60663632759E+02  0.17372283753E+03  0.99999687468E+00 0.  0.
          4    1    3    3  502    0 -0.10371042378E+03  0.38603822227E+03  0.87664975694E+02  0.40922672080E+03  0.00000000000E+00 0.  1.
   -9000007    1    1    2    0  501  0.24777025233E+03 -0.31024037439E+03  0.38245586295E+02  0.56489106269E+03  0.40000000000E+03 0. -1.
<mgrwt>
<rscale>  2 0.56367897E+03</rscale>
<asrwt>0</asrwt>
<pdfrwt beam="1">  1        2 0.10264729E+00 0.56367897E+03</pdfrwt>
<pdfrwt beam="2">  1       -2 0.73943571E-01 0.56367897E+03</pdfrwt>
<totfact> 0.73636533E+01</totfact>
</mgrwt>
</event>
<event>
 6    1  0.8938744E-004  0.4579574E+03  0.7818608E-02  0.1025375E+00
          1   -1    0    0  502    0  0.00000000000E+00  0.00000000000E+00  0.73965448545E+03  0.73965448545E+03  0.00000000000E+00 0. -1.
         -1   -1    0    0    0  501 -0.00000000000E+00 -0.00000000000E+00 -0.43066298345E+03  0.43066298345E+03  0.00000000000E+00 0.  1.
    9000007    2    1    2  502    0 -0.21688663300E+03  0.49961935471E+02 -0.18746802927E+03  0.49503377091E+03  0.40047242823E+03 0.  0.
    9000005    1    3    3    0    0  0.89596902588E+02  0.10040381502E+03 -0.47202860379E+01  0.13465441737E+03  0.99999687468E+00 0.  0.
          4    1    3    3  502    0 -0.30648353559E+03 -0.50441879549E+02 -0.18274774323E+03  0.36037935354E+03  0.00000000000E+00 0.  1.
   -9000007    1    1    2    0  501  0.21688663300E+03 -0.49961935471E+02  0.49645953127E+03  0.67528369798E+03  0.40000000000E+03 0. -1.
<mgrwt>
<rscale>  2 0.45795743E+03</rscale>
<asrwt>0</asrwt>
<pdfrwt beam="1">  1        1 0.11379300E+00 0.45795743E+03</pdfrwt>
<pdfrwt beam="2">  1       -1 0.66255844E-01 0.45795743E+03</pdfrwt>
<totfact> 0.60958681E+01</totfact>
</mgrwt>
</event>
<event>
 6    1  0.8938744E-004  0.4149169E+03  0.7818608E-02  0.1038733E+00
         -1   -1    0    0    0  501 -0.00000000000E+00  0.00000000000E+00  0.39582118166E+03  0.39582118166E+03  0.00000000000E+00 0. -1.
          1   -1    0    0  502    0  0.00000000000E+00 -0.00000000000E+00 -0.44322124102E+03  0.44322124102E+03  0.00000000000E+00 0.  1.
    9000007    2    1    2  502    0 -0.57446307360E+02  0.94919125188E+02  0.33675430557E+02  0.41609685453E+03  0.39961586451E+03 0.  0.
    9000005    1    3    3    0    0 -0.50246741025E+02 -0.93400540207E+02  0.15801974688E+03  0.19031457194E+03  0.99999687468E+00 0.  0.
          4    1    3    3  502    0 -0.71995663359E+01  0.18831966539E+03 -0.12434431632E+03  0.22578228259E+03  0.00000000000E+00 0.  1.
   -9000007    1    1    2    0  501  0.57446307360E+02 -0.94919125188E+02 -0.81075489914E+02  0.42294556815E+03  0.40000000000E+03 0.  1.
<mgrwt>
<rscale>  2 0.41491694E+03</rscale>
<asrwt>0</asrwt>
<pdfrwt beam="1">  1        1 0.68187883E-01 0.41491694E+03</pdfrwt>
<pdfrwt beam="2">  1       -1 0.60895567E-01 0.41491694E+03</pdfrwt>
<totfact> 0.14872935E+02</totfact>
</mgrwt>
</event>
<event>
 6    1  0.8938744E-004  0.4394758E+03  0.7818608E-02  0.1030908E+00
          2   -1    0    0  502    0  0.00000000000E+00  0.00000000000E+00  0.17027606788E+03  0.17027606788E+03  0.00000000000E+00 0. -1.
         -2   -1    0    0    0  501 -0.00000000000E+00 -0.00000000000E+00 -0.11348188886E+04  0.11348188886E+04  0.00000000000E+00 0.  1.
    9000007    2    1    2  502    0 -0.40846583034E+02  0.18216005040E+03 -0.46608391508E+03  0.63927815892E+03  0.39571659211E+03 0.  0.
    9000005    1    3    3    0    0  0.14777074970E+03 -0.27757647938E+02 -0.11779012104E+03  0.19100312588E+03  0.99999687468E+00 0.  0.
          4    1    3    3  502    0 -0.18861733274E+03  0.20991769834E+03 -0.34829379404E+03  0.44827503305E+03  0.00000000000E+00 0.  1.
   -9000007    1    1    2    0  501  0.40846583034E+02 -0.18216005040E+03 -0.49845890564E+03  0.66581679756E+03  0.40000000000E+03 0.  1.
<mgrwt>
<rscale>  2 0.43947585E+03</rscale>
<asrwt>0</asrwt>
<pdfrwt beam="1">  1        2 0.26196317E-01 0.43947585E+03</pdfrwt>
<pdfrwt beam="2">  1       -2 0.17458753E+00 0.43947585E+03</pdfrwt>
<totfact> 0.42595118E+01</totfact>
</mgrwt>
</event>
<event>
 6    1  0.8938744E-004  0.5772853E+03  0.7818608E-02  0.9953686E-01
          2   -1    0    0  502    0  0.00000000000E+00  0.00000000000E+00  0.41113002179E+04  0.41113002179E+04  0.00000000000E+00 0.  1.
         -2   -1    0    0    0  501 -0.00000000000E+00 -0.00000000000E+00 -0.82855048902E+02  0.82855048902E+02  0.00000000000E+00 0. -1.
    9000007    2    1    2  502    0  0.87240879409E+02  0.40579265805E+03  0.23258531059E+04  0.23966296381E+04  0.40244539984E+03 0.  0.
    9000005    1    3    3    0    0 -0.86402378444E+02  0.75460142361E+02  0.14914407424E+03  0.18816099214E+03  0.99999687468E+00 0.  0.
          4    1    3    3  502    0  0.17364325785E+03  0.33033251568E+03  0.21767090316E+04  0.22084686460E+04  0.00000000000E+00 0.  1.
   -9000007    1    1    2    0  501 -0.87240879409E+02 -0.40579265805E+03  0.17025920632E+04  0.17975256288E+04  0.40000000000E+03 0. -1.
<mgrwt>
<rscale>  2 0.57728533E+03</rscale>
<asrwt>0</asrwt>
<pdfrwt beam="1">  1        2 0.63250757E+00 0.57728533E+03</pdfrwt>
<pdfrwt beam="2">  1       -2 0.12746934E-01 0.57728533E+03</pdfrwt>
<totfact> 0.14674465E+01</totfact>
</mgrwt>
</event>
<event>
 6    1  0.8938744E-004  0.4283312E+03  0.7818608E-02  0.1034388E+00
         -2   -1    0    0    0  501 -0.00000000000E+00  0.00000000000E+00  0.35325524663E+03  0.35325524663E+03  0.00000000000E+00 0.  1.
          2   -1    0    0  502    0  0.00000000000E+00 -0.00000000000E+00 -0.56718297603E+03  0.56718297603E+03  0.00000000000E+00 0. -1.
    9000007    2    1    2  502    0  0.11470665706E+03  0.99930958735E+02 -0.24068114554E+03  0.49164974455E+03  0.40080948567E+03 0.  0.
    9000005    1    3    3    0    0 -0.10086515785E+03 -0.13091453041E+02 -0.22596349896E+03  0.24780167285E+03  0.99999687468E+00 0.  0.
          4    1    3    3  502    0  0.21557181491E+03  0.11302241178E+03 -0.14717646580E+02  0.24384807169E+03  0.00000000000E+00 0.  1.
   -9000007    1    1    2    0  501 -0.11470665706E+03 -0.99930958735E+02  0.26753416144E+02  0.42878847811E+03  0.40000000000E+03 0.  1.
<mgrwt>
<rscale>  2 0.42833124E+03</rscale>
<asrwt>0</asrwt>
<pdfrwt beam="1">  1        2 0.87258920E-01 0.42833124E+03</pdfrwt>
<pdfrwt beam="2">  1       -2 0.54346961E-01 0.42833124E+03</pdfrwt>
<totfact> 0.17405283E+02</totfact>
</mgrwt>
</event>
<event>
 6    1  0.8938744E-004  0.4454221E+03  0.7818608E-02  0.1029096E+00
         -1   -1    0    0    0  501 -0.00000000000E+00  0.00000000000E+00  0.45348348132E+03  0.45348348132E+03  0.00000000000E+00 0.  1.
          1   -1    0    0  502    0  0.00000000000E+00 -0.00000000000E+00 -0.49465003044E+03  0.49465003044E+03  0.00000000000E+00 0. -1.
    9000007    2    1    2  502    0 -0.38293762358E+02 -0.19181374351E+03 -0.18172217769E+03  0.48121295197E+03  0.40035488113E+03 0.  0.
    9000005    1    3    3    0    0  0.31352749065E+02 -0.30179555419E+03 -0.17629750261E+03  0.35092073296E+03  0.99999687468E+00 0.  0.
          4    1    3    3  502    0 -0.69646511423E+02  0.10998181068E+03 -0.54246750820E+01  0.13029221901E+03  0.00000000000E+00 0.  1.
   -9000007    1    1    2    0  501  0.38293762358E+02  0.19181374351E+03  0.14055562857E+03  0.46692055979E+03  0.40000000000E+03 0.  1.
<mgrwt>
<rscale>  2 0.44542215E+03</rscale>
<asrwt>0</asrwt>
<pdfrwt beam="1">  1        1 0.76100005E-01 0.44542215E+03</pdfrwt>
<pdfrwt beam="2">  1       -1 0.69766689E-01 0.44542215E+03</pdfrwt>
<totfact> 0.97676997E+01</totfact>
</mgrwt>
</event>
<event>
 6    1  0.8938744E-004  0.4514513E+03  0.7818608E-02  0.1027290E+00
          1   -1    0    0  502    0  0.00000000000E+00  0.00000000000E+00  0.32005163180E+03  0.32005163180E+03  0.00000000000E+00 0.  1.
         -1   -1    0    0    0  501 -0.00000000000E+00 -0.00000000000E+00 -0.67206994524E+03  0.67206994524E+03  0.00000000000E+00 0. -1.
    9000007    2    1    2  502    0  0.21101327559E+03 -0.13671746927E+02 -0.62002076391E+02  0.45469908319E+03  0.39773543926E+03 0.  0.
    9000005    1    3    3    0    0  0.12363620002E+02  0.15669624724E+02 -0.20640083443E+03  0.20736610303E+03  0.99999687468E+00 0.  0.
          4    1    3    3  502    0  0.19864965558E+03 -0.29341371651E+02  0.14439875804E+03  0.24733298016E+03  0.00000000000E+00 0.  1.
   -9000007    1    1    2    0  501 -0.21101327559E+03  0.13671746927E+02 -0.29001623705E+03  0.53742249384E+03  0.40000000000E+03 0. -1.
<mgrwt>
<rscale>  2 0.45145128E+03</rscale>
<asrwt>0</asrwt>
<pdfrwt beam="1">  1        1 0.49238712E-01 0.45145128E+03</pdfrwt>
<pdfrwt beam="2">  1       -1 0.10339538E+00 0.45145128E+03</pdfrwt>
<totfact> 0.74314690E+01</totfact>
</mgrwt>
</event>
<event>
 6    1  0.8938744E-004  0.5589996E+03  0.7818608E-02  0.9994321E-01
          2   -1    0    0  502    0  0.00000000000E+00  0.00000000000E+00  0.16967651994E+04  0.16967651994E+04  0.00000000000E+00 0. -1.
         -2   -1    0    0    0  501 -0.00000000000E+00 -0.00000000000E+00 -0.35898678169E+03  0.35898678169E+03  0.00000000000E+00 0.  1.
    9000007    2    1    2  502    0 -0.91760332816E+02  0.38049903951E+03  0.13857967013E+04  0.14940534558E+04  0.39820064516E+03 0.  0.
    9000005    1    3    3    0    0  0.63057747224E+02  0.35269565765E+03  0.11907415522E+04  0.12434777644E+04  0.99999687468E+00 0.  0.
          4    1    3    3  502    0 -0.15481808004E+03  0.27803381866E+02  0.19505514909E+03  0.25057569144E+03  0.00000000000E+00 0.  1.
   -9000007    1    1    2    0  501  0.91760332816E+02 -0.38049903951E+03 -0.48018283554E+02  0.56169852528E+03  0.40000000000E+03 0.  1.
<mgrwt>
<rscale>  2 0.55899958E+03</rscale>
<asrwt>0</asrwt>
<pdfrwt beam="1">  1        2 0.26104079E+00 0.55899958E+03</pdfrwt>
<pdfrwt beam="2">  1       -2 0.55228737E-01 0.55899958E+03</pdfrwt>
<totfact> 0.32000829E+01</totfact>
</mgrwt>
</event>
<event>
 6    1  0.8938744E-004  0.4644826E+03  0.7818608E-02  0.1023489E+00
         -1   -1    0    0    0  501 -0.00000000000E+00  0.00000000000E+00  0.28296988075E+03  0.28296988075E+03  0.00000000000E+00 0.  1.
          1   -1    0    0  502    0  0.00000000000E+00 -0.00000000000E+00 -0.11026594909E+04  0.11026594909E+04  0.00000000000E+00 0. -1.
    9000007    2    1    2  502    0  0.22127265329E+03 -0.58564388763E+02 -0.27255574876E+02  0.46892708902E+03  0.40836059277E+03 0.  0.
    9000005    1    3    3    0    0  0.10706543978E+03  0.46868644292E+02 -0.20304116139E+03  0.23427844849E+03  0.99999687468E+00 0.  0.
          4    1    3    3  502    0  0.11420721351E+03 -0.10543303306E+03  0.17578558652E+03  0.23464864053E+03  0.00000000000E+00 0.  1.
   -9000007    1    1    2    0  501 -0.22127265329E+03  0.58564388763E+02 -0.79243403524E+03  0.91670228260E+03  0.40000000000E+03 0. -1.
<mgrwt>
<rscale>  2 0.46448261E+03</rscale>
<asrwt>0</asrwt>
<pdfrwt beam="1">  1        1 0.16963992E+00 0.46448261E+03</pdfrwt>
<pdfrwt beam="2">  1       -1 0.43533827E-01 0.46448261E+03</pdfrwt>
<totfact> 0.69529344E+01</totfact>
</mgrwt>
</event>
<event>
 6    1  0.8938744E-004  0.4983495E+03  0.7818608E-02  0.1014211E+00
         -2   -1    0    0    0  501 -0.00000000000E+00  0.00000000000E+00  0.13101980427E+03  0.13101980427E+03  0.00000000000E+00 0.  1.
          2   -1    0    0  502    0  0.00000000000E+00 -0.00000000000E+00 -0.20512320943E+04  0.20512320943E+04  0.00000000000E+00 0. -1.
    9000007    2    1    2  502    0  0.21107246482E+03  0.20912510763E+03 -0.65961040728E+03  0.82674387468E+03  0.40016827570E+03 0.  0.
    9000005    1    3    3    0    0  0.32305423799E+02 -0.65136946252E+02 -0.40643888194E+03  0.41289227036E+03  0.99999687468E+00 0.  0.
          4    1    3    3  502    0  0.17876704102E+03  0.27426205389E+03 -0.25317152534E+03  0.41385160432E+03  0.00000000000E+00 0.  1.
   -9000007    1    1    2    0  501 -0.21107246482E+03 -0.20912510763E+03 -0.12606018828E+04  0.13555080239E+04  0.40000000000E+03 0. -1.
<mgrwt>
<rscale>  2 0.49834949E+03</rscale>
<asrwt>0</asrwt>
<pdfrwt beam="1">  1        2 0.31557418E+00 0.49834949E+03</pdfrwt>
<pdfrwt beam="2">  1       -2 0.20156892E-01 0.49834949E+03</pdfrwt>
<totfact> 0.13931560E+02</totfact>
</mgrwt>
</event>
<event>
 6    1  0.8938744E-004  0.5048236E+03  0.7818608E-02  0.1012527E+00
         -2   -1    0    0    0  501 -0.00000000000E+00  0.00000000000E+00  0.23341074685E+03  0.23341074685E+03  0.00000000000E+00 0. -1.
          2   -1    0    0  502    0  0.00000000000E+00 -0.00000000000E+00 -0.18567399620E+04  0.18567399620E+04  0.00000000000E+00 0.  1.
    9000007    2    1    2  502    0  0.24676170165E+03  0.18327593416E+03 -0.14123572133E+03  0.52455736131E+03  0.40091332090E+03 0.  0.
    9000005    1    3    3    0    0  0.31418248662E+03  0.24260055941E+03 -0.16772446137E+03  0.43092709507E+03  0.99999687468E+00 0.  0.
          4    1    3    3  502    0 -0.67420784966E+02 -0.59324625254E+02  0.26488740046E+02  0.93630266240E+02  0.00000000000E+00 0.  1.
   -9000007    1    1    2    0  501 -0.24676170165E+03 -0.18327593416E+03 -0.14820934938E+04  0.15655933476E+04  0.40000000000E+03 0.  1.
<mgrwt>
<rscale>  2 0.50482362E+03</rscale>
<asrwt>0</asrwt>
<pdfrwt beam="1">  1        2 0.28565229E+00 0.50482362E+03</pdfrwt>
<pdfrwt beam="2">  1       -2 0.35909347E-01 0.50482362E+03</pdfrwt>
<totfact> 0.62100775E+01</totfact>
</mgrwt>
</event>
<event>
 6    1  0.8938744E-004  0.4594382E+03  0.7818608E-02  0.1024944E+00
         -2   -1    0    0    0  501 -0.00000000000E+00  0.00000000000E+00  0.24188380429E+03  0.24188380429E+03  0.00000000000E+00 0. -1.
          2   -1    0    0  502    0  0.00000000000E+00 -0.00000000000E+00 -0.93891915239E+03  0.93891915239E+03  0.00000000000E+00 0.  1.
    9000007    2    1    2  502    0 -0.20915486346E+03 -0.66360690478E+02 -0.50756482749E+03  0.68679022776E+03  0.40731961000E+03 0.  0.
    9000005    1    3    3    0    0 -0.17512536777E+03 -0.22861657684E+03 -0.38415081308E+03  0.48011173786E+03  0.99999687468E+00 0.  0.
          4    1    3    3  502    0 -0.34029495691E+02  0.16225588636E+03 -0.12341401441E+03  0.20667848991E+03  0.00000000000E+00 0.  1.
   -9000007    1    1    2    0  501  0.20915486346E+03  0.66360690478E+02 -0.18947052061E+03  0.49401272892E+03  0.40000000000E+03 0. -1.
<mgrwt>
<rscale>  2 0.45943819E+03</rscale>
<asrwt>0</asrwt>
<pdfrwt beam="1">  1        2 0.14444910E+00 0.45943819E+03</pdfrwt>
<pdfrwt beam="2">  1       -2 0.37212893E-01 0.45943819E+03</pdfrwt>
<totfact> 0.19390403E+02</totfact>
</mgrwt>
</event>
<event>
 6    1  0.8938744E-004  0.4271322E+03  0.7818608E-02  0.1034770E+00
         -1   -1    0    0    0  501 -0.00000000000E+00  0.00000000000E+00  0.88887646773E+03  0.88887646773E+03  0.00000000000E+00 0. -1.
          1   -1    0    0  502    0  0.00000000000E+00 -0.00000000000E+00 -0.24850787515E+03  0.24850787515E+03  0.00000000000E+00 0.  1.
    9000007    2    1    2  502    0  0.15029897387E+03  0.89911063317E+01  0.82750706655E+02  0.43481169307E+03  0.39942822564E+03 0.  0.
    9000005    1    3    3    0    0  0.84719577957E+02  0.18462306004E+03  0.13038346701E+03  0.24137922374E+03  0.99999687468E+00 0.  0.
          4    1    3    3  502    0  0.65579395915E+02 -0.17563195371E+03 -0.47632760358E+02  0.19343246933E+03  0.00000000000E+00 0.  1.
   -9000007    1    1    2    0  501 -0.15029897387E+03 -0.89911063317E+01  0.55761788592E+03  0.70257264980E+03  0.40000000000E+03 0. -1.
<mgrwt>
<rscale>  2 0.42713222E+03</rscale>
<asrwt>0</asrwt>
<pdfrwt beam="1">  1        1 0.38231981E-01 0.42713222E+03</pdfrwt>
<pdfrwt beam="2">  1       -1 0.13675022E+00 0.42713222E+03</pdfrwt>
<totfact> 0.52571859E+01</totfact>
</mgrwt>
</event>
<event>
 6    1  0.8938744E-004  0.6694753E+03  0.7818608E-02  0.9770906E-01
          2   -1    0    0  502    0  0.00000000000E+00  0.00000000000E+00  0.51249421621E+03  0.51249421621E+03  0.00000000000E+00 0.  1.
         -2   -1    0    0    0  501 -0.00000000000E+00 -0.00000000000E+00 -0.92673673298E+03  0.92673673298E+03  0.00000000000E+00 0. -1.
    9000007    2    1    2  502    0  0.37919211128E+03 -0.38040530244E+03 -0.36275290634E+02  0.67023545154E+03  0.39925532232E+03 0.  0.
    9000005    1    3    3    0    0  0.20129533082E+03 -0.12512766663E+03 -0.20756199642E+03  0.31505511505E+03  0.99999687468E+00 0.  0.
          4    1    3    3  502    0  0.17789678046E+03 -0.25527763581E+03  0.17128670579E+03  0.35518033649E+03  0.00000000000E+00 0.  1.
   -9000007    1    1    2    0  501 -0.37919211128E+03  0.38040530244E+03 -0.37796722613E+03  0.76899549766E+03  0.40000000000E+03 0.  1.
<mgrwt>
<rscale>  2 0.66947529E+03</rscale>
<asrwt>0</asrwt>
<pdfrwt beam="1">  1        2 0.78845264E-01 0.66947529E+03</pdfrwt>
<pdfrwt beam="2">  1       -2 0.14257488E+00 0.66947529E+03</pdfrwt>
<totfact> 0.20916351E+01</totfact>
</mgrwt>
</event>
<event>
 6    1  0.8938744E-004  0.5195715E+03  0.7818608E-02  0.1008793E+00
          2   -1    0    0  502    0  0.00000000000E+00  0.00000000000E+00  0.99563266144E+03  0.99563266144E+03  0.00000000000E+00 0. -1.
         -2   -1    0    0    0  501 -0.00000000000E+00 -0.00000000000E+00 -0.38634311843E+03  0.38634311843E+03  0.00000000000E+00 0.  1.
    9000007    2    1    2  502    0 -0.30178555672E+03  0.13712979000E+03 -0.72652858608E+02  0.52469837980E+03  0.40018851851E+03 0.  0.
    9000005    1    3    3    0    0 -0.46184261715E+02 -0.38735073337E+02  0.13738495258E+03  0.15003005408E+03  0.99999687468E+00 0.  0.
          4    1    3    3  502    0 -0.25560129501E+03  0.17586486334E+03 -0.21003781119E+03  0.37466832572E+03  0.00000000000E+00 0.  1.
   -9000007    1    1    2    0  501  0.30178555672E+03 -0.13712979000E+03  0.68194240162E+03  0.85727740008E+03  0.40000000000E+03 0. -1.
<mgrwt>
<rscale>  2 0.51957147E+03</rscale>
<asrwt>0</asrwt>
<pdfrwt beam="1">  1        2 0.15317425E+00 0.51957147E+03</pdfrwt>
<pdfrwt beam="2">  1       -2 0.59437403E-01 0.51957147E+03</pdfrwt>
<totfact> 0.69496303E+01</totfact>
</mgrwt>
</event>
<event>
 6    1  0.8938744E-004  0.6693071E+03  0.7818608E-02  0.9771210E-01
          2   -1    0    0  502    0  0.00000000000E+00  0.00000000000E+00  0.14295382168E+04  0.14295382168E+04  0.00000000000E+00 0. -1.
         -2   -1    0    0    0  501 -0.00000000000E+00 -0.00000000000E+00 -0.32479855954E+03  0.32479855954E+03  0.00000000000E+00 0.  1.
    9000007    2    1    2  502    0 -0.50800805190E+01  0.53620971242E+03  0.71717483878E+03  0.98119180195E+03  0.40106226439E+03 0.  0.
    9000005    1    3    3    0    0 -0.34801501596E+02  0.55895121760E+03  0.74680052009E+03  0.93346109987E+03  0.99999687468E+00 0.  0.
          4    1    3    3  502    0  0.29721421077E+02 -0.22741505175E+02 -0.29625681307E+02  0.47730702084E+02  0.00000000000E+00 0.  1.
   -9000007    1    1    2    0  501  0.50800805190E+01 -0.53620971242E+03  0.38756481851E+03  0.77314497441E+03  0.40000000000E+03 0.  1.
<mgrwt>
<rscale>  2 0.66930705E+03</rscale>
<asrwt>0</asrwt>
<pdfrwt beam="1">  1        2 0.21992895E+00 0.66930705E+03</pdfrwt>
<pdfrwt beam="2">  1       -2 0.49969010E-01 0.66930705E+03</pdfrwt>
<totfact> 0.54281803E+01</totfact>
</mgrwt>
</event>
<event>
 6    1  0.8938744E-004  0.4684194E+03  0.7818608E-02  0.1022367E+00
          2   -1    0    0  502    0  0.00000000000E+00  0.00000000000E+00  0.12432318971E+04  0.12432318971E+04  0.00000000000E+00 0. -1.
         -2   -1    0    0    0  501 -0.00000000000E+00 -0.00000000000E+00 -0.21282033313E+03  0.21282033313E+03  0.00000000000E+00 0.  1.
    9000007    2    1    2  502    0  0.95960791196E+02 -0.22417591240E+03  0.21435793896E+03  0.51509164017E+03  0.39988343130E+03 0.  0.
    9000005    1    3    3    0    0  0.51513252885E+02 -0.31732708687E+03  0.24855404645E+03  0.40636216517E+03  0.99999687468E+00 0.  0.
          4    1    3    3  502    0  0.44447538311E+02  0.93151174466E+02 -0.34196107487E+02  0.10872947500E+03  0.00000000000E+00 0.  1.
   -9000007    1    1    2    0  501 -0.95960791196E+02  0.22417591240E+03  0.81605362503E+03  0.94096059007E+03  0.40000000000E+03 0. -1.
<mgrwt>
<rscale>  2 0.46841935E+03</rscale>
<asrwt>0</asrwt>
<pdfrwt beam="1">  1        2 0.19126644E+00 0.46841935E+03</pdfrwt>
<pdfrwt beam="2">  1       -2 0.32741591E-01 0.46841935E+03</pdfrwt>
<totfact> 0.16133887E+02</totfact>
</mgrwt>
</event>
<event>
 6    1  0.8938744E-004  0.5294723E+03  0.7818608E-02  0.1006360E+00
          1   -1    0    0  502    0  0.00000000000E+00  0.00000000000E+00  0.63821189012E+03  0.63821189012E+03  0.00000000000E+00 0.  1.
         -1   -1    0    0    0  501 -0.00000000000E+00 -0.00000000000E+00 -0.46542538338E+03  0.46542538338E+03  0.00000000000E+00 0. -1.
    9000007    2    1    2  502    0  0.26922361763E+03 -0.22050367943E+03  0.21711869441E+03  0.57159538437E+03  0.39809235993E+03 0.  0.
    9000005    1    3    3    0    0 -0.36229702599E+02  0.47086445552E+02 -0.56447918060E+02  0.81957868153E+02  0.99999687468E+00 0.  0.
          4    1    3    3  502    0  0.30545332023E+03 -0.26759012498E+03  0.27356661247E+03  0.48963751622E+03  0.00000000000E+00 0.  1.
   -9000007    1    1    2    0  501 -0.26922361763E+03  0.22050367943E+03 -0.44332187668E+02  0.53204188914E+03  0.40000000000E+03 0. -1.
<mgrwt>
<rscale>  2 0.52947234E+03</rscale>
<asrwt>0</asrwt>
<pdfrwt beam="1">  1        1 0.98186445E-01 0.52947234E+03</pdfrwt>
<pdfrwt beam="2">  1       -1 0.71603905E-01 0.52947234E+03</pdfrwt>
<totfact> 0.64265979E+01</totfact>
</mgrwt>
</event>
<event>
 6    1  0.8938744E-004  0.4629522E+03  0.7818608E-02  0.1023928E+00
         -3   -1    0    0    0  501 -0.00000000000E+00  0.00000000000E+00  0.33874424953E+03  0.33874424953E+03  0.00000000000E+00 0.  1.
          3   -1    0    0  502    0  0.00000000000E+00 -0.00000000000E+00 -0.65791987410E+03  0.65791987410E+03  0.00000000000E+00 0. -1.
    9000007    2    1    2  502    0  0.13775376923E+03 -0.18541895629E+03 -0.25748870007E+03  0.53065815056E+03  0.40241937305E+03 0.  0.
    9000005    1    3    3    0    0  0.44625852237E+02 -0.24770418094E+03 -0.20199875528E+01  0.25170202281E+03  0.99999687468E+00 0.  0.
          4    1    3    3  502    0  0.93127916990E+02  0.62285224651E+02 -0.25546871252E+03  0.27895612775E+03  0.00000000000E+00 0.  1.
   -9000007    1    1    2    0  501 -0.13775376923E+03  0.18541895629E+03 -0.61686924498E+02  0.46600597308E+03  0.40000000000E+03 0.  1.
<mgrwt>
<rscale>  2 0.46295223E+03</rscale>
<asrwt>0</asrwt>
<pdfrwt beam="1">  1        3 0.10121844E+00 0.46295223E+03</pdfrwt>
<pdfrwt beam="2">  1       -3 0.52114500E-01 0.46295223E+03</pdfrwt>
<totfact> 0.80859099E+00</totfact>
</mgrwt>
</event>
<event>
 6    1  0.8938744E-004  0.4229674E+03  0.7818608E-02  0.1036105E+00
          2   -1    0    0  502    0  0.00000000000E+00  0.00000000000E+00  0.26363269009E+04  0.26363269009E+04  0.00000000000E+00 0.  1.
         -2   -1    0    0    0  501 -0.00000000000E+00 -0.00000000000E+00 -0.72098089992E+02  0.72098089992E+02  0.00000000000E+00 0. -1.
    9000007    2    1    2  502    0  0.13634056308E+03  0.21258305044E+02  0.16099696381E+04  0.16645613822E+04  0.39965196712E+03 0.  0.
    9000005    1    3    3    0    0 -0.10034581450E+03 -0.10443283875E+03  0.40406689399E+03  0.42923950786E+03  0.99999687468E+00 0.  0.
          4    1    3    3  502    0  0.23668637757E+03  0.12569114380E+03  0.12059027441E+04  0.12353218743E+04  0.00000000000E+00 0.  1.
   -9000007    1    1    2    0  501 -0.13634056308E+03 -0.21258305044E+02  0.95425917283E+03  0.10438636087E+04  0.40000000000E+03 0. -1.
<mgrwt>
<rscale>  2 0.42296744E+03</rscale>
<asrwt>0</asrwt>
<pdfrwt beam="1">  1        2 0.40558868E+00 0.42296744E+03</pdfrwt>
<pdfrwt beam="2">  1       -2 0.11092016E-01 0.42296744E+03</pdfrwt>
<totfact> 0.18318955E+02</totfact>
</mgrwt>
</event>
<event>
 6    1  0.8938744E-004  0.1001566E+04  0.7818608E-02  0.9306829E-01
          1   -1    0    0  502    0  0.00000000000E+00  0.00000000000E+00  0.11965853860E+04  0.11965853860E+04  0.00000000000E+00 0. -1.
         -1   -1    0    0    0  501 -0.00000000000E+00 -0.00000000000E+00 -0.12829245451E+04  0.12829245451E+04  0.00000000000E+00 0.  1.
    9000007    2    1    2  502    0 -0.56436461672E+03  0.72434197377E+03  0.68665264690E+03  0.12143241551E+04  0.39989071069E+03 0.  0.
    9000005    1    3    3    0    0 -0.20194746799E+03  0.52909085955E+03  0.52443247940E+03  0.77184865287E+03  0.99999687468E+00 0.  0.
          4    1    3    3  502    0 -0.36241714873E+03  0.19525111422E+03  0.16222016750E+03  0.44247550219E+03  0.00000000000E+00 0.  1.
   -9000007    1    1    2    0  501  0.56436461672E+03 -0.72434197377E+03 -0.77299180606E+03  0.12651857760E+04  0.40000000000E+03 0.  1.
<mgrwt>
<rscale>  2 0.10015663E+04</rscale>
<asrwt>0</asrwt>
<pdfrwt beam="1">  1        1 0.18409006E+00 0.10015663E+04</pdfrwt>
<pdfrwt beam="2">  1       -1 0.19737301E+00 0.10015663E+04</pdfrwt>
<totfact> 0.16946526E+00</totfact>
</mgrwt>
</event>
<event>
 6    1  0.8938744E-004  0.4039506E+03  0.7818608E-02  0.1042420E+00
          2   -1    0    0  502    0  0.00000000000E+00  0.00000000000E+00  0.46709578143E+03  0.46709578143E+03  0.00000000000E+00 0. -1.
         -2   -1    0    0    0  501 -0.00000000000E+00 -0.00000000000E+00 -0.39469769491E+03  0.39469769491E+03  0.00000000000E+00 0.  1.
    9000007    2    1    2  502    0 -0.27452080018E+02  0.50707863085E+02 -0.10988423920E+03  0.41845190335E+03  0.39962800867E+03 0.  0.
    9000005    1    3    3    0    0 -0.20790609877E+03  0.76040681776E+02 -0.54310213595E+02  0.22794238414E+03  0.99999687468E+00 0.  0.
          4    1    3    3  502    0  0.18045401875E+03 -0.25332818691E+02 -0.55574025601E+02  0.19050951921E+03  0.00000000000E+00 0.  1.
   -9000007    1    1    2    0  501  0.27452080018E+02 -0.50707863085E+02  0.18228232571E+03  0.44334157299E+03  0.40000000000E+03 0. -1.
<mgrwt>
<rscale>  2 0.40395063E+03</rscale>
<asrwt>0</asrwt>
<pdfrwt beam="1">  1        2 0.71860890E-01 0.40395063E+03</pdfrwt>
<pdfrwt beam="2">  1       -2 0.60722722E-01 0.40395063E+03</pdfrwt>
<totfact> 0.17309077E+02</totfact>
</mgrwt>
</event>
<event>
 6    1  0.8938744E-004  0.4377226E+03  0.7818608E-02  0.1031448E+00
          2   -1    0    0  502    0  0.00000000000E+00  0.00000000000E+00  0.80482376022E+03  0.80482376022E+03  0.00000000000E+00 0.  1.
         -2   -1    0    0    0  501 -0.00000000000E+00 -0.00000000000E+00 -0.32156198633E+03  0.32156198633E+03  0.00000000000E+00 0. -1.
    9000007    2    1    2  502    0 -0.64557405031E+02 -0.16574075047E+03  0.52859801852E+03  0.68628004335E+03  0.39990846179E+03 0.  0.
    9000005    1    3    3    0    0 -0.62185984678E+02 -0.77802396264E+02 -0.42610436673E+02  0.10833724596E+03  0.99999687468E+00 0.  0.
          4    1    3    3  502    0 -0.23714203532E+01 -0.87938354206E+02  0.57120845519E+03  0.57794279739E+03  0.00000000000E+00 0.  1.
   -9000007    1    1    2    0  501  0.64557405031E+02  0.16574075047E+03 -0.45336244629E+02  0.44010570320E+03  0.40000000000E+03 0. -1.
<mgrwt>
<rscale>  2 0.43772256E+03</rscale>
<asrwt>0</asrwt>
<pdfrwt beam="1">  1        2 0.12381904E+00 0.43772256E+03</pdfrwt>
<pdfrwt beam="2">  1       -2 0.49471075E-01 0.43772256E+03</pdfrwt>
<totfact> 0.13689093E+02</totfact>
</mgrwt>
</event>
<event>
 6    1  0.8938744E-004  0.1024033E+04  0.7818608E-02  0.9282572E-01
          1   -1    0    0  502    0  0.00000000000E+00  0.00000000000E+00  0.78396049080E+03  0.78396049080E+03  0.00000000000E+00 0.  1.
         -1   -1    0    0    0  501 -0.00000000000E+00 -0.00000000000E+00 -0.13388869943E+04  0.13388869943E+04  0.00000000000E+00 0. -1.
    9000007    2    1    2  502    0  0.23912234139E+03  0.91008430844E+03 -0.24531420616E+03  0.10545344611E+04  0.40795946765E+03 0.  0.
    9000005    1    3    3    0    0  0.24287709071E+03  0.26140635844E+03 -0.18799451401E+03  0.40331811603E+03  0.99999687468E+00 0.  0.
          4    1    3    3  502    0 -0.37547493156E+01  0.64867795000E+03 -0.57319692151E+02  0.65121634505E+03  0.00000000000E+00 0.  1.
   -9000007    1    1    2    0  501 -0.23912234139E+03 -0.91008430844E+03 -0.30961229734E+03  0.10683130240E+04  0.40000000000E+03 0. -1.
<mgrwt>
<rscale>  2 0.10240329E+04</rscale>
<asrwt>0</asrwt>
<pdfrwt beam="1">  1        1 0.12060931E+00 0.10240329E+04</pdfrwt>
<pdfrwt beam="2">  1       -1 0.20598261E+00 0.10240329E+04</pdfrwt>
<totfact> 0.31317727E+00</totfact>
</mgrwt>
</event>
<event>
 6    1  0.8938744E-004  0.4798875E+03  0.7818608E-02  0.1019166E+00
         -2   -1    0    0    0  501 -0.00000000000E+00  0.00000000000E+00  0.21341857845E+03  0.21341857845E+03  0.00000000000E+00 0.  1.
          2   -1    0    0  502    0  0.00000000000E+00 -0.00000000000E+00 -0.10790938182E+04  0.10790938182E+04  0.00000000000E+00 0. -1.
    9000007    2    1    2  502    0 -0.14865498187E+03  0.21936545397E+03 -0.42943581543E+03  0.64403391483E+03  0.40018128123E+03 0.  0.
    9000005    1    3    3    0    0  0.36681422153E+02 -0.85063538278E+02 -0.93269748446E+01  0.93109208616E+02  0.99999687468E+00 0.  0.
          4    1    3    3  502    0 -0.18533640403E+03  0.30442899225E+03 -0.42010884058E+03  0.55092470621E+03  0.00000000000E+00 0.  1.
   -9000007    1    1    2    0  501  0.14865498187E+03 -0.21936545397E+03 -0.43623942428E+03  0.64847848177E+03  0.40000000000E+03 0. -1.
<mgrwt>
<rscale>  2 0.47988751E+03</rscale>
<asrwt>0</asrwt>
<pdfrwt beam="1">  1        2 0.16601444E+00 0.47988751E+03</pdfrwt>
<pdfrwt beam="2">  1       -2 0.32833626E-01 0.47988751E+03</pdfrwt>
<totfact> 0.20034482E+02</totfact>
</mgrwt>
</event>
<event>
 6    1  0.8938744E-004  0.8805772E+03  0.7818608E-02  0.9450192E-01
         -2   -1    0    0    0  501 -0.00000000000E+00  0.00000000000E+00  0.17314628521E+04  0.17314628521E+04  0.00000000000E+00 0.  1.
          2   -1    0    0  502    0  0.00000000000E+00 -0.00000000000E+00 -0.47843426728E+03  0.47843426728E+03  0.00000000000E+00 0. -1.
    9000007    2    1    2  502    0 -0.78290639755E+03  0.59423015149E+02  0.34669460542E+03  0.94581057002E+03  0.39734992497E+03 0.  0.
    9000005    1    3    3    0    0 -0.66338773601E+03  0.19644410169E+03  0.22710146258E+03  0.72818242747E+03  0.99999687468E+00 0.  0.
          4    1    3    3  502    0 -0.11951866154E+03 -0.13702108654E+03  0.11959314284E+03  0.21762814254E+03  0.00000000000E+00 0.  1.
   -9000007    1    1    2    0  501  0.78290639755E+03 -0.59423015149E+02  0.90633397942E+03  0.12640865494E+04  0.40000000000E+03 0.  1.
<mgrwt>
<rscale>  2 0.88057724E+03</rscale>
<asrwt>0</asrwt>
<pdfrwt beam="1">  1        2 0.73605273E-01 0.88057724E+03</pdfrwt>
<pdfrwt beam="2">  1       -2 0.26637890E+00 0.88057724E+03</pdfrwt>
<totfact> 0.33574181E+00</totfact>
</mgrwt>
</event>
<event>
 6    1  0.8938744E-004  0.4994632E+03  0.7818608E-02  0.1013919E+00
         -2   -1    0    0    0  501 -0.00000000000E+00  0.00000000000E+00  0.12799215445E+03  0.12799215445E+03  0.00000000000E+00 0. -1.
          2   -1    0    0  502    0  0.00000000000E+00 -0.00000000000E+00 -0.19583538249E+04  0.19583538249E+04  0.00000000000E+00 0.  1.
    9000007    2    1    2  502    0 -0.28228220403E+03 -0.99603929069E+02 -0.84303355746E+03  0.97981040013E+03  0.39964816500E+03 0.  0.
    9000005    1    3    3    0    0 -0.19700188474E+03 -0.14307425042E+03 -0.16283535026E+03  0.29291011422E+03  0.99999687468E+00 0.  0.
          4    1    3    3  502    0 -0.85280319284E+02  0.43470321347E+02 -0.68019820720E+03  0.68690028591E+03  0.00000000000E+00 0.  1.
   -9000007    1    1    2    0  501  0.28228220403E+03  0.99603929069E+02 -0.98732811296E+03  0.11065355792E+04  0.40000000000E+03 0. -1.
<mgrwt>
<rscale>  2 0.49946319E+03</rscale>
<asrwt>0</asrwt>
<pdfrwt beam="1">  1        2 0.30128521E+00 0.49946319E+03</pdfrwt>
<pdfrwt beam="2">  1       -2 0.19691100E-01 0.49946319E+03</pdfrwt>
<totfact> 0.16277330E+02</totfact>
</mgrwt>
</event>
<event>
 6    1  0.8938744E-004  0.4262052E+03  0.7818608E-02  0.1035065E+00
          1   -1    0    0  502    0  0.00000000000E+00  0.00000000000E+00  0.17182506869E+03  0.17182506869E+03  0.00000000000E+00 0.  1.
         -1   -1    0    0    0  501 -0.00000000000E+00 -0.00000000000E+00 -0.11821756520E+04  0.11821756520E+04  0.00000000000E+00 0. -1.
    9000007    2    1    2  502    0  0.10908787977E+03  0.98466199057E+02 -0.72537766039E+03  0.84135530261E+03  0.40013777274E+03 0.  0.
    9000005    1    3    3    0    0  0.90758623005E+02  0.11676946566E+03 -0.77306607337E+03  0.78708601153E+03  0.99999687468E+00 0.  0.
          4    1    3    3  502    0  0.18329256761E+02 -0.18303266605E+02  0.47688412980E+02  0.54269291080E+02  0.00000000000E+00 0.  1.
   -9000007    1    1    2    0  501 -0.10908787977E+03 -0.98466199057E+02 -0.28497292292E+03  0.51264541807E+03  0.40000000000E+03 0.  1.
<mgrwt>
<rscale>  2 0.42620519E+03</rscale>
<asrwt>0</asrwt>
<pdfrwt beam="1">  1        1 0.26434626E-01 0.42620519E+03</pdfrwt>
<pdfrwt beam="2">  1       -1 0.18187318E+00 0.42620519E+03</pdfrwt>
<totfact> 0.38745325E+01</totfact>
</mgrwt>
</event>
<event>
 6    1  0.8938744E-004  0.1442943E+04  0.7818608E-02  0.8923308E-01
         -1   -1    0    0    0  501 -0.00000000000E+00  0.00000000000E+00  0.57442902896E+03  0.57442902896E+03  0.00000000000E+00 0. -1.
          1   -1    0    0  502    0  0.00000000000E+00 -0.00000000000E+00 -0.37323341283E+04  0.37323341283E+04  0.00000000000E+00 0.  1.
    9000007    2    1    2  502    0  0.10663188939E+04 -0.88604779617E+03 -0.12131144041E+04  0.18851257920E+04  0.39992000886E+03 0.  0.
    9000005    1    3    3    0    0  0.10263493142E+04 -0.88191372196E+03 -0.12410958541E+04  0.18361602999E+04  0.99999687468E+00 0.  0.
          4    1    3    3  502    0  0.39969579767E+02 -0.41340742065E+01  0.27981449991E+02  0.48965492134E+02  0.00000000000E+00 0.  1.
   -9000007    1    1    2    0  501 -0.10663188939E+04  0.88604779617E+03 -0.19447906952E+04  0.24216373652E+04  0.40000000000E+03 0.  1.
<mgrwt>
<rscale>  2 0.14429431E+04</rscale>
<asrwt>0</asrwt>
<pdfrwt beam="1">  1        1 0.57420525E+00 0.14429431E+04</pdfrwt>
<pdfrwt beam="2">  1       -1 0.88373696E-01 0.14429431E+04</pdfrwt>
<totfact> 0.19895472E-01</totfact>
</mgrwt>
</event>
<event>
 6    1  0.8938744E-004  0.5724420E+03  0.7818608E-02  0.9964289E-01
         -2   -1    0    0    0  501 -0.00000000000E+00  0.00000000000E+00  0.18732777034E+03  0.18732777034E+03  0.00000000000E+00 0.  1.
          2   -1    0    0  502    0  0.00000000000E+00 -0.00000000000E+00 -0.17574376726E+04  0.17574376726E+04  0.00000000000E+00 0. -1.
    9000007    2    1    2  502    0 -0.38022182732E+03 -0.13956466273E+03 -0.85542472946E+03  0.10310795947E+04  0.40905590055E+03 0.  0.
    9000005    1    3    3    0    0 -0.39081623571E+03 -0.16657229160E+03 -0.88984905311E+03  0.98606084789E+03  0.99999687468E+00 0.  0.
          4    1    3    3  502    0  0.10594408395E+02  0.27007628861E+02  0.34424323647E+02  0.45018746811E+02  0.00000000000E+00 0.  1.
   -9000007    1    1    2    0  501  0.38022182732E+03  0.13956466273E+03 -0.71468517281E+03  0.91368584825E+03  0.40000000000E+03 0.  1.
<mgrwt>
<rscale>  2 0.57244198E+03</rscale>
<asrwt>0</asrwt>
<pdfrwt beam="1">  1        2 0.27037502E+00 0.57244198E+03</pdfrwt>
<pdfrwt beam="2">  1       -2 0.28819657E-01 0.57244198E+03</pdfrwt>
<totfact> 0.10488908E+02</totfact>
</mgrwt>
</event>
<event>
 6    1  0.8938744E-004  0.6516984E+03  0.7818608E-02  0.9803597E-01
         -2   -1    0    0    0  501 -0.00000000000E+00  0.00000000000E+00  0.59507994240E+03  0.59507994240E+03  0.00000000000E+00 0.  1.
          2   -1    0    0  502    0  0.00000000000E+00 -0.00000000000E+00 -0.98841134486E+03  0.98841134486E+03  0.00000000000E+00 0. -1.
    9000007    2    1    2  502    0 -0.47342265969E+03  0.19744250950E+03 -0.61433058799E+03  0.89650278716E+03  0.40398343626E+03 0.  0.
    9000005    1    3    3    0    0 -0.26836186137E+03 -0.29578844568E+02 -0.50313562459E+03  0.57099864572E+03  0.99999687468E+00 0.  0.
          4    1    3    3  502    0 -0.20506079832E+03  0.22702135406E+03 -0.11119496340E+03  0.32550414144E+03  0.00000000000E+00 0.  1.
   -9000007    1    1    2    0  501  0.47342265969E+03 -0.19744250950E+03  0.22099918553E+03  0.68698850010E+03  0.40000000000E+03 0. -1.
<mgrwt>
<rscale>  2 0.65169843E+03</rscale>
<asrwt>0</asrwt>
<pdfrwt beam="1">  1        2 0.15206328E+00 0.65169843E+03</pdfrwt>
<pdfrwt beam="2">  1       -2 0.91550761E-01 0.65169843E+03</pdfrwt>
<totfact> 0.26728743E+01</totfact>
</mgrwt>
</event>
<event>
 6    1  0.8938744E-004  0.7653295E+03  0.7818608E-02  0.9611603E-01
         -1   -1    0    0    0  501 -0.00000000000E+00  0.00000000000E+00  0.24447102006E+03  0.24447102006E+03  0.00000000000E+00 0. -1.
          1   -1    0    0  502    0  0.00000000000E+00 -0.00000000000E+00 -0.24466526232E+04  0.24466526232E+04  0.00000000000E+00 0.  1.
    9000007    2    1    2  502    0  0.60098026556E+03  0.25407457151E+03 -0.12948768216E+04  0.15041387512E+04  0.39999529010E+03 0.  0.
    9000005    1    3    3    0    0  0.98860483398E+02  0.53840754099E+02 -0.66340995885E+03  0.67289374754E+03  0.99999687468E+00 0.  0.
          4    1    3    3  502    0  0.50211978216E+03  0.20023381741E+03 -0.63146686276E+03  0.83124500362E+03  0.00000000000E+00 0.  1.
   -9000007    1    1    2    0  501 -0.60098026556E+03 -0.25407457151E+03 -0.90730478151E+03  0.11869848921E+04  0.40000000000E+03 0. -1.
<mgrwt>
<rscale>  2 0.76532953E+03</rscale>
<asrwt>0</asrwt>
<pdfrwt beam="1">  1        1 0.37640809E+00 0.76532953E+03</pdfrwt>
<pdfrwt beam="2">  1       -1 0.37610926E-01 0.76532953E+03</pdfrwt>
<totfact> 0.10551977E+01</totfact>
</mgrwt>
</event>
<event>
 6    1  0.8938744E-004  0.4505070E+03  0.7818608E-02  0.1027571E+00
         -1   -1    0    0    0  501 -0.00000000000E+00  0.00000000000E+00  0.16422798891E+03  0.16422798891E+03  0.00000000000E+00 0.  1.
          1   -1    0    0  502    0  0.00000000000E+00 -0.00000000000E+00 -0.12374489879E+04  0.12374489879E+04  0.00000000000E+00 0. -1.
    9000007    2    1    2  502    0 -0.19813670920E+03 -0.59543589314E+02 -0.56222216204E+03  0.72055774648E+03  0.40038245711E+03 0.  0.
    9000005    1    3    3    0    0 -0.60819707032E+02  0.17068624700E+03 -0.19919719745E+03  0.26928303909E+03  0.99999687468E+00 0.  0.
          4    1    3    3  502    0 -0.13731700217E+03 -0.23022983631E+03 -0.36302496459E+03  0.45127470739E+03  0.00000000000E+00 0.  1.
   -9000007    1    1    2    0  501  0.19813670920E+03  0.59543589314E+02 -0.51099883696E+03  0.68111923034E+03  0.40000000000E+03 0. -1.
<mgrwt>
<rscale>  2 0.45050704E+03</rscale>
<asrwt>0</asrwt>
<pdfrwt beam="1">  1        1 0.19037677E+00 0.45050704E+03</pdfrwt>
<pdfrwt beam="2">  1       -1 0.25265845E-01 0.45050704E+03</pdfrwt>
<totfact> 0.14465698E+02</totfact>
</mgrwt>
</event>
<event>
 6    1  0.8938744E-004  0.5289251E+03  0.7818608E-02  0.1006493E+00
         -1   -1    0    0    0  501 -0.00000000000E+00  0.00000000000E+00  0.26954968384E+03  0.26954968384E+03  0.00000000000E+00 0. -1.
          1   -1    0    0  502    0  0.00000000000E+00 -0.00000000000E+00 -0.12332693080E+04  0.12332693080E+04  0.00000000000E+00 0.  1.
    9000007    2    1    2  502    0 -0.31519961788E+03 -0.14307042535E+03 -0.18273462879E+03  0.55954940751E+03  0.39985453501E+03 0.  0.
    9000005    1    3    3    0    0 -0.34634562984E+03 -0.19808847572E+03 -0.24711264505E+03  0.46931865386E+03  0.99999687468E+00 0.  0.
          4    1    3    3  502    0  0.31146011962E+02  0.55018050366E+02  0.64378016259E+02  0.90230753653E+02  0.00000000000E+00 0.  1.
   -9000007    1    1    2    0  501  0.31519961788E+03  0.14307042535E+03 -0.78098499535E+03  0.94326958431E+03  0.40000000000E+03 0.  1.
<mgrwt>
<rscale>  2 0.52892510E+03</rscale>
<asrwt>0</asrwt>
<pdfrwt beam="1">  1        1 0.18973374E+00 0.52892510E+03</pdfrwt>
<pdfrwt beam="2">  1       -1 0.41469183E-01 0.52892510E+03</pdfrwt>
<totfact> 0.60571339E+01</totfact>
</mgrwt>
</event>
<event>
 6    1  0.8938744E-004  0.4252318E+03  0.7818608E-02  0.1035377E+00
          2   -1    0    0  502    0  0.00000000000E+00  0.00000000000E+00  0.32731288718E+04  0.32731288718E+04  0.00000000000E+00 0.  1.
         -2   -1    0    0    0  501 -0.00000000000E+00 -0.00000000000E+00 -0.67336522743E+02  0.67336522743E+02  0.00000000000E+00 0. -1.
    9000007    2    1    2  502    0  0.12861905968E+02 -0.13665747267E+03  0.23178703812E+04  0.23569786816E+04  0.40495025396E+03 0.  0.
    9000005    1    3    3    0    0  0.27039524450E+02 -0.22593803587E+03  0.68904585297E+03  0.72564751734E+03  0.99999687468E+00 0.  0.
          4    1    3    3  502    0 -0.14177618482E+02  0.89280563209E+02  0.16288245282E+04  0.16313311643E+04  0.00000000000E+00 0.  1.
   -9000007    1    1    2    0  501 -0.12861905968E+02  0.13665747267E+03  0.88792196786E+03  0.98348671291E+03  0.40000000000E+03 0. -1.
<mgrwt>
<rscale>  2 0.42523179E+03</rscale>
<asrwt>0</asrwt>
<pdfrwt beam="1">  1        2 0.50355816E+00 0.42523179E+03</pdfrwt>
<pdfrwt beam="2">  1       -2 0.10359468E-01 0.42523179E+03</pdfrwt>
<totfact> 0.85097249E+01</totfact>
</mgrwt>
</event>
<event>
 6    1  0.8938744E-004  0.4218497E+03  0.7818608E-02  0.1036466E+00
         -1   -1    0    0    0  501 -0.00000000000E+00  0.00000000000E+00  0.18457240670E+03  0.18457240670E+03  0.00000000000E+00 0. -1.
          1   -1    0    0  502    0  0.00000000000E+00 -0.00000000000E+00 -0.96981252228E+03  0.96981252228E+03  0.00000000000E+00 0.  1.
    9000007    2    1    2  502    0 -0.54438137339E+02  0.12255416607E+03 -0.43666113520E+03  0.60712782307E+03  0.39993525992E+03 0.  0.
    9000005    1    3    3    0    0  0.10892139950E+03  0.17670907623E+03 -0.10308164928E+03  0.23176884023E+03  0.99999687468E+00 0.  0.
          4    1    3    3  502    0 -0.16335953683E+03 -0.54154910161E+02 -0.33357948592E+03  0.37535898284E+03  0.00000000000E+00 0.  1.
   -9000007    1    1    2    0  501  0.54438137339E+02 -0.12255416607E+03 -0.34857898037E+03  0.54725710592E+03  0.40000000000E+03 0.  1.
<mgrwt>
<rscale>  2 0.42184966E+03</rscale>
<asrwt>0</asrwt>
<pdfrwt beam="1">  1        1 0.14920193E+00 0.42184966E+03</pdfrwt>
<pdfrwt beam="2">  1       -1 0.28395754E-01 0.42184966E+03</pdfrwt>
<totfact> 0.18720727E+02</totfact>
</mgrwt>
</event>
<event>
 6    1  0.8938744E-004  0.4148332E+03  0.7818608E-02  0.1038761E+00
          2   -1    0    0  502    0  0.00000000000E+00  0.00000000000E+00  0.33064459838E+03  0.33064459838E+03  0.00000000000E+00 0. -1.
         -2   -1    0    0    0  501 -0.00000000000E+00 -0.00000000000E+00 -0.52110194310E+03  0.52110194310E+03  0.00000000000E+00 0.  1.
    9000007    2    1    2  502    0 -0.95875112016E+02  0.52223524933E+02 -0.80303905966E+02  0.42273242315E+03  0.40041809476E+03 0.  0.
    9000005    1    3    3    0    0 -0.25341008964E+03  0.41581086975E+02 -0.41404717270E+02  0.26011730226E+03  0.99999687468E+00 0.  0.
          4    1    3    3  502    0  0.15753497763E+03  0.10642437957E+02 -0.38899188696E+02  0.16261512089E+03  0.00000000000E+00 0.  1.
   -9000007    1    1    2    0  501  0.95875112016E+02 -0.52223524933E+02 -0.11015343875E+03  0.42901411833E+03  0.40000000000E+03 0. -1.
<mgrwt>
<rscale>  2 0.41483319E+03</rscale>
<asrwt>0</asrwt>
<pdfrwt beam="1">  1        2 0.50868400E-01 0.41483319E+03</pdfrwt>
<pdfrwt beam="2">  1       -2 0.80169530E-01 0.41483319E+03</pdfrwt>
<totfact> 0.13911342E+02</totfact>
</mgrwt>
</event>
<event>
 6    1  0.8938744E-004  0.4648054E+03  0.7818608E-02  0.1023397E+00
          2   -1    0    0  502    0  0.00000000000E+00  0.00000000000E+00  0.23683039961E+04  0.23683039961E+04  0.00000000000E+00 0.  1.
         -2   -1    0    0    0  501 -0.00000000000E+00 -0.00000000000E+00 -0.95370778757E+02  0.95370778757E+02  0.00000000000E+00 0. -1.
    9000007    2    1    2  502    0  0.10862364086E+03  0.21053340839E+03  0.13931573747E+04  0.14686225427E+04  0.39980156436E+03 0.  0.
    9000005    1    3    3    0    0 -0.17157200817E+02  0.10253964559E+03  0.50170043678E+02  0.11544168110E+03  0.99999687468E+00 0.  0.
          4    1    3    3  502    0  0.12578084168E+03  0.10799376279E+03  0.13429873311E+04  0.13531808616E+04  0.00000000000E+00 0.  1.
   -9000007    1    1    2    0  501 -0.10862364086E+03 -0.21053340839E+03  0.87977584259E+03  0.99505223210E+03  0.40000000000E+03 0. -1.
<mgrwt>
<rscale>  2 0.46480538E+03</rscale>
<asrwt>0</asrwt>
<pdfrwt beam="1">  1        2 0.36435442E+00 0.46480538E+03</pdfrwt>
<pdfrwt beam="2">  1       -2 0.14672429E-01 0.46480538E+03</pdfrwt>
<totfact> 0.16179128E+02</totfact>
</mgrwt>
</event>
<event>
 6    1  0.8938744E-004  0.4616388E+03  0.7818608E-02  0.1024307E+00
         -2   -1    0    0    0  501 -0.00000000000E+00  0.00000000000E+00  0.34349012942E+03  0.34349012942E+03  0.00000000000E+00 0.  1.
          2   -1    0    0  502    0  0.00000000000E+00 -0.00000000000E+00 -0.31380946442E+04  0.31380946442E+04  0.00000000000E+00 0. -1.
    9000007    2    1    2  502    0 -0.91518250250E+02 -0.21162094397E+03 -0.29565115753E+04  0.29923272644E+04  0.39987841691E+03 0.  0.
    9000005    1    3    3    0    0 -0.20343988770E+03 -0.65502797740E+02 -0.23175578457E+04  0.23273920539E+04  0.99999687468E+00 0.  0.
          4    1    3    3  502    0  0.11192163745E+03 -0.14611814623E+03 -0.63895372969E+03  0.66493521058E+03  0.00000000000E+00 0.  1.
   -9000007    1    1    2    0  501  0.91518250250E+02  0.21162094397E+03  0.16190706054E+03  0.48925750920E+03  0.40000000000E+03 0.  1.
<mgrwt>
<rscale>  2 0.46163880E+03</rscale>
<asrwt>0</asrwt>
<pdfrwt beam="1">  1        2 0.48278379E+00 0.46163880E+03</pdfrwt>
<pdfrwt beam="2">  1       -2 0.52844635E-01 0.46163880E+03</pdfrwt>
<totfact> 0.55319140E+00</totfact>
</mgrwt>
</event>
<event>
 6    1  0.8938744E-004  0.5629775E+03  0.7818608E-02  0.9985340E-01
          2   -1    0    0  502    0  0.00000000000E+00  0.00000000000E+00  0.12324187114E+04  0.12324187114E+04  0.00000000000E+00 0. -1.
         -2   -1    0    0    0  501 -0.00000000000E+00 -0.00000000000E+00 -0.82307323013E+03  0.82307323013E+03  0.00000000000E+00 0.  1.
    9000007    2    1    2  502    0 -0.32896552719E+03 -0.22084624979E+03  0.10568587399E+04  0.11974331998E+04  0.39988059181E+03 0.  0.
    9000005    1    3    3    0    0 -0.55284015559E+02 -0.89932201216E+02  0.77873884027E+03  0.78586214092E+03  0.99999687468E+00 0.  0.
          4    1    3    3  502    0 -0.27368151163E+03 -0.13091404858E+03  0.27811989964E+03  0.41157105887E+03  0.00000000000E+00 0.  1.
   -9000007    1    1    2    0  501  0.32896552719E+03  0.22084624979E+03 -0.64751325865E+03  0.85805874173E+03  0.40000000000E+03 0.  1.
<mgrwt>
<rscale>  2 0.56297746E+03</rscale>
<asrwt>0</asrwt>
<pdfrwt beam="1">  1        2 0.18960288E+00 0.56297746E+03</pdfrwt>
<pdfrwt beam="2">  1       -2 0.12662665E+00 0.56297746E+03</pdfrwt>
<totfact> 0.88267964E+00</totfact>
</mgrwt>
</event>
<event>
 6    1  0.8938744E-004  0.4084749E+03  0.7818608E-02  0.1040884E+00
          1   -1    0    0  502    0  0.00000000000E+00  0.00000000000E+00  0.88833966599E+03  0.88833966599E+03  0.00000000000E+00 0. -1.
         -1   -1    0    0    0  501 -0.00000000000E+00 -0.00000000000E+00 -0.39436464629E+03  0.39436464629E+03  0.00000000000E+00 0.  1.
    9000007    2    1    2  502    0  0.83771240417E+02 -0.12180105436E+02  0.71101771237E+03  0.81980744890E+03  0.39921434128E+03 0.  0.
    9000005    1    3    3    0    0 -0.13789891108E+03 -0.81312427530E+02  0.40630074915E+03  0.43670255244E+03  0.99999687468E+00 0.  0.
          4    1    3    3  502    0  0.22167015150E+03  0.69132322095E+02  0.30471696321E+03  0.38310489647E+03  0.00000000000E+00 0.  1.
   -9000007    1    1    2    0  501 -0.83771240417E+02  0.12180105436E+02 -0.21704269266E+03  0.46289686338E+03  0.40000000000E+03 0.  1.
<mgrwt>
<rscale>  2 0.40847488E+03</rscale>
<asrwt>0</asrwt>
<pdfrwt beam="1">  1        1 0.13666764E+00 0.40847488E+03</pdfrwt>
<pdfrwt beam="2">  1       -1 0.60671484E-01 0.40847488E+03</pdfrwt>
<totfact> 0.54737463E+01</totfact>
</mgrwt>
</event>
<event>
 6    1  0.8938744E-004  0.4171184E+03  0.7818608E-02  0.1038008E+00
          2   -1    0    0  502    0  0.00000000000E+00  0.00000000000E+00  0.37218064774E+03  0.37218064774E+03  0.00000000000E+00 0. -1.
         -2   -1    0    0    0  501 -0.00000000000E+00 -0.00000000000E+00 -0.55517089026E+03  0.55517089026E+03  0.00000000000E+00 0.  1.
    9000007    2    1    2  502    0 -0.73656316547E+02 -0.96382233930E+02 -0.27560995737E+03  0.49922398742E+03  0.39818206016E+03 0.  0.
    9000005    1    3    3    0    0 -0.69430771810E+02  0.15026700093E+03 -0.14518113616E+03  0.22018030323E+03  0.99999687468E+00 0.  0.
          4    1    3    3  502    0 -0.42255447372E+01 -0.24664923486E+03 -0.13042882122E+03  0.27904368419E+03  0.00000000000E+00 0.  1.
   -9000007    1    1    2    0  501  0.73656316547E+02  0.96382233930E+02  0.92619714844E+02  0.42812755058E+03  0.40000000000E+03 0. -1.
<mgrwt>
<rscale>  2 0.41711839E+03</rscale>
<asrwt>0</asrwt>
<pdfrwt beam="1">  1        2 0.57258561E-01 0.41711839E+03</pdfrwt>
<pdfrwt beam="2">  1       -2 0.85410906E-01 0.41711839E+03</pdfrwt>
<totfact> 0.10592737E+02</totfact>
</mgrwt>
</event>
<event>
 6    1  0.8938744E-004  0.4083036E+03  0.7818608E-02  0.1040942E+00
         -1   -1    0    0    0  501 -0.00000000000E+00  0.00000000000E+00  0.96142518637E+02  0.96142518637E+02  0.00000000000E+00 0.  1.
          1   -1    0    0  502    0  0.00000000000E+00 -0.00000000000E+00 -0.17358655865E+04  0.17358655865E+04  0.00000000000E+00 0. -1.
    9000007    2    1    2  502    0 -0.49729340732E+02  0.64318448656E+02 -0.79014366641E+03  0.88946100841E+03  0.40025492096E+03 0.  0.
    9000005    1    3    3    0    0  0.17497290270E+03  0.12356008876E+01 -0.33108941117E+03  0.37448396704E+03  0.99999687468E+00 0.  0.
          4    1    3    3  502    0 -0.22470224343E+03  0.63082847769E+02 -0.45905425524E+03  0.51497704137E+03  0.00000000000E+00 0.  1.
   -9000007    1    1    2    0  501  0.49729340732E+02 -0.64318448656E+02 -0.84957940146E+03  0.94254709673E+03  0.40000000000E+03 0. -1.
<mgrwt>
<rscale>  2 0.40830361E+03</rscale>
<asrwt>0</asrwt>
<pdfrwt beam="1">  1        1 0.26705623E+00 0.40830361E+03</pdfrwt>
<pdfrwt beam="2">  1       -1 0.14791158E-01 0.40830361E+03</pdfrwt>
<totfact> 0.16130809E+02</totfact>
</mgrwt>
</event>
<event>
 6    1  0.8938744E-004  0.4224632E+03  0.7818608E-02  0.1036268E+00
         -2   -1    0    0    0  501 -0.00000000000E+00  0.00000000000E+00  0.19074995465E+03  0.19074995465E+03  0.00000000000E+00 0. -1.
          2   -1    0    0  502    0  0.00000000000E+00 -0.00000000000E+00 -0.98435841775E+03  0.98435841775E+03  0.00000000000E+00 0.  1.
    9000007    2    1    2  502    0  0.11866898960E+03  0.65811262533E+02 -0.26616964889E+03  0.49938272237E+03  0.40015418284E+03 0.  0.
    9000005    1    3    3    0    0 -0.16948937524E+02  0.21395707413E+03 -0.91924841037E+02  0.23348677146E+03  0.99999687468E+00 0.  0.
          4    1    3    3  502    0  0.13561792712E+03 -0.14814581159E+03 -0.17424480785E+03  0.26589595092E+03  0.00000000000E+00 0.  1.
   -9000007    1    1    2    0  501 -0.11866898960E+03 -0.65811262533E+02 -0.52743881420E+03  0.67572565002E+03  0.40000000000E+03 0.  1.
<mgrwt>
<rscale>  2 0.42246316E+03</rscale>
<asrwt>0</asrwt>
<pdfrwt beam="1">  1        2 0.15143976E+00 0.42246316E+03</pdfrwt>
<pdfrwt beam="2">  1       -2 0.29346146E-01 0.42246316E+03</pdfrwt>
<totfact> 0.28370166E+02</totfact>
</mgrwt>
</event>
<event>
 6    1  0.8938744E-004  0.4876110E+03  0.7818608E-02  0.1017064E+00
          2   -1    0    0  502    0  0.00000000000E+00  0.00000000000E+00  0.20130718385E+04  0.20130718385E+04  0.00000000000E+00 0. -1.
         -2   -1    0    0    0  501 -0.00000000000E+00 -0.00000000000E+00 -0.18164495812E+03  0.18164495812E+03  0.00000000000E+00 0.  1.
    9000007    2    1    2  502    0 -0.23734435888E+03 -0.14774033849E+03  0.26622326852E+03  0.55519799560E+03  0.39901182101E+03 0.  0.
    9000005    1    3    3    0    0  0.37097215481E+02 -0.68583097797E+02  0.25791743867E+03  0.26944804669E+03  0.99999687468E+00 0.  0.
          4    1    3    3  502    0 -0.27444157436E+03 -0.79157240693E+02  0.83058298412E+01  0.28574994890E+03  0.00000000000E+00 0.  1.
   -9000007    1    1    2    0  501  0.23734435888E+03  0.14774033849E+03  0.15652036119E+04  0.16395188010E+04  0.40000000000E+03 0. -1.
<mgrwt>
<rscale>  2 0.48761095E+03</rscale>
<asrwt>0</asrwt>
<pdfrwt beam="1">  1        2 0.30970334E+00 0.48761095E+03</pdfrwt>
<pdfrwt beam="2">  1       -2 0.27945380E-01 0.48761095E+03</pdfrwt>
<totfact> 0.81829203E+01</totfact>
</mgrwt>
</event>
<event>
 6    1  0.8938744E-004  0.5560850E+03  0.7818608E-02  0.1000095E+00
          1   -1    0    0  502    0  0.00000000000E+00  0.00000000000E+00  0.13257886116E+04  0.13257886116E+04  0.00000000000E+00 0.  1.
         -1   -1    0    0    0  501 -0.00000000000E+00 -0.00000000000E+00 -0.23325356910E+03  0.23325356910E+03  0.00000000000E+00 0. -1.
    9000007    2    1    2  502    0  0.33326951437E+03 -0.19510440627E+03  0.54102757839E+03  0.77591078588E+03  0.40024043838E+03 0.  0.
    9000005    1    3    3    0    0  0.36733858699E+03 -0.13997981738E+03  0.57972083198E+03  0.70043502895E+03  0.99999687468E+00 0.  0.
          4    1    3    3  502    0 -0.34069072623E+02 -0.55124588897E+02 -0.38693253586E+02  0.75475756926E+02  0.00000000000E+00 0.  1.
   -9000007    1    1    2    0  501 -0.33326951437E+03  0.19510440627E+03  0.55150746408E+03  0.78313139478E+03  0.40000000000E+03 0.  1.
<mgrwt>
<rscale>  2 0.55608496E+03</rscale>
<asrwt>0</asrwt>
<pdfrwt beam="1">  1        1 0.20396747E+00 0.55608496E+03</pdfrwt>
<pdfrwt beam="2">  1       -1 0.35885165E-01 0.55608496E+03</pdfrwt>
<totfact> 0.67363807E+01</totfact>
</mgrwt>
</event>
<event>
 6    1  0.8938744E-004  0.4795747E+03  0.7818608E-02  0.1019252E+00
         -2   -1    0    0    0  501 -0.00000000000E+00  0.00000000000E+00  0.27565299061E+03  0.27565299061E+03  0.00000000000E+00 0. -1.
          2   -1    0    0  502    0  0.00000000000E+00 -0.00000000000E+00 -0.99594837024E+03  0.99594837024E+03  0.00000000000E+00 0.  1.
    9000007    2    1    2  502    0  0.22302774491E+03  0.14478802805E+03 -0.61578328352E+03  0.78004492838E+03  0.39821613474E+03 0.  0.
    9000005    1    3    3    0    0 -0.39388925663E+02  0.18525175411E+03 -0.14120855254E+03  0.23624257696E+03  0.99999687468E+00 0.  0.
          4    1    3    3  502    0  0.26241667057E+03 -0.40463726064E+02 -0.47457473099E+03  0.54380235142E+03  0.00000000000E+00 0.  1.
   -9000007    1    1    2    0  501 -0.22302774491E+03 -0.14478802805E+03 -0.10451209612E+03  0.49155643247E+03  0.40000000000E+03 0. -1.
<mgrwt>
<rscale>  2 0.47957470E+03</rscale>
<asrwt>0</asrwt>
<pdfrwt beam="1">  1        2 0.15322283E+00 0.47957470E+03</pdfrwt>
<pdfrwt beam="2">  1       -2 0.42408152E-01 0.47957470E+03</pdfrwt>
<totfact> 0.13823456E+02</totfact>
</mgrwt>
</event>
<event>
 6    1  0.8938744E-004  0.4457402E+03  0.7818608E-02  0.1029000E+00
         -2   -1    0    0    0  501 -0.00000000000E+00  0.00000000000E+00  0.15048135512E+03  0.15048135512E+03  0.00000000000E+00 0.  1.
          2   -1    0    0  502    0  0.00000000000E+00 -0.00000000000E+00 -0.13839124669E+04  0.13839124669E+04  0.00000000000E+00 0. -1.
    9000007    2    1    2  502    0  0.13855691125E+03  0.13898003245E+03 -0.45251754376E+03  0.63531681319E+03  0.40042709528E+03 0.  0.
    9000005    1    3    3    0    0 -0.13479695722E+03  0.10368610805E+03 -0.16251564390E+03  0.23523044698E+03  0.99999687468E+00 0.  0.
          4    1    3    3  502    0  0.27335386847E+03  0.35293924405E+02 -0.29000189986E+03  0.40008636621E+03  0.00000000000E+00 0.  1.
   -9000007    1    1    2    0  501 -0.13855691125E+03 -0.13898003245E+03 -0.78091356802E+03  0.89907700882E+03  0.40000000000E+03 0. -1.
<mgrwt>
<rscale>  2 0.44574020E+03</rscale>
<asrwt>0</asrwt>
<pdfrwt beam="1">  1        2 0.21290961E+00 0.44574020E+03</pdfrwt>
<pdfrwt beam="2">  1       -2 0.23150978E-01 0.44574020E+03</pdfrwt>
<totfact> 0.25280004E+02</totfact>
</mgrwt>
</event>
<event>
 6    1  0.8938744E-004  0.5500104E+03  0.7818608E-02  0.1001492E+00
         -2   -1    0    0    0  501 -0.00000000000E+00  0.00000000000E+00  0.77109965822E+03  0.77109965822E+03  0.00000000000E+00 0. -1.
          2   -1    0    0  502    0  0.00000000000E+00 -0.00000000000E+00 -0.83271402623E+03  0.83271402623E+03  0.00000000000E+00 0.  1.
    9000007    2    1    2  502    0  0.32796360137E+03 -0.18682784185E+03 -0.61398585643E+03  0.82434012650E+03  0.40011654047E+03 0.  0.
    9000005    1    3    3    0    0  0.25810306607E+03 -0.16879112595E+03 -0.12945315425E+03  0.33446488015E+03  0.99999687468E+00 0.  0.
          4    1    3    3  502    0  0.69860535300E+02 -0.18036715898E+02 -0.48453270218E+03  0.48987524635E+03  0.00000000000E+00 0.  1.
   -9000007    1    1    2    0  501 -0.32796360137E+03  0.18682784185E+03  0.55237148843E+03  0.77947355795E+03  0.40000000000E+03 0. -1.
<mgrwt>
<rscale>  2 0.55001035E+03</rscale>
<asrwt>0</asrwt>
<pdfrwt beam="1">  1        2 0.12810985E+00 0.55001035E+03</pdfrwt>
<pdfrwt beam="2">  1       -2 0.11863072E+00 0.55001035E+03</pdfrwt>
<totfact> 0.18528934E+01</totfact>
</mgrwt>
</event>
<event>
 6    1  0.8938744E-004  0.5360906E+03  0.7818608E-02  0.1004766E+00
         -2   -1    0    0    0  501 -0.00000000000E+00  0.00000000000E+00  0.20464388482E+03  0.20464388482E+03  0.00000000000E+00 0.  1.
          2   -1    0    0  502    0  0.00000000000E+00 -0.00000000000E+00 -0.16861149170E+04  0.16861149170E+04  0.00000000000E+00 0. -1.
    9000007    2    1    2  502    0 -0.35284855079E+03 -0.54109468953E+02 -0.35423976298E+03  0.64252794629E+03  0.39990801150E+03 0.  0.
    9000005    1    3    3    0    0 -0.81463649386E+02  0.16335730167E+03 -0.16773481547E+03  0.24790704406E+03  0.99999687468E+00 0.  0.
          4    1    3    3  502    0 -0.27138490140E+03 -0.21746677062E+03 -0.18650494750E+03  0.39462090223E+03  0.00000000000E+00 0.  1.
   -9000007    1    1    2    0  501  0.35284855079E+03  0.54109468953E+02 -0.11272312692E+04  0.12482308556E+04  0.40000000000E+03 0. -1.
<mgrwt>
<rscale>  2 0.53609061E+03</rscale>
<asrwt>0</asrwt>
<pdfrwt beam="1">  1        2 0.25940229E+00 0.53609061E+03</pdfrwt>
<pdfrwt beam="2">  1       -2 0.31483675E-01 0.53609061E+03</pdfrwt>
<totfact> 0.97824449E+01</totfact>
</mgrwt>
</event>
<event>
 6    1  0.8938744E-004  0.7535233E+03  0.7818608E-02  0.9629839E-01
         -2   -1    0    0    0  501 -0.00000000000E+00  0.00000000000E+00  0.10521561966E+04  0.10521561966E+04  0.00000000000E+00 0. -1.
          2   -1    0    0  502    0  0.00000000000E+00 -0.00000000000E+00 -0.62546880383E+03  0.62546880383E+03  0.00000000000E+00 0.  1.
    9000007    2    1    2  502    0  0.30224149595E+03 -0.56242981981E+03 -0.97343288090E+02  0.75986393209E+03  0.40030020668E+03 0.  0.
    9000005    1    3    3    0    0  0.17890899300E+03 -0.59746035966E+03 -0.61274303363E+02  0.62667603224E+03  0.99999687468E+00 0.  0.
          4    1    3    3  502    0  0.12333250296E+03  0.35030539848E+02 -0.36068984727E+02  0.13318789985E+03  0.00000000000E+00 0.  1.
   -9000007    1    1    2    0  501 -0.30224149595E+03  0.56242981981E+03  0.52403068086E+03  0.91776106834E+03  0.40000000000E+03 0. -1.
<mgrwt>
<rscale>  2 0.75352328E+03</rscale>
<asrwt>0</asrwt>
<pdfrwt beam="1">  1        2 0.96225970E-01 0.75352328E+03</pdfrwt>
<pdfrwt beam="2">  1       -2 0.16187018E+00 0.75352328E+03</pdfrwt>
<totfact> 0.11679846E+01</totfact>
</mgrwt>
</event>
<event>
 6    1  0.8938744E-004  0.4174879E+03  0.7818608E-02  0.1037887E+00
          1   -1    0    0  502    0  0.00000000000E+00  0.00000000000E+00  0.67077472826E+03  0.67077472826E+03  0.00000000000E+00 0.  1.
         -1   -1    0    0    0  501 -0.00000000000E+00 -0.00000000000E+00 -0.26383168795E+03  0.26383168795E+03  0.00000000000E+00 0. -1.
    9000007    2    1    2  502    0 -0.29007248288E+01  0.10913776908E+03  0.14747931382E+03  0.44548384241E+03  0.40593871335E+03 0.  0.
    9000005    1    3    3    0    0  0.10857031277E+03  0.75986832897E+02 -0.10397161378E+03  0.16844170521E+03  0.99999687468E+00 0.  0.
          4    1    3    3  502    0 -0.11147103760E+03  0.33150936184E+02  0.25145092760E+03  0.27704213720E+03  0.00000000000E+00 0.  1.
   -9000007    1    1    2    0  501  0.29007248288E+01 -0.10913776908E+03  0.25946372648E+03  0.48912257380E+03  0.40000000000E+03 0.  1.
<mgrwt>
<rscale>  2 0.41748791E+03</rscale>
<asrwt>0</asrwt>
<pdfrwt beam="1">  1        1 0.10319611E+00 0.41748791E+03</pdfrwt>
<pdfrwt beam="2">  1       -1 0.40589491E-01 0.41748791E+03</pdfrwt>
<totfact> 0.17917697E+02</totfact>
</mgrwt>
</event>
<event>
 6    1  0.8938744E-004  0.4784099E+03  0.7818608E-02  0.1019573E+00
         -1   -1    0    0    0  501 -0.00000000000E+00  0.00000000000E+00  0.23506085530E+03  0.23506085530E+03  0.00000000000E+00 0. -1.
          1   -1    0    0  502    0  0.00000000000E+00 -0.00000000000E+00 -0.10134184525E+04  0.10134184525E+04  0.00000000000E+00 0.  1.
    9000007    2    1    2  502    0  0.23009987380E+03  0.12658360145E+03 -0.26550318342E+03  0.54706002533E+03  0.39976664548E+03 0.  0.
    9000005    1    3    3    0    0  0.26596035931E+03 -0.43301672131E+02 -0.56463261199E+02  0.27531626794E+03  0.99999687468E+00 0.  0.
          4    1    3    3  502    0 -0.35860485511E+02  0.16988527358E+03 -0.20903992222E+03  0.27174375740E+03  0.00000000000E+00 0.  1.
   -9000007    1    1    2    0  501 -0.23009987380E+03 -0.12658360145E+03 -0.51285441378E+03  0.70141928246E+03  0.40000000000E+03 0.  1.
<mgrwt>
<rscale>  2 0.47840989E+03</rscale>
<asrwt>0</asrwt>
<pdfrwt beam="1">  1        1 0.15591053E+00 0.47840989E+03</pdfrwt>
<pdfrwt beam="2">  1       -1 0.36163209E-01 0.47840989E+03</pdfrwt>
<totfact> 0.11300184E+02</totfact>
</mgrwt>
</event>
<event>
 6    1  0.8938744E-004  0.4207252E+03  0.7818608E-02  0.1036831E+00
         -1   -1    0    0    0  501 -0.00000000000E+00  0.00000000000E+00  0.55284134717E+03  0.55284134717E+03  0.00000000000E+00 0. -1.
          1   -1    0    0  502    0  0.00000000000E+00 -0.00000000000E+00 -0.44403546329E+03  0.44403546329E+03  0.00000000000E+00 0.  1.
    9000007    2    1    2  502    0  0.12718344051E+03  0.51061651629E+02 -0.20902501444E+03  0.46791613165E+03  0.39556431815E+03 0.  0.
    9000005    1    3    3    0    0  0.26212946596E+03  0.24245878358E+02 -0.70170148366E+02  0.27244186400E+03  0.99999687468E+00 0.  0.
          4    1    3    3  502    0 -0.13494602545E+03  0.26815773272E+02 -0.13885486608E+03  0.19547426765E+03  0.00000000000E+00 0.  1.
   -9000007    1    1    2    0  501 -0.12718344051E+03 -0.51061651629E+02  0.31783089832E+03  0.52896067882E+03  0.40000000000E+03 0. -1.
<mgrwt>
<rscale>  2 0.42072520E+03</rscale>
<asrwt>0</asrwt>
<pdfrwt beam="1">  1        1 0.68313148E-01 0.42072520E+03</pdfrwt>
<pdfrwt beam="2">  1       -1 0.85052516E-01 0.42072520E+03</pdfrwt>
<totfact> 0.74981081E+01</totfact>
</mgrwt>
</event>
<event>
 6    1  0.8938744E-004  0.5887288E+03  0.7818608E-02  0.9929070E-01
          1   -1    0    0  502    0  0.00000000000E+00  0.00000000000E+00  0.39308952048E+03  0.39308952048E+03  0.00000000000E+00 0. -1.
         -1   -1    0    0    0  501 -0.00000000000E+00 -0.00000000000E+00 -0.88327021749E+03  0.88327021749E+03  0.00000000000E+00 0.  1.
    9000007    2    1    2  502    0  0.72149280113E+02  0.42620091590E+03 -0.27158959672E+03  0.64816008144E+03  0.39937181021E+03 0.  0.
    9000005    1    3    3    0    0  0.14928322129E+03  0.43666562732E+03 -0.11855250219E+03  0.47646410779E+03  0.99999687468E+00 0.  0.
          4    1    3    3  502    0 -0.77133941179E+02 -0.10464711416E+02 -0.15303709453E+03  0.17169597365E+03  0.00000000000E+00 0.  1.
   -9000007    1    1    2    0  501 -0.72149280113E+02 -0.42620091590E+03 -0.21859110029E+03  0.62819965653E+03  0.40000000000E+03 0. -1.
<mgrwt>
<rscale>  2 0.58872877E+03</rscale>
<asrwt>0</asrwt>
<pdfrwt beam="1">  1        1 0.60475311E-01 0.58872877E+03</pdfrwt>
<pdfrwt beam="2">  1       -1 0.13588772E+00 0.58872877E+03</pdfrwt>
<totfact> 0.28967682E+01</totfact>
</mgrwt>
</event>
<event>
 6    1  0.8938744E-004  0.4998488E+03  0.7818608E-02  0.1013818E+00
         -2   -1    0    0    0  501 -0.00000000000E+00  0.00000000000E+00  0.25908354074E+03  0.25908354074E+03  0.00000000000E+00 0. -1.
          2   -1    0    0  502    0  0.00000000000E+00 -0.00000000000E+00 -0.10300912734E+04  0.10300912734E+04  0.00000000000E+00 0.  1.
    9000007    2    1    2  502    0  0.26509161177E+03  0.13861405367E+03 -0.54859740453E+03  0.74240816136E+03  0.40090316448E+03 0.  0.
    9000005    1    3    3    0    0  0.47100591085E+02  0.23970740096E+03 -0.18436974410E+03  0.30605768458E+03  0.99999687468E+00 0.  0.
          4    1    3    3  502    0  0.21799102069E+03 -0.10109334729E+03 -0.36422766043E+03  0.43635047678E+03  0.00000000000E+00 0.  1.
   -9000007    1    1    2    0  501 -0.26509161177E+03 -0.13861405367E+03 -0.22241032809E+03  0.54676665274E+03  0.40000000000E+03 0. -1.
<mgrwt>
<rscale>  2 0.49984881E+03</rscale>
<asrwt>0</asrwt>
<pdfrwt beam="1">  1        2 0.15847558E+00 0.49984881E+03</pdfrwt>
<pdfrwt beam="2">  1       -2 0.39859007E-01 0.49984881E+03</pdfrwt>
<totfact> 0.14818738E+02</totfact>
</mgrwt>
</event>
<event>
 6    1  0.8938744E-004  0.6692285E+03  0.7818608E-02  0.9771352E-01
         -1   -1    0    0    0  501 -0.00000000000E+00  0.00000000000E+00  0.26543294581E+03  0.26543294581E+03  0.00000000000E+00 0. -1.
          1   -1    0    0  502    0  0.00000000000E+00 -0.00000000000E+00 -0.17570220960E+04  0.17570220960E+04  0.00000000000E+00 0.  1.
    9000007    2    1    2  502    0  0.41974167691E+03  0.33418794979E+03 -0.94722630524E+03  0.11597873375E+04  0.40000541717E+03 0.  0.
    9000005    1    3    3    0    0  0.23822123528E+03  0.30438177714E+03 -0.30684784462E+03  0.49351213049E+03  0.99999687468E+00 0.  0.
          4    1    3    3  502    0  0.18152044163E+03  0.29806172646E+02 -0.64037846061E+03  0.66627520701E+03  0.00000000000E+00 0.  1.
   -9000007    1    1    2    0  501 -0.41974167691E+03 -0.33418794979E+03 -0.54436284496E+03  0.86266770433E+03  0.40000000000E+03 0. -1.
<mgrwt>
<rscale>  2 0.66922853E+03</rscale>
<asrwt>0</asrwt>
<pdfrwt beam="1">  1        1 0.27031110E+00 0.66922853E+03</pdfrwt>
<pdfrwt beam="2">  1       -1 0.40835837E-01 0.66922853E+03</pdfrwt>
<totfact> 0.26761016E+01</totfact>
</mgrwt>
</event>
<event>
 6    1  0.8938744E-004  0.4587163E+03  0.7818608E-02  0.1025154E+00
         -2   -1    0    0    0  501 -0.00000000000E+00  0.00000000000E+00  0.17960957380E+03  0.17960957380E+03  0.00000000000E+00 0.  1.
          2   -1    0    0  502    0  0.00000000000E+00 -0.00000000000E+00 -0.12827068971E+04  0.12827068971E+04  0.00000000000E+00 0. -1.
    9000007    2    1    2  502    0 -0.39933202736E+02  0.22189664314E+03 -0.33581536872E+03  0.56813842444E+03  0.39896933033E+03 0.  0.
    9000005    1    3    3    0    0  0.48183967931E+02 -0.89941306174E+02 -0.79682010543E+00  0.10204297251E+03  0.99999687468E+00 0.  0.
          4    1    3    3  502    0 -0.88117170667E+02  0.31183794932E+03 -0.33501854861E+03  0.46609545194E+03  0.00000000000E+00 0.  1.
   -9000007    1    1    2    0  501  0.39933202736E+02 -0.22189664314E+03 -0.76728195456E+03  0.89417804643E+03  0.40000000000E+03 0. -1.
<mgrwt>
<rscale>  2 0.45871630E+03</rscale>
<asrwt>0</asrwt>
<pdfrwt beam="1">  1        2 0.19733952E+00 0.45871630E+03</pdfrwt>
<pdfrwt beam="2">  1       -2 0.27632242E-01 0.45871630E+03</pdfrwt>
<totfact> 0.20959310E+02</totfact>
</mgrwt>
</event>
<event>
 6    1  0.8938744E-004  0.4767172E+03  0.7818608E-02  0.1020041E+00
          2   -1    0    0  502    0  0.00000000000E+00  0.00000000000E+00  0.10746414292E+04  0.10746414292E+04  0.00000000000E+00 0. -1.
         -2   -1    0    0    0  501 -0.00000000000E+00 -0.00000000000E+00 -0.28498596844E+03  0.28498596844E+03  0.00000000000E+00 0.  1.
    9000007    2    1    2  502    0 -0.94861154945E+02  0.24197431961E+03  0.73990758236E+03  0.88001811760E+03  0.39927239675E+03 0.  0.
    9000005    1    3    3    0    0 -0.14118911009E+03 -0.60684195823E+02  0.36455305066E+03  0.39562212169E+03  0.99999687468E+00 0.  0.
          4    1    3    3  502    0  0.46327955145E+02  0.30265851543E+03  0.37535453170E+03  0.48439599591E+03  0.00000000000E+00 0.  1.
   -9000007    1    1    2    0  501  0.94861154945E+02 -0.24197431961E+03  0.49747878381E+02  0.47960928001E+03  0.40000000000E+03 0. -1.
<mgrwt>
<rscale>  2 0.47671716E+03</rscale>
<asrwt>0</asrwt>
<pdfrwt beam="1">  1        2 0.16532945E+00 0.47671716E+03</pdfrwt>
<pdfrwt beam="2">  1       -2 0.43843996E-01 0.47671716E+03</pdfrwt>
<totfact> 0.11579424E+02</totfact>
</mgrwt>
</event>
<event>
 6    1  0.8938744E-004  0.6091334E+03  0.7818608E-02  0.9886636E-01
          2   -1    0    0  502    0  0.00000000000E+00  0.00000000000E+00  0.20287954822E+04  0.20287954822E+04  0.00000000000E+00 0. -1.
         -2   -1    0    0    0  501 -0.00000000000E+00 -0.00000000000E+00 -0.24875207854E+03  0.24875207854E+03  0.00000000000E+00 0.  1.
    9000007    2    1    2  502    0  0.19876061395E+03 -0.41408098301E+03  0.30411585207E+03  0.68088511061E+03  0.40018650679E+03 0.  0.
    9000005    1    3    3    0    0  0.11259618826E+03 -0.27030525922E+03  0.39383610540E+03  0.49076543550E+03  0.99999687468E+00 0.  0.
          4    1    3    3  502    0  0.86164425696E+02 -0.14377572379E+03 -0.89720253327E+02  0.19011967511E+03  0.00000000000E+00 0.  1.
   -9000007    1    1    2    0  501 -0.19876061395E+03  0.41408098301E+03  0.14759275516E+04  0.15966624502E+04  0.40000000000E+03 0. -1.
<mgrwt>
<rscale>  2 0.60913336E+03</rscale>
<asrwt>0</asrwt>
<pdfrwt beam="1">  1        2 0.31212237E+00 0.60913336E+03</pdfrwt>
<pdfrwt beam="2">  1       -2 0.38269552E-01 0.60913336E+03</pdfrwt>
<totfact> 0.43654426E+01</totfact>
</mgrwt>
</event>
<event>
 6    1  0.8938744E-004  0.4084736E+03  0.7818608E-02  0.1040884E+00
          2   -1    0    0  502    0  0.00000000000E+00  0.00000000000E+00  0.57856215724E+03  0.57856215724E+03  0.00000000000E+00 0.  1.
         -2   -1    0    0    0  501 -0.00000000000E+00 -0.00000000000E+00 -0.32125180699E+03  0.32125180699E+03  0.00000000000E+00 0. -1.
    9000007    2    1    2  502    0  0.83407326976E+02  0.31271501544E+01  0.27251331288E+03  0.49091582125E+03  0.39971024079E+03 0.  0.
    9000005    1    3    3    0    0  0.14692165077E+03  0.28126509014E+02 -0.52709332626E+02  0.15860752099E+03  0.99999687468E+00 0.  0.
          4    1    3    3  502    0 -0.63514323793E+02 -0.24999358860E+02  0.32522264551E+03  0.33230830026E+03  0.00000000000E+00 0.  1.
   -9000007    1    1    2    0  501 -0.83407326976E+02 -0.31271501544E+01 -0.15202962627E+02  0.40889814298E+03  0.40000000000E+03 0.  1.
<mgrwt>
<rscale>  2 0.40847357E+03</rscale>
<asrwt>0</asrwt>
<pdfrwt beam="1">  1        2 0.89009562E-01 0.40847357E+03</pdfrwt>
<pdfrwt beam="2">  1       -2 0.49423355E-01 0.40847357E+03</pdfrwt>
<totfact> 0.20654292E+02</totfact>
</mgrwt>
</event>
<event>
 6    1  0.8938744E-004  0.4067342E+03  0.7818608E-02  0.1041472E+00
          1   -1    0    0  502    0  0.00000000000E+00  0.00000000000E+00  0.14034604600E+04  0.14034604600E+04  0.00000000000E+00 0. -1.
         -1   -1    0    0    0  501 -0.00000000000E+00 -0.00000000000E+00 -0.15827217247E+03  0.15827217247E+03  0.00000000000E+00 0.  1.
    9000007    2    1    2  502    0 -0.67201747702E+01 -0.12336709296E+02  0.23573464262E+03  0.47582563077E+03  0.41308819157E+03 0.  0.
    9000005    1    3    3    0    0 -0.17679348675E+03 -0.96957383441E+02  0.19711273410E+03  0.28197712868E+03  0.99999687468E+00 0.  0.
          4    1    3    3  502    0  0.17007331198E+03  0.84620674145E+02  0.38621908525E+02  0.19384850208E+03  0.00000000000E+00 0.  1.
   -9000007    1    1    2    0  501  0.67201747702E+01  0.12336709296E+02  0.10094536449E+04  0.10859070017E+04  0.40000000000E+03 0. -1.
<mgrwt>
<rscale>  2 0.40673423E+03</rscale>
<asrwt>0</asrwt>
<pdfrwt beam="1">  1        1 0.21591699E+00 0.40673423E+03</pdfrwt>
<pdfrwt beam="2">  1       -1 0.24349566E-01 0.40673423E+03</pdfrwt>
<totfact> 0.11885958E+02</totfact>
</mgrwt>
</event>
<event>
 6    1  0.8938744E-004  0.7358508E+03  0.7818608E-02  0.9657813E-01
          2   -1    0    0  502    0  0.00000000000E+00  0.00000000000E+00  0.88201669821E+03  0.88201669821E+03  0.00000000000E+00 0.  1.
         -2   -1    0    0    0  501 -0.00000000000E+00 -0.00000000000E+00 -0.61840969671E+03  0.61840969671E+03  0.00000000000E+00 0. -1.
    9000007    2    1    2  502    0  0.30489284953E+03 -0.53700997379E+03  0.67806535430E+02  0.73906105281E+03  0.40034254319E+03 0.  0.
    9000005    1    3    3    0    0  0.28203619330E+02 -0.19242410386E+03 -0.15073047987E+03  0.24605519187E+03  0.99999687468E+00 0.  0.
          4    1    3    3  502    0  0.27668923020E+03 -0.34458586993E+03  0.21853701530E+03  0.49300586094E+03  0.00000000000E+00 0.  1.
   -9000007    1    1    2    0  501 -0.30489284953E+03  0.53700997379E+03  0.19580046607E+03  0.76136534210E+03  0.40000000000E+03 0. -1.
<mgrwt>
<rscale>  2 0.73585081E+03</rscale>
<asrwt>0</asrwt>
<pdfrwt beam="1">  1        2 0.13569488E+00 0.73585081E+03</pdfrwt>
<pdfrwt beam="2">  1       -2 0.95139953E-01 0.73585081E+03</pdfrwt>
<totfact> 0.28469876E+01</totfact>
</mgrwt>
</event>
<event>
 6    1  0.8938744E-004  0.4350045E+03  0.7818608E-02  0.1032291E+00
          2   -1    0    0  502    0  0.00000000000E+00  0.00000000000E+00  0.22139831144E+03  0.22139831144E+03  0.00000000000E+00 0.  1.
         -2   -1    0    0    0  501 -0.00000000000E+00 -0.00000000000E+00 -0.11663019138E+04  0.11663019138E+04  0.00000000000E+00 0. -1.
    9000007    2    1    2  502    0  0.16810382198E+03 -0.15818532911E+02 -0.11447203254E+03  0.45061660404E+03  0.40179890077E+03 0.  0.
    9000005    1    3    3    0    0 -0.26446312081E+02  0.10614820032E+03 -0.18105344503E+03  0.21153769831E+03  0.99999687468E+00 0.  0.
          4    1    3    3  502    0  0.19455013406E+03 -0.12196673323E+03  0.66581412495E+02  0.23907890573E+03  0.00000000000E+00 0.  1.
   -9000007    1    1    2    0  501 -0.16810382198E+03  0.15818532911E+02 -0.83043156978E+03  0.93708362116E+03  0.40000000000E+03 0. -1.
<mgrwt>
<rscale>  2 0.43500451E+03</rscale>
<asrwt>0</asrwt>
<pdfrwt beam="1">  1        2 0.34061278E-01 0.43500451E+03</pdfrwt>
<pdfrwt beam="2">  1       -2 0.17943107E+00 0.43500451E+03</pdfrwt>
<totfact> 0.29429055E+01</totfact>
</mgrwt>
</event>
<event>
 6    1  0.8938744E-004  0.6678553E+03  0.7818608E-02  0.9773840E-01
         -2   -1    0    0    0  501 -0.00000000000E+00  0.00000000000E+00  0.36434966091E+03  0.36434966091E+03  0.00000000000E+00 0.  1.
          2   -1    0    0  502    0  0.00000000000E+00 -0.00000000000E+00 -0.12339398249E+04  0.12339398249E+04  0.00000000000E+00 0. -1.
    9000007    2    1    2  502    0 -0.12903224564E+03  0.51906747045E+03 -0.50583223109E+03  0.83776322523E+03  0.39987575100E+03 0.  0.
    9000005    1    3    3    0    0 -0.20319762866E+03  0.46786014511E+03 -0.53865723973E+03  0.74184568044E+03  0.99999687468E+00 0.  0.
          4    1    3    3  502    0  0.74165383017E+02  0.51207325341E+02  0.32825008640E+02  0.95917544792E+02  0.00000000000E+00 0.  1.
   -9000007    1    1    2    0  501  0.12903224564E+03 -0.51906747045E+03 -0.36375793288E+03  0.76052626058E+03  0.40000000000E+03 0. -1.
<mgrwt>
<rscale>  2 0.66785527E+03</rscale>
<asrwt>0</asrwt>
<pdfrwt beam="1">  1        2 0.18983690E+00 0.66785527E+03</pdfrwt>
<pdfrwt beam="2">  1       -2 0.56053793E-01 0.66785527E+03</pdfrwt>
<totfact> 0.55440754E+01</totfact>
</mgrwt>
</event>
<event>
 6    1  0.8938744E-004  0.4799371E+03  0.7818608E-02  0.1019152E+00
         -2   -1    0    0    0  501 -0.00000000000E+00  0.00000000000E+00  0.15895526669E+03  0.15895526669E+03  0.00000000000E+00 0.  1.
          2   -1    0    0  502    0  0.00000000000E+00 -0.00000000000E+00 -0.19231002107E+04  0.19231002107E+04  0.00000000000E+00 0. -1.
    9000007    2    1    2  502    0  0.17888277756E+03 -0.19608565057E+03 -0.36507348838E+03  0.60291736064E+03  0.39972748388E+03 0.  0.
    9000005    1    3    3    0    0 -0.10930595992E+03 -0.12774353109E+03 -0.20867587282E+03  0.26797914565E+03  0.99999687468E+00 0.  0.
          4    1    3    3  502    0  0.28818873748E+03 -0.68342119476E+02 -0.15639761556E+03  0.33493821499E+03  0.00000000000E+00 0.  1.
   -9000007    1    1    2    0  501 -0.17888277756E+03  0.19608565057E+03 -0.13990714556E+04  0.14791381167E+04  0.40000000000E+03 0. -1.
<mgrwt>
<rscale>  2 0.47993712E+03</rscale>
<asrwt>0</asrwt>
<pdfrwt beam="1">  1        2 0.29586157E+00 0.47993712E+03</pdfrwt>
<pdfrwt beam="2">  1       -2 0.24454657E-01 0.47993712E+03</pdfrwt>
<totfact> 0.11649009E+02</totfact>
</mgrwt>
</event>
<event>
 6    1  0.8938744E-004  0.5225526E+03  0.7818608E-02  0.1008054E+00
         -1   -1    0    0    0  501 -0.00000000000E+00  0.00000000000E+00  0.95122611991E+02  0.95122611991E+02  0.00000000000E+00 0. -1.
          1   -1    0    0  502    0  0.00000000000E+00 -0.00000000000E+00 -0.29310563778E+04  0.29310563778E+04  0.00000000000E+00 0.  1.
    9000007    2    1    2  502    0 -0.33209024509E+03  0.52042545672E+02 -0.12008773074E+04  0.13096703299E+04  0.40017209802E+03 0.  0.
    9000005    1    3    3    0    0 -0.36562242255E+03  0.14129104772E+03 -0.72342980641E+03  0.82279681625E+03  0.99999687468E+00 0.  0.
          4    1    3    3  502    0  0.33532177459E+02 -0.89248502052E+02 -0.47744750103E+03  0.48687351364E+03  0.00000000000E+00 0.  1.
   -9000007    1    1    2    0  501  0.33209024509E+03 -0.52042545672E+02 -0.16350564583E+04  0.17165086599E+04  0.40000000000E+03 0.  1.
<mgrwt>
<rscale>  2 0.52255258E+03</rscale>
<asrwt>0</asrwt>
<pdfrwt beam="1">  1        1 0.45093179E+00 0.52255258E+03</pdfrwt>
<pdfrwt beam="2">  1       -1 0.14634247E-01 0.52255258E+03</pdfrwt>
<totfact> 0.25241132E+01</totfact>
</mgrwt>
</event>
<event>
 6    1  0.8938744E-004  0.5977432E+03  0.7818608E-02  0.9910099E-01
          1   -1    0    0  502    0  0.00000000000E+00  0.00000000000E+00  0.16627617469E+04  0.16627617469E+04  0.00000000000E+00 0.  1.
         -1   -1    0    0    0  501 -0.00000000000E+00 -0.00000000000E+00 -0.26765394163E+03  0.26765394163E+03  0.00000000000E+00 0. -1.
    9000007    2    1    2  502    0  0.44449018383E+03  0.11848991967E+02  0.26864397359E+03  0.65502057870E+03  0.39896171725E+03 0.  0.
    9000005    1    3    3    0    0  0.31480761799E+03  0.14073666050E+02 -0.42451586605E+02  0.31797018983E+03  0.99999687468E+00 0.  0.
          4    1    3    3  502    0  0.12968256584E+03 -0.22246740837E+01  0.31109556020E+03  0.33705038886E+03  0.00000000000E+00 0.  1.
   -9000007    1    1    2    0  501 -0.44449018383E+03 -0.11848991967E+02  0.11264638317E+04  0.12753951099E+04  0.40000000000E+03 0.  1.
<mgrwt>
<rscale>  2 0.59774318E+03</rscale>
<asrwt>0</asrwt>
<pdfrwt beam="1">  1        1 0.25580949E+00 0.59774318E+03</pdfrwt>
<pdfrwt beam="2">  1       -1 0.41177530E-01 0.59774318E+03</pdfrwt>
<totfact> 0.30811832E+01</totfact>
</mgrwt>
</event>
<event>
 6    1  0.8938744E-004  0.6756978E+03  0.7818608E-02  0.9759719E-01
          2   -1    0    0  502    0  0.00000000000E+00  0.00000000000E+00  0.25168339352E+04  0.25168339352E+04  0.00000000000E+00 0. -1.
         -2   -1    0    0    0  501 -0.00000000000E+00 -0.00000000000E+00 -0.19048753970E+03  0.19048753970E+03  0.00000000000E+00 0.  1.
    9000007    2    1    2  502    0  0.37737982176E+03  0.39252086207E+03  0.86769363081E+03  0.10997904348E+04  0.40019820893E+03 0.  0.
    9000005    1    3    3    0    0  0.56481975544E+02  0.24467029483E+03  0.61822216632E+03  0.66727311774E+03  0.99999687468E+00 0.  0.
          4    1    3    3  502    0  0.32089784622E+03  0.14785056724E+03  0.24947146450E+03  0.43251731704E+03  0.00000000000E+00 0.  1.
   -9000007    1    1    2    0  501 -0.37737982176E+03 -0.39252086207E+03  0.14586527647E+04  0.16075310401E+04  0.40000000000E+03 0. -1.
<mgrwt>
<rscale>  2 0.67569775E+03</rscale>
<asrwt>0</asrwt>
<pdfrwt beam="1">  1        2 0.38720520E+00 0.67569775E+03</pdfrwt>
<pdfrwt beam="2">  1       -2 0.29305777E-01 0.67569775E+03</pdfrwt>
<totfact> 0.38417357E+01</totfact>
</mgrwt>
</event>
<event>
 6    1  0.8938744E-004  0.6230516E+03  0.7818608E-02  0.9858703E-01
         -2   -1    0    0    0  501 -0.00000000000E+00  0.00000000000E+00  0.38969472991E+03  0.38969472991E+03  0.00000000000E+00 0.  1.
          2   -1    0    0  502    0  0.00000000000E+00 -0.00000000000E+00 -0.20632277484E+04  0.20632277484E+04  0.00000000000E+00 0. -1.
    9000007    2    1    2  502    0  0.19184328741E+03  0.43770818410E+03 -0.17186837761E+04  0.18280777838E+04  0.39950239067E+03 0.  0.
    9000005    1    3    3    0    0  0.26545861020E+03  0.40395488120E+03 -0.10670189767E+04  0.11714001521E+04  0.99999687468E+00 0.  0.
          4    1    3    3  502    0 -0.73615322784E+02  0.33753302903E+02 -0.65166479934E+03  0.65667763165E+03  0.00000000000E+00 0.  1.
   -9000007    1    1    2    0  501 -0.19184328741E+03 -0.43770818410E+03  0.45150757564E+02  0.62484469452E+03  0.40000000000E+03 0.  1.
<mgrwt>
<rscale>  2 0.62305163E+03</rscale>
<asrwt>0</asrwt>
<pdfrwt beam="1">  1        2 0.31741966E+00 0.62305163E+03</pdfrwt>
<pdfrwt beam="2">  1       -2 0.59953035E-01 0.62305163E+03</pdfrwt>
<totfact> 0.16892963E+01</totfact>
</mgrwt>
</event>
<event>
 6    1  0.8938744E-004  0.4043752E+03  0.7818608E-02  0.1042275E+00
         -3   -1    0    0    0  501 -0.00000000000E+00  0.00000000000E+00  0.26136028327E+03  0.26136028327E+03  0.00000000000E+00 0. -1.
          3   -1    0    0  502    0  0.00000000000E+00 -0.00000000000E+00 -0.62892486215E+03  0.62892486215E+03  0.00000000000E+00 0.  1.
    9000007    2    1    2  502    0  0.25374030275E+02  0.52986380462E+02 -0.21595527937E+03  0.45850189236E+03  0.40016984479E+03 0.  0.
    9000005    1    3    3    0    0  0.89497081155E+02  0.12523014846E+03  0.60703995222E+02  0.16546387113E+03  0.99999687468E+00 0.  0.
          4    1    3    3  502    0 -0.64123050879E+02 -0.72243768003E+02 -0.27665927459E+03  0.29303802123E+03  0.00000000000E+00 0.  1.
   -9000007    1    1    2    0  501 -0.25374030275E+02 -0.52986380462E+02 -0.15160929951E+03  0.43178325306E+03  0.40000000000E+03 0. -1.
<mgrwt>
<rscale>  2 0.40437524E+03</rscale>
<asrwt>0</asrwt>
<pdfrwt beam="1">  1        3 0.96757670E-01 0.40437524E+03</pdfrwt>
<pdfrwt beam="2">  1       -3 0.40209275E-01 0.40437524E+03</pdfrwt>
<totfact> 0.15086997E+01</totfact>
</mgrwt>
</event>
<event>
 6    1  0.8938744E-004  0.5869182E+03  0.7818608E-02  0.9932924E-01
          2   -1    0    0  502    0  0.00000000000E+00  0.00000000000E+00  0.14666860908E+04  0.14666860908E+04  0.00000000000E+00 0. -1.
         -2   -1    0    0    0  501 -0.00000000000E+00 -0.00000000000E+00 -0.24534883969E+03  0.24534883969E+03  0.00000000000E+00 0.  1.
    9000007    2    1    2  502    0 -0.17026849547E+03 -0.39453889683E+03  0.78746770260E+03  0.98203829572E+03  0.39955166118E+03 0.  0.
    9000005    1    3    3    0    0 -0.15207627432E+03 -0.42532868078E+03  0.81838405081E+03  0.93476474822E+03  0.99999687468E+00 0.  0.
          4    1    3    3  502    0 -0.18192221151E+02  0.30789783944E+02 -0.30916348215E+02  0.47273547494E+02  0.00000000000E+00 0.  1.
   -9000007    1    1    2    0  501  0.17026849547E+03  0.39453889683E+03  0.43386954853E+03  0.72999663479E+03  0.40000000000E+03 0.  1.
<mgrwt>
<rscale>  2 0.58691824E+03</rscale>
<asrwt>0</asrwt>
<pdfrwt beam="1">  1        2 0.22564401E+00 0.58691824E+03</pdfrwt>
<pdfrwt beam="2">  1       -2 0.37745976E-01 0.58691824E+03</pdfrwt>
<totfact> 0.90940069E+01</totfact>
</mgrwt>
</event>
<event>
 6    1  0.8938744E-004  0.4514278E+03  0.7818608E-02  0.1027297E+00
         -2   -1    0    0    0  501 -0.00000000000E+00  0.00000000000E+00  0.30845676735E+03  0.30845676735E+03  0.00000000000E+00 0. -1.
          2   -1    0    0  502    0  0.00000000000E+00 -0.00000000000E+00 -0.70999267398E+03  0.70999267398E+03  0.00000000000E+00 0.  1.
    9000007    2    1    2  502    0 -0.21619332811E+03 -0.13696050738E+02 -0.65174514726E+02  0.45270557447E+03  0.39213197123E+03 0.  0.
    9000005    1    3    3    0    0 -0.78368328821E+02 -0.19082351159E+03  0.30865184019E+02  0.20858779234E+03  0.99999687468E+00 0.  0.
          4    1    3    3  502    0 -0.13782499929E+03  0.17712746085E+03 -0.96039698745E+02  0.24411778212E+03  0.00000000000E+00 0.  1.
   -9000007    1    1    2    0  501  0.21619332811E+03  0.13696050738E+02 -0.33636139191E+03  0.56574386686E+03  0.40000000000E+03 0.  1.
<mgrwt>
<rscale>  2 0.45142779E+03</rscale>
<asrwt>0</asrwt>
<pdfrwt beam="1">  1        2 0.10922964E+00 0.45142779E+03</pdfrwt>
<pdfrwt beam="2">  1       -2 0.47454887E-01 0.45142779E+03</pdfrwt>
<totfact> 0.17438534E+02</totfact>
</mgrwt>
</event>
<event>
 6    1  0.8938744E-004  0.4476353E+03  0.7818608E-02  0.1028430E+00
         -4   -1    0    0    0  501 -0.00000000000E+00  0.00000000000E+00  0.38754883330E+03  0.38754883330E+03  0.00000000000E+00 0.  1.
          4   -1    0    0  502    0  0.00000000000E+00 -0.00000000000E+00 -0.59692921999E+03  0.59692921999E+03  0.00000000000E+00 0. -1.
    9000007    2    1    2  502    0 -0.17424878241E+03 -0.79089044103E+02 -0.28556945744E+03  0.53456418423E+03  0.40937908712E+03 0.  0.
    9000005    1    3    3    0    0  0.10356789369E+02  0.67224195370E+02 -0.29110053540E+03  0.29894293307E+03  0.99999687468E+00 0.  0.
          4    1    3    3  502    0 -0.18460557177E+03 -0.14631323947E+03  0.55310779563E+01  0.23562125116E+03  0.00000000000E+00 0.  1.
   -9000007    1    1    2    0  501  0.17424878241E+03  0.79089044103E+02  0.76189070754E+02  0.44991386906E+03  0.40000000000E+03 0.  1.
<mgrwt>
<rscale>  2 0.44763533E+03</rscale>
<asrwt>0</asrwt>
<pdfrwt beam="1">  1        4 0.91835264E-01 0.44763533E+03</pdfrwt>
<pdfrwt beam="2">  1       -4 0.59622898E-01 0.44763533E+03</pdfrwt>
<totfact> 0.51983018E+00</totfact>
</mgrwt>
</event>
<event>
 6    1  0.8938744E-004  0.4040168E+03  0.7818608E-02  0.1042398E+00
         -2   -1    0    0    0  501 -0.00000000000E+00  0.00000000000E+00  0.45358736067E+03  0.45358736067E+03  0.00000000000E+00 0.  1.
          2   -1    0    0  502    0  0.00000000000E+00 -0.00000000000E+00 -0.36368546581E+03  0.36368546581E+03  0.00000000000E+00 0. -1.
    9000007    2    1    2  502    0 -0.53253941835E+02  0.20248175814E+02  0.86839108463E+02  0.41322412693E+03  0.39995896961E+03 0.  0.
    9000005    1    3    3    0    0  0.15572691807E+03  0.49333715070E+02 -0.38466715647E+02  0.16782543509E+03  0.99999687468E+00 0.  0.
          4    1    3    3  502    0 -0.20898085991E+03 -0.29085539256E+02  0.12530582411E+03  0.24539869184E+03  0.00000000000E+00 0.  1.
   -9000007    1    1    2    0  501  0.53253941835E+02 -0.20248175814E+02  0.30627863943E+01  0.40404869955E+03  0.40000000000E+03 0. -1.
<mgrwt>
<rscale>  2 0.40401678E+03</rscale>
<asrwt>0</asrwt>
<pdfrwt beam="1">  1        2 0.55951610E-01 0.40401678E+03</pdfrwt>
<pdfrwt beam="2">  1       -2 0.69782671E-01 0.40401678E+03</pdfrwt>
<totfact> 0.17002071E+02</totfact>
</mgrwt>
</event>
<event>
 6    1  0.8938744E-004  0.4498533E+03  0.7818608E-02  0.1027766E+00
          2   -1    0    0  502    0  0.00000000000E+00  0.00000000000E+00  0.20629017167E+04  0.20629017167E+04  0.00000000000E+00 0.  1.
         -2   -1    0    0    0  501 -0.00000000000E+00 -0.00000000000E+00 -0.14603004614E+03  0.14603004614E+03  0.00000000000E+00 0. -1.
    9000007    2    1    2  502    0  0.14219919720E+03  0.14773103547E+03  0.32618745169E+03  0.55595827405E+03  0.40080703376E+03 0.  0.
    9000005    1    3    3    0    0  0.88120250623E+02  0.28730636435E+03  0.21609763283E+03  0.37014769008E+03  0.99999687468E+00 0.  0.
          4    1    3    3  502    0  0.54078946575E+02 -0.13957532888E+03  0.11008981887E+03  0.18581058396E+03  0.00000000000E+00 0.  1.
   -9000007    1    1    2    0  501 -0.14219919720E+03 -0.14773103547E+03  0.15906842189E+04  0.16529734888E+04  0.40000000000E+03 0.  1.
<mgrwt>
<rscale>  2 0.44985326E+03</rscale>
<asrwt>0</asrwt>
<pdfrwt beam="1">  1        2 0.31736947E+00 0.44985326E+03</pdfrwt>
<pdfrwt beam="2">  1       -2 0.22466162E-01 0.44985326E+03</pdfrwt>
<totfact> 0.11446936E+02</totfact>
</mgrwt>
</event>
<event>
 6    1  0.8938744E-004  0.4383211E+03  0.7818608E-02  0.1031263E+00
          1   -1    0    0  502    0  0.00000000000E+00  0.00000000000E+00  0.14565732153E+04  0.14565732153E+04  0.00000000000E+00 0.  1.
         -1   -1    0    0    0  501 -0.00000000000E+00 -0.00000000000E+00 -0.27049270892E+03  0.27049270892E+03  0.00000000000E+00 0. -1.
    9000007    2    1    2  502    0  0.17922699618E+03 -0.13221238765E+02 -0.25201667458E+02  0.43884947424E+03  0.39957054406E+03 0.  0.
    9000005    1    3    3    0    0  0.28684489999E+03 -0.95697674084E+01 -0.10416025953E+03  0.30532267646E+03  0.99999687468E+00 0.  0.
          4    1    3    3  502    0 -0.10761790381E+03 -0.36514713564E+01  0.78958592071E+02  0.13352679778E+03  0.00000000000E+00 0.  1.
   -9000007    1    1    2    0  501 -0.17922699618E+03  0.13221238765E+02  0.12112821738E+04  0.12882164499E+04  0.40000000000E+03 0.  1.
<mgrwt>
<rscale>  2 0.43832106E+03</rscale>
<asrwt>0</asrwt>
<pdfrwt beam="1">  1        1 0.22408818E+00 0.43832106E+03</pdfrwt>
<pdfrwt beam="2">  1       -1 0.41614264E-01 0.43832106E+03</pdfrwt>
<totfact> 0.42798945E+01</totfact>
</mgrwt>
</event>
<event>
 6    1  0.8938744E-004  0.5298568E+03  0.7818608E-02  0.1006267E+00
         -2   -1    0    0    0  501 -0.00000000000E+00  0.00000000000E+00  0.31434446757E+03  0.31434446757E+03  0.00000000000E+00 0. -1.
          2   -1    0    0  502    0  0.00000000000E+00 -0.00000000000E+00 -0.10765194433E+04  0.10765194433E+04  0.00000000000E+00 0.  1.
    9000007    2    1    2  502    0  0.19992045157E+03 -0.28502427272E+03 -0.66786675443E+03  0.85225360311E+03  0.39885232776E+03 0.  0.
    9000005    1    3    3    0    0  0.55016724001E+01  0.85200933639E+02 -0.31951893530E+02  0.91166830514E+02  0.99999687468E+00 0.  0.
          4    1    3    3  502    0  0.19441877917E+03 -0.37022520635E+03 -0.63591486090E+03  0.76108677260E+03  0.00000000000E+00 0.  1.
   -9000007    1    1    2    0  501 -0.19992045157E+03  0.28502427272E+03 -0.94308221268E+02  0.53861030773E+03  0.40000000000E+03 0. -1.
<mgrwt>
<rscale>  2 0.52985681E+03</rscale>
<asrwt>0</asrwt>
<pdfrwt beam="1">  1        2 0.16561837E+00 0.52985681E+03</pdfrwt>
<pdfrwt beam="2">  1       -2 0.48360688E-01 0.52985681E+03</pdfrwt>
<totfact> 0.94450712E+01</totfact>
</mgrwt>
</event>
<event>
 6    1  0.8938744E-004  0.4124819E+03  0.7818608E-02  0.1039541E+00
         -2   -1    0    0    0  501 -0.00000000000E+00  0.00000000000E+00  0.27841799135E+03  0.27841799135E+03  0.00000000000E+00 0. -1.
          2   -1    0    0  502    0  0.00000000000E+00 -0.00000000000E+00 -0.61211083521E+03  0.61211083521E+03  0.00000000000E+00 0.  1.
    9000007    2    1    2  502    0 -0.11193792318E+02 -0.99537193860E+02 -0.14880891213E+03  0.43862726410E+03  0.40027094640E+03 0.  0.
    9000005    1    3    3    0    0  0.11370014145E+02 -0.14524372381E+03  0.10510529930E+03  0.17964726678E+03  0.99999687468E+00 0.  0.
          4    1    3    3  502    0 -0.22563806463E+02  0.45706529952E+02 -0.25391421143E+03  0.25897999732E+03  0.00000000000E+00 0.  1.
   -9000007    1    1    2    0  501  0.11193792318E+02  0.99537193860E+02 -0.18488393172E+03  0.45190156246E+03  0.40000000000E+03 0. -1.
<mgrwt>
<rscale>  2 0.41248192E+03</rscale>
<asrwt>0</asrwt>
<pdfrwt beam="1">  1        2 0.94170897E-01 0.41248192E+03</pdfrwt>
<pdfrwt beam="2">  1       -2 0.42833537E-01 0.41248192E+03</pdfrwt>
<totfact> 0.25658528E+02</totfact>
</mgrwt>
</event>
<event>
 6    1  0.8938744E-004  0.4197941E+03  0.7818608E-02  0.1037133E+00
          1   -1    0    0  502    0  0.00000000000E+00  0.00000000000E+00  0.23088207469E+03  0.23088207469E+03  0.00000000000E+00 0. -1.
         -1   -1    0    0    0  501 -0.00000000000E+00 -0.00000000000E+00 -0.77458667854E+03  0.77458667854E+03  0.00000000000E+00 0.  1.
    9000007    2    1    2  502    0  0.19104842406E+02  0.12881163512E+03 -0.21056064124E+03  0.46886617016E+03  0.39817366755E+03 0.  0.
    9000005    1    3    3    0    0  0.34721328370E+02  0.16120613232E+03  0.74921667579E+02  0.18112770083E+03  0.99999687468E+00 0.  0.
          4    1    3    3  502    0 -0.15616485965E+02 -0.32394497204E+02 -0.28548230882E+03  0.28773846933E+03  0.00000000000E+00 0.  1.
   -9000007    1    1    2    0  501 -0.19104842406E+02 -0.12881163512E+03 -0.33314396261E+03  0.53660258308E+03  0.40000000000E+03 0.  1.
<mgrwt>
<rscale>  2 0.41979407E+03</rscale>
<asrwt>0</asrwt>
<pdfrwt beam="1">  1        1 0.35520320E-01 0.41979407E+03</pdfrwt>
<pdfrwt beam="2">  1       -1 0.11916718E+00 0.41979407E+03</pdfrwt>
<totfact> 0.81227391E+01</totfact>
</mgrwt>
</event>
<event>
 6    1  0.8938744E-004  0.5691467E+03  0.7818608E-02  0.9971569E-01
          3   -1    0    0  502    0  0.00000000000E+00  0.00000000000E+00  0.20493781876E+03  0.20493781876E+03  0.00000000000E+00 0.  1.
         -3   -1    0    0    0  501 -0.00000000000E+00 -0.00000000000E+00 -0.16686071907E+04  0.16686071907E+04  0.00000000000E+00 0. -1.
    9000007    2    1    2  502    0  0.31163003989E+03  0.25820390424E+03 -0.51687190584E+03  0.76891476375E+03  0.40036334614E+03 0.  0.
    9000005    1    3    3    0    0  0.19291789070E+03 -0.42363121025E+02 -0.35786196910E+03  0.40875192415E+03  0.99999687468E+00 0.  0.
          4    1    3    3  502    0  0.11871214919E+03  0.30056702527E+03 -0.15900993675E+03  0.36016283960E+03  0.00000000000E+00 0.  1.
   -9000007    1    1    2    0  501 -0.31163003989E+03 -0.25820390424E+03 -0.94679746613E+03  0.11046302457E+04  0.40000000000E+03 0.  1.
<mgrwt>
<rscale>  2 0.56914665E+03</rscale>
<asrwt>0</asrwt>
<pdfrwt beam="1">  1        3 0.31528896E-01 0.56914665E+03</pdfrwt>
<pdfrwt beam="2">  1       -3 0.25670879E+00 0.56914665E+03</pdfrwt>
<totfact> 0.17679448E+00</totfact>
</mgrwt>
</event>
<event>
 6    1  0.8938744E-004  0.5220024E+03  0.7818608E-02  0.1008190E+00
         -2   -1    0    0    0  501 -0.00000000000E+00  0.00000000000E+00  0.35280630853E+03  0.35280630853E+03  0.00000000000E+00 0.  1.
          2   -1    0    0  502    0  0.00000000000E+00 -0.00000000000E+00 -0.96767212872E+03  0.96767212872E+03  0.00000000000E+00 0. -1.
    9000007    2    1    2  502    0 -0.14643500360E+03  0.30187107968E+03 -0.10759725528E+02  0.52203399169E+03  0.39979289359E+03 0.  0.
    9000005    1    3    3    0    0  0.28459184242E+02  0.12680731965E+03 -0.18016160583E+03  0.22214685614E+03  0.99999687468E+00 0.  0.
          4    1    3    3  502    0 -0.17489418785E+03  0.17506376003E+03  0.16940188030E+03  0.29988713555E+03  0.00000000000E+00 0.  1.
   -9000007    1    1    2    0  501  0.14643500360E+03 -0.30187107968E+03 -0.60410609466E+03  0.79844444555E+03  0.40000000000E+03 0. -1.
<mgrwt>
<rscale>  2 0.52200242E+03</rscale>
<asrwt>0</asrwt>
<pdfrwt beam="1">  1        2 0.14887264E+00 0.52200242E+03</pdfrwt>
<pdfrwt beam="2">  1       -2 0.54277894E-01 0.52200242E+03</pdfrwt>
<totfact> 0.87405674E+01</totfact>
</mgrwt>
</event>
<event>
 6    1  0.8938744E-004  0.4328600E+03  0.7818608E-02  0.1032960E+00
         -2   -1    0    0    0  501 -0.00000000000E+00  0.00000000000E+00  0.27692834648E+03  0.27692834648E+03  0.00000000000E+00 0.  1.
          2   -1    0    0  502    0  0.00000000000E+00 -0.00000000000E+00 -0.69194912270E+03  0.69194912270E+03  0.00000000000E+00 0. -1.
    9000007    2    1    2  502    0  0.66683976185E+02  0.15205858941E+03 -0.13523445702E+03  0.45327204668E+03  0.39949796325E+03 0.  0.
    9000005    1    3    3    0    0 -0.89009638061E+02  0.19169298631E+03 -0.18932698616E+03  0.28375099005E+03  0.99999687468E+00 0.  0.
          4    1    3    3  502    0  0.15569361425E+03 -0.39634396902E+02  0.54092529139E+02  0.16952105664E+03  0.00000000000E+00 0.  1.
   -9000007    1    1    2    0  501 -0.66683976185E+02 -0.15205858941E+03 -0.27978631920E+03  0.51560542250E+03  0.40000000000E+03 0.  1.
<mgrwt>
<rscale>  2 0.43285999E+03</rscale>
<asrwt>0</asrwt>
<pdfrwt beam="1">  1        2 0.10645371E+00 0.43285999E+03</pdfrwt>
<pdfrwt beam="2">  1       -2 0.42604361E-01 0.43285999E+03</pdfrwt>
<totfact> 0.22315590E+02</totfact>
</mgrwt>
</event>
<event>
 6    1  0.8938744E-004  0.5473928E+03  0.7818608E-02  0.1002099E+00
         -1   -1    0    0    0  501 -0.00000000000E+00  0.00000000000E+00  0.10823517007E+03  0.10823517007E+03  0.00000000000E+00 0. -1.
          1   -1    0    0  502    0  0.00000000000E+00 -0.00000000000E+00 -0.28773255815E+04  0.28773255815E+04  0.00000000000E+00 0.  1.
    9000007    2    1    2  502    0  0.32628072916E+03 -0.18538022075E+03 -0.16723380017E+04  0.17593100477E+04  0.39702961046E+03 0.  0.
    9000005    1    3    3    0    0  0.20889315899E+03 -0.28572174269E+03 -0.82047134868E+03  0.89355889572E+03  0.99999687468E+00 0.  0.
          4    1    3    3  502    0  0.11738757017E+03  0.10034152194E+03 -0.85186665298E+03  0.86575115195E+03  0.00000000000E+00 0.  1.
   -9000007    1    1    2    0  501 -0.32628072916E+03  0.18538022075E+03 -0.10967524098E+04  0.12262507039E+04  0.40000000000E+03 0. -1.
<mgrwt>
<rscale>  2 0.54739278E+03</rscale>
<asrwt>0</asrwt>
<pdfrwt beam="1">  1        1 0.44266540E+00 0.54739278E+03</pdfrwt>
<pdfrwt beam="2">  1       -1 0.16651567E-01 0.54739278E+03</pdfrwt>
<totfact> 0.22220599E+01</totfact>
</mgrwt>
</event>
<event>
 6    1  0.8938744E-004  0.5679943E+03  0.7818608E-02  0.9974127E-01
          1   -1    0    0  502    0  0.00000000000E+00  0.00000000000E+00  0.36061931581E+04  0.36061931581E+04  0.00000000000E+00 0.  1.
         -1   -1    0    0    0  501 -0.00000000000E+00 -0.00000000000E+00 -0.12774817691E+03  0.12774817691E+03  0.00000000000E+00 0. -1.
    9000007    2    1    2  502    0 -0.38760776231E+03 -0.11093441004E+03  0.27614271889E+04  0.28192497284E+04  0.40017832371E+03 0.  0.
    9000005    1    3    3    0    0 -0.14824120582E+03  0.83829386704E+02  0.18326991522E+04  0.18405950135E+04  0.99999687468E+00 0.  0.
          4    1    3    3  502    0 -0.23936655649E+03 -0.19476379674E+03  0.92872803668E+03  0.97865471491E+03  0.00000000000E+00 0.  1.
   -9000007    1    1    2    0  501  0.38760776231E+03  0.11093441004E+03  0.71701779229E+03  0.91469160660E+03  0.40000000000E+03 0.  1.
<mgrwt>
<rscale>  2 0.56799433E+03</rscale>
<asrwt>0</asrwt>
<pdfrwt beam="1">  1        1 0.55479887E+00 0.56799433E+03</pdfrwt>
<pdfrwt beam="2">  1       -1 0.19653568E-01 0.56799433E+03</pdfrwt>
<totfact> 0.48758731E+00</totfact>
</mgrwt>
</event>
<event>
 6    1  0.8938744E-004  0.5729028E+03  0.7818608E-02  0.9963276E-01
         -1   -1    0    0    0  501 -0.00000000000E+00  0.00000000000E+00  0.25355402939E+03  0.25355402939E+03  0.00000000000E+00 0. -1.
          1   -1    0    0  502    0  0.00000000000E+00 -0.00000000000E+00 -0.15902577464E+04  0.15902577464E+04  0.00000000000E+00 0.  1.
    9000007    2    1    2  502    0  0.32826130497E+03  0.24879683842E+03 -0.26956983858E+03  0.63202381347E+03  0.39639734077E+03 0.  0.
    9000005    1    3    3    0    0 -0.27743814409E+02 -0.49488400824E+02 -0.13813363079E+03  0.14933425931E+03  0.99999687468E+00 0.  0.
          4    1    3    3  502    0  0.35600511938E+03  0.29828523925E+03 -0.13143620779E+03  0.48268955416E+03  0.00000000000E+00 0.  1.
   -9000007    1    1    2    0  501 -0.32826130497E+03 -0.24879683842E+03 -0.10671338785E+04  0.12117879624E+04  0.40000000000E+03 0. -1.
<mgrwt>
<rscale>  2 0.57290282E+03</rscale>
<asrwt>0</asrwt>
<pdfrwt beam="1">  1        1 0.24465504E+00 0.57290282E+03</pdfrwt>
<pdfrwt beam="2">  1       -1 0.39008312E-01 0.57290282E+03</pdfrwt>
<totfact> 0.38168357E+01</totfact>
</mgrwt>
</event>
<event>
 6    1  0.8938744E-004  0.4278684E+03  0.7818608E-02  0.1034535E+00
          2   -1    0    0  502    0  0.00000000000E+00  0.00000000000E+00  0.12086365707E+04  0.12086365707E+04  0.00000000000E+00 0.  1.
         -2   -1    0    0    0  501 -0.00000000000E+00 -0.00000000000E+00 -0.15854302788E+03  0.15854302788E+03  0.00000000000E+00 0. -1.
    9000007    2    1    2  502    0 -0.68947994382E+01 -0.15224508253E+03  0.66922747321E+03  0.79421793635E+03  0.39961308300E+03 0.  0.
    9000005    1    3    3    0    0  0.15160803401E+03  0.59755589900E+02  0.25899761286E+03  0.30600080059E+03  0.99999687468E+00 0.  0.
          4    1    3    3  502    0 -0.15850283345E+03 -0.21200067243E+03  0.41022986035E+03  0.48821713575E+03  0.00000000000E+00 0.  1.
   -9000007    1    1    2    0  501  0.68947994382E+01  0.15224508253E+03  0.38086606960E+03  0.57296166223E+03  0.40000000000E+03 0. -1.
<mgrwt>
<rscale>  2 0.42786837E+03</rscale>
<asrwt>0</asrwt>
<pdfrwt beam="1">  1        2 0.18594408E+00 0.42786837E+03</pdfrwt>
<pdfrwt beam="2">  1       -2 0.24391236E-01 0.42786837E+03</pdfrwt>
<totfact> 0.29019259E+02</totfact>
</mgrwt>
</event>
<event>
 6    1  0.8938744E-004  0.4104019E+03  0.7818608E-02  0.1040236E+00
         -2   -1    0    0    0  501 -0.00000000000E+00  0.00000000000E+00  0.13772998010E+03  0.13772998010E+03  0.00000000000E+00 0.  1.
          2   -1    0    0  502    0  0.00000000000E+00 -0.00000000000E+00 -0.12281054018E+04  0.12281054018E+04  0.00000000000E+00 0. -1.
    9000007    2    1    2  502    0  0.75085711186E+02 -0.53318357460E+02 -0.50063726353E+03  0.64731481403E+03  0.39987258915E+03 0.  0.
    9000005    1    3    3    0    0  0.11951139725E+02  0.17302739261E+03 -0.18209987337E+03  0.25148095795E+03  0.99999687468E+00 0.  0.
          4    1    3    3  502    0  0.63134571461E+02 -0.22634575007E+03 -0.31853739016E+03  0.39583385608E+03  0.00000000000E+00 0.  1.
   -9000007    1    1    2    0  501 -0.75085711186E+02  0.53318357460E+02 -0.58973815821E+03  0.71852056792E+03  0.40000000000E+03 0.  1.
<mgrwt>
<rscale>  2 0.41040193E+03</rscale>
<asrwt>0</asrwt>
<pdfrwt beam="1">  1        2 0.18893929E+00 0.41040193E+03</pdfrwt>
<pdfrwt beam="2">  1       -2 0.21189228E-01 0.41040193E+03</pdfrwt>
<totfact> 0.36298960E+02</totfact>
</mgrwt>
</event>
<event>
 6    1  0.8938744E-004  0.4912294E+03  0.7818608E-02  0.1016094E+00
         -2   -1    0    0    0  501 -0.00000000000E+00  0.00000000000E+00  0.54837490515E+03  0.54837490515E+03  0.00000000000E+00 0.  1.
          2   -1    0    0  502    0  0.00000000000E+00 -0.00000000000E+00 -0.88355706669E+03  0.88355706669E+03  0.00000000000E+00 0. -1.
    9000007    2    1    2  502    0  0.11752283852E+03  0.25681802896E+03 -0.67511441983E+03  0.83584384262E+03  0.40384196390E+03 0.  0.
    9000005    1    3    3    0    0  0.22552829752E+03  0.30097263091E+03 -0.51879781852E+03  0.64078055061E+03  0.99999687468E+00 0.  0.
          4    1    3    3  502    0 -0.10800545899E+03 -0.44154601954E+02 -0.15631660131E+03  0.19506329201E+03  0.00000000000E+00 0.  1.
   -9000007    1    1    2    0  501 -0.11752283852E+03 -0.25681802896E+03  0.33993225828E+03  0.59608812922E+03  0.40000000000E+03 0.  1.
<mgrwt>
<rscale>  2 0.49122942E+03</rscale>
<asrwt>0</asrwt>
<pdfrwt beam="1">  1        2 0.13593186E+00 0.49122942E+03</pdfrwt>
<pdfrwt beam="2">  1       -2 0.84365370E-01 0.49122942E+03</pdfrwt>
<totfact> 0.38477345E+01</totfact>
</mgrwt>
</event>
<event>
 6    1  0.8938744E-004  0.4026749E+03  0.7818608E-02  0.1042857E+00
          1   -1    0    0  502    0  0.00000000000E+00  0.00000000000E+00  0.25144886778E+03  0.25144886778E+03  0.00000000000E+00 0.  1.
         -1   -1    0    0    0  501 -0.00000000000E+00 -0.00000000000E+00 -0.11079110951E+04  0.11079110951E+04  0.00000000000E+00 0. -1.
    9000007    2    1    2  502    0 -0.42547641447E+02  0.15349556467E+02 -0.86771957543E+03  0.95665332205E+03  0.40025292795E+03 0.  0.
    9000005    1    3    3    0    0  0.16951024047E+03  0.54658478325E+02 -0.49454185244E+03  0.52563667555E+03  0.99999687468E+00 0.  0.
          4    1    3    3  502    0 -0.21205788192E+03 -0.39308921858E+02 -0.37317772299E+03  0.43101664649E+03  0.00000000000E+00 0.  1.
   -9000007    1    1    2    0  501  0.42547641447E+02 -0.15349556467E+02  0.11257348113E+02  0.40270664082E+03  0.40000000000E+03 0.  1.
<mgrwt>
<rscale>  2 0.40267491E+03</rscale>
<asrwt>0</asrwt>
<pdfrwt beam="1">  1        1 0.38684440E-01 0.40267491E+03</pdfrwt>
<pdfrwt beam="2">  1       -1 0.17044787E+00 0.40267491E+03</pdfrwt>
<totfact> 0.28796308E+01</totfact>
</mgrwt>
</event>
<event>
 6    1  0.8938744E-004  0.5537688E+03  0.7818608E-02  0.1000625E+00
          2   -1    0    0  502    0  0.00000000000E+00  0.00000000000E+00  0.23281122931E+04  0.23281122931E+04  0.00000000000E+00 0.  1.
         -2   -1    0    0    0  501 -0.00000000000E+00 -0.00000000000E+00 -0.14115880487E+03  0.14115880487E+03  0.00000000000E+00 0. -1.
    9000007    2    1    2  502    0  0.14577031755E+03 -0.35778663964E+03  0.76995846919E+03  0.94705720074E+03  0.39347303873E+03 0.  0.
    9000005    1    3    3    0    0  0.18404286486E+03 -0.14743784469E+03  0.12358278740E+03  0.26623936503E+03  0.99999687468E+00 0.  0.
          4    1    3    3  502    0 -0.38272547310E+02 -0.21034879495E+03  0.64637568179E+03  0.68081783571E+03  0.00000000000E+00 0.  1.
   -9000007    1    1    2    0  501 -0.14577031755E+03  0.35778663964E+03  0.14169950191E+04  0.15222138973E+04  0.40000000000E+03 0. -1.
<mgrwt>
<rscale>  2 0.55376877E+03</rscale>
<asrwt>0</asrwt>
<pdfrwt beam="1">  1        2 0.35817110E+00 0.55376877E+03</pdfrwt>
<pdfrwt beam="2">  1       -2 0.21716741E-01 0.55376877E+03</pdfrwt>
<totfact> 0.85663916E+01</totfact>
</mgrwt>
</event>
<event>
 6    1  0.8938744E-004  0.4340385E+03  0.7818608E-02  0.1032592E+00
         -2   -1    0    0    0  501 -0.00000000000E+00  0.00000000000E+00  0.37324799933E+03  0.37324799933E+03  0.00000000000E+00 0.  1.
          2   -1    0    0  502    0  0.00000000000E+00 -0.00000000000E+00 -0.93764655973E+03  0.93764655973E+03  0.00000000000E+00 0. -1.
    9000007    2    1    2  502    0  0.12310515908E+03  0.11550428913E+03 -0.72752563524E+03  0.84709873809E+03  0.39973316243E+03 0.  0.
    9000005    1    3    3    0    0  0.16948436893E+03  0.20177137995E+03 -0.69598823115E+03  0.74420243145E+03  0.99999687468E+00 0.  0.
          4    1    3    3  502    0 -0.46379209849E+02 -0.86267090820E+02 -0.31537404088E+02  0.10289630665E+03  0.00000000000E+00 0.  1.
   -9000007    1    1    2    0  501 -0.12310515908E+03 -0.11550428913E+03  0.16312707485E+03  0.46379582097E+03  0.40000000000E+03 0.  1.
<mgrwt>
<rscale>  2 0.43403847E+03</rscale>
<asrwt>0</asrwt>
<pdfrwt beam="1">  1        2 0.14425332E+00 0.43403847E+03</pdfrwt>
<pdfrwt beam="2">  1       -2 0.57422769E-01 0.43403847E+03</pdfrwt>
<totfact> 0.82179637E+01</totfact>
</mgrwt>
</event>
<event>
 6    1  0.8938744E-004  0.4709286E+03  0.7818608E-02  0.1021658E+00
         -2   -1    0    0    0  501 -0.00000000000E+00  0.00000000000E+00  0.17465237005E+03  0.17465237005E+03  0.00000000000E+00 0.  1.
          2   -1    0    0  502    0  0.00000000000E+00 -0.00000000000E+00 -0.17192202171E+04  0.17192202171E+04  0.00000000000E+00 0. -1.
    9000007    2    1    2  502    0 -0.24896237310E+03 -0.16480043247E+02 -0.28751700419E+03  0.55132624658E+03  0.39879913167E+03 0.  0.
    9000005    1    3    3    0    0 -0.19967974613E+02  0.66605003686E+02 -0.29946391027E+03  0.30743223655E+03  0.99999687468E+00 0.  0.
          4    1    3    3  502    0 -0.22899439849E+03 -0.83085046934E+02  0.11946906075E+02  0.24389401003E+03  0.00000000000E+00 0.  1.
   -9000007    1    1    2    0  501  0.24896237310E+03  0.16480043247E+02 -0.12570508429E+04  0.13425463406E+04  0.40000000000E+03 0. -1.
<mgrwt>
<rscale>  2 0.47092856E+03</rscale>
<asrwt>0</asrwt>
<pdfrwt beam="1">  1        2 0.26449542E+00 0.47092856E+03</pdfrwt>
<pdfrwt beam="2">  1       -2 0.26869595E-01 0.47092856E+03</pdfrwt>
<totfact> 0.12672478E+02</totfact>
</mgrwt>
</event>
<event>
 6    1  0.8938744E-004  0.4606510E+03  0.7818608E-02  0.1024593E+00
         -2   -1    0    0    0  501 -0.00000000000E+00  0.00000000000E+00  0.11611473377E+03  0.11611473377E+03  0.00000000000E+00 0.  1.
          2   -1    0    0  502    0  0.00000000000E+00 -0.00000000000E+00 -0.18938281080E+04  0.18938281080E+04  0.00000000000E+00 0. -1.
    9000007    2    1    2  502    0 -0.17942325579E+03  0.14578137735E+03 -0.10744031782E+04  0.11684619171E+04  0.39688304037E+03 0.  0.
    9000005    1    3    3    0    0 -0.22008205671E+03 -0.41483755099E+02 -0.81956318727E+03  0.84961275387E+03  0.99999687468E+00 0.  0.
          4    1    3    3  502    0  0.40658800913E+02  0.18726513245E+03 -0.25483999089E+03  0.31884916321E+03  0.00000000000E+00 0.  1.
   -9000007    1    1    2    0  501  0.17942325579E+03 -0.14578137735E+03 -0.70331019603E+03  0.84148092464E+03  0.40000000000E+03 0.  1.
<mgrwt>
<rscale>  2 0.46065101E+03</rscale>
<asrwt>0</asrwt>
<pdfrwt beam="1">  1        2 0.29135817E+00 0.46065101E+03</pdfrwt>
<pdfrwt beam="2">  1       -2 0.17863805E-01 0.46065101E+03</pdfrwt>
<totfact> 0.20961667E+02</totfact>
</mgrwt>
</event>
<event>
 6    1  0.8938744E-004  0.4274210E+03  0.7818608E-02  0.1034678E+00
          2   -1    0    0  502    0  0.00000000000E+00  0.00000000000E+00  0.13760285344E+04  0.13760285344E+04  0.00000000000E+00 0. -1.
         -2   -1    0    0    0  501 -0.00000000000E+00 -0.00000000000E+00 -0.37133673401E+03  0.37133673401E+03  0.00000000000E+00 0.  1.
    9000007    2    1    2  502    0 -0.13711224287E+02 -0.14945404353E+03 -0.19786512902E+03  0.47117261944E+03  0.40041043846E+03 0.  0.
    9000005    1    3    3    0    0 -0.12186537282E+03  0.97800509252E+02 -0.91611915274E+02  0.18113489922E+03  0.99999687468E+00 0.  0.
          4    1    3    3  502    0  0.10815414853E+03 -0.24725455278E+03 -0.10625321374E+03  0.29003772022E+03  0.00000000000E+00 0.  1.
   -9000007    1    1    2    0  501  0.13711224287E+02  0.14945404353E+03  0.12025569294E+04  0.12761926490E+04  0.40000000000E+03 0. -1.
<mgrwt>
<rscale>  2 0.42742098E+03</rscale>
<asrwt>0</asrwt>
<pdfrwt beam="1">  1        2 0.21169670E+00 0.42742098E+03</pdfrwt>
<pdfrwt beam="2">  1       -2 0.57128729E-01 0.42742098E+03</pdfrwt>
<totfact> 0.45720730E+01</totfact>
</mgrwt>
</event>
<event>
 6    1  0.8938744E-004  0.5155520E+03  0.7818608E-02  0.1009797E+00
         -1   -1    0    0    0  501 -0.00000000000E+00  0.00000000000E+00  0.66765885914E+03  0.66765885914E+03  0.00000000000E+00 0. -1.
          1   -1    0    0  502    0  0.00000000000E+00 -0.00000000000E+00 -0.40471055027E+03  0.40471055027E+03  0.00000000000E+00 0.  1.
    9000007    2    1    2  502    0 -0.30304896494E+03 -0.11828613079E+03  0.62929441520E+02  0.51934334205E+03  0.39990887516E+03 0.  0.
    9000005    1    3    3    0    0 -0.29674983778E+03 -0.24668623276E+03  0.61603522200E+02  0.39078198218E+03  0.99999687468E+00 0.  0.
          4    1    3    3  502    0 -0.62991271616E+01  0.12840010197E+03  0.13259193205E+01  0.12856135987E+03  0.00000000000E+00 0.  1.
   -9000007    1    1    2    0  501  0.30304896494E+03  0.11828613079E+03  0.20001886735E+03  0.55302606737E+03  0.40000000000E+03 0.  1.
<mgrwt>
<rscale>  2 0.51555197E+03</rscale>
<asrwt>0</asrwt>
<pdfrwt beam="1">  1        1 0.62263161E-01 0.51555197E+03</pdfrwt>
<pdfrwt beam="2">  1       -1 0.10271675E+00 0.51555197E+03</pdfrwt>
<totfact> 0.55219496E+01</totfact>
</mgrwt>
</event>
<event>
 6    1  0.8938744E-004  0.4362884E+03  0.7818608E-02  0.1031892E+00
         -1   -1    0    0    0  501 -0.00000000000E+00  0.00000000000E+00  0.49151127122E+03  0.49151127122E+03  0.00000000000E+00 0. -1.
          1   -1    0    0  502    0  0.00000000000E+00 -0.00000000000E+00 -0.41134453699E+03  0.41134453699E+03  0.00000000000E+00 0.  1.
    9000007    2    1    2  502    0  0.16887969450E+03 -0.42589345756E+02 -0.69125968897E+02  0.44174571855E+03  0.40003334448E+03 0.  0.
    9000005    1    3    3    0    0 -0.10743947997E+03 -0.10158717894E+02  0.72046868995E+02  0.12976206199E+03  0.99999687468E+00 0.  0.
          4    1    3    3  502    0  0.27631917447E+03 -0.32430627862E+02 -0.14117283789E+03  0.31198365656E+03  0.00000000000E+00 0.  1.
   -9000007    1    1    2    0  501 -0.16887969450E+03  0.42589345756E+02  0.14929270313E+03  0.46111008967E+03  0.40000000000E+03 0. -1.
<mgrwt>
<rscale>  2 0.43628837E+03</rscale>
<asrwt>0</asrwt>
<pdfrwt beam="1">  1        1 0.63283776E-01 0.43628837E+03</pdfrwt>
<pdfrwt beam="2">  1       -1 0.75617118E-01 0.43628837E+03</pdfrwt>
<totfact> 0.10598287E+02</totfact>
</mgrwt>
</event>
<event>
 6    1  0.8938744E-004  0.7863877E+03  0.7818608E-02  0.9579932E-01
         -1   -1    0    0    0  501 -0.00000000000E+00  0.00000000000E+00  0.66240473282E+03  0.66240473282E+03  0.00000000000E+00 0.  1.
          1   -1    0    0  502    0  0.00000000000E+00 -0.00000000000E+00 -0.11995392388E+04  0.11995392388E+04  0.00000000000E+00 0. -1.
    9000007    2    1    2  502    0 -0.28547911339E+03 -0.61440655806E+03 -0.70683652440E+03  0.10570883835E+04  0.39852758436E+03 0.  0.
    9000005    1    3    3    0    0 -0.35781298525E+03 -0.50009913942E+03 -0.43429405932E+03  0.75282243034E+03  0.99999687468E+00 0.  0.
          4    1    3    3  502    0  0.72333871858E+02 -0.11430741864E+03 -0.27254246507E+03  0.30426595315E+03  0.00000000000E+00 0.  1.
   -9000007    1    1    2    0  501  0.28547911339E+03  0.61440655806E+03  0.16970201838E+03  0.80485558818E+03  0.40000000000E+03 0.  1.
<mgrwt>
<rscale>  2 0.78638768E+03</rscale>
<asrwt>0</asrwt>
<pdfrwt beam="1">  1        1 0.18454450E+00 0.78638768E+03</pdfrwt>
<pdfrwt beam="2">  1       -1 0.10190842E+00 0.78638768E+03</pdfrwt>
<totfact> 0.10045227E+01</totfact>
</mgrwt>
</event>
<event>
 6    1  0.8938744E-004  0.4671222E+03  0.7818608E-02  0.1022736E+00
          2   -1    0    0  502    0  0.00000000000E+00  0.00000000000E+00  0.78317697939E+03  0.78317697939E+03  0.00000000000E+00 0.  1.
         -2   -1    0    0    0  501 -0.00000000000E+00 -0.00000000000E+00 -0.27884559591E+03  0.27884559591E+03  0.00000000000E+00 0. -1.
    9000007    2    1    2  502    0  0.23595977072E+03  0.48084536894E+02  0.26763092709E+03  0.53855696789E+03  0.40053484049E+03 0.  0.
    9000005    1    3    3    0    0  0.16862332285E+02 -0.12851099040E+03 -0.25622475505E+02  0.13212465382E+03  0.99999687468E+00 0.  0.
          4    1    3    3  502    0  0.21909743843E+03  0.17659552729E+03  0.29325340259E+03  0.40643231407E+03  0.00000000000E+00 0.  1.
   -9000007    1    1    2    0  501 -0.23595977072E+03 -0.48084536894E+02  0.23670045639E+03  0.52346560741E+03  0.40000000000E+03 0.  1.
<mgrwt>
<rscale>  2 0.46712216E+03</rscale>
<asrwt>0</asrwt>
<pdfrwt beam="1">  1        2 0.12048877E+00 0.46712216E+03</pdfrwt>
<pdfrwt beam="2">  1       -2 0.42899323E-01 0.46712216E+03</pdfrwt>
<totfact> 0.18776908E+02</totfact>
</mgrwt>
</event>
<event>
 6    1  0.8938744E-004  0.5081396E+03  0.7818608E-02  0.1011676E+00
         -1   -1    0    0    0  501 -0.00000000000E+00  0.00000000000E+00  0.28111580526E+03  0.28111580526E+03  0.00000000000E+00 0.  1.
          1   -1    0    0  502    0  0.00000000000E+00 -0.00000000000E+00 -0.94735435075E+03  0.94735435075E+03  0.00000000000E+00 0. -1.
    9000007    2    1    2  502    0  0.30821808628E+03  0.57544544628E+02 -0.22586374735E+03  0.55598244150E+03  0.39974026513E+03 0.  0.
    9000005    1    3    3    0    0  0.95742548318E+02 -0.10229324342E+03 -0.25249869769E+03  0.28876830771E+03  0.99999687468E+00 0.  0.
          4    1    3    3  502    0  0.21247553796E+03  0.15983778805E+03  0.26634950346E+02  0.26721413379E+03  0.00000000000E+00 0.  1.
   -9000007    1    1    2    0  501 -0.30821808628E+03 -0.57544544628E+02 -0.44037479814E+03  0.67248771451E+03  0.40000000000E+03 0. -1.
<mgrwt>
<rscale>  2 0.50813963E+03</rscale>
<asrwt>0</asrwt>
<pdfrwt beam="1">  1        1 0.14574682E+00 0.50813963E+03</pdfrwt>
<pdfrwt beam="2">  1       -1 0.43248585E-01 0.50813963E+03</pdfrwt>
<totfact> 0.91742087E+01</totfact>
</mgrwt>
</event>
<event>
 6    1  0.8938744E-004  0.4009663E+03  0.7818608E-02  0.1043446E+00
          1   -1    0    0  502    0  0.00000000000E+00  0.00000000000E+00  0.27303036219E+04  0.27303036219E+04  0.00000000000E+00 0. -1.
         -1   -1    0    0    0  501 -0.00000000000E+00 -0.00000000000E+00 -0.60794502690E+02  0.60794502690E+02  0.00000000000E+00 0.  1.
    9000007    2    1    2  502    0  0.22892220700E+02 -0.16393335958E+02  0.15820062587E+04  0.16320229472E+04  0.39995287518E+03 0.  0.
    9000005    1    3    3    0    0 -0.68474339165E+02  0.11096531435E+03  0.13220749291E+04  0.13284898021E+04  0.99999687468E+00 0.  0.
          4    1    3    3  502    0  0.91366559865E+02 -0.12735865030E+03  0.25993132962E+03  0.30353314512E+03  0.00000000000E+00 0.  1.
   -9000007    1    1    2    0  501 -0.22892220700E+02  0.16393335958E+02  0.10875028604E+04  0.11590751773E+04  0.40000000000E+03 0. -1.
<mgrwt>
<rscale>  2 0.40096626E+03</rscale>
<asrwt>0</asrwt>
<pdfrwt beam="1">  1        1 0.42004662E+00 0.40096626E+03</pdfrwt>
<pdfrwt beam="2">  1       -1 0.93530025E-02 0.40096626E+03</pdfrwt>
<totfact> 0.72651550E+01</totfact>
</mgrwt>
</event>
<event>
 6    1  0.8938744E-004  0.4107622E+03  0.7818608E-02  0.1040116E+00
          3   -1    0    0  502    0  0.00000000000E+00  0.00000000000E+00  0.78538597305E+03  0.78538597305E+03  0.00000000000E+00 0. -1.
         -3   -1    0    0    0  501 -0.00000000000E+00 -0.00000000000E+00 -0.21602854450E+03  0.21602854450E+03  0.00000000000E+00 0.  1.
    9000007    2    1    2  502    0 -0.76247715702E+02  0.49532850171E+02  0.24779601367E+03  0.48019579097E+03  0.40114575390E+03 0.  0.
    9000005    1    3    3    0    0  0.10035237092E+03  0.11323657771E+03  0.25025528561E+03  0.29244115450E+03  0.99999687468E+00 0.  0.
          4    1    3    3  502    0 -0.17660008662E+03 -0.63703727535E+02 -0.24592719381E+01  0.18775463646E+03  0.00000000000E+00 0.  1.
   -9000007    1    1    2    0  501  0.76247715702E+02 -0.49532850171E+02  0.32156141488E+03  0.52121872658E+03  0.40000000000E+03 0. -1.
<mgrwt>
<rscale>  2 0.41076216E+03</rscale>
<asrwt>0</asrwt>
<pdfrwt beam="1">  1        3 0.12082861E+00 0.41076216E+03</pdfrwt>
<pdfrwt beam="2">  1       -3 0.33235161E-01 0.41076216E+03</pdfrwt>
<totfact> 0.12938395E+01</totfact>
</mgrwt>
</event>
<event>
 6    1  0.8938744E-004  0.7084338E+03  0.7818608E-02  0.9702917E-01
          4   -1    0    0  502    0  0.00000000000E+00  0.00000000000E+00  0.38001187509E+03  0.38001187509E+03  0.00000000000E+00 0. -1.
         -4   -1    0    0    0  501 -0.00000000000E+00 -0.00000000000E+00 -0.13827515691E+04  0.13827515691E+04  0.00000000000E+00 0.  1.
    9000007    2    1    2  502    0 -0.33695401225E+03 -0.47771192600E+03 -0.68815577597E+03  0.98770878023E+03  0.40032932934E+03 0.  0.
    9000005    1    3    3    0    0  0.76588318356E+02  0.94368120158E-01 -0.76549729652E+02  0.10828961408E+03  0.99999687468E+00 0.  0.
          4    1    3    3  502    0 -0.41354233060E+03 -0.47780629412E+03 -0.61160604632E+03  0.87941916615E+03  0.00000000000E+00 0.  1.
   -9000007    1    1    2    0  501  0.33695401225E+03  0.47771192600E+03 -0.31458391800E+03  0.77505466393E+03  0.40000000000E+03 0.  1.
<mgrwt>
<rscale>  2 0.70843381E+03</rscale>
<asrwt>0</asrwt>
<pdfrwt beam="1">  1        4 0.58463365E-01 0.70843381E+03</pdfrwt>
<pdfrwt beam="2">  1       -4 0.21273101E+00 0.70843381E+03</pdfrwt>
<totfact> 0.59592534E-01</totfact>
</mgrwt>
</event>
<event>
 6    1  0.8938744E-004  0.4268966E+03  0.7818608E-02  0.1034845E+00
         -2   -1    0    0    0  501 -0.00000000000E+00  0.00000000000E+00  0.23246745836E+03  0.23246745836E+03  0.00000000000E+00 0.  1.
          2   -1    0    0  502    0  0.00000000000E+00 -0.00000000000E+00 -0.10132956871E+04  0.10132956871E+04  0.00000000000E+00 0. -1.
    9000007    2    1    2  502    0  0.11141157626E+03 -0.99453073591E+02 -0.94021228166E+02  0.43705596162E+03  0.39984305555E+03 0.  0.
    9000005    1    3    3    0    0  0.32026758690E+01 -0.16076576950E+03 -0.21169281205E+03  0.26583968185E+03  0.99999687468E+00 0.  0.
          4    1    3    3  502    0  0.10820890039E+03  0.61312695912E+02  0.11767158389E+03  0.17121627977E+03  0.00000000000E+00 0.  1.
   -9000007    1    1    2    0  501 -0.11141157626E+03  0.99453073591E+02 -0.68680700056E+03  0.80870718384E+03  0.40000000000E+03 0. -1.
<mgrwt>
<rscale>  2 0.42689656E+03</rscale>
<asrwt>0</asrwt>
<pdfrwt beam="1">  1        2 0.15589164E+00 0.42689656E+03</pdfrwt>
<pdfrwt beam="2">  1       -2 0.35764226E-01 0.42689656E+03</pdfrwt>
<totfact> 0.18819441E+02</totfact>
</mgrwt>
</event>
<event>
 6    1  0.8938744E-004  0.5957372E+03  0.7818608E-02  0.9914290E-01
          2   -1    0    0  502    0  0.00000000000E+00  0.00000000000E+00  0.21355114058E+04  0.21355114058E+04  0.00000000000E+00 0.  1.
         -2   -1    0    0    0  501 -0.00000000000E+00 -0.00000000000E+00 -0.36709446326E+03  0.36709446326E+03  0.00000000000E+00 0. -1.
    9000007    2    1    2  502    0  0.11039666099E+02 -0.44220495061E+03  0.18094708102E+04  0.19048161798E+04  0.39808664001E+03 0.  0.
    9000005    1    3    3    0    0  0.39661436974E+02  0.70846819443E+02  0.25533050461E+03  0.26793090151E+03  0.99999687468E+00 0.  0.
          4    1    3    3  502    0 -0.28621770875E+02 -0.51305177006E+03  0.15541403056E+04  0.16368852782E+04  0.00000000000E+00 0.  1.
   -9000007    1    1    2    0  501 -0.11039666099E+02  0.44220495061E+03 -0.41053867716E+02  0.59778968930E+03  0.40000000000E+03 0. -1.
<mgrwt>
<rscale>  2 0.59573715E+03</rscale>
<asrwt>0</asrwt>
<pdfrwt beam="1">  1        2 0.32854021E+00 0.59573715E+03</pdfrwt>
<pdfrwt beam="2">  1       -2 0.56476073E-01 0.59573715E+03</pdfrwt>
<totfact> 0.17569704E+01</totfact>
</mgrwt>
</event>
<event>
 6    1  0.8938744E-004  0.4087491E+03  0.7818608E-02  0.1040792E+00
          1   -1    0    0  502    0  0.00000000000E+00  0.00000000000E+00  0.81820730725E+03  0.81820730725E+03  0.00000000000E+00 0. -1.
         -1   -1    0    0    0  501 -0.00000000000E+00 -0.00000000000E+00 -0.21334129141E+03  0.21334129141E+03  0.00000000000E+00 0.  1.
    9000007    2    1    2  502    0  0.78305515809E+02  0.93818477562E+01  0.19640563753E+03  0.45443539180E+03  0.40213999800E+03 0.  0.
    9000005    1    3    3    0    0  0.19526400307E+03 -0.12302054537E+03  0.13518349139E+03  0.26746525347E+03  0.99999687468E+00 0.  0.
          4    1    3    3  502    0 -0.11695848726E+03  0.13240239312E+03  0.61222146138E+02  0.18697013833E+03  0.00000000000E+00 0.  1.
   -9000007    1    1    2    0  501 -0.78305515809E+02 -0.93818477562E+01  0.40846037832E+03  0.57711320686E+03  0.40000000000E+03 0. -1.
<mgrwt>
<rscale>  2 0.40874914E+03</rscale>
<asrwt>0</asrwt>
<pdfrwt beam="1">  1        1 0.12587805E+00 0.40874914E+03</pdfrwt>
<pdfrwt beam="2">  1       -1 0.32821737E-01 0.40874914E+03</pdfrwt>
<totfact> 0.19321974E+02</totfact>
</mgrwt>
</event>
<event>
 6    1  0.8938744E-004  0.4296297E+03  0.7818608E-02  0.1033977E+00
          2   -1    0    0  502    0  0.00000000000E+00  0.00000000000E+00  0.89045173385E+03  0.89045173385E+03  0.00000000000E+00 0.  1.
         -2   -1    0    0    0  501 -0.00000000000E+00 -0.00000000000E+00 -0.20804380305E+03  0.20804380305E+03  0.00000000000E+00 0. -1.
    9000007    2    1    2  502    0 -0.11817058494E+03 -0.10208569943E+03  0.30832196866E+03  0.52899919429E+03  0.40048961788E+03 0.  0.
    9000005    1    3    3    0    0 -0.22787131156E+03  0.39479458552E+02  0.25019236113E+03  0.34070688259E+03  0.99999687468E+00 0.  0.
          4    1    3    3  502    0  0.10970072662E+03 -0.14156515798E+03  0.58129607530E+02  0.18829231171E+03  0.00000000000E+00 0.  1.
   -9000007    1    1    2    0  501  0.11817058494E+03  0.10208569943E+03  0.37408596214E+03  0.56949634261E+03  0.40000000000E+03 0.  1.
<mgrwt>
<rscale>  2 0.42962965E+03</rscale>
<asrwt>0</asrwt>
<pdfrwt beam="1">  1        2 0.13699257E+00 0.42962965E+03</pdfrwt>
<pdfrwt beam="2">  1       -2 0.32006739E-01 0.42962965E+03</pdfrwt>
<totfact> 0.27781181E+02</totfact>
</mgrwt>
</event>
<event>
 6    1  0.8938744E-004  0.4611861E+03  0.7818608E-02  0.1024438E+00
          1   -1    0    0  502    0  0.00000000000E+00  0.00000000000E+00  0.19619549520E+03  0.19619549520E+03  0.00000000000E+00 0. -1.
         -1   -1    0    0    0  501 -0.00000000000E+00 -0.00000000000E+00 -0.10844437540E+04  0.10844437540E+04  0.00000000000E+00 0.  1.
    9000007    2    1    2  502    0  0.22853496654E+03  0.39634864866E+02 -0.45449691194E+03  0.64665235317E+03  0.39723125437E+03 0.  0.
    9000005    1    3    3    0    0 -0.31212096562E+02 -0.81048721751E+02  0.22993608759E+02  0.89848741264E+02  0.99999687468E+00 0.  0.
          4    1    3    3  502    0  0.25974706310E+03  0.12068358662E+03 -0.47749052070E+03  0.55680361190E+03  0.00000000000E+00 0.  1.
   -9000007    1    1    2    0  501 -0.22853496654E+03 -0.39634864866E+02 -0.43375134687E+03  0.63398689604E+03  0.40000000000E+03 0.  1.
<mgrwt>
<rscale>  2 0.46118611E+03</rscale>
<asrwt>0</asrwt>
<pdfrwt beam="1">  1        1 0.30183923E-01 0.46118611E+03</pdfrwt>
<pdfrwt beam="2">  1       -1 0.16683750E+00 0.46118611E+03</pdfrwt>
<totfact> 0.41647912E+01</totfact>
</mgrwt>
</event>
<event>
 6    1  0.8938744E-004  0.5537385E+03  0.7818608E-02  0.1000632E+00
          1   -1    0    0  502    0  0.00000000000E+00  0.00000000000E+00  0.10964638557E+04  0.10964638557E+04  0.00000000000E+00 0. -1.
         -1   -1    0    0    0  501 -0.00000000000E+00 -0.00000000000E+00 -0.36398205638E+03  0.36398205638E+03  0.00000000000E+00 0.  1.
    9000007    2    1    2  502    0 -0.34394110252E+03  0.16645875183E+03  0.71801469861E+03  0.90708048575E+03  0.40155435765E+03 0.  0.
    9000005    1    3    3    0    0 -0.28791985585E+03 -0.92242601121E+00  0.66199243997E+03  0.72189589612E+03  0.99999687468E+00 0.  0.
          4    1    3    3  502    0 -0.56021246664E+02  0.16738117784E+03  0.56022258637E+02  0.18518458963E+03  0.00000000000E+00 0.  1.
   -9000007    1    1    2    0  501  0.34394110252E+03 -0.16645875183E+03  0.14467100724E+02  0.55336542634E+03  0.40000000000E+03 0.  1.
<mgrwt>
<rscale>  2 0.55373849E+03</rscale>
<asrwt>0</asrwt>
<pdfrwt beam="1">  1        1 0.16868675E+00 0.55373849E+03</pdfrwt>
<pdfrwt beam="2">  1       -1 0.55997240E-01 0.55373849E+03</pdfrwt>
<totfact> 0.43240439E+01</totfact>
</mgrwt>
</event>
<event>
 6    1  0.8938744E-004  0.4022307E+03  0.7818608E-02  0.1043010E+00
          1   -1    0    0  502    0  0.00000000000E+00  0.00000000000E+00  0.10229930971E+04  0.10229930971E+04  0.00000000000E+00 0.  1.
         -1   -1    0    0    0  501 -0.00000000000E+00 -0.00000000000E+00 -0.15815438697E+03  0.15815438697E+03  0.00000000000E+00 0. -1.
    9000007    2    1    2  502    0  0.12284506719E+02 -0.29713156815E+02  0.43251879854E+03  0.59128793574E+03  0.40188945130E+03 0.  0.
    9000005    1    3    3    0    0  0.82758392976E+02  0.13516274472E+03  0.45723362507E+02  0.16495316014E+03  0.99999687468E+00 0.  0.
          4    1    3    3  502    0 -0.70473886257E+02 -0.16487590153E+03  0.38679543603E+03  0.42633477560E+03  0.00000000000E+00 0.  1.
   -9000007    1    1    2    0  501 -0.12284506719E+02  0.29713156815E+02  0.43231991159E+03  0.58985954833E+03  0.40000000000E+03 0. -1.
<mgrwt>
<rscale>  2 0.40223075E+03</rscale>
<asrwt>0</asrwt>
<pdfrwt beam="1">  1        1 0.15738355E+00 0.40223075E+03</pdfrwt>
<pdfrwt beam="2">  1       -1 0.24331445E-01 0.40223075E+03</pdfrwt>
<totfact> 0.22204513E+02</totfact>
</mgrwt>
</event>
