<event>
 4    1  0.2474915E-002  0.5485041E+03  0.7818608E-02  0.1001841E+00
         -2   -1    0    0    0  501 -0.00000000000E+00  0.00000000000E+00  0.23630004597E+03  0.23630004597E+03  0.00000000000E+00 0.  1.
          2   -1    0    0  502    0  0.00000000000E+00 -0.00000000000E+00 -0.13353252607E+04  0.13353252607E+04  0.00000000000E+00 0. -1.
    9000007    1    1    2  502    0  0.23075147307E+03  0.29599065822E+03 -0.71901158720E+03  0.90434195667E+03  0.40000000000E+03 0. -1.
   -9000007    1    1    2    0  501 -0.23075147307E+03 -0.29599065822E+03 -0.38001362755E+03  0.66728335001E+03  0.40000000000E+03 0. -1.
<mgrwt>
<rscale>  2 0.54850407E+03</rscale>
<asrwt>0</asrwt>
<pdfrwt beam="1">  1        2 0.20543465E+00 0.54850407E+03</pdfrwt>
<pdfrwt beam="2">  1       -2 0.36353854E-01 0.54850407E+03</pdfrwt>
<totfact> 0.11627293E+02</totfact>
</mgrwt>
</event>
<event>
 4    1  0.2474915E-002  0.8118433E+03  0.7818608E-02  0.9543031E-01
          2   -1    0    0  502    0  0.00000000000E+00  0.00000000000E+00  0.23264132087E+04  0.23264132087E+04  0.00000000000E+00 0. -1.
         -2   -1    0    0    0  501 -0.00000000000E+00 -0.00000000000E+00 -0.35155574613E+03  0.35155574613E+03  0.00000000000E+00 0.  1.
    9000007    1    1    2  502    0  0.68743258301E+03  0.16286777419E+03  0.39746496265E+03  0.90391806298E+03  0.40000000000E+03 0.  1.
   -9000007    1    1    2    0  501 -0.68743258301E+03 -0.16286777419E+03  0.15773924999E+04  0.17740508919E+04  0.40000000000E+03 0. -1.
<mgrwt>
<rscale>  2 0.81184325E+03</rscale>
<asrwt>0</asrwt>
<pdfrwt beam="1">  1        2 0.35790971E+00 0.81184325E+03</pdfrwt>
<pdfrwt beam="2">  1       -2 0.54085501E-01 0.81184325E+03</pdfrwt>
<totfact> 0.14567563E+01</totfact>
</mgrwt>
</event>
<event>
 4    1  0.2474915E-002  0.4427674E+03  0.7818608E-02  0.1029901E+00
          2   -1    0    0  502    0  0.00000000000E+00  0.00000000000E+00  0.71110375811E+03  0.71110375811E+03  0.00000000000E+00 0.  1.
         -2   -1    0    0    0  501 -0.00000000000E+00 -0.00000000000E+00 -0.36258388621E+03  0.36258388621E+03  0.00000000000E+00 0. -1.
    9000007    1    1    2  502    0 -0.55529080512E+02 -0.18154746349E+03  0.43707040404E+03  0.62215231123E+03  0.40000000000E+03 0. -1.
   -9000007    1    1    2    0  501  0.55529080512E+02  0.18154746349E+03 -0.88550532141E+02  0.45153533309E+03  0.40000000000E+03 0. -1.
<mgrwt>
<rscale>  2 0.44276739E+03</rscale>
<asrwt>0</asrwt>
<pdfrwt beam="1">  1        2 0.10940058E+00 0.44276739E+03</pdfrwt>
<pdfrwt beam="2">  1       -2 0.55782136E-01 0.44276739E+03</pdfrwt>
<totfact> 0.12542221E+02</totfact>
</mgrwt>
</event>
<event>
 4    1  0.2474915E-002  0.4741154E+03  0.7818608E-02  0.1020765E+00
         -2   -1    0    0    0  501 -0.00000000000E+00  0.00000000000E+00  0.34313849966E+03  0.34313849966E+03  0.00000000000E+00 0.  1.
          2   -1    0    0  502    0  0.00000000000E+00 -0.00000000000E+00 -0.67112041561E+03  0.67112041561E+03  0.00000000000E+00 0. -1.
    9000007    1    1    2  502    0 -0.24757140798E+03 -0.59108357587E+02 -0.85604983602E+02  0.48178170700E+03  0.40000000000E+03 0. -1.
   -9000007    1    1    2    0  501  0.24757140798E+03  0.59108357587E+02 -0.24237693235E+03  0.53247720827E+03  0.40000000000E+03 0. -1.
<mgrwt>
<rscale>  2 0.47411539E+03</rscale>
<asrwt>0</asrwt>
<pdfrwt beam="1">  1        2 0.10324929E+00 0.47411539E+03</pdfrwt>
<pdfrwt beam="2">  1       -2 0.52790538E-01 0.47411539E+03</pdfrwt>
<totfact> 0.15047174E+02</totfact>
</mgrwt>
</event>
<event>
 4    1  0.2474915E-002  0.4075003E+03  0.7818608E-02  0.1041213E+00
          2   -1    0    0  502    0  0.00000000000E+00  0.00000000000E+00  0.49679615336E+03  0.49679615336E+03  0.00000000000E+00 0. -1.
         -2   -1    0    0    0  501 -0.00000000000E+00 -0.00000000000E+00 -0.34111332395E+03  0.34111332395E+03  0.00000000000E+00 0.  1.
    9000007    1    1    2  502    0  0.66420337820E+02 -0.40556094610E+02  0.13724815119E+03  0.42999245702E+03  0.40000000000E+03 0. -1.
   -9000007    1    1    2    0  501 -0.66420337820E+02  0.40556094610E+02  0.18434678224E+02  0.40791702030E+03  0.40000000000E+03 0.  1.
<mgrwt>
<rscale>  2 0.40750026E+03</rscale>
<asrwt>0</asrwt>
<pdfrwt beam="1">  1        2 0.76430178E-01 0.40750026E+03</pdfrwt>
<pdfrwt beam="2">  1       -2 0.52478973E-01 0.40750026E+03</pdfrwt>
<totfact> 0.21816337E+02</totfact>
</mgrwt>
</event>
<event>
 4    1  0.2474915E-002  0.4675128E+03  0.7818608E-02  0.1022625E+00
          1   -1    0    0  502    0  0.00000000000E+00  0.00000000000E+00  0.76520676054E+03  0.76520676054E+03  0.00000000000E+00 0. -1.
         -1   -1    0    0    0  501 -0.00000000000E+00 -0.00000000000E+00 -0.31475694505E+03  0.31475694505E+03  0.00000000000E+00 0.  1.
    9000007    1    1    2  502    0  0.10251268986E+03  0.21922442328E+03  0.38947953455E+03  0.60849199435E+03  0.40000000000E+03 0. -1.
   -9000007    1    1    2    0  501 -0.10251268986E+03 -0.21922442328E+03  0.60970280938E+02  0.47147171124E+03  0.40000000000E+03 0.  1.
<mgrwt>
<rscale>  2 0.46751278E+03</rscale>
<asrwt>0</asrwt>
<pdfrwt beam="1">  1        1 0.11772412E+00 0.46751278E+03</pdfrwt>
<pdfrwt beam="2">  1       -1 0.48424146E-01 0.46751278E+03</pdfrwt>
<totfact> 0.10579885E+02</totfact>
</mgrwt>
</event>
<event>
 4    1  0.2474915E-002  0.6859152E+03  0.7818608E-02  0.9741627E-01
         -3   -1    0    0    0  501 -0.00000000000E+00  0.00000000000E+00  0.84276811291E+03  0.84276811291E+03  0.00000000000E+00 0. -1.
          3   -1    0    0  502    0  0.00000000000E+00 -0.00000000000E+00 -0.71439414822E+03  0.71439414822E+03  0.00000000000E+00 0.  1.
    9000007    1    1    2  502    0  0.70703826038E+02 -0.55270307593E+03  0.42817785125E+03  0.80858889027E+03  0.40000000000E+03 0. -1.
   -9000007    1    1    2    0  501 -0.70703826038E+02  0.55270307593E+03 -0.29980388656E+03  0.74857337086E+03  0.40000000000E+03 0.  1.
<mgrwt>
<rscale>  2 0.68591524E+03</rscale>
<asrwt>0</asrwt>
<pdfrwt beam="1">  1        3 0.10990679E+00 0.68591524E+03</pdfrwt>
<pdfrwt beam="2">  1       -3 0.12965663E+00 0.68591524E+03</pdfrwt>
<totfact> 0.84984729E-01</totfact>
</mgrwt>
</event>
<event>
 4    1  0.2474915E-002  0.9014600E+03  0.7818608E-02  0.9423758E-01
         -2   -1    0    0    0  501 -0.00000000000E+00  0.00000000000E+00  0.70834095218E+03  0.70834095218E+03  0.00000000000E+00 0.  1.
          2   -1    0    0  502    0  0.00000000000E+00 -0.00000000000E+00 -0.11508966859E+04  0.11508966859E+04  0.00000000000E+00 0. -1.
    9000007    1    1    2  502    0 -0.69583253861E+03 -0.41042323356E+03 -0.16880798823E+03  0.91712937436E+03  0.40000000000E+03 0.  1.
   -9000007    1    1    2    0  501  0.69583253861E+03  0.41042323356E+03 -0.27374774549E+03  0.94210826373E+03  0.40000000000E+03 0.  1.
<mgrwt>
<rscale>  2 0.90146001E+03</rscale>
<asrwt>0</asrwt>
<pdfrwt beam="1">  1        2 0.17706103E+00 0.90146001E+03</pdfrwt>
<pdfrwt beam="2">  1       -2 0.10897553E+00 0.90146001E+03</pdfrwt>
<totfact> 0.13660986E+01</totfact>
</mgrwt>
</event>
<event>
 4    1  0.2474915E-002  0.4052952E+03  0.7818608E-02  0.1041961E+00
         -1   -1    0    0    0  501 -0.00000000000E+00  0.00000000000E+00  0.47467520342E+03  0.47467520342E+03  0.00000000000E+00 0. -1.
          1   -1    0    0  502    0  0.00000000000E+00 -0.00000000000E+00 -0.36447382547E+03  0.36447382547E+03  0.00000000000E+00 0.  1.
    9000007    1    1    2  502    0  0.62450710805E+02 -0.19081280796E+02 -0.39217508669E+02  0.40718816233E+03  0.40000000000E+03 0.  1.
   -9000007    1    1    2    0  501 -0.62450710805E+02  0.19081280796E+02  0.14941888661E+03  0.43196086655E+03  0.40000000000E+03 0. -1.
<mgrwt>
<rscale>  2 0.40529518E+03</rscale>
<asrwt>0</asrwt>
<pdfrwt beam="1">  1        1 0.56072896E-01 0.40529518E+03</pdfrwt>
<pdfrwt beam="2">  1       -1 0.73026955E-01 0.40529518E+03</pdfrwt>
<totfact> 0.13369663E+02</totfact>
</mgrwt>
</event>
<event>
 4    1  0.2474915E-002  0.4142931E+03  0.7818608E-02  0.1038940E+00
          1   -1    0    0  502    0  0.00000000000E+00  0.00000000000E+00  0.10523337378E+04  0.10523337378E+04  0.00000000000E+00 0. -1.
         -1   -1    0    0    0  501 -0.00000000000E+00 -0.00000000000E+00 -0.24558476584E+03  0.24558476584E+03  0.00000000000E+00 0.  1.
    9000007    1    1    2  502    0 -0.66727408272E+02  0.84771575268E+02  0.27281054497E+02  0.41519034541E+03  0.40000000000E+03 0.  1.
   -9000007    1    1    2    0  501  0.66727408272E+02 -0.84771575268E+02  0.77946791744E+03  0.88272815821E+03  0.40000000000E+03 0. -1.
<mgrwt>
<rscale>  2 0.41429309E+03</rscale>
<asrwt>0</asrwt>
<pdfrwt beam="1">  1        1 0.16189750E+00 0.41429309E+03</pdfrwt>
<pdfrwt beam="2">  1       -1 0.37782272E-01 0.41429309E+03</pdfrwt>
<totfact> 0.98569992E+01</totfact>
</mgrwt>
</event>
<event>
 4    1  0.2474915E-002  0.4586344E+03  0.7818608E-02  0.1025178E+00
         -2   -1    0    0    0  501 -0.00000000000E+00  0.00000000000E+00  0.29715773376E+03  0.29715773376E+03  0.00000000000E+00 0.  1.
          2   -1    0    0  502    0  0.00000000000E+00 -0.00000000000E+00 -0.12141305311E+04  0.12141305311E+04  0.00000000000E+00 0. -1.
    9000007    1    1    2  502    0  0.22422360778E+03  0.83262778880E+01 -0.94643794610E+03  0.10517082956E+04  0.40000000000E+03 0. -1.
   -9000007    1    1    2    0  501 -0.22422360778E+03 -0.83262778880E+01  0.29465148732E+02  0.45957996930E+03  0.40000000000E+03 0.  1.
<mgrwt>
<rscale>  2 0.45863444E+03</rscale>
<asrwt>0</asrwt>
<pdfrwt beam="1">  1        2 0.18678931E+00 0.45863444E+03</pdfrwt>
<pdfrwt beam="2">  1       -2 0.45716575E-01 0.45863444E+03</pdfrwt>
<totfact> 0.88321875E+01</totfact>
</mgrwt>
</event>
<event>
 4    1  0.2474915E-002  0.4147360E+03  0.7818608E-02  0.1038793E+00
          2   -1    0    0  502    0  0.00000000000E+00  0.00000000000E+00  0.33656001923E+04  0.33656001923E+04  0.00000000000E+00 0. -1.
         -2   -1    0    0    0  501 -0.00000000000E+00 -0.00000000000E+00 -0.51687305609E+02  0.51687305609E+02  0.00000000000E+00 0.  1.
    9000007    1    1    2  502    0  0.96367388278E+02  0.52146640172E+02  0.18379919987E+04  0.18842028906E+04  0.40000000000E+03 0. -1.
   -9000007    1    1    2    0  501 -0.96367388278E+02 -0.52146640172E+02  0.14759208880E+04  0.15330846073E+04  0.40000000000E+03 0.  1.
<mgrwt>
<rscale>  2 0.41473600E+03</rscale>
<asrwt>0</asrwt>
<pdfrwt beam="1">  1        2 0.51778447E+00 0.41473600E+03</pdfrwt>
<pdfrwt beam="2">  1       -2 0.79518958E-02 0.41473600E+03</pdfrwt>
<totfact> 0.11356407E+02</totfact>
</mgrwt>
</event>
<event>
 4    1  0.2474915E-002  0.4469071E+03  0.7818608E-02  0.1028648E+00
         -2   -1    0    0    0  501 -0.00000000000E+00  0.00000000000E+00  0.18132365090E+03  0.18132365090E+03  0.00000000000E+00 0. -1.
          2   -1    0    0  502    0  0.00000000000E+00 -0.00000000000E+00 -0.11087056789E+04  0.11087056789E+04  0.00000000000E+00 0.  1.
    9000007    1    1    2  502    0  0.62706873101E+02  0.18919254378E+03 -0.51573088062E+03  0.68242531590E+03  0.40000000000E+03 0.  1.
   -9000007    1    1    2    0  501 -0.62706873101E+02 -0.18919254378E+03 -0.41165114735E+03  0.60760401387E+03  0.40000000000E+03 0. -1.
<mgrwt>
<rscale>  2 0.44690712E+03</rscale>
<asrwt>0</asrwt>
<pdfrwt beam="1">  1        2 0.17057010E+00 0.44690712E+03</pdfrwt>
<pdfrwt beam="2">  1       -2 0.27895946E-01 0.44690712E+03</pdfrwt>
<totfact> 0.26048765E+02</totfact>
</mgrwt>
</event>
<event>
 4    1  0.2474915E-002  0.4114153E+03  0.7818608E-02  0.1039897E+00
          2   -1    0    0  502    0  0.00000000000E+00  0.00000000000E+00  0.92246492024E+03  0.92246492024E+03  0.00000000000E+00 0.  1.
         -2   -1    0    0    0  501 -0.00000000000E+00 -0.00000000000E+00 -0.30304296334E+03  0.30304296334E+03  0.00000000000E+00 0. -1.
    9000007    1    1    2  502    0  0.70288988362E+02 -0.65741671739E+02 -0.75160142040E+02  0.41822428939E+03  0.40000000000E+03 0. -1.
   -9000007    1    1    2    0  501 -0.70288988362E+02  0.65741671739E+02  0.69458209894E+03  0.80728359419E+03  0.40000000000E+03 0.  1.
<mgrwt>
<rscale>  2 0.41141525E+03</rscale>
<asrwt>0</asrwt>
<pdfrwt beam="1">  1        2 0.14191768E+00 0.41141525E+03</pdfrwt>
<pdfrwt beam="2">  1       -2 0.46621995E-01 0.41141525E+03</pdfrwt>
<totfact> 0.12873187E+02</totfact>
</mgrwt>
</event>
<event>
 4    1  0.2474915E-002  0.4301792E+03  0.7818608E-02  0.1033803E+00
          2   -1    0    0  502    0  0.00000000000E+00  0.00000000000E+00  0.78949980739E+03  0.78949980739E+03  0.00000000000E+00 0.  1.
         -2   -1    0    0    0  501 -0.00000000000E+00 -0.00000000000E+00 -0.23523704391E+03  0.23523704391E+03  0.00000000000E+00 0. -1.
    9000007    1    1    2  502    0 -0.46570471554E+02  0.15127895521E+03  0.24646110841E+03  0.49577939557E+03  0.40000000000E+03 0.  1.
   -9000007    1    1    2    0  501  0.46570471554E+02 -0.15127895521E+03  0.30780165507E+03  0.52895745573E+03  0.40000000000E+03 0.  1.
<mgrwt>
<rscale>  2 0.43017918E+03</rscale>
<asrwt>0</asrwt>
<pdfrwt beam="1">  1        2 0.12146151E+00 0.43017918E+03</pdfrwt>
<pdfrwt beam="2">  1       -2 0.36190315E-01 0.43017918E+03</pdfrwt>
<totfact> 0.25873216E+02</totfact>
</mgrwt>
</event>
<event>
 4    1  0.2474915E-002  0.4581836E+03  0.7818608E-02  0.1025309E+00
          2   -1    0    0  502    0  0.00000000000E+00  0.00000000000E+00  0.76646805660E+03  0.76646805660E+03  0.00000000000E+00 0.  1.
         -2   -1    0    0    0  501 -0.00000000000E+00 -0.00000000000E+00 -0.27837403115E+03  0.27837403115E+03  0.00000000000E+00 0. -1.
    9000007    1    1    2  502    0  0.61756639825E+02  0.21475176929E+03  0.17778406887E+03  0.49146656053E+03  0.40000000000E+03 0. -1.
   -9000007    1    1    2    0  501 -0.61756639825E+02 -0.21475176929E+03  0.31030995657E+03  0.55337552722E+03  0.40000000000E+03 0.  1.
<mgrwt>
<rscale>  2 0.45818359E+03</rscale>
<asrwt>0</asrwt>
<pdfrwt beam="1">  1        2 0.11791816E+00 0.45818359E+03</pdfrwt>
<pdfrwt beam="2">  1       -2 0.42826774E-01 0.45818359E+03</pdfrwt>
<totfact> 0.19383959E+02</totfact>
</mgrwt>
</event>
<event>
 4    1  0.2474915E-002  0.4149883E+03  0.7818608E-02  0.1038710E+00
         -1   -1    0    0    0  501 -0.00000000000E+00  0.00000000000E+00  0.44286392714E+02  0.44286392714E+02  0.00000000000E+00 0. -1.
          1   -1    0    0  502    0  0.00000000000E+00 -0.00000000000E+00 -0.39089099757E+04  0.39089099757E+04  0.00000000000E+00 0.  1.
    9000007    1    1    2  502    0 -0.55458946532E+02 -0.95601238803E+02 -0.20745333069E+04  0.21156331754E+04  0.40000000000E+03 0. -1.
   -9000007    1    1    2    0  501  0.55458946532E+02  0.95601238803E+02 -0.17900902760E+04  0.18375631929E+04  0.40000000000E+03 0. -1.
<mgrwt>
<rscale>  2 0.41498830E+03</rscale>
<asrwt>0</asrwt>
<pdfrwt beam="1">  1        1 0.60137070E+00 0.41498830E+03</pdfrwt>
<pdfrwt beam="2">  1       -1 0.68132919E-02 0.41498830E+03</pdfrwt>
<totfact> 0.15592025E+01</totfact>
</mgrwt>
</event>
<event>
 4    1  0.2474915E-002  0.4074271E+03  0.7818608E-02  0.1041238E+00
         -1   -1    0    0    0  501 -0.00000000000E+00  0.00000000000E+00  0.31711018529E+03  0.31711018529E+03  0.00000000000E+00 0.  1.
          1   -1    0    0  502    0  0.00000000000E+00 -0.00000000000E+00 -0.52402921147E+03  0.52402921147E+03  0.00000000000E+00 0. -1.
    9000007    1    1    2  502    0 -0.66015131944E+02 -0.40483074659E+02 -0.89690095075E+02  0.41718244226E+03  0.40000000000E+03 0.  1.
   -9000007    1    1    2    0  501  0.66015131944E+02  0.40483074659E+02 -0.11722893111E+03  0.42395695450E+03  0.40000000000E+03 0. -1.
<mgrwt>
<rscale>  2 0.40742714E+03</rscale>
<asrwt>0</asrwt>
<pdfrwt beam="1">  1        1 0.80619878E-01 0.40742714E+03</pdfrwt>
<pdfrwt beam="2">  1       -1 0.48786183E-01 0.40742714E+03</pdfrwt>
<totfact> 0.18139225E+02</totfact>
</mgrwt>
</event>
<event>
 4    1  0.2474915E-002  0.4687683E+03  0.7818608E-02  0.1022268E+00
         -1   -1    0    0    0  501 -0.00000000000E+00  0.00000000000E+00  0.22507274442E+03  0.22507274442E+03  0.00000000000E+00 0. -1.
          1   -1    0    0  502    0  0.00000000000E+00 -0.00000000000E+00 -0.10505226761E+04  0.10505226761E+04  0.00000000000E+00 0.  1.
    9000007    1    1    2  502    0 -0.67740292130E+02  0.23485089478E+03 -0.24322042497E+03  0.52810970933E+03  0.40000000000E+03 0. -1.
   -9000007    1    1    2    0  501  0.67740292130E+02 -0.23485089478E+03 -0.58222950670E+03  0.74748571119E+03  0.40000000000E+03 0. -1.
<mgrwt>
<rscale>  2 0.46876827E+03</rscale>
<asrwt>0</asrwt>
<pdfrwt beam="1">  1        1 0.16161887E+00 0.46876827E+03</pdfrwt>
<pdfrwt beam="2">  1       -1 0.34626576E-01 0.46876827E+03</pdfrwt>
<totfact> 0.11453712E+02</totfact>
</mgrwt>
</event>
<event>
 4    1  0.2474915E-002  0.5577517E+03  0.7818608E-02  0.9997155E-01
         -2   -1    0    0    0  501 -0.00000000000E+00  0.00000000000E+00  0.33881993641E+03  0.33881993641E+03  0.00000000000E+00 0. -1.
          2   -1    0    0  502    0  0.00000000000E+00 -0.00000000000E+00 -0.92063569513E+03  0.92063569513E+03  0.00000000000E+00 0.  1.
    9000007    1    1    2  502    0 -0.12759670691E+03 -0.36715935972E+03 -0.32364119628E+03  0.64484923740E+03  0.40000000000E+03 0.  1.
   -9000007    1    1    2    0  501  0.12759670691E+03  0.36715935972E+03 -0.25817456244E+03  0.61460639415E+03  0.40000000000E+03 0.  1.
<mgrwt>
<rscale>  2 0.55775166E+03</rscale>
<asrwt>0</asrwt>
<pdfrwt beam="1">  1        2 0.14163626E+00 0.55775166E+03</pdfrwt>
<pdfrwt beam="2">  1       -2 0.52126144E-01 0.55775166E+03</pdfrwt>
<totfact> 0.10151725E+02</totfact>
</mgrwt>
</event>
<event>
 4    1  0.2474915E-002  0.4937939E+03  0.7818608E-02  0.1015412E+00
         -2   -1    0    0    0  501 -0.00000000000E+00  0.00000000000E+00  0.39399940505E+03  0.39399940505E+03  0.00000000000E+00 0. -1.
          2   -1    0    0  502    0  0.00000000000E+00 -0.00000000000E+00 -0.66053934784E+03  0.66053934784E+03  0.00000000000E+00 0.  1.
    9000007    1    1    2  502    0 -0.11394160309E+03  0.26617604100E+03 -0.26570976900E+03  0.56074419753E+03  0.40000000000E+03 0.  1.
   -9000007    1    1    2    0  501  0.11394160309E+03 -0.26617604100E+03 -0.83017378278E+00  0.49379455537E+03  0.40000000000E+03 0. -1.
<mgrwt>
<rscale>  2 0.49379386E+03</rscale>
<asrwt>0</asrwt>
<pdfrwt beam="1">  1        2 0.10162144E+00 0.49379386E+03</pdfrwt>
<pdfrwt beam="2">  1       -2 0.60615293E-01 0.49379386E+03</pdfrwt>
<totfact> 0.11501726E+02</totfact>
</mgrwt>
</event>
<event>
 4    1  0.2474915E-002  0.4014542E+03  0.7818608E-02  0.1043277E+00
          2   -1    0    0  502    0  0.00000000000E+00  0.00000000000E+00  0.46455990496E+03  0.46455990496E+03  0.00000000000E+00 0.  1.
         -2   -1    0    0    0  501 -0.00000000000E+00 -0.00000000000E+00 -0.37349506671E+03  0.37349506671E+03  0.00000000000E+00 0. -1.
    9000007    1    1    2  502    0  0.21862151788E+02  0.26221228613E+02 -0.66238931453E+02  0.40688217281E+03  0.40000000000E+03 0. -1.
   -9000007    1    1    2    0  501 -0.21862151788E+02 -0.26221228613E+02  0.15730376971E+03  0.43117279886E+03  0.40000000000E+03 0.  1.
<mgrwt>
<rscale>  2 0.40145424E+03</rscale>
<asrwt>0</asrwt>
<pdfrwt beam="1">  1        2 0.71470754E-01 0.40145424E+03</pdfrwt>
<pdfrwt beam="2">  1       -2 0.57460780E-01 0.40145424E+03</pdfrwt>
<totfact> 0.19544009E+02</totfact>
</mgrwt>
</event>
<event>
 4    1  0.2474915E-002  0.4066209E+03  0.7818608E-02  0.1041511E+00
         -2   -1    0    0    0  501 -0.00000000000E+00  0.00000000000E+00  0.51457270700E+02  0.51457270700E+02  0.00000000000E+00 0. -1.
          2   -1    0    0  502    0  0.00000000000E+00 -0.00000000000E+00 -0.39598095728E+04  0.39598095728E+04  0.00000000000E+00 0.  1.
    9000007    1    1    2  502    0  0.64469610039E+02 -0.34412529223E+02 -0.10832683060E+04  0.11570699096E+04  0.40000000000E+03 0. -1.
   -9000007    1    1    2    0  501 -0.64469610039E+02  0.34412529223E+02 -0.28250839961E+04  0.28541969340E+04  0.40000000000E+03 0.  1.
<mgrwt>
<rscale>  2 0.40662090E+03</rscale>
<asrwt>0</asrwt>
<pdfrwt beam="1">  1        2 0.60920156E+00 0.40662090E+03</pdfrwt>
<pdfrwt beam="2">  1       -2 0.79165021E-02 0.40662090E+03</pdfrwt>
<totfact> 0.43829495E+01</totfact>
</mgrwt>
</event>
<event>
 4    1  0.2474915E-002  0.4590131E+03  0.7818608E-02  0.1025068E+00
         -1   -1    0    0    0  501 -0.00000000000E+00  0.00000000000E+00  0.12811153394E+03  0.12811153394E+03  0.00000000000E+00 0. -1.
          1   -1    0    0  502    0  0.00000000000E+00 -0.00000000000E+00 -0.21461777661E+04  0.21461777661E+04  0.00000000000E+00 0.  1.
    9000007    1    1    2  502    0 -0.57266213490E+02 -0.21774661663E+03 -0.15587630310E+04  0.16249415974E+04  0.40000000000E+03 0.  1.
   -9000007    1    1    2    0  501  0.57266213490E+02  0.21774661663E+03 -0.45930320113E+03  0.64934770257E+03  0.40000000000E+03 0. -1.
<mgrwt>
<rscale>  2 0.45901308E+03</rscale>
<asrwt>0</asrwt>
<pdfrwt beam="1">  1        1 0.33018119E+00 0.45901308E+03</pdfrwt>
<pdfrwt beam="2">  1       -1 0.19709467E-01 0.45901308E+03</pdfrwt>
<totfact> 0.53762530E+01</totfact>
</mgrwt>
</event>
<event>
 4    1  0.2474915E-002  0.4860779E+03  0.7818608E-02  0.1017478E+00
          1   -1    0    0  502    0  0.00000000000E+00  0.00000000000E+00  0.16676769604E+04  0.16676769604E+04  0.00000000000E+00 0.  1.
         -1   -1    0    0    0  501 -0.00000000000E+00 -0.00000000000E+00 -0.14187086469E+03  0.14187086469E+03  0.00000000000E+00 0. -1.
    9000007    1    1    2  502    0 -0.22919953419E+03  0.15407565001E+03  0.79633530086E+03  0.93296390273E+03  0.40000000000E+03 0.  1.
   -9000007    1    1    2    0  501  0.22919953419E+03 -0.15407565001E+03  0.72947079484E+03  0.87658392235E+03  0.40000000000E+03 0. -1.
<mgrwt>
<rscale>  2 0.48607791E+03</rscale>
<asrwt>0</asrwt>
<pdfrwt beam="1">  1        1 0.25656567E+00 0.48607791E+03</pdfrwt>
<pdfrwt beam="2">  1       -1 0.21826288E-01 0.48607791E+03</pdfrwt>
<totfact> 0.93650731E+01</totfact>
</mgrwt>
</event>
<event>
 4    1  0.2474915E-002  0.4331398E+03  0.7818608E-02  0.1032873E+00
          2   -1    0    0  502    0  0.00000000000E+00  0.00000000000E+00  0.14339234567E+04  0.14339234567E+04  0.00000000000E+00 0.  1.
         -2   -1    0    0    0  501 -0.00000000000E+00 -0.00000000000E+00 -0.14054368973E+03  0.14054368973E+03  0.00000000000E+00 0. -1.
    9000007    1    1    2  502    0 -0.64017551966E+02 -0.15333562898E+03  0.85357837501E+03  0.95718655672E+03  0.40000000000E+03 0. -1.
   -9000007    1    1    2    0  501  0.64017551966E+02  0.15333562898E+03  0.43980139197E+03  0.61728058973E+03  0.40000000000E+03 0. -1.
<mgrwt>
<rscale>  2 0.43313977E+03</rscale>
<asrwt>0</asrwt>
<pdfrwt beam="1">  1        2 0.22060360E+00 0.43313977E+03</pdfrwt>
<pdfrwt beam="2">  1       -2 0.21622107E-01 0.43313977E+03</pdfrwt>
<totfact> 0.26785953E+02</totfact>
</mgrwt>
</event>
<event>
 4    1  0.2474915E-002  0.5541215E+03  0.7818608E-02  0.1000544E+00
          2   -1    0    0  502    0  0.00000000000E+00  0.00000000000E+00  0.15396183389E+04  0.15396183389E+04  0.00000000000E+00 0.  1.
         -2   -1    0    0    0  501 -0.00000000000E+00 -0.00000000000E+00 -0.22592701443E+03  0.22592701443E+03  0.00000000000E+00 0. -1.
    9000007    1    1    2  502    0 -0.32566196174E+02 -0.38208649717E+03  0.35454508126E+03  0.65783954206E+03  0.40000000000E+03 0. -1.
   -9000007    1    1    2    0  501  0.32566196174E+02  0.38208649717E+03  0.95914624322E+03  0.11077058113E+04  0.40000000000E+03 0.  1.
<mgrwt>
<rscale>  2 0.55412151E+03</rscale>
<asrwt>0</asrwt>
<pdfrwt beam="1">  1        2 0.23686435E+00 0.55412151E+03</pdfrwt>
<pdfrwt beam="2">  1       -2 0.34758003E-01 0.55412151E+03</pdfrwt>
<totfact> 0.97404720E+01</totfact>
</mgrwt>
</event>
<event>
 4    1  0.2474915E-002  0.4174890E+03  0.7818608E-02  0.1037887E+00
         -2   -1    0    0    0  501 -0.00000000000E+00  0.00000000000E+00  0.50452738573E+03  0.50452738573E+03  0.00000000000E+00 0.  1.
          2   -1    0    0  502    0  0.00000000000E+00 -0.00000000000E+00 -0.71146591512E+03  0.71146591512E+03  0.00000000000E+00 0. -1.
    9000007    1    1    2  502    0 -0.11706936071E+03  0.24327917420E+02  0.33260916013E+03  0.53378454098E+03  0.40000000000E+03 0.  1.
   -9000007    1    1    2    0  501  0.11706936071E+03 -0.24327917420E+02 -0.53954768952E+03  0.68220875988E+03  0.40000000000E+03 0. -1.
<mgrwt>
<rscale>  2 0.41748902E+03</rscale>
<asrwt>0</asrwt>
<pdfrwt beam="1">  1        2 0.10945629E+00 0.41748902E+03</pdfrwt>
<pdfrwt beam="2">  1       -2 0.77619598E-01 0.41748902E+03</pdfrwt>
<totfact> 0.62043638E+01</totfact>
</mgrwt>
</event>
<event>
 4    1  0.2474915E-002  0.6293286E+03  0.7818608E-02  0.9846360E-01
          1   -1    0    0  502    0  0.00000000000E+00  0.00000000000E+00  0.17333618064E+04  0.17333618064E+04  0.00000000000E+00 0.  1.
         -1   -1    0    0    0  501 -0.00000000000E+00 -0.00000000000E+00 -0.25454458576E+03  0.25454458576E+03  0.00000000000E+00 0. -1.
    9000007    1    1    2  502    0 -0.45040235266E+02  0.48376220050E+03  0.42140461341E+03  0.75738783831E+03  0.40000000000E+03 0. -1.
   -9000007    1    1    2    0  501  0.45040235266E+02 -0.48376220050E+03  0.10574126072E+04  0.12305185539E+04  0.40000000000E+03 0.  1.
<mgrwt>
<rscale>  2 0.62932860E+03</rscale>
<asrwt>0</asrwt>
<pdfrwt beam="1">  1        1 0.26667104E+00 0.62932860E+03</pdfrwt>
<pdfrwt beam="2">  1       -1 0.39160707E-01 0.62932860E+03</pdfrwt>
<totfact> 0.30123520E+01</totfact>
</mgrwt>
</event>
<event>
 4    1  0.2474915E-002  0.4214383E+03  0.7818608E-02  0.1036599E+00
         -1   -1    0    0    0  501 -0.00000000000E+00  0.00000000000E+00  0.13959716462E+03  0.13959716462E+03  0.00000000000E+00 0. -1.
          1   -1    0    0  502    0  0.00000000000E+00 -0.00000000000E+00 -0.13069764614E+04  0.13069764614E+04  0.00000000000E+00 0.  1.
    9000007    1    1    2  502    0 -0.90485612766E+02 -0.97069876922E+02 -0.46588536109E+03  0.62821921079E+03  0.40000000000E+03 0. -1.
   -9000007    1    1    2    0  501  0.90485612766E+02  0.97069876922E+02 -0.70149393573E+03  0.81835441527E+03  0.40000000000E+03 0. -1.
<mgrwt>
<rscale>  2 0.42143826E+03</rscale>
<asrwt>0</asrwt>
<pdfrwt beam="1">  1        1 0.20107330E+00 0.42143826E+03</pdfrwt>
<pdfrwt beam="2">  1       -1 0.21476487E-01 0.42143826E+03</pdfrwt>
<totfact> 0.17040005E+02</totfact>
</mgrwt>
</event>
<event>
 4    1  0.2474915E-002  0.7281829E+03  0.7818608E-02  0.9670214E-01
          2   -1    0    0  502    0  0.00000000000E+00  0.00000000000E+00  0.11572314062E+04  0.11572314062E+04  0.00000000000E+00 0. -1.
         -2   -1    0    0    0  501 -0.00000000000E+00 -0.00000000000E+00 -0.47707029484E+03  0.47707029484E+03  0.00000000000E+00 0.  1.
    9000007    1    1    2  502    0 -0.17505801061E+03  0.58275645297E+03  0.17758886053E+03  0.74952531241E+03  0.40000000000E+03 0.  1.
   -9000007    1    1    2    0  501  0.17505801061E+03 -0.58275645297E+03  0.50257225080E+03  0.88477638861E+03  0.40000000000E+03 0. -1.
<mgrwt>
<rscale>  2 0.72818294E+03</rscale>
<asrwt>0</asrwt>
<pdfrwt beam="1">  1        2 0.17803560E+00 0.72818294E+03</pdfrwt>
<pdfrwt beam="2">  1       -2 0.73395430E-01 0.72818294E+03</pdfrwt>
<totfact> 0.34346052E+01</totfact>
</mgrwt>
</event>
<event>
 4    1  0.2474915E-002  0.5872132E+03  0.7818608E-02  0.9932296E-01
         -2   -1    0    0    0  501 -0.00000000000E+00  0.00000000000E+00  0.33707633700E+03  0.33707633700E+03  0.00000000000E+00 0. -1.
          2   -1    0    0  502    0  0.00000000000E+00 -0.00000000000E+00 -0.13651885383E+04  0.13651885383E+04  0.00000000000E+00 0.  1.
    9000007    1    1    2  502    0  0.38293646271E+03  0.19539439783E+03 -0.87916415846E+02  0.59375803266E+03  0.40000000000E+03 0. -1.
   -9000007    1    1    2    0  501 -0.38293646271E+03 -0.19539439783E+03 -0.94019578543E+03  0.11085068426E+04  0.40000000000E+03 0.  1.
<mgrwt>
<rscale>  2 0.58721317E+03</rscale>
<asrwt>0</asrwt>
<pdfrwt beam="1">  1        2 0.21002901E+00 0.58721317E+03</pdfrwt>
<pdfrwt beam="2">  1       -2 0.51857897E-01 0.58721317E+03</pdfrwt>
<totfact> 0.55238460E+01</totfact>
</mgrwt>
</event>
<event>
 4    1  0.2474915E-002  0.4460228E+03  0.7818608E-02  0.1028915E+00
         -1   -1    0    0    0  501 -0.00000000000E+00  0.00000000000E+00  0.28490918781E+03  0.28490918781E+03  0.00000000000E+00 0.  1.
          1   -1    0    0  502    0  0.00000000000E+00 -0.00000000000E+00 -0.77577865787E+03  0.77577865787E+03  0.00000000000E+00 0. -1.
    9000007    1    1    2  502    0 -0.19604926084E+03  0.22383615665E+02 -0.41309670923E+03  0.60793521868E+03  0.40000000000E+03 0. -1.
   -9000007    1    1    2    0  501  0.19604926084E+03 -0.22383615665E+02 -0.77772760828E+02  0.45275262700E+03  0.40000000000E+03 0. -1.
<mgrwt>
<rscale>  2 0.44602280E+03</rscale>
<asrwt>0</asrwt>
<pdfrwt beam="1">  1        1 0.11935056E+00 0.44602280E+03</pdfrwt>
<pdfrwt beam="2">  1       -1 0.43832183E-01 0.44602280E+03</pdfrwt>
<totfact> 0.12481738E+02</totfact>
</mgrwt>
</event>
<event>
 4    1  0.2474915E-002  0.6513240E+03  0.7818608E-02  0.9804298E-01
          1   -1    0    0  502    0  0.00000000000E+00  0.00000000000E+00  0.18565444449E+04  0.18565444449E+04  0.00000000000E+00 0.  1.
         -1   -1    0    0    0  501 -0.00000000000E+00 -0.00000000000E+00 -0.67467463836E+03  0.67467463836E+03  0.00000000000E+00 0. -1.
    9000007    1    1    2  502    0  0.47992339220E+03  0.18411010731E+03 -0.43827583683E+03  0.78505331229E+03  0.40000000000E+03 0. -1.
   -9000007    1    1    2    0  501 -0.47992339220E+03 -0.18411010731E+03  0.16201456434E+04  0.17461657710E+04  0.40000000000E+03 0.  1.
<mgrwt>
<rscale>  2 0.65132403E+03</rscale>
<asrwt>0</asrwt>
<pdfrwt beam="1">  1        1 0.28562222E+00 0.65132403E+03</pdfrwt>
<pdfrwt beam="2">  1       -1 0.10379610E+00 0.65132403E+03</pdfrwt>
<totfact> 0.34891327E+00</totfact>
</mgrwt>
</event>
<event>
 4    1  0.2474915E-002  0.4917565E+03  0.7818608E-02  0.1015953E+00
          2   -1    0    0  502    0  0.00000000000E+00  0.00000000000E+00  0.90661175273E+03  0.90661175273E+03  0.00000000000E+00 0.  1.
         -2   -1    0    0    0  501 -0.00000000000E+00 -0.00000000000E+00 -0.28930860849E+03  0.28930860849E+03  0.00000000000E+00 0. -1.
    9000007    1    1    2  502    0 -0.25326223765E+03  0.13297646528E+03  0.47568303411E+03  0.68417749910E+03  0.40000000000E+03 0.  1.
   -9000007    1    1    2    0  501  0.25326223765E+03 -0.13297646528E+03  0.14162011013E+03  0.51174286212E+03  0.40000000000E+03 0. -1.
<mgrwt>
<rscale>  2 0.49175655E+03</rscale>
<asrwt>0</asrwt>
<pdfrwt beam="1">  1        2 0.13947873E+00 0.49175655E+03</pdfrwt>
<pdfrwt beam="2">  1       -2 0.44509017E-01 0.49175655E+03</pdfrwt>
<totfact> 0.14333763E+02</totfact>
</mgrwt>
</event>
<event>
 4    1  0.2474915E-002  0.4080554E+03  0.7818608E-02  0.1041026E+00
          1   -1    0    0  502    0  0.00000000000E+00  0.00000000000E+00  0.12464533500E+04  0.12464533500E+04  0.00000000000E+00 0. -1.
         -1   -1    0    0    0  501 -0.00000000000E+00 -0.00000000000E+00 -0.14782575108E+03  0.14782575108E+03  0.00000000000E+00 0.  1.
    9000007    1    1    2  502    0 -0.80633661096E+02 -0.27306803482E+01  0.76568000548E+03  0.86762613763E+03  0.40000000000E+03 0. -1.
   -9000007    1    1    2    0  501  0.80633661096E+02  0.27306803482E+01  0.33294759344E+03  0.52665296343E+03  0.40000000000E+03 0.  1.
<mgrwt>
<rscale>  2 0.40805544E+03</rscale>
<asrwt>0</asrwt>
<pdfrwt beam="1">  1        1 0.19176205E+00 0.40805544E+03</pdfrwt>
<pdfrwt beam="2">  1       -1 0.22742424E-01 0.40805544E+03</pdfrwt>
<totfact> 0.17104690E+02</totfact>
</mgrwt>
</event>
<event>
 4    1  0.2474915E-002  0.4322525E+03  0.7818608E-02  0.1033151E+00
         -2   -1    0    0    0  501 -0.00000000000E+00  0.00000000000E+00  0.22198124609E+03  0.22198124609E+03  0.00000000000E+00 0.  1.
          2   -1    0    0  502    0  0.00000000000E+00 -0.00000000000E+00 -0.12504349709E+04  0.12504349709E+04  0.00000000000E+00 0. -1.
    9000007    1    1    2  502    0 -0.70909531498E+02 -0.14769578154E+03 -0.93316589316E+02  0.44221057358E+03  0.40000000000E+03 0.  1.
   -9000007    1    1    2    0  501  0.70909531498E+02  0.14769578154E+03 -0.93513713548E+03  0.10302056434E+04  0.40000000000E+03 0. -1.
<mgrwt>
<rscale>  2 0.43225248E+03</rscale>
<asrwt>0</asrwt>
<pdfrwt beam="1">  1        2 0.19237461E+00 0.43225248E+03</pdfrwt>
<pdfrwt beam="2">  1       -2 0.34150960E-01 0.43225248E+03</pdfrwt>
<totfact> 0.14832161E+02</totfact>
</mgrwt>
</event>
<event>
 4    1  0.2474915E-002  0.4042785E+03  0.7818608E-02  0.1042308E+00
          2   -1    0    0  502    0  0.00000000000E+00  0.00000000000E+00  0.15573069108E+04  0.15573069108E+04  0.00000000000E+00 0. -1.
         -2   -1    0    0    0  501 -0.00000000000E+00 -0.00000000000E+00 -0.13302677643E+03  0.13302677643E+03  0.00000000000E+00 0.  1.
    9000007    1    1    2  502    0 -0.46753808708E+02  0.35429062866E+02  0.32386659905E+03  0.51800647786E+03  0.40000000000E+03 0.  1.
   -9000007    1    1    2    0  501  0.46753808708E+02 -0.35429062866E+02  0.11004135353E+04  0.11723272094E+04  0.40000000000E+03 0. -1.
<mgrwt>
<rscale>  2 0.40427854E+03</rscale>
<asrwt>0</asrwt>
<pdfrwt beam="1">  1        2 0.23958566E+00 0.40427854E+03</pdfrwt>
<pdfrwt beam="2">  1       -2 0.20465659E-01 0.40427854E+03</pdfrwt>
<totfact> 0.25333508E+02</totfact>
</mgrwt>
</event>
<event>
 4    1  0.2474915E-002  0.1004946E+04  0.7818608E-02  0.9303137E-01
          2   -1    0    0  502    0  0.00000000000E+00  0.00000000000E+00  0.10198144100E+04  0.10198144100E+04  0.00000000000E+00 0. -1.
         -2   -1    0    0    0  501 -0.00000000000E+00 -0.00000000000E+00 -0.99923699981E+03  0.99923699981E+03  0.00000000000E+00 0.  1.
    9000007    1    1    2  502    0  0.34790718249E+03  0.85374243319E+03  0.10579623915E+03  0.10104990817E+04  0.40000000000E+03 0. -1.
   -9000007    1    1    2    0  501 -0.34790718249E+03 -0.85374243319E+03 -0.85218828918E+02  0.10085523282E+04  0.40000000000E+03 0.  1.
<mgrwt>
<rscale>  2 0.10049455E+04</rscale>
<asrwt>0</asrwt>
<pdfrwt beam="1">  1        2 0.15689452E+00 0.10049455E+04</pdfrwt>
<pdfrwt beam="2">  1       -2 0.15372877E+00 0.10049455E+04</pdfrwt>
<totfact> 0.68017309E+00</totfact>
</mgrwt>
</event>
<event>
 4    1  0.2474915E-002  0.4228369E+03  0.7818608E-02  0.1036147E+00
          3   -1    0    0  502    0  0.00000000000E+00  0.00000000000E+00  0.39227804249E+04  0.39227804249E+04  0.00000000000E+00 0.  1.
         -3   -1    0    0    0  501 -0.00000000000E+00 -0.00000000000E+00 -0.46130254925E+02  0.46130254925E+02  0.00000000000E+00 0. -1.
    9000007    1    1    2  502    0 -0.95693857154E+02 -0.98151427117E+02  0.17211222831E+04  0.17723015913E+04  0.40000000000E+03 0. -1.
   -9000007    1    1    2    0  501  0.95693857154E+02  0.98151427117E+02  0.21555278869E+04  0.21966090886E+04  0.40000000000E+03 0.  1.
<mgrwt>
<rscale>  2 0.42283687E+03</rscale>
<asrwt>0</asrwt>
<pdfrwt beam="1">  1        3 0.60350442E+00 0.42283687E+03</pdfrwt>
<pdfrwt beam="2">  1       -3 0.70969654E-02 0.42283687E+03</pdfrwt>
<totfact> 0.44027164E-01</totfact>
</mgrwt>
</event>
<event>
 4    1  0.2474915E-002  0.4643790E+03  0.7818608E-02  0.1023519E+00
          2   -1    0    0  502    0  0.00000000000E+00  0.00000000000E+00  0.46052716124E+03  0.46052716124E+03  0.00000000000E+00 0.  1.
         -2   -1    0    0    0  501 -0.00000000000E+00 -0.00000000000E+00 -0.51911093665E+03  0.51911093665E+03  0.00000000000E+00 0. -1.
    9000007    1    1    2  502    0  0.23145122121E+03 -0.45587151117E+02 -0.18259183556E+03  0.49898660759E+03  0.40000000000E+03 0. -1.
   -9000007    1    1    2    0  501 -0.23145122121E+03  0.45587151117E+02  0.12400806015E+03  0.48065149030E+03  0.40000000000E+03 0.  1.
<mgrwt>
<rscale>  2 0.46437900E+03</rscale>
<asrwt>0</asrwt>
<pdfrwt beam="1">  1        2 0.70850333E-01 0.46437900E+03</pdfrwt>
<pdfrwt beam="2">  1       -2 0.79863221E-01 0.46437900E+03</pdfrwt>
<totfact> 0.96776780E+01</totfact>
</mgrwt>
</event>
<event>
 4    1  0.2474915E-002  0.5756729E+03  0.7818608E-02  0.9957203E-01
          1   -1    0    0  502    0  0.00000000000E+00  0.00000000000E+00  0.10334653392E+04  0.10334653392E+04  0.00000000000E+00 0.  1.
         -1   -1    0    0    0  501 -0.00000000000E+00 -0.00000000000E+00 -0.35053583073E+03  0.35053583073E+03  0.00000000000E+00 0. -1.
    9000007    1    1    2  502    0 -0.40932804296E+03  0.62046987354E+02  0.54346040079E+03  0.79167448022E+03  0.40000000000E+03 0.  1.
   -9000007    1    1    2    0  501  0.40932804296E+03 -0.62046987354E+02  0.13946910772E+03  0.59232668976E+03  0.40000000000E+03 0. -1.
<mgrwt>
<rscale>  2 0.57567289E+03</rscale>
<asrwt>0</asrwt>
<pdfrwt beam="1">  1        1 0.15899467E+00 0.57567289E+03</pdfrwt>
<pdfrwt beam="2">  1       -1 0.53928590E-01 0.57567289E+03</pdfrwt>
<totfact> 0.51665196E+01</totfact>
</mgrwt>
</event>
<event>
 4    1  0.2474915E-002  0.4508343E+03  0.7818608E-02  0.1027474E+00
          2   -1    0    0  502    0  0.00000000000E+00  0.00000000000E+00  0.15042705851E+04  0.15042705851E+04  0.00000000000E+00 0. -1.
         -2   -1    0    0    0  501 -0.00000000000E+00 -0.00000000000E+00 -0.15740467510E+03  0.15740467510E+03  0.00000000000E+00 0.  1.
    9000007    1    1    2  502    0 -0.20575500616E+03 -0.30272832551E+02  0.36079193613E+03  0.57742738776E+03  0.40000000000E+03 0.  1.
   -9000007    1    1    2    0  501  0.20575500616E+03  0.30272832551E+02  0.98607397387E+03  0.10842478724E+04  0.40000000000E+03 0. -1.
<mgrwt>
<rscale>  2 0.45083430E+03</rscale>
<asrwt>0</asrwt>
<pdfrwt beam="1">  1        2 0.23142623E+00 0.45083430E+03</pdfrwt>
<pdfrwt beam="2">  1       -2 0.24216105E-01 0.45083430E+03</pdfrwt>
<totfact> 0.20021942E+02</totfact>
</mgrwt>
</event>
<event>
 4    1  0.2474915E-002  0.4575284E+03  0.7818608E-02  0.1025501E+00
          1   -1    0    0  502    0  0.00000000000E+00  0.00000000000E+00  0.13030097569E+04  0.13030097569E+04  0.00000000000E+00 0.  1.
         -1   -1    0    0    0  501 -0.00000000000E+00 -0.00000000000E+00 -0.16650497755E+03  0.16650497755E+03  0.00000000000E+00 0. -1.
    9000007    1    1    2  502    0 -0.22152422976E+03  0.16100083425E+02  0.43050347127E+03  0.62822403316E+03  0.40000000000E+03 0.  1.
   -9000007    1    1    2    0  501  0.22152422976E+03 -0.16100083425E+02  0.70600130805E+03  0.84129070126E+03  0.40000000000E+03 0.  1.
<mgrwt>
<rscale>  2 0.45752836E+03</rscale>
<asrwt>0</asrwt>
<pdfrwt beam="1">  1        1 0.20046303E+00 0.45752836E+03</pdfrwt>
<pdfrwt beam="2">  1       -1 0.25616151E-01 0.45752836E+03</pdfrwt>
<totfact> 0.12701433E+02</totfact>
</mgrwt>
</event>
<event>
 4    1  0.2474915E-002  0.4333634E+03  0.7818608E-02  0.1032803E+00
          2   -1    0    0  502    0  0.00000000000E+00  0.00000000000E+00  0.25004337428E+03  0.25004337428E+03  0.00000000000E+00 0. -1.
         -2   -1    0    0    0  501 -0.00000000000E+00 -0.00000000000E+00 -0.95761719676E+03  0.95761719676E+03  0.00000000000E+00 0.  1.
    9000007    1    1    2  502    0  0.12238043950E+03 -0.11325570796E+03 -0.63420937928E+03  0.76813108524E+03  0.40000000000E+03 0.  1.
   -9000007    1    1    2    0  501 -0.12238043950E+03  0.11325570796E+03 -0.73364443211E+02  0.43952948580E+03  0.40000000000E+03 0. -1.
<mgrwt>
<rscale>  2 0.43336339E+03</rscale>
<asrwt>0</asrwt>
<pdfrwt beam="1">  1        2 0.38468213E-01 0.43336339E+03</pdfrwt>
<pdfrwt beam="2">  1       -2 0.14732572E+00 0.43336339E+03</pdfrwt>
<totfact> 0.43796982E+01</totfact>
</mgrwt>
</event>
<event>
 4    1  0.2474915E-002  0.4215344E+03  0.7818608E-02  0.1036568E+00
         -2   -1    0    0    0  501 -0.00000000000E+00  0.00000000000E+00  0.29285819369E+03  0.29285819369E+03  0.00000000000E+00 0.  1.
          2   -1    0    0  502    0  0.00000000000E+00 -0.00000000000E+00 -0.60689450075E+03  0.60689450075E+03  0.00000000000E+00 0. -1.
    9000007    1    1    2  502    0 -0.13300584593E+03 -0.83508517515E+00 -0.15003901184E+03  0.44744045134E+03  0.40000000000E+03 0.  1.
   -9000007    1    1    2    0  501  0.13300584593E+03  0.83508517515E+00 -0.16399729523E+03  0.45231224311E+03  0.40000000000E+03 0.  1.
<mgrwt>
<rscale>  2 0.42153440E+03</rscale>
<asrwt>0</asrwt>
<pdfrwt beam="1">  1        2 0.93368385E-01 0.42153440E+03</pdfrwt>
<pdfrwt beam="2">  1       -2 0.45055106E-01 0.42153440E+03</pdfrwt>
<totfact> 0.23453472E+02</totfact>
</mgrwt>
</event>
<event>
 4    1  0.2474915E-002  0.4677119E+03  0.7818608E-02  0.1022568E+00
          2   -1    0    0  502    0  0.00000000000E+00  0.00000000000E+00  0.50496673496E+03  0.50496673496E+03  0.00000000000E+00 0.  1.
         -2   -1    0    0    0  501 -0.00000000000E+00 -0.00000000000E+00 -0.52485706919E+03  0.52485706919E+03  0.00000000000E+00 0. -1.
    9000007    1    1    2  502    0 -0.15505190878E+03 -0.18631509488E+03  0.20522505099E+03  0.51075603819E+03  0.40000000000E+03 0.  1.
   -9000007    1    1    2    0  501  0.15505190878E+03  0.18631509488E+03 -0.22511538522E+03  0.51906776596E+03  0.40000000000E+03 0. -1.
<mgrwt>
<rscale>  2 0.46771189E+03</rscale>
<asrwt>0</asrwt>
<pdfrwt beam="1">  1        2 0.77687190E-01 0.46771189E+03</pdfrwt>
<pdfrwt beam="2">  1       -2 0.80747241E-01 0.46771189E+03</pdfrwt>
<totfact> 0.84999819E+01</totfact>
</mgrwt>
</event>
<event>
 4    1  0.2474915E-002  0.5148910E+03  0.7818608E-02  0.1009964E+00
          4   -1    0    0  502    0  0.00000000000E+00  0.00000000000E+00  0.16660161679E+04  0.16660161679E+04  0.00000000000E+00 0. -1.
         -4   -1    0    0    0  501 -0.00000000000E+00 -0.00000000000E+00 -0.15962781101E+03  0.15962781101E+03  0.00000000000E+00 0.  1.
    9000007    1    1    2  502    0 -0.31885637571E+03  0.58680347047E+02  0.80418169772E+03  0.95489317434E+03  0.40000000000E+03 0. -1.
   -9000007    1    1    2    0  501  0.31885637571E+03 -0.58680347047E+02  0.70220665919E+03  0.87075080457E+03  0.40000000000E+03 0.  1.
<mgrwt>
<rscale>  2 0.51489103E+03</rscale>
<asrwt>0</asrwt>
<pdfrwt beam="1">  1        4 0.25631017E+00 0.51489103E+03</pdfrwt>
<pdfrwt beam="2">  1       -4 0.24558126E-01 0.51489103E+03</pdfrwt>
<totfact> 0.18412430E+00</totfact>
</mgrwt>
</event>
<event>
 4    1  0.2474915E-002  0.4072862E+03  0.7818608E-02  0.1041286E+00
          1   -1    0    0  502    0  0.00000000000E+00  0.00000000000E+00  0.19464435066E+03  0.19464435066E+03  0.00000000000E+00 0.  1.
         -1   -1    0    0    0  501 -0.00000000000E+00 -0.00000000000E+00 -0.11961737383E+04  0.11961737383E+04  0.00000000000E+00 0. -1.
    9000007    1    1    2  502    0  0.70786940272E+02 -0.29516706684E+02 -0.87365923417E+03  0.96393074665E+03  0.40000000000E+03 0. -1.
   -9000007    1    1    2    0  501 -0.70786940272E+02  0.29516706684E+02 -0.12787015349E+03  0.42688734233E+03  0.40000000000E+03 0.  1.
<mgrwt>
<rscale>  2 0.40728617E+03</rscale>
<asrwt>0</asrwt>
<pdfrwt beam="1">  1        1 0.29945285E-01 0.40728617E+03</pdfrwt>
<pdfrwt beam="2">  1       -1 0.18402673E+00 0.40728617E+03</pdfrwt>
<totfact> 0.31972181E+01</totfact>
</mgrwt>
</event>
<event>
 4    1  0.2474915E-002  0.4204345E+03  0.7818608E-02  0.1036925E+00
         -1   -1    0    0    0  501 -0.00000000000E+00  0.00000000000E+00  0.52549727143E+03  0.52549727143E+03  0.00000000000E+00 0. -1.
          1   -1    0    0  502    0  0.00000000000E+00 -0.00000000000E+00 -0.33638334516E+03  0.33638334516E+03  0.00000000000E+00 0.  1.
    9000007    1    1    2  502    0  0.12051423999E+03  0.47344393551E+02  0.92679155203E+02  0.43052827950E+03  0.40000000000E+03 0.  1.
   -9000007    1    1    2    0  501 -0.12051423999E+03 -0.47344393551E+02  0.96434771065E+02  0.43135233709E+03  0.40000000000E+03 0.  1.
<mgrwt>
<rscale>  2 0.42043451E+03</rscale>
<asrwt>0</asrwt>
<pdfrwt beam="1">  1        1 0.51751284E-01 0.42043451E+03</pdfrwt>
<pdfrwt beam="2">  1       -1 0.80845734E-01 0.42043451E+03</pdfrwt>
<totfact> 0.11988330E+02</totfact>
</mgrwt>
</event>
<event>
 4    1  0.2474915E-002  0.4320452E+03  0.7818608E-02  0.1033216E+00
         -2   -1    0    0    0  501 -0.00000000000E+00  0.00000000000E+00  0.93450227942E+02  0.93450227942E+02  0.00000000000E+00 0.  1.
          2   -1    0    0  502    0  0.00000000000E+00 -0.00000000000E+00 -0.20082033247E+04  0.20082033247E+04  0.00000000000E+00 0. -1.
    9000007    1    1    2  502    0  0.97264353387E+01 -0.16299819361E+03 -0.88051423837E+03  0.98079984637E+03  0.40000000000E+03 0.  1.
   -9000007    1    1    2    0  501 -0.97264353387E+01  0.16299819361E+03 -0.10342388584E+04  0.11208537063E+04  0.40000000000E+03 0. -1.
<mgrwt>
<rscale>  2 0.43204515E+03</rscale>
<asrwt>0</asrwt>
<pdfrwt beam="1">  1        2 0.30895437E+00 0.43204515E+03</pdfrwt>
<pdfrwt beam="2">  1       -2 0.14376958E-01 0.43204515E+03</pdfrwt>
<totfact> 0.26369869E+02</totfact>
</mgrwt>
</event>
<event>
 4    1  0.2474915E-002  0.5582254E+03  0.7818608E-02  0.9996078E-01
          2   -1    0    0  502    0  0.00000000000E+00  0.00000000000E+00  0.18003274852E+04  0.18003274852E+04  0.00000000000E+00 0. -1.
         -2   -1    0    0    0  501 -0.00000000000E+00 -0.00000000000E+00 -0.17720186840E+03  0.17720186840E+03  0.00000000000E+00 0.  1.
    9000007    1    1    2  502    0  0.26135374598E+03  0.28863431799E+03  0.96221321921E+03  0.11124162123E+04  0.40000000000E+03 0. -1.
   -9000007    1    1    2    0  501 -0.26135374598E+03 -0.28863431799E+03  0.66091239762E+03  0.86511314138E+03  0.40000000000E+03 0. -1.
<mgrwt>
<rscale>  2 0.55822536E+03</rscale>
<asrwt>0</asrwt>
<pdfrwt beam="1">  1        2 0.27697345E+00 0.55822536E+03</pdfrwt>
<pdfrwt beam="2">  1       -2 0.27261827E-01 0.55822536E+03</pdfrwt>
<totfact> 0.11027260E+02</totfact>
</mgrwt>
</event>
<event>
 4    1  0.2474915E-002  0.5306117E+03  0.7818608E-02  0.1006084E+00
         -1   -1    0    0    0  501 -0.00000000000E+00  0.00000000000E+00  0.45577873801E+03  0.45577873801E+03  0.00000000000E+00 0. -1.
          1   -1    0    0  502    0  0.00000000000E+00 -0.00000000000E+00 -0.91157734973E+03  0.91157734973E+03  0.00000000000E+00 0.  1.
    9000007    1    1    2  502    0  0.26233837151E+03  0.22962426434E+03 -0.61606299731E+03  0.81306970218E+03  0.40000000000E+03 0.  1.
   -9000007    1    1    2    0  501 -0.26233837151E+03 -0.22962426434E+03  0.16026438559E+03  0.55428638557E+03  0.40000000000E+03 0. -1.
<mgrwt>
<rscale>  2 0.53061165E+03</rscale>
<asrwt>0</asrwt>
<pdfrwt beam="1">  1        1 0.14024267E+00 0.53061165E+03</pdfrwt>
<pdfrwt beam="2">  1       -1 0.70119806E-01 0.53061165E+03</pdfrwt>
<totfact> 0.38544064E+01</totfact>
</mgrwt>
</event>
<event>
 4    1  0.2474915E-002  0.4069166E+03  0.7818608E-02  0.1041411E+00
          2   -1    0    0  502    0  0.00000000000E+00  0.00000000000E+00  0.44750739253E+04  0.44750739253E+04  0.00000000000E+00 0. -1.
         -2   -1    0    0    0  501 -0.00000000000E+00 -0.00000000000E+00 -0.43030735129E+02  0.43030735129E+02  0.00000000000E+00 0.  1.
    9000007    1    1    2  502    0 -0.48436850769E+02 -0.56876679125E+02  0.13703629741E+04  0.14295019293E+04  0.40000000000E+03 0.  1.
   -9000007    1    1    2    0  501  0.48436850769E+02  0.56876679125E+02  0.30616802161E+04  0.30886027311E+04  0.40000000000E+03 0. -1.
<mgrwt>
<rscale>  2 0.40691656E+03</rscale>
<asrwt>0</asrwt>
<pdfrwt beam="1">  1        2 0.68847254E+00 0.40691656E+03</pdfrwt>
<pdfrwt beam="2">  1       -2 0.66201166E-02 0.40691656E+03</pdfrwt>
<totfact> 0.21421625E+01</totfact>
</mgrwt>
</event>
<event>
 4    1  0.2474915E-002  0.4002703E+03  0.7818608E-02  0.1043686E+00
         -1   -1    0    0    0  501 -0.00000000000E+00  0.00000000000E+00  0.35141649569E+03  0.35141649569E+03  0.00000000000E+00 0.  1.
          1   -1    0    0  502    0  0.00000000000E+00 -0.00000000000E+00 -0.45605823617E+03  0.45605823617E+03  0.00000000000E+00 0. -1.
    9000007    1    1    2  502    0 -0.14641351989E+02  0.13858524057E+01 -0.59459015135E+02  0.40466240776E+03  0.40000000000E+03 0. -1.
   -9000007    1    1    2    0  501  0.14641351989E+02 -0.13858524057E+01 -0.45182725348E+02  0.40281232410E+03  0.40000000000E+03 0.  1.
<mgrwt>
<rscale>  2 0.40027027E+03</rscale>
<asrwt>0</asrwt>
<pdfrwt beam="1">  1        1 0.70162806E-01 0.40027027E+03</pdfrwt>
<pdfrwt beam="2">  1       -1 0.54064076E-01 0.40027027E+03</pdfrwt>
<totfact> 0.18036593E+02</totfact>
</mgrwt>
</event>
<event>
 4    1  0.2474915E-002  0.4005719E+03  0.7818608E-02  0.1043582E+00
          1   -1    0    0  502    0  0.00000000000E+00  0.00000000000E+00  0.17989097289E+04  0.17989097289E+04  0.00000000000E+00 0. -1.
         -1   -1    0    0    0  501 -0.00000000000E+00 -0.00000000000E+00 -0.90841404718E+02  0.90841404718E+02  0.00000000000E+00 0.  1.
    9000007    1    1    2  502    0 -0.57401786466E+01  0.20612890142E+02  0.72691790475E+03  0.82998041009E+03  0.40000000000E+03 0.  1.
   -9000007    1    1    2    0  501  0.57401786466E+01 -0.20612890142E+02  0.98115041943E+03  0.10597707235E+04  0.40000000000E+03 0. -1.
<mgrwt>
<rscale>  2 0.40057189E+03</rscale>
<asrwt>0</asrwt>
<pdfrwt beam="1">  1        1 0.27675532E+00 0.40057189E+03</pdfrwt>
<pdfrwt beam="2">  1       -1 0.13975602E-01 0.40057189E+03</pdfrwt>
<totfact> 0.16072421E+02</totfact>
</mgrwt>
</event>
<event>
 4    1  0.2474915E-002  0.6424385E+03  0.7818608E-02  0.9821072E-01
         -2   -1    0    0    0  501 -0.00000000000E+00  0.00000000000E+00  0.72269091284E+03  0.72269091284E+03  0.00000000000E+00 0. -1.
          2   -1    0    0  502    0  0.00000000000E+00 -0.00000000000E+00 -0.58813401967E+03  0.58813401967E+03  0.00000000000E+00 0.  1.
    9000007    1    1    2  502    0  0.44191003506E+01 -0.50270035817E+03 -0.44269960220E+02  0.64396196155E+03  0.40000000000E+03 0.  1.
   -9000007    1    1    2    0  501 -0.44191003506E+01  0.50270035817E+03  0.17882685339E+03  0.66686297096E+03  0.40000000000E+03 0. -1.
<mgrwt>
<rscale>  2 0.64243846E+03</rscale>
<asrwt>0</asrwt>
<pdfrwt beam="1">  1        2 0.90482156E-01 0.64243846E+03</pdfrwt>
<pdfrwt beam="2">  1       -2 0.11118322E+00 0.64243846E+03</pdfrwt>
<totfact> 0.33240349E+01</totfact>
</mgrwt>
</event>
<event>
 4    1  0.2474915E-002  0.4294994E+03  0.7818608E-02  0.1034018E+00
          2   -1    0    0  502    0  0.00000000000E+00  0.00000000000E+00  0.26695280396E+03  0.26695280396E+03  0.00000000000E+00 0. -1.
         -2   -1    0    0    0  501 -0.00000000000E+00 -0.00000000000E+00 -0.70371867037E+03  0.70371867037E+03  0.00000000000E+00 0.  1.
    9000007    1    1    2  502    0 -0.11971147618E+03  0.10069192526E+03 -0.15318655401E+03  0.45599980446E+03  0.40000000000E+03 0. -1.
   -9000007    1    1    2    0  501  0.11971147618E+03 -0.10069192526E+03 -0.28357931240E+03  0.51467166987E+03  0.40000000000E+03 0.  1.
<mgrwt>
<rscale>  2 0.42949936E+03</rscale>
<asrwt>0</asrwt>
<pdfrwt beam="1">  1        2 0.41069663E-01 0.42949936E+03</pdfrwt>
<pdfrwt beam="2">  1       -2 0.10826441E+00 0.42949936E+03</pdfrwt>
<totfact> 0.87808105E+01</totfact>
</mgrwt>
</event>
<event>
 4    1  0.2474915E-002  0.4603310E+03  0.7818608E-02  0.1024685E+00
          2   -1    0    0  502    0  0.00000000000E+00  0.00000000000E+00  0.28115154806E+04  0.28115154806E+04  0.00000000000E+00 0. -1.
         -2   -1    0    0    0  501 -0.00000000000E+00 -0.00000000000E+00 -0.12592857017E+03  0.12592857017E+03  0.00000000000E+00 0.  1.
    9000007    1    1    2  502    0  0.15536110146E+03 -0.16663587116E+03  0.22734166003E+04  0.23195533242E+04  0.40000000000E+03 0. -1.
   -9000007    1    1    2    0  501 -0.15536110146E+03  0.16663587116E+03  0.41217031016E+03  0.61789072657E+03  0.40000000000E+03 0.  1.
<mgrwt>
<rscale>  2 0.46033095E+03</rscale>
<asrwt>0</asrwt>
<pdfrwt beam="1">  1        2 0.43254080E+00 0.46033095E+03</pdfrwt>
<pdfrwt beam="2">  1       -2 0.19373628E-01 0.46033095E+03</pdfrwt>
<totfact> 0.56704499E+01</totfact>
</mgrwt>
</event>
<event>
 4    1  0.2474915E-002  0.4466786E+03  0.7818608E-02  0.1028717E+00
         -2   -1    0    0    0  501 -0.00000000000E+00  0.00000000000E+00  0.14268319589E+03  0.14268319589E+03  0.00000000000E+00 0. -1.
          2   -1    0    0  502    0  0.00000000000E+00 -0.00000000000E+00 -0.14155593068E+04  0.14155593068E+04  0.00000000000E+00 0.  1.
    9000007    1    1    2  502    0  0.19857846147E+03  0.93987316997E+01 -0.72233174799E+03  0.84928493197E+03  0.40000000000E+03 0.  1.
   -9000007    1    1    2    0  501 -0.19857846147E+03 -0.93987316997E+01 -0.55054436288E+03  0.70895757068E+03  0.40000000000E+03 0. -1.
<mgrwt>
<rscale>  2 0.44667857E+03</rscale>
<asrwt>0</asrwt>
<pdfrwt beam="1">  1        2 0.21777835E+00 0.44667857E+03</pdfrwt>
<pdfrwt beam="2">  1       -2 0.21951261E-01 0.44667857E+03</pdfrwt>
<totfact> 0.26661961E+02</totfact>
</mgrwt>
</event>
<event>
 4    1  0.2474915E-002  0.4649958E+03  0.7818608E-02  0.1023342E+00
          2   -1    0    0  502    0  0.00000000000E+00  0.00000000000E+00  0.93259741016E+03  0.93259741016E+03  0.00000000000E+00 0.  1.
         -2   -1    0    0    0  501 -0.00000000000E+00 -0.00000000000E+00 -0.24354799377E+03  0.24354799377E+03  0.00000000000E+00 0. -1.
    9000007    1    1    2  502    0  0.16817208983E+03 -0.16715033340E+03  0.47341694277E+03  0.66358472515E+03  0.40000000000E+03 0.  1.
   -9000007    1    1    2    0  501 -0.16817208983E+03  0.16715033340E+03  0.21563247362E+03  0.51256067878E+03  0.40000000000E+03 0. -1.
<mgrwt>
<rscale>  2 0.46499579E+03</rscale>
<asrwt>0</asrwt>
<pdfrwt beam="1">  1        2 0.14347652E+00 0.46499579E+03</pdfrwt>
<pdfrwt beam="2">  1       -2 0.37468923E-01 0.46499579E+03</pdfrwt>
<totfact> 0.19309718E+02</totfact>
</mgrwt>
</event>
<event>
 4    1  0.2474915E-002  0.4312226E+03  0.7818608E-02  0.1033474E+00
          1   -1    0    0  502    0  0.00000000000E+00  0.00000000000E+00  0.32228521269E+04  0.32228521269E+04  0.00000000000E+00 0.  1.
         -1   -1    0    0    0  501 -0.00000000000E+00 -0.00000000000E+00 -0.66582190807E+02  0.66582190807E+02  0.00000000000E+00 0. -1.
    9000007    1    1    2  502    0  0.35354443510E+02 -0.15717181044E+03  0.21789144748E+04  0.22211756354E+04  0.40000000000E+03 0.  1.
   -9000007    1    1    2    0  501 -0.35354443510E+02  0.15717181044E+03  0.97735546133E+03  0.10682586824E+04  0.40000000000E+03 0. -1.
<mgrwt>
<rscale>  2 0.43122258E+03</rscale>
<asrwt>0</asrwt>
<pdfrwt beam="1">  1        1 0.49582328E+00 0.43122258E+03</pdfrwt>
<pdfrwt beam="2">  1       -1 0.10243416E-01 0.43122258E+03</pdfrwt>
<totfact> 0.28080458E+01</totfact>
</mgrwt>
</event>
<event>
 4    1  0.2474915E-002  0.6041041E+03  0.7818608E-02  0.9896928E-01
          2   -1    0    0  502    0  0.00000000000E+00  0.00000000000E+00  0.41103848701E+03  0.41103848701E+03  0.00000000000E+00 0. -1.
         -2   -1    0    0    0  501 -0.00000000000E+00 -0.00000000000E+00 -0.92818431399E+03  0.92818431399E+03  0.00000000000E+00 0.  1.
    9000007    1    1    2  502    0 -0.44997168389E+03 -0.49671555378E+02 -0.11899182746E+03  0.61571164900E+03  0.40000000000E+03 0. -1.
   -9000007    1    1    2    0  501  0.44997168389E+03  0.49671555378E+02 -0.39815399952E+03  0.72351115199E+03  0.40000000000E+03 0.  1.
<mgrwt>
<rscale>  2 0.60410411E+03</rscale>
<asrwt>0</asrwt>
<pdfrwt beam="1">  1        2 0.63236691E-01 0.60410411E+03</pdfrwt>
<pdfrwt beam="2">  1       -2 0.14279758E+00 0.60410411E+03</pdfrwt>
<totfact> 0.26962928E+01</totfact>
</mgrwt>
</event>
<event>
 4    1  0.2474915E-002  0.4206910E+03  0.7818608E-02  0.1036842E+00
         -2   -1    0    0    0  501 -0.00000000000E+00  0.00000000000E+00  0.43109687651E+03  0.43109687651E+03  0.00000000000E+00 0. -1.
          2   -1    0    0  502    0  0.00000000000E+00 -0.00000000000E+00 -0.45568633363E+03  0.45568633363E+03  0.00000000000E+00 0.  1.
    9000007    1    1    2  502    0 -0.69674834367E+02  0.11011953564E+03  0.12727259432E+03  0.43952156709E+03  0.40000000000E+03 0. -1.
   -9000007    1    1    2    0  501  0.69674834367E+02 -0.11011953564E+03 -0.15186205144E+03  0.44726164305E+03  0.40000000000E+03 0.  1.
<mgrwt>
<rscale>  2 0.42069097E+03</rscale>
<asrwt>0</asrwt>
<pdfrwt beam="1">  1        2 0.70105589E-01 0.42069097E+03</pdfrwt>
<pdfrwt beam="2">  1       -2 0.66322597E-01 0.42069097E+03</pdfrwt>
<totfact> 0.14747119E+02</totfact>
</mgrwt>
</event>
<event>
 4    1  0.2474915E-002  0.4248974E+03  0.7818608E-02  0.1035484E+00
         -3   -1    0    0    0  501 -0.00000000000E+00  0.00000000000E+00  0.13501308163E+03  0.13501308163E+03  0.00000000000E+00 0. -1.
          3   -1    0    0  502    0  0.00000000000E+00 -0.00000000000E+00 -0.13498329664E+04  0.13498329664E+04  0.00000000000E+00 0.  1.
    9000007    1    1    2  502    0 -0.13508792688E+03  0.47843860017E+02 -0.53555086083E+03  0.68363185083E+03  0.40000000000E+03 0. -1.
   -9000007    1    1    2    0  501  0.13508792688E+03 -0.47843860017E+02 -0.67926902399E+03  0.80121419725E+03  0.40000000000E+03 0.  1.
<mgrwt>
<rscale>  2 0.42489738E+03</rscale>
<asrwt>0</asrwt>
<pdfrwt beam="1">  1        3 0.20766662E+00 0.42489738E+03</pdfrwt>
<pdfrwt beam="2">  1       -3 0.20771243E-01 0.42489738E+03</pdfrwt>
<totfact> 0.75068407E+00</totfact>
</mgrwt>
</event>
<event>
 4    1  0.2474915E-002  0.4136540E+03  0.7818608E-02  0.1039152E+00
          1   -1    0    0  502    0  0.00000000000E+00  0.00000000000E+00  0.78069882654E+03  0.78069882654E+03  0.00000000000E+00 0.  1.
         -1   -1    0    0    0  501 -0.00000000000E+00 -0.00000000000E+00 -0.22139993711E+03  0.22139993711E+03  0.00000000000E+00 0. -1.
    9000007    1    1    2  502    0 -0.68920133760E+02 -0.79747530576E+02  0.32987816735E+03  0.52908341381E+03  0.40000000000E+03 0.  1.
   -9000007    1    1    2    0  501  0.68920133760E+02  0.79747530576E+02  0.22942072207E+03  0.47301534984E+03  0.40000000000E+03 0.  1.
<mgrwt>
<rscale>  2 0.41365403E+03</rscale>
<asrwt>0</asrwt>
<pdfrwt beam="1">  1        1 0.12010751E+00 0.41365403E+03</pdfrwt>
<pdfrwt beam="2">  1       -1 0.34061529E-01 0.41365403E+03</pdfrwt>
<totfact> 0.19480220E+02</totfact>
</mgrwt>
</event>
<event>
 4    1  0.2474915E-002  0.6941292E+03  0.7818608E-02  0.9727325E-01
          2   -1    0    0  502    0  0.00000000000E+00  0.00000000000E+00  0.11001702149E+04  0.11001702149E+04  0.00000000000E+00 0. -1.
         -2   -1    0    0    0  501 -0.00000000000E+00 -0.00000000000E+00 -0.44881850731E+03  0.44881850731E+03  0.00000000000E+00 0.  1.
    9000007    1    1    2  502    0 -0.55656701268E+03  0.10976542597E+03  0.20513198317E+03  0.72380551177E+03  0.40000000000E+03 0.  1.
   -9000007    1    1    2    0  501  0.55656701268E+03 -0.10976542597E+03  0.44621972442E+03  0.82518321045E+03  0.40000000000E+03 0.  1.
<mgrwt>
<rscale>  2 0.69412916E+03</rscale>
<asrwt>0</asrwt>
<pdfrwt beam="1">  1        2 0.16925696E+00 0.69412916E+03</pdfrwt>
<pdfrwt beam="2">  1       -2 0.69049001E-01 0.69412916E+03</pdfrwt>
<totfact> 0.42651556E+01</totfact>
</mgrwt>
</event>
<event>
 4    1  0.2474915E-002  0.5226787E+03  0.7818608E-02  0.1008023E+00
         -1   -1    0    0    0  501 -0.00000000000E+00  0.00000000000E+00  0.12856142721E+03  0.12856142721E+03  0.00000000000E+00 0.  1.
          1   -1    0    0  502    0  0.00000000000E+00 -0.00000000000E+00 -0.21261413715E+04  0.21261413715E+04  0.00000000000E+00 0. -1.
    9000007    1    1    2  502    0 -0.30248117755E+03  0.14730309921E+03 -0.10249072509E+04  0.11504903037E+04  0.40000000000E+03 0. -1.
   -9000007    1    1    2    0  501  0.30248117755E+03 -0.14730309921E+03 -0.97267269338E+03  0.11042124951E+04  0.40000000000E+03 0.  1.
<mgrwt>
<rscale>  2 0.52267874E+03</rscale>
<asrwt>0</asrwt>
<pdfrwt beam="1">  1        1 0.32709867E+00 0.52267874E+03</pdfrwt>
<pdfrwt beam="2">  1       -1 0.19778681E-01 0.52267874E+03</pdfrwt>
<totfact> 0.54473610E+01</totfact>
</mgrwt>
</event>
<event>
 4    1  0.2474915E-002  0.4082627E+03  0.7818608E-02  0.1040956E+00
         -3   -1    0    0    0  501 -0.00000000000E+00  0.00000000000E+00  0.16169314139E+04  0.16169314139E+04  0.00000000000E+00 0.  1.
          3   -1    0    0  502    0  0.00000000000E+00 -0.00000000000E+00 -0.10530806642E+03  0.10530806642E+03  0.00000000000E+00 0. -1.
    9000007    1    1    2  502    0  0.81418414474E+02 -0.70346181061E+01  0.63064580467E+03  0.75126065717E+03  0.40000000000E+03 0. -1.
   -9000007    1    1    2    0  501 -0.81418414474E+02  0.70346181061E+01  0.88097754281E+03  0.97097882315E+03  0.40000000000E+03 0.  1.
<mgrwt>
<rscale>  2 0.40826271E+03</rscale>
<asrwt>0</asrwt>
<pdfrwt beam="1">  1        3 0.16201242E-01 0.40826271E+03</pdfrwt>
<pdfrwt beam="2">  1       -3 0.24875866E+00 0.40826271E+03</pdfrwt>
<totfact> 0.66835722E+00</totfact>
</mgrwt>
</event>
<event>
 4    1  0.2474915E-002  0.4263004E+03  0.7818608E-02  0.1035035E+00
          1   -1    0    0  502    0  0.00000000000E+00  0.00000000000E+00  0.61976046572E+03  0.61976046572E+03  0.00000000000E+00 0.  1.
         -1   -1    0    0    0  501 -0.00000000000E+00 -0.00000000000E+00 -0.31554857558E+03  0.31554857558E+03  0.00000000000E+00 0. -1.
    9000007    1    1    2  502    0  0.18249740864E+02  0.14628386818E+03  0.27648022270E+03  0.50810760344E+03  0.40000000000E+03 0. -1.
   -9000007    1    1    2    0  501 -0.18249740864E+02 -0.14628386818E+03  0.27731667453E+02  0.42720143786E+03  0.40000000000E+03 0. -1.
<mgrwt>
<rscale>  2 0.42630039E+03</rscale>
<asrwt>0</asrwt>
<pdfrwt beam="1">  1        1 0.95347764E-01 0.42630039E+03</pdfrwt>
<pdfrwt beam="2">  1       -1 0.48545935E-01 0.42630039E+03</pdfrwt>
<totfact> 0.14458828E+02</totfact>
</mgrwt>
</event>
<event>
 4    1  0.2474915E-002  0.4018604E+03  0.7818608E-02  0.1043137E+00
         -2   -1    0    0    0  501 -0.00000000000E+00  0.00000000000E+00  0.18327333949E+03  0.18327333949E+03  0.00000000000E+00 0.  1.
          2   -1    0    0  502    0  0.00000000000E+00 -0.00000000000E+00 -0.95446794440E+03  0.95446794440E+03  0.00000000000E+00 0. -1.
    9000007    1    1    2  502    0 -0.18276529094E+02 -0.34025620544E+02 -0.54326051513E+03  0.67573941847E+03  0.40000000000E+03 0. -1.
   -9000007    1    1    2    0  501  0.18276529094E+02  0.34025620544E+02 -0.22793408977E+03  0.46200186542E+03  0.40000000000E+03 0.  1.
<mgrwt>
<rscale>  2 0.40186039E+03</rscale>
<asrwt>0</asrwt>
<pdfrwt beam="1">  1        2 0.14684122E+00 0.40186039E+03</pdfrwt>
<pdfrwt beam="2">  1       -2 0.28195898E-01 0.40186039E+03</pdfrwt>
<totfact> 0.31935574E+02</totfact>
</mgrwt>
</event>
<event>
 4    1  0.2474915E-002  0.5012340E+03  0.7818608E-02  0.1013457E+00
         -2   -1    0    0    0  501 -0.00000000000E+00  0.00000000000E+00  0.33879669314E+03  0.33879669314E+03  0.00000000000E+00 0. -1.
          2   -1    0    0  502    0  0.00000000000E+00 -0.00000000000E+00 -0.83022197283E+03  0.83022197283E+03  0.00000000000E+00 0.  1.
    9000007    1    1    2  502    0 -0.22009790272E+03  0.20686341617E+03 -0.54691592776E+02  0.50420901425E+03  0.40000000000E+03 0.  1.
   -9000007    1    1    2    0  501  0.22009790272E+03 -0.20686341617E+03 -0.43673368692E+03  0.66480965172E+03  0.40000000000E+03 0.  1.
<mgrwt>
<rscale>  2 0.50123404E+03</rscale>
<asrwt>0</asrwt>
<pdfrwt beam="1">  1        2 0.12772646E+00 0.50123404E+03</pdfrwt>
<pdfrwt beam="2">  1       -2 0.52122569E-01 0.50123404E+03</pdfrwt>
<totfact> 0.11748483E+02</totfact>
</mgrwt>
</event>
<event>
 4    1  0.2474915E-002  0.4656551E+03  0.7818608E-02  0.1023154E+00
         -1   -1    0    0    0  501 -0.00000000000E+00  0.00000000000E+00  0.37388744055E+03  0.37388744055E+03  0.00000000000E+00 0. -1.
          1   -1    0    0  502    0  0.00000000000E+00 -0.00000000000E+00 -0.58604985414E+03  0.58604985414E+03  0.00000000000E+00 0.  1.
    9000007    1    1    2  502    0  0.22728572068E+03 -0.71943638110E+02 -0.57099669737E+02  0.46914289739E+03  0.40000000000E+03 0.  1.
   -9000007    1    1    2    0  501 -0.22728572068E+03  0.71943638110E+02 -0.15506274385E+03  0.49079439730E+03  0.40000000000E+03 0. -1.
<mgrwt>
<rscale>  2 0.46565511E+03</rscale>
<asrwt>0</asrwt>
<pdfrwt beam="1">  1        1 0.90161516E-01 0.46565511E+03</pdfrwt>
<pdfrwt beam="2">  1       -1 0.57521145E-01 0.46565511E+03</pdfrwt>
<totfact> 0.11299374E+02</totfact>
</mgrwt>
</event>
<event>
 4    1  0.2474915E-002  0.5615058E+03  0.7818608E-02  0.9988653E-01
         -2   -1    0    0    0  501 -0.00000000000E+00  0.00000000000E+00  0.95820582546E+02  0.95820582546E+02  0.00000000000E+00 0.  1.
          2   -1    0    0  502    0  0.00000000000E+00 -0.00000000000E+00 -0.36068397945E+04  0.36068397945E+04  0.00000000000E+00 0. -1.
    9000007    1    1    2  502    0  0.36712713734E+03 -0.14320062180E+03 -0.12071557126E+04  0.13313578285E+04  0.40000000000E+03 0.  1.
   -9000007    1    1    2    0  501 -0.36712713734E+03  0.14320062180E+03 -0.23038634994E+04  0.23713025485E+04  0.40000000000E+03 0. -1.
<mgrwt>
<rscale>  2 0.56150579E+03</rscale>
<asrwt>0</asrwt>
<pdfrwt beam="1">  1        2 0.55489844E+00 0.56150579E+03</pdfrwt>
<pdfrwt beam="2">  1       -2 0.14741628E-01 0.56150579E+03</pdfrwt>
<totfact> 0.27639080E+01</totfact>
</mgrwt>
</event>
<event>
 4    1  0.2474915E-002  0.4045378E+03  0.7818608E-02  0.1042220E+00
         -2   -1    0    0    0  501 -0.00000000000E+00  0.00000000000E+00  0.24924137195E+03  0.24924137195E+03  0.00000000000E+00 0. -1.
          2   -1    0    0  502    0  0.00000000000E+00 -0.00000000000E+00 -0.65957194747E+03  0.65957194747E+03  0.00000000000E+00 0.  1.
    9000007    1    1    2  502    0 -0.48602671171E+02  0.35897284923E+02 -0.23568931186E+03  0.46818830233E+03  0.40000000000E+03 0. -1.
   -9000007    1    1    2    0  501  0.48602671171E+02 -0.35897284923E+02 -0.17464126366E+03  0.44062501709E+03  0.40000000000E+03 0. -1.
<mgrwt>
<rscale>  2 0.40453780E+03</rscale>
<asrwt>0</asrwt>
<pdfrwt beam="1">  1        2 0.10147261E+00 0.40453780E+03</pdfrwt>
<pdfrwt beam="2">  1       -2 0.38344826E-01 0.40453780E+03</pdfrwt>
<totfact> 0.29075743E+02</totfact>
</mgrwt>
</event>
<event>
 4    1  0.2474915E-002  0.4269052E+03  0.7818608E-02  0.1034842E+00
         -1   -1    0    0    0  501 -0.00000000000E+00  0.00000000000E+00  0.48390896310E+03  0.48390896310E+03  0.00000000000E+00 0. -1.
          1   -1    0    0  502    0  0.00000000000E+00 -0.00000000000E+00 -0.37682338699E+03  0.37682338699E+03  0.00000000000E+00 0.  1.
    9000007    1    1    2  502    0  0.12105097753E+03  0.87147454261E+02  0.43454587606E+02  0.42911108017E+03  0.40000000000E+03 0. -1.
   -9000007    1    1    2    0  501 -0.12105097753E+03 -0.87147454261E+02  0.63630988503E+02  0.43162126991E+03  0.40000000000E+03 0. -1.
<mgrwt>
<rscale>  2 0.42690516E+03</rscale>
<asrwt>0</asrwt>
<pdfrwt beam="1">  1        1 0.57972828E-01 0.42690516E+03</pdfrwt>
<pdfrwt beam="2">  1       -1 0.74447533E-01 0.42690516E+03</pdfrwt>
<totfact> 0.12282124E+02</totfact>
</mgrwt>
</event>
<event>
 4    1  0.2474915E-002  0.4477655E+03  0.7818608E-02  0.1028390E+00
          1   -1    0    0  502    0  0.00000000000E+00  0.00000000000E+00  0.20944124299E+04  0.20944124299E+04  0.00000000000E+00 0. -1.
         -1   -1    0    0    0  501 -0.00000000000E+00 -0.00000000000E+00 -0.96745551873E+02  0.96745551873E+02  0.00000000000E+00 0.  1.
    9000007    1    1    2  502    0 -0.13930218805E+03 -0.14521991748E+03  0.88647508796E+03  0.99314249008E+03  0.40000000000E+03 0.  1.
   -9000007    1    1    2    0  501  0.13930218805E+03  0.14521991748E+03  0.11111917901E+04  0.11980154917E+04  0.40000000000E+03 0. -1.
<mgrwt>
<rscale>  2 0.44776548E+03</rscale>
<asrwt>0</asrwt>
<pdfrwt beam="1">  1        1 0.32221726E+00 0.44776548E+03</pdfrwt>
<pdfrwt beam="2">  1       -1 0.14883933E-01 0.44776548E+03</pdfrwt>
<totfact> 0.92081376E+01</totfact>
</mgrwt>
</event>
<event>
 4    1  0.2474915E-002  0.4420125E+03  0.7818608E-02  0.1030131E+00
         -1   -1    0    0    0  501 -0.00000000000E+00  0.00000000000E+00  0.15873452304E+03  0.15873452304E+03  0.00000000000E+00 0. -1.
          1   -1    0    0  502    0  0.00000000000E+00 -0.00000000000E+00 -0.12563157147E+04  0.12563157147E+04  0.00000000000E+00 0.  1.
    9000007    1    1    2  502    0  0.18611036986E+03 -0.27165906223E+02 -0.64956477973E+03  0.78569043477E+03  0.40000000000E+03 0. -1.
   -9000007    1    1    2    0  501 -0.18611036986E+03  0.27165906223E+02 -0.44801641190E+03  0.62935980295E+03  0.40000000000E+03 0.  1.
<mgrwt>
<rscale>  2 0.44201251E+03</rscale>
<asrwt>0</asrwt>
<pdfrwt beam="1">  1        1 0.19327934E+00 0.44201251E+03</pdfrwt>
<pdfrwt beam="2">  1       -1 0.24420696E-01 0.44201251E+03</pdfrwt>
<totfact> 0.14874598E+02</totfact>
</mgrwt>
</event>
<event>
 4    1  0.2474915E-002  0.4018265E+03  0.7818608E-02  0.1043149E+00
         -2   -1    0    0    0  501 -0.00000000000E+00  0.00000000000E+00  0.10307474401E+03  0.10307474401E+03  0.00000000000E+00 0. -1.
          2   -1    0    0  502    0  0.00000000000E+00 -0.00000000000E+00 -0.27869791750E+04  0.27869791750E+04  0.00000000000E+00 0.  1.
    9000007    1    1    2  502    0  0.99147546730E+01  0.36962991919E+02 -0.22982161216E+04  0.23330799186E+04  0.40000000000E+03 0.  1.
   -9000007    1    1    2    0  501 -0.99147546730E+01 -0.36962991919E+02 -0.38568830948E+03  0.55697400047E+03  0.40000000000E+03 0. -1.
<mgrwt>
<rscale>  2 0.40182654E+03</rscale>
<asrwt>0</asrwt>
<pdfrwt beam="1">  1        2 0.42876598E+00 0.40182654E+03</pdfrwt>
<pdfrwt beam="2">  1       -2 0.15857655E-01 0.40182654E+03</pdfrwt>
<totfact> 0.83586259E+01</totfact>
</mgrwt>
</event>
<event>
 4    1  0.2474915E-002  0.5338809E+03  0.7818608E-02  0.1005295E+00
          2   -1    0    0  502    0  0.00000000000E+00  0.00000000000E+00  0.49371586869E+03  0.49371586869E+03  0.00000000000E+00 0.  1.
         -2   -1    0    0    0  501 -0.00000000000E+00 -0.00000000000E+00 -0.63850701481E+03  0.63850701481E+03  0.00000000000E+00 0. -1.
    9000007    1    1    2  502    0  0.30093924379E+03 -0.18564595701E+03  0.10285994354E+03  0.54369938182E+03  0.40000000000E+03 0. -1.
   -9000007    1    1    2    0  501 -0.30093924379E+03  0.18564595701E+03 -0.24765108966E+03  0.58852350167E+03  0.40000000000E+03 0. -1.
<mgrwt>
<rscale>  2 0.53388093E+03</rscale>
<asrwt>0</asrwt>
<pdfrwt beam="1">  1        2 0.75956288E-01 0.53388093E+03</pdfrwt>
<pdfrwt beam="2">  1       -2 0.98231848E-01 0.53388093E+03</pdfrwt>
<totfact> 0.55367830E+01</totfact>
</mgrwt>
</event>
<event>
 4    1  0.2474915E-002  0.4032453E+03  0.7818608E-02  0.1042662E+00
          2   -1    0    0  502    0  0.00000000000E+00  0.00000000000E+00  0.20446773611E+04  0.20446773611E+04  0.00000000000E+00 0.  1.
         -2   -1    0    0    0  501 -0.00000000000E+00 -0.00000000000E+00 -0.90566166345E+02  0.90566166345E+02  0.00000000000E+00 0. -1.
    9000007    1    1    2  502    0 -0.37346779593E+02 -0.34813722471E+02  0.13497949544E+04  0.14087417067E+04  0.40000000000E+03 0.  1.
   -9000007    1    1    2    0  501  0.37346779593E+02  0.34813722471E+02  0.60431624036E+03  0.72650182077E+03  0.40000000000E+03 0. -1.
<mgrwt>
<rscale>  2 0.40324531E+03</rscale>
<asrwt>0</asrwt>
<pdfrwt beam="1">  1        2 0.31456571E+00 0.40324531E+03</pdfrwt>
<pdfrwt beam="2">  1       -2 0.13933258E-01 0.40324531E+03</pdfrwt>
<totfact> 0.26673353E+02</totfact>
</mgrwt>
</event>
<event>
 4    1  0.2474915E-002  0.4047790E+03  0.7818608E-02  0.1042137E+00
          2   -1    0    0  502    0  0.00000000000E+00  0.00000000000E+00  0.14670466122E+04  0.14670466122E+04  0.00000000000E+00 0. -1.
         -2   -1    0    0    0  501 -0.00000000000E+00 -0.00000000000E+00 -0.12549313248E+03  0.12549313248E+03  0.00000000000E+00 0.  1.
    9000007    1    1    2  502    0 -0.60592270876E+02 -0.13212762197E+02  0.93491394192E+03  0.10187787194E+04  0.40000000000E+03 0. -1.
   -9000007    1    1    2    0  501  0.60592270876E+02  0.13212762197E+02  0.40663953775E+03  0.57376102520E+03  0.40000000000E+03 0.  1.
<mgrwt>
<rscale>  2 0.40477895E+03</rscale>
<asrwt>0</asrwt>
<pdfrwt beam="1">  1        2 0.22569947E+00 0.40477895E+03</pdfrwt>
<pdfrwt beam="2">  1       -2 0.19306637E-01 0.40477895E+03</pdfrwt>
<totfact> 0.31374122E+02</totfact>
</mgrwt>
</event>
<event>
 4    1  0.2474915E-002  0.4147223E+03  0.7818608E-02  0.1038798E+00
         -2   -1    0    0    0  501 -0.00000000000E+00  0.00000000000E+00  0.16090698646E+03  0.16090698646E+03  0.00000000000E+00 0.  1.
          2   -1    0    0  502    0  0.00000000000E+00 -0.00000000000E+00 -0.17590213818E+04  0.17590213818E+04  0.00000000000E+00 0. -1.
    9000007    1    1    2  502    0 -0.64533881717E+02  0.88486884569E+02 -0.19777255122E+03  0.45946548581E+03  0.40000000000E+03 0.  1.
   -9000007    1    1    2    0  501  0.64533881717E+02 -0.88486884569E+02 -0.14003418441E+04  0.14604628824E+04  0.40000000000E+03 0. -1.
<mgrwt>
<rscale>  2 0.41472226E+03</rscale>
<asrwt>0</asrwt>
<pdfrwt beam="1">  1        2 0.27061869E+00 0.41472226E+03</pdfrwt>
<pdfrwt beam="2">  1       -2 0.24754919E-01 0.41472226E+03</pdfrwt>
<totfact> 0.14100962E+02</totfact>
</mgrwt>
</event>
<event>
 4    1  0.2474915E-002  0.4186398E+03  0.7818608E-02  0.1037510E+00
          2   -1    0    0  502    0  0.00000000000E+00  0.00000000000E+00  0.12669745486E+04  0.12669745486E+04  0.00000000000E+00 0. -1.
         -2   -1    0    0    0  501 -0.00000000000E+00 -0.00000000000E+00 -0.17077860903E+03  0.17077860903E+03  0.00000000000E+00 0.  1.
    9000007    1    1    2  502    0 -0.12285210380E+03  0.12908126970E+02  0.23473861347E+03  0.47995986895E+03  0.40000000000E+03 0.  1.
   -9000007    1    1    2    0  501  0.12285210380E+03 -0.12908126970E+02  0.86145732608E+03  0.95779328867E+03  0.40000000000E+03 0. -1.
<mgrwt>
<rscale>  2 0.41863977E+03</rscale>
<asrwt>0</asrwt>
<pdfrwt beam="1">  1        2 0.19491916E+00 0.41863977E+03</pdfrwt>
<pdfrwt beam="2">  1       -2 0.26273633E-01 0.41863977E+03</pdfrwt>
<totfact> 0.23542176E+02</totfact>
</mgrwt>
</event>
<event>
 4    1  0.2474915E-002  0.7316531E+03  0.7818608E-02  0.9664582E-01
         -3   -1    0    0    0  501 -0.00000000000E+00  0.00000000000E+00  0.53772131069E+03  0.53772131069E+03  0.00000000000E+00 0.  1.
          3   -1    0    0  502    0  0.00000000000E+00 -0.00000000000E+00 -0.10809505437E+04  0.10809505437E+04  0.00000000000E+00 0. -1.
    9000007    1    1    2  502    0 -0.48369583635E+03  0.37597155182E+03 -0.44097635067E+02  0.73298081237E+03  0.40000000000E+03 0.  1.
   -9000007    1    1    2    0  501  0.48369583635E+03 -0.37597155182E+03 -0.49913159797E+03  0.88569104205E+03  0.40000000000E+03 0. -1.
<mgrwt>
<rscale>  2 0.73165311E+03</rscale>
<asrwt>0</asrwt>
<pdfrwt beam="1">  1        3 0.16630008E+00 0.73165311E+03</pdfrwt>
<pdfrwt beam="2">  1       -3 0.82726356E-01 0.73165311E+03</pdfrwt>
<totfact> 0.86504780E-01</totfact>
</mgrwt>
</event>
<event>
 4    1  0.2474915E-002  0.5720955E+03  0.7818608E-02  0.9965052E-01
         -1   -1    0    0    0  501 -0.00000000000E+00  0.00000000000E+00  0.19948326706E+03  0.19948326706E+03  0.00000000000E+00 0. -1.
          1   -1    0    0  502    0  0.00000000000E+00 -0.00000000000E+00 -0.17672079949E+04  0.17672079949E+04  0.00000000000E+00 0.  1.
    9000007    1    1    2  502    0  0.40503719757E+03 -0.56904612702E+02 -0.52076764114E+03  0.77362277786E+03  0.40000000000E+03 0. -1.
   -9000007    1    1    2    0  501 -0.40503719757E+03  0.56904612702E+02 -0.10469570867E+04  0.11930684841E+04  0.40000000000E+03 0. -1.
<mgrwt>
<rscale>  2 0.57209550E+03</rscale>
<asrwt>0</asrwt>
<pdfrwt beam="1">  1        1 0.27187814E+00 0.57209550E+03</pdfrwt>
<pdfrwt beam="2">  1       -1 0.30689735E-01 0.57209550E+03</pdfrwt>
<totfact> 0.44429845E+01</totfact>
</mgrwt>
</event>
<event>
 4    1  0.2474915E-002  0.4549126E+03  0.7818608E-02  0.1026267E+00
         -1   -1    0    0    0  501 -0.00000000000E+00  0.00000000000E+00  0.15909053177E+03  0.15909053177E+03  0.00000000000E+00 0. -1.
          1   -1    0    0  502    0  0.00000000000E+00 -0.00000000000E+00 -0.13648846040E+04  0.13648846040E+04  0.00000000000E+00 0.  1.
    9000007    1    1    2  502    0  0.12246465068E+03 -0.17873981412E+03 -0.43779018428E+03  0.63135232420E+03  0.40000000000E+03 0. -1.
   -9000007    1    1    2    0  501 -0.12246465068E+03  0.17873981412E+03 -0.76800388795E+03  0.89262281156E+03  0.40000000000E+03 0.  1.
<mgrwt>
<rscale>  2 0.45491264E+03</rscale>
<asrwt>0</asrwt>
<pdfrwt beam="1">  1        1 0.20998225E+00 0.45491264E+03</pdfrwt>
<pdfrwt beam="2">  1       -1 0.24475467E-01 0.45491264E+03</pdfrwt>
<totfact> 0.12433470E+02</totfact>
</mgrwt>
</event>
<event>
 4    1  0.2474915E-002  0.4013206E+03  0.7818608E-02  0.1043323E+00
          1   -1    0    0  502    0  0.00000000000E+00  0.00000000000E+00  0.84936730101E+03  0.84936730101E+03  0.00000000000E+00 0. -1.
         -1   -1    0    0    0  501 -0.00000000000E+00 -0.00000000000E+00 -0.21916532528E+03  0.21916532528E+03  0.00000000000E+00 0.  1.
    9000007    1    1    2  502    0  0.17389527257E+01  0.32484455665E+02  0.11894319775E+03  0.41857585705E+03  0.40000000000E+03 0.  1.
   -9000007    1    1    2    0  501 -0.17389527257E+01 -0.32484455665E+02  0.51125877798E+03  0.64995676924E+03  0.40000000000E+03 0. -1.
<mgrwt>
<rscale>  2 0.40132065E+03</rscale>
<asrwt>0</asrwt>
<pdfrwt beam="1">  1        1 0.13067189E+00 0.40132065E+03</pdfrwt>
<pdfrwt beam="2">  1       -1 0.33717743E-01 0.40132065E+03</pdfrwt>
<totfact> 0.17381326E+02</totfact>
</mgrwt>
</event>
<event>
 4    1  0.2474915E-002  0.6129073E+03  0.7818608E-02  0.9878984E-01
         -2   -1    0    0    0  501 -0.00000000000E+00  0.00000000000E+00  0.70374282610E+03  0.70374282610E+03  0.00000000000E+00 0. -1.
          2   -1    0    0  502    0  0.00000000000E+00 -0.00000000000E+00 -0.54174773974E+03  0.54174773974E+03  0.00000000000E+00 0.  1.
    9000007    1    1    2  502    0 -0.45443032072E+03 -0.95647426833E+02  0.15644309118E+03  0.63255812968E+03  0.40000000000E+03 0. -1.
   -9000007    1    1    2    0  501  0.45443032072E+03  0.95647426833E+02  0.55519951763E+01  0.61293243616E+03  0.40000000000E+03 0.  1.
<mgrwt>
<rscale>  2 0.61290729E+03</rscale>
<asrwt>0</asrwt>
<pdfrwt beam="1">  1        2 0.83345806E-01 0.61290729E+03</pdfrwt>
<pdfrwt beam="2">  1       -2 0.10826813E+00 0.61290729E+03</pdfrwt>
<totfact> 0.39166192E+01</totfact>
</mgrwt>
</event>
<event>
 4    1  0.2474915E-002  0.5617817E+03  0.7818608E-02  0.9988031E-01
         -1   -1    0    0    0  501 -0.00000000000E+00  0.00000000000E+00  0.37744709562E+03  0.37744709562E+03  0.00000000000E+00 0. -1.
          1   -1    0    0  502    0  0.00000000000E+00 -0.00000000000E+00 -0.10677830399E+04  0.10677830399E+04  0.00000000000E+00 0.  1.
    9000007    1    1    2  502    0 -0.39384075079E+03 -0.22092706623E+02 -0.85982016899E+01  0.56184744704E+03  0.40000000000E+03 0. -1.
   -9000007    1    1    2    0  501  0.39384075079E+03  0.22092706623E+02 -0.68173774262E+03  0.88338268853E+03  0.40000000000E+03 0.  1.
<mgrwt>
<rscale>  2 0.56178165E+03</rscale>
<asrwt>0</asrwt>
<pdfrwt beam="1">  1        1 0.16427431E+00 0.56178165E+03</pdfrwt>
<pdfrwt beam="2">  1       -1 0.58068785E-01 0.56178165E+03</pdfrwt>
<totfact> 0.42285559E+01</totfact>
</mgrwt>
</event>
<event>
 4    1  0.2474915E-002  0.4034137E+03  0.7818608E-02  0.1042604E+00
          2   -1    0    0  502    0  0.00000000000E+00  0.00000000000E+00  0.84024557927E+03  0.84024557927E+03  0.00000000000E+00 0.  1.
         -2   -1    0    0    0  501 -0.00000000000E+00 -0.00000000000E+00 -0.21714531332E+03  0.21714531332E+03  0.00000000000E+00 0. -1.
    9000007    1    1    2  502    0 -0.49009113872E+02 -0.18459569467E+02  0.48533050611E+03  0.63110090248E+03  0.40000000000E+03 0.  1.
   -9000007    1    1    2    0  501  0.49009113872E+02  0.18459569467E+02  0.13776975984E+03  0.42628999012E+03  0.40000000000E+03 0. -1.
<mgrwt>
<rscale>  2 0.40341374E+03</rscale>
<asrwt>0</asrwt>
<pdfrwt beam="1">  1        2 0.12926855E+00 0.40341374E+03</pdfrwt>
<pdfrwt beam="2">  1       -2 0.33406972E-01 0.40341374E+03</pdfrwt>
<totfact> 0.27786344E+02</totfact>
</mgrwt>
</event>
<event>
 4    1  0.2474915E-002  0.4335686E+03  0.7818608E-02  0.1032739E+00
          2   -1    0    0  502    0  0.00000000000E+00  0.00000000000E+00  0.99736211606E+03  0.99736211606E+03  0.00000000000E+00 0. -1.
         -2   -1    0    0    0  501 -0.00000000000E+00 -0.00000000000E+00 -0.21579654541E+03  0.21579654541E+03  0.00000000000E+00 0.  1.
    9000007    1    1    2  502    0  0.10390619708E+03 -0.13109238711E+03  0.60660046430E+03  0.74561775397E+03  0.40000000000E+03 0.  1.
   -9000007    1    1    2    0  501 -0.10390619708E+03  0.13109238711E+03  0.17496510635E+03  0.46754090750E+03  0.40000000000E+03 0.  1.
<mgrwt>
<rscale>  2 0.43356858E+03</rscale>
<asrwt>0</asrwt>
<pdfrwt beam="1">  1        2 0.15344032E+00 0.43356858E+03</pdfrwt>
<pdfrwt beam="2">  1       -2 0.33199469E-01 0.43356858E+03</pdfrwt>
<totfact> 0.22135323E+02</totfact>
</mgrwt>
</event>
<event>
 4    1  0.2474915E-002  0.4286480E+03  0.7818608E-02  0.1034288E+00
         -2   -1    0    0    0  501 -0.00000000000E+00  0.00000000000E+00  0.77802175245E+02  0.77802175245E+02  0.00000000000E+00 0. -1.
          2   -1    0    0  502    0  0.00000000000E+00 -0.00000000000E+00 -0.23631101731E+04  0.23631101731E+04  0.00000000000E+00 0.  1.
    9000007    1    1    2  502    0  0.31653776189E+02 -0.15078836842E+03 -0.11733122527E+04  0.12491600122E+04  0.40000000000E+03 0.  1.
   -9000007    1    1    2    0  501 -0.31653776189E+02  0.15078836842E+03 -0.11119957451E+04  0.11917523362E+04  0.40000000000E+03 0. -1.
<mgrwt>
<rscale>  2 0.42864798E+03</rscale>
<asrwt>0</asrwt>
<pdfrwt beam="1">  1        2 0.36355544E+00 0.42864798E+03</pdfrwt>
<pdfrwt beam="2">  1       -2 0.11969565E-01 0.42864798E+03</pdfrwt>
<totfact> 0.22947474E+02</totfact>
</mgrwt>
</event>
<event>
 4    1  0.2474915E-002  0.4942719E+03  0.7818608E-02  0.1015285E+00
          2   -1    0    0  502    0  0.00000000000E+00  0.00000000000E+00  0.66804207304E+03  0.66804207304E+03  0.00000000000E+00 0. -1.
         -2   -1    0    0    0  501 -0.00000000000E+00 -0.00000000000E+00 -0.40648183732E+03  0.40648183732E+03  0.00000000000E+00 0.  1.
    9000007    1    1    2  502    0  0.97443757884E+02  0.27351305073E+03  0.30095107793E+03  0.57868491096E+03  0.40000000000E+03 0. -1.
   -9000007    1    1    2    0  501 -0.97443757884E+02 -0.27351305073E+03 -0.39390842203E+02  0.49583899939E+03  0.40000000000E+03 0.  1.
<mgrwt>
<rscale>  2 0.49427186E+03</rscale>
<asrwt>0</asrwt>
<pdfrwt beam="1">  1        2 0.10277570E+00 0.49427186E+03</pdfrwt>
<pdfrwt beam="2">  1       -2 0.62535667E-01 0.49427186E+03</pdfrwt>
<totfact> 0.10620586E+02</totfact>
</mgrwt>
</event>
<event>
 4    1  0.2474915E-002  0.4428617E+03  0.7818608E-02  0.1029872E+00
          2   -1    0    0  502    0  0.00000000000E+00  0.00000000000E+00  0.34140494246E+04  0.34140494246E+04  0.00000000000E+00 0.  1.
         -2   -1    0    0    0  501 -0.00000000000E+00 -0.00000000000E+00 -0.65664151504E+02  0.65664151504E+02  0.00000000000E+00 0. -1.
    9000007    1    1    2  502    0  0.71411565917E+02  0.17614440468E+03  0.10587134914E+04  0.11476065179E+04  0.40000000000E+03 0. -1.
   -9000007    1    1    2    0  501 -0.71411565917E+02 -0.17614440468E+03  0.22896717818E+04  0.23321070583E+04  0.40000000000E+03 0.  1.
<mgrwt>
<rscale>  2 0.44286167E+03</rscale>
<asrwt>0</asrwt>
<pdfrwt beam="1">  1        2 0.52523823E+00 0.44286167E+03</pdfrwt>
<pdfrwt beam="2">  1       -2 0.10102180E-01 0.44286167E+03</pdfrwt>
<totfact> 0.71530599E+01</totfact>
</mgrwt>
</event>
<event>
 4    1  0.2474915E-002  0.4391928E+03  0.7818608E-02  0.1030995E+00
          1   -1    0    0  502    0  0.00000000000E+00  0.00000000000E+00  0.14088303337E+04  0.14088303337E+04  0.00000000000E+00 0.  1.
         -1   -1    0    0    0  501 -0.00000000000E+00 -0.00000000000E+00 -0.15777209465E+03  0.15777209465E+03  0.00000000000E+00 0. -1.
    9000007    1    1    2  502    0 -0.17638555482E+03 -0.42171644847E+02  0.91032804438E+03  0.10107360981E+04  0.40000000000E+03 0.  1.
   -9000007    1    1    2    0  501  0.17638555482E+03  0.42171644847E+02  0.34073019469E+03  0.55586633029E+03  0.40000000000E+03 0. -1.
<mgrwt>
<rscale>  2 0.43919280E+03</rscale>
<asrwt>0</asrwt>
<pdfrwt beam="1">  1        1 0.21674312E+00 0.43919280E+03</pdfrwt>
<pdfrwt beam="2">  1       -1 0.24272631E-01 0.43919280E+03</pdfrwt>
<totfact> 0.11790584E+02</totfact>
</mgrwt>
</event>
<event>
 4    1  0.2474915E-002  0.4662784E+03  0.7818608E-02  0.1022976E+00
         -2   -1    0    0    0  501 -0.00000000000E+00  0.00000000000E+00  0.46786104299E+03  0.46786104299E+03  0.00000000000E+00 0.  1.
          2   -1    0    0  502    0  0.00000000000E+00 -0.00000000000E+00 -0.12145665614E+04  0.12145665614E+04  0.00000000000E+00 0. -1.
    9000007    1    1    2  502    0  0.18785900325E+03  0.14874317311E+03 -0.10343313727E+04  0.11345734552E+04  0.40000000000E+03 0. -1.
   -9000007    1    1    2    0  501 -0.18785900325E+03 -0.14874317311E+03  0.28762585435E+03  0.54785414915E+03  0.40000000000E+03 0.  1.
<mgrwt>
<rscale>  2 0.46627839E+03</rscale>
<asrwt>0</asrwt>
<pdfrwt beam="1">  1        2 0.18685639E+00 0.46627839E+03</pdfrwt>
<pdfrwt beam="2">  1       -2 0.71978623E-01 0.46627839E+03</pdfrwt>
<totfact> 0.34310466E+01</totfact>
</mgrwt>
</event>
<event>
 4    1  0.2474915E-002  0.4270617E+03  0.7818608E-02  0.1034792E+00
          2   -1    0    0  502    0  0.00000000000E+00  0.00000000000E+00  0.27202101755E+04  0.27202101755E+04  0.00000000000E+00 0.  1.
         -2   -1    0    0    0  501 -0.00000000000E+00 -0.00000000000E+00 -0.72970620827E+02  0.72970620827E+02  0.00000000000E+00 0. -1.
    9000007    1    1    2  502    0 -0.14281868785E+03  0.44547588985E+02  0.17215365507E+04  0.17737163698E+04  0.40000000000E+03 0.  1.
   -9000007    1    1    2    0  501  0.14281868785E+03 -0.44547588985E+02  0.92570300399E+03  0.10194644265E+04  0.40000000000E+03 0. -1.
<mgrwt>
<rscale>  2 0.42706166E+03</rscale>
<asrwt>0</asrwt>
<pdfrwt beam="1">  1        2 0.41849379E+00 0.42706166E+03</pdfrwt>
<pdfrwt beam="2">  1       -2 0.11226251E-01 0.42706166E+03</pdfrwt>
<totfact> 0.16078279E+02</totfact>
</mgrwt>
</event>
<event>
 4    1  0.2474915E-002  0.4182416E+03  0.7818608E-02  0.1037640E+00
          2   -1    0    0  502    0  0.00000000000E+00  0.00000000000E+00  0.27540386156E+04  0.27540386156E+04  0.00000000000E+00 0.  1.
         -2   -1    0    0    0  501 -0.00000000000E+00 -0.00000000000E+00 -0.12197117907E+03  0.12197117907E+03  0.00000000000E+00 0. -1.
    9000007    1    1    2  502    0 -0.11969754122E+03 -0.24465435772E+02  0.23115365972E+04  0.23490694965E+04  0.40000000000E+03 0.  1.
   -9000007    1    1    2    0  501  0.11969754122E+03  0.24465435772E+02  0.32053083928E+03  0.52694029818E+03  0.40000000000E+03 0. -1.
<mgrwt>
<rscale>  2 0.41824163E+03</rscale>
<asrwt>0</asrwt>
<pdfrwt beam="1">  1        2 0.42369820E+00 0.41824163E+03</pdfrwt>
<pdfrwt beam="2">  1       -2 0.18764799E-01 0.41824163E+03</pdfrwt>
<totfact> 0.65337499E+01</totfact>
</mgrwt>
</event>
<event>
 4    1  0.2474915E-002  0.4223047E+03  0.7818608E-02  0.1036319E+00
          1   -1    0    0  502    0  0.00000000000E+00  0.00000000000E+00  0.49923533687E+03  0.49923533687E+03  0.00000000000E+00 0. -1.
         -1   -1    0    0    0  501 -0.00000000000E+00 -0.00000000000E+00 -0.41189982187E+03  0.41189982187E+03  0.00000000000E+00 0.  1.
    9000007    1    1    2  502    0 -0.18338960284E+02  0.13418264985E+03  0.20963986959E+03  0.47147659105E+03  0.40000000000E+03 0.  1.
   -9000007    1    1    2    0  501  0.18338960284E+02 -0.13418264985E+03 -0.12230435459E+03  0.43965856768E+03  0.40000000000E+03 0.  1.
<mgrwt>
<rscale>  2 0.42230475E+03</rscale>
<asrwt>0</asrwt>
<pdfrwt beam="1">  1        1 0.76805436E-01 0.42230475E+03</pdfrwt>
<pdfrwt beam="2">  1       -1 0.63369203E-01 0.42230475E+03</pdfrwt>
<totfact> 0.11721326E+02</totfact>
</mgrwt>
</event>
<event>
 4    1  0.2474915E-002  0.5277996E+03  0.7818608E-02  0.1006767E+00
         -2   -1    0    0    0  501 -0.00000000000E+00  0.00000000000E+00  0.22357383581E+03  0.22357383581E+03  0.00000000000E+00 0.  1.
          2   -1    0    0  502    0  0.00000000000E+00 -0.00000000000E+00 -0.12757871128E+04  0.12757871128E+04  0.00000000000E+00 0. -1.
    9000007    1    1    2  502    0  0.34282635605E+03 -0.32288108291E+02 -0.64066315230E+03  0.83007331427E+03  0.40000000000E+03 0. -1.
   -9000007    1    1    2    0  501 -0.34282635605E+03  0.32288108291E+02 -0.41155012464E+03  0.66928763431E+03  0.40000000000E+03 0.  1.
<mgrwt>
<rscale>  2 0.52779961E+03</rscale>
<asrwt>0</asrwt>
<pdfrwt beam="1">  1        2 0.19627494E+00 0.52779961E+03</pdfrwt>
<pdfrwt beam="2">  1       -2 0.34395975E-01 0.52779961E+03</pdfrwt>
<totfact> 0.13995485E+02</totfact>
</mgrwt>
</event>
<event>
 4    1  0.2474915E-002  0.4708860E+03  0.7818608E-02  0.1021670E+00
         -2   -1    0    0    0  501 -0.00000000000E+00  0.00000000000E+00  0.20210294707E+04  0.20210294707E+04  0.00000000000E+00 0. -1.
          2   -1    0    0  502    0  0.00000000000E+00 -0.00000000000E+00 -0.22944382169E+03  0.22944382169E+03  0.00000000000E+00 0.  1.
    9000007    1    1    2  502    0 -0.18947194435E+03 -0.16072969465E+03  0.82946839530E+02  0.47813578681E+03  0.40000000000E+03 0.  1.
   -9000007    1    1    2    0  501  0.18947194435E+03  0.16072969465E+03  0.17086388095E+04  0.17723375056E+04  0.40000000000E+03 0. -1.
<mgrwt>
<rscale>  2 0.47088603E+03</rscale>
<asrwt>0</asrwt>
<pdfrwt beam="1">  1        2 0.35299051E-01 0.47088603E+03</pdfrwt>
<pdfrwt beam="2">  1       -2 0.31092760E+00 0.47088603E+03</pdfrwt>
<totfact> 0.44022633E+00</totfact>
</mgrwt>
</event>
<event>
 4    1  0.2474915E-002  0.4959411E+03  0.7818608E-02  0.1014844E+00
         -1   -1    0    0    0  501 -0.00000000000E+00  0.00000000000E+00  0.45104126353E+03  0.45104126353E+03  0.00000000000E+00 0.  1.
          1   -1    0    0  502    0  0.00000000000E+00 -0.00000000000E+00 -0.58719183304E+03  0.58719183304E+03  0.00000000000E+00 0. -1.
    9000007    1    1    2  502    0  0.73655959636E+02 -0.28378229882E+03  0.70563412249E+02  0.50093591273E+03  0.40000000000E+03 0.  1.
   -9000007    1    1    2    0  501 -0.73655959636E+02  0.28378229882E+03 -0.20671398176E+03  0.53729718384E+03  0.40000000000E+03 0. -1.
<mgrwt>
<rscale>  2 0.49594112E+03</rscale>
<asrwt>0</asrwt>
<pdfrwt beam="1">  1        1 0.90337205E-01 0.49594112E+03</pdfrwt>
<pdfrwt beam="2">  1       -1 0.69390964E-01 0.49594112E+03</pdfrwt>
<totfact> 0.77482357E+01</totfact>
</mgrwt>
</event>
<event>
 4    1  0.2474915E-002  0.4139916E+03  0.7818608E-02  0.1039040E+00
         -2   -1    0    0    0  501 -0.00000000000E+00  0.00000000000E+00  0.18049881620E+03  0.18049881620E+03  0.00000000000E+00 0. -1.
          2   -1    0    0  502    0  0.00000000000E+00 -0.00000000000E+00 -0.12570639644E+04  0.12570639644E+04  0.00000000000E+00 0.  1.
    9000007    1    1    2  502    0  0.33192131579E+02  0.10142640554E+03 -0.18276202410E+03  0.45253838599E+03  0.40000000000E+03 0. -1.
   -9000007    1    1    2    0  501 -0.33192131579E+02 -0.10142640554E+03 -0.89380312410E+03  0.98502439462E+03  0.40000000000E+03 0.  1.
<mgrwt>
<rscale>  2 0.41399159E+03</rscale>
<asrwt>0</asrwt>
<pdfrwt beam="1">  1        2 0.19339446E+00 0.41399159E+03</pdfrwt>
<pdfrwt beam="2">  1       -2 0.27769048E-01 0.41399159E+03</pdfrwt>
<totfact> 0.21591445E+02</totfact>
</mgrwt>
</event>
<event>
 4    1  0.2474915E-002  0.4488181E+03  0.7818608E-02  0.1028075E+00
          1   -1    0    0  502    0  0.00000000000E+00  0.00000000000E+00  0.54812178321E+03  0.54812178321E+03  0.00000000000E+00 0. -1.
         -1   -1    0    0    0  501 -0.00000000000E+00 -0.00000000000E+00 -0.64524327553E+03  0.64524327553E+03  0.00000000000E+00 0.  1.
    9000007    1    1    2  502    0  0.82234593460E+02 -0.18621266618E+03 -0.44003136783E+03  0.62854219435E+03  0.40000000000E+03 0.  1.
   -9000007    1    1    2    0  501 -0.82234593460E+02  0.18621266618E+03  0.34290987551E+03  0.56482286438E+03  0.40000000000E+03 0. -1.
<mgrwt>
<rscale>  2 0.44881810E+03</rscale>
<asrwt>0</asrwt>
<pdfrwt beam="1">  1        1 0.84326428E-01 0.44881810E+03</pdfrwt>
<pdfrwt beam="2">  1       -1 0.99268196E-01 0.44881810E+03</pdfrwt>
<totfact> 0.40038784E+01</totfact>
</mgrwt>
</event>
<event>
 4    1  0.2474915E-002  0.4816147E+03  0.7818608E-02  0.1018692E+00
          1   -1    0    0  502    0  0.00000000000E+00  0.00000000000E+00  0.10029073136E+03  0.10029073136E+03  0.00000000000E+00 0. -1.
         -1   -1    0    0    0  501 -0.00000000000E+00 -0.00000000000E+00 -0.23234785421E+04  0.23234785421E+04  0.00000000000E+00 0.  1.
    9000007    1    1    2  502    0 -0.16572239872E+03 -0.21092376884E+03 -0.10294495511E+04  0.11365382211E+04  0.40000000000E+03 0. -1.
   -9000007    1    1    2    0  501  0.16572239872E+03  0.21092376884E+03 -0.11937382596E+04  0.12872310524E+04  0.40000000000E+03 0. -1.
<mgrwt>
<rscale>  2 0.48161473E+03</rscale>
<asrwt>0</asrwt>
<pdfrwt beam="1">  1        1 0.15429345E-01 0.48161473E+03</pdfrwt>
<pdfrwt beam="2">  1       -1 0.35745819E+00 0.48161473E+03</pdfrwt>
<totfact> 0.56748027E+00</totfact>
</mgrwt>
</event>
<event>
 4    1  0.2474915E-002  0.4791719E+03  0.7818608E-02  0.1019363E+00
         -2   -1    0    0    0  501 -0.00000000000E+00  0.00000000000E+00  0.12099057859E+04  0.12099057859E+04  0.00000000000E+00 0.  1.
          2   -1    0    0  502    0  0.00000000000E+00 -0.00000000000E+00 -0.37755059478E+03  0.37755059478E+03  0.00000000000E+00 0. -1.
    9000007    1    1    2  502    0  0.19877011761E+03  0.17348246784E+03  0.97594519881E+03  0.10872326142E+04  0.40000000000E+03 0.  1.
   -9000007    1    1    2    0  501 -0.19877011761E+03 -0.17348246784E+03 -0.14359000765E+03  0.50022376652E+03  0.40000000000E+03 0. -1.
<mgrwt>
<rscale>  2 0.47917192E+03</rscale>
<asrwt>0</asrwt>
<pdfrwt beam="1">  1        2 0.58084707E-01 0.47917192E+03</pdfrwt>
<pdfrwt beam="2">  1       -2 0.18613935E+00 0.47917192E+03</pdfrwt>
<totfact> 0.14645496E+01</totfact>
</mgrwt>
</event>
<event>
 4    1  0.2474915E-002  0.8761329E+03  0.7818608E-02  0.9455918E-01
          1   -1    0    0  502    0  0.00000000000E+00  0.00000000000E+00  0.15470259452E+04  0.15470259452E+04  0.00000000000E+00 0. -1.
         -1   -1    0    0    0  501 -0.00000000000E+00 -0.00000000000E+00 -0.87513354992E+03  0.87513354992E+03  0.00000000000E+00 0.  1.
    9000007    1    1    2  502    0 -0.32925752384E+03 -0.70653971674E+03 -0.46099542029E+03  0.99001296247E+03  0.40000000000E+03 0. -1.
   -9000007    1    1    2    0  501  0.32925752384E+03  0.70653971674E+03  0.11328878156E+04  0.14321465327E+04  0.40000000000E+03 0.  1.
<mgrwt>
<rscale>  2 0.87613292E+03</rscale>
<asrwt>0</asrwt>
<pdfrwt beam="1">  1        1 0.23800399E+00 0.87613292E+03</pdfrwt>
<pdfrwt beam="2">  1       -1 0.13463593E+00 0.87613292E+03</pdfrwt>
<totfact> 0.28819288E+00</totfact>
</mgrwt>
</event>
<event>
 4    1  0.2474915E-002  0.4197405E+03  0.7818608E-02  0.1037151E+00
          2   -1    0    0  502    0  0.00000000000E+00  0.00000000000E+00  0.13251350624E+04  0.13251350624E+04  0.00000000000E+00 0. -1.
         -2   -1    0    0    0  501 -0.00000000000E+00 -0.00000000000E+00 -0.13295422267E+03  0.13295422267E+03  0.00000000000E+00 0.  1.
    9000007    1    1    2  502    0 -0.11499314239E+03 -0.54393489252E+02  0.59526163770E+03  0.72836700350E+03  0.40000000000E+03 0. -1.
   -9000007    1    1    2    0  501  0.11499314239E+03  0.54393489252E+02  0.59691920201E+03  0.72972228155E+03  0.40000000000E+03 0. -1.
<mgrwt>
<rscale>  2 0.41974048E+03</rscale>
<asrwt>0</asrwt>
<pdfrwt beam="1">  1        2 0.20386692E+00 0.41974048E+03</pdfrwt>
<pdfrwt beam="2">  1       -2 0.20454497E-01 0.41974048E+03</pdfrwt>
<totfact> 0.33969169E+02</totfact>
</mgrwt>
</event>
<event>
 4    1  0.2474915E-002  0.4647421E+03  0.7818608E-02  0.1023415E+00
          2   -1    0    0  502    0  0.00000000000E+00  0.00000000000E+00  0.36599379754E+03  0.36599379754E+03  0.00000000000E+00 0. -1.
         -2   -1    0    0    0  501 -0.00000000000E+00 -0.00000000000E+00 -0.60373607866E+03  0.60373607866E+03  0.00000000000E+00 0.  1.
    9000007    1    1    2  502    0  0.12672413088E+03  0.19981545515E+03 -0.19165028298E+03  0.50270772068E+03  0.40000000000E+03 0.  1.
   -9000007    1    1    2    0  501 -0.12672413088E+03 -0.19981545515E+03 -0.46091998143E+02  0.46702215553E+03  0.40000000000E+03 0. -1.
<mgrwt>
<rscale>  2 0.46474210E+03</rscale>
<asrwt>0</asrwt>
<pdfrwt beam="1">  1        2 0.56306739E-01 0.46474210E+03</pdfrwt>
<pdfrwt beam="2">  1       -2 0.92882472E-01 0.46474210E+03</pdfrwt>
<totfact> 0.88773201E+01</totfact>
</mgrwt>
</event>
<event>
 4    1  0.2474915E-002  0.4074769E+03  0.7818608E-02  0.1041221E+00
          2   -1    0    0  502    0  0.00000000000E+00  0.00000000000E+00  0.13603427234E+04  0.13603427234E+04  0.00000000000E+00 0. -1.
         -2   -1    0    0    0  501 -0.00000000000E+00 -0.00000000000E+00 -0.12218040009E+03  0.12218040009E+03  0.00000000000E+00 0.  1.
    9000007    1    1    2  502    0 -0.43177206153E+02  0.64599735262E+02  0.64277539075E+03  0.76105032677E+03  0.40000000000E+03 0. -1.
   -9000007    1    1    2    0  501  0.43177206153E+02 -0.64599735262E+02  0.59538693253E+03  0.72147279669E+03  0.40000000000E+03 0. -1.
<mgrwt>
<rscale>  2 0.40747687E+03</rscale>
<asrwt>0</asrwt>
<pdfrwt beam="1">  1        2 0.20928348E+00 0.40747687E+03</pdfrwt>
<pdfrwt beam="2">  1       -2 0.18796986E-01 0.40747687E+03</pdfrwt>
<totfact> 0.37611521E+02</totfact>
</mgrwt>
</event>
<event>
 4    1  0.2474915E-002  0.5834491E+03  0.7818608E-02  0.9940352E-01
          2   -1    0    0  502    0  0.00000000000E+00  0.00000000000E+00  0.20926734412E+04  0.20926734412E+04  0.00000000000E+00 0.  1.
         -2   -1    0    0    0  501 -0.00000000000E+00 -0.00000000000E+00 -0.40142761923E+03  0.40142761923E+03  0.00000000000E+00 0. -1.
    9000007    1    1    2  502    0 -0.35481395423E+03 -0.23349506689E+03  0.18073681522E+04  0.18992083946E+04  0.40000000000E+03 0.  1.
   -9000007    1    1    2    0  501  0.35481395423E+03  0.23349506689E+03 -0.11612233021E+03  0.59489266590E+03  0.40000000000E+03 0. -1.
<mgrwt>
<rscale>  2 0.58344913E+03</rscale>
<asrwt>0</asrwt>
<pdfrwt beam="1">  1        2 0.32194975E+00 0.58344913E+03</pdfrwt>
<pdfrwt beam="2">  1       -2 0.61758097E-01 0.58344913E+03</pdfrwt>
<totfact> 0.15404037E+01</totfact>
</mgrwt>
</event>
<event>
 4    1  0.2474915E-002  0.4261200E+03  0.7818608E-02  0.1035093E+00
          1   -1    0    0  502    0  0.00000000000E+00  0.00000000000E+00  0.20508746772E+03  0.20508746772E+03  0.00000000000E+00 0.  1.
         -1   -1    0    0    0  501 -0.00000000000E+00 -0.00000000000E+00 -0.93032529603E+03  0.93032529603E+03  0.00000000000E+00 0. -1.
    9000007    1    1    2  502    0 -0.13554916654E+03  0.56610162204E+02 -0.48741383019E+03  0.64741835692E+03  0.40000000000E+03 0. -1.
   -9000007    1    1    2    0  501  0.13554916654E+03 -0.56610162204E+02 -0.23782399812E+03  0.48799440683E+03  0.40000000000E+03 0.  1.
<mgrwt>
<rscale>  2 0.42612004E+03</rscale>
<asrwt>0</asrwt>
<pdfrwt beam="1">  1        1 0.31551917E-01 0.42612004E+03</pdfrwt>
<pdfrwt beam="2">  1       -1 0.14312697E+00 0.42612004E+03</pdfrwt>
<totfact> 0.59769438E+01</totfact>
</mgrwt>
</event>
<event>
 4    1  0.2474915E-002  0.5250046E+03  0.7818608E-02  0.1007451E+00
         -2   -1    0    0    0  501 -0.00000000000E+00  0.00000000000E+00  0.30363202938E+03  0.30363202938E+03  0.00000000000E+00 0.  1.
          2   -1    0    0  502    0  0.00000000000E+00 -0.00000000000E+00 -0.99645806562E+03  0.99645806562E+03  0.00000000000E+00 0. -1.
    9000007    1    1    2  502    0  0.16829607878E+03  0.29547638448E+03 -0.15248887441E+03  0.54670167435E+03  0.40000000000E+03 0.  1.
   -9000007    1    1    2    0  501 -0.16829607878E+03 -0.29547638448E+03 -0.54033716183E+03  0.75338842065E+03  0.40000000000E+03 0. -1.
<mgrwt>
<rscale>  2 0.52500463E+03</rscale>
<asrwt>0</asrwt>
<pdfrwt beam="1">  1        2 0.15330124E+00 0.52500463E+03</pdfrwt>
<pdfrwt beam="2">  1       -2 0.46712619E-01 0.52500463E+03</pdfrwt>
<totfact> 0.11357138E+02</totfact>
</mgrwt>
</event>
<event>
 4    1  0.2474915E-002  0.4086512E+03  0.7818608E-02  0.1040825E+00
          1   -1    0    0  502    0  0.00000000000E+00  0.00000000000E+00  0.56834929790E+03  0.56834929790E+03  0.00000000000E+00 0.  1.
         -1   -1    0    0    0  501 -0.00000000000E+00 -0.00000000000E+00 -0.36033852773E+03  0.36033852773E+03  0.00000000000E+00 0. -1.
    9000007    1    1    2  502    0 -0.61824257847E+02  0.56334467215E+02 -0.95491479484E+02  0.41965990243E+03  0.40000000000E+03 0. -1.
   -9000007    1    1    2    0  501  0.61824257847E+02 -0.56334467215E+02  0.30350224965E+03  0.50902792320E+03  0.40000000000E+03 0.  1.
<mgrwt>
<rscale>  2 0.40865121E+03</rscale>
<asrwt>0</asrwt>
<pdfrwt beam="1">  1        1 0.87438353E-01 0.40865121E+03</pdfrwt>
<pdfrwt beam="2">  1       -1 0.55436697E-01 0.40865121E+03</pdfrwt>
<totfact> 0.12742145E+02</totfact>
</mgrwt>
</event>
<event>
 4    1  0.2474915E-002  0.4057560E+03  0.7818608E-02  0.1041805E+00
         -1   -1    0    0    0  501 -0.00000000000E+00  0.00000000000E+00  0.18176016168E+04  0.18176016168E+04  0.00000000000E+00 0. -1.
          1   -1    0    0  502    0  0.00000000000E+00 -0.00000000000E+00 -0.14420217187E+03  0.14420217187E+03  0.00000000000E+00 0.  1.
    9000007    1    1    2  502    0  0.67535550566E+02 -0.87674488810E+01  0.23854595373E+03  0.47068257966E+03  0.40000000000E+03 0.  1.
   -9000007    1    1    2    0  501 -0.67535550566E+02  0.87674488810E+01  0.14348534913E+04  0.14911212091E+04  0.40000000000E+03 0. -1.
<mgrwt>
<rscale>  2 0.40575598E+03</rscale>
<asrwt>0</asrwt>
<pdfrwt beam="1">  1        1 0.22184951E-01 0.40575598E+03</pdfrwt>
<pdfrwt beam="2">  1       -1 0.27963100E+00 0.40575598E+03</pdfrwt>
<totfact> 0.11214673E+01</totfact>
</mgrwt>
</event>
<event>
 4    1  0.2474915E-002  0.4838397E+03  0.7818608E-02  0.1018085E+00
          1   -1    0    0  502    0  0.00000000000E+00  0.00000000000E+00  0.14454781528E+04  0.14454781528E+04  0.00000000000E+00 0.  1.
         -1   -1    0    0    0  501 -0.00000000000E+00 -0.00000000000E+00 -0.16204564135E+03  0.16204564135E+03  0.00000000000E+00 0. -1.
    9000007    1    1    2  502    0  0.19468004751E+03  0.19026432016E+03  0.66084021697E+03  0.81903029540E+03  0.40000000000E+03 0.  1.
   -9000007    1    1    2    0  501 -0.19468004751E+03 -0.19026432016E+03  0.62259229448E+03  0.78849349875E+03  0.40000000000E+03 0. -1.
<mgrwt>
<rscale>  2 0.48383968E+03</rscale>
<asrwt>0</asrwt>
<pdfrwt beam="1">  1        1 0.22238125E+00 0.48383968E+03</pdfrwt>
<pdfrwt beam="2">  1       -1 0.24930100E-01 0.48383968E+03</pdfrwt>
<totfact> 0.10573015E+02</totfact>
</mgrwt>
</event>
<event>
 4    1  0.2474915E-002  0.4666806E+03  0.7818608E-02  0.1022861E+00
         -1   -1    0    0    0  501 -0.00000000000E+00  0.00000000000E+00  0.76689824503E+03  0.76689824503E+03  0.00000000000E+00 0.  1.
          1   -1    0    0  502    0  0.00000000000E+00 -0.00000000000E+00 -0.29742459804E+03  0.29742459804E+03  0.00000000000E+00 0. -1.
    9000007    1    1    2  502    0  0.23302316333E+03 -0.59084941286E+02  0.34784137747E+03  0.58205192965E+03  0.40000000000E+03 0.  1.
   -9000007    1    1    2    0  501 -0.23302316333E+03  0.59084941286E+02  0.12163226952E+03  0.48227091341E+03  0.40000000000E+03 0. -1.
<mgrwt>
<rscale>  2 0.46668065E+03</rscale>
<asrwt>0</asrwt>
<pdfrwt beam="1">  1        1 0.45757631E-01 0.46668065E+03</pdfrwt>
<pdfrwt beam="2">  1       -1 0.11798434E+00 0.46668065E+03</pdfrwt>
<totfact> 0.59862491E+01</totfact>
</mgrwt>
</event>
<event>
 4    1  0.2474915E-002  0.4260944E+03  0.7818608E-02  0.1035101E+00
         -2   -1    0    0    0  501 -0.00000000000E+00  0.00000000000E+00  0.21857336319E+03  0.21857336319E+03  0.00000000000E+00 0. -1.
          2   -1    0    0  502    0  0.00000000000E+00 -0.00000000000E+00 -0.83071464181E+03  0.83071464181E+03  0.00000000000E+00 0.  1.
    9000007    1    1    2  502    0 -0.14613703926E+03  0.14156399381E+02 -0.30119905934E+03  0.52180198470E+03  0.40000000000E+03 0. -1.
   -9000007    1    1    2    0  501  0.14613703926E+03 -0.14156399381E+02 -0.31094221928E+03  0.52748602030E+03  0.40000000000E+03 0.  1.
<mgrwt>
<rscale>  2 0.42609440E+03</rscale>
<asrwt>0</asrwt>
<pdfrwt beam="1">  1        2 0.12780226E+00 0.42609440E+03</pdfrwt>
<pdfrwt beam="2">  1       -2 0.33626670E-01 0.42609440E+03</pdfrwt>
<totfact> 0.27814901E+02</totfact>
</mgrwt>
</event>
<event>
 4    1  0.2474915E-002  0.4341284E+03  0.7818608E-02  0.1032564E+00
         -2   -1    0    0    0  501 -0.00000000000E+00  0.00000000000E+00  0.86946757862E+03  0.86946757862E+03  0.00000000000E+00 0.  1.
          2   -1    0    0  502    0  0.00000000000E+00 -0.00000000000E+00 -0.22189862842E+03  0.22189862842E+03  0.00000000000E+00 0. -1.
    9000007    1    1    2  502    0 -0.13750660847E+03  0.97772042915E+02  0.40680906188E+03  0.59494626024E+03  0.40000000000E+03 0.  1.
   -9000007    1    1    2    0  501  0.13750660847E+03 -0.97772042915E+02  0.24075988832E+03  0.49641994679E+03  0.40000000000E+03 0. -1.
<mgrwt>
<rscale>  2 0.43412837E+03</rscale>
<asrwt>0</asrwt>
<pdfrwt beam="1">  1        2 0.34138251E-01 0.43412837E+03</pdfrwt>
<pdfrwt beam="2">  1       -2 0.13376424E+00 0.43412837E+03</pdfrwt>
<totfact> 0.64017865E+01</totfact>
</mgrwt>
</event>
<event>
 4    1  0.2474915E-002  0.4804727E+03  0.7818608E-02  0.1019005E+00
         -1   -1    0    0    0  501 -0.00000000000E+00  0.00000000000E+00  0.21353302931E+04  0.21353302931E+04  0.00000000000E+00 0. -1.
          1   -1    0    0  502    0  0.00000000000E+00 -0.00000000000E+00 -0.11060949512E+03  0.11060949512E+03  0.00000000000E+00 0.  1.
    9000007    1    1    2  502    0  0.25334512602E+03 -0.81671458419E+02  0.11811162289E+04  0.12751037316E+04  0.40000000000E+03 0.  1.
   -9000007    1    1    2    0  501 -0.25334512602E+03  0.81671458419E+02  0.84360456904E+03  0.97083605666E+03  0.40000000000E+03 0. -1.
<mgrwt>
<rscale>  2 0.48047266E+03</rscale>
<asrwt>0</asrwt>
<pdfrwt beam="1">  1        1 0.17016847E-01 0.48047266E+03</pdfrwt>
<pdfrwt beam="2">  1       -1 0.32851232E+00 0.48047266E+03</pdfrwt>
<totfact> 0.76648291E+00</totfact>
</mgrwt>
</event>
<event>
 4    1  0.2474915E-002  0.6270257E+03  0.7818608E-02  0.9850870E-01
         -2   -1    0    0    0  501 -0.00000000000E+00  0.00000000000E+00  0.21695693418E+03  0.21695693418E+03  0.00000000000E+00 0. -1.
          2   -1    0    0  502    0  0.00000000000E+00 -0.00000000000E+00 -0.21531761658E+04  0.21531761658E+04  0.00000000000E+00 0.  1.
    9000007    1    1    2  502    0 -0.13376669533E+03  0.46396948388E+03 -0.49649323915E+03  0.79979168993E+03  0.40000000000E+03 0.  1.
   -9000007    1    1    2    0  501  0.13376669533E+03 -0.46396948388E+03 -0.14397259925E+04  0.15703414101E+04  0.40000000000E+03 0. -1.
<mgrwt>
<rscale>  2 0.62702569E+03</rscale>
<asrwt>0</asrwt>
<pdfrwt beam="1">  1        2 0.33125788E+00 0.62702569E+03</pdfrwt>
<pdfrwt beam="2">  1       -2 0.33377989E-01 0.62702569E+03</pdfrwt>
<totfact> 0.48342379E+01</totfact>
</mgrwt>
</event>
<event>
 4    1  0.2474915E-002  0.5062827E+03  0.7818608E-02  0.1012152E+00
         -2   -1    0    0    0  501 -0.00000000000E+00  0.00000000000E+00  0.27689327416E+03  0.27689327416E+03  0.00000000000E+00 0. -1.
          2   -1    0    0  502    0  0.00000000000E+00 -0.00000000000E+00 -0.11925571714E+04  0.11925571714E+04  0.00000000000E+00 0.  1.
    9000007    1    1    2  502    0 -0.16355632955E+02 -0.30992680191E+03 -0.80538318040E+03  0.95129606146E+03  0.40000000000E+03 0.  1.
   -9000007    1    1    2    0  501  0.16355632955E+02  0.30992680191E+03 -0.11028071685E+03  0.51815438412E+03  0.40000000000E+03 0. -1.
<mgrwt>
<rscale>  2 0.50628266E+03</rscale>
<asrwt>0</asrwt>
<pdfrwt beam="1">  1        2 0.18347033E+00 0.50628266E+03</pdfrwt>
<pdfrwt beam="2">  1       -2 0.42598966E-01 0.50628266E+03</pdfrwt>
<totfact> 0.10387611E+02</totfact>
</mgrwt>
</event>
<event>
 4    1  0.2474915E-002  0.5938695E+03  0.7818608E-02  0.9918207E-01
         -2   -1    0    0    0  501 -0.00000000000E+00  0.00000000000E+00  0.14644109888E+04  0.14644109888E+04  0.00000000000E+00 0.  1.
          2   -1    0    0  502    0  0.00000000000E+00 -0.00000000000E+00 -0.41521316635E+03  0.41521316635E+03  0.00000000000E+00 0. -1.
    9000007    1    1    2  502    0 -0.45651263280E+02 -0.43657408758E+03 -0.84449617590E+02  0.59984390444E+03  0.40000000000E+03 0. -1.
   -9000007    1    1    2    0  501  0.45651263280E+02  0.43657408758E+03  0.11336474400E+04  0.12797802507E+04  0.40000000000E+03 0.  1.
<mgrwt>
<rscale>  2 0.59386949E+03</rscale>
<asrwt>0</asrwt>
<pdfrwt beam="1">  1        2 0.63878949E-01 0.59386949E+03</pdfrwt>
<pdfrwt beam="2">  1       -2 0.22529400E+00 0.59386949E+03</pdfrwt>
<totfact> 0.72823858E+00</totfact>
</mgrwt>
</event>
<event>
 4    1  0.2474915E-002  0.4714127E+03  0.7818608E-02  0.1021522E+00
          2   -1    0    0  502    0  0.00000000000E+00  0.00000000000E+00  0.78120585086E+03  0.78120585086E+03  0.00000000000E+00 0. -1.
         -2   -1    0    0    0  501 -0.00000000000E+00 -0.00000000000E+00 -0.28634692632E+03  0.28634692632E+03  0.00000000000E+00 0.  1.
    9000007    1    1    2  502    0 -0.19243260708E+03  0.15874401848E+03  0.20421930327E+03  0.51374652845E+03  0.40000000000E+03 0.  1.
   -9000007    1    1    2    0  501  0.19243260708E+03 -0.15874401848E+03  0.29063962128E+03  0.55380624873E+03  0.40000000000E+03 0. -1.
<mgrwt>
<rscale>  2 0.47141274E+03</rscale>
<asrwt>0</asrwt>
<pdfrwt beam="1">  1        2 0.12018551E+00 0.47141274E+03</pdfrwt>
<pdfrwt beam="2">  1       -2 0.44053374E-01 0.47141274E+03</pdfrwt>
<totfact> 0.17873875E+02</totfact>
</mgrwt>
</event>
<event>
 4    1  0.2474915E-002  0.7366510E+03  0.7818608E-02  0.9656529E-01
         -1   -1    0    0    0  501 -0.00000000000E+00  0.00000000000E+00  0.89276438427E+03  0.89276438427E+03  0.00000000000E+00 0.  1.
          1   -1    0    0  502    0  0.00000000000E+00 -0.00000000000E+00 -0.77026484063E+03  0.77026484063E+03  0.00000000000E+00 0. -1.
    9000007    1    1    2  502    0 -0.38297838590E+03  0.48578007929E+03 -0.32058970448E+03  0.80338813043E+03  0.40000000000E+03 0. -1.
   -9000007    1    1    2    0  501  0.38297838590E+03 -0.48578007929E+03  0.44308924813E+03  0.85964109447E+03  0.40000000000E+03 0.  1.
<mgrwt>
<rscale>  2 0.73665102E+03</rscale>
<asrwt>0</asrwt>
<pdfrwt beam="1">  1        1 0.11850228E+00 0.73665102E+03</pdfrwt>
<pdfrwt beam="2">  1       -1 0.13734837E+00 0.73665102E+03</pdfrwt>
<totfact> 0.10683875E+01</totfact>
</mgrwt>
</event>
<event>
 4    1  0.2474915E-002  0.4071180E+03  0.7818608E-02  0.1041342E+00
          2   -1    0    0  502    0  0.00000000000E+00  0.00000000000E+00  0.86632600177E+03  0.86632600177E+03  0.00000000000E+00 0. -1.
         -2   -1    0    0    0  501 -0.00000000000E+00 -0.00000000000E+00 -0.19238579634E+03  0.19238579634E+03  0.00000000000E+00 0.  1.
    9000007    1    1    2  502    0 -0.75082235213E+02  0.10380599869E+02  0.29756155041E+03  0.50426974446E+03  0.40000000000E+03 0.  1.
   -9000007    1    1    2    0  501  0.75082235213E+02 -0.10380599869E+02  0.37637865502E+03  0.55444205365E+03  0.40000000000E+03 0. -1.
<mgrwt>
<rscale>  2 0.40711804E+03</rscale>
<asrwt>0</asrwt>
<pdfrwt beam="1">  1        2 0.13328092E+00 0.40711804E+03</pdfrwt>
<pdfrwt beam="2">  1       -2 0.29597815E-01 0.40711804E+03</pdfrwt>
<totfact> 0.33369457E+02</totfact>
</mgrwt>
</event>
<event>
 4    1  0.2474915E-002  0.5217596E+03  0.7818608E-02  0.1008250E+00
          2   -1    0    0  502    0  0.00000000000E+00  0.00000000000E+00  0.16154150432E+04  0.16154150432E+04  0.00000000000E+00 0.  1.
         -2   -1    0    0    0  501 -0.00000000000E+00 -0.00000000000E+00 -0.19360186453E+03  0.19360186453E+03  0.00000000000E+00 0. -1.
    9000007    1    1    2  502    0 -0.61302484410E+02  0.32935552956E+03  0.10364583116E+04  0.11603787705E+04  0.40000000000E+03 0.  1.
   -9000007    1    1    2    0  501  0.61302484410E+02 -0.32935552956E+03  0.38535486708E+03  0.64863813720E+03  0.40000000000E+03 0. -1.
<mgrwt>
<rscale>  2 0.52175958E+03</rscale>
<asrwt>0</asrwt>
<pdfrwt beam="1">  1        2 0.24852538E+00 0.52175958E+03</pdfrwt>
<pdfrwt beam="2">  1       -2 0.29784903E-01 0.52175958E+03</pdfrwt>
<totfact> 0.11863854E+02</totfact>
</mgrwt>
</event>
<event>
 4    1  0.2474915E-002  0.4025536E+03  0.7818608E-02  0.1042899E+00
          2   -1    0    0  502    0  0.00000000000E+00  0.00000000000E+00  0.10009534726E+04  0.10009534726E+04  0.00000000000E+00 0.  1.
         -2   -1    0    0    0  501 -0.00000000000E+00 -0.00000000000E+00 -0.19498862517E+03  0.19498862517E+03  0.00000000000E+00 0. -1.
    9000007    1    1    2  502    0  0.29752888063E+02 -0.34119512479E+02  0.64932960971E+03  0.76398842761E+03  0.40000000000E+03 0.  1.
   -9000007    1    1    2    0  501 -0.29752888063E+02  0.34119512479E+02  0.15663523775E+03  0.43195367018E+03  0.40000000000E+03 0. -1.
<mgrwt>
<rscale>  2 0.40255357E+03</rscale>
<asrwt>0</asrwt>
<pdfrwt beam="1">  1        2 0.15399284E+00 0.40255357E+03</pdfrwt>
<pdfrwt beam="2">  1       -2 0.29998251E-01 0.40255357E+03</pdfrwt>
<totfact> 0.26651888E+02</totfact>
</mgrwt>
</event>
<event>
 4    1  0.2474915E-002  0.4622033E+03  0.7818608E-02  0.1024144E+00
         -2   -1    0    0    0  501 -0.00000000000E+00  0.00000000000E+00  0.38139249749E+03  0.38139249749E+03  0.00000000000E+00 0.  1.
          2   -1    0    0  502    0  0.00000000000E+00 -0.00000000000E+00 -0.73666404414E+03  0.73666404414E+03  0.00000000000E+00 0. -1.
    9000007    1    1    2  502    0 -0.53441746209E+02 -0.22533509079E+03  0.96020284128E+02  0.47207183600E+03  0.40000000000E+03 0.  1.
   -9000007    1    1    2    0  501  0.53441746209E+02  0.22533509079E+03 -0.45129183078E+03  0.64598470563E+03  0.40000000000E+03 0. -1.
<mgrwt>
<rscale>  2 0.46220334E+03</rscale>
<asrwt>0</asrwt>
<pdfrwt beam="1">  1        2 0.11333293E+00 0.46220334E+03</pdfrwt>
<pdfrwt beam="2">  1       -2 0.58675769E-01 0.46220334E+03</pdfrwt>
<totfact> 0.10782239E+02</totfact>
</mgrwt>
</event>
<event>
 4    1  0.2474915E-002  0.4827045E+03  0.7818608E-02  0.1018395E+00
          1   -1    0    0  502    0  0.00000000000E+00  0.00000000000E+00  0.48175613555E+03  0.48175613555E+03  0.00000000000E+00 0. -1.
         -1   -1    0    0    0  501 -0.00000000000E+00 -0.00000000000E+00 -0.48837496757E+03  0.48837496757E+03  0.00000000000E+00 0.  1.
    9000007    1    1    2  502    0  0.16873032069E+03  0.21103021449E+03  0.44377797991E+02  0.48474020001E+03  0.40000000000E+03 0. -1.
   -9000007    1    1    2    0  501 -0.16873032069E+03 -0.21103021449E+03 -0.50996630015E+02  0.48539090311E+03  0.40000000000E+03 0.  1.
<mgrwt>
<rscale>  2 0.48270454E+03</rscale>
<asrwt>0</asrwt>
<pdfrwt beam="1">  1        1 0.74116328E-01 0.48270454E+03</pdfrwt>
<pdfrwt beam="2">  1       -1 0.75134611E-01 0.48270454E+03</pdfrwt>
<totfact> 0.86624707E+01</totfact>
</mgrwt>
</event>
<event>
 4    1  0.2474915E-002  0.4495690E+03  0.7818608E-02  0.1027851E+00
          1   -1    0    0  502    0  0.00000000000E+00  0.00000000000E+00  0.12499870315E+04  0.12499870315E+04  0.00000000000E+00 0.  1.
         -1   -1    0    0    0  501 -0.00000000000E+00 -0.00000000000E+00 -0.24655192808E+03  0.24655192808E+03  0.00000000000E+00 0. -1.
    9000007    1    1    2  502    0  0.16860466235E+03 -0.11698189895E+03  0.94070934443E+03  0.10426151579E+04  0.40000000000E+03 0.  1.
   -9000007    1    1    2    0  501 -0.16860466235E+03  0.11698189895E+03  0.62725758977E+02  0.45392380163E+03  0.40000000000E+03 0. -1.
<mgrwt>
<rscale>  2 0.44956901E+03</rscale>
<asrwt>0</asrwt>
<pdfrwt beam="1">  1        1 0.19230569E+00 0.44956901E+03</pdfrwt>
<pdfrwt beam="2">  1       -1 0.37931067E-01 0.44956901E+03</pdfrwt>
<totfact> 0.70053445E+01</totfact>
</mgrwt>
</event>
<event>
 4    1  0.2474915E-002  0.4120759E+03  0.7818608E-02  0.1039677E+00
          1   -1    0    0  502    0  0.00000000000E+00  0.00000000000E+00  0.35580829713E+03  0.35580829713E+03  0.00000000000E+00 0. -1.
         -1   -1    0    0    0  501 -0.00000000000E+00 -0.00000000000E+00 -0.47788621262E+03  0.47788621262E+03  0.00000000000E+00 0.  1.
    9000007    1    1    2  502    0 -0.65751414483E+02 -0.74049389398E+02 -0.76347246248E+02  0.41908884808E+03  0.40000000000E+03 0. -1.
   -9000007    1    1    2    0  501  0.65751414483E+02  0.74049389398E+02 -0.45730669249E+02  0.41460566167E+03  0.40000000000E+03 0.  1.
<mgrwt>
<rscale>  2 0.41207592E+03</rscale>
<asrwt>0</asrwt>
<pdfrwt beam="1">  1        1 0.54739738E-01 0.41207592E+03</pdfrwt>
<pdfrwt beam="2">  1       -1 0.73520955E-01 0.41207592E+03</pdfrwt>
<totfact> 0.13593867E+02</totfact>
</mgrwt>
</event>
<event>
 4    1  0.2474915E-002  0.4312201E+03  0.7818608E-02  0.1033475E+00
          2   -1    0    0  502    0  0.00000000000E+00  0.00000000000E+00  0.35353405908E+03  0.35353405908E+03  0.00000000000E+00 0.  1.
         -2   -1    0    0    0  501 -0.00000000000E+00 -0.00000000000E+00 -0.54047085059E+03  0.54047085059E+03  0.00000000000E+00 0. -1.
    9000007    1    1    2  502    0  0.34235361390E+01  0.16105599662E+03 -0.20267415716E+02  0.43169610004E+03  0.40000000000E+03 0.  1.
   -9000007    1    1    2    0  501 -0.34235361390E+01 -0.16105599662E+03 -0.16666937579E+03  0.46230880964E+03  0.40000000000E+03 0.  1.
<mgrwt>
<rscale>  2 0.43122008E+03</rscale>
<asrwt>0</asrwt>
<pdfrwt beam="1">  1        2 0.54389855E-01 0.43122008E+03</pdfrwt>
<pdfrwt beam="2">  1       -2 0.83149362E-01 0.43122008E+03</pdfrwt>
<totfact> 0.11896741E+02</totfact>
</mgrwt>
</event>
<event>
 4    1  0.2474915E-002  0.4810189E+03  0.7818608E-02  0.1018856E+00
          2   -1    0    0  502    0  0.00000000000E+00  0.00000000000E+00  0.24484729392E+03  0.24484729392E+03  0.00000000000E+00 0.  1.
         -2   -1    0    0    0  501 -0.00000000000E+00 -0.00000000000E+00 -0.11571958767E+04  0.11571958767E+04  0.00000000000E+00 0. -1.
    9000007    1    1    2  502    0 -0.16759360160E+03 -0.20806622357E+03 -0.75636883340E+03  0.89636654379E+03  0.40000000000E+03 0. -1.
   -9000007    1    1    2    0  501  0.16759360160E+03  0.20806622357E+03 -0.15597974935E+03  0.50567662680E+03  0.40000000000E+03 0.  1.
<mgrwt>
<rscale>  2 0.48101889E+03</rscale>
<asrwt>0</asrwt>
<pdfrwt beam="1">  1        2 0.37668815E-01 0.48101889E+03</pdfrwt>
<pdfrwt beam="2">  1       -2 0.17803013E+00 0.48101889E+03</pdfrwt>
<totfact> 0.26770038E+01</totfact>
</mgrwt>
</event>
<event>
 4    1  0.2474915E-002  0.4534406E+03  0.7818608E-02  0.1026701E+00
         -1   -1    0    0    0  501 -0.00000000000E+00  0.00000000000E+00  0.32503290973E+03  0.32503290973E+03  0.00000000000E+00 0. -1.
          1   -1    0    0  502    0  0.00000000000E+00 -0.00000000000E+00 -0.82195750834E+03  0.82195750834E+03  0.00000000000E+00 0.  1.
    9000007    1    1    2  502    0 -0.49394931704E+02 -0.20777033514E+03  0.26816426321E+02  0.45423286116E+03  0.40000000000E+03 0. -1.
   -9000007    1    1    2    0  501  0.49394931704E+02  0.20777033514E+03 -0.52374102493E+03  0.69275755690E+03  0.40000000000E+03 0.  1.
<mgrwt>
<rscale>  2 0.45344059E+03</rscale>
<asrwt>0</asrwt>
<pdfrwt beam="1">  1        1 0.12645500E+00 0.45344059E+03</pdfrwt>
<pdfrwt beam="2">  1       -1 0.50005063E-01 0.45344059E+03</pdfrwt>
<totfact> 0.89220348E+01</totfact>
</mgrwt>
</event>
<event>
 4    1  0.2474915E-002  0.4214931E+03  0.7818608E-02  0.1036581E+00
         -2   -1    0    0    0  501 -0.00000000000E+00  0.00000000000E+00  0.40171514864E+03  0.40171514864E+03  0.00000000000E+00 0.  1.
          2   -1    0    0  502    0  0.00000000000E+00 -0.00000000000E+00 -0.57751771648E+03  0.57751771648E+03  0.00000000000E+00 0. -1.
    9000007    1    1    2  502    0 -0.87644374885E+02 -0.99874581957E+02  0.14906067111E+03  0.44707443703E+03  0.40000000000E+03 0.  1.
   -9000007    1    1    2    0  501  0.87644374885E+02  0.99874581957E+02 -0.32486323895E+03  0.53215842809E+03  0.40000000000E+03 0. -1.
<mgrwt>
<rscale>  2 0.42149314E+03</rscale>
<asrwt>0</asrwt>
<pdfrwt beam="1">  1        2 0.88848879E-01 0.42149314E+03</pdfrwt>
<pdfrwt beam="2">  1       -2 0.61802331E-01 0.42149314E+03</pdfrwt>
<totfact> 0.13051042E+02</totfact>
</mgrwt>
</event>
<event>
 4    1  0.2474915E-002  0.4185848E+03  0.7818608E-02  0.1037528E+00
         -2   -1    0    0    0  501 -0.00000000000E+00  0.00000000000E+00  0.39640235884E+03  0.39640235884E+03  0.00000000000E+00 0.  1.
          2   -1    0    0  502    0  0.00000000000E+00 -0.00000000000E+00 -0.46745917708E+03  0.46745917708E+03  0.00000000000E+00 0. -1.
    9000007    1    1    2  502    0  0.11910780997E+03 -0.32040683280E+02  0.65255359635E+02  0.42364081218E+03  0.40000000000E+03 0. -1.
   -9000007    1    1    2    0  501 -0.11910780997E+03  0.32040683280E+02 -0.13631217787E+03  0.44022072375E+03  0.40000000000E+03 0. -1.
<mgrwt>
<rscale>  2 0.41858485E+03</rscale>
<asrwt>0</asrwt>
<pdfrwt beam="1">  1        2 0.71916796E-01 0.41858485E+03</pdfrwt>
<pdfrwt beam="2">  1       -2 0.60984978E-01 0.41858485E+03</pdfrwt>
<totfact> 0.17120707E+02</totfact>
</mgrwt>
</event>
<event>
 4    1  0.2474915E-002  0.8661955E+03  0.7818608E-02  0.9468854E-01
          2   -1    0    0  502    0  0.00000000000E+00  0.00000000000E+00  0.48667299183E+03  0.48667299183E+03  0.00000000000E+00 0.  1.
         -2   -1    0    0    0  501 -0.00000000000E+00 -0.00000000000E+00 -0.20386759516E+04  0.20386759516E+04  0.00000000000E+00 0. -1.
    9000007    1    1    2  502    0 -0.67637453712E+03 -0.36443402002E+03 -0.15256366517E+03  0.87952847671E+03  0.40000000000E+03 0.  1.
   -9000007    1    1    2    0  501  0.67637453712E+03  0.36443402002E+03 -0.13994392946E+04  0.16458204667E+04  0.40000000000E+03 0. -1.
<mgrwt>
<rscale>  2 0.86619551E+03</rscale>
<asrwt>0</asrwt>
<pdfrwt beam="1">  1        2 0.74872766E-01 0.86619551E+03</pdfrwt>
<pdfrwt beam="2">  1       -2 0.31364246E+00 0.86619551E+03</pdfrwt>
<totfact> 0.17100024E+00</totfact>
</mgrwt>
</event>
<event>
 4    1  0.2474915E-002  0.4015747E+03  0.7818608E-02  0.1043236E+00
         -2   -1    0    0    0  501 -0.00000000000E+00  0.00000000000E+00  0.17187481735E+03  0.17187481735E+03  0.00000000000E+00 0. -1.
          2   -1    0    0  502    0  0.00000000000E+00 -0.00000000000E+00 -0.10404999926E+04  0.10404999926E+04  0.00000000000E+00 0.  1.
    9000007    1    1    2  502    0  0.28080535286E+02 -0.21765160589E+02 -0.24428836319E+03  0.47004153335E+03  0.40000000000E+03 0. -1.
   -9000007    1    1    2    0  501 -0.28080535286E+02  0.21765160589E+02 -0.62433681206E+03  0.74233327661E+03  0.40000000000E+03 0.  1.
<mgrwt>
<rscale>  2 0.40157470E+03</rscale>
<asrwt>0</asrwt>
<pdfrwt beam="1">  1        2 0.16007692E+00 0.40157470E+03</pdfrwt>
<pdfrwt beam="2">  1       -2 0.26442280E-01 0.40157470E+03</pdfrwt>
<totfact> 0.31691635E+02</totfact>
</mgrwt>
</event>
<event>
 4    1  0.2474915E-002  0.4139150E+03  0.7818608E-02  0.1039065E+00
          2   -1    0    0  502    0  0.00000000000E+00  0.00000000000E+00  0.46031851589E+03  0.46031851589E+03  0.00000000000E+00 0. -1.
         -2   -1    0    0    0  501 -0.00000000000E+00 -0.00000000000E+00 -0.40255504351E+03  0.40255504351E+03  0.00000000000E+00 0.  1.
    9000007    1    1    2  502    0 -0.10636157108E+03  0.35892321503E+01  0.14737560107E+03  0.43936913203E+03  0.40000000000E+03 0. -1.
   -9000007    1    1    2    0  501  0.10636157108E+03 -0.35892321503E+01 -0.89612128700E+02  0.42350442737E+03  0.40000000000E+03 0. -1.
<mgrwt>
<rscale>  2 0.41391505E+03</rscale>
<asrwt>0</asrwt>
<pdfrwt beam="1">  1        2 0.70818233E-01 0.41391505E+03</pdfrwt>
<pdfrwt beam="2">  1       -2 0.61931545E-01 0.41391505E+03</pdfrwt>
<totfact> 0.16870579E+02</totfact>
</mgrwt>
</event>
<event>
 4    1  0.2474915E-002  0.4233813E+03  0.7818608E-02  0.1035971E+00
         -2   -1    0    0    0  501 -0.00000000000E+00  0.00000000000E+00  0.36286497120E+03  0.36286497120E+03  0.00000000000E+00 0.  1.
          2   -1    0    0  502    0  0.00000000000E+00 -0.00000000000E+00 -0.64984815763E+03  0.64984815763E+03  0.00000000000E+00 0. -1.
    9000007    1    1    2  502    0  0.85959019496E+02  0.10891642684E+03 -0.39147063856E+03  0.57662899851E+03  0.40000000000E+03 0. -1.
   -9000007    1    1    2    0  501 -0.85959019496E+02 -0.10891642684E+03  0.10448745213E+03  0.43608413033E+03  0.40000000000E+03 0.  1.
<mgrwt>
<rscale>  2 0.42338132E+03</rscale>
<asrwt>0</asrwt>
<pdfrwt beam="1">  1        2 0.99976640E-01 0.42338132E+03</pdfrwt>
<pdfrwt beam="2">  1       -2 0.55825380E-01 0.42338132E+03</pdfrwt>
<totfact> 0.14013470E+02</totfact>
</mgrwt>
</event>
<event>
 4    1  0.2474915E-002  0.4449930E+03  0.7818608E-02  0.1029226E+00
          2   -1    0    0  502    0  0.00000000000E+00  0.00000000000E+00  0.88979911322E+03  0.88979911322E+03  0.00000000000E+00 0. -1.
         -2   -1    0    0    0  501 -0.00000000000E+00 -0.00000000000E+00 -0.22711205511E+03  0.22711205511E+03  0.00000000000E+00 0.  1.
    9000007    1    1    2  502    0 -0.81551008858E+02 -0.17711082567E+03  0.41055143271E+03  0.60545131143E+03  0.40000000000E+03 0.  1.
   -9000007    1    1    2    0  501  0.81551008858E+02  0.17711082567E+03  0.25213562540E+03  0.51145985689E+03  0.40000000000E+03 0. -1.
<mgrwt>
<rscale>  2 0.44499305E+03</rscale>
<asrwt>0</asrwt>
<pdfrwt beam="1">  1        2 0.13689217E+00 0.44499305E+03</pdfrwt>
<pdfrwt beam="2">  1       -2 0.34940317E-01 0.44499305E+03</pdfrwt>
<totfact> 0.23567161E+02</totfact>
</mgrwt>
</event>
<event>
 4    1  0.2474915E-002  0.5343793E+03  0.7818608E-02  0.1005176E+00
         -1   -1    0    0    0  501 -0.00000000000E+00  0.00000000000E+00  0.81006361907E+03  0.81006361907E+03  0.00000000000E+00 0.  1.
          1   -1    0    0  502    0  0.00000000000E+00 -0.00000000000E+00 -0.38971679497E+03  0.38971679497E+03  0.00000000000E+00 0. -1.
    9000007    1    1    2  502    0 -0.18202550682E+03  0.30401959253E+03  0.24834129593E+02  0.53495600919E+03  0.40000000000E+03 0. -1.
   -9000007    1    1    2    0  501  0.18202550682E+03 -0.30401959253E+03  0.39551269450E+03  0.66482440485E+03  0.40000000000E+03 0.  1.
<mgrwt>
<rscale>  2 0.53437926E+03</rscale>
<asrwt>0</asrwt>
<pdfrwt beam="1">  1        1 0.59956430E-01 0.53437926E+03</pdfrwt>
<pdfrwt beam="2">  1       -1 0.12462517E+00 0.53437926E+03</pdfrwt>
<totfact> 0.36628622E+01</totfact>
</mgrwt>
</event>
<event>
 4    1  0.2474915E-002  0.5236604E+03  0.7818608E-02  0.1007781E+00
          1   -1    0    0  502    0  0.00000000000E+00  0.00000000000E+00  0.70492975637E+03  0.70492975637E+03  0.00000000000E+00 0.  1.
         -1   -1    0    0    0  501 -0.00000000000E+00 -0.00000000000E+00 -0.50983394264E+03  0.50983394264E+03  0.00000000000E+00 0. -1.
    9000007    1    1    2  502    0 -0.33789711354E+03  0.67679938459E+01 -0.19814118778E+03  0.55989302137E+03  0.40000000000E+03 0.  1.
   -9000007    1    1    2    0  501  0.33789711354E+03 -0.67679938459E+01  0.39323700151E+03  0.65487067764E+03  0.40000000000E+03 0.  1.
<mgrwt>
<rscale>  2 0.52366045E+03</rscale>
<asrwt>0</asrwt>
<pdfrwt beam="1">  1        1 0.10845073E+00 0.52366045E+03</pdfrwt>
<pdfrwt beam="2">  1       -1 0.78435991E-01 0.52366045E+03</pdfrwt>
<totfact> 0.45991525E+01</totfact>
</mgrwt>
</event>
<event>
 4    1  0.2474915E-002  0.4386252E+03  0.7818608E-02  0.1031169E+00
         -1   -1    0    0    0  501 -0.00000000000E+00  0.00000000000E+00  0.24656818708E+03  0.24656818708E+03  0.00000000000E+00 0.  1.
          1   -1    0    0  502    0  0.00000000000E+00 -0.00000000000E+00 -0.15044273122E+04  0.15044273122E+04  0.00000000000E+00 0. -1.
    9000007    1    1    2  502    0 -0.74209010211E+02  0.16396685612E+03 -0.21518028491E+02  0.43915274410E+03  0.40000000000E+03 0.  1.
   -9000007    1    1    2    0  501  0.74209010211E+02 -0.16396685612E+03 -0.12363410967E+04  0.13118427552E+04  0.40000000000E+03 0. -1.
<mgrwt>
<rscale>  2 0.43862525E+03</rscale>
<asrwt>0</asrwt>
<pdfrwt beam="1">  1        1 0.23145035E+00 0.43862525E+03</pdfrwt>
<pdfrwt beam="2">  1       -1 0.37933568E-01 0.43862525E+03</pdfrwt>
<totfact> 0.46923346E+01</totfact>
</mgrwt>
</event>
<event>
 4    1  0.2474915E-002  0.4478539E+03  0.7818608E-02  0.1028364E+00
          1   -1    0    0  502    0  0.00000000000E+00  0.00000000000E+00  0.10995955453E+04  0.10995955453E+04  0.00000000000E+00 0. -1.
         -1   -1    0    0    0  501 -0.00000000000E+00 -0.00000000000E+00 -0.19216528873E+03  0.19216528873E+03  0.00000000000E+00 0.  1.
    9000007    1    1    2  502    0  0.20043976791E+03 -0.19925368631E+02  0.59926698253E+03  0.74812701944E+03  0.40000000000E+03 0.  1.
   -9000007    1    1    2    0  501 -0.20043976791E+03  0.19925368631E+02  0.30816327402E+03  0.54363381456E+03  0.40000000000E+03 0.  1.
<mgrwt>
<rscale>  2 0.44785391E+03</rscale>
<asrwt>0</asrwt>
<pdfrwt beam="1">  1        1 0.16916854E+00 0.44785391E+03</pdfrwt>
<pdfrwt beam="2">  1       -1 0.29563891E-01 0.44785391E+03</pdfrwt>
<totfact> 0.13908436E+02</totfact>
</mgrwt>
</event>
<event>
 4    1  0.2474915E-002  0.4709433E+03  0.7818608E-02  0.1021654E+00
          2   -1    0    0  502    0  0.00000000000E+00  0.00000000000E+00  0.26491951789E+04  0.26491951789E+04  0.00000000000E+00 0.  1.
         -2   -1    0    0    0  501 -0.00000000000E+00 -0.00000000000E+00 -0.10206598341E+03  0.10206598341E+03  0.00000000000E+00 0. -1.
    9000007    1    1    2  502    0 -0.29742432759E+02  0.24678523310E+03  0.18568021315E+04  0.19155943514E+04  0.40000000000E+03 0.  1.
   -9000007    1    1    2    0  501  0.29742432759E+02 -0.24678523310E+03  0.69032706400E+03  0.83566681092E+03  0.40000000000E+03 0. -1.
<mgrwt>
<rscale>  2 0.47094327E+03</rscale>
<asrwt>0</asrwt>
<pdfrwt beam="1">  1        2 0.40756844E+00 0.47094327E+03</pdfrwt>
<pdfrwt beam="2">  1       -2 0.15702461E-01 0.47094327E+03</pdfrwt>
<totfact> 0.10042589E+02</totfact>
</mgrwt>
</event>
<event>
 4    1  0.2474915E-002  0.4040914E+03  0.7818608E-02  0.1042372E+00
         -2   -1    0    0    0  501 -0.00000000000E+00  0.00000000000E+00  0.65128018967E+03  0.65128018967E+03  0.00000000000E+00 0.  1.
          2   -1    0    0  502    0  0.00000000000E+00 -0.00000000000E+00 -0.25252155505E+03  0.25252155505E+03  0.00000000000E+00 0. -1.
    9000007    1    1    2  502    0  0.57327935504E+02  0.18431187292E+01  0.23753395784E+03  0.46873475485E+03  0.40000000000E+03 0.  1.
   -9000007    1    1    2    0  501 -0.57327935504E+02 -0.18431187292E+01  0.16122467677E+03  0.43506698987E+03  0.40000000000E+03 0. -1.
<mgrwt>
<rscale>  2 0.40409144E+03</rscale>
<asrwt>0</asrwt>
<pdfrwt beam="1">  1        2 0.38849470E-01 0.40409144E+03</pdfrwt>
<pdfrwt beam="2">  1       -2 0.10019695E+00 0.40409144E+03</pdfrwt>
<totfact> 0.11236746E+02</totfact>
</mgrwt>
</event>
<event>
 4    1  0.2474915E-002  0.4051913E+03  0.7818608E-02  0.1041997E+00
          2   -1    0    0  502    0  0.00000000000E+00  0.00000000000E+00  0.12426554170E+04  0.12426554170E+04  0.00000000000E+00 0. -1.
         -2   -1    0    0    0  501 -0.00000000000E+00 -0.00000000000E+00 -0.13274714660E+03  0.13274714660E+03  0.00000000000E+00 0.  1.
    9000007    1    1    2  502    0 -0.53184178280E+02 -0.36762122144E+02  0.50769706742E+03  0.64956625737E+03  0.40000000000E+03 0. -1.
   -9000007    1    1    2    0  501  0.53184178280E+02  0.36762122144E+02  0.60221120294E+03  0.72583630620E+03  0.40000000000E+03 0.  1.
<mgrwt>
<rscale>  2 0.40519133E+03</rscale>
<asrwt>0</asrwt>
<pdfrwt beam="1">  1        2 0.19117775E+00 0.40519133E+03</pdfrwt>
<pdfrwt beam="2">  1       -2 0.20422639E-01 0.40519133E+03</pdfrwt>
<totfact> 0.37984937E+02</totfact>
</mgrwt>
</event>
<event>
 4    1  0.2474915E-002  0.5406758E+03  0.7818608E-02  0.1003675E+00
          2   -1    0    0  502    0  0.00000000000E+00  0.00000000000E+00  0.83824160505E+03  0.83824160505E+03  0.00000000000E+00 0. -1.
         -2   -1    0    0    0  501 -0.00000000000E+00 -0.00000000000E+00 -0.81330693167E+03  0.81330693167E+03  0.00000000000E+00 0.  1.
    9000007    1    1    2  502    0  0.36377180695E+03  0.58279630121E+00 -0.61163700195E+03  0.81635169464E+03  0.40000000000E+03 0.  1.
   -9000007    1    1    2    0  501 -0.36377180695E+03 -0.58279630121E+00  0.63657167533E+03  0.83519684208E+03  0.40000000000E+03 0. -1.
<mgrwt>
<rscale>  2 0.54067575E+03</rscale>
<asrwt>0</asrwt>
<pdfrwt beam="1">  1        2 0.12896025E+00 0.54067575E+03</pdfrwt>
<pdfrwt beam="2">  1       -2 0.12512414E+00 0.54067575E+03</pdfrwt>
<totfact> 0.16113985E+01</totfact>
</mgrwt>
</event>
<event>
 4    1  0.2474915E-002  0.4879231E+03  0.7818608E-02  0.1016980E+00
          1   -1    0    0  502    0  0.00000000000E+00  0.00000000000E+00  0.12820062396E+03  0.12820062396E+03  0.00000000000E+00 0. -1.
         -1   -1    0    0    0  501 -0.00000000000E+00 -0.00000000000E+00 -0.19515463156E+04  0.19515463156E+04  0.00000000000E+00 0.  1.
    9000007    1    1    2  502    0  0.88425752440E+02  0.26504679120E+03 -0.68279329927E+03  0.83921129922E+03  0.40000000000E+03 0. -1.
   -9000007    1    1    2    0  501 -0.88425752440E+02 -0.26504679120E+03 -0.11405523924E+04  0.12405356403E+04  0.40000000000E+03 0.  1.
<mgrwt>
<rscale>  2 0.48792306E+03</rscale>
<asrwt>0</asrwt>
<pdfrwt beam="1">  1        1 0.19723172E-01 0.48792306E+03</pdfrwt>
<pdfrwt beam="2">  1       -1 0.30023790E+00 0.48792306E+03</pdfrwt>
<totfact> 0.95325809E+00</totfact>
</mgrwt>
</event>
<event>
 4    1  0.2474915E-002  0.4274383E+03  0.7818608E-02  0.1034672E+00
         -1   -1    0    0    0  501 -0.00000000000E+00  0.00000000000E+00  0.96740642863E+03  0.96740642863E+03  0.00000000000E+00 0.  1.
          1   -1    0    0  502    0  0.00000000000E+00 -0.00000000000E+00 -0.21701962402E+03  0.21701962402E+03  0.00000000000E+00 0. -1.
    9000007    1    1    2  502    0 -0.13731654618E+03 -0.62029703406E+02  0.16186497351E+03  0.45705993875E+03  0.40000000000E+03 0. -1.
   -9000007    1    1    2    0  501  0.13731654618E+03  0.62029703406E+02  0.58852183110E+03  0.72736611390E+03  0.40000000000E+03 0. -1.
<mgrwt>
<rscale>  2 0.42743832E+03</rscale>
<asrwt>0</asrwt>
<pdfrwt beam="1">  1        1 0.33387635E-01 0.42743832E+03</pdfrwt>
<pdfrwt beam="2">  1       -1 0.14883176E+00 0.42743832E+03</pdfrwt>
<totfact> 0.50172033E+01</totfact>
</mgrwt>
</event>
<event>
 4    1  0.2474915E-002  0.4136488E+03  0.7818608E-02  0.1039153E+00
         -2   -1    0    0    0  501 -0.00000000000E+00  0.00000000000E+00  0.18424174526E+03  0.18424174526E+03  0.00000000000E+00 0. -1.
          2   -1    0    0  502    0  0.00000000000E+00 -0.00000000000E+00 -0.17380976784E+04  0.17380976784E+04  0.00000000000E+00 0.  1.
    9000007    1    1    2  502    0  0.41266425548E+02  0.96966104930E+02 -0.12101847725E+03  0.43098818455E+03  0.40000000000E+03 0. -1.
   -9000007    1    1    2    0  501 -0.41266425548E+02 -0.96966104930E+02 -0.14328374559E+04  0.14913512391E+04  0.40000000000E+03 0.  1.
<mgrwt>
<rscale>  2 0.41364882E+03</rscale>
<asrwt>0</asrwt>
<pdfrwt beam="1">  1        2 0.26739964E+00 0.41364882E+03</pdfrwt>
<pdfrwt beam="2">  1       -2 0.28344884E-01 0.41364882E+03</pdfrwt>
<totfact> 0.11338617E+02</totfact>
</mgrwt>
</event>
<event>
 4    1  0.2474915E-002  0.5670270E+03  0.7818608E-02  0.9976279E-01
         -2   -1    0    0    0  501 -0.00000000000E+00  0.00000000000E+00  0.20363836779E+03  0.20363836779E+03  0.00000000000E+00 0. -1.
          2   -1    0    0  502    0  0.00000000000E+00 -0.00000000000E+00 -0.20929434980E+04  0.20929434980E+04  0.00000000000E+00 0.  1.
    9000007    1    1    2  502    0 -0.30825222462E+03  0.25787637425E+03 -0.15137457812E+04  0.16164609332E+04  0.40000000000E+03 0.  1.
   -9000007    1    1    2    0  501  0.30825222462E+03 -0.25787637425E+03 -0.37555934905E+03  0.68012093266E+03  0.40000000000E+03 0. -1.
<mgrwt>
<rscale>  2 0.56702703E+03</rscale>
<asrwt>0</asrwt>
<pdfrwt beam="1">  1        2 0.32199131E+00 0.56702703E+03</pdfrwt>
<pdfrwt beam="2">  1       -2 0.31328980E-01 0.56702703E+03</pdfrwt>
<totfact> 0.59247177E+01</totfact>
</mgrwt>
</event>
<event>
 4    1  0.2474915E-002  0.5257875E+03  0.7818608E-02  0.1007259E+00
          2   -1    0    0  502    0  0.00000000000E+00  0.00000000000E+00  0.10364981368E+04  0.10364981368E+04  0.00000000000E+00 0.  1.
         -2   -1    0    0    0  501 -0.00000000000E+00 -0.00000000000E+00 -0.26912045575E+03  0.26912045575E+03  0.00000000000E+00 0. -1.
    9000007    1    1    2  502    0 -0.11883456863E+03 -0.31989189635E+03  0.44537116462E+03  0.68906309895E+03  0.40000000000E+03 0.  1.
   -9000007    1    1    2    0  501  0.11883456863E+03  0.31989189635E+03  0.32200651639E+03  0.61655549356E+03  0.40000000000E+03 0.  1.
<mgrwt>
<rscale>  2 0.52578749E+03</rscale>
<asrwt>0</asrwt>
<pdfrwt beam="1">  1        2 0.15946125E+00 0.52578749E+03</pdfrwt>
<pdfrwt beam="2">  1       -2 0.41403148E-01 0.52578749E+03</pdfrwt>
<totfact> 0.13603278E+02</totfact>
</mgrwt>
</event>
<event>
 4    1  0.2474915E-002  0.4451144E+03  0.7818608E-02  0.1029189E+00
          2   -1    0    0  502    0  0.00000000000E+00  0.00000000000E+00  0.21379914316E+04  0.21379914316E+04  0.00000000000E+00 0.  1.
         -2   -1    0    0    0  501 -0.00000000000E+00 -0.00000000000E+00 -0.92757903520E+02  0.92757903520E+02  0.00000000000E+00 0. -1.
    9000007    1    1    2  502    0 -0.37166988197E+02 -0.19169092455E+03  0.98820144464E+03  0.10838214294E+04  0.40000000000E+03 0. -1.
   -9000007    1    1    2    0  501  0.37166988197E+02  0.19169092455E+03  0.10570320834E+04  0.11469279057E+04  0.40000000000E+03 0. -1.
<mgrwt>
<rscale>  2 0.44511436E+03</rscale>
<asrwt>0</asrwt>
<pdfrwt beam="1">  1        2 0.32892172E+00 0.44511436E+03</pdfrwt>
<pdfrwt beam="2">  1       -2 0.14270448E-01 0.44511436E+03</pdfrwt>
<totfact> 0.22693010E+02</totfact>
</mgrwt>
</event>
<event>
 4    1  0.2474915E-002  0.4841259E+03  0.7818608E-02  0.1018007E+00
         -1   -1    0    0    0  501 -0.00000000000E+00  0.00000000000E+00  0.83203121283E+03  0.83203121283E+03  0.00000000000E+00 0.  1.
          1   -1    0    0  502    0  0.00000000000E+00 -0.00000000000E+00 -0.51833868155E+03  0.51833868155E+03  0.00000000000E+00 0. -1.
    9000007    1    1    2  502    0 -0.26036093571E+03  0.81179240470E+02 -0.29936358937E+03  0.56920685570E+03  0.40000000000E+03 0. -1.
   -9000007    1    1    2    0  501  0.26036093571E+03 -0.81179240470E+02  0.61305612065E+03  0.78116303868E+03  0.40000000000E+03 0. -1.
<mgrwt>
<rscale>  2 0.48412590E+03</rscale>
<asrwt>0</asrwt>
<pdfrwt beam="1">  1        1 0.79744413E-01 0.48412590E+03</pdfrwt>
<pdfrwt beam="2">  1       -1 0.12800480E+00 0.48412590E+03</pdfrwt>
<totfact> 0.23592168E+01</totfact>
</mgrwt>
</event>
<event>
 4    1  0.2474915E-002  0.4315203E+03  0.7818608E-02  0.1033381E+00
         -2   -1    0    0    0  501 -0.00000000000E+00  0.00000000000E+00  0.12350504080E+03  0.12350504080E+03  0.00000000000E+00 0.  1.
          2   -1    0    0  502    0  0.00000000000E+00 -0.00000000000E+00 -0.15328316133E+04  0.15328316133E+04  0.00000000000E+00 0. -1.
    9000007    1    1    2  502    0 -0.13961125439E+03  0.81966477446E+02 -0.81068472813E+03  0.91837875313E+03  0.40000000000E+03 0. -1.
   -9000007    1    1    2    0  501  0.13961125439E+03 -0.81966477446E+02 -0.59864184442E+03  0.73795790101E+03  0.40000000000E+03 0. -1.
<mgrwt>
<rscale>  2 0.43152034E+03</rscale>
<asrwt>0</asrwt>
<pdfrwt beam="1">  1        2 0.23582026E+00 0.43152034E+03</pdfrwt>
<pdfrwt beam="2">  1       -2 0.19000775E-01 0.43152034E+03</pdfrwt>
<totfact> 0.29600374E+02</totfact>
</mgrwt>
</event>
<event>
 4    1  0.2474915E-002  0.5957550E+03  0.7818608E-02  0.9914252E-01
          2   -1    0    0  502    0  0.00000000000E+00  0.00000000000E+00  0.89417240027E+03  0.89417240027E+03  0.00000000000E+00 0.  1.
         -2   -1    0    0    0  501 -0.00000000000E+00 -0.00000000000E+00 -0.39857749555E+03  0.39857749555E+03  0.00000000000E+00 0. -1.
    9000007    1    1    2  502    0  0.44015195616E+03 -0.34500030882E+02  0.20624288538E+03  0.63044438645E+03  0.40000000000E+03 0. -1.
   -9000007    1    1    2    0  501 -0.44015195616E+03  0.34500030882E+02  0.28935201935E+03  0.66230550937E+03  0.40000000000E+03 0. -1.
<mgrwt>
<rscale>  2 0.59575498E+03</rscale>
<asrwt>0</asrwt>
<pdfrwt beam="1">  1        2 0.13756498E+00 0.59575498E+03</pdfrwt>
<pdfrwt beam="2">  1       -2 0.61319615E-01 0.59575498E+03</pdfrwt>
<totfact> 0.75150011E+01</totfact>
</mgrwt>
</event>
<event>
 4    1  0.2474915E-002  0.4983310E+03  0.7818608E-02  0.1014215E+00
          2   -1    0    0  502    0  0.00000000000E+00  0.00000000000E+00  0.21164831985E+04  0.21164831985E+04  0.00000000000E+00 0. -1.
         -2   -1    0    0    0  501 -0.00000000000E+00 -0.00000000000E+00 -0.16076186948E+03  0.16076186948E+03  0.00000000000E+00 0.  1.
    9000007    1    1    2  502    0  0.23556271686E+03 -0.18122909028E+03  0.15696626815E+04  0.16468681521E+04  0.40000000000E+03 0. -1.
   -9000007    1    1    2    0  501 -0.23556271686E+03  0.18122909028E+03  0.38605864749E+03  0.63037691585E+03  0.40000000000E+03 0.  1.
<mgrwt>
<rscale>  2 0.49833099E+03</rscale>
<asrwt>0</asrwt>
<pdfrwt beam="1">  1        2 0.32561278E+00 0.49833099E+03</pdfrwt>
<pdfrwt beam="2">  1       -2 0.24732597E-01 0.49833099E+03</pdfrwt>
<totfact> 0.89549772E+01</totfact>
</mgrwt>
</event>
<event>
 4    1  0.2474915E-002  0.4180808E+03  0.7818608E-02  0.1037693E+00
         -2   -1    0    0    0  501 -0.00000000000E+00  0.00000000000E+00  0.22621550803E+03  0.22621550803E+03  0.00000000000E+00 0. -1.
          2   -1    0    0  502    0  0.00000000000E+00 -0.00000000000E+00 -0.88865985790E+03  0.88865985790E+03  0.00000000000E+00 0.  1.
    9000007    1    1    2  502    0  0.45714655104E+02 -0.11270175885E+03 -0.53260641389E+03  0.67709756184E+03  0.40000000000E+03 0.  1.
   -9000007    1    1    2    0  501 -0.45714655104E+02  0.11270175885E+03 -0.12983793599E+03  0.43777780410E+03  0.40000000000E+03 0. -1.
<mgrwt>
<rscale>  2 0.41808075E+03</rscale>
<asrwt>0</asrwt>
<pdfrwt beam="1">  1        2 0.13671690E+00 0.41808075E+03</pdfrwt>
<pdfrwt beam="2">  1       -2 0.34802386E-01 0.41808075E+03</pdfrwt>
<totfact> 0.23840185E+02</totfact>
</mgrwt>
</event>
<event>
 4    1  0.2474915E-002  0.4662117E+03  0.7818608E-02  0.1022995E+00
         -2   -1    0    0    0  501 -0.00000000000E+00  0.00000000000E+00  0.48146654698E+03  0.48146654698E+03  0.00000000000E+00 0.  1.
          2   -1    0    0  502    0  0.00000000000E+00 -0.00000000000E+00 -0.47378411237E+03  0.47378411237E+03  0.00000000000E+00 0. -1.
    9000007    1    1    2  502    0  0.58606114128E+02  0.23220386860E+03 -0.99882373294E+02  0.47679115103E+03  0.40000000000E+03 0. -1.
   -9000007    1    1    2    0  501 -0.58606114128E+02 -0.23220386860E+03  0.10756480790E+03  0.47845950832E+03  0.40000000000E+03 0.  1.
<mgrwt>
<rscale>  2 0.46621166E+03</rscale>
<asrwt>0</asrwt>
<pdfrwt beam="1">  1        2 0.72889864E-01 0.46621166E+03</pdfrwt>
<pdfrwt beam="2">  1       -2 0.74071776E-01 0.46621166E+03</pdfrwt>
<totfact> 0.11069107E+02</totfact>
</mgrwt>
</event>
<event>
 4    1  0.2474915E-002  0.4152176E+03  0.7818608E-02  0.1038634E+00
          2   -1    0    0  502    0  0.00000000000E+00  0.00000000000E+00  0.76257486344E+03  0.76257486344E+03  0.00000000000E+00 0. -1.
         -2   -1    0    0    0  501 -0.00000000000E+00 -0.00000000000E+00 -0.24658657560E+03  0.24658657560E+03  0.00000000000E+00 0.  1.
    9000007    1    1    2  502    0  0.84106870864E+02  0.73018390591E+02  0.11249693829E+03  0.43018741522E+03  0.40000000000E+03 0.  1.
   -9000007    1    1    2    0  501 -0.84106870864E+02 -0.73018390591E+02  0.40349134955E+03  0.57897402381E+03  0.40000000000E+03 0. -1.
<mgrwt>
<rscale>  2 0.41521759E+03</rscale>
<asrwt>0</asrwt>
<pdfrwt beam="1">  1        2 0.11731921E+00 0.41521759E+03</pdfrwt>
<pdfrwt beam="2">  1       -2 0.37936397E-01 0.41521759E+03</pdfrwt>
<totfact> 0.24758183E+02</totfact>
</mgrwt>
</event>
<event>
 4    1  0.2474915E-002  0.4999044E+03  0.7818608E-02  0.1013804E+00
         -1   -1    0    0    0  501 -0.00000000000E+00  0.00000000000E+00  0.88709505541E+03  0.88709505541E+03  0.00000000000E+00 0. -1.
          1   -1    0    0  502    0  0.00000000000E+00 -0.00000000000E+00 -0.29830469517E+03  0.29830469517E+03  0.00000000000E+00 0.  1.
    9000007    1    1    2  502    0 -0.27861984372E+03  0.11079443027E+03  0.43418531477E+03  0.66213390689E+03  0.40000000000E+03 0. -1.
   -9000007    1    1    2    0  501  0.27861984372E+03 -0.11079443027E+03  0.15460504547E+03  0.52326584369E+03  0.40000000000E+03 0.  1.
<mgrwt>
<rscale>  2 0.49990441E+03</rscale>
<asrwt>0</asrwt>
<pdfrwt beam="1">  1        1 0.45893030E-01 0.49990441E+03</pdfrwt>
<pdfrwt beam="2">  1       -1 0.13647616E+00 0.49990441E+03</pdfrwt>
<totfact> 0.41438041E+01</totfact>
</mgrwt>
</event>
<event>
 4    1  0.2474915E-002  0.6787032E+03  0.7818608E-02  0.9754362E-01
          2   -1    0    0  502    0  0.00000000000E+00  0.00000000000E+00  0.25354735025E+04  0.25354735025E+04  0.00000000000E+00 0. -1.
         -2   -1    0    0    0  501 -0.00000000000E+00 -0.00000000000E+00 -0.18677628784E+03  0.18677628784E+03  0.00000000000E+00 0.  1.
    9000007    1    1    2  502    0 -0.49413346434E+03 -0.23763460233E+03  0.94945488216E+03  0.11670915380E+04  0.40000000000E+03 0. -1.
   -9000007    1    1    2    0  501  0.49413346434E+03  0.23763460233E+03  0.13992423325E+04  0.15551582524E+04  0.40000000000E+03 0. -1.
<mgrwt>
<rscale>  2 0.67870324E+03</rscale>
<asrwt>0</asrwt>
<pdfrwt beam="1">  1        2 0.39007282E+00 0.67870324E+03</pdfrwt>
<pdfrwt beam="2">  1       -2 0.28734815E-01 0.67870324E+03</pdfrwt>
<totfact> 0.38860359E+01</totfact>
</mgrwt>
</event>
<event>
 4    1  0.2474915E-002  0.4618177E+03  0.7818608E-02  0.1024255E+00
          1   -1    0    0  502    0  0.00000000000E+00  0.00000000000E+00  0.53770853778E+03  0.53770853778E+03  0.00000000000E+00 0.  1.
         -1   -1    0    0    0  501 -0.00000000000E+00 -0.00000000000E+00 -0.41676922911E+03  0.41676922911E+03  0.00000000000E+00 0. -1.
    9000007    1    1    2  502    0 -0.31249886952E+02 -0.22868987506E+03  0.16535713094E+03  0.49052889328E+03  0.40000000000E+03 0.  1.
   -9000007    1    1    2    0  501  0.31249886952E+02  0.22868987506E+03 -0.44417822273E+02  0.46394887361E+03  0.40000000000E+03 0.  1.
<mgrwt>
<rscale>  2 0.46181773E+03</rscale>
<asrwt>0</asrwt>
<pdfrwt beam="1">  1        1 0.82724390E-01 0.46181773E+03</pdfrwt>
<pdfrwt beam="2">  1       -1 0.64118343E-01 0.46181773E+03</pdfrwt>
<totfact> 0.10303733E+02</totfact>
</mgrwt>
</event>
<event>
 4    1  0.2474915E-002  0.7753925E+03  0.7818608E-02  0.9596335E-01
          2   -1    0    0  502    0  0.00000000000E+00  0.00000000000E+00  0.21307412462E+04  0.21307412462E+04  0.00000000000E+00 0.  1.
         -2   -1    0    0    0  501 -0.00000000000E+00 -0.00000000000E+00 -0.31428034277E+03  0.31428034277E+03  0.00000000000E+00 0. -1.
    9000007    1    1    2  502    0  0.33873797283E+03  0.57139312590E+03  0.12989898100E+04  0.15128146103E+04  0.40000000000E+03 0.  1.
   -9000007    1    1    2    0  501 -0.33873797283E+03 -0.57139312590E+03  0.51747109339E+03  0.93220697866E+03  0.40000000000E+03 0. -1.
<mgrwt>
<rscale>  2 0.77539249E+03</rscale>
<asrwt>0</asrwt>
<pdfrwt beam="1">  1        2 0.32780634E+00 0.77539249E+03</pdfrwt>
<pdfrwt beam="2">  1       -2 0.48350823E-01 0.77539249E+03</pdfrwt>
<totfact> 0.23631719E+01</totfact>
</mgrwt>
</event>
<event>
 4    1  0.2474915E-002  0.5798549E+03  0.7818608E-02  0.9948105E-01
         -2   -1    0    0    0  501 -0.00000000000E+00  0.00000000000E+00  0.36924947014E+03  0.36924947014E+03  0.00000000000E+00 0. -1.
          2   -1    0    0  502    0  0.00000000000E+00 -0.00000000000E+00 -0.17256163172E+04  0.17256163172E+04  0.00000000000E+00 0.  1.
    9000007    1    1    2  502    0 -0.34747301520E+03 -0.23557203500E+03 -0.13980337576E+04  0.15135157968E+04  0.40000000000E+03 0.  1.
   -9000007    1    1    2    0  501  0.34747301520E+03  0.23557203500E+03  0.41666910548E+02  0.58134999046E+03  0.40000000000E+03 0. -1.
<mgrwt>
<rscale>  2 0.57985488E+03</rscale>
<asrwt>0</asrwt>
<pdfrwt beam="1">  1        2 0.26547943E+00 0.57985488E+03</pdfrwt>
<pdfrwt beam="2">  1       -2 0.56807612E-01 0.57985488E+03</pdfrwt>
<totfact> 0.29017548E+01</totfact>
</mgrwt>
</event>
<event>
 4    1  0.2474915E-002  0.4236587E+03  0.7818608E-02  0.1035882E+00
         -2   -1    0    0    0  501 -0.00000000000E+00  0.00000000000E+00  0.57829689684E+03  0.57829689684E+03  0.00000000000E+00 0. -1.
          2   -1    0    0  502    0  0.00000000000E+00 -0.00000000000E+00 -0.33857147521E+03  0.33857147521E+03  0.00000000000E+00 0.  1.
    9000007    1    1    2  502    0 -0.94277945073E+02 -0.10294826736E+03 -0.12443070357E+02  0.42384136971E+03  0.40000000000E+03 0. -1.
   -9000007    1    1    2    0  501  0.94277945073E+02  0.10294826736E+03  0.25216849199E+03  0.49302700234E+03  0.40000000000E+03 0. -1.
<mgrwt>
<rscale>  2 0.42365868E+03</rscale>
<asrwt>0</asrwt>
<pdfrwt beam="1">  1        2 0.52087919E-01 0.42365868E+03</pdfrwt>
<pdfrwt beam="2">  1       -2 0.88968753E-01 0.42365868E+03</pdfrwt>
<totfact> 0.10710552E+02</totfact>
</mgrwt>
</event>
<event>
 4    1  0.2474915E-002  0.4436215E+03  0.7818608E-02  0.1029641E+00
          2   -1    0    0  502    0  0.00000000000E+00  0.00000000000E+00  0.94663883758E+03  0.94663883758E+03  0.00000000000E+00 0.  1.
         -2   -1    0    0    0  501 -0.00000000000E+00 -0.00000000000E+00 -0.28797422481E+03  0.28797422481E+03  0.00000000000E+00 0. -1.
    9000007    1    1    2  502    0 -0.33955641631E+02 -0.18880422808E+03  0.38044394667E+01  0.44363779809E+03  0.40000000000E+03 0. -1.
   -9000007    1    1    2    0  501  0.33955641631E+02  0.18880422808E+03  0.65486017330E+03  0.79097526429E+03  0.40000000000E+03 0.  1.
<mgrwt>
<rscale>  2 0.44362149E+03</rscale>
<asrwt>0</asrwt>
<pdfrwt beam="1">  1        2 0.14563674E+00 0.44362149E+03</pdfrwt>
<pdfrwt beam="2">  1       -2 0.44303728E-01 0.44362149E+03</pdfrwt>
<totfact> 0.13687781E+02</totfact>
</mgrwt>
</event>
<event>
 4    1  0.2474915E-002  0.4372788E+03  0.7818608E-02  0.1031585E+00
         -2   -1    0    0    0  501 -0.00000000000E+00  0.00000000000E+00  0.15365195594E+03  0.15365195594E+03  0.00000000000E+00 0. -1.
          2   -1    0    0  502    0  0.00000000000E+00 -0.00000000000E+00 -0.15749174854E+04  0.15749174854E+04  0.00000000000E+00 0.  1.
    9000007    1    1    2  502    0  0.83215275119E+02  0.15584587015E+03 -0.31472867449E+03  0.53876419313E+03  0.40000000000E+03 0. -1.
   -9000007    1    1    2    0  501 -0.83215275119E+02 -0.15584587015E+03 -0.11065368550E+04  0.11898052482E+04  0.40000000000E+03 0.  1.
<mgrwt>
<rscale>  2 0.43727876E+03</rscale>
<asrwt>0</asrwt>
<pdfrwt beam="1">  1        2 0.24229501E+00 0.43727876E+03</pdfrwt>
<pdfrwt beam="2">  1       -2 0.23638762E-01 0.43727876E+03</pdfrwt>
<totfact> 0.19161886E+02</totfact>
</mgrwt>
</event>
<event>
 4    1  0.2474915E-002  0.4926179E+03  0.7818608E-02  0.1015724E+00
         -2   -1    0    0    0  501 -0.00000000000E+00  0.00000000000E+00  0.13487501454E+03  0.13487501454E+03  0.00000000000E+00 0.  1.
          2   -1    0    0  502    0  0.00000000000E+00 -0.00000000000E+00 -0.18016028092E+04  0.18016028092E+04  0.00000000000E+00 0. -1.
    9000007    1    1    2  502    0  0.25413924926E+03 -0.13448280908E+03 -0.79829187518E+03  0.93805239829E+03  0.40000000000E+03 0.  1.
   -9000007    1    1    2    0  501 -0.25413924926E+03  0.13448280908E+03 -0.86843591948E+03  0.99842542546E+03  0.40000000000E+03 0.  1.
<mgrwt>
<rscale>  2 0.49261789E+03</rscale>
<asrwt>0</asrwt>
<pdfrwt beam="1">  1        2 0.27716967E+00 0.49261789E+03</pdfrwt>
<pdfrwt beam="2">  1       -2 0.20750002E-01 0.49261789E+03</pdfrwt>
<totfact> 0.18056900E+02</totfact>
</mgrwt>
</event>
<event>
 4    1  0.2474915E-002  0.5061897E+03  0.7818608E-02  0.1012176E+00
         -1   -1    0    0    0  501 -0.00000000000E+00  0.00000000000E+00  0.16780784834E+03  0.16780784834E+03  0.00000000000E+00 0.  1.
          1   -1    0    0  502    0  0.00000000000E+00 -0.00000000000E+00 -0.16086673243E+04  0.16086673243E+04  0.00000000000E+00 0. -1.
    9000007    1    1    2  502    0 -0.71968681957E+02  0.30174244502E+03 -0.52018954833E+03  0.72582722497E+03  0.40000000000E+03 0.  1.
   -9000007    1    1    2    0  501  0.71968681957E+02 -0.30174244502E+03 -0.92066992760E+03  0.10506479476E+04  0.40000000000E+03 0. -1.
<mgrwt>
<rscale>  2 0.50618968E+03</rscale>
<asrwt>0</asrwt>
<pdfrwt beam="1">  1        1 0.24748728E+00 0.50618968E+03</pdfrwt>
<pdfrwt beam="2">  1       -1 0.25816593E-01 0.50618968E+03</pdfrwt>
<totfact> 0.77082104E+01</totfact>
</mgrwt>
</event>
<event>
 4    1  0.2474915E-002  0.4536332E+03  0.7818608E-02  0.1026644E+00
         -1   -1    0    0    0  501 -0.00000000000E+00  0.00000000000E+00  0.14758592570E+03  0.14758592570E+03  0.00000000000E+00 0. -1.
          1   -1    0    0  502    0  0.00000000000E+00 -0.00000000000E+00 -0.15597086169E+04  0.15597086169E+04  0.00000000000E+00 0.  1.
    9000007    1    1    2  502    0  0.81159616752E+02  0.19798030949E+03 -0.98403263038E+03  0.10835604755E+04  0.40000000000E+03 0.  1.
   -9000007    1    1    2    0  501 -0.81159616752E+02 -0.19798030949E+03 -0.42809006084E+03  0.62373406715E+03  0.40000000000E+03 0. -1.
<mgrwt>
<rscale>  2 0.45363321E+03</rscale>
<asrwt>0</asrwt>
<pdfrwt beam="1">  1        1 0.23995519E+00 0.45363321E+03</pdfrwt>
<pdfrwt beam="2">  1       -1 0.22705525E-01 0.45363321E+03</pdfrwt>
<totfact> 0.10403602E+02</totfact>
</mgrwt>
</event>
<event>
 4    1  0.2474915E-002  0.4901435E+03  0.7818608E-02  0.1016384E+00
          2   -1    0    0  502    0  0.00000000000E+00  0.00000000000E+00  0.86496909989E+03  0.86496909989E+03  0.00000000000E+00 0.  1.
         -2   -1    0    0    0  501 -0.00000000000E+00 -0.00000000000E+00 -0.28604941811E+03  0.28604941811E+03  0.00000000000E+00 0. -1.
    9000007    1    1    2  502    0  0.12271193658E+03 -0.25530858491E+03  0.19140006175E+03  0.52618882214E+03  0.40000000000E+03 0. -1.
   -9000007    1    1    2    0  501 -0.12271193658E+03  0.25530858491E+03  0.38751962004E+03  0.62482969586E+03  0.40000000000E+03 0.  1.
<mgrwt>
<rscale>  2 0.49014354E+03</rscale>
<asrwt>0</asrwt>
<pdfrwt beam="1">  1        2 0.13307217E+00 0.49014354E+03</pdfrwt>
<pdfrwt beam="2">  1       -2 0.44007603E-01 0.49014354E+03</pdfrwt>
<totfact> 0.15631458E+02</totfact>
</mgrwt>
</event>
<event>
 4    1  0.2474915E-002  0.4008889E+03  0.7818608E-02  0.1043472E+00
         -2   -1    0    0    0  501 -0.00000000000E+00  0.00000000000E+00  0.16139414980E+03  0.16139414980E+03  0.00000000000E+00 0.  1.
          2   -1    0    0  502    0  0.00000000000E+00 -0.00000000000E+00 -0.10063985890E+04  0.10063985890E+04  0.00000000000E+00 0. -1.
    9000007    1    1    2  502    0  0.20889503948E+02 -0.16599003646E+02 -0.48249957925E+03  0.62730992522E+03  0.40000000000E+03 0. -1.
   -9000007    1    1    2    0  501 -0.20889503948E+02  0.16599003646E+02 -0.36250485994E+03  0.54048281358E+03  0.40000000000E+03 0.  1.
<mgrwt>
<rscale>  2 0.40088889E+03</rscale>
<asrwt>0</asrwt>
<pdfrwt beam="1">  1        2 0.15483056E+00 0.40088889E+03</pdfrwt>
<pdfrwt beam="2">  1       -2 0.24829869E-01 0.40088889E+03</pdfrwt>
<totfact> 0.37236840E+02</totfact>
</mgrwt>
</event>
<event>
 4    1  0.2474915E-002  0.5199883E+03  0.7818608E-02  0.1008689E+00
          2   -1    0    0  502    0  0.00000000000E+00  0.00000000000E+00  0.22787620858E+04  0.22787620858E+04  0.00000000000E+00 0.  1.
         -2   -1    0    0    0  501 -0.00000000000E+00 -0.00000000000E+00 -0.12179137362E+03  0.12179137362E+03  0.00000000000E+00 0. -1.
    9000007    1    1    2  502    0  0.66414943505E+02 -0.32554097230E+03  0.12710807399E+04  0.13733295732E+04  0.40000000000E+03 0. -1.
   -9000007    1    1    2    0  501 -0.66414943505E+02  0.32554097230E+03  0.88588997232E+03  0.10272238862E+04  0.40000000000E+03 0.  1.
<mgrwt>
<rscale>  2 0.51998834E+03</rscale>
<asrwt>0</asrwt>
<pdfrwt beam="1">  1        2 0.35057875E+00 0.51998834E+03</pdfrwt>
<pdfrwt beam="2">  1       -2 0.18737136E-01 0.51998834E+03</pdfrwt>
<totfact> 0.11855303E+02</totfact>
</mgrwt>
</event>
<event>
 4    1  0.2474915E-002  0.5653514E+03  0.7818608E-02  0.9980018E-01
          1   -1    0    0  502    0  0.00000000000E+00  0.00000000000E+00  0.13798986979E+04  0.13798986979E+04  0.00000000000E+00 0.  1.
         -1   -1    0    0    0  501 -0.00000000000E+00 -0.00000000000E+00 -0.36056822274E+03  0.36056822274E+03  0.00000000000E+00 0. -1.
    9000007    1    1    2  502    0 -0.19401379201E+03 -0.34925752438E+03 -0.10735003093E+02  0.56545327846E+03  0.40000000000E+03 0. -1.
   -9000007    1    1    2    0  501  0.19401379201E+03  0.34925752438E+03  0.10300654783E+04  0.11750136422E+04  0.40000000000E+03 0.  1.
<mgrwt>
<rscale>  2 0.56535137E+03</rscale>
<asrwt>0</asrwt>
<pdfrwt beam="1">  1        1 0.21229210E+00 0.56535137E+03</pdfrwt>
<pdfrwt beam="2">  1       -1 0.55472035E-01 0.56535137E+03</pdfrwt>
<totfact> 0.27609515E+01</totfact>
</mgrwt>
</event>
<event>
 4    1  0.2474915E-002  0.6119613E+03  0.7818608E-02  0.9880896E-01
          2   -1    0    0  502    0  0.00000000000E+00  0.00000000000E+00  0.20898418039E+04  0.20898418039E+04  0.00000000000E+00 0. -1.
         -2   -1    0    0    0  501 -0.00000000000E+00 -0.00000000000E+00 -0.18621453904E+03  0.18621453904E+03  0.00000000000E+00 0.  1.
    9000007    1    1    2  502    0  0.98140102714E+02 -0.45262036832E+03  0.73091662483E+03  0.95327634505E+03  0.40000000000E+03 0.  1.
   -9000007    1    1    2    0  501 -0.98140102714E+02  0.45262036832E+03  0.11727106400E+04  0.13227799979E+04  0.40000000000E+03 0.  1.
<mgrwt>
<rscale>  2 0.61196134E+03</rscale>
<asrwt>0</asrwt>
<pdfrwt beam="1">  1        2 0.32151411E+00 0.61196134E+03</pdfrwt>
<pdfrwt beam="2">  1       -2 0.28648392E-01 0.61196134E+03</pdfrwt>
<totfact> 0.69697467E+01</totfact>
</mgrwt>
</event>
<event>
 4    1  0.2474915E-002  0.4153086E+03  0.7818608E-02  0.1038604E+00
          2   -1    0    0  502    0  0.00000000000E+00  0.00000000000E+00  0.16238048285E+04  0.16238048285E+04  0.00000000000E+00 0.  1.
         -2   -1    0    0    0  501 -0.00000000000E+00 -0.00000000000E+00 -0.50773715680E+03  0.50773715680E+03  0.00000000000E+00 0. -1.
    9000007    1    1    2  502    0 -0.63787990153E+02  0.91718611496E+02  0.15057892094E+04  0.15620122773E+04  0.40000000000E+03 0.  1.
   -9000007    1    1    2    0  501  0.63787990153E+02 -0.91718611496E+02 -0.38972153766E+03  0.56952970800E+03  0.40000000000E+03 0. -1.
<mgrwt>
<rscale>  2 0.41530857E+03</rscale>
<asrwt>0</asrwt>
<pdfrwt beam="1">  1        2 0.24981612E+00 0.41530857E+03</pdfrwt>
<pdfrwt beam="2">  1       -2 0.78113410E-01 0.41530857E+03</pdfrwt>
<totfact> 0.17165839E+01</totfact>
</mgrwt>
</event>
<event>
 4    1  0.2474915E-002  0.4443581E+03  0.7818608E-02  0.1029418E+00
         -2   -1    0    0    0  501 -0.00000000000E+00  0.00000000000E+00  0.10735695025E+03  0.10735695025E+03  0.00000000000E+00 0. -1.
          2   -1    0    0  502    0  0.00000000000E+00 -0.00000000000E+00 -0.22943593063E+04  0.22943593063E+04  0.00000000000E+00 0.  1.
    9000007    1    1    2  502    0 -0.17181346795E+03  0.89074192191E+02 -0.55865538628E+03  0.71382765435E+03  0.40000000000E+03 0. -1.
   -9000007    1    1    2    0  501  0.17181346795E+03 -0.89074192191E+02 -0.16283469698E+04  0.16878886022E+04  0.40000000000E+03 0.  1.
<mgrwt>
<rscale>  2 0.44435805E+03</rscale>
<asrwt>0</asrwt>
<pdfrwt beam="1">  1        2 0.35297835E+00 0.44435805E+03</pdfrwt>
<pdfrwt beam="2">  1       -2 0.16516454E-01 0.44435805E+03</pdfrwt>
<totfact> 0.14604262E+02</totfact>
</mgrwt>
</event>
<event>
 4    1  0.2474915E-002  0.4748381E+03  0.7818608E-02  0.1020564E+00
          2   -1    0    0  502    0  0.00000000000E+00  0.00000000000E+00  0.50292596631E+03  0.50292596631E+03  0.00000000000E+00 0.  1.
         -2   -1    0    0    0  501 -0.00000000000E+00 -0.00000000000E+00 -0.48656398028E+03  0.48656398028E+03  0.00000000000E+00 0. -1.
    9000007    1    1    2  502    0 -0.25544552962E+03 -0.14793097533E+02  0.14688811740E+03  0.49703860350E+03  0.40000000000E+03 0.  1.
   -9000007    1    1    2    0  501  0.25544552962E+03  0.14793097533E+02 -0.13052613137E+03  0.49245134308E+03  0.40000000000E+03 0. -1.
<mgrwt>
<rscale>  2 0.47483813E+03</rscale>
<asrwt>0</asrwt>
<pdfrwt beam="1">  1        2 0.77373225E-01 0.47483813E+03</pdfrwt>
<pdfrwt beam="2">  1       -2 0.74855997E-01 0.47483813E+03</pdfrwt>
<totfact> 0.10096858E+02</totfact>
</mgrwt>
</event>
<event>
 4    1  0.2474915E-002  0.5254102E+03  0.7818608E-02  0.1007351E+00
         -1   -1    0    0    0  501 -0.00000000000E+00  0.00000000000E+00  0.38949250225E+03  0.38949250225E+03  0.00000000000E+00 0.  1.
          1   -1    0    0  502    0  0.00000000000E+00 -0.00000000000E+00 -0.75275124085E+03  0.75275124085E+03  0.00000000000E+00 0. -1.
    9000007    1    1    2  502    0  0.15224902948E+03  0.30475589060E+03 -0.43560388222E+02  0.52721288609E+03  0.40000000000E+03 0.  1.
   -9000007    1    1    2    0  501 -0.15224902948E+03 -0.30475589060E+03 -0.31969835038E+03  0.61503085701E+03  0.40000000000E+03 0. -1.
<mgrwt>
<rscale>  2 0.52541024E+03</rscale>
<asrwt>0</asrwt>
<pdfrwt beam="1">  1        1 0.11580788E+00 0.52541024E+03</pdfrwt>
<pdfrwt beam="2">  1       -1 0.59921924E-01 0.52541024E+03</pdfrwt>
<totfact> 0.71758824E+01</totfact>
</mgrwt>
</event>
<event>
 4    1  0.2474915E-002  0.4850520E+03  0.7818608E-02  0.1017756E+00
          1   -1    0    0  502    0  0.00000000000E+00  0.00000000000E+00  0.10425406369E+04  0.10425406369E+04  0.00000000000E+00 0.  1.
         -1   -1    0    0    0  501 -0.00000000000E+00 -0.00000000000E+00 -0.23197977505E+03  0.23197977505E+03  0.00000000000E+00 0. -1.
    9000007    1    1    2  502    0  0.19958618202E+03 -0.18825720108E+03  0.51033732753E+03  0.70407357974E+03  0.40000000000E+03 0.  1.
   -9000007    1    1    2    0  501 -0.19958618202E+03  0.18825720108E+03  0.30022353433E+03  0.57044683221E+03  0.40000000000E+03 0.  1.
<mgrwt>
<rscale>  2 0.48505197E+03</rscale>
<asrwt>0</asrwt>
<pdfrwt beam="1">  1        1 0.16039087E+00 0.48505197E+03</pdfrwt>
<pdfrwt beam="2">  1       -1 0.35689197E-01 0.48505197E+03</pdfrwt>
<totfact> 0.10986619E+02</totfact>
</mgrwt>
</event>
<event>
 4    1  0.2474915E-002  0.4934498E+03  0.7818608E-02  0.1015503E+00
         -2   -1    0    0    0  501 -0.00000000000E+00  0.00000000000E+00  0.20589118176E+03  0.20589118176E+03  0.00000000000E+00 0. -1.
          2   -1    0    0  502    0  0.00000000000E+00 -0.00000000000E+00 -0.19888706605E+04  0.19888706605E+04  0.00000000000E+00 0.  1.
    9000007    1    1    2  502    0  0.15319131553E+03 -0.24500022885E+03 -0.19279575752E+03  0.52977626920E+03  0.40000000000E+03 0. -1.
   -9000007    1    1    2    0  501 -0.15319131553E+03  0.24500022885E+03 -0.15901837212E+04  0.16649855730E+04  0.40000000000E+03 0.  1.
<mgrwt>
<rscale>  2 0.49344979E+03</rscale>
<asrwt>0</asrwt>
<pdfrwt beam="1">  1        2 0.30598011E+00 0.49344979E+03</pdfrwt>
<pdfrwt beam="2">  1       -2 0.31675565E-01 0.49344979E+03</pdfrwt>
<totfact> 0.66884122E+01</totfact>
</mgrwt>
</event>
<event>
 4    1  0.2474915E-002  0.4914281E+03  0.7818608E-02  0.1016041E+00
          2   -1    0    0  502    0  0.00000000000E+00  0.00000000000E+00  0.19548219679E+04  0.19548219679E+04  0.00000000000E+00 0.  1.
         -2   -1    0    0    0  501 -0.00000000000E+00 -0.00000000000E+00 -0.12959449991E+03  0.12959449991E+03  0.00000000000E+00 0. -1.
    9000007    1    1    2  502    0 -0.25353037221E+03  0.13124008838E+03  0.68737293597E+03  0.84497524433E+03  0.40000000000E+03 0.  1.
   -9000007    1    1    2    0  501  0.25353037221E+03 -0.13124008838E+03  0.11378545320E+04  0.12394412235E+04  0.40000000000E+03 0.  1.
<mgrwt>
<rscale>  2 0.49142813E+03</rscale>
<asrwt>0</asrwt>
<pdfrwt beam="1">  1        2 0.30074182E+00 0.49142813E+03</pdfrwt>
<pdfrwt beam="2">  1       -2 0.19937617E-01 0.49142813E+03</pdfrwt>
<totfact> 0.16017591E+02</totfact>
</mgrwt>
</event>
<event>
 4    1  0.2474915E-002  0.4222450E+03  0.7818608E-02  0.1036338E+00
         -3   -1    0    0    0  501 -0.00000000000E+00  0.00000000000E+00  0.70701677297E+02  0.70701677297E+02  0.00000000000E+00 0. -1.
          3   -1    0    0  502    0  0.00000000000E+00 -0.00000000000E+00 -0.26851375302E+04  0.26851375302E+04  0.00000000000E+00 0.  1.
    9000007    1    1    2  502    0  0.13522350916E+03 -0.23364327021E+01 -0.16471332252E+04  0.17003936950E+04  0.40000000000E+03 0.  1.
   -9000007    1    1    2    0  501 -0.13522350916E+03  0.23364327021E+01 -0.96730262771E+03  0.10554455125E+04  0.40000000000E+03 0. -1.
<mgrwt>
<rscale>  2 0.42224502E+03</rscale>
<asrwt>0</asrwt>
<pdfrwt beam="1">  1        3 0.41309811E+00 0.42224502E+03</pdfrwt>
<pdfrwt beam="2">  1       -3 0.10877180E-01 0.42224502E+03</pdfrwt>
<totfact> 0.17923996E+00</totfact>
</mgrwt>
</event>
<event>
 4    1  0.2474915E-002  0.4576687E+03  0.7818608E-02  0.1025460E+00
          2   -1    0    0  502    0  0.00000000000E+00  0.00000000000E+00  0.43080798643E+03  0.43080798643E+03  0.00000000000E+00 0. -1.
         -2   -1    0    0    0  501 -0.00000000000E+00 -0.00000000000E+00 -0.16083738151E+04  0.16083738151E+04  0.00000000000E+00 0.  1.
    9000007    1    1    2  502    0 -0.50364780124E+02 -0.21661952286E+03  0.26286819645E+03  0.52778813691E+03  0.40000000000E+03 0. -1.
   -9000007    1    1    2    0  501  0.50364780124E+02  0.21661952286E+03 -0.14404340251E+04  0.15113936646E+04  0.40000000000E+03 0.  1.
<mgrwt>
<rscale>  2 0.45766869E+03</rscale>
<asrwt>0</asrwt>
<pdfrwt beam="1">  1        2 0.66278151E-01 0.45766869E+03</pdfrwt>
<pdfrwt beam="2">  1       -2 0.24744213E+00 0.45766869E+03</pdfrwt>
<totfact> 0.52490159E+00</totfact>
</mgrwt>
</event>
<event>
 4    1  0.2474915E-002  0.5043678E+03  0.7818608E-02  0.1012645E+00
          2   -1    0    0  502    0  0.00000000000E+00  0.00000000000E+00  0.88946393038E+03  0.88946393038E+03  0.00000000000E+00 0. -1.
         -2   -1    0    0    0  501 -0.00000000000E+00 -0.00000000000E+00 -0.32805330390E+03  0.32805330390E+03  0.00000000000E+00 0.  1.
    9000007    1    1    2  502    0  0.30642631376E+03 -0.22130190226E+02  0.49866296555E+03  0.70926129479E+03  0.40000000000E+03 0. -1.
   -9000007    1    1    2    0  501 -0.30642631376E+03  0.22130190226E+02  0.62747660935E+02  0.50825593950E+03  0.40000000000E+03 0.  1.
<mgrwt>
<rscale>  2 0.50436775E+03</rscale>
<asrwt>0</asrwt>
<pdfrwt beam="1">  1        2 0.13684060E+00 0.50436775E+03</pdfrwt>
<pdfrwt beam="2">  1       -2 0.50469739E-01 0.50436775E+03</pdfrwt>
<totfact> 0.11428135E+02</totfact>
</mgrwt>
</event>
<event>
 4    1  0.2474915E-002  0.5656040E+03  0.7818608E-02  0.9979454E-01
          1   -1    0    0  502    0  0.00000000000E+00  0.00000000000E+00  0.70934869967E+03  0.70934869967E+03  0.00000000000E+00 0.  1.
         -1   -1    0    0    0  501 -0.00000000000E+00 -0.00000000000E+00 -0.65873932097E+03  0.65873932097E+03  0.00000000000E+00 0. -1.
    9000007    1    1    2  502    0 -0.19273425629E+03  0.35037319618E+03 -0.35884366095E+03  0.66983329505E+03  0.40000000000E+03 0. -1.
   -9000007    1    1    2    0  501  0.19273425629E+03 -0.35037319618E+03  0.40945303965E+03  0.69825472560E+03  0.40000000000E+03 0.  1.
<mgrwt>
<rscale>  2 0.56560399E+03</rscale>
<asrwt>0</asrwt>
<pdfrwt beam="1">  1        1 0.10913057E+00 0.56560399E+03</pdfrwt>
<pdfrwt beam="2">  1       -1 0.10134451E+00 0.56560399E+03</pdfrwt>
<totfact> 0.25895472E+01</totfact>
</mgrwt>
</event>
<event>
 4    1  0.2474915E-002  0.7610101E+03  0.7818608E-02  0.9618234E-01
         -1   -1    0    0    0  501 -0.00000000000E+00  0.00000000000E+00  0.18011283869E+03  0.18011283869E+03  0.00000000000E+00 0.  1.
          1   -1    0    0  502    0  0.00000000000E+00 -0.00000000000E+00 -0.38553555536E+04  0.38553555536E+04  0.00000000000E+00 0. -1.
    9000007    1    1    2  502    0  0.24438308160E+03 -0.59951085197E+03 -0.26596818155E+04  0.27664135106E+04  0.40000000000E+03 0.  1.
   -9000007    1    1    2    0  501 -0.24438308160E+03  0.59951085197E+03 -0.10155608995E+04  0.12690548817E+04  0.40000000000E+03 0.  1.
<mgrwt>
<rscale>  2 0.76101009E+03</rscale>
<asrwt>0</asrwt>
<pdfrwt beam="1">  1        1 0.59313162E+00 0.76101009E+03</pdfrwt>
<pdfrwt beam="2">  1       -1 0.27709668E-01 0.76101009E+03</pdfrwt>
<totfact> 0.16416862E+00</totfact>
</mgrwt>
</event>
<event>
 4    1  0.2474915E-002  0.4054405E+03  0.7818608E-02  0.1041912E+00
         -1   -1    0    0    0  501 -0.00000000000E+00  0.00000000000E+00  0.18405055402E+03  0.18405055402E+03  0.00000000000E+00 0. -1.
          1   -1    0    0  502    0  0.00000000000E+00 -0.00000000000E+00 -0.89349956805E+03  0.89349956805E+03  0.00000000000E+00 0.  1.
    9000007    1    1    2  502    0 -0.64118769775E+02 -0.16455377008E+02 -0.36560716652E+03  0.54594010320E+03  0.40000000000E+03 0. -1.
   -9000007    1    1    2    0  501  0.64118769775E+02  0.16455377008E+02 -0.34384184751E+03  0.53161001887E+03  0.40000000000E+03 0. -1.
<mgrwt>
<rscale>  2 0.40544050E+03</rscale>
<asrwt>0</asrwt>
<pdfrwt beam="1">  1        1 0.13746147E+00 0.40544050E+03</pdfrwt>
<pdfrwt beam="2">  1       -1 0.28315470E-01 0.40544050E+03</pdfrwt>
<totfact> 0.21637800E+02</totfact>
</mgrwt>
</event>
<event>
 4    1  0.2474915E-002  0.4016201E+03  0.7818608E-02  0.1043220E+00
          2   -1    0    0  502    0  0.00000000000E+00  0.00000000000E+00  0.87763661448E+03  0.87763661448E+03  0.00000000000E+00 0. -1.
         -2   -1    0    0    0  501 -0.00000000000E+00 -0.00000000000E+00 -0.18379320386E+03  0.18379320386E+03  0.00000000000E+00 0.  1.
    9000007    1    1    2  502    0 -0.29430461790E+02  0.20796953232E+02  0.34987052005E+03  0.53264251252E+03  0.40000000000E+03 0.  1.
   -9000007    1    1    2    0  501  0.29430461790E+02 -0.20796953232E+02  0.34397289058E+03  0.52878730582E+03  0.40000000000E+03 0.  1.
<mgrwt>
<rscale>  2 0.40162005E+03</rscale>
<asrwt>0</asrwt>
<pdfrwt beam="1">  1        2 0.13502102E+00 0.40162005E+03</pdfrwt>
<pdfrwt beam="2">  1       -2 0.28275878E-01 0.40162005E+03</pdfrwt>
<totfact> 0.35660010E+02</totfact>
</mgrwt>
</event>
<event>
 4    1  0.2474915E-002  0.5592655E+03  0.7818608E-02  0.9993718E-01
          2   -1    0    0  502    0  0.00000000000E+00  0.00000000000E+00  0.92730034454E+03  0.92730034454E+03  0.00000000000E+00 0. -1.
         -2   -1    0    0    0  501 -0.00000000000E+00 -0.00000000000E+00 -0.33989963475E+03  0.33989963475E+03  0.00000000000E+00 0.  1.
    9000007    1    1    2  502    0  0.37544845424E+03 -0.10870322185E+03  0.23828390877E+03  0.60791212639E+03  0.40000000000E+03 0.  1.
   -9000007    1    1    2    0  501 -0.37544845424E+03  0.10870322185E+03  0.34911680102E+03  0.65928785290E+03  0.40000000000E+03 0.  1.
<mgrwt>
<rscale>  2 0.55926553E+03</rscale>
<asrwt>0</asrwt>
<pdfrwt beam="1">  1        2 0.14266159E+00 0.55926553E+03</pdfrwt>
<pdfrwt beam="2">  1       -2 0.52292252E-01 0.55926553E+03</pdfrwt>
<totfact> 0.99833133E+01</totfact>
</mgrwt>
</event>
<event>
 4    1  0.2474915E-002  0.5895466E+03  0.7818608E-02  0.9927334E-01
          1   -1    0    0  502    0  0.00000000000E+00  0.00000000000E+00  0.17764347934E+04  0.17764347934E+04  0.00000000000E+00 0.  1.
         -1   -1    0    0    0  501 -0.00000000000E+00 -0.00000000000E+00 -0.26862837519E+03  0.26862837519E+03  0.00000000000E+00 0. -1.
    9000007    1    1    2  502    0 -0.40955789988E+03 -0.14081033134E+03  0.22095102866E+03  0.62959080349E+03  0.40000000000E+03 0. -1.
   -9000007    1    1    2    0  501  0.40955789988E+03  0.14081033134E+03  0.12868553896E+04  0.14154723651E+04  0.40000000000E+03 0.  1.
<mgrwt>
<rscale>  2 0.58954662E+03</rscale>
<asrwt>0</asrwt>
<pdfrwt beam="1">  1        1 0.27329765E+00 0.58954662E+03</pdfrwt>
<pdfrwt beam="2">  1       -1 0.41327443E-01 0.58954662E+03</pdfrwt>
<totfact> 0.25732209E+01</totfact>
</mgrwt>
</event>
<event>
 4    1  0.2474915E-002  0.6101786E+03  0.7818608E-02  0.9884511E-01
         -1   -1    0    0    0  501 -0.00000000000E+00  0.00000000000E+00  0.65006828191E+03  0.65006828191E+03  0.00000000000E+00 0.  1.
          1   -1    0    0  502    0  0.00000000000E+00 -0.00000000000E+00 -0.58091337102E+03  0.58091337102E+03  0.00000000000E+00 0. -1.
    9000007    1    1    2  502    0 -0.19117779389E+03  0.41924810386E+03  0.10759981110E+03  0.61959312522E+03  0.40000000000E+03 0.  1.
   -9000007    1    1    2    0  501  0.19117779389E+03 -0.41924810386E+03 -0.38444900218E+02  0.61138852771E+03  0.40000000000E+03 0. -1.
<mgrwt>
<rscale>  2 0.61017860E+03</rscale>
<asrwt>0</asrwt>
<pdfrwt beam="1">  1        1 0.89371288E-01 0.61017860E+03</pdfrwt>
<pdfrwt beam="2">  1       -1 0.10001050E+00 0.61017860E+03</pdfrwt>
<totfact> 0.35516019E+01</totfact>
</mgrwt>
</event>
<event>
 4    1  0.2474915E-002  0.5452106E+03  0.7818608E-02  0.1002609E+00
         -1   -1    0    0    0  501 -0.00000000000E+00  0.00000000000E+00  0.54223701056E+03  0.54223701056E+03  0.00000000000E+00 0. -1.
          1   -1    0    0  502    0  0.00000000000E+00 -0.00000000000E+00 -0.11795639510E+04  0.11795639510E+04  0.00000000000E+00 0.  1.
    9000007    1    1    2  502    0  0.31666041375E+03 -0.19230396176E+03 -0.94850588522E+03  0.10940374974E+04  0.40000000000E+03 0.  1.
   -9000007    1    1    2    0  501 -0.31666041375E+03  0.19230396176E+03  0.31117894476E+03  0.62776346422E+03  0.40000000000E+03 0. -1.
<mgrwt>
<rscale>  2 0.54521063E+03</rscale>
<asrwt>0</asrwt>
<pdfrwt beam="1">  1        1 0.18147138E+00 0.54521063E+03</pdfrwt>
<pdfrwt beam="2">  1       -1 0.83421079E-01 0.54521063E+03</pdfrwt>
<totfact> 0.16795069E+01</totfact>
</mgrwt>
</event>
<event>
 4    1  0.2474915E-002  0.4361079E+03  0.7818608E-02  0.1031948E+00
         -1   -1    0    0    0  501 -0.00000000000E+00  0.00000000000E+00  0.12982348209E+03  0.12982348209E+03  0.00000000000E+00 0.  1.
          1   -1    0    0  502    0  0.00000000000E+00 -0.00000000000E+00 -0.15030298282E+04  0.15030298282E+04  0.00000000000E+00 0. -1.
    9000007    1    1    2  502    0 -0.37212765960E+02  0.16972118471E+03 -0.55671964412E+03  0.70719645972E+03  0.40000000000E+03 0.  1.
   -9000007    1    1    2    0  501  0.37212765960E+02 -0.16972118471E+03 -0.81648670197E+03  0.92565685056E+03  0.40000000000E+03 0. -1.
<mgrwt>
<rscale>  2 0.43610787E+03</rscale>
<asrwt>0</asrwt>
<pdfrwt beam="1">  1        1 0.23123535E+00 0.43610787E+03</pdfrwt>
<pdfrwt beam="2">  1       -1 0.19972844E-01 0.43610787E+03</pdfrwt>
<totfact> 0.14088027E+02</totfact>
</mgrwt>
</event>
<event>
 4    1  0.2474915E-002  0.4047828E+03  0.7818608E-02  0.1042136E+00
         -2   -1    0    0    0  501 -0.00000000000E+00  0.00000000000E+00  0.18954618065E+03  0.18954618065E+03  0.00000000000E+00 0.  1.
          2   -1    0    0  502    0  0.00000000000E+00 -0.00000000000E+00 -0.87333107923E+03  0.87333107923E+03  0.00000000000E+00 0. -1.
    9000007    1    1    2  502    0 -0.30157237732E+02 -0.54218764225E+02 -0.28823624539E+03  0.49691977878E+03  0.40000000000E+03 0.  1.
   -9000007    1    1    2    0  501  0.30157237732E+02  0.54218764225E+02 -0.39554865319E+03  0.56595748111E+03  0.40000000000E+03 0.  1.
<mgrwt>
<rscale>  2 0.40478282E+03</rscale>
<asrwt>0</asrwt>
<pdfrwt beam="1">  1        2 0.13435863E+00 0.40478282E+03</pdfrwt>
<pdfrwt beam="2">  1       -2 0.29160951E-01 0.40478282E+03</pdfrwt>
<totfact> 0.33927006E+02</totfact>
</mgrwt>
</event>
<event>
 4    1  0.2474915E-002  0.4049483E+03  0.7818608E-02  0.1042080E+00
          2   -1    0    0  502    0  0.00000000000E+00  0.00000000000E+00  0.14697231085E+04  0.14697231085E+04  0.00000000000E+00 0. -1.
         -2   -1    0    0    0  501 -0.00000000000E+00 -0.00000000000E+00 -0.11357707251E+03  0.11357707251E+03  0.00000000000E+00 0.  1.
    9000007    1    1    2  502    0  0.13910696065E+01 -0.63096943813E+02  0.57294557350E+03  0.70160515220E+03  0.40000000000E+03 0.  1.
   -9000007    1    1    2    0  501 -0.13910696065E+01  0.63096943813E+02  0.78320046244E+03  0.88169502877E+03  0.40000000000E+03 0. -1.
<mgrwt>
<rscale>  2 0.40494834E+03</rscale>
<asrwt>0</asrwt>
<pdfrwt beam="1">  1        2 0.22611123E+00 0.40494834E+03</pdfrwt>
<pdfrwt beam="2">  1       -2 0.17473397E-01 0.40494834E+03</pdfrwt>
<totfact> 0.37092137E+02</totfact>
</mgrwt>
</event>
<event>
 4    1  0.2474915E-002  0.5456268E+03  0.7818608E-02  0.1002511E+00
          2   -1    0    0  502    0  0.00000000000E+00  0.00000000000E+00  0.19689619148E+04  0.19689619148E+04  0.00000000000E+00 0. -1.
         -2   -1    0    0    0  501 -0.00000000000E+00 -0.00000000000E+00 -0.16089478446E+03  0.16089478446E+03  0.00000000000E+00 0.  1.
    9000007    1    1    2  502    0 -0.84216160975E+02 -0.36140868007E+03  0.64263644251E+03  0.84302443205E+03  0.40000000000E+03 0. -1.
   -9000007    1    1    2    0  501  0.84216160975E+02  0.36140868007E+03  0.11654306879E+04  0.12868322672E+04  0.40000000000E+03 0.  1.
<mgrwt>
<rscale>  2 0.54562679E+03</rscale>
<asrwt>0</asrwt>
<pdfrwt beam="1">  1        2 0.30291720E+00 0.54562679E+03</pdfrwt>
<pdfrwt beam="2">  1       -2 0.24753045E-01 0.54562679E+03</pdfrwt>
<totfact> 0.10664342E+02</totfact>
</mgrwt>
</event>
<event>
 4    1  0.2474915E-002  0.5747232E+03  0.7818608E-02  0.9959281E-01
          2   -1    0    0  502    0  0.00000000000E+00  0.00000000000E+00  0.10094325598E+04  0.10094325598E+04  0.00000000000E+00 0. -1.
         -2   -1    0    0    0  501 -0.00000000000E+00 -0.00000000000E+00 -0.32742888276E+03  0.32742888276E+03  0.00000000000E+00 0.  1.
    9000007    1    1    2  502    0 -0.14234921816E+03 -0.38735437193E+03  0.35787732907E+03  0.67703980092E+03  0.40000000000E+03 0.  1.
   -9000007    1    1    2    0  501  0.14234921816E+03  0.38735437193E+03  0.32412634801E+03  0.65982164169E+03  0.40000000000E+03 0.  1.
<mgrwt>
<rscale>  2 0.57472316E+03</rscale>
<asrwt>0</asrwt>
<pdfrwt beam="1">  1        2 0.15529732E+00 0.57472316E+03</pdfrwt>
<pdfrwt beam="2">  1       -2 0.50373675E-01 0.57472316E+03</pdfrwt>
<totfact> 0.95272011E+01</totfact>
</mgrwt>
</event>
<event>
 4    1  0.2474915E-002  0.4275692E+03  0.7818608E-02  0.1034631E+00
         -2   -1    0    0    0  501 -0.00000000000E+00  0.00000000000E+00  0.10968862506E+04  0.10968862506E+04  0.00000000000E+00 0.  1.
          2   -1    0    0  502    0  0.00000000000E+00 -0.00000000000E+00 -0.16997096958E+03  0.16997096958E+03  0.00000000000E+00 0. -1.
    9000007    1    1    2  502    0  0.14097652645E+03  0.54231162958E+02  0.37515192560E+03  0.56881839573E+03  0.40000000000E+03 0. -1.
   -9000007    1    1    2    0  501 -0.14097652645E+03 -0.54231162958E+02  0.55176335545E+03  0.69803882447E+03  0.40000000000E+03 0.  1.
<mgrwt>
<rscale>  2 0.42756918E+03</rscale>
<asrwt>0</asrwt>
<pdfrwt beam="1">  1        2 0.26149381E-01 0.42756918E+03</pdfrwt>
<pdfrwt beam="2">  1       -2 0.16875173E+00 0.42756918E+03</pdfrwt>
<totfact> 0.46917933E+01</totfact>
</mgrwt>
</event>
<event>
 4    1  0.2474915E-002  0.4646851E+03  0.7818608E-02  0.1023431E+00
         -2   -1    0    0    0  501 -0.00000000000E+00  0.00000000000E+00  0.86014437285E+02  0.86014437285E+02  0.00000000000E+00 0.  1.
          2   -1    0    0  502    0  0.00000000000E+00 -0.00000000000E+00 -0.25789438603E+04  0.25789438603E+04  0.00000000000E+00 0. -1.
    9000007    1    1    2  502    0 -0.14323502479E+03  0.18819126132E+03 -0.14636675838E+04  0.15356611016E+04  0.40000000000E+03 0. -1.
   -9000007    1    1    2    0  501  0.14323502479E+03 -0.18819126132E+03 -0.10292618393E+04  0.11292971960E+04  0.40000000000E+03 0.  1.
<mgrwt>
<rscale>  2 0.46468508E+03</rscale>
<asrwt>0</asrwt>
<pdfrwt beam="1">  1        2 0.39676061E+00 0.46468508E+03</pdfrwt>
<pdfrwt beam="2">  1       -2 0.13232990E-01 0.46468508E+03</pdfrwt>
<totfact> 0.14665647E+02</totfact>
</mgrwt>
</event>
<event>
 4    1  0.2474915E-002  0.4963768E+03  0.7818608E-02  0.1014729E+00
          2   -1    0    0  502    0  0.00000000000E+00  0.00000000000E+00  0.17053868178E+04  0.17053868178E+04  0.00000000000E+00 0. -1.
         -2   -1    0    0    0  501 -0.00000000000E+00 -0.00000000000E+00 -0.17241130715E+03  0.17241130715E+03  0.00000000000E+00 0.  1.
    9000007    1    1    2  502    0  0.29030169750E+03 -0.45987780921E+02  0.38856640433E+03  0.63037592129E+03  0.40000000000E+03 0.  1.
   -9000007    1    1    2    0  501 -0.29030169750E+03  0.45987780921E+02  0.11444091063E+04  0.12474222037E+04  0.40000000000E+03 0. -1.
<mgrwt>
<rscale>  2 0.49637682E+03</rscale>
<asrwt>0</asrwt>
<pdfrwt beam="1">  1        2 0.26236719E+00 0.49637682E+03</pdfrwt>
<pdfrwt beam="2">  1       -2 0.26524818E-01 0.49637682E+03</pdfrwt>
<totfact> 0.13148492E+02</totfact>
</mgrwt>
</event>
<event>
 4    1  0.2474915E-002  0.4258366E+03  0.7818608E-02  0.1035183E+00
          2   -1    0    0  502    0  0.00000000000E+00  0.00000000000E+00  0.93415713624E+02  0.93415713624E+02  0.00000000000E+00 0. -1.
         -2   -1    0    0    0  501 -0.00000000000E+00 -0.00000000000E+00 -0.20511214153E+04  0.20511214153E+04  0.00000000000E+00 0.  1.
    9000007    1    1    2  502    0  0.77911377600E+02  0.12355831974E+03 -0.12271009225E+04  0.12988893391E+04  0.40000000000E+03 0.  1.
   -9000007    1    1    2    0  501 -0.77911377600E+02 -0.12355831974E+03 -0.73060477917E+03  0.84564778985E+03  0.40000000000E+03 0. -1.
<mgrwt>
<rscale>  2 0.42583664E+03</rscale>
<asrwt>0</asrwt>
<pdfrwt beam="1">  1        2 0.14371646E-01 0.42583664E+03</pdfrwt>
<pdfrwt beam="2">  1       -2 0.31555718E+00 0.42583664E+03</pdfrwt>
<totfact> 0.11755081E+01</totfact>
</mgrwt>
</event>
<event>
 4    1  0.2474915E-002  0.4077837E+03  0.7818608E-02  0.1041117E+00
         -2   -1    0    0    0  501 -0.00000000000E+00  0.00000000000E+00  0.12217167406E+03  0.12217167406E+03  0.00000000000E+00 0. -1.
          2   -1    0    0  502    0  0.00000000000E+00 -0.00000000000E+00 -0.21444700523E+04  0.21444700523E+04  0.00000000000E+00 0.  1.
    9000007    1    1    2  502    0  0.25605492615E+02 -0.75046042759E+02 -0.16961279250E+04  0.17444590818E+04  0.40000000000E+03 0.  1.
   -9000007    1    1    2    0  501 -0.25605492615E+02  0.75046042759E+02 -0.32617045316E+03  0.52218264458E+03  0.40000000000E+03 0. -1.
<mgrwt>
<rscale>  2 0.40778370E+03</rscale>
<asrwt>0</asrwt>
<pdfrwt beam="1">  1        2 0.32991848E+00 0.40778370E+03</pdfrwt>
<pdfrwt beam="2">  1       -2 0.18795642E-01 0.40778370E+03</pdfrwt>
<totfact> 0.14218380E+02</totfact>
</mgrwt>
</event>
<event>
 4    1  0.2474915E-002  0.5589320E+03  0.7818608E-02  0.9994474E-01
         -1   -1    0    0    0  501 -0.00000000000E+00  0.00000000000E+00  0.48356427103E+03  0.48356427103E+03  0.00000000000E+00 0.  1.
          1   -1    0    0  502    0  0.00000000000E+00 -0.00000000000E+00 -0.64992617382E+03  0.64992617382E+03  0.00000000000E+00 0. -1.
    9000007    1    1    2  502    0  0.11248144642E+03  0.37383541196E+03 -0.39392956528E+02  0.56031847734E+03  0.40000000000E+03 0. -1.
   -9000007    1    1    2    0  501 -0.11248144642E+03 -0.37383541196E+03 -0.12696894625E+03  0.57317196751E+03  0.40000000000E+03 0.  1.
<mgrwt>
<rscale>  2 0.55893201E+03</rscale>
<asrwt>0</asrwt>
<pdfrwt beam="1">  1        1 0.99988641E-01 0.55893201E+03</pdfrwt>
<pdfrwt beam="2">  1       -1 0.74394504E-01 0.55893201E+03</pdfrwt>
<totfact> 0.57657433E+01</totfact>
</mgrwt>
</event>
<event>
 4    1  0.2474915E-002  0.4219609E+03  0.7818608E-02  0.1036430E+00
          2   -1    0    0  502    0  0.00000000000E+00  0.00000000000E+00  0.26287495450E+04  0.26287495450E+04  0.00000000000E+00 0. -1.
         -2   -1    0    0    0  501 -0.00000000000E+00 -0.00000000000E+00 -0.67748963516E+02  0.67748963516E+02  0.00000000000E+00 0.  1.
    9000007    1    1    2  502    0 -0.10874889073E+03 -0.78896459097E+02  0.12592880114E+04  0.13281028832E+04  0.40000000000E+03 0.  1.
   -9000007    1    1    2    0  501  0.10874889073E+03  0.78896459097E+02  0.13017125700E+04  0.13683956253E+04  0.40000000000E+03 0.  1.
<mgrwt>
<rscale>  2 0.42196087E+03</rscale>
<asrwt>0</asrwt>
<pdfrwt beam="1">  1        2 0.40442293E+00 0.42196087E+03</pdfrwt>
<pdfrwt beam="2">  1       -2 0.10422920E-01 0.42196087E+03</pdfrwt>
<totfact> 0.20467669E+02</totfact>
</mgrwt>
</event>
<event>
 4    1  0.2474915E-002  0.4141803E+03  0.7818608E-02  0.1038977E+00
         -1   -1    0    0    0  501 -0.00000000000E+00  0.00000000000E+00  0.17254363700E+03  0.17254363700E+03  0.00000000000E+00 0.  1.
          1   -1    0    0  502    0  0.00000000000E+00 -0.00000000000E+00 -0.12633832973E+04  0.12633832973E+04  0.00000000000E+00 0. -1.
    9000007    1    1    2  502    0  0.80771352517E+02  0.70861409815E+02 -0.21402380023E+03  0.46620975735E+03  0.40000000000E+03 0.  1.
   -9000007    1    1    2    0  501 -0.80771352517E+02 -0.70861409815E+02 -0.87681586012E+03  0.96971717699E+03  0.40000000000E+03 0. -1.
<mgrwt>
<rscale>  2 0.41418034E+03</rscale>
<asrwt>0</asrwt>
<pdfrwt beam="1">  1        1 0.19436666E+00 0.41418034E+03</pdfrwt>
<pdfrwt beam="2">  1       -1 0.26545175E-01 0.41418034E+03</pdfrwt>
<totfact> 0.12821157E+02</totfact>
</mgrwt>
</event>
<event>
 4    1  0.2474915E-002  0.5052881E+03  0.7818608E-02  0.1012408E+00
         -2   -1    0    0    0  501 -0.00000000000E+00  0.00000000000E+00  0.20577234696E+03  0.20577234696E+03  0.00000000000E+00 0.  1.
          2   -1    0    0  502    0  0.00000000000E+00 -0.00000000000E+00 -0.13181957250E+04  0.13181957250E+04  0.00000000000E+00 0. -1.
    9000007    1    1    2  502    0  0.17420393468E+03  0.25489028296E+03 -0.37154023889E+03  0.62718276150E+03  0.40000000000E+03 0.  1.
   -9000007    1    1    2    0  501 -0.17420393468E+03 -0.25489028296E+03 -0.74088313916E+03  0.89678531048E+03  0.40000000000E+03 0.  1.
<mgrwt>
<rscale>  2 0.50528810E+03</rscale>
<asrwt>0</asrwt>
<pdfrwt beam="1">  1        2 0.20279934E+00 0.50528810E+03</pdfrwt>
<pdfrwt beam="2">  1       -2 0.31657284E-01 0.50528810E+03</pdfrwt>
<totfact> 0.15503435E+02</totfact>
</mgrwt>
</event>
<event>
 4    1  0.2474915E-002  0.4387332E+03  0.7818608E-02  0.1031136E+00
         -2   -1    0    0    0  501 -0.00000000000E+00  0.00000000000E+00  0.78579706187E+03  0.78579706187E+03  0.00000000000E+00 0.  1.
          2   -1    0    0  502    0  0.00000000000E+00 -0.00000000000E+00 -0.45329818084E+03  0.45329818084E+03  0.00000000000E+00 0. -1.
    9000007    1    1    2  502    0 -0.19068782701E+02  0.17922941953E+03  0.58626932594E+03  0.73225577897E+03  0.40000000000E+03 0.  1.
   -9000007    1    1    2    0  501  0.19068782701E+02 -0.17922941953E+03 -0.25377044491E+03  0.50683946375E+03  0.40000000000E+03 0.  1.
<mgrwt>
<rscale>  2 0.43873318E+03</rscale>
<asrwt>0</asrwt>
<pdfrwt beam="1">  1        2 0.69738182E-01 0.43873318E+03</pdfrwt>
<pdfrwt beam="2">  1       -2 0.12089186E+00 0.43873318E+03</pdfrwt>
<totfact> 0.37428794E+01</totfact>
</mgrwt>
</event>
<event>
 4    1  0.2474915E-002  0.5274041E+03  0.7818608E-02  0.1006864E+00
          1   -1    0    0  502    0  0.00000000000E+00  0.00000000000E+00  0.12718324466E+04  0.12718324466E+04  0.00000000000E+00 0.  1.
         -1   -1    0    0    0  501 -0.00000000000E+00 -0.00000000000E+00 -0.22335332260E+03  0.22335332260E+03  0.00000000000E+00 0. -1.
    9000007    1    1    2  502    0  0.21763789262E+03  0.26606162772E+03  0.41638053545E+03  0.67195817753E+03  0.40000000000E+03 0.  1.
   -9000007    1    1    2    0  501 -0.21763789262E+03 -0.26606162772E+03  0.63209858854E+03  0.82322759166E+03  0.40000000000E+03 0. -1.
<mgrwt>
<rscale>  2 0.52740406E+03</rscale>
<asrwt>0</asrwt>
<pdfrwt beam="1">  1        1 0.19566653E+00 0.52740406E+03</pdfrwt>
<pdfrwt beam="2">  1       -1 0.34362050E-01 0.52740406E+03</pdfrwt>
<totfact> 0.79660853E+01</totfact>
</mgrwt>
</event>
<event>
 4    1  0.2474915E-002  0.1072327E+04  0.7818608E-02  0.9232591E-01
          1   -1    0    0  502    0  0.00000000000E+00  0.00000000000E+00  0.80836083424E+03  0.80836083424E+03  0.00000000000E+00 0.  1.
         -1   -1    0    0    0  501 -0.00000000000E+00 -0.00000000000E+00 -0.16597848963E+04  0.16597848963E+04  0.00000000000E+00 0. -1.
    9000007    1    1    2  502    0 -0.23993035782E+03 -0.96556700760E+03  0.40902160847E+02  0.10731072684E+04  0.40000000000E+03 0.  1.
   -9000007    1    1    2    0  501  0.23993035782E+03  0.96556700760E+03 -0.89232622295E+03  0.13950384622E+04  0.40000000000E+03 0. -1.
<mgrwt>
<rscale>  2 0.10723275E+04</rscale>
<asrwt>0</asrwt>
<pdfrwt beam="1">  1        1 0.12436321E+00 0.10723275E+04</pdfrwt>
<pdfrwt beam="2">  1       -1 0.25535152E+00 0.10723275E+04</pdfrwt>
<totfact> 0.13973180E+00</totfact>
</mgrwt>
</event>
<event>
 4    1  0.2474915E-002  0.5227839E+03  0.7818608E-02  0.1007997E+00
          1   -1    0    0  502    0  0.00000000000E+00  0.00000000000E+00  0.28501899512E+04  0.28501899512E+04  0.00000000000E+00 0. -1.
         -1   -1    0    0    0  501 -0.00000000000E+00 -0.00000000000E+00 -0.97283907067E+02  0.97283907067E+02  0.00000000000E+00 0.  1.
    9000007    1    1    2  502    0 -0.16034943774E+01 -0.33660136168E+03  0.15528972450E+04  0.16385337657E+04  0.40000000000E+03 0. -1.
   -9000007    1    1    2    0  501  0.16034943774E+01  0.33660136168E+03  0.12000087991E+04  0.13089400925E+04  0.40000000000E+03 0. -1.
<mgrwt>
<rscale>  2 0.52278394E+03</rscale>
<asrwt>0</asrwt>
<pdfrwt beam="1">  1        1 0.43849070E+00 0.52278394E+03</pdfrwt>
<pdfrwt beam="2">  1       -1 0.14966757E-01 0.52278394E+03</pdfrwt>
<totfact> 0.27741029E+01</totfact>
</mgrwt>
</event>
<event>
 4    1  0.2474915E-002  0.5261701E+03  0.7818608E-02  0.1007165E+00
          1   -1    0    0  502    0  0.00000000000E+00  0.00000000000E+00  0.53844834940E+03  0.53844834940E+03  0.00000000000E+00 0. -1.
         -1   -1    0    0    0  501 -0.00000000000E+00 -0.00000000000E+00 -0.54844191378E+03  0.54844191378E+03  0.00000000000E+00 0.  1.
    9000007    1    1    2  502    0 -0.16933194259E+03 -0.29695395233E+03  0.13084962657E+03  0.54219607280E+03  0.40000000000E+03 0.  1.
   -9000007    1    1    2    0  501  0.16933194259E+03  0.29695395233E+03 -0.14084319096E+03  0.54469419037E+03  0.40000000000E+03 0. -1.
<mgrwt>
<rscale>  2 0.52617008E+03</rscale>
<asrwt>0</asrwt>
<pdfrwt beam="1">  1        1 0.82838207E-01 0.52617008E+03</pdfrwt>
<pdfrwt beam="2">  1       -1 0.84375680E-01 0.52617008E+03</pdfrwt>
<totfact> 0.58017389E+01</totfact>
</mgrwt>
</event>
<event>
 4    1  0.2474915E-002  0.4960655E+03  0.7818608E-02  0.1014811E+00
         -2   -1    0    0    0  501 -0.00000000000E+00  0.00000000000E+00  0.23929089473E+03  0.23929089473E+03  0.00000000000E+00 0. -1.
          2   -1    0    0  502    0  0.00000000000E+00 -0.00000000000E+00 -0.12094967200E+04  0.12094967200E+04  0.00000000000E+00 0.  1.
    9000007    1    1    2  502    0  0.25032193721E+03 -0.15303576439E+03 -0.20478139994E+03  0.53667163070E+03  0.40000000000E+03 0. -1.
   -9000007    1    1    2    0  501 -0.25032193721E+03  0.15303576439E+03 -0.76542442529E+03  0.91211598400E+03  0.40000000000E+03 0.  1.
<mgrwt>
<rscale>  2 0.49606554E+03</rscale>
<asrwt>0</asrwt>
<pdfrwt beam="1">  1        2 0.18607642E+00 0.49606554E+03</pdfrwt>
<pdfrwt beam="2">  1       -2 0.36813983E-01 0.49606554E+03</pdfrwt>
<totfact> 0.13482079E+02</totfact>
</mgrwt>
</event>
<event>
 4    1  0.2474915E-002  0.5240864E+03  0.7818608E-02  0.1007676E+00
         -1   -1    0    0    0  501 -0.00000000000E+00  0.00000000000E+00  0.23847285573E+03  0.23847285573E+03  0.00000000000E+00 0.  1.
          1   -1    0    0  502    0  0.00000000000E+00 -0.00000000000E+00 -0.11523138523E+04  0.11523138523E+04  0.00000000000E+00 0. -1.
    9000007    1    1    2  502    0  0.26065823655E+03 -0.21615706708E+03 -0.47198617928E+03  0.70529252609E+03  0.40000000000E+03 0.  1.
   -9000007    1    1    2    0  501 -0.26065823655E+03  0.21615706708E+03 -0.44185481731E+03  0.68549418197E+03  0.40000000000E+03 0. -1.
<mgrwt>
<rscale>  2 0.52408644E+03</rscale>
<asrwt>0</asrwt>
<pdfrwt beam="1">  1        1 0.17727905E+00 0.52408644E+03</pdfrwt>
<pdfrwt beam="2">  1       -1 0.36688132E-01 0.52408644E+03</pdfrwt>
<totfact> 0.86377200E+01</totfact>
</mgrwt>
</event>
<event>
 4    1  0.2474915E-002  0.4173691E+03  0.7818608E-02  0.1037926E+00
         -1   -1    0    0    0  501 -0.00000000000E+00  0.00000000000E+00  0.48054284945E+03  0.48054284945E+03  0.00000000000E+00 0.  1.
          1   -1    0    0  502    0  0.00000000000E+00 -0.00000000000E+00 -0.55446408782E+03  0.55446408782E+03  0.00000000000E+00 0. -1.
    9000007    1    1    2  502    0  0.10641348137E+03  0.53601489263E+02 -0.34145982090E+03  0.53925110845E+03  0.40000000000E+03 0. -1.
   -9000007    1    1    2    0  501 -0.10641348137E+03 -0.53601489263E+02  0.26753858253E+03  0.49575582882E+03  0.40000000000E+03 0.  1.
<mgrwt>
<rscale>  2 0.41736908E+03</rscale>
<asrwt>0</asrwt>
<pdfrwt beam="1">  1        1 0.85302167E-01 0.41736908E+03</pdfrwt>
<pdfrwt beam="2">  1       -1 0.73929669E-01 0.41736908E+03</pdfrwt>
<totfact> 0.74507431E+01</totfact>
</mgrwt>
</event>
<event>
 4    1  0.2474915E-002  0.4380177E+03  0.7818608E-02  0.1031357E+00
          1   -1    0    0  502    0  0.00000000000E+00  0.00000000000E+00  0.13479104915E+04  0.13479104915E+04  0.00000000000E+00 0.  1.
         -1   -1    0    0    0  501 -0.00000000000E+00 -0.00000000000E+00 -0.15630405497E+03  0.15630405497E+03  0.00000000000E+00 0. -1.
    9000007    1    1    2  502    0  0.17744676816E+03  0.19290174882E+02  0.37098846062E+03  0.57401385375E+03  0.40000000000E+03 0. -1.
   -9000007    1    1    2    0  501 -0.17744676816E+03 -0.19290174882E+02  0.82061797592E+03  0.93020069274E+03  0.40000000000E+03 0. -1.
<mgrwt>
<rscale>  2 0.43801766E+03</rscale>
<asrwt>0</asrwt>
<pdfrwt beam="1">  1        1 0.20737084E+00 0.43801766E+03</pdfrwt>
<pdfrwt beam="2">  1       -1 0.24046779E-01 0.43801766E+03</pdfrwt>
<totfact> 0.13189126E+02</totfact>
</mgrwt>
</event>
<event>
 4    1  0.2474915E-002  0.7353675E+03  0.7818608E-02  0.9658590E-01
         -2   -1    0    0    0  501 -0.00000000000E+00  0.00000000000E+00  0.54700486794E+03  0.54700486794E+03  0.00000000000E+00 0. -1.
          2   -1    0    0  502    0  0.00000000000E+00 -0.00000000000E+00 -0.10320008948E+04  0.10320008948E+04  0.00000000000E+00 0.  1.
    9000007    1    1    2  502    0 -0.61705196636E+03 -0.34959053733E+01 -0.40441652992E+03  0.83923660562E+03  0.40000000000E+03 0.  1.
   -9000007    1    1    2    0  501  0.61705196636E+03  0.34959053733E+01 -0.80579496968E+02  0.73976915715E+03  0.40000000000E+03 0. -1.
<mgrwt>
<rscale>  2 0.73536749E+03</rscale>
<asrwt>0</asrwt>
<pdfrwt beam="1">  1        2 0.15876937E+00 0.73536749E+03</pdfrwt>
<pdfrwt beam="2">  1       -2 0.84154596E-01 0.73536749E+03</pdfrwt>
<totfact> 0.30152590E+01</totfact>
</mgrwt>
</event>
<event>
 4    1  0.2474915E-002  0.5039480E+03  0.7818608E-02  0.1012754E+00
          2   -1    0    0  502    0  0.00000000000E+00  0.00000000000E+00  0.23101016501E+04  0.23101016501E+04  0.00000000000E+00 0. -1.
         -2   -1    0    0    0  501 -0.00000000000E+00 -0.00000000000E+00 -0.13557139572E+03  0.13557139572E+03  0.00000000000E+00 0.  1.
    9000007    1    1    2  502    0  0.16472714200E+03  0.25851217446E+03  0.55552002501E+03  0.75004404793E+03  0.40000000000E+03 0.  1.
   -9000007    1    1    2    0  501 -0.16472714200E+03 -0.25851217446E+03  0.16190102294E+04  0.16956289979E+04  0.40000000000E+03 0. -1.
<mgrwt>
<rscale>  2 0.50394799E+03</rscale>
<asrwt>0</asrwt>
<pdfrwt beam="1">  1        2 0.35540023E+00 0.50394799E+03</pdfrwt>
<pdfrwt beam="2">  1       -2 0.20857139E-01 0.50394799E+03</pdfrwt>
<totfact> 0.94851838E+01</totfact>
</mgrwt>
</event>
<event>
 4    1  0.2474915E-002  0.4405030E+03  0.7818608E-02  0.1030593E+00
         -2   -1    0    0    0  501 -0.00000000000E+00  0.00000000000E+00  0.25301457492E+03  0.25301457492E+03  0.00000000000E+00 0. -1.
          2   -1    0    0  502    0  0.00000000000E+00 -0.00000000000E+00 -0.83551303191E+03  0.83551303191E+03  0.00000000000E+00 0.  1.
    9000007    1    1    2  502    0  0.11787141057E+03 -0.14194800584E+03 -0.44719037615E+03  0.62771182744E+03  0.40000000000E+03 0. -1.
   -9000007    1    1    2    0  501 -0.11787141057E+03  0.14194800584E+03 -0.13530808084E+03  0.46081577939E+03  0.40000000000E+03 0. -1.
<mgrwt>
<rscale>  2 0.44050301E+03</rscale>
<asrwt>0</asrwt>
<pdfrwt beam="1">  1        2 0.12854047E+00 0.44050301E+03</pdfrwt>
<pdfrwt beam="2">  1       -2 0.38925319E-01 0.44050301E+03</pdfrwt>
<totfact> 0.20884243E+02</totfact>
</mgrwt>
</event>
<event>
 4    1  0.2474915E-002  0.4119053E+03  0.7818608E-02  0.1039734E+00
         -1   -1    0    0    0  501 -0.00000000000E+00  0.00000000000E+00  0.16332476196E+03  0.16332476196E+03  0.00000000000E+00 0. -1.
          1   -1    0    0  502    0  0.00000000000E+00 -0.00000000000E+00 -0.10491469716E+04  0.10491469716E+04  0.00000000000E+00 0.  1.
    9000007    1    1    2  502    0 -0.25233842353E+02  0.95022198928E+02 -0.50304085936E+03  0.65016618743E+03  0.40000000000E+03 0. -1.
   -9000007    1    1    2    0  501  0.25233842353E+02 -0.95022198928E+02 -0.38278135026E+03  0.56230554612E+03  0.40000000000E+03 0. -1.
<mgrwt>
<rscale>  2 0.41190529E+03</rscale>
<asrwt>0</asrwt>
<pdfrwt beam="1">  1        1 0.16140723E+00 0.41190529E+03</pdfrwt>
<pdfrwt beam="2">  1       -1 0.25126886E-01 0.41190529E+03</pdfrwt>
<totfact> 0.20083911E+02</totfact>
</mgrwt>
</event>
<event>
 4    1  0.2474915E-002  0.5634304E+03  0.7818608E-02  0.9984322E-01
          2   -1    0    0  502    0  0.00000000000E+00  0.00000000000E+00  0.32954445543E+04  0.32954445543E+04  0.00000000000E+00 0. -1.
         -2   -1    0    0    0  501 -0.00000000000E+00 -0.00000000000E+00 -0.96443297798E+02  0.96443297798E+02  0.00000000000E+00 0.  1.
    9000007    1    1    2  502    0 -0.37352999226E+02  0.39504249765E+03  0.16573441013E+04  0.17504980125E+04  0.40000000000E+03 0. -1.
   -9000007    1    1    2    0  501  0.37352999226E+02 -0.39504249765E+03  0.15416571552E+04  0.16413898397E+04  0.40000000000E+03 0.  1.
<mgrwt>
<rscale>  2 0.56343041E+03</rscale>
<asrwt>0</asrwt>
<pdfrwt beam="1">  1        2 0.50699138E+00 0.56343041E+03</pdfrwt>
<pdfrwt beam="2">  1       -2 0.14837433E-01 0.56343041E+03</pdfrwt>
<totfact> 0.44156775E+01</totfact>
</mgrwt>
</event>
<event>
 4    1  0.2474915E-002  0.1029606E+04  0.7818608E-02  0.9276656E-01
         -2   -1    0    0    0  501 -0.00000000000E+00  0.00000000000E+00  0.29712141410E+03  0.29712141410E+03  0.00000000000E+00 0. -1.
          2   -1    0    0  502    0  0.00000000000E+00 -0.00000000000E+00 -0.47300570335E+04  0.47300570335E+04  0.00000000000E+00 0.  1.
    9000007    1    1    2  502    0 -0.86770520474E+03  0.38363624277E+03 -0.97051937917E+03  0.14149194162E+04  0.40000000000E+03 0. -1.
   -9000007    1    1    2    0  501  0.86770520474E+03 -0.38363624277E+03 -0.34624162402E+04  0.36122590313E+04  0.40000000000E+03 0.  1.
<mgrwt>
<rscale>  2 0.10296063E+04</rscale>
<asrwt>0</asrwt>
<pdfrwt beam="1">  1        2 0.72770106E+00 0.10296063E+04</pdfrwt>
<pdfrwt beam="2">  1       -2 0.45710988E-01 0.10296063E+04</pdfrwt>
<totfact> 0.34949732E-01</totfact>
</mgrwt>
</event>
<event>
 4    1  0.2474915E-002  0.4586479E+03  0.7818608E-02  0.1025174E+00
         -2   -1    0    0    0  501 -0.00000000000E+00  0.00000000000E+00  0.44893390794E+03  0.44893390794E+03  0.00000000000E+00 0. -1.
          2   -1    0    0  502    0  0.00000000000E+00 -0.00000000000E+00 -0.48890073410E+03  0.48890073410E+03  0.00000000000E+00 0.  1.
    9000007    1    1    2  502    0 -0.68296910589E+01  0.22430162912E+03 -0.11560169719E+03  0.47299219645E+03  0.40000000000E+03 0. -1.
   -9000007    1    1    2    0  501  0.68296910589E+01 -0.22430162912E+03  0.75634871022E+02  0.46484244559E+03  0.40000000000E+03 0. -1.
<mgrwt>
<rscale>  2 0.45864787E+03</rscale>
<asrwt>0</asrwt>
<pdfrwt beam="1">  1        2 0.75215498E-01 0.45864787E+03</pdfrwt>
<pdfrwt beam="2">  1       -2 0.69066755E-01 0.45864787E+03</pdfrwt>
<totfact> 0.12445610E+02</totfact>
</mgrwt>
</event>
<event>
 4    1  0.2474915E-002  0.4083761E+03  0.7818608E-02  0.1040917E+00
         -1   -1    0    0    0  501 -0.00000000000E+00  0.00000000000E+00  0.11929740562E+04  0.11929740562E+04  0.00000000000E+00 0.  1.
          1   -1    0    0  502    0  0.00000000000E+00 -0.00000000000E+00 -0.22431412342E+03  0.22431412342E+03  0.00000000000E+00 0. -1.
    9000007    1    1    2  502    0 -0.51435633822E+02 -0.64229324095E+02  0.49340212929E+02  0.41134594578E+03  0.40000000000E+03 0. -1.
   -9000007    1    1    2    0  501  0.51435633822E+02  0.64229324095E+02  0.91931971985E+03  0.10059422338E+04  0.40000000000E+03 0.  1.
<mgrwt>
<rscale>  2 0.40837609E+03</rscale>
<asrwt>0</asrwt>
<pdfrwt beam="1">  1        1 0.34509866E-01 0.40837609E+03</pdfrwt>
<pdfrwt beam="2">  1       -1 0.18353447E+00 0.40837609E+03</pdfrwt>
<totfact> 0.26873323E+01</totfact>
</mgrwt>
</event>
<event>
 4    1  0.2474915E-002  0.5469224E+03  0.7818608E-02  0.1002209E+00
         -2   -1    0    0    0  501 -0.00000000000E+00  0.00000000000E+00  0.40874963879E+03  0.40874963879E+03  0.00000000000E+00 0.  1.
          2   -1    0    0  502    0  0.00000000000E+00 -0.00000000000E+00 -0.14753667251E+04  0.14753667251E+04  0.00000000000E+00 0. -1.
    9000007    1    1    2  502    0  0.89403205033E+02  0.36212042476E+03 -0.12020941005E+04  0.13206643637E+04  0.40000000000E+03 0. -1.
   -9000007    1    1    2    0  501 -0.89403205033E+02 -0.36212042476E+03  0.13547701422E+03  0.56345200016E+03  0.40000000000E+03 0.  1.
<mgrwt>
<rscale>  2 0.54692242E+03</rscale>
<asrwt>0</asrwt>
<pdfrwt beam="1">  1        2 0.22697950E+00 0.54692242E+03</pdfrwt>
<pdfrwt beam="2">  1       -2 0.62884559E-01 0.54692242E+03</pdfrwt>
<totfact> 0.32275038E+01</totfact>
</mgrwt>
</event>
<event>
 4    1  0.2474915E-002  0.4145175E+03  0.7818608E-02  0.1038866E+00
         -1   -1    0    0    0  501 -0.00000000000E+00  0.00000000000E+00  0.13418989449E+03  0.13418989449E+03  0.00000000000E+00 0.  1.
          1   -1    0    0  502    0  0.00000000000E+00 -0.00000000000E+00 -0.12806978849E+04  0.12806978849E+04  0.00000000000E+00 0. -1.
    9000007    1    1    2  502    0  0.10489578906E+03  0.28664431604E+02 -0.58289809084E+03  0.71525866685E+03  0.40000000000E+03 0. -1.
   -9000007    1    1    2    0  501 -0.10489578906E+03 -0.28664431604E+02 -0.56360989955E+03  0.69962911251E+03  0.40000000000E+03 0.  1.
<mgrwt>
<rscale>  2 0.41451752E+03</rscale>
<asrwt>0</asrwt>
<pdfrwt beam="1">  1        1 0.19703045E+00 0.41451752E+03</pdfrwt>
<pdfrwt beam="2">  1       -1 0.20644599E-01 0.41451752E+03</pdfrwt>
<totfact> 0.18991082E+02</totfact>
</mgrwt>
</event>
<event>
 4    1  0.2474915E-002  0.5513021E+03  0.7818608E-02  0.1001193E+00
          1   -1    0    0  502    0  0.00000000000E+00  0.00000000000E+00  0.10961927091E+04  0.10961927091E+04  0.00000000000E+00 0.  1.
         -1   -1    0    0    0  501 -0.00000000000E+00 -0.00000000000E+00 -0.33026238561E+03  0.33026238561E+03  0.00000000000E+00 0. -1.
    9000007    1    1    2  502    0  0.58194055942E+02  0.37489665706E+03  0.97250467135E+02  0.55981399141E+03  0.40000000000E+03 0. -1.
   -9000007    1    1    2    0  501 -0.58194055942E+02 -0.37489665706E+03  0.66867985636E+03  0.86664110330E+03  0.40000000000E+03 0.  1.
<mgrwt>
<rscale>  2 0.55130214E+03</rscale>
<asrwt>0</asrwt>
<pdfrwt beam="1">  1        1 0.16864503E+00 0.55130214E+03</pdfrwt>
<pdfrwt beam="2">  1       -1 0.50809598E-01 0.55130214E+03</pdfrwt>
<totfact> 0.52095303E+01</totfact>
</mgrwt>
</event>
<event>
 4    1  0.2474915E-002  0.4944998E+03  0.7818608E-02  0.1015225E+00
         -1   -1    0    0    0  501 -0.00000000000E+00  0.00000000000E+00  0.32005896014E+03  0.32005896014E+03  0.00000000000E+00 0.  1.
          1   -1    0    0  502    0  0.00000000000E+00 -0.00000000000E+00 -0.11402660173E+04  0.11402660173E+04  0.00000000000E+00 0. -1.
    9000007    1    1    2  502    0 -0.25444882568E+03 -0.14066217542E+03  0.93220351458E+01  0.49458765939E+03  0.40000000000E+03 0. -1.
   -9000007    1    1    2    0  501  0.25444882568E+03  0.14066217542E+03 -0.82952909232E+03  0.96573731806E+03  0.40000000000E+03 0. -1.
<mgrwt>
<rscale>  2 0.49449980E+03</rscale>
<asrwt>0</asrwt>
<pdfrwt beam="1">  1        1 0.17542555E+00 0.49449980E+03</pdfrwt>
<pdfrwt beam="2">  1       -1 0.49239839E-01 0.49449980E+03</pdfrwt>
<totfact> 0.51722064E+01</totfact>
</mgrwt>
</event>
<event>
 4    1  0.2474915E-002  0.4151722E+03  0.7818608E-02  0.1038649E+00
         -1   -1    0    0    0  501 -0.00000000000E+00  0.00000000000E+00  0.38458764487E+03  0.38458764487E+03  0.00000000000E+00 0. -1.
          1   -1    0    0  502    0  0.00000000000E+00 -0.00000000000E+00 -0.45920575879E+03  0.45920575879E+03  0.00000000000E+00 0.  1.
    9000007    1    1    2  502    0 -0.73760487728E+01 -0.11096651122E+03  0.28038344838E+02  0.41611791777E+03  0.40000000000E+03 0. -1.
   -9000007    1    1    2    0  501  0.73760487728E+01  0.11096651122E+03 -0.10265645876E+03  0.42767548589E+03  0.40000000000E+03 0.  1.
<mgrwt>
<rscale>  2 0.41517222E+03</rscale>
<asrwt>0</asrwt>
<pdfrwt beam="1">  1        1 0.70647040E-01 0.41517222E+03</pdfrwt>
<pdfrwt beam="2">  1       -1 0.59167330E-01 0.41517222E+03</pdfrwt>
<totfact> 0.15008173E+02</totfact>
</mgrwt>
</event>
<event>
 4    1  0.2474915E-002  0.7007832E+03  0.7818608E-02  0.9715894E-01
         -1   -1    0    0    0  501 -0.00000000000E+00  0.00000000000E+00  0.23859521916E+03  0.23859521916E+03  0.00000000000E+00 0.  1.
          1   -1    0    0  502    0  0.00000000000E+00 -0.00000000000E+00 -0.20962798948E+04  0.20962798948E+04  0.00000000000E+00 0. -1.
    9000007    1    1    2  502    0 -0.64822836191E+01  0.57537390777E+03 -0.77167328904E+03  0.10423899552E+04  0.40000000000E+03 0. -1.
   -9000007    1    1    2    0  501  0.64822836191E+01 -0.57537390777E+03 -0.10860113866E+04  0.12924851588E+04  0.40000000000E+03 0.  1.
<mgrwt>
<rscale>  2 0.70078324E+03</rscale>
<asrwt>0</asrwt>
<pdfrwt beam="1">  1        1 0.32250460E+00 0.70078324E+03</pdfrwt>
<pdfrwt beam="2">  1       -1 0.36706957E-01 0.70078324E+03</pdfrwt>
<totfact> 0.19170117E+01</totfact>
</mgrwt>
</event>
<event>
 4    1  0.2474915E-002  0.6371429E+03  0.7818608E-02  0.9831208E-01
         -2   -1    0    0    0  501 -0.00000000000E+00  0.00000000000E+00  0.14840818793E+03  0.14840818793E+03  0.00000000000E+00 0. -1.
          2   -1    0    0  502    0  0.00000000000E+00 -0.00000000000E+00 -0.27966615443E+04  0.27966615443E+04  0.00000000000E+00 0.  1.
    9000007    1    1    2  502    0  0.41848675938E+03  0.26612004363E+03 -0.11061288780E+04  0.12765077908E+04  0.40000000000E+03 0. -1.
   -9000007    1    1    2    0  501 -0.41848675938E+03 -0.26612004363E+03 -0.15421244784E+04  0.16685619414E+04  0.40000000000E+03 0.  1.
<mgrwt>
<rscale>  2 0.63714288E+03</rscale>
<asrwt>0</asrwt>
<pdfrwt beam="1">  1        2 0.43025561E+00 0.63714288E+03</pdfrwt>
<pdfrwt beam="2">  1       -2 0.22832030E-01 0.63714288E+03</pdfrwt>
<totfact> 0.41895375E+01</totfact>
</mgrwt>
</event>
<event>
 4    1  0.2474915E-002  0.8820893E+03  0.7818608E-02  0.9448252E-01
          2   -1    0    0  502    0  0.00000000000E+00  0.00000000000E+00  0.31935190938E+04  0.31935190938E+04  0.00000000000E+00 0.  1.
         -2   -1    0    0    0  501 -0.00000000000E+00 -0.00000000000E+00 -0.27771230711E+03  0.27771230711E+03  0.00000000000E+00 0. -1.
    9000007    1    1    2  502    0  0.74506483906E+03 -0.25091809925E+03  0.20658029141E+04  0.22462464662E+04  0.40000000000E+03 0.  1.
   -9000007    1    1    2    0  501 -0.74506483906E+03  0.25091809925E+03  0.85000387267E+03  0.12249849348E+04  0.40000000000E+03 0. -1.
<mgrwt>
<rscale>  2 0.88208929E+03</rscale>
<asrwt>0</asrwt>
<pdfrwt beam="1">  1        2 0.49131061E+00 0.88208929E+03</pdfrwt>
<pdfrwt beam="2">  1       -2 0.42724972E-01 0.88208929E+03</pdfrwt>
<totfact> 0.71168305E+00</totfact>
</mgrwt>
</event>
<event>
 4    1  0.2474915E-002  0.7172617E+03  0.7818608E-02  0.9688159E-01
          2   -1    0    0  502    0  0.00000000000E+00  0.00000000000E+00  0.65539131577E+03  0.65539131577E+03  0.00000000000E+00 0.  1.
         -2   -1    0    0    0  501 -0.00000000000E+00 -0.00000000000E+00 -0.78725626267E+03  0.78725626267E+03  0.00000000000E+00 0. -1.
    9000007    1    1    2  502    0 -0.32869588655E+03  0.49641047789E+03 -0.10478061873E+03  0.72487469707E+03  0.40000000000E+03 0. -1.
   -9000007    1    1    2    0  501  0.32869588655E+03 -0.49641047789E+03 -0.27084328180E+02  0.71777288137E+03  0.40000000000E+03 0.  1.
<mgrwt>
<rscale>  2 0.71726170E+03</rscale>
<asrwt>0</asrwt>
<pdfrwt beam="1">  1        2 0.10082943E+00 0.71726170E+03</pdfrwt>
<pdfrwt beam="2">  1       -2 0.12111635E+00 0.71726170E+03</pdfrwt>
<totfact> 0.23471919E+01</totfact>
</mgrwt>
</event>
<event>
 4    1  0.2474915E-002  0.5092909E+03  0.7818608E-02  0.1011382E+00
          1   -1    0    0  502    0  0.00000000000E+00  0.00000000000E+00  0.46874942152E+03  0.46874942152E+03  0.00000000000E+00 0.  1.
         -1   -1    0    0    0  501 -0.00000000000E+00 -0.00000000000E+00 -0.57206733971E+03  0.57206733971E+03  0.00000000000E+00 0. -1.
    9000007    1    1    2  502    0  0.65876283545E+02  0.30828153393E+03 -0.14582059314E+03  0.52975544762E+03  0.40000000000E+03 0.  1.
   -9000007    1    1    2    0  501 -0.65876283545E+02 -0.30828153393E+03  0.42502674944E+02  0.51106131361E+03  0.40000000000E+03 0.  1.
<mgrwt>
<rscale>  2 0.50929087E+03</rscale>
<asrwt>0</asrwt>
<pdfrwt beam="1">  1        1 0.72115296E-01 0.50929087E+03</pdfrwt>
<pdfrwt beam="2">  1       -1 0.88010359E-01 0.50929087E+03</pdfrwt>
<totfact> 0.64116072E+01</totfact>
</mgrwt>
</event>
<event>
 4    1  0.2474915E-002  0.5606467E+03  0.7818608E-02  0.9990592E-01
          2   -1    0    0  502    0  0.00000000000E+00  0.00000000000E+00  0.64877920087E+03  0.64877920087E+03  0.00000000000E+00 0.  1.
         -2   -1    0    0    0  501 -0.00000000000E+00 -0.00000000000E+00 -0.49181195745E+03  0.49181195745E+03  0.00000000000E+00 0. -1.
    9000007    1    1    2  502    0 -0.29854931918E+03 -0.25532922089E+03  0.88818242478E+01  0.56071703543E+03  0.40000000000E+03 0. -1.
   -9000007    1    1    2    0  501  0.29854931918E+03  0.25532922089E+03  0.14808541918E+03  0.57987412289E+03  0.40000000000E+03 0.  1.
<mgrwt>
<rscale>  2 0.56064669E+03</rscale>
<asrwt>0</asrwt>
<pdfrwt beam="1">  1        2 0.99812185E-01 0.56064669E+03</pdfrwt>
<pdfrwt beam="2">  1       -2 0.75663378E-01 0.56064669E+03</pdfrwt>
<totfact> 0.72462269E+01</totfact>
</mgrwt>
</event>
<event>
 4    1  0.2474915E-002  0.4789941E+03  0.7818608E-02  0.1019412E+00
         -2   -1    0    0    0  501 -0.00000000000E+00  0.00000000000E+00  0.52838154471E+03  0.52838154471E+03  0.00000000000E+00 0. -1.
          2   -1    0    0  502    0  0.00000000000E+00 -0.00000000000E+00 -0.44279824407E+03  0.44279824407E+03  0.00000000000E+00 0.  1.
    9000007    1    1    2  502    0  0.82830291591E+02 -0.25014891669E+03  0.11036786461E+03  0.49154491480E+03  0.40000000000E+03 0. -1.
   -9000007    1    1    2    0  501 -0.82830291591E+02  0.25014891669E+03 -0.24784563972E+02  0.47963487398E+03  0.40000000000E+03 0. -1.
<mgrwt>
<rscale>  2 0.47899409E+03</rscale>
<asrwt>0</asrwt>
<pdfrwt beam="1">  1        2 0.68122807E-01 0.47899409E+03</pdfrwt>
<pdfrwt beam="2">  1       -2 0.81289469E-01 0.47899409E+03</pdfrwt>
<totfact> 0.97118353E+01</totfact>
</mgrwt>
</event>
<event>
 4    1  0.2474915E-002  0.5110806E+03  0.7818608E-02  0.1010927E+00
         -2   -1    0    0    0  501 -0.00000000000E+00  0.00000000000E+00  0.12513692861E+03  0.12513692861E+03  0.00000000000E+00 0. -1.
          2   -1    0    0  502    0  0.00000000000E+00 -0.00000000000E+00 -0.22898975149E+04  0.22898975149E+04  0.00000000000E+00 0.  1.
    9000007    1    1    2  502    0  0.14297020980E+03  0.28418818495E+03 -0.72324446781E+03  0.88559921272E+03  0.40000000000E+03 0. -1.
   -9000007    1    1    2    0  501 -0.14297020980E+03 -0.28418818495E+03 -0.14415161185E+04  0.15294352308E+04  0.40000000000E+03 0.  1.
<mgrwt>
<rscale>  2 0.51108063E+03</rscale>
<asrwt>0</asrwt>
<pdfrwt beam="1">  1        2 0.35229192E+00 0.51108063E+03</pdfrwt>
<pdfrwt beam="2">  1       -2 0.19251836E-01 0.51108063E+03</pdfrwt>
<totfact> 0.11171072E+02</totfact>
</mgrwt>
</event>
<event>
 4    1  0.2474915E-002  0.4924070E+03  0.7818608E-02  0.1015780E+00
          3   -1    0    0  502    0  0.00000000000E+00  0.00000000000E+00  0.31005138863E+03  0.31005138863E+03  0.00000000000E+00 0.  1.
         -3   -1    0    0    0  501 -0.00000000000E+00 -0.00000000000E+00 -0.99722665893E+03  0.99722665893E+03  0.00000000000E+00 0. -1.
    9000007    1    1    2  502    0 -0.28702508105E+03 -0.90138096934E+01 -0.39936750245E+02  0.49402387588E+03  0.40000000000E+03 0.  1.
   -9000007    1    1    2    0  501  0.28702508105E+03  0.90138096934E+01 -0.64723852006E+03  0.81325417169E+03  0.40000000000E+03 0. -1.
<mgrwt>
<rscale>  2 0.49240699E+03</rscale>
<asrwt>0</asrwt>
<pdfrwt beam="1">  1        3 0.47700214E-01 0.49240699E+03</pdfrwt>
<pdfrwt beam="2">  1       -3 0.15341949E+00 0.49240699E+03</pdfrwt>
<totfact> 0.34882401E+00</totfact>
</mgrwt>
</event>
<event>
 4    1  0.2474915E-002  0.4024616E+03  0.7818608E-02  0.1042931E+00
         -1   -1    0    0    0  501 -0.00000000000E+00  0.00000000000E+00  0.21454707663E+03  0.21454707663E+03  0.00000000000E+00 0. -1.
          1   -1    0    0  502    0  0.00000000000E+00 -0.00000000000E+00 -0.76068055454E+03  0.76068055454E+03  0.00000000000E+00 0.  1.
    9000007    1    1    2  502    0  0.85100317488E+01 -0.43622299101E+02 -0.23079589908E+03  0.46394188499E+03  0.40000000000E+03 0. -1.
   -9000007    1    1    2    0  501 -0.85100317488E+01  0.43622299101E+02 -0.31533757883E+03  0.51128574617E+03  0.40000000000E+03 0.  1.
<mgrwt>
<rscale>  2 0.40246158E+03</rscale>
<asrwt>0</asrwt>
<pdfrwt beam="1">  1        1 0.11702778E+00 0.40246158E+03</pdfrwt>
<pdfrwt beam="2">  1       -1 0.33007243E-01 0.40246158E+03</pdfrwt>
<totfact> 0.21446319E+02</totfact>
</mgrwt>
</event>
<event>
 4    1  0.2474915E-002  0.5648056E+03  0.7818608E-02  0.9981239E-01
         -2   -1    0    0    0  501 -0.00000000000E+00  0.00000000000E+00  0.15687972867E+03  0.15687972867E+03  0.00000000000E+00 0. -1.
          2   -1    0    0  502    0  0.00000000000E+00 -0.00000000000E+00 -0.20648280609E+04  0.20648280609E+04  0.00000000000E+00 0.  1.
    9000007    1    1    2  502    0 -0.32747024908E+03  0.22752716332E+03 -0.10909372332E+04  0.12284744282E+04  0.40000000000E+03 0.  1.
   -9000007    1    1    2    0  501  0.32747024908E+03 -0.22752716332E+03 -0.81701109901E+03  0.99323336129E+03  0.40000000000E+03 0. -1.
<mgrwt>
<rscale>  2 0.56480561E+03</rscale>
<asrwt>0</asrwt>
<pdfrwt beam="1">  1        2 0.31766585E+00 0.56480561E+03</pdfrwt>
<pdfrwt beam="2">  1       -2 0.24135343E-01 0.56480561E+03</pdfrwt>
<totfact> 0.98751604E+01</totfact>
</mgrwt>
</event>
<event>
 4    1  0.2474915E-002  0.5725714E+03  0.7818608E-02  0.9964005E-01
          2   -1    0    0  502    0  0.00000000000E+00  0.00000000000E+00  0.47614580856E+03  0.47614580856E+03  0.00000000000E+00 0. -1.
         -2   -1    0    0    0  501 -0.00000000000E+00 -0.00000000000E+00 -0.71809706741E+03  0.71809706741E+03  0.00000000000E+00 0.  1.
    9000007    1    1    2  502    0  0.97518228945E+02 -0.39790478843E+03  0.20021409566E+00  0.57257145031E+03  0.40000000000E+03 0. -1.
   -9000007    1    1    2    0  501 -0.97518228945E+02  0.39790478843E+03 -0.24215147295E+03  0.62167142566E+03  0.40000000000E+03 0.  1.
<mgrwt>
<rscale>  2 0.57257142E+03</rscale>
<asrwt>0</asrwt>
<pdfrwt beam="1">  1        2 0.73253202E-01 0.57257142E+03</pdfrwt>
<pdfrwt beam="2">  1       -2 0.11047647E+00 0.57257142E+03</pdfrwt>
<totfact> 0.43471615E+01</totfact>
</mgrwt>
</event>
<event>
 4    1  0.2474915E-002  0.5465869E+03  0.7818608E-02  0.1002287E+00
          1   -1    0    0  502    0  0.00000000000E+00  0.00000000000E+00  0.57974604413E+03  0.57974604413E+03  0.00000000000E+00 0. -1.
         -1   -1    0    0    0  501 -0.00000000000E+00 -0.00000000000E+00 -0.66280265041E+03  0.66280265041E+03  0.00000000000E+00 0.  1.
    9000007    1    1    2  502    0 -0.32781295420E+03 -0.17690661173E+03  0.25153085132E+03  0.60168517630E+03  0.40000000000E+03 0.  1.
   -9000007    1    1    2    0  501  0.32781295420E+03  0.17690661173E+03 -0.33458745761E+03  0.64086351823E+03  0.40000000000E+03 0.  1.
<mgrwt>
<rscale>  2 0.54658694E+03</rscale>
<asrwt>0</asrwt>
<pdfrwt beam="1">  1        1 0.89191700E-01 0.54658694E+03</pdfrwt>
<pdfrwt beam="2">  1       -1 0.10196964E+00 0.54658694E+03</pdfrwt>
<totfact> 0.34347921E+01</totfact>
</mgrwt>
</event>
<event>
 4    1  0.2474915E-002  0.4302964E+03  0.7818608E-02  0.1033766E+00
         -1   -1    0    0    0  501 -0.00000000000E+00  0.00000000000E+00  0.81486460504E+02  0.81486460504E+02  0.00000000000E+00 0. -1.
          1   -1    0    0  502    0  0.00000000000E+00 -0.00000000000E+00 -0.23485972989E+04  0.23485972989E+04  0.00000000000E+00 0.  1.
    9000007    1    1    2  502    0  0.13920978287E+03  0.75997743670E+02 -0.13526714546E+04  0.14194629564E+04  0.40000000000E+03 0.  1.
   -9000007    1    1    2    0  501 -0.13920978287E+03 -0.75997743670E+02 -0.91443938379E+03  0.10106208029E+04  0.40000000000E+03 0. -1.
<mgrwt>
<rscale>  2 0.43029643E+03</rscale>
<asrwt>0</asrwt>
<pdfrwt beam="1">  1        1 0.36132263E+00 0.43029643E+03</pdfrwt>
<pdfrwt beam="2">  1       -1 0.12536379E-01 0.43029643E+03</pdfrwt>
<totfact> 0.82458159E+01</totfact>
</mgrwt>
</event>
<event>
 4    1  0.2474915E-002  0.4252709E+03  0.7818608E-02  0.1035364E+00
         -2   -1    0    0    0  501 -0.00000000000E+00  0.00000000000E+00  0.23801166777E+03  0.23801166777E+03  0.00000000000E+00 0.  1.
          2   -1    0    0  502    0  0.00000000000E+00 -0.00000000000E+00 -0.89010398675E+03  0.89010398675E+03  0.00000000000E+00 0. -1.
    9000007    1    1    2  502    0 -0.14093408710E+03  0.31510332076E+02 -0.11027981966E+03  0.43933695105E+03  0.40000000000E+03 0. -1.
   -9000007    1    1    2    0  501  0.14093408710E+03 -0.31510332076E+02 -0.54181249932E+03  0.68877870347E+03  0.40000000000E+03 0.  1.
<mgrwt>
<rscale>  2 0.42527088E+03</rscale>
<asrwt>0</asrwt>
<pdfrwt beam="1">  1        2 0.13693908E+00 0.42527088E+03</pdfrwt>
<pdfrwt beam="2">  1       -2 0.36617179E-01 0.42527088E+03</pdfrwt>
<totfact> 0.21591491E+02</totfact>
</mgrwt>
</event>
<event>
 4    1  0.2474915E-002  0.6012107E+03  0.7818608E-02  0.9902897E-01
          2   -1    0    0  502    0  0.00000000000E+00  0.00000000000E+00  0.67665138272E+03  0.67665138272E+03  0.00000000000E+00 0. -1.
         -2   -1    0    0    0  501 -0.00000000000E+00 -0.00000000000E+00 -0.53678725067E+03  0.53678725067E+03  0.00000000000E+00 0.  1.
    9000007    1    1    2  502    0  0.38805479763E+03 -0.22553891276E+03  0.11220797834E+03  0.61159214967E+03  0.40000000000E+03 0.  1.
   -9000007    1    1    2    0  501 -0.38805479763E+03  0.22553891276E+03  0.27656153713E+02  0.60184648373E+03  0.40000000000E+03 0. -1.
<mgrwt>
<rscale>  2 0.60121072E+03</rscale>
<asrwt>0</asrwt>
<pdfrwt beam="1">  1        2 0.10410021E+00 0.60121072E+03</pdfrwt>
<pdfrwt beam="2">  1       -2 0.82582654E-01 0.60121072E+03</pdfrwt>
<totfact> 0.56383185E+01</totfact>
</mgrwt>
</event>
<event>
 4    1  0.2474915E-002  0.4562201E+03  0.7818608E-02  0.1025883E+00
          1   -1    0    0  502    0  0.00000000000E+00  0.00000000000E+00  0.17589295276E+04  0.17589295276E+04  0.00000000000E+00 0.  1.
         -1   -1    0    0    0  501 -0.00000000000E+00 -0.00000000000E+00 -0.40404168073E+03  0.40404168073E+03  0.00000000000E+00 0. -1.
    9000007    1    1    2  502    0  0.18865680293E+03 -0.11200633537E+03 -0.23198863744E+03  0.51181592038E+03  0.40000000000E+03 0. -1.
   -9000007    1    1    2    0  501 -0.18865680293E+03  0.11200633537E+03  0.15868764843E+04  0.16511552879E+04  0.40000000000E+03 0.  1.
<mgrwt>
<rscale>  2 0.45622013E+03</rscale>
<asrwt>0</asrwt>
<pdfrwt beam="1">  1        1 0.27060454E+00 0.45622013E+03</pdfrwt>
<pdfrwt beam="2">  1       -1 0.62160259E-01 0.45622013E+03</pdfrwt>
<totfact> 0.12566331E+01</totfact>
</mgrwt>
</event>
<event>
 4    1  0.2474915E-002  0.4669788E+03  0.7818608E-02  0.1022776E+00
          1   -1    0    0  502    0  0.00000000000E+00  0.00000000000E+00  0.16014181870E+03  0.16014181870E+03  0.00000000000E+00 0.  1.
         -1   -1    0    0    0  501 -0.00000000000E+00 -0.00000000000E+00 -0.20333405224E+04  0.20333405224E+04  0.00000000000E+00 0. -1.
    9000007    1    1    2  502    0  0.17916865363E+03  0.16114527236E+03 -0.15669167218E+04  0.16350220850E+04  0.40000000000E+03 0. -1.
   -9000007    1    1    2    0  501 -0.17916865363E+03 -0.16114527236E+03 -0.30628198191E+03  0.55846025614E+03  0.40000000000E+03 0.  1.
<mgrwt>
<rscale>  2 0.46697881E+03</rscale>
<asrwt>0</asrwt>
<pdfrwt beam="1">  1        1 0.24637203E-01 0.46697881E+03</pdfrwt>
<pdfrwt beam="2">  1       -1 0.31282162E+00 0.46697881E+03</pdfrwt>
<totfact> 0.59572961E+00</totfact>
</mgrwt>
</event>
<event>
 4    1  0.2474915E-002  0.9322446E+03  0.7818608E-02  0.9386148E-01
         -2   -1    0    0    0  501 -0.00000000000E+00  0.00000000000E+00  0.70743581305E+03  0.70743581305E+03  0.00000000000E+00 0.  1.
          2   -1    0    0  502    0  0.00000000000E+00 -0.00000000000E+00 -0.19422238412E+04  0.19422238412E+04  0.00000000000E+00 0. -1.
    9000007    1    1    2  502    0 -0.84121540733E+03 -0.37903880581E+02 -0.14205088273E+04  0.16990954635E+04  0.40000000000E+03 0. -1.
   -9000007    1    1    2    0  501  0.84121540733E+03  0.37903880581E+02  0.18572079906E+03  0.95056419083E+03  0.40000000000E+03 0.  1.
<mgrwt>
<rscale>  2 0.93224464E+03</rscale>
<asrwt>0</asrwt>
<pdfrwt beam="1">  1        2 0.29880367E+00 0.93224464E+03</pdfrwt>
<pdfrwt beam="2">  1       -2 0.10883628E+00 0.93224464E+03</pdfrwt>
<totfact> 0.48870943E+00</totfact>
</mgrwt>
</event>
<event>
 4    1  0.2474915E-002  0.5449468E+03  0.7818608E-02  0.1002670E+00
          1   -1    0    0  502    0  0.00000000000E+00  0.00000000000E+00  0.17784875458E+04  0.17784875458E+04  0.00000000000E+00 0.  1.
         -1   -1    0    0    0  501 -0.00000000000E+00 -0.00000000000E+00 -0.17172381666E+03  0.17172381666E+03  0.00000000000E+00 0. -1.
    9000007    1    1    2  502    0  0.17481325945E+03 -0.32620130648E+03  0.64126582160E+03  0.84153955461E+03  0.40000000000E+03 0.  1.
   -9000007    1    1    2    0  501 -0.17481325945E+03  0.32620130648E+03  0.96549790750E+03  0.11086718078E+04  0.40000000000E+03 0.  1.
<mgrwt>
<rscale>  2 0.54494676E+03</rscale>
<asrwt>0</asrwt>
<pdfrwt beam="1">  1        1 0.27361346E+00 0.54494676E+03</pdfrwt>
<pdfrwt beam="2">  1       -1 0.26419050E-01 0.54494676E+03</pdfrwt>
<totfact> 0.56766772E+01</totfact>
</mgrwt>
</event>
<event>
 4    1  0.2474915E-002  0.4435227E+03  0.7818608E-02  0.1029671E+00
         -2   -1    0    0    0  501 -0.00000000000E+00  0.00000000000E+00  0.17095976340E+03  0.17095976340E+03  0.00000000000E+00 0. -1.
          2   -1    0    0  502    0  0.00000000000E+00 -0.00000000000E+00 -0.11518827552E+04  0.11518827552E+04  0.00000000000E+00 0.  1.
    9000007    1    1    2  502    0  0.95110135464E+02  0.16633227836E+03 -0.51222656099E+03  0.67756063528E+03  0.40000000000E+03 0. -1.
   -9000007    1    1    2    0  501 -0.95110135464E+02 -0.16633227836E+03 -0.46869643083E+03  0.64528188334E+03  0.40000000000E+03 0. -1.
<mgrwt>
<rscale>  2 0.44352268E+03</rscale>
<asrwt>0</asrwt>
<pdfrwt beam="1">  1        2 0.17721272E+00 0.44352268E+03</pdfrwt>
<pdfrwt beam="2">  1       -2 0.26301503E-01 0.44352268E+03</pdfrwt>
<totfact> 0.27323485E+02</totfact>
</mgrwt>
</event>
<event>
 4    1  0.2474915E-002  0.4382614E+03  0.7818608E-02  0.1031282E+00
          2   -1    0    0  502    0  0.00000000000E+00  0.00000000000E+00  0.18089587870E+04  0.18089587870E+04  0.00000000000E+00 0. -1.
         -2   -1    0    0    0  501 -0.00000000000E+00 -0.00000000000E+00 -0.11926053005E+03  0.11926053005E+03  0.00000000000E+00 0.  1.
    9000007    1    1    2  502    0  0.56991883297E+02  0.16977908153E+03  0.52554007961E+03  0.68429919375E+03  0.40000000000E+03 0.  1.
   -9000007    1    1    2    0  501 -0.56991883297E+02 -0.16977908153E+03  0.11641581773E+04  0.12439201233E+04  0.40000000000E+03 0. -1.
<mgrwt>
<rscale>  2 0.43826135E+03</rscale>
<asrwt>0</asrwt>
<pdfrwt beam="1">  1        2 0.27830133E+00 0.43826135E+03</pdfrwt>
<pdfrwt beam="2">  1       -2 0.18347775E-01 0.43826135E+03</pdfrwt>
<totfact> 0.22302021E+02</totfact>
</mgrwt>
</event>
<event>
 4    1  0.2474915E-002  0.4749866E+03  0.7818608E-02  0.1020522E+00
         -1   -1    0    0    0  501 -0.00000000000E+00  0.00000000000E+00  0.35761364330E+03  0.35761364330E+03  0.00000000000E+00 0. -1.
          1   -1    0    0  502    0  0.00000000000E+00 -0.00000000000E+00 -0.86059367453E+03  0.86059367453E+03  0.00000000000E+00 0.  1.
    9000007    1    1    2  502    0  0.54400113585E+02 -0.25030562980E+03 -0.56618002346E+03  0.73903457269E+03  0.40000000000E+03 0.  1.
   -9000007    1    1    2    0  501 -0.54400113585E+02  0.25030562980E+03  0.63199992226E+02  0.47917274514E+03  0.40000000000E+03 0. -1.
<mgrwt>
<rscale>  2 0.47498661E+03</rscale>
<asrwt>0</asrwt>
<pdfrwt beam="1">  1        1 0.13239903E+00 0.47498661E+03</pdfrwt>
<pdfrwt beam="2">  1       -1 0.55017484E-01 0.47498661E+03</pdfrwt>
<totfact> 0.68945149E+01</totfact>
</mgrwt>
</event>
<event>
 4    1  0.2474915E-002  0.6991521E+03  0.7818608E-02  0.9718683E-01
         -2   -1    0    0    0  501 -0.00000000000E+00  0.00000000000E+00  0.10340062375E+04  0.10340062375E+04  0.00000000000E+00 0.  1.
          2   -1    0    0  502    0  0.00000000000E+00 -0.00000000000E+00 -0.93802734496E+03  0.93802734496E+03  0.00000000000E+00 0. -1.
    9000007    1    1    2  502    0 -0.57309394593E+03  0.19417013758E+02  0.74243511361E+03  0.10198154682E+04  0.40000000000E+03 0.  1.
   -9000007    1    1    2    0  501  0.57309394593E+03 -0.19417013758E+02 -0.64645622108E+03  0.95221811423E+03  0.40000000000E+03 0. -1.
<mgrwt>
<rscale>  2 0.69915212E+03</rscale>
<asrwt>0</asrwt>
<pdfrwt beam="1">  1        2 0.14431190E+00 0.69915212E+03</pdfrwt>
<pdfrwt beam="2">  1       -2 0.15907788E+00 0.69915212E+03</pdfrwt>
<totfact> 0.72532182E+00</totfact>
</mgrwt>
</event>
<event>
 4    1  0.2474915E-002  0.4219207E+03  0.7818608E-02  0.1036443E+00
          1   -1    0    0  502    0  0.00000000000E+00  0.00000000000E+00  0.92903127077E+03  0.92903127077E+03  0.00000000000E+00 0.  1.
         -1   -1    0    0    0  501 -0.00000000000E+00 -0.00000000000E+00 -0.31962147899E+03  0.31962147899E+03  0.00000000000E+00 0. -1.
    9000007    1    1    2  502    0  0.12057988755E+03 -0.58970733355E+02  0.69980609459E+03  0.81715703919E+03  0.40000000000E+03 0.  1.
   -9000007    1    1    2    0  501 -0.12057988755E+03  0.58970733355E+02 -0.90396302817E+02  0.43149571057E+03  0.40000000000E+03 0. -1.
<mgrwt>
<rscale>  2 0.42192068E+03</rscale>
<asrwt>0</asrwt>
<pdfrwt beam="1">  1        1 0.14292789E+00 0.42192068E+03</pdfrwt>
<pdfrwt beam="2">  1       -1 0.49172536E-01 0.42192068E+03</pdfrwt>
<totfact> 0.75692267E+01</totfact>
</mgrwt>
</event>
<event>
 4    1  0.2474915E-002  0.4243918E+03  0.7818608E-02  0.1035646E+00
         -2   -1    0    0    0  501 -0.00000000000E+00  0.00000000000E+00  0.59179604984E+03  0.59179604984E+03  0.00000000000E+00 0. -1.
          2   -1    0    0  502    0  0.00000000000E+00 -0.00000000000E+00 -0.31543975696E+03  0.31543975696E+03  0.00000000000E+00 0.  1.
    9000007    1    1    2  502    0 -0.11719797138E+03 -0.79831436329E+02  0.22326228525E+03  0.47953568245E+03  0.40000000000E+03 0.  1.
   -9000007    1    1    2    0  501  0.11719797138E+03  0.79831436329E+02  0.53094007631E+02  0.42770012435E+03  0.40000000000E+03 0.  1.
<mgrwt>
<rscale>  2 0.42439183E+03</rscale>
<asrwt>0</asrwt>
<pdfrwt beam="1">  1        2 0.48529193E-01 0.42439183E+03</pdfrwt>
<pdfrwt beam="2">  1       -2 0.91045546E-01 0.42439183E+03</pdfrwt>
<totfact> 0.10979988E+02</totfact>
</mgrwt>
</event>
<event>
 4    1  0.2474915E-002  0.4841268E+03  0.7818608E-02  0.1018007E+00
          1   -1    0    0  502    0  0.00000000000E+00  0.00000000000E+00  0.84946013634E+03  0.84946013634E+03  0.00000000000E+00 0. -1.
         -1   -1    0    0    0  501 -0.00000000000E+00 -0.00000000000E+00 -0.27689291065E+03  0.27689291065E+03  0.00000000000E+00 0.  1.
    9000007    1    1    2  502    0  0.79052261993E+02  0.26101632751E+03  0.31975246894E+03  0.58018999022E+03  0.40000000000E+03 0. -1.
   -9000007    1    1    2    0  501 -0.79052261993E+02 -0.26101632751E+03  0.25281475675E+03  0.54616305677E+03  0.40000000000E+03 0. -1.
<mgrwt>
<rscale>  2 0.48412683E+03</rscale>
<asrwt>0</asrwt>
<pdfrwt beam="1">  1        1 0.13068617E+00 0.48412683E+03</pdfrwt>
<pdfrwt beam="2">  1       -1 0.42598910E-01 0.48412683E+03</pdfrwt>
<totfact> 0.11340156E+02</totfact>
</mgrwt>
</event>
<event>
 4    1  0.2474915E-002  0.5487007E+03  0.7818608E-02  0.1001795E+00
         -2   -1    0    0    0  501 -0.00000000000E+00  0.00000000000E+00  0.42895346498E+03  0.42895346498E+03  0.00000000000E+00 0. -1.
          2   -1    0    0  502    0  0.00000000000E+00 -0.00000000000E+00 -0.78949051716E+03  0.78949051716E+03  0.00000000000E+00 0.  1.
    9000007    1    1    2  502    0  0.62523294132E+02 -0.37035559326E+03  0.22681213595E+02  0.54916925006E+03  0.40000000000E+03 0. -1.
   -9000007    1    1    2    0  501 -0.62523294132E+02  0.37035559326E+03 -0.38321826577E+03  0.66927473207E+03  0.40000000000E+03 0.  1.
<mgrwt>
<rscale>  2 0.54870067E+03</rscale>
<asrwt>0</asrwt>
<pdfrwt beam="1">  1        2 0.12146008E+00 0.54870067E+03</pdfrwt>
<pdfrwt beam="2">  1       -2 0.65992842E-01 0.54870067E+03</pdfrwt>
<totfact> 0.76286100E+01</totfact>
</mgrwt>
</event>
<event>
 4    1  0.2474915E-002  0.4790471E+03  0.7818608E-02  0.1019397E+00
         -2   -1    0    0    0  501 -0.00000000000E+00  0.00000000000E+00  0.22277405932E+03  0.22277405932E+03  0.00000000000E+00 0. -1.
          2   -1    0    0  502    0  0.00000000000E+00 -0.00000000000E+00 -0.13460877394E+04  0.13460877394E+04  0.00000000000E+00 0.  1.
    9000007    1    1    2  502    0 -0.26344805194E+03  0.90148935124E+01 -0.94169990110E+03  0.10565438221E+04  0.40000000000E+03 0.  1.
   -9000007    1    1    2    0  501  0.26344805194E+03 -0.90148935124E+01 -0.18161377895E+03  0.51231797653E+03  0.40000000000E+03 0. -1.
<mgrwt>
<rscale>  2 0.47904712E+03</rscale>
<asrwt>0</asrwt>
<pdfrwt beam="1">  1        2 0.20709041E+00 0.47904712E+03</pdfrwt>
<pdfrwt beam="2">  1       -2 0.34272933E-01 0.47904712E+03</pdfrwt>
<totfact> 0.12927010E+02</totfact>
</mgrwt>
</event>
<event>
 4    1  0.2474915E-002  0.1031140E+04  0.7818608E-02  0.9275035E-01
         -1   -1    0    0    0  501 -0.00000000000E+00  0.00000000000E+00  0.54002337054E+03  0.54002337054E+03  0.00000000000E+00 0. -1.
          1   -1    0    0  502    0  0.00000000000E+00 -0.00000000000E+00 -0.21200825318E+04  0.21200825318E+04  0.00000000000E+00 0.  1.
    9000007    1    1    2  502    0 -0.75408411502E+03 -0.57845227486E+03 -0.11452099975E+04  0.15410242780E+04  0.40000000000E+03 0.  1.
   -9000007    1    1    2    0  501  0.75408411502E+03  0.57845227486E+03 -0.43484916372E+03  0.11190816244E+04  0.40000000000E+03 0. -1.
<mgrwt>
<rscale>  2 0.10311401E+04</rscale>
<asrwt>0</asrwt>
<pdfrwt beam="1">  1        1 0.32616653E+00 0.10311401E+04</pdfrwt>
<pdfrwt beam="2">  1       -1 0.83080521E-01 0.10311401E+04</pdfrwt>
<totfact> 0.35834451E+00</totfact>
</mgrwt>
</event>
<event>
 4    1  0.2474915E-002  0.4017320E+03  0.7818608E-02  0.1043182E+00
         -2   -1    0    0    0  501 -0.00000000000E+00  0.00000000000E+00  0.19262561601E+03  0.19262561601E+03  0.00000000000E+00 0. -1.
          2   -1    0    0  502    0  0.00000000000E+00 -0.00000000000E+00 -0.11337060564E+04  0.11337060564E+04  0.00000000000E+00 0.  1.
    9000007    1    1    2  502    0 -0.36593002519E+02  0.70367258893E+01 -0.80932418526E+03  0.90354535038E+03  0.40000000000E+03 0.  1.
   -9000007    1    1    2    0  501  0.36593002519E+02 -0.70367258893E+01 -0.13175625516E+03  0.42278632206E+03  0.40000000000E+03 0. -1.
<mgrwt>
<rscale>  2 0.40173195E+03</rscale>
<asrwt>0</asrwt>
<pdfrwt beam="1">  1        2 0.17441632E+00 0.40173195E+03</pdfrwt>
<pdfrwt beam="2">  1       -2 0.29634709E-01 0.40173195E+03</pdfrwt>
<totfact> 0.22643896E+02</totfact>
</mgrwt>
</event>
<event>
 4    1  0.2474915E-002  0.4371630E+03  0.7818608E-02  0.1031621E+00
          2   -1    0    0  502    0  0.00000000000E+00  0.00000000000E+00  0.18595156725E+04  0.18595156725E+04  0.00000000000E+00 0.  1.
         -2   -1    0    0    0  501 -0.00000000000E+00 -0.00000000000E+00 -0.10354263030E+03  0.10354263030E+03  0.00000000000E+00 0. -1.
    9000007    1    1    2  502    0 -0.11973911865E+03  0.12951476005E+03  0.96250450265E+03  0.10571312346E+04  0.40000000000E+03 0. -1.
   -9000007    1    1    2    0  501  0.11973911865E+03 -0.12951476005E+03  0.79346853957E+03  0.90592706820E+03  0.40000000000E+03 0. -1.
<mgrwt>
<rscale>  2 0.43716305E+03</rscale>
<asrwt>0</asrwt>
<pdfrwt beam="1">  1        2 0.28607931E+00 0.43716305E+03</pdfrwt>
<pdfrwt beam="2">  1       -2 0.15929637E-01 0.43716305E+03</pdfrwt>
<totfact> 0.26649619E+02</totfact>
</mgrwt>
</event>
<event>
 4    1  0.2474915E-002  0.4519939E+03  0.7818608E-02  0.1027129E+00
         -1   -1    0    0    0  501 -0.00000000000E+00  0.00000000000E+00  0.38956977982E+03  0.38956977982E+03  0.00000000000E+00 0. -1.
          1   -1    0    0  502    0  0.00000000000E+00 -0.00000000000E+00 -0.60556716614E+03  0.60556716614E+03  0.00000000000E+00 0.  1.
    9000007    1    1    2  502    0 -0.17998206652E+03  0.10910982018E+03 -0.29013906649E+03  0.53710257403E+03  0.40000000000E+03 0.  1.
   -9000007    1    1    2    0  501  0.17998206652E+03 -0.10910982018E+03  0.74141680171E+02  0.45803437193E+03  0.40000000000E+03 0. -1.
<mgrwt>
<rscale>  2 0.45199391E+03</rscale>
<asrwt>0</asrwt>
<pdfrwt beam="1">  1        1 0.93164179E-01 0.45199391E+03</pdfrwt>
<pdfrwt beam="2">  1       -1 0.59933812E-01 0.45199391E+03</pdfrwt>
<totfact> 0.99749327E+01</totfact>
</mgrwt>
</event>
<event>
 4    1  0.2474915E-002  0.4050627E+03  0.7818608E-02  0.1042041E+00
          2   -1    0    0  502    0  0.00000000000E+00  0.00000000000E+00  0.10723196183E+04  0.10723196183E+04  0.00000000000E+00 0. -1.
         -2   -1    0    0    0  501 -0.00000000000E+00 -0.00000000000E+00 -0.15725744011E+03  0.15725744011E+03  0.00000000000E+00 0.  1.
    9000007    1    1    2  502    0 -0.38077221950E+02 -0.51243496072E+02  0.55856724850E+03  0.68998053728E+03  0.40000000000E+03 0. -1.
   -9000007    1    1    2    0  501  0.38077221950E+02  0.51243496072E+02  0.35649492969E+03  0.53959652113E+03  0.40000000000E+03 0.  1.
<mgrwt>
<rscale>  2 0.40506268E+03</rscale>
<asrwt>0</asrwt>
<pdfrwt beam="1">  1        2 0.16497224E+00 0.40506268E+03</pdfrwt>
<pdfrwt beam="2">  1       -2 0.24193453E-01 0.40506268E+03</pdfrwt>
<totfact> 0.35518580E+02</totfact>
</mgrwt>
</event>
<event>
 4    1  0.2474915E-002  0.5228789E+03  0.7818608E-02  0.1007974E+00
          3   -1    0    0  502    0  0.00000000000E+00  0.00000000000E+00  0.84369056344E+03  0.84369056344E+03  0.00000000000E+00 0.  1.
         -3   -1    0    0    0  501 -0.00000000000E+00 -0.00000000000E+00 -0.34801043193E+03  0.34801043193E+03  0.00000000000E+00 0. -1.
    9000007    1    1    2  502    0  0.33218355222E+03 -0.55285125558E+02  0.91510579390E+02  0.53082628384E+03  0.40000000000E+03 0.  1.
   -9000007    1    1    2    0  501 -0.33218355222E+03  0.55285125558E+02  0.40416955212E+03  0.66087471153E+03  0.40000000000E+03 0. -1.
<mgrwt>
<rscale>  2 0.52287891E+03</rscale>
<asrwt>0</asrwt>
<pdfrwt beam="1">  1        3 0.12979855E+00 0.52287891E+03</pdfrwt>
<pdfrwt beam="2">  1       -3 0.53540067E-01 0.52287891E+03</pdfrwt>
<totfact> 0.42138379E+00</totfact>
</mgrwt>
</event>
<event>
 4    1  0.2474915E-002  0.5768324E+03  0.7818608E-02  0.9954672E-01
         -1   -1    0    0    0  501 -0.00000000000E+00  0.00000000000E+00  0.17438794078E+03  0.17438794078E+03  0.00000000000E+00 0. -1.
          1   -1    0    0  502    0  0.00000000000E+00 -0.00000000000E+00 -0.19164070253E+04  0.19164070253E+04  0.00000000000E+00 0.  1.
    9000007    1    1    2  502    0 -0.39933494125E+03 -0.11518366064E+03 -0.94016758693E+03  0.11030189312E+04  0.40000000000E+03 0. -1.
   -9000007    1    1    2    0  501  0.39933494125E+03  0.11518366064E+03 -0.80185149759E+03  0.98777603492E+03  0.40000000000E+03 0.  1.
<mgrwt>
<rscale>  2 0.57683245E+03</rscale>
<asrwt>0</asrwt>
<pdfrwt beam="1">  1        1 0.29483184E+00 0.57683245E+03</pdfrwt>
<pdfrwt beam="2">  1       -1 0.26828915E-01 0.57683245E+03</pdfrwt>
<totfact> 0.44557556E+01</totfact>
</mgrwt>
</event>
<event>
 4    1  0.2474915E-002  0.6194741E+03  0.7818608E-02  0.9865807E-01
         -1   -1    0    0    0  501 -0.00000000000E+00  0.00000000000E+00  0.32164884750E+03  0.32164884750E+03  0.00000000000E+00 0.  1.
          1   -1    0    0  502    0  0.00000000000E+00 -0.00000000000E+00 -0.11994589460E+04  0.11994589460E+04  0.00000000000E+00 0. -1.
    9000007    1    1    2  502    0 -0.31997479262E+02  0.47193679231E+03 -0.49443169903E+03  0.79259755212E+03  0.40000000000E+03 0.  1.
   -9000007    1    1    2    0  501  0.31997479262E+02 -0.47193679231E+03 -0.38337839944E+03  0.72851024136E+03  0.40000000000E+03 0.  1.
<mgrwt>
<rscale>  2 0.61947411E+03</rscale>
<asrwt>0</asrwt>
<pdfrwt beam="1">  1        1 0.18453215E+00 0.61947411E+03</pdfrwt>
<pdfrwt beam="2">  1       -1 0.49484437E-01 0.61947411E+03</pdfrwt>
<totfact> 0.45621392E+01</totfact>
</mgrwt>
</event>
<event>
 4    1  0.2474915E-002  0.4473248E+03  0.7818608E-02  0.1028523E+00
         -2   -1    0    0    0  501 -0.00000000000E+00  0.00000000000E+00  0.40939515411E+03  0.40939515411E+03  0.00000000000E+00 0. -1.
          2   -1    0    0  502    0  0.00000000000E+00 -0.00000000000E+00 -0.55986509839E+03  0.55986509839E+03  0.00000000000E+00 0.  1.
    9000007    1    1    2  502    0 -0.19954340606E+03  0.16789514347E+02 -0.24793527413E+03  0.51144047440E+03  0.40000000000E+03 0.  1.
   -9000007    1    1    2    0  501  0.19954340606E+03 -0.16789514347E+02  0.97465329850E+02  0.45781977810E+03  0.40000000000E+03 0. -1.
<mgrwt>
<rscale>  2 0.44732478E+03</rscale>
<asrwt>0</asrwt>
<pdfrwt beam="1">  1        2 0.86133092E-01 0.44732478E+03</pdfrwt>
<pdfrwt beam="2">  1       -2 0.62983870E-01 0.44732478E+03</pdfrwt>
<totfact> 0.12975418E+02</totfact>
</mgrwt>
</event>
<event>
 4    1  0.2474915E-002  0.4028678E+03  0.7818608E-02  0.1042791E+00
          2   -1    0    0  502    0  0.00000000000E+00  0.00000000000E+00  0.11390667326E+04  0.11390667326E+04  0.00000000000E+00 0. -1.
         -2   -1    0    0    0  501 -0.00000000000E+00 -0.00000000000E+00 -0.14440414450E+03  0.14440414450E+03  0.00000000000E+00 0.  1.
    9000007    1    1    2  502    0 -0.24673489807E+02 -0.41154532000E+02  0.42339353851E+03  0.58443525309E+03  0.40000000000E+03 0.  1.
   -9000007    1    1    2    0  501  0.24673489807E+02  0.41154532000E+02  0.57126904959E+03  0.69903562400E+03  0.40000000000E+03 0. -1.
<mgrwt>
<rscale>  2 0.40286782E+03</rscale>
<asrwt>0</asrwt>
<pdfrwt beam="1">  1        2 0.17524103E+00 0.40286782E+03</pdfrwt>
<pdfrwt beam="2">  1       -2 0.22216023E-01 0.40286782E+03</pdfrwt>
<totfact> 0.37675010E+02</totfact>
</mgrwt>
</event>
<event>
 4    1  0.2474915E-002  0.6180066E+03  0.7818608E-02  0.9868737E-01
          2   -1    0    0  502    0  0.00000000000E+00  0.00000000000E+00  0.14570843069E+04  0.14570843069E+04  0.00000000000E+00 0. -1.
         -2   -1    0    0    0  501 -0.00000000000E+00 -0.00000000000E+00 -0.33587617032E+03  0.33587617032E+03  0.00000000000E+00 0.  1.
    9000007    1    1    2  502    0 -0.29859128820E+03 -0.36438365787E+03  0.14050884870E+03  0.63377830830E+03  0.40000000000E+03 0.  1.
   -9000007    1    1    2    0  501  0.29859128820E+03  0.36438365787E+03  0.98069928789E+03  0.11591821689E+04  0.40000000000E+03 0. -1.
<mgrwt>
<rscale>  2 0.61800664E+03</rscale>
<asrwt>0</asrwt>
<pdfrwt beam="1">  1        2 0.22416681E+00 0.61800664E+03</pdfrwt>
<pdfrwt beam="2">  1       -2 0.51673258E-01 0.61800664E+03</pdfrwt>
<totfact> 0.49232877E+01</totfact>
</mgrwt>
</event>
<event>
 4    1  0.2474915E-002  0.6392138E+03  0.7818608E-02  0.9827232E-01
         -1   -1    0    0    0  501 -0.00000000000E+00  0.00000000000E+00  0.75923067914E+03  0.75923067914E+03  0.00000000000E+00 0.  1.
          1   -1    0    0  502    0  0.00000000000E+00 -0.00000000000E+00 -0.76585625493E+03  0.76585625493E+03  0.00000000000E+00 0. -1.
    9000007    1    1    2  502    0  0.37414908392E+03 -0.32955543625E+03 -0.41908977704E+03  0.76434976534E+03  0.40000000000E+03 0. -1.
   -9000007    1    1    2    0  501 -0.37414908392E+03  0.32955543625E+03  0.41246420125E+03  0.76073716872E+03  0.40000000000E+03 0.  1.
<mgrwt>
<rscale>  2 0.63921383E+03</rscale>
<asrwt>0</asrwt>
<pdfrwt beam="1">  1        1 0.11782404E+00 0.63921383E+03</pdfrwt>
<pdfrwt beam="2">  1       -1 0.11680472E+00 0.63921383E+03</pdfrwt>
<totfact> 0.16348203E+01</totfact>
</mgrwt>
</event>
<event>
 4    1  0.2474915E-002  0.4226608E+03  0.7818608E-02  0.1036204E+00
          2   -1    0    0  502    0  0.00000000000E+00  0.00000000000E+00  0.23798071981E+04  0.23798071981E+04  0.00000000000E+00 0. -1.
         -2   -1    0    0    0  501 -0.00000000000E+00 -0.00000000000E+00 -0.82804000651E+02  0.82804000651E+02  0.00000000000E+00 0.  1.
    9000007    1    1    2  502    0  0.79334424981E+02 -0.11112235966E+03  0.15249107764E+04  0.15824016575E+04  0.40000000000E+03 0. -1.
   -9000007    1    1    2    0  501 -0.79334424981E+02  0.11112235966E+03  0.77209242107E+03  0.88020954123E+03  0.40000000000E+03 0.  1.
<mgrwt>
<rscale>  2 0.42266077E+03</rscale>
<asrwt>0</asrwt>
<pdfrwt beam="1">  1        2 0.36612413E+00 0.42266077E+03</pdfrwt>
<pdfrwt beam="2">  1       -2 0.12739079E-01 0.42266077E+03</pdfrwt>
<totfact> 0.20304908E+02</totfact>
</mgrwt>
</event>
<event>
 4    1  0.2474915E-002  0.4084234E+03  0.7818608E-02  0.1040901E+00
          1   -1    0    0  502    0  0.00000000000E+00  0.00000000000E+00  0.44946850092E+03  0.44946850092E+03  0.00000000000E+00 0. -1.
         -1   -1    0    0    0  501 -0.00000000000E+00 -0.00000000000E+00 -0.39867427133E+03  0.39867427133E+03  0.00000000000E+00 0.  1.
    9000007    1    1    2  502    0 -0.77387634389E+02  0.28650634490E+02 -0.86076611160E+02  0.41739536150E+03  0.40000000000E+03 0.  1.
   -9000007    1    1    2    0  501  0.77387634389E+02 -0.28650634490E+02  0.13687084075E+03  0.43074741074E+03  0.40000000000E+03 0. -1.
<mgrwt>
<rscale>  2 0.40842344E+03</rscale>
<asrwt>0</asrwt>
<pdfrwt beam="1">  1        1 0.69149000E-01 0.40842344E+03</pdfrwt>
<pdfrwt beam="2">  1       -1 0.61334503E-01 0.40842344E+03</pdfrwt>
<totfact> 0.14405262E+02</totfact>
</mgrwt>
</event>
<event>
 4    1  0.2474915E-002  0.4179595E+03  0.7818608E-02  0.1037732E+00
          2   -1    0    0  502    0  0.00000000000E+00  0.00000000000E+00  0.10489319610E+04  0.10489319610E+04  0.00000000000E+00 0.  1.
         -2   -1    0    0    0  501 -0.00000000000E+00 -0.00000000000E+00 -0.16730685578E+03  0.16730685578E+03  0.00000000000E+00 0. -1.
    9000007    1    1    2  502    0  0.61411553289E+02  0.10449296053E+03  0.48195696955E+03  0.63794410270E+03  0.40000000000E+03 0.  1.
   -9000007    1    1    2    0  501 -0.61411553289E+02 -0.10449296053E+03  0.39966813570E+03  0.57829471411E+03  0.40000000000E+03 0. -1.
<mgrwt>
<rscale>  2 0.41795952E+03</rscale>
<asrwt>0</asrwt>
<pdfrwt beam="1">  1        2 0.16137414E+00 0.41795952E+03</pdfrwt>
<pdfrwt beam="2">  1       -2 0.25739517E-01 0.41795952E+03</pdfrwt>
<totfact> 0.32823227E+02</totfact>
</mgrwt>
</event>
<event>
 4    1  0.2474915E-002  0.6349502E+03  0.7818608E-02  0.9835436E-01
          1   -1    0    0  502    0  0.00000000000E+00  0.00000000000E+00  0.10885474732E+04  0.10885474732E+04  0.00000000000E+00 0. -1.
         -1   -1    0    0    0  501 -0.00000000000E+00 -0.00000000000E+00 -0.52289597551E+03  0.52289597551E+03  0.00000000000E+00 0.  1.
    9000007    1    1    2  502    0  0.14616247509E+03  0.47095461443E+03 -0.15233934368E+03  0.65296936651E+03  0.40000000000E+03 0.  1.
   -9000007    1    1    2    0  501 -0.14616247509E+03 -0.47095461443E+03  0.71799084140E+03  0.95847408224E+03  0.40000000000E+03 0. -1.
<mgrwt>
<rscale>  2 0.63495017E+03</rscale>
<asrwt>0</asrwt>
<pdfrwt beam="1">  1        1 0.16746884E+00 0.63495017E+03</pdfrwt>
<pdfrwt beam="2">  1       -1 0.80445535E-01 0.63495017E+03</pdfrwt>
<totfact> 0.20850164E+01</totfact>
</mgrwt>
</event>
<event>
 4    1  0.2474915E-002  0.4355630E+03  0.7818608E-02  0.1032117E+00
         -4   -1    0    0    0  501 -0.00000000000E+00  0.00000000000E+00  0.58759198548E+03  0.58759198548E+03  0.00000000000E+00 0. -1.
          4   -1    0    0  502    0  0.00000000000E+00 -0.00000000000E+00 -0.33297103772E+03  0.33297103772E+03  0.00000000000E+00 0.  1.
    9000007    1    1    2  502    0  0.16419581692E+03  0.52486953067E+02  0.47137481370E+02  0.43810625274E+03  0.40000000000E+03 0.  1.
   -9000007    1    1    2    0  501 -0.16419581692E+03 -0.52486953067E+02  0.20748346639E+03  0.48245677046E+03  0.40000000000E+03 0. -1.
<mgrwt>
<rscale>  2 0.43556302E+03</rscale>
<asrwt>0</asrwt>
<pdfrwt beam="1">  1        4 0.51226314E-01 0.43556302E+03</pdfrwt>
<pdfrwt beam="2">  1       -4 0.90398767E-01 0.43556302E+03</pdfrwt>
<totfact> 0.74279686E+00</totfact>
</mgrwt>
</event>
<event>
 4    1  0.2474915E-002  0.5116997E+03  0.7818608E-02  0.1010769E+00
          1   -1    0    0  502    0  0.00000000000E+00  0.00000000000E+00  0.13257529267E+04  0.13257529267E+04  0.00000000000E+00 0. -1.
         -1   -1    0    0    0  501 -0.00000000000E+00 -0.00000000000E+00 -0.40130182171E+03  0.40130182171E+03  0.00000000000E+00 0.  1.
    9000007    1    1    2  502    0  0.20250933354E+03 -0.24663043565E+03  0.10776067946E+04  0.11929262365E+04  0.40000000000E+03 0. -1.
   -9000007    1    1    2    0  501 -0.20250933354E+03  0.24663043565E+03 -0.15315568963E+03  0.53412851190E+03  0.40000000000E+03 0.  1.
<mgrwt>
<rscale>  2 0.51169972E+03</rscale>
<asrwt>0</asrwt>
<pdfrwt beam="1">  1        1 0.20396199E+00 0.51169972E+03</pdfrwt>
<pdfrwt beam="2">  1       -1 0.61738742E-01 0.51169972E+03</pdfrwt>
<totfact> 0.24668067E+01</totfact>
</mgrwt>
</event>
<event>
 4    1  0.2474915E-002  0.4148435E+03  0.7818608E-02  0.1038758E+00
         -2   -1    0    0    0  501 -0.00000000000E+00  0.00000000000E+00  0.23786734222E+03  0.23786734222E+03  0.00000000000E+00 0. -1.
          2   -1    0    0  502    0  0.00000000000E+00 -0.00000000000E+00 -0.10068693196E+04  0.10068693196E+04  0.00000000000E+00 0.  1.
    9000007    1    1    2  502    0  0.10950682409E+03 -0.10168985709E+02 -0.54326611422E+02  0.41838562774E+03  0.40000000000E+03 0. -1.
   -9000007    1    1    2    0  501 -0.10950682409E+03  0.10168985709E+02 -0.71467536592E+03  0.82635103403E+03  0.40000000000E+03 0.  1.
<mgrwt>
<rscale>  2 0.41484353E+03</rscale>
<asrwt>0</asrwt>
<pdfrwt beam="1">  1        2 0.15490297E+00 0.41484353E+03</pdfrwt>
<pdfrwt beam="2">  1       -2 0.36594975E-01 0.41484353E+03</pdfrwt>
<totfact> 0.18207115E+02</totfact>
</mgrwt>
</event>
<event>
 4    1  0.2474915E-002  0.4082442E+03  0.7818608E-02  0.1040962E+00
          2   -1    0    0  502    0  0.00000000000E+00  0.00000000000E+00  0.23707717436E+04  0.23707717436E+04  0.00000000000E+00 0. -1.
         -2   -1    0    0    0  501 -0.00000000000E+00 -0.00000000000E+00 -0.15684541114E+03  0.15684541114E+03  0.00000000000E+00 0.  1.
    9000007    1    1    2  502    0 -0.80985251105E+02 -0.10231788363E+02  0.16817095044E+03  0.44152550205E+03  0.40000000000E+03 0.  1.
   -9000007    1    1    2    0  501  0.80985251105E+02  0.10231788363E+02  0.20457553820E+04  0.20860916527E+04  0.40000000000E+03 0. -1.
<mgrwt>
<rscale>  2 0.40824417E+03</rscale>
<asrwt>0</asrwt>
<pdfrwt beam="1">  1        2 0.36473409E+00 0.40824417E+03</pdfrwt>
<pdfrwt beam="2">  1       -2 0.24130065E-01 0.40824417E+03</pdfrwt>
<totfact> 0.69267764E+01</totfact>
</mgrwt>
</event>
<event>
 4    1  0.2474915E-002  0.5175415E+03  0.7818608E-02  0.1009299E+00
         -2   -1    0    0    0  501 -0.00000000000E+00  0.00000000000E+00  0.61930017360E+03  0.61930017360E+03  0.00000000000E+00 0. -1.
          2   -1    0    0  502    0  0.00000000000E+00 -0.00000000000E+00 -0.54056832830E+03  0.54056832830E+03  0.00000000000E+00 0.  1.
    9000007    1    1    2  502    0 -0.13237835850E+03  0.30054154429E+03  0.29866229017E+03  0.59753528198E+03  0.40000000000E+03 0. -1.
   -9000007    1    1    2    0  501  0.13237835850E+03 -0.30054154429E+03 -0.21993044487E+03  0.56233321992E+03  0.40000000000E+03 0.  1.
<mgrwt>
<rscale>  2 0.51754154E+03</rscale>
<asrwt>0</asrwt>
<pdfrwt beam="1">  1        2 0.83164358E-01 0.51754154E+03</pdfrwt>
<pdfrwt beam="2">  1       -2 0.95276950E-01 0.51754154E+03</pdfrwt>
<totfact> 0.53623710E+01</totfact>
</mgrwt>
</event>
<event>
 4    1  0.2474915E-002  0.4039602E+03  0.7818608E-02  0.1042417E+00
         -2   -1    0    0    0  501 -0.00000000000E+00  0.00000000000E+00  0.12173923993E+03  0.12173923993E+03  0.00000000000E+00 0.  1.
          2   -1    0    0  502    0  0.00000000000E+00 -0.00000000000E+00 -0.13419903975E+04  0.13419903975E+04  0.00000000000E+00 0. -1.
    9000007    1    1    2  502    0 -0.56358503514E+02  0.27534305480E+01 -0.58523100277E+03  0.71111123525E+03  0.40000000000E+03 0.  1.
   -9000007    1    1    2    0  501  0.56358503514E+02 -0.27534305480E+01 -0.63502015478E+03  0.75261840217E+03  0.40000000000E+03 0.  1.
<mgrwt>
<rscale>  2 0.40396022E+03</rscale>
<asrwt>0</asrwt>
<pdfrwt beam="1">  1        2 0.20646005E+00 0.40396022E+03</pdfrwt>
<pdfrwt beam="2">  1       -2 0.18729115E-01 0.40396022E+03</pdfrwt>
<totfact> 0.38762453E+02</totfact>
</mgrwt>
</event>
<event>
 4    1  0.2474915E-002  0.8468536E+03  0.7818608E-02  0.9494570E-01
         -1   -1    0    0    0  501 -0.00000000000E+00  0.00000000000E+00  0.55318629445E+03  0.55318629445E+03  0.00000000000E+00 0.  1.
          1   -1    0    0  502    0  0.00000000000E+00 -0.00000000000E+00 -0.16591891367E+04  0.16591891367E+04  0.00000000000E+00 0. -1.
    9000007    1    1    2  502    0  0.35613919556E+03 -0.65599229224E+03 -0.10702471026E+04  0.13647673336E+04  0.40000000000E+03 0.  1.
   -9000007    1    1    2    0  501 -0.35613919556E+03  0.65599229224E+03 -0.35755739563E+02  0.84760809753E+03  0.40000000000E+03 0.  1.
<mgrwt>
<rscale>  2 0.84685360E+03</rscale>
<asrwt>0</asrwt>
<pdfrwt beam="1">  1        1 0.25525986E+00 0.84685360E+03</pdfrwt>
<pdfrwt beam="2">  1       -1 0.85105585E-01 0.84685360E+03</pdfrwt>
<totfact> 0.71291014E+00</totfact>
</mgrwt>
</event>
<event>
 4    1  0.2474915E-002  0.4127369E+03  0.7818608E-02  0.1039456E+00
         -1   -1    0    0    0  501 -0.00000000000E+00  0.00000000000E+00  0.27993098257E+03  0.27993098257E+03  0.00000000000E+00 0. -1.
          1   -1    0    0  502    0  0.00000000000E+00 -0.00000000000E+00 -0.71054277502E+03  0.71054277502E+03  0.00000000000E+00 0.  1.
    9000007    1    1    2  502    0 -0.23123204617E+02  0.99081027858E+02 -0.27674894589E+02  0.41366367071E+03  0.40000000000E+03 0.  1.
   -9000007    1    1    2    0  501  0.23123204617E+02 -0.99081027858E+02 -0.40293689786E+03  0.57681008689E+03  0.40000000000E+03 0.  1.
<mgrwt>
<rscale>  2 0.41273688E+03</rscale>
<asrwt>0</asrwt>
<pdfrwt beam="1">  1        1 0.10931427E+00 0.41273688E+03</pdfrwt>
<pdfrwt beam="2">  1       -1 0.43066305E-01 0.41273688E+03</pdfrwt>
<totfact> 0.14787821E+02</totfact>
</mgrwt>
</event>
<event>
 4    1  0.2474915E-002  0.5839226E+03  0.7818608E-02  0.9939335E-01
         -2   -1    0    0    0  501 -0.00000000000E+00  0.00000000000E+00  0.40554475115E+03  0.40554475115E+03  0.00000000000E+00 0. -1.
          2   -1    0    0  502    0  0.00000000000E+00 -0.00000000000E+00 -0.27280821162E+04  0.27280821162E+04  0.00000000000E+00 0.  1.
    9000007    1    1    2  502    0 -0.17854616221E+03  0.38611765841E+03  0.14193304228E+03  0.60092475957E+03  0.40000000000E+03 0. -1.
   -9000007    1    1    2    0  501  0.17854616221E+03 -0.38611765841E+03 -0.24644704073E+04  0.25327021078E+04  0.40000000000E+03 0.  1.
<mgrwt>
<rscale>  2 0.58392258E+03</rscale>
<asrwt>0</asrwt>
<pdfrwt beam="1">  1        2 0.41970493E+00 0.58392258E+03</pdfrwt>
<pdfrwt beam="2">  1       -2 0.62391501E-01 0.58392258E+03</pdfrwt>
<totfact> 0.66574560E+00</totfact>
</mgrwt>
</event>
<event>
 4    1  0.2474915E-002  0.5196133E+03  0.7818608E-02  0.1008783E+00
          1   -1    0    0  502    0  0.00000000000E+00  0.00000000000E+00  0.15921637207E+04  0.15921637207E+04  0.00000000000E+00 0. -1.
         -1   -1    0    0    0  501 -0.00000000000E+00 -0.00000000000E+00 -0.25517558282E+03  0.25517558282E+03  0.00000000000E+00 0.  1.
    9000007    1    1    2  502    0 -0.20995327813E+03  0.25674430884E+03  0.12034580643E+04  0.13108429851E+04  0.40000000000E+03 0. -1.
   -9000007    1    1    2    0  501  0.20995327813E+03 -0.25674430884E+03  0.13353007361E+03  0.53649631842E+03  0.40000000000E+03 0.  1.
<mgrwt>
<rscale>  2 0.51961334E+03</rscale>
<asrwt>0</asrwt>
<pdfrwt beam="1">  1        1 0.24494826E+00 0.51961334E+03</pdfrwt>
<pdfrwt beam="2">  1       -1 0.39257783E-01 0.51961334E+03</pdfrwt>
<totfact> 0.37952419E+01</totfact>
</mgrwt>
</event>
<event>
 4    1  0.2474915E-002  0.4128973E+03  0.7818608E-02  0.1039403E+00
         -2   -1    0    0    0  501 -0.00000000000E+00  0.00000000000E+00  0.24442284300E+03  0.24442284300E+03  0.00000000000E+00 0.  1.
          2   -1    0    0  502    0  0.00000000000E+00 -0.00000000000E+00 -0.75639838041E+03  0.75639838041E+03  0.00000000000E+00 0. -1.
    9000007    1    1    2  502    0 -0.71189673388E+02  0.73594985723E+02 -0.39562913065E+03  0.57184490952E+03  0.40000000000E+03 0. -1.
   -9000007    1    1    2    0  501  0.71189673388E+02 -0.73594985723E+02 -0.11634640676E+03  0.42897631390E+03  0.40000000000E+03 0. -1.
<mgrwt>
<rscale>  2 0.41289731E+03</rscale>
<asrwt>0</asrwt>
<pdfrwt beam="1">  1        2 0.11636898E+00 0.41289731E+03</pdfrwt>
<pdfrwt beam="2">  1       -2 0.37603515E-01 0.41289731E+03</pdfrwt>
<totfact> 0.25445487E+02</totfact>
</mgrwt>
</event>
<event>
 4    1  0.2474915E-002  0.4300886E+03  0.7818608E-02  0.1033832E+00
         -2   -1    0    0    0  501 -0.00000000000E+00  0.00000000000E+00  0.69421767625E+02  0.69421767625E+02  0.00000000000E+00 0.  1.
          2   -1    0    0  502    0  0.00000000000E+00 -0.00000000000E+00 -0.26673779363E+04  0.26673779363E+04  0.00000000000E+00 0. -1.
    9000007    1    1    2  502    0 -0.11420184734E+03 -0.10924344849E+03 -0.13437127224E+04  0.14108650089E+04  0.40000000000E+03 0.  1.
   -9000007    1    1    2    0  501  0.11420184734E+03  0.10924344849E+03 -0.12542434463E+04  0.13259346950E+04  0.40000000000E+03 0.  1.
<mgrwt>
<rscale>  2 0.43008859E+03</rscale>
<asrwt>0</asrwt>
<pdfrwt beam="1">  1        2 0.41036578E+00 0.43008859E+03</pdfrwt>
<pdfrwt beam="2">  1       -2 0.10680274E-01 0.43008859E+03</pdfrwt>
<totfact> 0.18678528E+02</totfact>
</mgrwt>
</event>
<event>
 4    1  0.2474915E-002  0.4823265E+03  0.7818608E-02  0.1018498E+00
         -1   -1    0    0    0  501 -0.00000000000E+00  0.00000000000E+00  0.43737934109E+03  0.43737934109E+03  0.00000000000E+00 0.  1.
          1   -1    0    0  502    0  0.00000000000E+00 -0.00000000000E+00 -0.59440672641E+03  0.59440672641E+03  0.00000000000E+00 0. -1.
    9000007    1    1    2  502    0 -0.23627882198E+03 -0.12965772921E+03  0.88790605834E+02  0.49043101467E+03  0.40000000000E+03 0.  1.
   -9000007    1    1    2    0  501  0.23627882198E+03  0.12965772921E+03 -0.24581799115E+03  0.54135505284E+03  0.40000000000E+03 0. -1.
<mgrwt>
<rscale>  2 0.48232645E+03</rscale>
<asrwt>0</asrwt>
<pdfrwt beam="1">  1        1 0.91447189E-01 0.48232645E+03</pdfrwt>
<pdfrwt beam="2">  1       -1 0.67289129E-01 0.48232645E+03</pdfrwt>
<totfact> 0.81157665E+01</totfact>
</mgrwt>
</event>
<event>
 4    1  0.2474915E-002  0.5091775E+03  0.7818608E-02  0.1011411E+00
         -2   -1    0    0    0  501 -0.00000000000E+00  0.00000000000E+00  0.22849408304E+04  0.22849408304E+04  0.00000000000E+00 0. -1.
          2   -1    0    0  502    0  0.00000000000E+00 -0.00000000000E+00 -0.19101864836E+03  0.19101864836E+03  0.00000000000E+00 0.  1.
    9000007    1    1    2  502    0 -0.31504995897E+03 -0.23013781218E+01  0.25814530830E+03  0.57087719624E+03  0.40000000000E+03 0.  1.
   -9000007    1    1    2    0  501  0.31504995897E+03  0.23013781218E+01  0.18357768737E+04  0.19050822825E+04  0.40000000000E+03 0. -1.
<mgrwt>
<rscale>  2 0.50917755E+03</rscale>
<asrwt>0</asrwt>
<pdfrwt beam="1">  1        2 0.29387486E-01 0.50917755E+03</pdfrwt>
<pdfrwt beam="2">  1       -2 0.35152934E+00 0.50917755E+03</pdfrwt>
<totfact> 0.30391097E+00</totfact>
</mgrwt>
</event>
<event>
 4    1  0.2474915E-002  0.4581008E+03  0.7818608E-02  0.1025333E+00
         -1   -1    0    0    0  501 -0.00000000000E+00  0.00000000000E+00  0.26086252965E+03  0.26086252965E+03  0.00000000000E+00 0.  1.
          1   -1    0    0  502    0  0.00000000000E+00 -0.00000000000E+00 -0.80845805069E+03  0.80845805069E+03  0.00000000000E+00 0. -1.
    9000007    1    1    2  502    0  0.18932489283E+03  0.11837403029E+03 -0.23625052335E+03  0.51543247460E+03  0.40000000000E+03 0. -1.
   -9000007    1    1    2    0  501 -0.18932489283E+03 -0.11837403029E+03 -0.31134499770E+03  0.55388810574E+03  0.40000000000E+03 0.  1.
<mgrwt>
<rscale>  2 0.45810078E+03</rscale>
<asrwt>0</asrwt>
<pdfrwt beam="1">  1        1 0.12437816E+00 0.45810078E+03</pdfrwt>
<pdfrwt beam="2">  1       -1 0.40132697E-01 0.45810078E+03</pdfrwt>
<totfact> 0.13714957E+02</totfact>
</mgrwt>
</event>
<event>
 4    1  0.2474915E-002  0.8348481E+03  0.7818608E-02  0.9510902E-01
         -2   -1    0    0    0  501 -0.00000000000E+00  0.00000000000E+00  0.55534638187E+03  0.55534638187E+03  0.00000000000E+00 0.  1.
          2   -1    0    0  502    0  0.00000000000E+00 -0.00000000000E+00 -0.12640051987E+04  0.12640051987E+04  0.00000000000E+00 0. -1.
    9000007    1    1    2  502    0  0.59587157192E+03  0.42650731385E+03 -0.27763745242E+03  0.87980337234E+03  0.40000000000E+03 0. -1.
   -9000007    1    1    2    0  501 -0.59587157192E+03 -0.42650731385E+03 -0.43102136440E+03  0.93954820822E+03  0.40000000000E+03 0.  1.
<mgrwt>
<rscale>  2 0.83484814E+03</rscale>
<asrwt>0</asrwt>
<pdfrwt beam="1">  1        2 0.19446234E+00 0.83484814E+03</pdfrwt>
<pdfrwt beam="2">  1       -2 0.85437905E-01 0.83484814E+03</pdfrwt>
<totfact> 0.20889776E+01</totfact>
</mgrwt>
</event>
<event>
 4    1  0.2474915E-002  0.4538676E+03  0.7818608E-02  0.1026575E+00
          2   -1    0    0  502    0  0.00000000000E+00  0.00000000000E+00  0.45660004242E+03  0.45660004242E+03  0.00000000000E+00 0.  1.
         -2   -1    0    0    0  501 -0.00000000000E+00 -0.00000000000E+00 -0.48269963317E+03  0.48269963317E+03  0.00000000000E+00 0. -1.
    9000007    1    1    2  502    0  0.21368105280E+03  0.18336501254E+02 -0.13311637517E+03  0.47298603462E+03  0.40000000000E+03 0. -1.
   -9000007    1    1    2    0  501 -0.21368105280E+03 -0.18336501254E+02  0.10701678442E+03  0.46631364097E+03  0.40000000000E+03 0.  1.
<mgrwt>
<rscale>  2 0.45386762E+03</rscale>
<asrwt>0</asrwt>
<pdfrwt beam="1">  1        2 0.70246161E-01 0.45386762E+03</pdfrwt>
<pdfrwt beam="2">  1       -2 0.74261482E-01 0.45386762E+03</pdfrwt>
<totfact> 0.11487951E+02</totfact>
</mgrwt>
</event>
<event>
 4    1  0.2474915E-002  0.4609637E+03  0.7818608E-02  0.1024502E+00
         -2   -1    0    0    0  501 -0.00000000000E+00  0.00000000000E+00  0.37073482445E+03  0.37073482445E+03  0.00000000000E+00 0. -1.
          2   -1    0    0  502    0  0.00000000000E+00 -0.00000000000E+00 -0.60797743241E+03  0.60797743241E+03  0.00000000000E+00 0.  1.
    9000007    1    1    2  502    0 -0.15616544129E+02 -0.22856863256E+03 -0.23574048987E+03  0.51774614900E+03  0.40000000000E+03 0.  1.
   -9000007    1    1    2    0  501  0.15616544129E+02  0.22856863256E+03 -0.15021180870E+01  0.46096610786E+03  0.40000000000E+03 0.  1.
<mgrwt>
<rscale>  2 0.46096366E+03</rscale>
<asrwt>0</asrwt>
<pdfrwt beam="1">  1        2 0.93534989E-01 0.46096366E+03</pdfrwt>
<pdfrwt beam="2">  1       -2 0.57036127E-01 0.46096366E+03</pdfrwt>
<totfact> 0.14476010E+02</totfact>
</mgrwt>
</event>
<event>
 4    1  0.2474915E-002  0.4276030E+03  0.7818608E-02  0.1034620E+00
          2   -1    0    0  502    0  0.00000000000E+00  0.00000000000E+00  0.57656593079E+03  0.57656593079E+03  0.00000000000E+00 0. -1.
         -2   -1    0    0    0  501 -0.00000000000E+00 -0.00000000000E+00 -0.60545649753E+03  0.60545649753E+03  0.00000000000E+00 0.  1.
    9000007    1    1    2  502    0  0.14118347085E+03 -0.53958936050E+02 -0.42229405519E+03  0.60097970704E+03  0.40000000000E+03 0.  1.
   -9000007    1    1    2    0  501 -0.14118347085E+03  0.53958936050E+02  0.39340348846E+03  0.58104272128E+03  0.40000000000E+03 0. -1.
<mgrwt>
<rscale>  2 0.42760302E+03</rscale>
<asrwt>0</asrwt>
<pdfrwt beam="1">  1        2 0.88702450E-01 0.42760302E+03</pdfrwt>
<pdfrwt beam="2">  1       -2 0.93147154E-01 0.42760302E+03</pdfrwt>
<totfact> 0.52906339E+01</totfact>
</mgrwt>
</event>
<event>
 4    1  0.2474915E-002  0.4158351E+03  0.7818608E-02  0.1038430E+00
         -2   -1    0    0    0  501 -0.00000000000E+00  0.00000000000E+00  0.82336081307E+02  0.82336081307E+02  0.00000000000E+00 0.  1.
          2   -1    0    0  502    0  0.00000000000E+00 -0.00000000000E+00 -0.22461378491E+04  0.22461378491E+04  0.00000000000E+00 0. -1.
    9000007    1    1    2  502    0  0.25883008922E+02 -0.11067482525E+03 -0.13787039762E+04  0.14400498259E+04  0.40000000000E+03 0. -1.
   -9000007    1    1    2    0  501 -0.25883008922E+02  0.11067482525E+03 -0.78509779158E+03  0.88842410449E+03  0.40000000000E+03 0.  1.
<mgrwt>
<rscale>  2 0.41583512E+03</rscale>
<asrwt>0</asrwt>
<pdfrwt beam="1">  1        2 0.34555964E+00 0.41583512E+03</pdfrwt>
<pdfrwt beam="2">  1       -2 0.12667091E-01 0.41583512E+03</pdfrwt>
<totfact> 0.24271078E+02</totfact>
</mgrwt>
</event>
<event>
 4    1  0.2474915E-002  0.7551685E+03  0.7818608E-02  0.9627276E-01
          2   -1    0    0  502    0  0.00000000000E+00  0.00000000000E+00  0.10577167762E+04  0.10577167762E+04  0.00000000000E+00 0.  1.
         -2   -1    0    0    0  501 -0.00000000000E+00 -0.00000000000E+00 -0.54700004578E+03  0.54700004578E+03  0.00000000000E+00 0. -1.
    9000007    1    1    2  502    0 -0.43152774248E+03  0.47335328200E+03  0.35141099945E+03  0.83292809572E+03  0.40000000000E+03 0.  1.
   -9000007    1    1    2    0  501  0.43152774248E+03 -0.47335328200E+03  0.15930573099E+03  0.77178872629E+03  0.40000000000E+03 0.  1.
<mgrwt>
<rscale>  2 0.75516854E+03</rscale>
<asrwt>0</asrwt>
<pdfrwt beam="1">  1        2 0.16272566E+00 0.75516854E+03</pdfrwt>
<pdfrwt beam="2">  1       -2 0.84153853E-01 0.75516854E+03</pdfrwt>
<totfact> 0.29000175E+01</totfact>
</mgrwt>
</event>
<event>
 4    1  0.2474915E-002  0.6079738E+03  0.7818608E-02  0.9889000E-01
          1   -1    0    0  502    0  0.00000000000E+00  0.00000000000E+00  0.10474869103E+04  0.10474869103E+04  0.00000000000E+00 0. -1.
         -1   -1    0    0    0  501 -0.00000000000E+00 -0.00000000000E+00 -0.36561409399E+03  0.36561409399E+03  0.00000000000E+00 0.  1.
    9000007    1    1    2  502    0 -0.36924350593E+03 -0.27072368919E+03  0.20905039115E+03  0.64291068477E+03  0.40000000000E+03 0.  1.
   -9000007    1    1    2    0  501  0.36924350593E+03  0.27072368919E+03  0.47282242520E+03  0.77019031955E+03  0.40000000000E+03 0. -1.
<mgrwt>
<rscale>  2 0.60797375E+03</rscale>
<asrwt>0</asrwt>
<pdfrwt beam="1">  1        1 0.16115183E+00 0.60797375E+03</pdfrwt>
<pdfrwt beam="2">  1       -1 0.56248323E-01 0.60797375E+03</pdfrwt>
<totfact> 0.46303262E+01</totfact>
</mgrwt>
</event>
<event>
 4    1  0.2474915E-002  0.5208279E+03  0.7818608E-02  0.1008481E+00
          2   -1    0    0  502    0  0.00000000000E+00  0.00000000000E+00  0.20071829287E+04  0.20071829287E+04  0.00000000000E+00 0.  1.
         -2   -1    0    0    0  501 -0.00000000000E+00 -0.00000000000E+00 -0.13525132743E+03  0.13525132743E+03  0.00000000000E+00 0. -1.
    9000007    1    1    2  502    0  0.17633029698E+03  0.28314196949E+03  0.90600194712E+03  0.10450364954E+04  0.40000000000E+03 0. -1.
   -9000007    1    1    2    0  501 -0.17633029698E+03 -0.28314196949E+03  0.96592965414E+03  0.10973977607E+04  0.40000000000E+03 0.  1.
<mgrwt>
<rscale>  2 0.52082795E+03</rscale>
<asrwt>0</asrwt>
<pdfrwt beam="1">  1        2 0.30879735E+00 0.52082795E+03</pdfrwt>
<pdfrwt beam="2">  1       -2 0.20807898E-01 0.52082795E+03</pdfrwt>
<totfact> 0.13876240E+02</totfact>
</mgrwt>
</event>
<event>
 4    1  0.2474915E-002  0.5263528E+03  0.7818608E-02  0.1007120E+00
         -2   -1    0    0    0  501 -0.00000000000E+00  0.00000000000E+00  0.13736471817E+03  0.13736471817E+03  0.00000000000E+00 0.  1.
          2   -1    0    0  502    0  0.00000000000E+00 -0.00000000000E+00 -0.20225001216E+04  0.20225001216E+04  0.00000000000E+00 0. -1.
    9000007    1    1    2  502    0  0.28957861582E+03 -0.18218522172E+03 -0.99952962253E+03  0.11296489260E+04  0.40000000000E+03 0.  1.
   -9000007    1    1    2    0  501 -0.28957861582E+03  0.18218522172E+03 -0.88560578088E+03  0.10302159137E+04  0.40000000000E+03 0. -1.
<mgrwt>
<rscale>  2 0.52635276E+03</rscale>
<asrwt>0</asrwt>
<pdfrwt beam="1">  1        2 0.31115388E+00 0.52635276E+03</pdfrwt>
<pdfrwt beam="2">  1       -2 0.21133033E-01 0.52635276E+03</pdfrwt>
<totfact> 0.13239872E+02</totfact>
</mgrwt>
</event>
<event>
 4    1  0.2474915E-002  0.4795232E+03  0.7818608E-02  0.1019266E+00
          1   -1    0    0  502    0  0.00000000000E+00  0.00000000000E+00  0.59062354987E+03  0.59062354987E+03  0.00000000000E+00 0. -1.
         -1   -1    0    0    0  501 -0.00000000000E+00 -0.00000000000E+00 -0.47363585966E+03  0.47363585966E+03  0.00000000000E+00 0.  1.
    9000007    1    1    2  502    0  0.19556541411E+03  0.17803562013E+03  0.28300901808E+03  0.55680931884E+03  0.40000000000E+03 0. -1.
   -9000007    1    1    2    0  501 -0.19556541411E+03 -0.17803562013E+03 -0.16602132787E+03  0.50745009069E+03  0.40000000000E+03 0.  1.
<mgrwt>
<rscale>  2 0.47952321E+03</rscale>
<asrwt>0</asrwt>
<pdfrwt beam="1">  1        1 0.90865162E-01 0.47952321E+03</pdfrwt>
<pdfrwt beam="2">  1       -1 0.72867055E-01 0.47952321E+03</pdfrwt>
<totfact> 0.69696885E+01</totfact>
</mgrwt>
</event>
<event>
 4    1  0.2474915E-002  0.4300394E+03  0.7818608E-02  0.1033848E+00
          2   -1    0    0  502    0  0.00000000000E+00  0.00000000000E+00  0.18344745961E+03  0.18344745961E+03  0.00000000000E+00 0. -1.
         -2   -1    0    0    0  501 -0.00000000000E+00 -0.00000000000E+00 -0.10264637955E+04  0.10264637955E+04  0.00000000000E+00 0.  1.
    9000007    1    1    2  502    0  0.12864291099E+03  0.91568879111E+02 -0.34059813777E+03  0.54858085058E+03  0.40000000000E+03 0.  1.
   -9000007    1    1    2    0  501 -0.12864291099E+03 -0.91568879111E+02 -0.50241819816E+03  0.66133040457E+03  0.40000000000E+03 0.  1.
<mgrwt>
<rscale>  2 0.43003937E+03</rscale>
<asrwt>0</asrwt>
<pdfrwt beam="1">  1        2 0.28222686E-01 0.43003937E+03</pdfrwt>
<pdfrwt beam="2">  1       -2 0.15791751E+00 0.43003937E+03</pdfrwt>
<totfact> 0.51482794E+01</totfact>
</mgrwt>
</event>
<event>
 4    1  0.2474915E-002  0.5315643E+03  0.7818608E-02  0.1005853E+00
         -2   -1    0    0    0  501 -0.00000000000E+00  0.00000000000E+00  0.17444053276E+03  0.17444053276E+03  0.00000000000E+00 0. -1.
          2   -1    0    0  502    0  0.00000000000E+00 -0.00000000000E+00 -0.17526402992E+04  0.17526402992E+04  0.00000000000E+00 0.  1.
    9000007    1    1    2  502    0 -0.34968678092E+03 -0.16725316974E+02 -0.10543597440E+04  0.11807773079E+04  0.40000000000E+03 0.  1.
   -9000007    1    1    2    0  501  0.34968678092E+03  0.16725316974E+02 -0.52384002241E+03  0.74630352408E+03  0.40000000000E+03 0. -1.
<mgrwt>
<rscale>  2 0.53156428E+03</rscale>
<asrwt>0</asrwt>
<pdfrwt beam="1">  1        2 0.26963697E+00 0.53156428E+03</pdfrwt>
<pdfrwt beam="2">  1       -2 0.26837005E-01 0.53156428E+03</pdfrwt>
<totfact> 0.12081613E+02</totfact>
</mgrwt>
</event>
<event>
 4    1  0.2474915E-002  0.4900841E+03  0.7818608E-02  0.1016400E+00
         -2   -1    0    0    0  501 -0.00000000000E+00  0.00000000000E+00  0.16202985737E+03  0.16202985737E+03  0.00000000000E+00 0. -1.
          2   -1    0    0  502    0  0.00000000000E+00 -0.00000000000E+00 -0.19105241401E+04  0.19105241401E+04  0.00000000000E+00 0.  1.
    9000007    1    1    2  502    0  0.12937734047E+03  0.25188070764E+03 -0.38365807954E+03  0.62239529971E+03  0.40000000000E+03 0. -1.
   -9000007    1    1    2    0  501 -0.12937734047E+03 -0.25188070764E+03 -0.13648362032E+04  0.14501586977E+04  0.40000000000E+03 0. -1.
<mgrwt>
<rscale>  2 0.49008406E+03</rscale>
<asrwt>0</asrwt>
<pdfrwt beam="1">  1        2 0.29392679E+00 0.49008406E+03</pdfrwt>
<pdfrwt beam="2">  1       -2 0.24927670E-01 0.49008406E+03</pdfrwt>
<totfact> 0.11415071E+02</totfact>
</mgrwt>
</event>
<event>
 4    1  0.2474915E-002  0.5058597E+03  0.7818608E-02  0.1012261E+00
          2   -1    0    0  502    0  0.00000000000E+00  0.00000000000E+00  0.59053441691E+03  0.59053441691E+03  0.00000000000E+00 0.  1.
         -2   -1    0    0    0  501 -0.00000000000E+00 -0.00000000000E+00 -0.47625382914E+03  0.47625382914E+03  0.00000000000E+00 0. -1.
    9000007    1    1    2  502    0 -0.30376396675E+03  0.60178731134E+02  0.21727943816E+03  0.55054916350E+03  0.40000000000E+03 0.  1.
   -9000007    1    1    2    0  501  0.30376396675E+03 -0.60178731134E+02 -0.10299885040E+03  0.51623908256E+03  0.40000000000E+03 0. -1.
<mgrwt>
<rscale>  2 0.50585969E+03</rscale>
<asrwt>0</asrwt>
<pdfrwt beam="1">  1        2 0.90851449E-01 0.50585969E+03</pdfrwt>
<pdfrwt beam="2">  1       -2 0.73269820E-01 0.50585969E+03</pdfrwt>
<totfact> 0.87527397E+01</totfact>
</mgrwt>
</event>
<event>
 4    1  0.2474915E-002  0.4046962E+03  0.7818608E-02  0.1042166E+00
          2   -1    0    0  502    0  0.00000000000E+00  0.00000000000E+00  0.29686810260E+03  0.29686810260E+03  0.00000000000E+00 0. -1.
         -2   -1    0    0    0  501 -0.00000000000E+00 -0.00000000000E+00 -0.55357486620E+03  0.55357486620E+03  0.00000000000E+00 0.  1.
    9000007    1    1    2  502    0 -0.14983153775E+02 -0.59619830056E+02 -0.15316889980E+03  0.43271206465E+03  0.40000000000E+03 0.  1.
   -9000007    1    1    2    0  501  0.14983153775E+02  0.59619830056E+02 -0.10353786380E+03  0.41773090414E+03  0.40000000000E+03 0. -1.
<mgrwt>
<rscale>  2 0.40469621E+03</rscale>
<asrwt>0</asrwt>
<pdfrwt beam="1">  1        2 0.45672016E-01 0.40469621E+03</pdfrwt>
<pdfrwt beam="2">  1       -2 0.85165363E-01 0.40469621E+03</pdfrwt>
<totfact> 0.13677993E+02</totfact>
</mgrwt>
</event>
<event>
 4    1  0.2474915E-002  0.4337798E+03  0.7818608E-02  0.1032673E+00
          2   -1    0    0  502    0  0.00000000000E+00  0.00000000000E+00  0.18985328695E+04  0.18985328695E+04  0.00000000000E+00 0. -1.
         -2   -1    0    0    0  501 -0.00000000000E+00 -0.00000000000E+00 -0.14301370426E+03  0.14301370426E+03  0.00000000000E+00 0.  1.
    9000007    1    1    2  502    0  0.12961655650E+03  0.10660415278E+03  0.31218790586E+03  0.53444006743E+03  0.40000000000E+03 0.  1.
   -9000007    1    1    2    0  501 -0.12961655650E+03 -0.10660415278E+03  0.14433312594E+04  0.15071065063E+04  0.40000000000E+03 0. -1.
<mgrwt>
<rscale>  2 0.43377978E+03</rscale>
<asrwt>0</asrwt>
<pdfrwt beam="1">  1        2 0.29208196E+00 0.43377978E+03</pdfrwt>
<pdfrwt beam="2">  1       -2 0.22002110E-01 0.43377978E+03</pdfrwt>
<totfact> 0.14584756E+02</totfact>
</mgrwt>
</event>
<event>
 4    1  0.2474915E-002  0.4090214E+03  0.7818608E-02  0.1040700E+00
         -1   -1    0    0    0  501 -0.00000000000E+00  0.00000000000E+00  0.56710805638E+03  0.56710805638E+03  0.00000000000E+00 0. -1.
          1   -1    0    0  502    0  0.00000000000E+00 -0.00000000000E+00 -0.35884437030E+03  0.35884437030E+03  0.00000000000E+00 0.  1.
    9000007    1    1    2  502    0  0.19632625857E+02 -0.83145083559E+02 -0.91147771048E+02  0.41905424599E+03  0.40000000000E+03 0.  1.
   -9000007    1    1    2    0  501 -0.19632625857E+02  0.83145083559E+02  0.29941145714E+03  0.50689818069E+03  0.40000000000E+03 0. -1.
<mgrwt>
<rscale>  2 0.40902145E+03</rscale>
<asrwt>0</asrwt>
<pdfrwt beam="1">  1        1 0.55206826E-01 0.40902145E+03</pdfrwt>
<pdfrwt beam="2">  1       -1 0.87247394E-01 0.40902145E+03</pdfrwt>
<totfact> 0.93897389E+01</totfact>
</mgrwt>
</event>
<event>
 4    1  0.2474915E-002  0.6473181E+03  0.7818608E-02  0.9811825E-01
         -2   -1    0    0    0  501 -0.00000000000E+00  0.00000000000E+00  0.27042883659E+03  0.27042883659E+03  0.00000000000E+00 0.  1.
          2   -1    0    0  502    0  0.00000000000E+00 -0.00000000000E+00 -0.17265517732E+04  0.17265517732E+04  0.00000000000E+00 0. -1.
    9000007    1    1    2  502    0 -0.50312844070E+03  0.76697125626E+02 -0.40828675325E+03  0.76532264425E+03  0.40000000000E+03 0. -1.
   -9000007    1    1    2    0  501  0.50312844070E+03 -0.76697125626E+02 -0.10478361833E+04  0.12316579655E+04  0.40000000000E+03 0. -1.
<mgrwt>
<rscale>  2 0.64731806E+03</rscale>
<asrwt>0</asrwt>
<pdfrwt beam="1">  1        2 0.26562335E+00 0.64731806E+03</pdfrwt>
<pdfrwt beam="2">  1       -2 0.41604436E-01 0.64731806E+03</pdfrwt>
<totfact> 0.53831809E+01</totfact>
</mgrwt>
</event>
<event>
 4    1  0.2474915E-002  0.5177563E+03  0.7818608E-02  0.1009245E+00
         -2   -1    0    0    0  501 -0.00000000000E+00  0.00000000000E+00  0.35097436361E+03  0.35097436361E+03  0.00000000000E+00 0. -1.
          2   -1    0    0  502    0  0.00000000000E+00 -0.00000000000E+00 -0.87764404531E+03  0.87764404531E+03  0.00000000000E+00 0.  1.
    9000007    1    1    2  502    0 -0.97252508389E+02 -0.31402788642E+03 -0.48459203770E+03  0.70915513595E+03  0.40000000000E+03 0.  1.
   -9000007    1    1    2    0  501  0.97252508389E+02  0.31402788642E+03 -0.42077644000E+02  0.51946327297E+03  0.40000000000E+03 0. -1.
<mgrwt>
<rscale>  2 0.51775628E+03</rscale>
<asrwt>0</asrwt>
<pdfrwt beam="1">  1        2 0.13502216E+00 0.51775628E+03</pdfrwt>
<pdfrwt beam="2">  1       -2 0.53996056E-01 0.51775628E+03</pdfrwt>
<totfact> 0.10126464E+02</totfact>
</mgrwt>
</event>
<event>
 4    1  0.2474915E-002  0.5275067E+03  0.7818608E-02  0.1006839E+00
          2   -1    0    0  502    0  0.00000000000E+00  0.00000000000E+00  0.15243846248E+04  0.15243846248E+04  0.00000000000E+00 0. -1.
         -2   -1    0    0    0  501 -0.00000000000E+00 -0.00000000000E+00 -0.18256131593E+03  0.18256131593E+03  0.00000000000E+00 0.  1.
    9000007    1    1    2  502    0 -0.18302437544E+03 -0.29114490734E+03  0.67982951399E+03  0.86048326373E+03  0.40000000000E+03 0.  1.
   -9000007    1    1    2    0  501  0.18302437544E+03  0.29114490734E+03  0.66199379487E+03  0.84646267698E+03  0.40000000000E+03 0.  1.
<mgrwt>
<rscale>  2 0.52750666E+03</rscale>
<asrwt>0</asrwt>
<pdfrwt beam="1">  1        2 0.23452070E+00 0.52750666E+03</pdfrwt>
<pdfrwt beam="2">  1       -2 0.28086357E-01 0.52750666E+03</pdfrwt>
<totfact> 0.14804330E+02</totfact>
</mgrwt>
</event>
<event>
 4    1  0.2474915E-002  0.4915920E+03  0.7818608E-02  0.1015997E+00
          2   -1    0    0  502    0  0.00000000000E+00  0.00000000000E+00  0.77320907417E+03  0.77320907417E+03  0.00000000000E+00 0. -1.
         -2   -1    0    0    0  501 -0.00000000000E+00 -0.00000000000E+00 -0.31302694366E+03  0.31302694366E+03  0.00000000000E+00 0.  1.
    9000007    1    1    2  502    0 -0.12537742546E+03 -0.25679415887E+03  0.20878329063E+03  0.53409100469E+03  0.40000000000E+03 0.  1.
   -9000007    1    1    2    0  501  0.12537742546E+03  0.25679415887E+03  0.25139883989E+03  0.55214501314E+03  0.40000000000E+03 0. -1.
<mgrwt>
<rscale>  2 0.49159205E+03</rscale>
<asrwt>0</asrwt>
<pdfrwt beam="1">  1        2 0.11895524E+00 0.49159205E+03</pdfrwt>
<pdfrwt beam="2">  1       -2 0.48157992E-01 0.49159205E+03</pdfrwt>
<totfact> 0.15146103E+02</totfact>
</mgrwt>
</event>
<event>
 4    1  0.2474915E-002  0.4006262E+03  0.7818608E-02  0.1043563E+00
         -1   -1    0    0    0  501 -0.00000000000E+00  0.00000000000E+00  0.10485634104E+03  0.10485634104E+03  0.00000000000E+00 0.  1.
          1   -1    0    0  502    0  0.00000000000E+00 -0.00000000000E+00 -0.17574119938E+04  0.17574119938E+04  0.00000000000E+00 0. -1.
    9000007    1    1    2  502    0 -0.94001773076E+01 -0.20322875445E+02 -0.11607291995E+04  0.12279224964E+04  0.40000000000E+03 0. -1.
   -9000007    1    1    2    0  501  0.94001773076E+01  0.20322875445E+02 -0.49182645323E+03  0.63434583840E+03  0.40000000000E+03 0.  1.
<mgrwt>
<rscale>  2 0.40062624E+03</rscale>
<asrwt>0</asrwt>
<pdfrwt beam="1">  1        1 0.27037105E+00 0.40062624E+03</pdfrwt>
<pdfrwt beam="2">  1       -1 0.16131746E-01 0.40062624E+03</pdfrwt>
<totfact> 0.13592220E+02</totfact>
</mgrwt>
</event>
<event>
 4    1  0.2474915E-002  0.4570799E+03  0.7818608E-02  0.1025632E+00
         -2   -1    0    0    0  501 -0.00000000000E+00  0.00000000000E+00  0.11617655978E+03  0.11617655978E+03  0.00000000000E+00 0.  1.
          2   -1    0    0  502    0  0.00000000000E+00 -0.00000000000E+00 -0.18105383779E+04  0.18105383779E+04  0.00000000000E+00 0. -1.
    9000007    1    1    2  502    0  0.16680227334E+03  0.14525520814E+03 -0.92633540433E+03  0.10329662895E+04  0.40000000000E+03 0.  1.
   -9000007    1    1    2    0  501 -0.16680227334E+03 -0.14525520814E+03 -0.76802641385E+03  0.89374864825E+03  0.40000000000E+03 0.  1.
<mgrwt>
<rscale>  2 0.45707994E+03</rscale>
<asrwt>0</asrwt>
<pdfrwt beam="1">  1        2 0.27854436E+00 0.45707994E+03</pdfrwt>
<pdfrwt beam="2">  1       -2 0.17873317E-01 0.45707994E+03</pdfrwt>
<totfact> 0.23220464E+02</totfact>
</mgrwt>
</event>
<event>
 4    1  0.2474915E-002  0.4210593E+03  0.7818608E-02  0.1036722E+00
         -2   -1    0    0    0  501 -0.00000000000E+00  0.00000000000E+00  0.25387494361E+03  0.25387494361E+03  0.00000000000E+00 0. -1.
          2   -1    0    0  502    0  0.00000000000E+00 -0.00000000000E+00 -0.69852471925E+03  0.69852471925E+03  0.00000000000E+00 0.  1.
    9000007    1    1    2  502    0 -0.92748409817E+01 -0.13116755481E+03 -0.23007513135E+03  0.47981821159E+03  0.40000000000E+03 0. -1.
   -9000007    1    1    2    0  501  0.92748409817E+01  0.13116755481E+03 -0.21457464428E+03  0.47258145127E+03  0.40000000000E+03 0.  1.
<mgrwt>
<rscale>  2 0.42105932E+03</rscale>
<asrwt>0</asrwt>
<pdfrwt beam="1">  1        2 0.10746534E+00 0.42105932E+03</pdfrwt>
<pdfrwt beam="2">  1       -2 0.39057684E-01 0.42105932E+03</pdfrwt>
<totfact> 0.26129103E+02</totfact>
</mgrwt>
</event>
<event>
 4    1  0.2474915E-002  0.5318073E+03  0.7818608E-02  0.1005795E+00
         -2   -1    0    0    0  501 -0.00000000000E+00  0.00000000000E+00  0.73770628272E+02  0.73770628272E+02  0.00000000000E+00 0. -1.
          2   -1    0    0  502    0  0.00000000000E+00 -0.00000000000E+00 -0.38808413242E+04  0.38808413242E+04  0.00000000000E+00 0.  1.
    9000007    1    1    2  502    0 -0.31873130410E+03 -0.14570289708E+03 -0.21213210462E+04  0.21869663828E+04  0.40000000000E+03 0.  1.
   -9000007    1    1    2    0  501  0.31873130410E+03  0.14570289708E+03 -0.16857496497E+04  0.17676455696E+04  0.40000000000E+03 0. -1.
<mgrwt>
<rscale>  2 0.53180728E+03</rscale>
<asrwt>0</asrwt>
<pdfrwt beam="1">  1        2 0.59705273E+00 0.53180728E+03</pdfrwt>
<pdfrwt beam="2">  1       -2 0.11349323E-01 0.53180728E+03</pdfrwt>
<totfact> 0.27214131E+01</totfact>
</mgrwt>
</event>
<event>
 4    1  0.2474915E-002  0.6189532E+03  0.7818608E-02  0.9866846E-01
          2   -1    0    0  502    0  0.00000000000E+00  0.00000000000E+00  0.45038937222E+03  0.45038937222E+03  0.00000000000E+00 0.  1.
         -2   -1    0    0    0  501 -0.00000000000E+00 -0.00000000000E+00 -0.10931701059E+04  0.10931701059E+04  0.00000000000E+00 0. -1.
    9000007    1    1    2  502    0  0.35226158832E+03 -0.31466629212E+03 -0.68494054195E+03  0.92317205764E+03  0.40000000000E+03 0. -1.
   -9000007    1    1    2    0  501 -0.35226158832E+03  0.31466629212E+03  0.42159808312E+02  0.62038742044E+03  0.40000000000E+03 0.  1.
<mgrwt>
<rscale>  2 0.61895323E+03</rscale>
<asrwt>0</asrwt>
<pdfrwt beam="1">  1        2 0.69290673E-01 0.61895323E+03</pdfrwt>
<pdfrwt beam="2">  1       -2 0.16818002E+00 0.61895323E+03</pdfrwt>
<totfact> 0.15691609E+01</totfact>
</mgrwt>
</event>
<event>
 4    1  0.2474915E-002  0.5755965E+03  0.7818608E-02  0.9957370E-01
          1   -1    0    0  502    0  0.00000000000E+00  0.00000000000E+00  0.59141737886E+03  0.59141737886E+03  0.00000000000E+00 0. -1.
         -1   -1    0    0    0  501 -0.00000000000E+00 -0.00000000000E+00 -0.66116706104E+03  0.66116706104E+03  0.00000000000E+00 0.  1.
    9000007    1    1    2  502    0  0.28601673217E+03 -0.29917504917E+03 -0.27961990448E+03  0.63992075456E+03  0.40000000000E+03 0.  1.
   -9000007    1    1    2    0  501 -0.28601673217E+03  0.29917504917E+03  0.20987022231E+03  0.61266368534E+03  0.40000000000E+03 0.  1.
<mgrwt>
<rscale>  2 0.57559646E+03</rscale>
<asrwt>0</asrwt>
<pdfrwt beam="1">  1        1 0.90987290E-01 0.57559646E+03</pdfrwt>
<pdfrwt beam="2">  1       -1 0.10171801E+00 0.57559646E+03</pdfrwt>
<totfact> 0.33453877E+01</totfact>
</mgrwt>
</event>
<event>
 4    1  0.2474915E-002  0.5020352E+03  0.7818608E-02  0.1013249E+00
         -1   -1    0    0    0  501 -0.00000000000E+00  0.00000000000E+00  0.93842565423E+03  0.93842565423E+03  0.00000000000E+00 0.  1.
          1   -1    0    0  502    0  0.00000000000E+00 -0.00000000000E+00 -0.51400435837E+03  0.51400435837E+03  0.00000000000E+00 0. -1.
    9000007    1    1    2  502    0  0.30141410389E+03  0.34480524942E+02 -0.28960415998E+03  0.57957737887E+03  0.40000000000E+03 0. -1.
   -9000007    1    1    2    0  501 -0.30141410389E+03 -0.34480524942E+02  0.71402545584E+03  0.87285263373E+03  0.40000000000E+03 0.  1.
<mgrwt>
<rscale>  2 0.50203523E+03</rscale>
<asrwt>0</asrwt>
<pdfrwt beam="1">  1        1 0.79077594E-01 0.50203523E+03</pdfrwt>
<pdfrwt beam="2">  1       -1 0.14437318E+00 0.50203523E+03</pdfrwt>
<totfact> 0.17513821E+01</totfact>
</mgrwt>
</event>
<event>
 4    1  0.2474915E-002  0.4038056E+03  0.7818608E-02  0.1042470E+00
         -1   -1    0    0    0  501 -0.00000000000E+00  0.00000000000E+00  0.13561147581E+03  0.13561147581E+03  0.00000000000E+00 0. -1.
          1   -1    0    0  502    0  0.00000000000E+00 -0.00000000000E+00 -0.14382174210E+04  0.14382174210E+04  0.00000000000E+00 0.  1.
    9000007    1    1    2  502    0  0.36216452760E+02 -0.41801235635E+02 -0.33265953358E+03  0.52318384917E+03  0.40000000000E+03 0. -1.
   -9000007    1    1    2    0  501 -0.36216452760E+02  0.41801235635E+02 -0.96994641160E+03  0.10506450476E+04  0.40000000000E+03 0.  1.
<mgrwt>
<rscale>  2 0.40380562E+03</rscale>
<asrwt>0</asrwt>
<pdfrwt beam="1">  1        1 0.22126422E+00 0.40380562E+03</pdfrwt>
<pdfrwt beam="2">  1       -1 0.20863304E-01 0.40380562E+03</pdfrwt>
<totfact> 0.14568848E+02</totfact>
</mgrwt>
</event>
<event>
 4    1  0.2474915E-002  0.4135418E+03  0.7818608E-02  0.1039189E+00
          4   -1    0    0  502    0  0.00000000000E+00  0.00000000000E+00  0.95566784607E+03  0.95566784607E+03  0.00000000000E+00 0. -1.
         -4   -1    0    0    0  501 -0.00000000000E+00 -0.00000000000E+00 -0.18108604516E+03  0.18108604516E+03  0.00000000000E+00 0.  1.
    9000007    1    1    2  502    0  0.61561786981E+02  0.85011440131E+02  0.32556105549E+03  0.52631435418E+03  0.40000000000E+03 0. -1.
   -9000007    1    1    2    0  501 -0.61561786981E+02 -0.85011440131E+02  0.44902074542E+03  0.61043953704E+03  0.40000000000E+03 0.  1.
<mgrwt>
<rscale>  2 0.41354177E+03</rscale>
<asrwt>0</asrwt>
<pdfrwt beam="1">  1        4 0.14702582E+00 0.41354177E+03</pdfrwt>
<pdfrwt beam="2">  1       -4 0.27859392E-01 0.41354177E+03</pdfrwt>
<totfact> 0.75785338E+00</totfact>
</mgrwt>
</event>
<event>
 4    1  0.2474915E-002  0.4086919E+03  0.7818608E-02  0.1040811E+00
          2   -1    0    0  502    0  0.00000000000E+00  0.00000000000E+00  0.49627286668E+04  0.49627286668E+04  0.00000000000E+00 0.  1.
         -2   -1    0    0    0  501 -0.00000000000E+00 -0.00000000000E+00 -0.43919514012E+02  0.43919514012E+02  0.00000000000E+00 0. -1.
    9000007    1    1    2  502    0  0.12519515769E+02  0.82899519817E+02  0.36695053831E+04  0.36921943103E+04  0.40000000000E+03 0.  1.
   -9000007    1    1    2    0  501 -0.12519515769E+02 -0.82899519817E+02  0.12493037697E+04  0.13144538705E+04  0.40000000000E+03 0. -1.
<mgrwt>
<rscale>  2 0.40869190E+03</rscale>
<asrwt>0</asrwt>
<pdfrwt beam="1">  1        2 0.76349628E+00 0.40869190E+03</pdfrwt>
<pdfrwt beam="2">  1       -2 0.67568522E-02 0.40869190E+03</pdfrwt>
<totfact> 0.64085531E+00</totfact>
</mgrwt>
</event>
<event>
 4    1  0.2474915E-002  0.9594972E+03  0.7818608E-02  0.9354118E-01
          1   -1    0    0  502    0  0.00000000000E+00  0.00000000000E+00  0.19010393990E+04  0.19010393990E+04  0.00000000000E+00 0.  1.
         -1   -1    0    0    0  501 -0.00000000000E+00 -0.00000000000E+00 -0.48429967611E+03  0.48429967611E+03  0.00000000000E+00 0. -1.
    9000007    1    1    2  502    0 -0.83823136867E+03 -0.24083824724E+03  0.70072002226E+03  0.11881260196E+04  0.40000000000E+03 0.  1.
   -9000007    1    1    2    0  501  0.83823136867E+03  0.24083824724E+03  0.71601970066E+03  0.11972130556E+04  0.40000000000E+03 0.  1.
<mgrwt>
<rscale>  2 0.95949721E+03</rscale>
<asrwt>0</asrwt>
<pdfrwt beam="1">  1        1 0.29246760E+00 0.95949721E+03</pdfrwt>
<pdfrwt beam="2">  1       -1 0.74507643E-01 0.95949721E+03</pdfrwt>
<totfact> 0.64019237E+00</totfact>
</mgrwt>
</event>
<event>
 4    1  0.2474915E-002  0.4927356E+03  0.7818608E-02  0.1015693E+00
          2   -1    0    0  502    0  0.00000000000E+00  0.00000000000E+00  0.49773070892E+03  0.49773070892E+03  0.00000000000E+00 0.  1.
         -2   -1    0    0    0  501 -0.00000000000E+00 -0.00000000000E+00 -0.57041586236E+03  0.57041586236E+03  0.00000000000E+00 0. -1.
    9000007    1    1    2  502    0  0.28263633590E+03 -0.53898654540E+02 -0.23960704687E+03  0.54790501024E+03  0.40000000000E+03 0. -1.
   -9000007    1    1    2    0  501 -0.28263633590E+03  0.53898654540E+02  0.16692189343E+03  0.52024156105E+03  0.40000000000E+03 0.  1.
<mgrwt>
<rscale>  2 0.49273559E+03</rscale>
<asrwt>0</asrwt>
<pdfrwt beam="1">  1        2 0.76573956E-01 0.49273559E+03</pdfrwt>
<pdfrwt beam="2">  1       -2 0.87756286E-01 0.49273559E+03</pdfrwt>
<totfact> 0.71452829E+01</totfact>
</mgrwt>
</event>
<event>
 4    1  0.2474915E-002  0.4145603E+03  0.7818608E-02  0.1038851E+00
          2   -1    0    0  502    0  0.00000000000E+00  0.00000000000E+00  0.48255402873E+03  0.48255402873E+03  0.00000000000E+00 0. -1.
         -2   -1    0    0    0  501 -0.00000000000E+00 -0.00000000000E+00 -0.39200953256E+03  0.39200953256E+03  0.00000000000E+00 0.  1.
    9000007    1    1    2  502    0 -0.41637840739E+02  0.10063084419E+03  0.17753337086E+03  0.45097491544E+03  0.40000000000E+03 0. -1.
   -9000007    1    1    2    0  501  0.41637840739E+02 -0.10063084419E+03 -0.86988874685E+02  0.42358864586E+03  0.40000000000E+03 0.  1.
<mgrwt>
<rscale>  2 0.41456034E+03</rscale>
<asrwt>0</asrwt>
<pdfrwt beam="1">  1        2 0.74239081E-01 0.41456034E+03</pdfrwt>
<pdfrwt beam="2">  1       -2 0.60309159E-01 0.41456034E+03</pdfrwt>
<totfact> 0.16911333E+02</totfact>
</mgrwt>
</event>
<event>
 4    1  0.2474915E-002  0.5414898E+03  0.7818608E-02  0.1003483E+00
          2   -1    0    0  502    0  0.00000000000E+00  0.00000000000E+00  0.28158138107E+03  0.28158138107E+03  0.00000000000E+00 0.  1.
         -2   -1    0    0    0  501 -0.00000000000E+00 -0.00000000000E+00 -0.11508700032E+04  0.11508700032E+04  0.00000000000E+00 0. -1.
    9000007    1    1    2  502    0 -0.32785577869E+03  0.16038017054E+03 -0.65563752987E+03  0.85033627542E+03  0.40000000000E+03 0. -1.
   -9000007    1    1    2    0  501  0.32785577869E+03 -0.16038017054E+03 -0.21365109225E+03  0.58211510884E+03  0.40000000000E+03 0.  1.
<mgrwt>
<rscale>  2 0.54148981E+03</rscale>
<asrwt>0</asrwt>
<pdfrwt beam="1">  1        2 0.43320212E-01 0.54148981E+03</pdfrwt>
<pdfrwt beam="2">  1       -2 0.17705692E+00 0.54148981E+03</pdfrwt>
<totfact> 0.23145309E+01</totfact>
</mgrwt>
</event>
<event>
 4    1  0.2474915E-002  0.4749160E+03  0.7818608E-02  0.1020542E+00
          2   -1    0    0  502    0  0.00000000000E+00  0.00000000000E+00  0.21326196725E+04  0.21326196725E+04  0.00000000000E+00 0.  1.
         -2   -1    0    0    0  501 -0.00000000000E+00 -0.00000000000E+00 -0.10681483233E+03  0.10681483233E+03  0.00000000000E+00 0. -1.
    9000007    1    1    2  502    0  0.24553099457E+03  0.72524310962E+02  0.11241891374E+04  0.12203878325E+04  0.40000000000E+03 0.  1.
   -9000007    1    1    2    0  501 -0.24553099457E+03 -0.72524310962E+02  0.90161570278E+03  0.10190466724E+04  0.40000000000E+03 0.  1.
<mgrwt>
<rscale>  2 0.47491604E+03</rscale>
<asrwt>0</asrwt>
<pdfrwt beam="1">  1        2 0.32809530E+00 0.47491604E+03</pdfrwt>
<pdfrwt beam="2">  1       -2 0.16433053E-01 0.47491604E+03</pdfrwt>
<totfact> 0.17940967E+02</totfact>
</mgrwt>
</event>
<event>
 4    1  0.2474915E-002  0.4609298E+03  0.7818608E-02  0.1024512E+00
         -2   -1    0    0    0  501 -0.00000000000E+00  0.00000000000E+00  0.22811608880E+03  0.22811608880E+03  0.00000000000E+00 0. -1.
          2   -1    0    0  502    0  0.00000000000E+00 -0.00000000000E+00 -0.96265982011E+03  0.96265982011E+03  0.00000000000E+00 0.  1.
    9000007    1    1    2  502    0 -0.22893211430E+03 -0.68119210810E+01 -0.47464407012E+03  0.66162172616E+03  0.40000000000E+03 0.  1.
   -9000007    1    1    2    0  501  0.22893211430E+03  0.68119210810E+01 -0.25989966119E+03  0.52915418274E+03  0.40000000000E+03 0. -1.
<mgrwt>
<rscale>  2 0.46092984E+03</rscale>
<asrwt>0</asrwt>
<pdfrwt beam="1">  1        2 0.14810151E+00 0.46092984E+03</pdfrwt>
<pdfrwt beam="2">  1       -2 0.35094783E-01 0.46092984E+03</pdfrwt>
<totfact> 0.20922535E+02</totfact>
</mgrwt>
</event>
<event>
 4    1  0.2474915E-002  0.4596860E+03  0.7818608E-02  0.1024872E+00
         -2   -1    0    0    0  501 -0.00000000000E+00  0.00000000000E+00  0.14893080029E+03  0.14893080029E+03  0.00000000000E+00 0. -1.
          2   -1    0    0  502    0  0.00000000000E+00 -0.00000000000E+00 -0.16695681133E+04  0.16695681133E+04  0.00000000000E+00 0.  1.
    9000007    1    1    2  502    0 -0.58635810477E+02 -0.21879913902E+03 -0.40797257890E+03  0.61461601561E+03  0.40000000000E+03 0. -1.
   -9000007    1    1    2    0  501  0.58635810477E+02  0.21879913902E+03 -0.11126647341E+04  0.12038828980E+04  0.40000000000E+03 0.  1.
<mgrwt>
<rscale>  2 0.45968600E+03</rscale>
<asrwt>0</asrwt>
<pdfrwt beam="1">  1        2 0.25685664E+00 0.45968600E+03</pdfrwt>
<pdfrwt beam="2">  1       -2 0.22912431E-01 0.45968600E+03</pdfrwt>
<totfact> 0.17946593E+02</totfact>
</mgrwt>
</event>
<event>
 4    1  0.2474915E-002  0.5170620E+03  0.7818608E-02  0.1009419E+00
          2   -1    0    0  502    0  0.00000000000E+00  0.00000000000E+00  0.18438057369E+03  0.18438057369E+03  0.00000000000E+00 0.  1.
         -2   -1    0    0    0  501 -0.00000000000E+00 -0.00000000000E+00 -0.14700904318E+04  0.14700904318E+04  0.00000000000E+00 0. -1.
    9000007    1    1    2  502    0  0.10848592078E+03  0.30916645122E+03 -0.73954414388E+03  0.90237388610E+03  0.40000000000E+03 0. -1.
   -9000007    1    1    2    0  501 -0.10848592078E+03 -0.30916645122E+03 -0.54616571419E+03  0.75209711934E+03  0.40000000000E+03 0. -1.
<mgrwt>
<rscale>  2 0.51706198E+03</rscale>
<asrwt>0</asrwt>
<pdfrwt beam="1">  1        2 0.28366242E-01 0.51706198E+03</pdfrwt>
<pdfrwt beam="2">  1       -2 0.22616776E+00 0.51706198E+03</pdfrwt>
<totfact> 0.17920071E+01</totfact>
</mgrwt>
</event>
<event>
 4    1  0.2474915E-002  0.4081774E+03  0.7818608E-02  0.1040984E+00
          1   -1    0    0  502    0  0.00000000000E+00  0.00000000000E+00  0.11049465843E+04  0.11049465843E+04  0.00000000000E+00 0. -1.
         -1   -1    0    0    0  501 -0.00000000000E+00 -0.00000000000E+00 -0.16101566541E+03  0.16101566541E+03  0.00000000000E+00 0.  1.
    9000007    1    1    2  502    0  0.69555875069E+02  0.42080647302E+02  0.63152382744E+03  0.75195155779E+03  0.40000000000E+03 0. -1.
   -9000007    1    1    2    0  501 -0.69555875069E+02 -0.42080647302E+02  0.31240709148E+03  0.51401069195E+03  0.40000000000E+03 0.  1.
<mgrwt>
<rscale>  2 0.40817741E+03</rscale>
<asrwt>0</asrwt>
<pdfrwt beam="1">  1        1 0.16999178E+00 0.40817741E+03</pdfrwt>
<pdfrwt beam="2">  1       -1 0.24771642E-01 0.40817741E+03</pdfrwt>
<totfact> 0.18717386E+02</totfact>
</mgrwt>
</event>
<event>
 4    1  0.2474915E-002  0.4482010E+03  0.7818608E-02  0.1028260E+00
          2   -1    0    0  502    0  0.00000000000E+00  0.00000000000E+00  0.18464802409E+03  0.18464802409E+03  0.00000000000E+00 0.  1.
         -2   -1    0    0    0  501 -0.00000000000E+00 -0.00000000000E+00 -0.10912968134E+04  0.10912968134E+04  0.00000000000E+00 0. -1.
    9000007    1    1    2  502    0 -0.18411609729E+03  0.83578891411E+02 -0.41789001945E+03  0.61279379625E+03  0.40000000000E+03 0.  1.
   -9000007    1    1    2    0  501  0.18411609729E+03 -0.83578891411E+02 -0.48875876986E+03  0.66315104123E+03  0.40000000000E+03 0. -1.
<mgrwt>
<rscale>  2 0.44820104E+03</rscale>
<asrwt>0</asrwt>
<pdfrwt beam="1">  1        2 0.28407389E-01 0.44820104E+03</pdfrwt>
<pdfrwt beam="2">  1       -2 0.16789181E+00 0.44820104E+03</pdfrwt>
<totfact> 0.43248894E+01</totfact>
</mgrwt>
</event>
<event>
 4    1  0.2474915E-002  0.4195739E+03  0.7818608E-02  0.1037205E+00
          2   -1    0    0  502    0  0.00000000000E+00  0.00000000000E+00  0.29563361569E+03  0.29563361569E+03  0.00000000000E+00 0. -1.
         -2   -1    0    0    0  501 -0.00000000000E+00 -0.00000000000E+00 -0.63081749391E+03  0.63081749391E+03  0.00000000000E+00 0.  1.
    9000007    1    1    2  502    0 -0.10350616409E+03  0.72998431260E+02 -0.57946151811E+02  0.42355643482E+03  0.40000000000E+03 0. -1.
   -9000007    1    1    2    0  501  0.10350616409E+03 -0.72998431260E+02 -0.27723772641E+03  0.50289467477E+03  0.40000000000E+03 0. -1.
<mgrwt>
<rscale>  2 0.41957395E+03</rscale>
<asrwt>0</asrwt>
<pdfrwt beam="1">  1        2 0.45482095E-01 0.41957395E+03</pdfrwt>
<pdfrwt beam="2">  1       -2 0.97048845E-01 0.41957395E+03</pdfrwt>
<totfact> 0.10174997E+02</totfact>
</mgrwt>
</event>
<event>
 4    1  0.2474915E-002  0.4132226E+03  0.7818608E-02  0.1039295E+00
          1   -1    0    0  502    0  0.00000000000E+00  0.00000000000E+00  0.58074140619E+03  0.58074140619E+03  0.00000000000E+00 0.  1.
         -1   -1    0    0    0  501 -0.00000000000E+00 -0.00000000000E+00 -0.63079832852E+03  0.63079832852E+03  0.00000000000E+00 0. -1.
    9000007    1    1    2  502    0 -0.99466723394E+02  0.29314239526E+02  0.41759123079E+03  0.58748224631E+03  0.40000000000E+03 0.  1.
   -9000007    1    1    2    0  501  0.99466723394E+02 -0.29314239526E+02 -0.46764815312E+03  0.62405748839E+03  0.40000000000E+03 0. -1.
<mgrwt>
<rscale>  2 0.41322264E+03</rscale>
<asrwt>0</asrwt>
<pdfrwt beam="1">  1        1 0.89344832E-01 0.41322264E+03</pdfrwt>
<pdfrwt beam="2">  1       -1 0.97045896E-01 0.41322264E+03</pdfrwt>
<totfact> 0.39088509E+01</totfact>
</mgrwt>
</event>
<event>
 4    1  0.2474915E-002  0.4283680E+03  0.7818608E-02  0.1034377E+00
         -1   -1    0    0    0  501 -0.00000000000E+00  0.00000000000E+00  0.34232836331E+03  0.34232836331E+03  0.00000000000E+00 0. -1.
          1   -1    0    0  502    0  0.00000000000E+00 -0.00000000000E+00 -0.53982885204E+03  0.53982885204E+03  0.00000000000E+00 0.  1.
    9000007    1    1    2  502    0  0.15014582218E+03 -0.30909744779E+02 -0.61762101460E+02  0.43279757095E+03  0.40000000000E+03 0. -1.
   -9000007    1    1    2    0  501 -0.15014582218E+03  0.30909744779E+02 -0.13573838727E+03  0.44935964441E+03  0.40000000000E+03 0. -1.
<mgrwt>
<rscale>  2 0.42836804E+03</rscale>
<asrwt>0</asrwt>
<pdfrwt beam="1">  1        1 0.83050593E-01 0.42836804E+03</pdfrwt>
<pdfrwt beam="2">  1       -1 0.52665902E-01 0.42836804E+03</pdfrwt>
<totfact> 0.15054228E+02</totfact>
</mgrwt>
</event>
<event>
 4    1  0.2474915E-002  0.4116010E+03  0.7818608E-02  0.1039835E+00
          1   -1    0    0  502    0  0.00000000000E+00  0.00000000000E+00  0.70128939768E+03  0.70128939768E+03  0.00000000000E+00 0.  1.
         -1   -1    0    0    0  501 -0.00000000000E+00 -0.00000000000E+00 -0.24159609548E+03  0.24159609548E+03  0.00000000000E+00 0. -1.
    9000007    1    1    2  502    0  0.79511535227E+02  0.55617528994E+02  0.23403718289E+03  0.47348579360E+03  0.40000000000E+03 0. -1.
   -9000007    1    1    2    0  501 -0.79511535227E+02 -0.55617528994E+02  0.22565611931E+03  0.46939969956E+03  0.40000000000E+03 0. -1.
<mgrwt>
<rscale>  2 0.41160101E+03</rscale>
<asrwt>0</asrwt>
<pdfrwt beam="1">  1        1 0.10789068E+00 0.41160101E+03</pdfrwt>
<pdfrwt beam="2">  1       -1 0.37168630E-01 0.41160101E+03</pdfrwt>
<totfact> 0.19653931E+02</totfact>
</mgrwt>
</event>
<event>
 4    1  0.2474915E-002  0.4023770E+03  0.7818608E-02  0.1042960E+00
         -1   -1    0    0    0  501 -0.00000000000E+00  0.00000000000E+00  0.33736019994E+03  0.33736019994E+03  0.00000000000E+00 0. -1.
          1   -1    0    0  502    0  0.00000000000E+00 -0.00000000000E+00 -0.91133821492E+03  0.91133821492E+03  0.00000000000E+00 0.  1.
    9000007    1    1    2  502    0  0.23139485239E+02  0.37038108417E+02 -0.71656005048E+03  0.82180628082E+03  0.40000000000E+03 0.  1.
   -9000007    1    1    2    0  501 -0.23139485239E+02 -0.37038108417E+02  0.14258203550E+03  0.42689213403E+03  0.40000000000E+03 0. -1.
<mgrwt>
<rscale>  2 0.40237701E+03</rscale>
<asrwt>0</asrwt>
<pdfrwt beam="1">  1        1 0.14020588E+00 0.40237701E+03</pdfrwt>
<pdfrwt beam="2">  1       -1 0.51901570E-01 0.40237701E+03</pdfrwt>
<totfact> 0.70857827E+01</totfact>
</mgrwt>
</event>
<event>
 4    1  0.2474915E-002  0.4084328E+03  0.7818608E-02  0.1040898E+00
          2   -1    0    0  502    0  0.00000000000E+00  0.00000000000E+00  0.14233575773E+04  0.14233575773E+04  0.00000000000E+00 0. -1.
         -2   -1    0    0    0  501 -0.00000000000E+00 -0.00000000000E+00 -0.15174175988E+03  0.15174175988E+03  0.00000000000E+00 0.  1.
    9000007    1    1    2  502    0 -0.81148790857E+02  0.15237787736E+02  0.26005835667E+03  0.48419796087E+03  0.40000000000E+03 0.  1.
   -9000007    1    1    2    0  501  0.81148790857E+02 -0.15237787736E+02  0.10115574607E+04  0.10909013763E+04  0.40000000000E+03 0. -1.
<mgrwt>
<rscale>  2 0.40843276E+03</rscale>
<asrwt>0</asrwt>
<pdfrwt beam="1">  1        2 0.21897808E+00 0.40843276E+03</pdfrwt>
<pdfrwt beam="2">  1       -2 0.23344887E-01 0.40843276E+03</pdfrwt>
<totfact> 0.23791646E+02</totfact>
</mgrwt>
</event>
<event>
 4    1  0.2474915E-002  0.4145313E+03  0.7818608E-02  0.1038861E+00
          2   -1    0    0  502    0  0.00000000000E+00  0.00000000000E+00  0.44029258448E+03  0.44029258448E+03  0.00000000000E+00 0.  1.
         -2   -1    0    0    0  501 -0.00000000000E+00 -0.00000000000E+00 -0.39164630202E+03  0.39164630202E+03  0.00000000000E+00 0. -1.
    9000007    1    1    2  502    0 -0.20477244909E+02  0.10684979418E+03 -0.27024112993E+00  0.41453138495E+03  0.40000000000E+03 0. -1.
   -9000007    1    1    2    0  501  0.20477244909E+02 -0.10684979418E+03  0.48916523589E+02  0.41740750156E+03  0.40000000000E+03 0. -1.
<mgrwt>
<rscale>  2 0.41453130E+03</rscale>
<asrwt>0</asrwt>
<pdfrwt beam="1">  1        2 0.67737321E-01 0.41453130E+03</pdfrwt>
<pdfrwt beam="2">  1       -2 0.60253277E-01 0.41453130E+03</pdfrwt>
<totfact> 0.18787555E+02</totfact>
</mgrwt>
</event>
<event>
 4    1  0.2474915E-002  0.4196481E+03  0.7818608E-02  0.1037181E+00
          2   -1    0    0  502    0  0.00000000000E+00  0.00000000000E+00  0.13379779815E+04  0.13379779815E+04  0.00000000000E+00 0.  1.
         -2   -1    0    0    0  501 -0.00000000000E+00 -0.00000000000E+00 -0.14027460188E+03  0.14027460188E+03  0.00000000000E+00 0. -1.
    9000007    1    1    2  502    0 -0.61468303021E+02  0.11102321963E+03  0.78244445805E+03  0.88787602598E+03  0.40000000000E+03 0. -1.
   -9000007    1    1    2    0  501  0.61468303021E+02 -0.11102321963E+03  0.41525892153E+03  0.59037655736E+03  0.40000000000E+03 0.  1.
<mgrwt>
<rscale>  2 0.41964808E+03</rscale>
<asrwt>0</asrwt>
<pdfrwt beam="1">  1        2 0.20584276E+00 0.41964808E+03</pdfrwt>
<pdfrwt beam="2">  1       -2 0.21580709E-01 0.41964808E+03</pdfrwt>
<totfact> 0.30429993E+02</totfact>
</mgrwt>
</event>
<event>
 4    1  0.2474915E-002  0.4998383E+03  0.7818608E-02  0.1013821E+00
         -2   -1    0    0    0  501 -0.00000000000E+00  0.00000000000E+00  0.75510461622E+02  0.75510461622E+02  0.00000000000E+00 0.  1.
          2   -1    0    0  502    0  0.00000000000E+00 -0.00000000000E+00 -0.39426845959E+04  0.39426845959E+04  0.00000000000E+00 0. -1.
    9000007    1    1    2  502    0  0.29807716102E+03  0.31437600472E+02 -0.11279143971E+04  0.12337054770E+04  0.40000000000E+03 0. -1.
   -9000007    1    1    2    0  501 -0.29807716102E+03 -0.31437600472E+02 -0.27392597371E+04  0.27844895805E+04  0.40000000000E+03 0. -1.
<mgrwt>
<rscale>  2 0.49983829E+03</rscale>
<asrwt>0</asrwt>
<pdfrwt beam="1">  1        2 0.60656680E+00 0.49983829E+03</pdfrwt>
<pdfrwt beam="2">  1       -2 0.11616995E-01 0.49983829E+03</pdfrwt>
<totfact> 0.23711399E+01</totfact>
</mgrwt>
</event>
<event>
 4    1  0.2474915E-002  0.9395275E+03  0.7818608E-02  0.9377476E-01
          1   -1    0    0  502    0  0.00000000000E+00  0.00000000000E+00  0.18491513333E+04  0.18491513333E+04  0.00000000000E+00 0.  1.
         -1   -1    0    0    0  501 -0.00000000000E+00 -0.00000000000E+00 -0.49290924795E+03  0.49290924795E+03  0.00000000000E+00 0. -1.
    9000007    1    1    2  502    0 -0.16607179960E+03  0.83374575941E+03  0.47013598304E+03  0.10505901563E+04  0.40000000000E+03 0. -1.
   -9000007    1    1    2    0  501  0.16607179960E+03 -0.83374575941E+03  0.88610610232E+03  0.12914704250E+04  0.40000000000E+03 0.  1.
<mgrwt>
<rscale>  2 0.93952745E+03</rscale>
<asrwt>0</asrwt>
<pdfrwt beam="1">  1        1 0.28448482E+00 0.93952745E+03</pdfrwt>
<pdfrwt beam="2">  1       -1 0.75832193E-01 0.93952745E+03</pdfrwt>
<totfact> 0.67036550E+00</totfact>
</mgrwt>
</event>
<event>
 4    1  0.2474915E-002  0.4305838E+03  0.7818608E-02  0.1033676E+00
          2   -1    0    0  502    0  0.00000000000E+00  0.00000000000E+00  0.15859281409E+04  0.15859281409E+04  0.00000000000E+00 0.  1.
         -2   -1    0    0    0  501 -0.00000000000E+00 -0.00000000000E+00 -0.12526386509E+03  0.12526386509E+03  0.00000000000E+00 0. -1.
    9000007    1    1    2  502    0  0.71947282958E+02 -0.14221806695E+03  0.95135557763E+03  0.10442604202E+04  0.40000000000E+03 0.  1.
   -9000007    1    1    2    0  501 -0.71947282958E+02  0.14221806695E+03  0.50930869814E+03  0.66693158577E+03  0.40000000000E+03 0. -1.
<mgrwt>
<rscale>  2 0.43058378E+03</rscale>
<asrwt>0</asrwt>
<pdfrwt beam="1">  1        2 0.24398893E+00 0.43058378E+03</pdfrwt>
<pdfrwt beam="2">  1       -2 0.19271365E-01 0.43058378E+03</pdfrwt>
<totfact> 0.27036946E+02</totfact>
</mgrwt>
</event>
<event>
 4    1  0.2474915E-002  0.5868883E+03  0.7818608E-02  0.9932988E-01
          2   -1    0    0  502    0  0.00000000000E+00  0.00000000000E+00  0.14676395788E+04  0.14676395788E+04  0.00000000000E+00 0. -1.
         -2   -1    0    0    0  501 -0.00000000000E+00 -0.00000000000E+00 -0.23494034733E+03  0.23494034733E+03  0.00000000000E+00 0.  1.
    9000007    1    1    2  502    0 -0.62651069475E+01 -0.42941665416E+03  0.64422974227E+03  0.87147568828E+03  0.40000000000E+03 0.  1.
   -9000007    1    1    2    0  501  0.62651069475E+01  0.42941665416E+03  0.58846948917E+03  0.83110423782E+03  0.40000000000E+03 0. -1.
<mgrwt>
<rscale>  2 0.58688833E+03</rscale>
<asrwt>0</asrwt>
<pdfrwt beam="1">  1        2 0.22579070E+00 0.58688833E+03</pdfrwt>
<pdfrwt beam="2">  1       -2 0.36144670E-01 0.58688833E+03</pdfrwt>
<totfact> 0.98691174E+01</totfact>
</mgrwt>
</event>
<event>
 4    1  0.2474915E-002  0.5118319E+03  0.7818608E-02  0.1010736E+00
          1   -1    0    0  502    0  0.00000000000E+00  0.00000000000E+00  0.10986867222E+04  0.10986867222E+04  0.00000000000E+00 0.  1.
         -1   -1    0    0    0  501 -0.00000000000E+00 -0.00000000000E+00 -0.33607488515E+03  0.33607488515E+03  0.00000000000E+00 0. -1.
    9000007    1    1    2  502    0  0.31296600693E+03  0.63436425891E+02 -0.53566461515E+01  0.51185993717E+03  0.40000000000E+03 0. -1.
   -9000007    1    1    2    0  501 -0.31296600693E+03 -0.63436425891E+02  0.76796848321E+03  0.92290167018E+03  0.40000000000E+03 0.  1.
<mgrwt>
<rscale>  2 0.51183191E+03</rscale>
<asrwt>0</asrwt>
<pdfrwt beam="1">  1        1 0.16902872E+00 0.51183191E+03</pdfrwt>
<pdfrwt beam="2">  1       -1 0.51703829E-01 0.51183191E+03</pdfrwt>
<totfact> 0.50474125E+01</totfact>
</mgrwt>
</event>
<event>
 4    1  0.2474915E-002  0.5235367E+03  0.7818608E-02  0.1007812E+00
         -2   -1    0    0    0  501 -0.00000000000E+00  0.00000000000E+00  0.12363508067E+03  0.12363508067E+03  0.00000000000E+00 0.  1.
          2   -1    0    0  502    0  0.00000000000E+00 -0.00000000000E+00 -0.22169844653E+04  0.22169844653E+04  0.00000000000E+00 0. -1.
    9000007    1    1    2  502    0 -0.27604370222E+03  0.19465488302E+03 -0.10410177608E+04  0.11652504569E+04  0.40000000000E+03 0. -1.
   -9000007    1    1    2    0  501  0.27604370222E+03 -0.19465488302E+03 -0.10523316239E+04  0.11753690891E+04  0.40000000000E+03 0. -1.
<mgrwt>
<rscale>  2 0.52353667E+03</rscale>
<asrwt>0</asrwt>
<pdfrwt beam="1">  1        2 0.34107453E+00 0.52353667E+03</pdfrwt>
<pdfrwt beam="2">  1       -2 0.19020782E-01 0.52353667E+03</pdfrwt>
<totfact> 0.12478999E+02</totfact>
</mgrwt>
</event>
<event>
 4    1  0.2474915E-002  0.4091354E+03  0.7818608E-02  0.1040662E+00
         -1   -1    0    0    0  501 -0.00000000000E+00  0.00000000000E+00  0.16506411972E+03  0.16506411972E+03  0.00000000000E+00 0. -1.
          1   -1    0    0  502    0  0.00000000000E+00 -0.00000000000E+00 -0.10852883953E+04  0.10852883953E+04  0.00000000000E+00 0.  1.
    9000007    1    1    2  502    0 -0.76910604194E+02 -0.38426195327E+02 -0.62022607768E+03  0.74301561286E+03  0.40000000000E+03 0.  1.
   -9000007    1    1    2    0  501  0.76910604194E+02  0.38426195327E+02 -0.29999819786E+03  0.50733690211E+03  0.40000000000E+03 0. -1.
<mgrwt>
<rscale>  2 0.40913545E+03</rscale>
<asrwt>0</asrwt>
<pdfrwt beam="1">  1        1 0.16696744E+00 0.40913545E+03</pdfrwt>
<pdfrwt beam="2">  1       -1 0.25394480E-01 0.40913545E+03</pdfrwt>
<totfact> 0.18554183E+02</totfact>
</mgrwt>
</event>
<event>
 4    1  0.2474915E-002  0.4346780E+03  0.7818608E-02  0.1032392E+00
         -2   -1    0    0    0  501 -0.00000000000E+00  0.00000000000E+00  0.97383695845E+03  0.97383695845E+03  0.00000000000E+00 0. -1.
          2   -1    0    0  502    0  0.00000000000E+00 -0.00000000000E+00 -0.27382813019E+03  0.27382813019E+03  0.00000000000E+00 0.  1.
    9000007    1    1    2  502    0 -0.15610470839E+03  0.67648133385E+02  0.13221940474E+02  0.43487902875E+03  0.40000000000E+03 0.  1.
   -9000007    1    1    2    0  501  0.15610470839E+03 -0.67648133385E+02  0.68678688778E+03  0.81278605989E+03  0.40000000000E+03 0. -1.
<mgrwt>
<rscale>  2 0.43467798E+03</rscale>
<asrwt>0</asrwt>
<pdfrwt beam="1">  1        2 0.42127405E-01 0.43467798E+03</pdfrwt>
<pdfrwt beam="2">  1       -2 0.14982107E+00 0.43467798E+03</pdfrwt>
<totfact> 0.37930443E+01</totfact>
</mgrwt>
</event>
<event>
 4    1  0.2474915E-002  0.8594242E+03  0.7818608E-02  0.9477775E-01
          1   -1    0    0  502    0  0.00000000000E+00  0.00000000000E+00  0.97101462413E+03  0.97101462413E+03  0.00000000000E+00 0. -1.
         -1   -1    0    0    0  501 -0.00000000000E+00 -0.00000000000E+00 -0.14710035804E+04  0.14710035804E+04  0.00000000000E+00 0.  1.
    9000007    1    1    2  502    0  0.34574040900E+03  0.67754959394E+03  0.59849591235E+03  0.10472856534E+04  0.40000000000E+03 0. -1.
   -9000007    1    1    2    0  501 -0.34574040900E+03 -0.67754959394E+03 -0.10984848686E+04  0.13947325511E+04  0.40000000000E+03 0.  1.
<mgrwt>
<rscale>  2 0.85942416E+03</rscale>
<asrwt>0</asrwt>
<pdfrwt beam="1">  1        1 0.14938687E+00 0.85942416E+03</pdfrwt>
<pdfrwt beam="2">  1       -1 0.22630824E+00 0.85942416E+03</pdfrwt>
<totfact> 0.16357506E+00</totfact>
</mgrwt>
</event>
<event>
 4    1  0.2474915E-002  0.4096084E+03  0.7818608E-02  0.1040503E+00
         -2   -1    0    0    0  501 -0.00000000000E+00  0.00000000000E+00  0.76299340346E+02  0.76299340346E+02  0.00000000000E+00 0.  1.
          2   -1    0    0  502    0  0.00000000000E+00 -0.00000000000E+00 -0.21993380926E+04  0.21993380926E+04  0.00000000000E+00 0. -1.
    9000007    1    1    2  502    0 -0.17068311622E+02  0.86531446153E+02 -0.10465546262E+04  0.11238574660E+04  0.40000000000E+03 0. -1.
   -9000007    1    1    2    0  501  0.17068311622E+02 -0.86531446153E+02 -0.10764841261E+04  0.11517799669E+04  0.40000000000E+03 0. -1.
<mgrwt>
<rscale>  2 0.40960837E+03</rscale>
<asrwt>0</asrwt>
<pdfrwt beam="1">  1        2 0.33835965E+00 0.40960837E+03</pdfrwt>
<pdfrwt beam="2">  1       -2 0.11738362E-01 0.40960837E+03</pdfrwt>
<totfact> 0.29175687E+02</totfact>
</mgrwt>
</event>
<event>
 4    1  0.2474915E-002  0.4223290E+03  0.7818608E-02  0.1036311E+00
         -2   -1    0    0    0  501 -0.00000000000E+00  0.00000000000E+00  0.37435604751E+03  0.37435604751E+03  0.00000000000E+00 0. -1.
          2   -1    0    0  502    0  0.00000000000E+00 -0.00000000000E+00 -0.58151691073E+03  0.58151691073E+03  0.00000000000E+00 0.  1.
    9000007    1    1    2  502    0 -0.13525934605E+03 -0.81680903330E+01  0.99572319123E+02  0.43390834877E+03  0.40000000000E+03 0. -1.
   -9000007    1    1    2    0  501  0.13525934605E+03  0.81680903330E+01 -0.30673318234E+03  0.52196460948E+03  0.40000000000E+03 0.  1.
<mgrwt>
<rscale>  2 0.42232903E+03</rscale>
<asrwt>0</asrwt>
<pdfrwt beam="1">  1        2 0.89464140E-01 0.42232903E+03</pdfrwt>
<pdfrwt beam="2">  1       -2 0.57593238E-01 0.42232903E+03</pdfrwt>
<totfact> 0.15001956E+02</totfact>
</mgrwt>
</event>
<event>
 4    1  0.2474915E-002  0.4260857E+03  0.7818608E-02  0.1035104E+00
          1   -1    0    0  502    0  0.00000000000E+00  0.00000000000E+00  0.60385491661E+03  0.60385491661E+03  0.00000000000E+00 0.  1.
         -1   -1    0    0    0  501 -0.00000000000E+00 -0.00000000000E+00 -0.32298928212E+03  0.32298928212E+03  0.00000000000E+00 0. -1.
    9000007    1    1    2  502    0  0.14490914121E+03  0.23459817635E+02  0.18557257893E+02  0.42648961778E+03  0.40000000000E+03 0. -1.
   -9000007    1    1    2    0  501 -0.14490914121E+03 -0.23459817635E+02  0.26230837660E+03  0.50035458096E+03  0.40000000000E+03 0.  1.
<mgrwt>
<rscale>  2 0.42608570E+03</rscale>
<asrwt>0</asrwt>
<pdfrwt beam="1">  1        1 0.92900756E-01 0.42608570E+03</pdfrwt>
<pdfrwt beam="2">  1       -1 0.49690659E-01 0.42608570E+03</pdfrwt>
<totfact> 0.14365222E+02</totfact>
</mgrwt>
</event>
<event>
 4    1  0.2474915E-002  0.4894264E+03  0.7818608E-02  0.1016576E+00
         -1   -1    0    0    0  501 -0.00000000000E+00  0.00000000000E+00  0.27983354257E+03  0.27983354257E+03  0.00000000000E+00 0.  1.
          1   -1    0    0  502    0  0.00000000000E+00 -0.00000000000E+00 -0.15488147858E+04  0.15488147858E+04  0.00000000000E+00 0. -1.
    9000007    1    1    2  502    0 -0.27262221155E+03  0.72216921245E+02 -0.12460073050E+04  0.13386830686E+04  0.40000000000E+03 0. -1.
   -9000007    1    1    2    0  501  0.27262221155E+03 -0.72216921245E+02 -0.22973938190E+02  0.48996525977E+03  0.40000000000E+03 0.  1.
<mgrwt>
<rscale>  2 0.48942635E+03</rscale>
<asrwt>0</asrwt>
<pdfrwt beam="1">  1        1 0.23827920E+00 0.48942635E+03</pdfrwt>
<pdfrwt beam="2">  1       -1 0.43051315E-01 0.48942635E+03</pdfrwt>
<totfact> 0.34518231E+01</totfact>
</mgrwt>
</event>
<event>
 4    1  0.2474915E-002  0.4948398E+03  0.7818608E-02  0.1015135E+00
          3   -1    0    0  502    0  0.00000000000E+00  0.00000000000E+00  0.17647471830E+03  0.17647471830E+03  0.00000000000E+00 0.  1.
         -3   -1    0    0    0  501 -0.00000000000E+00 -0.00000000000E+00 -0.17277920542E+04  0.17277920542E+04  0.00000000000E+00 0. -1.
    9000007    1    1    2  502    0  0.30108878475E+01  0.29130280453E+03 -0.35313596123E+03  0.60792384103E+03  0.40000000000E+03 0.  1.
   -9000007    1    1    2    0  501 -0.30108878475E+01 -0.29130280453E+03 -0.11981813746E+04  0.12963429314E+04  0.40000000000E+03 0.  1.
<mgrwt>
<rscale>  2 0.49483976E+03</rscale>
<asrwt>0</asrwt>
<pdfrwt beam="1">  1        3 0.27149957E-01 0.49483976E+03</pdfrwt>
<pdfrwt beam="2">  1       -3 0.26581416E+00 0.49483976E+03</pdfrwt>
<totfact> 0.20952180E+00</totfact>
</mgrwt>
</event>
<event>
 4    1  0.2474915E-002  0.4544823E+03  0.7818608E-02  0.1026394E+00
         -2   -1    0    0    0  501 -0.00000000000E+00  0.00000000000E+00  0.19106459204E+03  0.19106459204E+03  0.00000000000E+00 0.  1.
          2   -1    0    0  502    0  0.00000000000E+00 -0.00000000000E+00 -0.24549973148E+04  0.24549973148E+04  0.00000000000E+00 0. -1.
    9000007    1    1    2  502    0  0.14889079421E+03  0.15615933134E+03 -0.14221440817E+03  0.47621333797E+03  0.40000000000E+03 0.  1.
   -9000007    1    1    2    0  501 -0.14889079421E+03 -0.15615933134E+03 -0.21217183146E+04  0.21698485689E+04  0.40000000000E+03 0. -1.
<mgrwt>
<rscale>  2 0.45448235E+03</rscale>
<asrwt>0</asrwt>
<pdfrwt beam="1">  1        2 0.37769186E+00 0.45448235E+03</pdfrwt>
<pdfrwt beam="2">  1       -2 0.29394555E-01 0.45448235E+03</pdfrwt>
<totfact> 0.43132235E+01</totfact>
</mgrwt>
</event>
<event>
 4    1  0.2474915E-002  0.4406022E+03  0.7818608E-02  0.1030562E+00
         -1   -1    0    0    0  501 -0.00000000000E+00  0.00000000000E+00  0.20473668430E+03  0.20473668430E+03  0.00000000000E+00 0. -1.
          1   -1    0    0  502    0  0.00000000000E+00 -0.00000000000E+00 -0.10231853989E+04  0.10231853989E+04  0.00000000000E+00 0.  1.
    9000007    1    1    2  502    0  0.10435919137E+03 -0.15244482323E+03 -0.24301059502E+03  0.50317433783E+03  0.40000000000E+03 0. -1.
   -9000007    1    1    2    0  501 -0.10435919137E+03  0.15244482323E+03 -0.57543811958E+03  0.72474774537E+03  0.40000000000E+03 0.  1.
<mgrwt>
<rscale>  2 0.44060216E+03</rscale>
<asrwt>0</asrwt>
<pdfrwt beam="1">  1        1 0.15741314E+00 0.44060216E+03</pdfrwt>
<pdfrwt beam="2">  1       -1 0.31497951E-01 0.44060216E+03</pdfrwt>
<totfact> 0.14222356E+02</totfact>
</mgrwt>
</event>
<event>
 4    1  0.2474915E-002  0.4764896E+03  0.7818608E-02  0.1020104E+00
          2   -1    0    0  502    0  0.00000000000E+00  0.00000000000E+00  0.66051512151E+03  0.66051512151E+03  0.00000000000E+00 0.  1.
         -2   -1    0    0    0  501 -0.00000000000E+00 -0.00000000000E+00 -0.34652404052E+03  0.34652404052E+03  0.00000000000E+00 0. -1.
    9000007    1    1    2  502    0  0.25889311463E+03 -0.40838655154E+01  0.20216641816E+03  0.51760369337E+03  0.40000000000E+03 0.  1.
   -9000007    1    1    2    0  501 -0.25889311463E+03  0.40838655154E+01  0.11182466284E+03  0.48943546866E+03  0.40000000000E+03 0.  1.
<mgrwt>
<rscale>  2 0.47648958E+03</rscale>
<asrwt>0</asrwt>
<pdfrwt beam="1">  1        2 0.10161771E+00 0.47648958E+03</pdfrwt>
<pdfrwt beam="2">  1       -2 0.53311391E-01 0.47648958E+03</pdfrwt>
<totfact> 0.15035719E+02</totfact>
</mgrwt>
</event>
<event>
 4    1  0.2474915E-002  0.5635783E+03  0.7818608E-02  0.9983990E-01
         -1   -1    0    0    0  501 -0.00000000000E+00  0.00000000000E+00  0.32318700892E+03  0.32318700892E+03  0.00000000000E+00 0. -1.
          1   -1    0    0  502    0  0.00000000000E+00 -0.00000000000E+00 -0.98456021348E+03  0.98456021348E+03  0.00000000000E+00 0.  1.
    9000007    1    1    2  502    0 -0.37125221913E+03 -0.14068518284E+03 -0.35851962014E+03  0.66794973532E+03  0.40000000000E+03 0.  1.
   -9000007    1    1    2    0  501  0.37125221913E+03  0.14068518284E+03 -0.30285358442E+03  0.63979748709E+03  0.40000000000E+03 0. -1.
<mgrwt>
<rscale>  2 0.56357833E+03</rscale>
<asrwt>0</asrwt>
<pdfrwt beam="1">  1        1 0.15147080E+00 0.56357833E+03</pdfrwt>
<pdfrwt beam="2">  1       -1 0.49721079E-01 0.56357833E+03</pdfrwt>
<totfact> 0.65806813E+01</totfact>
</mgrwt>
</event>
<event>
 4    1  0.2474915E-002  0.4559121E+03  0.7818608E-02  0.1025974E+00
          1   -1    0    0  502    0  0.00000000000E+00  0.00000000000E+00  0.79432012670E+03  0.79432012670E+03  0.00000000000E+00 0. -1.
         -1   -1    0    0    0  501 -0.00000000000E+00 -0.00000000000E+00 -0.30195004976E+03  0.30195004976E+03  0.00000000000E+00 0.  1.
    9000007    1    1    2  502    0 -0.18236216817E+03 -0.12082989749E+03  0.44636647566E+03  0.63804298844E+03  0.40000000000E+03 0. -1.
   -9000007    1    1    2    0  501  0.18236216817E+03  0.12082989749E+03  0.46003601275E+02  0.45822718801E+03  0.40000000000E+03 0.  1.
<mgrwt>
<rscale>  2 0.45591208E+03</rscale>
<asrwt>0</asrwt>
<pdfrwt beam="1">  1        1 0.12220310E+00 0.45591208E+03</pdfrwt>
<pdfrwt beam="2">  1       -1 0.46453854E-01 0.45591208E+03</pdfrwt>
<totfact> 0.10798613E+02</totfact>
</mgrwt>
</event>
<event>
 4    1  0.2474915E-002  0.4418333E+03  0.7818608E-02  0.1030186E+00
          1   -1    0    0  502    0  0.00000000000E+00  0.00000000000E+00  0.75818399321E+03  0.75818399321E+03  0.00000000000E+00 0.  1.
         -1   -1    0    0    0  501 -0.00000000000E+00 -0.00000000000E+00 -0.26707286010E+03  0.26707286010E+03  0.00000000000E+00 0. -1.
    9000007    1    1    2  502    0  0.11321844114E+03  0.14966032215E+03  0.14839738212E+03  0.46608841485E+03  0.40000000000E+03 0. -1.
   -9000007    1    1    2    0  501 -0.11321844114E+03 -0.14966032215E+03  0.34271375099E+03  0.55916843845E+03  0.40000000000E+03 0.  1.
<mgrwt>
<rscale>  2 0.44183326E+03</rscale>
<asrwt>0</asrwt>
<pdfrwt beam="1">  1        1 0.11664369E+00 0.44183326E+03</pdfrwt>
<pdfrwt beam="2">  1       -1 0.41088133E-01 0.44183326E+03</pdfrwt>
<totfact> 0.14551850E+02</totfact>
</mgrwt>
</event>
<event>
 4    1  0.2474915E-002  0.5160440E+03  0.7818608E-02  0.1009674E+00
         -2   -1    0    0    0  501 -0.00000000000E+00  0.00000000000E+00  0.32172247280E+03  0.32172247280E+03  0.00000000000E+00 0. -1.
          2   -1    0    0  502    0  0.00000000000E+00 -0.00000000000E+00 -0.95413666381E+03  0.95413666381E+03  0.00000000000E+00 0.  1.
    9000007    1    1    2  502    0 -0.27155440169E+03  0.18044290235E+03 -0.54839588959E+03  0.75302024263E+03  0.40000000000E+03 0.  1.
   -9000007    1    1    2    0  501  0.27155440169E+03 -0.18044290235E+03 -0.84018301418E+02  0.52283889398E+03  0.40000000000E+03 0. -1.
<mgrwt>
<rscale>  2 0.51604402E+03</rscale>
<asrwt>0</asrwt>
<pdfrwt beam="1">  1        2 0.14679026E+00 0.51604402E+03</pdfrwt>
<pdfrwt beam="2">  1       -2 0.49495765E-01 0.51604402E+03</pdfrwt>
<totfact> 0.10768938E+02</totfact>
</mgrwt>
</event>
<event>
 4    1  0.2474915E-002  0.4004729E+03  0.7818608E-02  0.1043616E+00
         -1   -1    0    0    0  501 -0.00000000000E+00  0.00000000000E+00  0.88988031672E+02  0.88988031672E+02  0.00000000000E+00 0.  1.
          1   -1    0    0  502    0  0.00000000000E+00 -0.00000000000E+00 -0.18355793658E+04  0.18355793658E+04  0.00000000000E+00 0. -1.
    9000007    1    1    2  502    0  0.86701977606E+01 -0.17417539268E+02 -0.74362548932E+03  0.84460488476E+03  0.40000000000E+03 0.  1.
   -9000007    1    1    2    0  501 -0.86701977606E+01  0.17417539268E+02 -0.10029658448E+04  0.10799625127E+04  0.40000000000E+03 0. -1.
<mgrwt>
<rscale>  2 0.40047290E+03</rscale>
<asrwt>0</asrwt>
<pdfrwt beam="1">  1        1 0.28239679E+00 0.40047290E+03</pdfrwt>
<pdfrwt beam="2">  1       -1 0.13690468E-01 0.40047290E+03</pdfrwt>
<totfact> 0.15712790E+02</totfact>
</mgrwt>
</event>
<event>
 4    1  0.2474915E-002  0.4340746E+03  0.7818608E-02  0.1032580E+00
         -2   -1    0    0    0  501 -0.00000000000E+00  0.00000000000E+00  0.10186323956E+03  0.10186323956E+03  0.00000000000E+00 0.  1.
          2   -1    0    0  502    0  0.00000000000E+00 -0.00000000000E+00 -0.19238224890E+04  0.19238224890E+04  0.00000000000E+00 0. -1.
    9000007    1    1    2  502    0  0.54405324227E+02  0.15956457315E+03 -0.11097305672E+04  0.11916051041E+04  0.40000000000E+03 0.  1.
   -9000007    1    1    2    0  501 -0.54405324227E+02 -0.15956457315E+03 -0.71222868221E+03  0.83408062444E+03  0.40000000000E+03 0.  1.
<mgrwt>
<rscale>  2 0.43407464E+03</rscale>
<asrwt>0</asrwt>
<pdfrwt beam="1">  1        2 0.29597265E+00 0.43407464E+03</pdfrwt>
<pdfrwt beam="2">  1       -2 0.15671270E-01 0.43407464E+03</pdfrwt>
<totfact> 0.25318912E+02</totfact>
</mgrwt>
</event>
<event>
 4    1  0.2474915E-002  0.4452606E+03  0.7818608E-02  0.1029145E+00
          1   -1    0    0  502    0  0.00000000000E+00  0.00000000000E+00  0.19279382097E+04  0.19279382097E+04  0.00000000000E+00 0.  1.
         -1   -1    0    0    0  501 -0.00000000000E+00 -0.00000000000E+00 -0.11166144364E+03  0.11166144364E+03  0.00000000000E+00 0. -1.
    9000007    1    1    2  502    0 -0.18043977048E+03  0.75488208173E+02  0.62139812596E+03  0.76445576150E+03  0.40000000000E+03 0. -1.
   -9000007    1    1    2    0  501  0.18043977048E+03 -0.75488208173E+02  0.11948786401E+04  0.12751438918E+04  0.40000000000E+03 0.  1.
<mgrwt>
<rscale>  2 0.44526058E+03</rscale>
<asrwt>0</asrwt>
<pdfrwt beam="1">  1        1 0.29660585E+00 0.44526058E+03</pdfrwt>
<pdfrwt beam="2">  1       -1 0.17178685E-01 0.44526058E+03</pdfrwt>
<totfact> 0.94051159E+01</totfact>
</mgrwt>
</event>
<event>
 4    1  0.2474915E-002  0.6088379E+03  0.7818608E-02  0.9887238E-01
         -2   -1    0    0    0  501 -0.00000000000E+00  0.00000000000E+00  0.16363052085E+03  0.16363052085E+03  0.00000000000E+00 0. -1.
          2   -1    0    0  502    0  0.00000000000E+00 -0.00000000000E+00 -0.26734378807E+04  0.26734378807E+04  0.00000000000E+00 0.  1.
    9000007    1    1    2  502    0  0.31094205719E+03  0.33763674486E+03 -0.18091099302E+04  0.19088117440E+04  0.40000000000E+03 0.  1.
   -9000007    1    1    2    0  501 -0.31094205719E+03 -0.33763674486E+03 -0.70069742969E+03  0.92825665760E+03  0.40000000000E+03 0. -1.
<mgrwt>
<rscale>  2 0.60883786E+03</rscale>
<asrwt>0</asrwt>
<pdfrwt beam="1">  1        2 0.41129813E+00 0.60883786E+03</pdfrwt>
<pdfrwt beam="2">  1       -2 0.25173927E-01 0.60883786E+03</pdfrwt>
<totfact> 0.41703376E+01</totfact>
</mgrwt>
</event>
<event>
 4    1  0.2474915E-002  0.5027113E+03  0.7818608E-02  0.1013074E+00
         -2   -1    0    0    0  501 -0.00000000000E+00  0.00000000000E+00  0.12822161346E+03  0.12822161346E+03  0.00000000000E+00 0.  1.
          2   -1    0    0  502    0  0.00000000000E+00 -0.00000000000E+00 -0.22870249913E+04  0.22870249913E+04  0.00000000000E+00 0. -1.
    9000007    1    1    2  502    0  0.24884761546E+03  0.17548077993E+03 -0.63046018917E+03  0.80634898771E+03  0.40000000000E+03 0.  1.
   -9000007    1    1    2    0  501 -0.24884761546E+03 -0.17548077993E+03 -0.15283431887E+04  0.16088976171E+04  0.40000000000E+03 0. -1.
<mgrwt>
<rscale>  2 0.50271129E+03</rscale>
<asrwt>0</asrwt>
<pdfrwt beam="1">  1        2 0.35184999E+00 0.50271129E+03</pdfrwt>
<pdfrwt beam="2">  1       -2 0.19726403E-01 0.50271129E+03</pdfrwt>
<totfact> 0.10763166E+02</totfact>
</mgrwt>
</event>
<event>
 4    1  0.2474915E-002  0.4369867E+03  0.7818608E-02  0.1031675E+00
         -3   -1    0    0    0  501 -0.00000000000E+00  0.00000000000E+00  0.18137359277E+04  0.18137359277E+04  0.00000000000E+00 0.  1.
          3   -1    0    0  502    0  0.00000000000E+00 -0.00000000000E+00 -0.15932586832E+03  0.15932586832E+03  0.00000000000E+00 0. -1.
    9000007    1    1    2  502    0 -0.17439215465E+03  0.23340364457E+02  0.25264862289E+03  0.50476600803E+03  0.40000000000E+03 0. -1.
   -9000007    1    1    2    0  501  0.17439215465E+03 -0.23340364457E+02  0.14017614365E+04  0.14682957880E+04  0.40000000000E+03 0.  1.
<mgrwt>
<rscale>  2 0.43698672E+03</rscale>
<asrwt>0</asrwt>
<pdfrwt beam="1">  1        3 0.24511673E-01 0.43698672E+03</pdfrwt>
<pdfrwt beam="2">  1       -3 0.27903628E+00 0.43698672E+03</pdfrwt>
<totfact> 0.21482546E+00</totfact>
</mgrwt>
</event>
<event>
 4    1  0.2474915E-002  0.5643230E+03  0.7818608E-02  0.9982320E-01
          2   -1    0    0  502    0  0.00000000000E+00  0.00000000000E+00  0.33003757148E+03  0.33003757148E+03  0.00000000000E+00 0.  1.
         -2   -1    0    0    0  501 -0.00000000000E+00 -0.00000000000E+00 -0.97519020420E+03  0.97519020420E+03  0.00000000000E+00 0. -1.
    9000007    1    1    2  502    0  0.37031268243E+03  0.14604431852E+03 -0.25560874930E+03  0.61951292033E+03  0.40000000000E+03 0.  1.
   -9000007    1    1    2    0  501 -0.37031268243E+03 -0.14604431852E+03 -0.38954388342E+03  0.68571485535E+03  0.40000000000E+03 0. -1.
<mgrwt>
<rscale>  2 0.56432298E+03</rscale>
<asrwt>0</asrwt>
<pdfrwt beam="1">  1        2 0.50775011E-01 0.56432298E+03</pdfrwt>
<pdfrwt beam="2">  1       -2 0.15002926E+00 0.56432298E+03</pdfrwt>
<totfact> 0.30371581E+01</totfact>
</mgrwt>
</event>
<event>
 4    1  0.2474915E-002  0.4268653E+03  0.7818608E-02  0.1034855E+00
          2   -1    0    0  502    0  0.00000000000E+00  0.00000000000E+00  0.35873263857E+03  0.35873263857E+03  0.00000000000E+00 0.  1.
         -2   -1    0    0    0  501 -0.00000000000E+00 -0.00000000000E+00 -0.52893858133E+03  0.52893858133E+03  0.00000000000E+00 0. -1.
    9000007    1    1    2  502    0 -0.58413748152E+02 -0.13711968453E+03  0.33340635941E+01  0.42687830800E+03  0.40000000000E+03 0. -1.
   -9000007    1    1    2    0  501  0.58413748152E+02  0.13711968453E+03 -0.17354000636E+03  0.46079291191E+03  0.40000000000E+03 0. -1.
<mgrwt>
<rscale>  2 0.42686529E+03</rscale>
<asrwt>0</asrwt>
<pdfrwt beam="1">  1        2 0.55189636E-01 0.42686529E+03</pdfrwt>
<pdfrwt beam="2">  1       -2 0.81375167E-01 0.42686529E+03</pdfrwt>
<totfact> 0.12291164E+02</totfact>
</mgrwt>
</event>
<event>
 4    1  0.2474915E-002  0.4791293E+03  0.7818608E-02  0.1019375E+00
         -2   -1    0    0    0  501 -0.00000000000E+00  0.00000000000E+00  0.68645055461E+03  0.68645055461E+03  0.00000000000E+00 0.  1.
          2   -1    0    0  502    0  0.00000000000E+00 -0.00000000000E+00 -0.33483155787E+03  0.33483155787E+03  0.00000000000E+00 0. -1.
    9000007    1    1    2  502    0  0.15248191587E+03 -0.21520723124E+03  0.19364575063E+03  0.51678193059E+03  0.40000000000E+03 0.  1.
   -9000007    1    1    2    0  501 -0.15248191587E+03  0.21520723124E+03  0.15797324611E+03  0.50450018190E+03  0.40000000000E+03 0. -1.
<mgrwt>
<rscale>  2 0.47912930E+03</rscale>
<asrwt>0</asrwt>
<pdfrwt beam="1">  1        2 0.51512547E-01 0.47912930E+03</pdfrwt>
<pdfrwt beam="2">  1       -2 0.10560778E+00 0.47912930E+03</pdfrwt>
<totfact> 0.72373721E+01</totfact>
</mgrwt>
</event>
<event>
 4    1  0.2474915E-002  0.4372884E+03  0.7818608E-02  0.1031582E+00
          1   -1    0    0  502    0  0.00000000000E+00  0.00000000000E+00  0.57099649960E+03  0.57099649960E+03  0.00000000000E+00 0. -1.
         -1   -1    0    0    0  501 -0.00000000000E+00 -0.00000000000E+00 -0.33489053897E+03  0.33489053897E+03  0.00000000000E+00 0.  1.
    9000007    1    1    2  502    0 -0.22428286456E+02 -0.17526591286E+03  0.11764222418E+03  0.45283646182E+03  0.40000000000E+03 0.  1.
   -9000007    1    1    2    0  501  0.22428286456E+02  0.17526591286E+03  0.11846373645E+03  0.45305057675E+03  0.40000000000E+03 0.  1.
<mgrwt>
<rscale>  2 0.43728843E+03</rscale>
<asrwt>0</asrwt>
<pdfrwt beam="1">  1        1 0.87845615E-01 0.43728843E+03</pdfrwt>
<pdfrwt beam="2">  1       -1 0.51521621E-01 0.43728843E+03</pdfrwt>
<totfact> 0.14504004E+02</totfact>
</mgrwt>
</event>
<event>
 4    1  0.2474915E-002  0.4194634E+03  0.7818608E-02  0.1037241E+00
         -1   -1    0    0    0  501 -0.00000000000E+00  0.00000000000E+00  0.38855820038E+03  0.38855820038E+03  0.00000000000E+00 0. -1.
          1   -1    0    0  502    0  0.00000000000E+00 -0.00000000000E+00 -0.71979348486E+03  0.71979348486E+03  0.00000000000E+00 0.  1.
    9000007    1    1    2  502    0  0.12256598444E+03 -0.30448956902E+02 -0.50311640375E+03  0.65503868225E+03  0.40000000000E+03 0.  1.
   -9000007    1    1    2    0  501 -0.12256598444E+03  0.30448956902E+02  0.17188111928E+03  0.45331300299E+03  0.40000000000E+03 0. -1.
<mgrwt>
<rscale>  2 0.41946342E+03</rscale>
<asrwt>0</asrwt>
<pdfrwt beam="1">  1        1 0.11073746E+00 0.41946342E+03</pdfrwt>
<pdfrwt beam="2">  1       -1 0.59778186E-01 0.41946342E+03</pdfrwt>
<totfact> 0.78238271E+01</totfact>
</mgrwt>
</event>
<event>
 4    1  0.2474915E-002  0.4165541E+03  0.7818608E-02  0.1038194E+00
         -2   -1    0    0    0  501 -0.00000000000E+00  0.00000000000E+00  0.86471162257E+03  0.86471162257E+03  0.00000000000E+00 0. -1.
          2   -1    0    0  502    0  0.00000000000E+00 -0.00000000000E+00 -0.21165324025E+03  0.21165324025E+03  0.00000000000E+00 0.  1.
    9000007    1    1    2  502    0  0.11256663402E+03  0.29087700853E+02  0.20390349061E+03  0.46378224947E+03  0.40000000000E+03 0.  1.
   -9000007    1    1    2    0  501 -0.11256663402E+03 -0.29087700853E+02  0.44915489171E+03  0.61258261335E+03  0.40000000000E+03 0. -1.
<mgrwt>
<rscale>  2 0.41655413E+03</rscale>
<asrwt>0</asrwt>
<pdfrwt beam="1">  1        2 0.32562037E-01 0.41655413E+03</pdfrwt>
<pdfrwt beam="2">  1       -2 0.13303256E+00 0.41655413E+03</pdfrwt>
<totfact> 0.68500463E+01</totfact>
</mgrwt>
</event>
<event>
 4    1  0.2474915E-002  0.4695993E+03  0.7818608E-02  0.1022033E+00
         -2   -1    0    0    0  501 -0.00000000000E+00  0.00000000000E+00  0.77110455592E+02  0.77110455592E+02  0.00000000000E+00 0.  1.
          2   -1    0    0  502    0  0.00000000000E+00 -0.00000000000E+00 -0.30273838445E+04  0.30273838445E+04  0.00000000000E+00 0. -1.
    9000007    1    1    2  502    0  0.13511814765E+03  0.20558832839E+03 -0.18403048432E+04  0.18992749644E+04  0.40000000000E+03 0. -1.
   -9000007    1    1    2    0  501 -0.13511814765E+03 -0.20558832839E+03 -0.11099685457E+04  0.12052193356E+04  0.40000000000E+03 0. -1.
<mgrwt>
<rscale>  2 0.46959927E+03</rscale>
<asrwt>0</asrwt>
<pdfrwt beam="1">  1        2 0.46575136E+00 0.46959927E+03</pdfrwt>
<pdfrwt beam="2">  1       -2 0.11863147E-01 0.46959927E+03</pdfrwt>
<totfact> 0.96003111E+01</totfact>
</mgrwt>
</event>
<event>
 4    1  0.2474915E-002  0.4080359E+03  0.7818608E-02  0.1041032E+00
         -2   -1    0    0    0  501 -0.00000000000E+00  0.00000000000E+00  0.24750535692E+03  0.24750535692E+03  0.00000000000E+00 0. -1.
          2   -1    0    0  502    0  0.00000000000E+00 -0.00000000000E+00 -0.67799877817E+03  0.67799877817E+03  0.00000000000E+00 0.  1.
    9000007    1    1    2  502    0  0.31591561065E+02  0.74130178663E+02 -0.17428220659E+03  0.44369764215E+03  0.40000000000E+03 0. -1.
   -9000007    1    1    2    0  501 -0.31591561065E+02 -0.74130178663E+02 -0.25621121467E+03  0.48180649294E+03  0.40000000000E+03 0.  1.
<mgrwt>
<rscale>  2 0.40803592E+03</rscale>
<asrwt>0</asrwt>
<pdfrwt beam="1">  1        2 0.10430750E+00 0.40803592E+03</pdfrwt>
<pdfrwt beam="2">  1       -2 0.38077749E-01 0.40803592E+03</pdfrwt>
<totfact> 0.28486771E+02</totfact>
</mgrwt>
</event>
<event>
 4    1  0.2474915E-002  0.4224968E+03  0.7818608E-02  0.1036257E+00
         -2   -1    0    0    0  501 -0.00000000000E+00  0.00000000000E+00  0.80057999424E+03  0.80057999424E+03  0.00000000000E+00 0.  1.
          2   -1    0    0  502    0  0.00000000000E+00 -0.00000000000E+00 -0.25279606991E+03  0.25279606991E+03  0.00000000000E+00 0. -1.
    9000007    1    1    2  502    0  0.41676210996E+02  0.12948594415E+03  0.45481035495E+03  0.62077046906E+03  0.40000000000E+03 0.  1.
   -9000007    1    1    2    0  501 -0.41676210996E+02 -0.12948594415E+03  0.92973569389E+02  0.43260559509E+03  0.40000000000E+03 0. -1.
<mgrwt>
<rscale>  2 0.42249676E+03</rscale>
<asrwt>0</asrwt>
<pdfrwt beam="1">  1        2 0.38891703E-01 0.42249676E+03</pdfrwt>
<pdfrwt beam="2">  1       -2 0.12316615E+00 0.42249676E+03</pdfrwt>
<totfact> 0.68196718E+01</totfact>
</mgrwt>
</event>
<event>
 4    1  0.2474915E-002  0.4401593E+03  0.7818608E-02  0.1030698E+00
          2   -1    0    0  502    0  0.00000000000E+00  0.00000000000E+00  0.13016479397E+04  0.13016479397E+04  0.00000000000E+00 0.  1.
         -2   -1    0    0    0  501 -0.00000000000E+00 -0.00000000000E+00 -0.15631382094E+03  0.15631382094E+03  0.00000000000E+00 0. -1.
    9000007    1    1    2  502    0 -0.13579381198E+03  0.12369414094E+03  0.73204330539E+03  0.85418241661E+03  0.40000000000E+03 0.  1.
   -9000007    1    1    2    0  501  0.13579381198E+03 -0.12369414094E+03  0.41329081340E+03  0.60377934406E+03  0.40000000000E+03 0.  1.
<mgrwt>
<rscale>  2 0.44015929E+03</rscale>
<asrwt>0</asrwt>
<pdfrwt beam="1">  1        2 0.20025352E+00 0.44015929E+03</pdfrwt>
<pdfrwt beam="2">  1       -2 0.24048281E-01 0.44015929E+03</pdfrwt>
<totfact> 0.26296315E+02</totfact>
</mgrwt>
</event>
<event>
 4    1  0.2474915E-002  0.4216843E+03  0.7818608E-02  0.1036520E+00
         -2   -1    0    0    0  501 -0.00000000000E+00  0.00000000000E+00  0.90739502089E+02  0.90739502089E+02  0.00000000000E+00 0. -1.
          2   -1    0    0  502    0  0.00000000000E+00 -0.00000000000E+00 -0.19910059804E+04  0.19910059804E+04  0.00000000000E+00 0.  1.
    9000007    1    1    2  502    0 -0.82419482906E+02 -0.10499832453E+03 -0.81950861551E+03  0.92163549748E+03  0.40000000000E+03 0. -1.
   -9000007    1    1    2    0  501  0.82419482906E+02  0.10499832453E+03 -0.10807578628E+04  0.11601099850E+04  0.40000000000E+03 0.  1.
<mgrwt>
<rscale>  2 0.42168426E+03</rscale>
<asrwt>0</asrwt>
<pdfrwt beam="1">  1        2 0.30630860E+00 0.42168426E+03</pdfrwt>
<pdfrwt beam="2">  1       -2 0.13959924E-01 0.42168426E+03</pdfrwt>
<totfact> 0.28329044E+02</totfact>
</mgrwt>
</event>
<event>
 4    1  0.2474915E-002  0.4374095E+03  0.7818608E-02  0.1031545E+00
          2   -1    0    0  502    0  0.00000000000E+00  0.00000000000E+00  0.69011314422E+03  0.69011314422E+03  0.00000000000E+00 0. -1.
         -2   -1    0    0    0  501 -0.00000000000E+00 -0.00000000000E+00 -0.43616139463E+03  0.43616139463E+03  0.00000000000E+00 0.  1.
    9000007    1    1    2  502    0 -0.14494129162E+03 -0.10158273341E+03 -0.21294804099E+03  0.48649141607E+03  0.40000000000E+03 0.  1.
   -9000007    1    1    2    0  501  0.14494129162E+03  0.10158273341E+03  0.46689979059E+03  0.63978312278E+03  0.40000000000E+03 0. -1.
<mgrwt>
<rscale>  2 0.43740945E+03</rscale>
<asrwt>0</asrwt>
<pdfrwt beam="1">  1        2 0.10617125E+00 0.43740945E+03</pdfrwt>
<pdfrwt beam="2">  1       -2 0.67101753E-01 0.43740945E+03</pdfrwt>
<totfact> 0.88293918E+01</totfact>
</mgrwt>
</event>
<event>
 4    1  0.2474915E-002  0.4056576E+03  0.7818608E-02  0.1041838E+00
          2   -1    0    0  502    0  0.00000000000E+00  0.00000000000E+00  0.13564076311E+04  0.13564076311E+04  0.00000000000E+00 0.  1.
         -2   -1    0    0    0  501 -0.00000000000E+00 -0.00000000000E+00 -0.12490075387E+03  0.12490075387E+03  0.00000000000E+00 0. -1.
    9000007    1    1    2  502    0  0.65223676028E+02 -0.17434658720E+02  0.74117648509E+03  0.84492643306E+03  0.40000000000E+03 0.  1.
   -9000007    1    1    2    0  501 -0.65223676028E+02  0.17434658720E+02  0.49033039211E+03  0.63638195187E+03  0.40000000000E+03 0. -1.
<mgrwt>
<rscale>  2 0.40565761E+03</rscale>
<asrwt>0</asrwt>
<pdfrwt beam="1">  1        2 0.20867809E+00 0.40565761E+03</pdfrwt>
<pdfrwt beam="2">  1       -2 0.19215502E-01 0.40565761E+03</pdfrwt>
<totfact> 0.36403584E+02</totfact>
</mgrwt>
</event>
<event>
 4    1  0.2474915E-002  0.5174420E+03  0.7818608E-02  0.1009324E+00
          1   -1    0    0  502    0  0.00000000000E+00  0.00000000000E+00  0.49218770635E+03  0.49218770635E+03  0.00000000000E+00 0. -1.
         -1   -1    0    0    0  501 -0.00000000000E+00 -0.00000000000E+00 -0.56212894744E+03  0.56212894744E+03  0.00000000000E+00 0.  1.
    9000007    1    1    2  502    0  0.62053978483E+02 -0.32232829140E+03  0.59719354633E+02  0.52087678485E+03  0.40000000000E+03 0. -1.
   -9000007    1    1    2    0  501 -0.62053978483E+02  0.32232829140E+03 -0.12966059573E+03  0.53343986893E+03  0.40000000000E+03 0.  1.
<mgrwt>
<rscale>  2 0.51744200E+03</rscale>
<asrwt>0</asrwt>
<pdfrwt beam="1">  1        1 0.75721186E-01 0.51744200E+03</pdfrwt>
<pdfrwt beam="2">  1       -1 0.86481376E-01 0.51744200E+03</pdfrwt>
<totfact> 0.62290410E+01</totfact>
</mgrwt>
</event>
<event>
 4    1  0.2474915E-002  0.4648038E+03  0.7818608E-02  0.1023397E+00
          2   -1    0    0  502    0  0.00000000000E+00  0.00000000000E+00  0.71083334020E+03  0.71083334020E+03  0.00000000000E+00 0.  1.
         -2   -1    0    0    0  501 -0.00000000000E+00 -0.00000000000E+00 -0.35711152290E+03  0.35711152290E+03  0.00000000000E+00 0. -1.
    9000007    1    1    2  502    0 -0.72674893241E+02  0.22530193011E+03  0.38292527683E+03  0.60222451582E+03  0.40000000000E+03 0.  1.
   -9000007    1    1    2    0  501  0.72674893241E+02 -0.22530193011E+03 -0.29203459528E+02  0.46572034728E+03  0.40000000000E+03 0. -1.
<mgrwt>
<rscale>  2 0.46480383E+03</rscale>
<asrwt>0</asrwt>
<pdfrwt beam="1">  1        2 0.10935897E+00 0.46480383E+03</pdfrwt>
<pdfrwt beam="2">  1       -2 0.54940235E-01 0.46480383E+03</pdfrwt>
<totfact> 0.12921584E+02</totfact>
</mgrwt>
</event>
<event>
 4    1  0.2474915E-002  0.4267956E+03  0.7818608E-02  0.1034877E+00
          1   -1    0    0  502    0  0.00000000000E+00  0.00000000000E+00  0.37084152968E+03  0.37084152968E+03  0.00000000000E+00 0.  1.
         -1   -1    0    0    0  501 -0.00000000000E+00 -0.00000000000E+00 -0.57088675078E+03  0.57088675078E+03  0.00000000000E+00 0. -1.
    9000007    1    1    2  502    0  0.10318962877E+03  0.10726792329E+03 -0.27595048448E+03  0.50823535565E+03  0.40000000000E+03 0. -1.
   -9000007    1    1    2    0  501 -0.10318962877E+03 -0.10726792329E+03  0.75905263382E+02  0.43349292481E+03  0.40000000000E+03 0.  1.
<mgrwt>
<rscale>  2 0.42679563E+03</rscale>
<asrwt>0</asrwt>
<pdfrwt beam="1">  1        1 0.57052544E-01 0.42679563E+03</pdfrwt>
<pdfrwt beam="2">  1       -1 0.87828730E-01 0.42679563E+03</pdfrwt>
<totfact> 0.88523128E+01</totfact>
</mgrwt>
</event>
<event>
 4    1  0.2474915E-002  0.4141158E+03  0.7818608E-02  0.1038999E+00
         -2   -1    0    0    0  501 -0.00000000000E+00  0.00000000000E+00  0.26865120500E+03  0.26865120500E+03  0.00000000000E+00 0. -1.
          2   -1    0    0  502    0  0.00000000000E+00 -0.00000000000E+00 -0.65805704167E+03  0.65805704167E+03  0.00000000000E+00 0.  1.
    9000007    1    1    2  502    0 -0.76143116369E+02 -0.75459408756E+02 -0.11450601476E+03  0.42965512211E+03  0.40000000000E+03 0. -1.
   -9000007    1    1    2    0  501  0.76143116369E+02  0.75459408756E+02 -0.27489982191E+03  0.49705312455E+03  0.40000000000E+03 0.  1.
<mgrwt>
<rscale>  2 0.41411580E+03</rscale>
<asrwt>0</asrwt>
<pdfrwt beam="1">  1        2 0.10123954E+00 0.41411580E+03</pdfrwt>
<pdfrwt beam="2">  1       -2 0.41330955E-01 0.41411580E+03</pdfrwt>
<totfact> 0.25212651E+02</totfact>
</mgrwt>
</event>
<event>
 4    1  0.2474915E-002  0.5707779E+03  0.7818608E-02  0.9967959E-01
          2   -1    0    0  502    0  0.00000000000E+00  0.00000000000E+00  0.22239686691E+04  0.22239686691E+04  0.00000000000E+00 0.  1.
         -2   -1    0    0    0  501 -0.00000000000E+00 -0.00000000000E+00 -0.15371918678E+03  0.15371918678E+03  0.00000000000E+00 0. -1.
    9000007    1    1    2  502    0 -0.14815843831E+03  0.37925780164E+03  0.12929523360E+04  0.14133340532E+04  0.40000000000E+03 0.  1.
   -9000007    1    1    2    0  501  0.14815843831E+03 -0.37925780164E+03  0.77729714633E+03  0.96435380263E+03  0.40000000000E+03 0.  1.
<mgrwt>
<rscale>  2 0.57077789E+03</rscale>
<asrwt>0</asrwt>
<pdfrwt beam="1">  1        2 0.34214900E+00 0.57077789E+03</pdfrwt>
<pdfrwt beam="2">  1       -2 0.23649107E-01 0.57077789E+03</pdfrwt>
<totfact> 0.83809181E+01</totfact>
</mgrwt>
</event>
<event>
 4    1  0.2474915E-002  0.4218823E+03  0.7818608E-02  0.1036455E+00
         -2   -1    0    0    0  501 -0.00000000000E+00  0.00000000000E+00  0.14827117044E+03  0.14827117044E+03  0.00000000000E+00 0. -1.
          2   -1    0    0  502    0  0.00000000000E+00 -0.00000000000E+00 -0.12031373705E+04  0.12031373705E+04  0.00000000000E+00 0.  1.
    9000007    1    1    2  502    0  0.75902336283E+02  0.11055999534E+03 -0.49520126844E+03  0.65054513563E+03  0.40000000000E+03 0. -1.
   -9000007    1    1    2    0  501 -0.75902336283E+02 -0.11055999534E+03 -0.55966493166E+03  0.70086340534E+03  0.40000000000E+03 0. -1.
<mgrwt>
<rscale>  2 0.42188230E+03</rscale>
<asrwt>0</asrwt>
<pdfrwt beam="1">  1        2 0.18509805E+00 0.42188230E+03</pdfrwt>
<pdfrwt beam="2">  1       -2 0.22810950E-01 0.42188230E+03</pdfrwt>
<totfact> 0.32935199E+02</totfact>
</mgrwt>
</event>
<event>
 4    1  0.2474915E-002  0.6930492E+03  0.7818608E-02  0.9729193E-01
          2   -1    0    0  502    0  0.00000000000E+00  0.00000000000E+00  0.13088670836E+04  0.13088670836E+04  0.00000000000E+00 0.  1.
         -2   -1    0    0    0  501 -0.00000000000E+00 -0.00000000000E+00 -0.36891210817E+03  0.36891210817E+03  0.00000000000E+00 0. -1.
    9000007    1    1    2  502    0 -0.56539848386E+03  0.25333098383E+02  0.53081719349E+03  0.87297428618E+03  0.40000000000E+03 0. -1.
   -9000007    1    1    2    0  501  0.56539848386E+03 -0.25333098383E+02  0.40913778193E+03  0.80480490557E+03  0.40000000000E+03 0. -1.
<mgrwt>
<rscale>  2 0.69304921E+03</rscale>
<asrwt>0</asrwt>
<pdfrwt beam="1">  1        2 0.20136416E+00 0.69304921E+03</pdfrwt>
<pdfrwt beam="2">  1       -2 0.56755710E-01 0.69304921E+03</pdfrwt>
<totfact> 0.48757693E+01</totfact>
</mgrwt>
</event>
<event>
 4    1  0.2474915E-002  0.8250761E+03  0.7818608E-02  0.9524413E-01
         -2   -1    0    0    0  501 -0.00000000000E+00  0.00000000000E+00  0.85421301072E+03  0.85421301072E+03  0.00000000000E+00 0. -1.
          2   -1    0    0  502    0  0.00000000000E+00 -0.00000000000E+00 -0.84799975815E+03  0.84799975815E+03  0.00000000000E+00 0.  1.
    9000007    1    1    2  502    0  0.17677156461E+03  0.69964441418E+03  0.21196666400E+03  0.85186874517E+03  0.40000000000E+03 0. -1.
   -9000007    1    1    2    0  501 -0.17677156461E+03 -0.69964441418E+03 -0.20575341143E+03  0.85034402371E+03  0.40000000000E+03 0.  1.
<mgrwt>
<rscale>  2 0.82507605E+03</rscale>
<asrwt>0</asrwt>
<pdfrwt beam="1">  1        2 0.13046150E+00 0.82507605E+03</pdfrwt>
<pdfrwt beam="2">  1       -2 0.13141739E+00 0.82507605E+03</pdfrwt>
<totfact> 0.13558726E+01</totfact>
</mgrwt>
</event>
<event>
 4    1  0.2474915E-002  0.4847946E+03  0.7818608E-02  0.1017826E+00
          1   -1    0    0  502    0  0.00000000000E+00  0.00000000000E+00  0.39066380208E+04  0.39066380208E+04  0.00000000000E+00 0.  1.
         -1   -1    0    0    0  501 -0.00000000000E+00 -0.00000000000E+00 -0.91793587349E+02  0.91793587349E+02  0.00000000000E+00 0. -1.
    9000007    1    1    2  502    0 -0.20205625729E+02 -0.27316219417E+03  0.73381351739E+03  0.87949310966E+03  0.40000000000E+03 0. -1.
   -9000007    1    1    2    0  501  0.20205625729E+02  0.27316219417E+03  0.30810309160E+04  0.31189384985E+04  0.40000000000E+03 0.  1.
<mgrwt>
<rscale>  2 0.48479465E+03</rscale>
<asrwt>0</asrwt>
<pdfrwt beam="1">  1        1 0.60102111E+00 0.48479465E+03</pdfrwt>
<pdfrwt beam="2">  1       -1 0.14122093E-01 0.48479465E+03</pdfrwt>
<totfact> 0.48878385E+00</totfact>
</mgrwt>
</event>
<event>
 4    1  0.2474915E-002  0.4076773E+03  0.7818608E-02  0.1041153E+00
         -2   -1    0    0    0  501 -0.00000000000E+00  0.00000000000E+00  0.16060439202E+03  0.16060439202E+03  0.00000000000E+00 0.  1.
          2   -1    0    0  502    0  0.00000000000E+00 -0.00000000000E+00 -0.10573919829E+04  0.10573919829E+04  0.00000000000E+00 0. -1.
    9000007    1    1    2  502    0 -0.30068354980E+02 -0.72778004374E+02 -0.35946616828E+03  0.54352246506E+03  0.40000000000E+03 0.  1.
   -9000007    1    1    2    0  501  0.30068354980E+02  0.72778004374E+02 -0.53732142262E+03  0.67447390988E+03  0.40000000000E+03 0. -1.
<mgrwt>
<rscale>  2 0.40767725E+03</rscale>
<asrwt>0</asrwt>
<pdfrwt beam="1">  1        2 0.16267569E+00 0.40767725E+03</pdfrwt>
<pdfrwt beam="2">  1       -2 0.24708368E-01 0.40767725E+03</pdfrwt>
<totfact> 0.34925757E+02</totfact>
</mgrwt>
</event>
<event>
 4    1  0.2474915E-002  0.5356444E+03  0.7818608E-02  0.1004872E+00
         -2   -1    0    0    0  501 -0.00000000000E+00  0.00000000000E+00  0.21964631833E+04  0.21964631833E+04  0.00000000000E+00 0.  1.
          2   -1    0    0  502    0  0.00000000000E+00 -0.00000000000E+00 -0.17547145989E+03  0.17547145989E+03  0.00000000000E+00 0. -1.
    9000007    1    1    2  502    0 -0.12142519064E+02 -0.35604417384E+03  0.16100513625E+04  0.16968147466E+04  0.40000000000E+03 0.  1.
   -9000007    1    1    2    0  501  0.12142519064E+02  0.35604417384E+03  0.41094036089E+03  0.67511989654E+03  0.40000000000E+03 0. -1.
<mgrwt>
<rscale>  2 0.53564437E+03</rscale>
<asrwt>0</asrwt>
<pdfrwt beam="1">  1        2 0.26995611E-01 0.53564437E+03</pdfrwt>
<pdfrwt beam="2">  1       -2 0.33791739E+00 0.53564437E+03</pdfrwt>
<totfact> 0.40325329E+00</totfact>
</mgrwt>
</event>
<event>
 4    1  0.2474915E-002  0.4461667E+03  0.7818608E-02  0.1028871E+00
          2   -1    0    0  502    0  0.00000000000E+00  0.00000000000E+00  0.14426666411E+04  0.14426666411E+04  0.00000000000E+00 0.  1.
         -2   -1    0    0    0  501 -0.00000000000E+00 -0.00000000000E+00 -0.16291795642E+03  0.16291795642E+03  0.00000000000E+00 0. -1.
    9000007    1    1    2  502    0  0.14450921069E+03 -0.13483995793E+03  0.32581229959E+03  0.55246572816E+03  0.40000000000E+03 0. -1.
   -9000007    1    1    2    0  501 -0.14450921069E+03  0.13483995793E+03  0.95393638510E+03  0.10531188694E+04  0.40000000000E+03 0.  1.
<mgrwt>
<rscale>  2 0.44616670E+03</rscale>
<asrwt>0</asrwt>
<pdfrwt beam="1">  1        2 0.22194870E+00 0.44616670E+03</pdfrwt>
<pdfrwt beam="2">  1       -2 0.25064302E-01 0.44616670E+03</pdfrwt>
<totfact> 0.20365046E+02</totfact>
</mgrwt>
</event>
<event>
 4    1  0.2474915E-002  0.4735579E+03  0.7818608E-02  0.1020921E+00
         -2   -1    0    0    0  501 -0.00000000000E+00  0.00000000000E+00  0.36191403515E+03  0.36191403515E+03  0.00000000000E+00 0.  1.
          2   -1    0    0  502    0  0.00000000000E+00 -0.00000000000E+00 -0.65696768494E+03  0.65696768494E+03  0.00000000000E+00 0. -1.
    9000007    1    1    2  502    0 -0.89007434684E+02 -0.23734953949E+03 -0.26895677384E+03  0.54460524559E+03  0.40000000000E+03 0. -1.
   -9000007    1    1    2    0  501  0.89007434684E+02  0.23734953949E+03 -0.26096875951E+02  0.47427647450E+03  0.40000000000E+03 0.  1.
<mgrwt>
<rscale>  2 0.47355795E+03</rscale>
<asrwt>0</asrwt>
<pdfrwt beam="1">  1        2 0.10107195E+00 0.47355795E+03</pdfrwt>
<pdfrwt beam="2">  1       -2 0.55679083E-01 0.47355795E+03</pdfrwt>
<totfact> 0.13844099E+02</totfact>
</mgrwt>
</event>
<event>
 4    1  0.2474915E-002  0.4218368E+03  0.7818608E-02  0.1036470E+00
          1   -1    0    0  502    0  0.00000000000E+00  0.00000000000E+00  0.14122742718E+04  0.14122742718E+04  0.00000000000E+00 0.  1.
         -1   -1    0    0    0  501 -0.00000000000E+00 -0.00000000000E+00 -0.15644363515E+03  0.15644363515E+03  0.00000000000E+00 0. -1.
    9000007    1    1    2  502    0  0.13242483284E+03  0.20246551560E+02  0.97392294658E+03  0.10613539302E+04  0.40000000000E+03 0.  1.
   -9000007    1    1    2    0  501 -0.13242483284E+03 -0.20246551560E+02  0.28190769002E+03  0.50736397675E+03  0.40000000000E+03 0. -1.
<mgrwt>
<rscale>  2 0.42183677E+03</rscale>
<asrwt>0</asrwt>
<pdfrwt beam="1">  1        1 0.21727296E+00 0.42183677E+03</pdfrwt>
<pdfrwt beam="2">  1       -1 0.24068253E-01 0.42183677E+03</pdfrwt>
<totfact> 0.11925748E+02</totfact>
</mgrwt>
</event>
<event>
 4    1  0.2474915E-002  0.4121745E+03  0.7818608E-02  0.1039644E+00
         -2   -1    0    0    0  501 -0.00000000000E+00  0.00000000000E+00  0.92866962655E+03  0.92866962655E+03  0.00000000000E+00 0.  1.
          2   -1    0    0  502    0  0.00000000000E+00 -0.00000000000E+00 -0.19525326492E+03  0.19525326492E+03  0.00000000000E+00 0. -1.
    9000007    1    1    2  502    0  0.99436900373E+02  0.29102300554E+00  0.22556766679E+03  0.46986014318E+03  0.40000000000E+03 0. -1.
   -9000007    1    1    2    0  501 -0.99436900373E+02 -0.29102300554E+00  0.50784869484E+03  0.65406274829E+03  0.40000000000E+03 0.  1.
<mgrwt>
<rscale>  2 0.41217446E+03</rscale>
<asrwt>0</asrwt>
<pdfrwt beam="1">  1        2 0.30038964E-01 0.41217446E+03</pdfrwt>
<pdfrwt beam="2">  1       -2 0.14287225E+00 0.41217446E+03</pdfrwt>
<totfact> 0.62497407E+01</totfact>
</mgrwt>
</event>
<event>
 4    1  0.2474915E-002  0.4839529E+03  0.7818608E-02  0.1018054E+00
          2   -1    0    0  502    0  0.00000000000E+00  0.00000000000E+00  0.61417007157E+03  0.61417007157E+03  0.00000000000E+00 0. -1.
         -2   -1    0    0    0  501 -0.00000000000E+00 -0.00000000000E+00 -0.42322327886E+03  0.42322327886E+03  0.00000000000E+00 0.  1.
    9000007    1    1    2  502    0 -0.87624119014E+02  0.25793884331E+03  0.25863773207E+03  0.54872935913E+03  0.40000000000E+03 0.  1.
   -9000007    1    1    2    0  501  0.87624119014E+02 -0.25793884331E+03 -0.67690939361E+02  0.48866399130E+03  0.40000000000E+03 0.  1.
<mgrwt>
<rscale>  2 0.48395292E+03</rscale>
<asrwt>0</asrwt>
<pdfrwt beam="1">  1        2 0.94487704E-01 0.48395292E+03</pdfrwt>
<pdfrwt beam="2">  1       -2 0.65111273E-01 0.48395292E+03</pdfrwt>
<totfact> 0.10803134E+02</totfact>
</mgrwt>
</event>
<event>
 4    1  0.2474915E-002  0.4249696E+03  0.7818608E-02  0.1035461E+00
         -2   -1    0    0    0  501 -0.00000000000E+00  0.00000000000E+00  0.93084517620E+03  0.93084517620E+03  0.00000000000E+00 0.  1.
          2   -1    0    0  502    0  0.00000000000E+00 -0.00000000000E+00 -0.37608885141E+03  0.37608885141E+03  0.00000000000E+00 0. -1.
    9000007    1    1    2  502    0 -0.55055249298E+02  0.13254476424E+03  0.73205266953E+03  0.84646341089E+03  0.40000000000E+03 0.  1.
   -9000007    1    1    2    0  501  0.55055249298E+02 -0.13254476424E+03 -0.17729634474E+03  0.46047061672E+03  0.40000000000E+03 0. -1.
<mgrwt>
<rscale>  2 0.42496964E+03</rscale>
<asrwt>0</asrwt>
<pdfrwt beam="1">  1        2 0.57859824E-01 0.42496964E+03</pdfrwt>
<pdfrwt beam="2">  1       -2 0.14320695E+00 0.42496964E+03</pdfrwt>
<totfact> 0.30130918E+01</totfact>
</mgrwt>
</event>
<event>
 4    1  0.2474915E-002  0.6357763E+03  0.7818608E-02  0.9833841E-01
          2   -1    0    0  502    0  0.00000000000E+00  0.00000000000E+00  0.98419668060E+03  0.98419668060E+03  0.00000000000E+00 0. -1.
         -2   -1    0    0    0  501 -0.00000000000E+00 -0.00000000000E+00 -0.11608949788E+04  0.11608949788E+04  0.00000000000E+00 0.  1.
    9000007    1    1    2  502    0  0.49328993277E+03  0.29605899264E+02  0.77384667037E+03  0.10015239070E+04  0.40000000000E+03 0. -1.
   -9000007    1    1    2    0  501 -0.49328993277E+03 -0.29605899264E+02 -0.95054496859E+03  0.11435677524E+04  0.40000000000E+03 0.  1.
<mgrwt>
<rscale>  2 0.63577627E+03</rscale>
<asrwt>0</asrwt>
<pdfrwt beam="1">  1        2 0.15141487E+00 0.63577627E+03</pdfrwt>
<pdfrwt beam="2">  1       -2 0.17859923E+00 0.63577627E+03</pdfrwt>
<totfact> 0.49661897E+00</totfact>
</mgrwt>
</event>
<event>
 4    1  0.2474915E-002  0.4047651E+03  0.7818608E-02  0.1042142E+00
          2   -1    0    0  502    0  0.00000000000E+00  0.00000000000E+00  0.96884894646E+03  0.96884894646E+03  0.00000000000E+00 0. -1.
         -2   -1    0    0    0  501 -0.00000000000E+00 -0.00000000000E+00 -0.18691542956E+03  0.18691542956E+03  0.00000000000E+00 0.  1.
    9000007    1    1    2  502    0 -0.14677709408E+02 -0.60160892675E+02  0.56936252461E+03  0.69857601776E+03  0.40000000000E+03 0. -1.
   -9000007    1    1    2    0  501  0.14677709408E+02  0.60160892675E+02  0.21257099229E+03  0.45718835826E+03  0.40000000000E+03 0.  1.
<mgrwt>
<rscale>  2 0.40476508E+03</rscale>
<asrwt>0</asrwt>
<pdfrwt beam="1">  1        2 0.14905368E+00 0.40476508E+03</pdfrwt>
<pdfrwt beam="2">  1       -2 0.28756221E-01 0.40476508E+03</pdfrwt>
<totfact> 0.30161396E+02</totfact>
</mgrwt>
</event>
<event>
 4    1  0.2474915E-002  0.4112086E+03  0.7818608E-02  0.1039966E+00
         -2   -1    0    0    0  501 -0.00000000000E+00  0.00000000000E+00  0.38535424931E+03  0.38535424931E+03  0.00000000000E+00 0.  1.
          2   -1    0    0  502    0  0.00000000000E+00 -0.00000000000E+00 -0.68810417967E+03  0.68810417967E+03  0.00000000000E+00 0. -1.
    9000007    1    1    2  502    0  0.79649218833E+02  0.52426242414E+02  0.17169384450E+03  0.44561338085E+03  0.40000000000E+03 0.  1.
   -9000007    1    1    2    0  501 -0.79649218833E+02 -0.52426242414E+02 -0.47444377486E+03  0.62784504813E+03  0.40000000000E+03 0. -1.
<mgrwt>
<rscale>  2 0.41120860E+03</rscale>
<asrwt>0</asrwt>
<pdfrwt beam="1">  1        2 0.10586218E+00 0.41120860E+03</pdfrwt>
<pdfrwt beam="2">  1       -2 0.59285270E-01 0.41120860E+03</pdfrwt>
<totfact> 0.11548403E+02</totfact>
</mgrwt>
</event>
<event>
 4    1  0.2474915E-002  0.4216335E+03  0.7818608E-02  0.1036536E+00
          1   -1    0    0  502    0  0.00000000000E+00  0.00000000000E+00  0.12644738915E+04  0.12644738915E+04  0.00000000000E+00 0. -1.
         -1   -1    0    0    0  501 -0.00000000000E+00 -0.00000000000E+00 -0.14451058378E+03  0.14451058378E+03  0.00000000000E+00 0.  1.
    9000007    1    1    2  502    0  0.40549002766E+02  0.12700635506E+03  0.44397194169E+03  0.61227928338E+03  0.40000000000E+03 0.  1.
   -9000007    1    1    2    0  501 -0.40549002766E+02 -0.12700635506E+03  0.67599136600E+03  0.79670519187E+03  0.40000000000E+03 0.  1.
<mgrwt>
<rscale>  2 0.42163353E+03</rscale>
<asrwt>0</asrwt>
<pdfrwt beam="1">  1        1 0.19453444E+00 0.42163353E+03</pdfrwt>
<pdfrwt beam="2">  1       -1 0.22232398E-01 0.42163353E+03</pdfrwt>
<totfact> 0.17223386E+02</totfact>
</mgrwt>
</event>
<event>
 4    1  0.2474915E-002  0.5319851E+03  0.7818608E-02  0.1005752E+00
         -2   -1    0    0    0  501 -0.00000000000E+00  0.00000000000E+00  0.15906057081E+03  0.15906057081E+03  0.00000000000E+00 0. -1.
          2   -1    0    0  502    0  0.00000000000E+00 -0.00000000000E+00 -0.17963723378E+04  0.17963723378E+04  0.00000000000E+00 0.  1.
    9000007    1    1    2  502    0  0.24004313442E+03  0.25570972721E+03 -0.72319528565E+03  0.89778593894E+03  0.40000000000E+03 0. -1.
   -9000007    1    1    2    0  501 -0.24004313442E+03 -0.25570972721E+03 -0.91411648135E+03  0.10576469697E+04  0.40000000000E+03 0. -1.
<mgrwt>
<rscale>  2 0.53198512E+03</rscale>
<asrwt>0</asrwt>
<pdfrwt beam="1">  1        2 0.27636497E+00 0.53198512E+03</pdfrwt>
<pdfrwt beam="2">  1       -2 0.24470858E-01 0.53198512E+03</pdfrwt>
<totfact> 0.13510791E+02</totfact>
</mgrwt>
</event>
<event>
 4    1  0.2474915E-002  0.4886840E+03  0.7818608E-02  0.1016775E+00
         -2   -1    0    0    0  501 -0.00000000000E+00  0.00000000000E+00  0.10635450640E+03  0.10635450640E+03  0.00000000000E+00 0.  1.
          2   -1    0    0  502    0  0.00000000000E+00 -0.00000000000E+00 -0.22861056931E+04  0.22861056931E+04  0.00000000000E+00 0. -1.
    9000007    1    1    2  502    0  0.24530021343E+03 -0.13652790331E+03 -0.12494307236E+04  0.13415994917E+04  0.40000000000E+03 0. -1.
   -9000007    1    1    2    0  501 -0.24530021343E+03  0.13652790331E+03 -0.93032046306E+03  0.10508607077E+04  0.40000000000E+03 0. -1.
<mgrwt>
<rscale>  2 0.48868401E+03</rscale>
<asrwt>0</asrwt>
<pdfrwt beam="1">  1        2 0.35170853E+00 0.48868401E+03</pdfrwt>
<pdfrwt beam="2">  1       -2 0.16362234E-01 0.48868401E+03</pdfrwt>
<totfact> 0.14881066E+02</totfact>
</mgrwt>
</event>
<event>
 4    1  0.2474915E-002  0.4242805E+03  0.7818608E-02  0.1035682E+00
          2   -1    0    0  502    0  0.00000000000E+00  0.00000000000E+00  0.79202992165E+03  0.79202992165E+03  0.00000000000E+00 0.  1.
         -2   -1    0    0    0  501 -0.00000000000E+00 -0.00000000000E+00 -0.33077092766E+03  0.33077092766E+03  0.00000000000E+00 0. -1.
    9000007    1    1    2  502    0 -0.14070250895E+03  0.14721106306E+02  0.54464901613E+03  0.69040311251E+03  0.40000000000E+03 0.  1.
   -9000007    1    1    2    0  501  0.14070250895E+03 -0.14721106306E+02 -0.83390022136E+02  0.43239773680E+03  0.40000000000E+03 0. -1.
<mgrwt>
<rscale>  2 0.42428046E+03</rscale>
<asrwt>0</asrwt>
<pdfrwt beam="1">  1        2 0.12185076E+00 0.42428046E+03</pdfrwt>
<pdfrwt beam="2">  1       -2 0.50887835E-01 0.42428046E+03</pdfrwt>
<totfact> 0.13220521E+02</totfact>
</mgrwt>
</event>
<event>
 4    1  0.2474915E-002  0.5248860E+03  0.7818608E-02  0.1007480E+00
         -1   -1    0    0    0  501 -0.00000000000E+00  0.00000000000E+00  0.41131478208E+03  0.41131478208E+03  0.00000000000E+00 0.  1.
          1   -1    0    0  502    0  0.00000000000E+00 -0.00000000000E+00 -0.74460892644E+03  0.74460892644E+03  0.00000000000E+00 0. -1.
    9000007    1    1    2  502    0  0.73240604813E+02 -0.33187520835E+03 -0.34982134942E+03  0.63077754923E+03  0.40000000000E+03 0.  1.
   -9000007    1    1    2    0  501 -0.73240604813E+02  0.33187520835E+03  0.16527205067E+02  0.52514615929E+03  0.40000000000E+03 0.  1.
<mgrwt>
<rscale>  2 0.52488603E+03</rscale>
<asrwt>0</asrwt>
<pdfrwt beam="1">  1        1 0.11455522E+00 0.52488603E+03</pdfrwt>
<pdfrwt beam="2">  1       -1 0.63279197E-01 0.52488603E+03</pdfrwt>
<totfact> 0.65542600E+01</totfact>
</mgrwt>
</event>
<event>
 4    1  0.2474915E-002  0.4832413E+03  0.7818608E-02  0.1018248E+00
          2   -1    0    0  502    0  0.00000000000E+00  0.00000000000E+00  0.41983085283E+03  0.41983085283E+03  0.00000000000E+00 0.  1.
         -2   -1    0    0    0  501 -0.00000000000E+00 -0.00000000000E+00 -0.59577419531E+03  0.59577419531E+03  0.00000000000E+00 0. -1.
    9000007    1    1    2  502    0 -0.14662267050E+03 -0.22808757615E+03  0.42856165705E+02  0.48513791940E+03  0.40000000000E+03 0.  1.
   -9000007    1    1    2    0  501  0.14662267050E+03  0.22808757615E+03 -0.21879950819E+03  0.53046712875E+03  0.40000000000E+03 0. -1.
<mgrwt>
<rscale>  2 0.48324130E+03</rscale>
<asrwt>0</asrwt>
<pdfrwt beam="1">  1        2 0.64589362E-01 0.48324130E+03</pdfrwt>
<pdfrwt beam="2">  1       -2 0.91657568E-01 0.48324130E+03</pdfrwt>
<totfact> 0.78473241E+01</totfact>
</mgrwt>
</event>
<event>
 4    1  0.2474915E-002  0.4195793E+03  0.7818608E-02  0.1037203E+00
         -1   -1    0    0    0  501 -0.00000000000E+00  0.00000000000E+00  0.17342867811E+03  0.17342867811E+03  0.00000000000E+00 0. -1.
          1   -1    0    0  502    0  0.00000000000E+00 -0.00000000000E+00 -0.11905950033E+04  0.11905950033E+04  0.00000000000E+00 0.  1.
    9000007    1    1    2  502    0 -0.11068792525E+03  0.61603371768E+02 -0.24673654636E+03  0.48675015718E+03  0.40000000000E+03 0. -1.
   -9000007    1    1    2    0  501  0.11068792525E+03 -0.61603371768E+02 -0.77042977886E+03  0.87727352426E+03  0.40000000000E+03 0.  1.
<mgrwt>
<rscale>  2 0.41957930E+03</rscale>
<asrwt>0</asrwt>
<pdfrwt beam="1">  1        1 0.18316847E+00 0.41957930E+03</pdfrwt>
<pdfrwt beam="2">  1       -1 0.26681334E-01 0.41957930E+03</pdfrwt>
<totfact> 0.14297192E+02</totfact>
</mgrwt>
</event>
<event>
 4    1  0.2474915E-002  0.4559940E+03  0.7818608E-02  0.1025950E+00
         -1   -1    0    0    0  501 -0.00000000000E+00  0.00000000000E+00  0.88480115862E+02  0.88480115862E+02  0.00000000000E+00 0.  1.
          1   -1    0    0  502    0  0.00000000000E+00 -0.00000000000E+00 -0.24486471431E+04  0.24486471431E+04  0.00000000000E+00 0. -1.
    9000007    1    1    2  502    0  0.21830940565E+03 -0.16478325460E+02 -0.14346699063E+04  0.15053930623E+04  0.40000000000E+03 0. -1.
   -9000007    1    1    2    0  501 -0.21830940565E+03  0.16478325460E+02 -0.92549712088E+03  0.10317341967E+04  0.40000000000E+03 0.  1.
<mgrwt>
<rscale>  2 0.45599400E+03</rscale>
<asrwt>0</asrwt>
<pdfrwt beam="1">  1        1 0.37671491E+00 0.45599400E+03</pdfrwt>
<pdfrwt beam="2">  1       -1 0.13612327E-01 0.45599400E+03</pdfrwt>
<totfact> 0.61671089E+01</totfact>
</mgrwt>
</event>
<event>
 4    1  0.2474915E-002  0.4048737E+03  0.7818608E-02  0.1042105E+00
         -1   -1    0    0    0  501 -0.00000000000E+00  0.00000000000E+00  0.11528954470E+03  0.11528954470E+03  0.00000000000E+00 0.  1.
          1   -1    0    0  502    0  0.00000000000E+00 -0.00000000000E+00 -0.14218425892E+04  0.14218425892E+04  0.00000000000E+00 0. -1.
    9000007    1    1    2  502    0 -0.61091370614E+01 -0.62333216308E+02 -0.65154363910E+03  0.76709312672E+03  0.40000000000E+03 0.  1.
   -9000007    1    1    2    0  501  0.61091370614E+01  0.62333216308E+02 -0.65500940539E+03  0.77003900717E+03  0.40000000000E+03 0. -1.
<mgrwt>
<rscale>  2 0.40487375E+03</rscale>
<asrwt>0</asrwt>
<pdfrwt beam="1">  1        1 0.21874499E+00 0.40487375E+03</pdfrwt>
<pdfrwt beam="2">  1       -1 0.17736855E-01 0.40487375E+03</pdfrwt>
<totfact> 0.19505262E+02</totfact>
</mgrwt>
</event>
<event>
 4    1  0.2474915E-002  0.4448507E+03  0.7818608E-02  0.1029269E+00
          1   -1    0    0  502    0  0.00000000000E+00  0.00000000000E+00  0.35196466664E+03  0.35196466664E+03  0.00000000000E+00 0.  1.
         -1   -1    0    0    0  501 -0.00000000000E+00 -0.00000000000E+00 -0.56860790945E+03  0.56860790945E+03  0.00000000000E+00 0. -1.
    9000007    1    1    2  502    0  0.15320017430E+03  0.12009111630E+03 -0.15699318340E+03  0.47174042571E+03  0.40000000000E+03 0.  1.
   -9000007    1    1    2    0  501 -0.15320017430E+03 -0.12009111630E+03 -0.59650059414E+02  0.44883215037E+03  0.40000000000E+03 0. -1.
<mgrwt>
<rscale>  2 0.44485073E+03</rscale>
<asrwt>0</asrwt>
<pdfrwt beam="1">  1        1 0.54148411E-01 0.44485073E+03</pdfrwt>
<pdfrwt beam="2">  1       -1 0.87478139E-01 0.44485073E+03</pdfrwt>
<totfact> 0.95349991E+01</totfact>
</mgrwt>
</event>
<event>
 4    1  0.2474915E-002  0.6383564E+03  0.7818608E-02  0.9828876E-01
          1   -1    0    0  502    0  0.00000000000E+00  0.00000000000E+00  0.14946509086E+04  0.14946509086E+04  0.00000000000E+00 0. -1.
         -1   -1    0    0    0  501 -0.00000000000E+00 -0.00000000000E+00 -0.33559573481E+03  0.33559573481E+03  0.00000000000E+00 0.  1.
    9000007    1    1    2  502    0  0.32227505540E+03 -0.37899567235E+03  0.97589256084E+03  0.11661325916E+04  0.40000000000E+03 0. -1.
   -9000007    1    1    2    0  501 -0.32227505540E+03  0.37899567235E+03  0.18316261298E+03  0.66411405179E+03  0.40000000000E+03 0.  1.
<mgrwt>
<rscale>  2 0.63835643E+03</rscale>
<asrwt>0</asrwt>
<pdfrwt beam="1">  1        1 0.22994629E+00 0.63835643E+03</pdfrwt>
<pdfrwt beam="2">  1       -1 0.51630114E-01 0.63835643E+03</pdfrwt>
<totfact> 0.26120810E+01</totfact>
</mgrwt>
</event>
<event>
 4    1  0.2474915E-002  0.4232332E+03  0.7818608E-02  0.1036019E+00
         -2   -1    0    0    0  501 -0.00000000000E+00  0.00000000000E+00  0.13692073605E+03  0.13692073605E+03  0.00000000000E+00 0.  1.
          2   -1    0    0  502    0  0.00000000000E+00 -0.00000000000E+00 -0.17930129154E+04  0.17930129154E+04  0.00000000000E+00 0. -1.
    9000007    1    1    2  502    0  0.12021279598E+03  0.68375723316E+02 -0.13297945094E+04  0.13955213338E+04  0.40000000000E+03 0. -1.
   -9000007    1    1    2    0  501 -0.12021279598E+03 -0.68375723316E+02 -0.32629766999E+03  0.53441231769E+03  0.40000000000E+03 0.  1.
<mgrwt>
<rscale>  2 0.42323322E+03</rscale>
<asrwt>0</asrwt>
<pdfrwt beam="1">  1        2 0.27584812E+00 0.42323322E+03</pdfrwt>
<pdfrwt beam="2">  1       -2 0.21064730E-01 0.42323322E+03</pdfrwt>
<totfact> 0.17952063E+02</totfact>
</mgrwt>
</event>
<event>
 4    1  0.2474915E-002  0.4060292E+03  0.7818608E-02  0.1041712E+00
         -2   -1    0    0    0  501 -0.00000000000E+00  0.00000000000E+00  0.34344895261E+03  0.34344895261E+03  0.00000000000E+00 0. -1.
          2   -1    0    0  502    0  0.00000000000E+00 -0.00000000000E+00 -0.58878262148E+03  0.58878262148E+03  0.00000000000E+00 0.  1.
    9000007    1    1    2  502    0  0.28456186080E+02  0.63639307427E+02 -0.32300862926E+03  0.51883936874E+03  0.40000000000E+03 0.  1.
   -9000007    1    1    2    0  501 -0.28456186080E+02 -0.63639307427E+02  0.77674960394E+02  0.41339220535E+03  0.40000000000E+03 0. -1.
<mgrwt>
<rscale>  2 0.40602921E+03</rscale>
<asrwt>0</asrwt>
<pdfrwt beam="1">  1        2 0.90581940E-01 0.40602921E+03</pdfrwt>
<pdfrwt beam="2">  1       -2 0.52838301E-01 0.40602921E+03</pdfrwt>
<totfact> 0.17675741E+02</totfact>
</mgrwt>
</event>
<event>
 4    1  0.2474915E-002  0.5380447E+03  0.7818608E-02  0.1004300E+00
          2   -1    0    0  502    0  0.00000000000E+00  0.00000000000E+00  0.16856131992E+04  0.16856131992E+04  0.00000000000E+00 0.  1.
         -2   -1    0    0    0  501 -0.00000000000E+00 -0.00000000000E+00 -0.17686237346E+03  0.17686237346E+03  0.00000000000E+00 0. -1.
    9000007    1    1    2  502    0 -0.27607869560E+02 -0.35878955572E+03  0.59593918615E+03  0.80289205585E+03  0.40000000000E+03 0. -1.
   -9000007    1    1    2    0  501  0.27607869560E+02  0.35878955572E+03  0.91281163961E+03  0.10595835168E+04  0.40000000000E+03 0.  1.
<mgrwt>
<rscale>  2 0.53804474E+03</rscale>
<asrwt>0</asrwt>
<pdfrwt beam="1">  1        2 0.25932510E+00 0.53804474E+03</pdfrwt>
<pdfrwt beam="2">  1       -2 0.27209597E-01 0.53804474E+03</pdfrwt>
<totfact> 0.12797423E+02</totfact>
</mgrwt>
</event>
<event>
 4    1  0.2474915E-002  0.4191483E+03  0.7818608E-02  0.1037344E+00
         -1   -1    0    0    0  501 -0.00000000000E+00  0.00000000000E+00  0.12588306305E+03  0.12588306305E+03  0.00000000000E+00 0.  1.
          1   -1    0    0  502    0  0.00000000000E+00 -0.00000000000E+00 -0.14864626416E+04  0.14864626416E+04  0.00000000000E+00 0. -1.
    9000007    1    1    2  502    0 -0.10844442257E+03 -0.62650557952E+02 -0.48099813096E+03  0.63800038181E+03  0.40000000000E+03 0.  1.
   -9000007    1    1    2    0  501  0.10844442257E+03  0.62650557952E+02 -0.87958144763E+03  0.97434532288E+03  0.40000000000E+03 0. -1.
<mgrwt>
<rscale>  2 0.41914829E+03</rscale>
<asrwt>0</asrwt>
<pdfrwt beam="1">  1        1 0.22868656E+00 0.41914829E+03</pdfrwt>
<pdfrwt beam="2">  1       -1 0.19366625E-01 0.41914829E+03</pdfrwt>
<totfact> 0.15244254E+02</totfact>
</mgrwt>
</event>
<event>
 4    1  0.2474915E-002  0.4577353E+03  0.7818608E-02  0.1025440E+00
          2   -1    0    0  502    0  0.00000000000E+00  0.00000000000E+00  0.82922763060E+03  0.82922763060E+03  0.00000000000E+00 0. -1.
         -2   -1    0    0    0  501 -0.00000000000E+00 -0.00000000000E+00 -0.28551404445E+03  0.28551404445E+03  0.00000000000E+00 0.  1.
    9000007    1    1    2  502    0 -0.14999909795E+03  0.16438320753E+03  0.46089685605E+03  0.64957484574E+03  0.40000000000E+03 0. -1.
   -9000007    1    1    2    0  501  0.14999909795E+03 -0.16438320753E+03  0.82816730104E+02  0.46516682931E+03  0.40000000000E+03 0.  1.
<mgrwt>
<rscale>  2 0.45773526E+03</rscale>
<asrwt>0</asrwt>
<pdfrwt beam="1">  1        2 0.12757348E+00 0.45773526E+03</pdfrwt>
<pdfrwt beam="2">  1       -2 0.43925238E-01 0.45773526E+03</pdfrwt>
<totfact> 0.16647479E+02</totfact>
</mgrwt>
</event>
<event>
 4    1  0.2474915E-002  0.4033909E+03  0.7818608E-02  0.1042612E+00
         -2   -1    0    0    0  501 -0.00000000000E+00  0.00000000000E+00  0.14290118019E+03  0.14290118019E+03  0.00000000000E+00 0. -1.
          2   -1    0    0  502    0  0.00000000000E+00 -0.00000000000E+00 -0.11388016901E+04  0.11388016901E+04  0.00000000000E+00 0.  1.
    9000007    1    1    2  502    0 -0.96172560707E+01 -0.51300536958E+02 -0.50342317342E+03  0.64510396700E+03  0.40000000000E+03 0. -1.
   -9000007    1    1    2    0  501  0.96172560707E+01  0.51300536958E+02 -0.49247733648E+03  0.63659890327E+03  0.40000000000E+03 0. -1.
<mgrwt>
<rscale>  2 0.40339092E+03</rscale>
<asrwt>0</asrwt>
<pdfrwt beam="1">  1        2 0.17520026E+00 0.40339092E+03</pdfrwt>
<pdfrwt beam="2">  1       -2 0.21984797E-01 0.40339092E+03</pdfrwt>
<totfact> 0.38384882E+02</totfact>
</mgrwt>
</event>
<event>
 4    1  0.2474915E-002  0.5292593E+03  0.7818608E-02  0.1006412E+00
          2   -1    0    0  502    0  0.00000000000E+00  0.00000000000E+00  0.61449459006E+03  0.61449459006E+03  0.00000000000E+00 0.  1.
         -2   -1    0    0    0  501 -0.00000000000E+00 -0.00000000000E+00 -0.45665594049E+03  0.45665594049E+03  0.00000000000E+00 0. -1.
    9000007    1    1    2  502    0 -0.34563097568E+03  0.25584856851E+02  0.56374142403E+02  0.53225313543E+03  0.40000000000E+03 0.  1.
   -9000007    1    1    2    0  501  0.34563097568E+03 -0.25584856851E+02  0.10146450716E+03  0.53889739512E+03  0.40000000000E+03 0.  1.
<mgrwt>
<rscale>  2 0.52925925E+03</rscale>
<asrwt>0</asrwt>
<pdfrwt beam="1">  1        2 0.94537629E-01 0.52925925E+03</pdfrwt>
<pdfrwt beam="2">  1       -2 0.70254760E-01 0.52925925E+03</pdfrwt>
<totfact> 0.91300565E+01</totfact>
</mgrwt>
</event>
<event>
 4    1  0.2474915E-002  0.4071181E+03  0.7818608E-02  0.1041342E+00
          2   -1    0    0  502    0  0.00000000000E+00  0.00000000000E+00  0.24203652070E+03  0.24203652070E+03  0.00000000000E+00 0. -1.
         -2   -1    0    0    0  501 -0.00000000000E+00 -0.00000000000E+00 -0.87332769262E+03  0.87332769262E+03  0.00000000000E+00 0.  1.
    9000007    1    1    2  502    0  0.40993981936E+02 -0.63754430553E+02 -0.56530504251E+02  0.41102412567E+03  0.40000000000E+03 0. -1.
   -9000007    1    1    2    0  501 -0.40993981936E+02  0.63754430553E+02 -0.57476066767E+03  0.70434008765E+03  0.40000000000E+03 0.  1.
<mgrwt>
<rscale>  2 0.40711808E+03</rscale>
<asrwt>0</asrwt>
<pdfrwt beam="1">  1        2 0.37236388E-01 0.40711808E+03</pdfrwt>
<pdfrwt beam="2">  1       -2 0.13435811E+00 0.40711808E+03</pdfrwt>
<totfact> 0.57649865E+01</totfact>
</mgrwt>
</event>
<event>
 4    1  0.2474915E-002  0.4553000E+03  0.7818608E-02  0.1026153E+00
          2   -1    0    0  502    0  0.00000000000E+00  0.00000000000E+00  0.57640534534E+03  0.57640534534E+03  0.00000000000E+00 0. -1.
         -2   -1    0    0    0  501 -0.00000000000E+00 -0.00000000000E+00 -0.36252372303E+03  0.36252372303E+03  0.00000000000E+00 0.  1.
    9000007    1    1    2  502    0 -0.14113521648E+03 -0.16546571275E+03  0.65065380974E+02  0.45992559749E+03  0.40000000000E+03 0. -1.
   -9000007    1    1    2    0  501  0.14113521648E+03  0.16546571275E+03  0.14881624133E+03  0.47900347088E+03  0.40000000000E+03 0. -1.
<mgrwt>
<rscale>  2 0.45529996E+03</rscale>
<asrwt>0</asrwt>
<pdfrwt beam="1">  1        2 0.88677746E-01 0.45529996E+03</pdfrwt>
<pdfrwt beam="2">  1       -2 0.55772880E-01 0.45529996E+03</pdfrwt>
<totfact> 0.16159340E+02</totfact>
</mgrwt>
</event>
<event>
 4    1  0.2474915E-002  0.5656695E+03  0.7818608E-02  0.9979308E-01
         -4   -1    0    0    0  501 -0.00000000000E+00  0.00000000000E+00  0.10512782247E+04  0.10512782247E+04  0.00000000000E+00 0.  1.
          4   -1    0    0  502    0  0.00000000000E+00 -0.00000000000E+00 -0.36973071333E+03  0.36973071333E+03  0.00000000000E+00 0. -1.
    9000007    1    1    2  502    0 -0.10142612169E+02 -0.39984879731E+03  0.63949671211E+03  0.85377864701E+03  0.40000000000E+03 0. -1.
   -9000007    1    1    2    0  501  0.10142612169E+02  0.39984879731E+03  0.42050799227E+02  0.56723029098E+03  0.40000000000E+03 0. -1.
<mgrwt>
<rscale>  2 0.56566946E+03</rscale>
<asrwt>0</asrwt>
<pdfrwt beam="1">  1        4 0.56881649E-01 0.56566946E+03</pdfrwt>
<pdfrwt beam="2">  1       -4 0.16173511E+00 0.56566946E+03</pdfrwt>
<totfact> 0.14039502E+00</totfact>
</mgrwt>
</event>
<event>
 4    1  0.2474915E-002  0.5533099E+03  0.7818608E-02  0.1000731E+00
         -2   -1    0    0    0  501 -0.00000000000E+00  0.00000000000E+00  0.16492898944E+03  0.16492898944E+03  0.00000000000E+00 0.  1.
          2   -1    0    0  502    0  0.00000000000E+00 -0.00000000000E+00 -0.18964347821E+04  0.18964347821E+04  0.00000000000E+00 0. -1.
    9000007    1    1    2  502    0 -0.76606878572E+01  0.38222136340E+03 -0.71574739423E+03  0.90468015846E+03  0.40000000000E+03 0. -1.
   -9000007    1    1    2    0  501  0.76606878572E+01 -0.38222136340E+03 -0.10157583984E+04  0.11566836131E+04  0.40000000000E+03 0.  1.
<mgrwt>
<rscale>  2 0.55330991E+03</rscale>
<asrwt>0</asrwt>
<pdfrwt beam="1">  1        2 0.29175920E+00 0.55330991E+03</pdfrwt>
<pdfrwt beam="2">  1       -2 0.25373690E-01 0.55330991E+03</pdfrwt>
<totfact> 0.11150201E+02</totfact>
</mgrwt>
</event>
<event>
 4    1  0.2474915E-002  0.4412741E+03  0.7818608E-02  0.1030357E+00
          2   -1    0    0  502    0  0.00000000000E+00  0.00000000000E+00  0.27780797317E+04  0.27780797317E+04  0.00000000000E+00 0. -1.
         -2   -1    0    0    0  501 -0.00000000000E+00 -0.00000000000E+00 -0.72121887250E+02  0.72121887250E+02  0.00000000000E+00 0.  1.
    9000007    1    1    2  502    0  0.43654208458E+01  0.18628944227E+03  0.15920265894E+04  0.16520506876E+04  0.40000000000E+03 0. -1.
   -9000007    1    1    2    0  501 -0.43654208458E+01 -0.18628944227E+03  0.11139312551E+04  0.11981509313E+04  0.40000000000E+03 0. -1.
<mgrwt>
<rscale>  2 0.44127408E+03</rscale>
<asrwt>0</asrwt>
<pdfrwt beam="1">  1        2 0.42739680E+00 0.44127408E+03</pdfrwt>
<pdfrwt beam="2">  1       -2 0.11095677E-01 0.44127408E+03</pdfrwt>
<totfact> 0.15133134E+02</totfact>
</mgrwt>
</event>
<event>
 4    1  0.2474915E-002  0.4278437E+03  0.7818608E-02  0.1034543E+00
         -1   -1    0    0    0  501 -0.00000000000E+00  0.00000000000E+00  0.28537528187E+03  0.28537528187E+03  0.00000000000E+00 0. -1.
          1   -1    0    0  502    0  0.00000000000E+00 -0.00000000000E+00 -0.67675734347E+03  0.67675734347E+03  0.00000000000E+00 0.  1.
    9000007    1    1    2  502    0 -0.14829464827E+03  0.32541588474E+02 -0.85790176801E+02  0.43636018622E+03  0.40000000000E+03 0. -1.
   -9000007    1    1    2    0  501  0.14829464827E+03 -0.32541588474E+02 -0.30559188480E+03  0.52577243912E+03  0.40000000000E+03 0.  1.
<mgrwt>
<rscale>  2 0.42784373E+03</rscale>
<asrwt>0</asrwt>
<pdfrwt beam="1">  1        1 0.10411651E+00 0.42784373E+03</pdfrwt>
<pdfrwt beam="2">  1       -1 0.43903890E-01 0.42784373E+03</pdfrwt>
<totfact> 0.15320228E+02</totfact>
</mgrwt>
</event>
<event>
 4    1  0.2474915E-002  0.5203843E+03  0.7818608E-02  0.1008591E+00
          1   -1    0    0  502    0  0.00000000000E+00  0.00000000000E+00  0.76298665827E+03  0.76298665827E+03  0.00000000000E+00 0.  1.
         -1   -1    0    0    0  501 -0.00000000000E+00 -0.00000000000E+00 -0.36043237205E+03  0.36043237205E+03  0.00000000000E+00 0. -1.
    9000007    1    1    2  502    0 -0.33273913170E+03 -0.91933324474E+01  0.13181678603E+03  0.53681981354E+03  0.40000000000E+03 0.  1.
   -9000007    1    1    2    0  501  0.33273913170E+03  0.91933324474E+01  0.27073750019E+03  0.58659921679E+03  0.40000000000E+03 0.  1.
<mgrwt>
<rscale>  2 0.52038433E+03</rscale>
<asrwt>0</asrwt>
<pdfrwt beam="1">  1        1 0.11738256E+00 0.52038433E+03</pdfrwt>
<pdfrwt beam="2">  1       -1 0.55451134E-01 0.52038433E+03</pdfrwt>
<totfact> 0.81730665E+01</totfact>
</mgrwt>
</event>
<event>
 4    1  0.2474915E-002  0.4044505E+03  0.7818608E-02  0.1042249E+00
         -2   -1    0    0    0  501 -0.00000000000E+00  0.00000000000E+00  0.66177147504E+02  0.66177147504E+02  0.00000000000E+00 0. -1.
          2   -1    0    0  502    0  0.00000000000E+00 -0.00000000000E+00 -0.26538413946E+04  0.26538413946E+04  0.00000000000E+00 0.  1.
    9000007    1    1    2  502    0 -0.59637292469E+02  0.48545656714E+01 -0.93768752466E+03  0.10211944317E+04  0.40000000000E+03 0. -1.
   -9000007    1    1    2    0  501  0.59637292469E+02 -0.48545656714E+01 -0.16499767224E+04  0.16988241104E+04  0.40000000000E+03 0.  1.
<mgrwt>
<rscale>  2 0.40445046E+03</rscale>
<asrwt>0</asrwt>
<pdfrwt beam="1">  1        2 0.40828326E+00 0.40445046E+03</pdfrwt>
<pdfrwt beam="2">  1       -2 0.10181100E-01 0.40445046E+03</pdfrwt>
<totfact> 0.20641677E+02</totfact>
</mgrwt>
</event>
<event>
 4    1  0.2474915E-002  0.4693011E+03  0.7818608E-02  0.1022118E+00
          2   -1    0    0  502    0  0.00000000000E+00  0.00000000000E+00  0.93242774396E+03  0.93242774396E+03  0.00000000000E+00 0.  1.
         -2   -1    0    0    0  501 -0.00000000000E+00 -0.00000000000E+00 -0.28457653653E+03  0.28457653653E+03  0.00000000000E+00 0. -1.
    9000007    1    1    2  502    0 -0.21349839332E+03  0.12108642971E+03  0.57480236436E+03  0.74205205039E+03  0.40000000000E+03 0. -1.
   -9000007    1    1    2    0  501  0.21349839332E+03 -0.12108642971E+03  0.73048843062E+02  0.47495223011E+03  0.40000000000E+03 0. -1.
<mgrwt>
<rscale>  2 0.46930106E+03</rscale>
<asrwt>0</asrwt>
<pdfrwt beam="1">  1        2 0.14345042E+00 0.46930106E+03</pdfrwt>
<pdfrwt beam="2">  1       -2 0.43781006E-01 0.46930106E+03</pdfrwt>
<totfact> 0.14273139E+02</totfact>
</mgrwt>
</event>
<event>
 4    1  0.2474915E-002  0.4931429E+03  0.7818608E-02  0.1015584E+00
          1   -1    0    0  502    0  0.00000000000E+00  0.00000000000E+00  0.25765145662E+04  0.25765145662E+04  0.00000000000E+00 0.  1.
         -1   -1    0    0    0  501 -0.00000000000E+00 -0.00000000000E+00 -0.17521510404E+03  0.17521510404E+03  0.00000000000E+00 0. -1.
    9000007    1    1    2  502    0  0.33419380861E+02 -0.28648404050E+03  0.21351312047E+04  0.21913409643E+04  0.40000000000E+03 0.  1.
   -9000007    1    1    2    0  501 -0.33419380861E+02  0.28648404050E+03  0.26616825743E+03  0.56038870594E+03  0.40000000000E+03 0. -1.
<mgrwt>
<rscale>  2 0.49314294E+03</rscale>
<asrwt>0</asrwt>
<pdfrwt beam="1">  1        1 0.39638683E+00 0.49314294E+03</pdfrwt>
<pdfrwt beam="2">  1       -1 0.26956172E-01 0.49314294E+03</pdfrwt>
<totfact> 0.16261306E+01</totfact>
</mgrwt>
</event>
<event>
 4    1  0.2474915E-002  0.4637191E+03  0.7818608E-02  0.1023708E+00
         -1   -1    0    0    0  501 -0.00000000000E+00  0.00000000000E+00  0.48350530780E+03  0.48350530780E+03  0.00000000000E+00 0.  1.
          1   -1    0    0  502    0  0.00000000000E+00 -0.00000000000E+00 -0.45314285569E+03  0.45314285569E+03  0.00000000000E+00 0. -1.
    9000007    1    1    2  502    0 -0.21226131380E+03 -0.99902597627E+02  0.78945275309E+02  0.47039106161E+03  0.40000000000E+03 0. -1.
   -9000007    1    1    2    0  501  0.21226131380E+03  0.99902597627E+02 -0.48582823205E+02  0.46625710188E+03  0.40000000000E+03 0.  1.
<mgrwt>
<rscale>  2 0.46371909E+03</rscale>
<asrwt>0</asrwt>
<pdfrwt beam="1">  1        1 0.69714286E-01 0.46371909E+03</pdfrwt>
<pdfrwt beam="2">  1       -1 0.74385432E-01 0.46371909E+03</pdfrwt>
<totfact> 0.96193525E+01</totfact>
</mgrwt>
</event>
<event>
 4    1  0.2474915E-002  0.4079199E+03  0.7818608E-02  0.1041071E+00
         -1   -1    0    0    0  501 -0.00000000000E+00  0.00000000000E+00  0.98870205444E+02  0.98870205444E+02  0.00000000000E+00 0. -1.
          1   -1    0    0  502    0  0.00000000000E+00 -0.00000000000E+00 -0.17032704258E+04  0.17032704258E+04  0.00000000000E+00 0.  1.
    9000007    1    1    2  502    0  0.14269265887E+02  0.78708280593E+02 -0.90049771572E+03  0.98858218747E+03  0.40000000000E+03 0.  1.
   -9000007    1    1    2    0  501 -0.14269265887E+02 -0.78708280593E+02 -0.70390250460E+03  0.81355844373E+03  0.40000000000E+03 0. -1.
<mgrwt>
<rscale>  2 0.40791985E+03</rscale>
<asrwt>0</asrwt>
<pdfrwt beam="1">  1        1 0.26204159E+00 0.40791985E+03</pdfrwt>
<pdfrwt beam="2">  1       -1 0.15210802E-01 0.40791985E+03</pdfrwt>
<totfact> 0.16206741E+02</totfact>
</mgrwt>
</event>
<event>
 4    1  0.2474915E-002  0.5482226E+03  0.7818608E-02  0.1001906E+00
          2   -1    0    0  502    0  0.00000000000E+00  0.00000000000E+00  0.13545662907E+04  0.13545662907E+04  0.00000000000E+00 0. -1.
         -2   -1    0    0    0  501 -0.00000000000E+00 -0.00000000000E+00 -0.29174221434E+03  0.29174221434E+03  0.00000000000E+00 0.  1.
    9000007    1    1    2  502    0  0.14799585250E+02 -0.37460508822E+03  0.12859295837E+03  0.56310225429E+03  0.40000000000E+03 0.  1.
   -9000007    1    1    2    0  501 -0.14799585250E+02  0.37460508822E+03  0.93423111794E+03  0.10832062507E+04  0.40000000000E+03 0. -1.
<mgrwt>
<rscale>  2 0.54822258E+03</rscale>
<asrwt>0</asrwt>
<pdfrwt beam="1">  1        2 0.20839481E+00 0.54822258E+03</pdfrwt>
<pdfrwt beam="2">  1       -2 0.44883418E-01 0.54822258E+03</pdfrwt>
<totfact> 0.75271139E+01</totfact>
</mgrwt>
</event>
<event>
 4    1  0.2474915E-002  0.5254608E+03  0.7818608E-02  0.1007339E+00
          2   -1    0    0  502    0  0.00000000000E+00  0.00000000000E+00  0.45520277576E+03  0.45520277576E+03  0.00000000000E+00 0.  1.
         -2   -1    0    0    0  501 -0.00000000000E+00 -0.00000000000E+00 -0.65929985721E+03  0.65929985721E+03  0.00000000000E+00 0. -1.
    9000007    1    1    2  502    0  0.15586220660E+03  0.30301163175E+03  0.55555556022E+02  0.52838953077E+03  0.40000000000E+03 0. -1.
   -9000007    1    1    2    0  501 -0.15586220660E+03 -0.30301163175E+03 -0.25965263747E+03  0.58611310220E+03  0.40000000000E+03 0. -1.
<mgrwt>
<rscale>  2 0.52546082E+03</rscale>
<asrwt>0</asrwt>
<pdfrwt beam="1">  1        2 0.70031196E-01 0.52546082E+03</pdfrwt>
<pdfrwt beam="2">  1       -2 0.10143075E+00 0.52546082E+03</pdfrwt>
<totfact> 0.56362168E+01</totfact>
</mgrwt>
</event>
<event>
 4    1  0.2474915E-002  0.6011735E+03  0.7818608E-02  0.9902974E-01
          1   -1    0    0  502    0  0.00000000000E+00  0.00000000000E+00  0.65006058022E+03  0.65006058022E+03  0.00000000000E+00 0. -1.
         -1   -1    0    0    0  501 -0.00000000000E+00 -0.00000000000E+00 -0.79930621884E+03  0.79930621884E+03  0.00000000000E+00 0.  1.
    9000007    1    1    2  502    0 -0.29500427190E+03 -0.33820408869E+03  0.32523121706E+03  0.68350923227E+03  0.40000000000E+03 0. -1.
   -9000007    1    1    2    0  501  0.29500427190E+03  0.33820408869E+03 -0.47447685568E+03  0.76585756680E+03  0.40000000000E+03 0.  1.
<mgrwt>
<rscale>  2 0.60117346E+03</rscale>
<asrwt>0</asrwt>
<pdfrwt beam="1">  1        1 0.10000932E+00 0.60117346E+03</pdfrwt>
<pdfrwt beam="2">  1       -1 0.12297019E+00 0.60117346E+03</pdfrwt>
<totfact> 0.18578508E+01</totfact>
</mgrwt>
</event>
<event>
 4    1  0.2474915E-002  0.4264997E+03  0.7818608E-02  0.1034971E+00
         -2   -1    0    0    0  501 -0.00000000000E+00  0.00000000000E+00  0.41341331108E+03  0.41341331108E+03  0.00000000000E+00 0.  1.
          2   -1    0    0  502    0  0.00000000000E+00 -0.00000000000E+00 -0.44184207982E+03  0.44184207982E+03  0.00000000000E+00 0. -1.
    9000007    1    1    2  502    0  0.12431315267E+03 -0.80300637154E+02 -0.41823933352E+02  0.42854543943E+03  0.40000000000E+03 0.  1.
   -9000007    1    1    2    0  501 -0.12431315267E+03  0.80300637154E+02  0.13395164614E+02  0.42670995148E+03  0.40000000000E+03 0. -1.
<mgrwt>
<rscale>  2 0.42649965E+03</rscale>
<asrwt>0</asrwt>
<pdfrwt beam="1">  1        2 0.67975705E-01 0.42649965E+03</pdfrwt>
<pdfrwt beam="2">  1       -2 0.63602048E-01 0.42649965E+03</pdfrwt>
<totfact> 0.16684577E+02</totfact>
</mgrwt>
</event>
<event>
 4    1  0.2474915E-002  0.4235695E+03  0.7818608E-02  0.1035911E+00
         -1   -1    0    0    0  501 -0.00000000000E+00  0.00000000000E+00  0.12765215637E+03  0.12765215637E+03  0.00000000000E+00 0.  1.
          1   -1    0    0  502    0  0.00000000000E+00 -0.00000000000E+00 -0.15495959527E+04  0.15495959527E+04  0.00000000000E+00 0. -1.
    9000007    1    1    2  502    0  0.13671588470E+03  0.26831092295E+02 -0.96673080931E+03  0.10554523193E+04  0.40000000000E+03 0. -1.
   -9000007    1    1    2    0  501 -0.13671588470E+03 -0.26831092295E+02 -0.45521298704E+03  0.62179578980E+03  0.40000000000E+03 0. -1.
<mgrwt>
<rscale>  2 0.42356952E+03</rscale>
<asrwt>0</asrwt>
<pdfrwt beam="1">  1        1 0.23839936E+00 0.42356952E+03</pdfrwt>
<pdfrwt beam="2">  1       -1 0.19638795E-01 0.42356952E+03</pdfrwt>
<totfact> 0.13503052E+02</totfact>
</mgrwt>
</event>
<event>
 4    1  0.2474915E-002  0.4028333E+03  0.7818608E-02  0.1042803E+00
          3   -1    0    0  502    0  0.00000000000E+00  0.00000000000E+00  0.79616868998E+03  0.79616868998E+03  0.00000000000E+00 0.  1.
         -3   -1    0    0    0  501 -0.00000000000E+00 -0.00000000000E+00 -0.20382095362E+03  0.20382095362E+03  0.00000000000E+00 0. -1.
    9000007    1    1    2  502    0 -0.29281733877E+02 -0.37646301502E+02  0.29753220757E+03  0.50079943939E+03  0.40000000000E+03 0.  1.
   -9000007    1    1    2    0  501  0.29281733877E+02  0.37646301502E+02  0.29481552879E+03  0.49919020420E+03  0.40000000000E+03 0. -1.
<mgrwt>
<rscale>  2 0.40283330E+03</rscale>
<asrwt>0</asrwt>
<pdfrwt beam="1">  1        3 0.12248749E+00 0.40283330E+03</pdfrwt>
<pdfrwt beam="2">  1       -3 0.31357070E-01 0.40283330E+03</pdfrwt>
<totfact> 0.13979880E+01</totfact>
</mgrwt>
</event>
<event>
 4    1  0.2474915E-002  0.5238290E+03  0.7818608E-02  0.1007740E+00
         -2   -1    0    0    0  501 -0.00000000000E+00  0.00000000000E+00  0.14410316947E+03  0.14410316947E+03  0.00000000000E+00 0. -1.
          2   -1    0    0  502    0  0.00000000000E+00 -0.00000000000E+00 -0.19302953128E+04  0.19302953128E+04  0.00000000000E+00 0.  1.
    9000007    1    1    2  502    0  0.15498164835E+03 -0.30062856393E+03 -0.10137624018E+04  0.11411008072E+04  0.40000000000E+03 0.  1.
   -9000007    1    1    2    0  501 -0.15498164835E+03  0.30062856393E+03 -0.77242974152E+03  0.93329767511E+03  0.40000000000E+03 0. -1.
<mgrwt>
<rscale>  2 0.52382902E+03</rscale>
<asrwt>0</asrwt>
<pdfrwt beam="1">  1        2 0.29696847E+00 0.52382902E+03</pdfrwt>
<pdfrwt beam="2">  1       -2 0.22169722E-01 0.52382902E+03</pdfrwt>
<totfact> 0.13651628E+02</totfact>
</mgrwt>
</event>
<event>
 4    1  0.2474915E-002  0.4035254E+03  0.7818608E-02  0.1042566E+00
          2   -1    0    0  502    0  0.00000000000E+00  0.00000000000E+00  0.38501044618E+03  0.38501044618E+03  0.00000000000E+00 0. -1.
         -2   -1    0    0    0  501 -0.00000000000E+00 -0.00000000000E+00 -0.50565486248E+03  0.50565486248E+03  0.00000000000E+00 0.  1.
    9000007    1    1    2  502    0  0.14341888029E+02 -0.51254929187E+02  0.11980258720E+03  0.42093398226E+03  0.40000000000E+03 0. -1.
   -9000007    1    1    2    0  501 -0.14341888029E+02  0.51254929187E+02 -0.24044700349E+03  0.46973132641E+03  0.40000000000E+03 0.  1.
<mgrwt>
<rscale>  2 0.40352541E+03</rscale>
<asrwt>0</asrwt>
<pdfrwt beam="1">  1        2 0.59232376E-01 0.40352541E+03</pdfrwt>
<pdfrwt beam="2">  1       -2 0.77793056E-01 0.40352541E+03</pdfrwt>
<totfact> 0.12589126E+02</totfact>
</mgrwt>
</event>
<event>
 4    1  0.2474915E-002  0.5197173E+03  0.7818608E-02  0.1008757E+00
          1   -1    0    0  502    0  0.00000000000E+00  0.00000000000E+00  0.13688845028E+04  0.13688845028E+04  0.00000000000E+00 0.  1.
         -1   -1    0    0    0  501 -0.00000000000E+00 -0.00000000000E+00 -0.19969751823E+03  0.19969751823E+03  0.00000000000E+00 0. -1.
    9000007    1    1    2  502    0 -0.24116650822E+03 -0.22791393458E+03  0.67019915432E+03  0.84809961250E+03  0.40000000000E+03 0.  1.
   -9000007    1    1    2    0  501  0.24116650822E+03  0.22791393458E+03  0.49898783022E+03  0.72048240851E+03  0.40000000000E+03 0. -1.
<mgrwt>
<rscale>  2 0.51971728E+03</rscale>
<asrwt>0</asrwt>
<pdfrwt beam="1">  1        1 0.21059761E+00 0.51971728E+03</pdfrwt>
<pdfrwt beam="2">  1       -1 0.30722696E-01 0.51971728E+03</pdfrwt>
<totfact> 0.83013525E+01</totfact>
</mgrwt>
</event>
<event>
 4    1  0.2474915E-002  0.4255962E+03  0.7818608E-02  0.1035260E+00
         -2   -1    0    0    0  501 -0.00000000000E+00  0.00000000000E+00  0.16666616160E+03  0.16666616160E+03  0.00000000000E+00 0.  1.
          2   -1    0    0  502    0  0.00000000000E+00 -0.00000000000E+00 -0.10869384277E+04  0.10869384277E+04  0.00000000000E+00 0. -1.
    9000007    1    1    2  502    0 -0.10243137378E+03  0.10315013308E+03 -0.46730838946E+03  0.63206745459E+03  0.40000000000E+03 0. -1.
   -9000007    1    1    2    0  501  0.10243137378E+03 -0.10315013308E+03 -0.45296387663E+03  0.62153713471E+03  0.40000000000E+03 0. -1.
<mgrwt>
<rscale>  2 0.42559621E+03</rscale>
<asrwt>0</asrwt>
<pdfrwt beam="1">  1        2 0.16722130E+00 0.42559621E+03</pdfrwt>
<pdfrwt beam="2">  1       -2 0.25640948E-01 0.42559621E+03</pdfrwt>
<totfact> 0.31319070E+02</totfact>
</mgrwt>
</event>
<event>
 4    1  0.2474915E-002  0.4675274E+03  0.7818608E-02  0.1022620E+00
          1   -1    0    0  502    0  0.00000000000E+00  0.00000000000E+00  0.46553787921E+03  0.46553787921E+03  0.00000000000E+00 0.  1.
         -1   -1    0    0    0  501 -0.00000000000E+00 -0.00000000000E+00 -0.87261109207E+03  0.87261109207E+03  0.00000000000E+00 0. -1.
    9000007    1    1    2  502    0  0.17260658077E+03 -0.16967265952E+03  0.25120303395E+03  0.53073986790E+03  0.40000000000E+03 0.  1.
   -9000007    1    1    2    0  501 -0.17260658077E+03  0.16967265952E+03 -0.65827624681E+03  0.80740910339E+03  0.40000000000E+03 0. -1.
<mgrwt>
<rscale>  2 0.46752737E+03</rscale>
<asrwt>0</asrwt>
<pdfrwt beam="1">  1        1 0.71621212E-01 0.46752737E+03</pdfrwt>
<pdfrwt beam="2">  1       -1 0.13424786E+00 0.46752737E+03</pdfrwt>
<totfact> 0.24284670E+01</totfact>
</mgrwt>
</event>
<event>
 4    1  0.2474915E-002  0.7175118E+03  0.7818608E-02  0.9687745E-01
         -1   -1    0    0    0  501 -0.00000000000E+00  0.00000000000E+00  0.98871887334E+03  0.98871887334E+03  0.00000000000E+00 0. -1.
          1   -1    0    0  502    0  0.00000000000E+00 -0.00000000000E+00 -0.69312565041E+03  0.69312565041E+03  0.00000000000E+00 0.  1.
    9000007    1    1    2  502    0  0.79577895412E+02  0.59033083520E+03  0.56722164009E+03  0.91463846706E+03  0.40000000000E+03 0. -1.
   -9000007    1    1    2    0  501 -0.79577895412E+02 -0.59033083520E+03 -0.27162841716E+03  0.76720605670E+03  0.40000000000E+03 0.  1.
<mgrwt>
<rscale>  2 0.71751177E+03</rscale>
<asrwt>0</asrwt>
<pdfrwt beam="1">  1        1 0.10663471E+00 0.71751177E+03</pdfrwt>
<pdfrwt beam="2">  1       -1 0.15211060E+00 0.71751177E+03</pdfrwt>
<totfact> 0.96205086E+00</totfact>
</mgrwt>
</event>
<event>
 4    1  0.2474915E-002  0.4180291E+03  0.7818608E-02  0.1037710E+00
         -2   -1    0    0    0  501 -0.00000000000E+00  0.00000000000E+00  0.50407458717E+03  0.50407458717E+03  0.00000000000E+00 0.  1.
          2   -1    0    0  502    0  0.00000000000E+00 -0.00000000000E+00 -0.48944201534E+03  0.48944201534E+03  0.00000000000E+00 0. -1.
    9000007    1    1    2  502    0 -0.48107863380E+02  0.11150782176E+03  0.27561189740E+03  0.50070977504E+03  0.40000000000E+03 0.  1.
   -9000007    1    1    2    0  501  0.48107863380E+02 -0.11150782176E+03 -0.26097932557E+03  0.49280682748E+03  0.40000000000E+03 0. -1.
<mgrwt>
<rscale>  2 0.41802914E+03</rscale>
<asrwt>0</asrwt>
<pdfrwt beam="1">  1        2 0.75298772E-01 0.41802914E+03</pdfrwt>
<pdfrwt beam="2">  1       -2 0.77549937E-01 0.41802914E+03</pdfrwt>
<totfact> 0.96806823E+01</totfact>
</mgrwt>
</event>
<event>
 4    1  0.2474915E-002  0.4529987E+03  0.7818608E-02  0.1026832E+00
          2   -1    0    0  502    0  0.00000000000E+00  0.00000000000E+00  0.24624147270E+04  0.24624147270E+04  0.00000000000E+00 0. -1.
         -2   -1    0    0    0  501 -0.00000000000E+00 -0.00000000000E+00 -0.84021549713E+02  0.84021549713E+02  0.00000000000E+00 0.  1.
    9000007    1    1    2  502    0 -0.50677051481E+01 -0.21256096929E+03  0.13042024708E+04  0.13806346121E+04  0.40000000000E+03 0.  1.
   -9000007    1    1    2    0  501  0.50677051481E+01  0.21256096929E+03  0.10741907065E+04  0.11658016646E+04  0.40000000000E+03 0.  1.
<mgrwt>
<rscale>  2 0.45299873E+03</rscale>
<asrwt>0</asrwt>
<pdfrwt beam="1">  1        2 0.37883298E+00 0.45299873E+03</pdfrwt>
<pdfrwt beam="2">  1       -2 0.12926394E-01 0.45299873E+03</pdfrwt>
<totfact> 0.17751888E+02</totfact>
</mgrwt>
</event>
<event>
 4    1  0.2474915E-002  0.5394122E+03  0.7818608E-02  0.1003975E+00
         -2   -1    0    0    0  501 -0.00000000000E+00  0.00000000000E+00  0.28066758917E+03  0.28066758917E+03  0.00000000000E+00 0. -1.
          2   -1    0    0  502    0  0.00000000000E+00 -0.00000000000E+00 -0.10386554861E+04  0.10386554861E+04  0.00000000000E+00 0.  1.
    9000007    1    1    2  502    0 -0.19662205381E+03  0.30381792989E+03 -0.35030538832E+03  0.64317915984E+03  0.40000000000E+03 0.  1.
   -9000007    1    1    2    0  501  0.19662205381E+03 -0.30381792989E+03 -0.40768250867E+03  0.67614391548E+03  0.40000000000E+03 0.  1.
<mgrwt>
<rscale>  2 0.53941224E+03</rscale>
<asrwt>0</asrwt>
<pdfrwt beam="1">  1        2 0.15979315E+00 0.53941224E+03</pdfrwt>
<pdfrwt beam="2">  1       -2 0.43179630E-01 0.53941224E+03</pdfrwt>
<totfact> 0.12473008E+02</totfact>
</mgrwt>
</event>
<event>
 4    1  0.2474915E-002  0.5192172E+03  0.7818608E-02  0.1008881E+00
         -2   -1    0    0    0  501 -0.00000000000E+00  0.00000000000E+00  0.31013500834E+03  0.31013500834E+03  0.00000000000E+00 0. -1.
          2   -1    0    0  502    0  0.00000000000E+00 -0.00000000000E+00 -0.10034581171E+04  0.10034581171E+04  0.00000000000E+00 0.  1.
    9000007    1    1    2  502    0  0.11720923600E+03  0.30959411378E+03 -0.58685544399E+03  0.78357248065E+03  0.40000000000E+03 0.  1.
   -9000007    1    1    2    0  501 -0.11720923600E+03 -0.30959411378E+03 -0.10646766480E+03  0.53002064482E+03  0.40000000000E+03 0. -1.
<mgrwt>
<rscale>  2 0.51921722E+03</rscale>
<asrwt>0</asrwt>
<pdfrwt beam="1">  1        2 0.15437817E+00 0.51921722E+03</pdfrwt>
<pdfrwt beam="2">  1       -2 0.47713078E-01 0.51921722E+03</pdfrwt>
<totfact> 0.10781882E+02</totfact>
</mgrwt>
</event>
<event>
 4    1  0.2474915E-002  0.4536479E+03  0.7818608E-02  0.1026640E+00
          2   -1    0    0  502    0  0.00000000000E+00  0.00000000000E+00  0.11451403974E+04  0.11451403974E+04  0.00000000000E+00 0.  1.
         -2   -1    0    0    0  501 -0.00000000000E+00 -0.00000000000E+00 -0.20346871686E+03  0.20346871686E+03  0.00000000000E+00 0. -1.
    9000007    1    1    2  502    0  0.19757851358E+03 -0.82214090296E+02  0.70124135142E+03  0.83518612214E+03  0.40000000000E+03 0.  1.
   -9000007    1    1    2    0  501 -0.19757851358E+03  0.82214090296E+02  0.24043032912E+03  0.51342299212E+03  0.40000000000E+03 0. -1.
<mgrwt>
<rscale>  2 0.45364791E+03</rscale>
<asrwt>0</asrwt>
<pdfrwt beam="1">  1        2 0.17617544E+00 0.45364791E+03</pdfrwt>
<pdfrwt beam="2">  1       -2 0.31302880E-01 0.45364791E+03</pdfrwt>
<totfact> 0.20041823E+02</totfact>
</mgrwt>
</event>
<event>
 4    1  0.2474915E-002  0.4042070E+03  0.7818608E-02  0.1042333E+00
          2   -1    0    0  502    0  0.00000000000E+00  0.00000000000E+00  0.25168591532E+03  0.25168591532E+03  0.00000000000E+00 0.  1.
         -2   -1    0    0    0  501 -0.00000000000E+00 -0.00000000000E+00 -0.81114290694E+03  0.81114290694E+03  0.00000000000E+00 0. -1.
    9000007    1    1    2  502    0 -0.52843324701E+02  0.24307861445E+02 -0.51720754680E+03  0.65641978608E+03  0.40000000000E+03 0. -1.
   -9000007    1    1    2    0  501  0.52843324701E+02 -0.24307861445E+02 -0.42249444820E+02  0.40640903617E+03  0.40000000000E+03 0.  1.
<mgrwt>
<rscale>  2 0.40420699E+03</rscale>
<asrwt>0</asrwt>
<pdfrwt beam="1">  1        2 0.38720911E-01 0.40420699E+03</pdfrwt>
<pdfrwt beam="2">  1       -2 0.12479121E+00 0.40420699E+03</pdfrwt>
<totfact> 0.66441877E+01</totfact>
</mgrwt>
</event>
<event>
 4    1  0.2474915E-002  0.4218068E+03  0.7818608E-02  0.1036480E+00
          2   -1    0    0  502    0  0.00000000000E+00  0.00000000000E+00  0.39983581818E+03  0.39983581818E+03  0.00000000000E+00 0.  1.
         -2   -1    0    0    0  501 -0.00000000000E+00 -0.00000000000E+00 -0.57630239088E+03  0.57630239088E+03  0.00000000000E+00 0. -1.
    9000007    1    1    2  502    0 -0.95549278729E+02  0.93761955338E+02  0.14474589547E+03  0.44595105470E+03  0.40000000000E+03 0.  1.
   -9000007    1    1    2    0  501  0.95549278729E+02 -0.93761955338E+02 -0.32121246818E+03  0.53018715436E+03  0.40000000000E+03 0. -1.
<mgrwt>
<rscale>  2 0.42180679E+03</rscale>
<asrwt>0</asrwt>
<pdfrwt beam="1">  1        2 0.61513203E-01 0.42180679E+03</pdfrwt>
<pdfrwt beam="2">  1       -2 0.88661906E-01 0.42180679E+03</pdfrwt>
<totfact> 0.89870241E+01</totfact>
</mgrwt>
</event>
<event>
 4    1  0.2474915E-002  0.1054241E+04  0.7818608E-02  0.9250977E-01
         -1   -1    0    0    0  501 -0.00000000000E+00  0.00000000000E+00  0.17451301452E+04  0.17451301452E+04  0.00000000000E+00 0. -1.
          1   -1    0    0  502    0  0.00000000000E+00 -0.00000000000E+00 -0.93639573410E+03  0.93639573410E+03  0.00000000000E+00 0.  1.
    9000007    1    1    2  502    0 -0.97202620140E+03  0.81169181641E+02 -0.35392812843E+03  0.11120649677E+04  0.40000000000E+03 0.  1.
   -9000007    1    1    2    0  501  0.97202620140E+03 -0.81169181641E+02  0.11626625395E+04  0.15694609116E+04  0.40000000000E+03 0. -1.
<mgrwt>
<rscale>  2 0.10542407E+04</rscale>
<asrwt>0</asrwt>
<pdfrwt beam="1">  1        1 0.14406088E+00 0.10542407E+04</pdfrwt>
<pdfrwt beam="2">  1       -1 0.26848156E+00 0.10542407E+04</pdfrwt>
<totfact> 0.90041217E-01</totfact>
</mgrwt>
</event>
<event>
 4    1  0.2474915E-002  0.4976775E+03  0.7818608E-02  0.1014387E+00
         -2   -1    0    0    0  501 -0.00000000000E+00  0.00000000000E+00  0.76782609563E+02  0.76782609563E+02  0.00000000000E+00 0. -1.
          2   -1    0    0  502    0  0.00000000000E+00 -0.00000000000E+00 -0.33476355412E+04  0.33476355412E+04  0.00000000000E+00 0.  1.
    9000007    1    1    2  502    0  0.29386446456E+03 -0.36422793785E+02 -0.13087405772E+04  0.14001731471E+04  0.40000000000E+03 0. -1.
   -9000007    1    1    2    0  501 -0.29386446456E+03  0.36422793785E+02 -0.19621123545E+04  0.20242450037E+04  0.40000000000E+03 0. -1.
<mgrwt>
<rscale>  2 0.49767755E+03</rscale>
<asrwt>0</asrwt>
<pdfrwt beam="1">  1        2 0.51502080E+00 0.49767755E+03</pdfrwt>
<pdfrwt beam="2">  1       -2 0.11812710E-01 0.49767755E+03</pdfrwt>
<totfact> 0.60493602E+01</totfact>
</mgrwt>
</event>
<event>
 4    1  0.2474915E-002  0.4636230E+03  0.7818608E-02  0.1023736E+00
          1   -1    0    0  502    0  0.00000000000E+00  0.00000000000E+00  0.92398148529E+03  0.92398148529E+03  0.00000000000E+00 0. -1.
         -1   -1    0    0    0  501 -0.00000000000E+00 -0.00000000000E+00 -0.24142194470E+03  0.24142194470E+03  0.00000000000E+00 0.  1.
    9000007    1    1    2  502    0 -0.23185484008E+03  0.34490203131E+02  0.45247571675E+03  0.64782753510E+03  0.40000000000E+03 0.  1.
   -9000007    1    1    2    0  501  0.23185484008E+03 -0.34490203131E+02  0.23008382384E+03  0.51757589489E+03  0.40000000000E+03 0.  1.
<mgrwt>
<rscale>  2 0.46362295E+03</rscale>
<asrwt>0</asrwt>
<pdfrwt beam="1">  1        1 0.14215100E+00 0.46362295E+03</pdfrwt>
<pdfrwt beam="2">  1       -1 0.37141838E-01 0.46362295E+03</pdfrwt>
<totfact> 0.12665234E+02</totfact>
</mgrwt>
</event>
<event>
 4    1  0.2474915E-002  0.4448019E+03  0.7818608E-02  0.1029284E+00
         -2   -1    0    0    0  501 -0.00000000000E+00  0.00000000000E+00  0.11968821288E+03  0.11968821288E+03  0.00000000000E+00 0. -1.
          2   -1    0    0  502    0  0.00000000000E+00 -0.00000000000E+00 -0.17929500666E+04  0.17929500666E+04  0.00000000000E+00 0.  1.
    9000007    1    1    2  502    0 -0.25383252669E+02 -0.19288457698E+03 -0.56948321941E+03  0.72260632902E+03  0.40000000000E+03 0.  1.
   -9000007    1    1    2    0  501  0.25383252669E+02  0.19288457698E+03 -0.11037786343E+04  0.11900319504E+04  0.40000000000E+03 0.  1.
<mgrwt>
<rscale>  2 0.44480194E+03</rscale>
<asrwt>0</asrwt>
<pdfrwt beam="1">  1        2 0.27583845E+00 0.44480194E+03</pdfrwt>
<pdfrwt beam="2">  1       -2 0.18413573E-01 0.44480194E+03</pdfrwt>
<totfact> 0.22587070E+02</totfact>
</mgrwt>
</event>
<event>
 4    1  0.2474915E-002  0.4059577E+03  0.7818608E-02  0.1041736E+00
          2   -1    0    0  502    0  0.00000000000E+00  0.00000000000E+00  0.62111493416E+03  0.62111493416E+03  0.00000000000E+00 0. -1.
         -2   -1    0    0    0  501 -0.00000000000E+00 -0.00000000000E+00 -0.27284388557E+03  0.27284388557E+03  0.00000000000E+00 0.  1.
    9000007    1    1    2  502    0 -0.66189282138E+02  0.20508970678E+02  0.99969290603E+02  0.41808551519E+03  0.40000000000E+03 0.  1.
   -9000007    1    1    2    0  501  0.66189282138E+02 -0.20508970678E+02  0.24830175799E+03  0.47587330453E+03  0.40000000000E+03 0. -1.
<mgrwt>
<rscale>  2 0.40595768E+03</rscale>
<asrwt>0</asrwt>
<pdfrwt beam="1">  1        2 0.95556143E-01 0.40595768E+03</pdfrwt>
<pdfrwt beam="2">  1       -2 0.41975983E-01 0.40595768E+03</pdfrwt>
<totfact> 0.26242331E+02</totfact>
</mgrwt>
</event>
<event>
 4    1  0.2474915E-002  0.4968251E+03  0.7818608E-02  0.1014611E+00
         -2   -1    0    0    0  501 -0.00000000000E+00  0.00000000000E+00  0.19176487906E+03  0.19176487906E+03  0.00000000000E+00 0.  1.
          2   -1    0    0  502    0  0.00000000000E+00 -0.00000000000E+00 -0.14262830957E+04  0.14262830957E+04  0.00000000000E+00 0. -1.
    9000007    1    1    2  502    0 -0.23814659037E+03  0.17355522047E+03 -0.86991687864E+03  0.10017936857E+04  0.40000000000E+03 0. -1.
   -9000007    1    1    2    0  501  0.23814659037E+03 -0.17355522047E+03 -0.36460133801E+03  0.61625428902E+03  0.40000000000E+03 0. -1.
<mgrwt>
<rscale>  2 0.49682513E+03</rscale>
<asrwt>0</asrwt>
<pdfrwt beam="1">  1        2 0.21942817E+00 0.49682513E+03</pdfrwt>
<pdfrwt beam="2">  1       -2 0.29502288E-01 0.49682513E+03</pdfrwt>
<totfact> 0.15378530E+02</totfact>
</mgrwt>
</event>
<event>
 4    1  0.2474915E-002  0.4767176E+03  0.7818608E-02  0.1020041E+00
         -1   -1    0    0    0  501 -0.00000000000E+00  0.00000000000E+00  0.47445132134E+03  0.47445132134E+03  0.00000000000E+00 0.  1.
          1   -1    0    0  502    0  0.00000000000E+00 -0.00000000000E+00 -0.58299860299E+03  0.58299860299E+03  0.00000000000E+00 0. -1.
    9000007    1    1    2  502    0 -0.15885825318E+03 -0.20499697200E+03 -0.27759009495E+03  0.55164840609E+03  0.40000000000E+03 0. -1.
   -9000007    1    1    2    0  501  0.15885825318E+03  0.20499697200E+03  0.16904281330E+03  0.50580151825E+03  0.40000000000E+03 0.  1.
<mgrwt>
<rscale>  2 0.47671763E+03</rscale>
<asrwt>0</asrwt>
<pdfrwt beam="1">  1        1 0.89692093E-01 0.47671763E+03</pdfrwt>
<pdfrwt beam="2">  1       -1 0.72992511E-01 0.47671763E+03</pdfrwt>
<totfact> 0.70761123E+01</totfact>
</mgrwt>
</event>
<event>
 4    1  0.2474915E-002  0.4414202E+03  0.7818608E-02  0.1030312E+00
          2   -1    0    0  502    0  0.00000000000E+00  0.00000000000E+00  0.13833132065E+04  0.13833132065E+04  0.00000000000E+00 0.  1.
         -2   -1    0    0    0  501 -0.00000000000E+00 -0.00000000000E+00 -0.14914668287E+03  0.14914668287E+03  0.00000000000E+00 0. -1.
    9000007    1    1    2  502    0  0.68048710256E+02 -0.17384237024E+03  0.79770703564E+03  0.91169529525E+03  0.40000000000E+03 0.  1.
   -9000007    1    1    2    0  501 -0.68048710256E+02  0.17384237024E+03  0.43645948797E+03  0.62076459411E+03  0.40000000000E+03 0. -1.
<mgrwt>
<rscale>  2 0.44142020E+03</rscale>
<asrwt>0</asrwt>
<pdfrwt beam="1">  1        2 0.21281741E+00 0.44142020E+03</pdfrwt>
<pdfrwt beam="2">  1       -2 0.22945644E-01 0.44142020E+03</pdfrwt>
<totfact> 0.25713130E+02</totfact>
</mgrwt>
</event>
<event>
 4    1  0.2474915E-002  0.4277579E+03  0.7818608E-02  0.1034571E+00
         -2   -1    0    0    0  501 -0.00000000000E+00  0.00000000000E+00  0.48440926502E+03  0.48440926502E+03  0.00000000000E+00 0. -1.
          2   -1    0    0  502    0  0.00000000000E+00 -0.00000000000E+00 -0.37783793802E+03  0.37783793802E+03  0.00000000000E+00 0.  1.
    9000007    1    1    2  502    0 -0.26473569147E+02  0.14925129010E+03  0.46060860422E+02  0.43023063620E+03  0.40000000000E+03 0.  1.
   -9000007    1    1    2    0  501  0.26473569147E+02 -0.14925129010E+03  0.60510466583E+02  0.43201656684E+03  0.40000000000E+03 0.  1.
<mgrwt>
<rscale>  2 0.42775787E+03</rscale>
<asrwt>0</asrwt>
<pdfrwt beam="1">  1        2 0.58128914E-01 0.42775787E+03</pdfrwt>
<pdfrwt beam="2">  1       -2 0.74524502E-01 0.42775787E+03</pdfrwt>
<totfact> 0.14104627E+02</totfact>
</mgrwt>
</event>
<event>
 4    1  0.2474915E-002  0.4847300E+03  0.7818608E-02  0.1017843E+00
         -2   -1    0    0    0  501 -0.00000000000E+00  0.00000000000E+00  0.10605474429E+03  0.10605474429E+03  0.00000000000E+00 0. -1.
          2   -1    0    0  502    0  0.00000000000E+00 -0.00000000000E+00 -0.24448243922E+04  0.24448243922E+04  0.00000000000E+00 0.  1.
    9000007    1    1    2  502    0 -0.22179559353E+03 -0.16052997415E+03 -0.15600199101E+04  0.16335927515E+04  0.40000000000E+03 0.  1.
   -9000007    1    1    2    0  501  0.22179559353E+03  0.16052997415E+03 -0.77874973779E+03  0.91728638495E+03  0.40000000000E+03 0. -1.
<mgrwt>
<rscale>  2 0.48472998E+03</rscale>
<asrwt>0</asrwt>
<pdfrwt beam="1">  1        2 0.37612684E+00 0.48472998E+03</pdfrwt>
<pdfrwt beam="2">  1       -2 0.16316114E-01 0.48472998E+03</pdfrwt>
<totfact> 0.12232430E+02</totfact>
</mgrwt>
</event>
<event>
 4    1  0.2474915E-002  0.4768332E+03  0.7818608E-02  0.1020009E+00
          2   -1    0    0  502    0  0.00000000000E+00  0.00000000000E+00  0.10266491165E+04  0.10266491165E+04  0.00000000000E+00 0. -1.
         -2   -1    0    0    0  501 -0.00000000000E+00 -0.00000000000E+00 -0.27987459814E+03  0.27987459814E+03  0.00000000000E+00 0.  1.
    9000007    1    1    2  502    0  0.93940082031E+02 -0.24196098465E+03  0.74961184071E+02  0.48268937861E+03  0.40000000000E+03 0.  1.
   -9000007    1    1    2    0  501 -0.93940082031E+02  0.24196098465E+03  0.67181333429E+03  0.82383433604E+03  0.40000000000E+03 0. -1.
<mgrwt>
<rscale>  2 0.47683315E+03</rscale>
<asrwt>0</asrwt>
<pdfrwt beam="1">  1        2 0.15794602E+00 0.47683315E+03</pdfrwt>
<pdfrwt beam="2">  1       -2 0.43057631E-01 0.47683315E+03</pdfrwt>
<totfact> 0.12841480E+02</totfact>
</mgrwt>
</event>
<event>
 4    1  0.2474915E-002  0.4556026E+03  0.7818608E-02  0.1026064E+00
          2   -1    0    0  502    0  0.00000000000E+00  0.00000000000E+00  0.86098411979E+03  0.86098411979E+03  0.00000000000E+00 0.  1.
         -2   -1    0    0    0  501 -0.00000000000E+00 -0.00000000000E+00 -0.25054007856E+03  0.25054007856E+03  0.00000000000E+00 0. -1.
    9000007    1    1    2  502    0 -0.48833885629E+02 -0.21257706756E+03  0.41316443810E+03  0.61504358459E+03  0.40000000000E+03 0.  1.
   -9000007    1    1    2    0  501  0.48833885629E+02  0.21257706756E+03  0.19727960313E+03  0.49648061377E+03  0.40000000000E+03 0.  1.
<mgrwt>
<rscale>  2 0.45560263E+03</rscale>
<asrwt>0</asrwt>
<pdfrwt beam="1">  1        2 0.13245909E+00 0.45560263E+03</pdfrwt>
<pdfrwt beam="2">  1       -2 0.38544628E-01 0.45560263E+03</pdfrwt>
<totfact> 0.20420383E+02</totfact>
</mgrwt>
</event>
<event>
 4    1  0.2474915E-002  0.4132328E+03  0.7818608E-02  0.1039292E+00
         -1   -1    0    0    0  501 -0.00000000000E+00  0.00000000000E+00  0.37169426211E+03  0.37169426211E+03  0.00000000000E+00 0.  1.
          1   -1    0    0  502    0  0.00000000000E+00 -0.00000000000E+00 -0.45983249521E+03  0.45983249521E+03  0.00000000000E+00 0. -1.
    9000007    1    1    2  502    0 -0.42347546097E+02  0.94699712901E+02 -0.31518440752E+02  0.41443306141E+03  0.40000000000E+03 0. -1.
   -9000007    1    1    2    0  501  0.42347546097E+02 -0.94699712901E+02 -0.56619792349E+02  0.41709369591E+03  0.40000000000E+03 0. -1.
<mgrwt>
<rscale>  2 0.41323280E+03</rscale>
<asrwt>0</asrwt>
<pdfrwt beam="1">  1        1 0.70743460E-01 0.41323280E+03</pdfrwt>
<pdfrwt beam="2">  1       -1 0.57183733E-01 0.41323280E+03</pdfrwt>
<totfact> 0.16005496E+02</totfact>
</mgrwt>
</event>
<event>
 4    1  0.2474915E-002  0.4067691E+03  0.7818608E-02  0.1041461E+00
          2   -1    0    0  502    0  0.00000000000E+00  0.00000000000E+00  0.28788335588E+03  0.28788335588E+03  0.00000000000E+00 0. -1.
         -2   -1    0    0    0  501 -0.00000000000E+00 -0.00000000000E+00 -0.60013279352E+03  0.60013279352E+03  0.00000000000E+00 0.  1.
    9000007    1    1    2  502    0  0.71339994852E+02  0.19279460307E+02 -0.64811652827E+02  0.41190003981E+03  0.40000000000E+03 0. -1.
   -9000007    1    1    2    0  501 -0.71339994852E+02 -0.19279460307E+02 -0.24743778481E+03  0.47611610958E+03  0.40000000000E+03 0.  1.
<mgrwt>
<rscale>  2 0.40676909E+03</rscale>
<asrwt>0</asrwt>
<pdfrwt beam="1">  1        2 0.44289747E-01 0.40676909E+03</pdfrwt>
<pdfrwt beam="2">  1       -2 0.92328122E-01 0.40676909E+03</pdfrwt>
<totfact> 0.11767197E+02</totfact>
</mgrwt>
</event>
<event>
 4    1  0.2474915E-002  0.4620946E+03  0.7818608E-02  0.1024175E+00
         -2   -1    0    0    0  501 -0.00000000000E+00  0.00000000000E+00  0.32194855397E+03  0.32194855397E+03  0.00000000000E+00 0. -1.
          2   -1    0    0  502    0  0.00000000000E+00 -0.00000000000E+00 -0.68221464525E+03  0.68221464525E+03  0.00000000000E+00 0.  1.
    9000007    1    1    2  502    0 -0.14980448401E+03 -0.17632362810E+03 -0.96414677184E+02  0.47204575544E+03  0.40000000000E+03 0. -1.
   -9000007    1    1    2    0  501  0.14980448401E+03  0.17632362810E+03 -0.26385141410E+03  0.53211744378E+03  0.40000000000E+03 0. -1.
<mgrwt>
<rscale>  2 0.46209458E+03</rscale>
<asrwt>0</asrwt>
<pdfrwt beam="1">  1        2 0.10495610E+00 0.46209458E+03</pdfrwt>
<pdfrwt beam="2">  1       -2 0.49530548E-01 0.46209458E+03</pdfrwt>
<totfact> 0.16799902E+02</totfact>
</mgrwt>
</event>
<event>
 4    1  0.2474915E-002  0.5232456E+03  0.7818608E-02  0.1007883E+00
          2   -1    0    0  502    0  0.00000000000E+00  0.00000000000E+00  0.10121259049E+04  0.10121259049E+04  0.00000000000E+00 0.  1.
         -2   -1    0    0    0  501 -0.00000000000E+00 -0.00000000000E+00 -0.27071518507E+03  0.27071518507E+03  0.00000000000E+00 0. -1.
    9000007    1    1    2  502    0  0.16731081589E+03  0.29290444448E+03  0.35286660913E+03  0.63111074032E+03  0.40000000000E+03 0. -1.
   -9000007    1    1    2    0  501 -0.16731081589E+03 -0.29290444448E+03  0.38854411074E+03  0.65173034969E+03  0.40000000000E+03 0.  1.
<mgrwt>
<rscale>  2 0.52324557E+03</rscale>
<asrwt>0</asrwt>
<pdfrwt beam="1">  1        2 0.15571168E+00 0.52324557E+03</pdfrwt>
<pdfrwt beam="2">  1       -2 0.41648490E-01 0.52324557E+03</pdfrwt>
<totfact> 0.13929336E+02</totfact>
</mgrwt>
</event>
<event>
 4    1  0.2474915E-002  0.4069540E+03  0.7818608E-02  0.1041398E+00
          1   -1    0    0  502    0  0.00000000000E+00  0.00000000000E+00  0.53871544740E+03  0.53871544740E+03  0.00000000000E+00 0. -1.
         -1   -1    0    0    0  501 -0.00000000000E+00 -0.00000000000E+00 -0.31733664773E+03  0.31733664773E+03  0.00000000000E+00 0.  1.
    9000007    1    1    2  502    0  0.72177504634E+02 -0.20048547506E+02  0.35022242290E+02  0.40845819111E+03  0.40000000000E+03 0.  1.
   -9000007    1    1    2    0  501 -0.72177504634E+02  0.20048547506E+02  0.18635655739E+03  0.44759390402E+03  0.40000000000E+03 0. -1.
<mgrwt>
<rscale>  2 0.40695397E+03</rscale>
<asrwt>0</asrwt>
<pdfrwt beam="1">  1        1 0.82879299E-01 0.40695397E+03</pdfrwt>
<pdfrwt beam="2">  1       -1 0.48821023E-01 0.40695397E+03</pdfrwt>
<totfact> 0.17443088E+02</totfact>
</mgrwt>
</event>
<event>
 4    1  0.2474915E-002  0.4105279E+03  0.7818608E-02  0.1040194E+00
          2   -1    0    0  502    0  0.00000000000E+00  0.00000000000E+00  0.23820022782E+03  0.23820022782E+03  0.00000000000E+00 0.  1.
         -2   -1    0    0    0  501 -0.00000000000E+00 -0.00000000000E+00 -0.71946577746E+03  0.71946577746E+03  0.00000000000E+00 0. -1.
    9000007    1    1    2  502    0 -0.81297003587E+02  0.43862951981E+02 -0.30231409823E+03  0.50983033976E+03  0.40000000000E+03 0. -1.
   -9000007    1    1    2    0  501  0.81297003587E+02 -0.43862951981E+02 -0.17895145142E+03  0.44783566552E+03  0.40000000000E+03 0.  1.
<mgrwt>
<rscale>  2 0.41052791E+03</rscale>
<asrwt>0</asrwt>
<pdfrwt beam="1">  1        2 0.36646190E-01 0.41052791E+03</pdfrwt>
<pdfrwt beam="2">  1       -2 0.11068704E+00 0.41052791E+03</pdfrwt>
<totfact> 0.94522515E+01</totfact>
</mgrwt>
</event>
<event>
 4    1  0.2474915E-002  0.4058892E+03  0.7818608E-02  0.1041759E+00
         -1   -1    0    0    0  501 -0.00000000000E+00  0.00000000000E+00  0.70250103491E+02  0.70250103491E+02  0.00000000000E+00 0. -1.
          1   -1    0    0  502    0  0.00000000000E+00 -0.00000000000E+00 -0.23614216586E+04  0.23614216586E+04  0.00000000000E+00 0.  1.
    9000007    1    1    2  502    0  0.22004571497E+02 -0.65282767198E+02 -0.10446158705E+04  0.11206999410E+04  0.40000000000E+03 0.  1.
   -9000007    1    1    2    0  501 -0.22004571497E+02  0.65282767198E+02 -0.12465556847E+04  0.13109718212E+04  0.40000000000E+03 0.  1.
<mgrwt>
<rscale>  2 0.40588920E+03</rscale>
<asrwt>0</asrwt>
<pdfrwt beam="1">  1        1 0.36329567E+00 0.40588920E+03</pdfrwt>
<pdfrwt beam="2">  1       -1 0.10807707E-01 0.40588920E+03</pdfrwt>
<totfact> 0.10269923E+02</totfact>
</mgrwt>
</event>
<event>
 4    1  0.2474915E-002  0.4407850E+03  0.7818608E-02  0.1030506E+00
          2   -1    0    0  502    0  0.00000000000E+00  0.00000000000E+00  0.64197352822E+03  0.64197352822E+03  0.00000000000E+00 0.  1.
         -2   -1    0    0    0  501 -0.00000000000E+00 -0.00000000000E+00 -0.30265285804E+03  0.30265285804E+03  0.00000000000E+00 0. -1.
    9000007    1    1    2  502    0  0.69881615990E+02  0.17148749243E+03  0.16759289347E+03  0.47157054430E+03  0.40000000000E+03 0.  1.
   -9000007    1    1    2    0  501 -0.69881615990E+02 -0.17148749243E+03  0.17172777672E+03  0.47305584196E+03  0.40000000000E+03 0.  1.
<mgrwt>
<rscale>  2 0.44078498E+03</rscale>
<asrwt>0</asrwt>
<pdfrwt beam="1">  1        2 0.98765158E-01 0.44078498E+03</pdfrwt>
<pdfrwt beam="2">  1       -2 0.46561978E-01 0.44078498E+03</pdfrwt>
<totfact> 0.20512587E+02</totfact>
</mgrwt>
</event>
<event>
 4    1  0.2474915E-002  0.4133531E+03  0.7818608E-02  0.1039252E+00
         -1   -1    0    0    0  501 -0.00000000000E+00  0.00000000000E+00  0.21424490169E+03  0.21424490169E+03  0.00000000000E+00 0.  1.
          1   -1    0    0  502    0  0.00000000000E+00 -0.00000000000E+00 -0.97228324068E+03  0.97228324068E+03  0.00000000000E+00 0. -1.
    9000007    1    1    2  502    0  0.78907404111E+02  0.68076446019E+02 -0.12748394849E+03  0.43256553035E+03  0.40000000000E+03 0.  1.
   -9000007    1    1    2    0  501 -0.78907404111E+02 -0.68076446019E+02 -0.63055439051E+03  0.75396261201E+03  0.40000000000E+03 0. -1.
<mgrwt>
<rscale>  2 0.41335309E+03</rscale>
<asrwt>0</asrwt>
<pdfrwt beam="1">  1        1 0.14958204E+00 0.41335309E+03</pdfrwt>
<pdfrwt beam="2">  1       -1 0.32960754E-01 0.41335309E+03</pdfrwt>
<totfact> 0.14419824E+02</totfact>
</mgrwt>
</event>
<event>
 4    1  0.2474915E-002  0.4003972E+03  0.7818608E-02  0.1043642E+00
         -1   -1    0    0    0  501 -0.00000000000E+00  0.00000000000E+00  0.22194571446E+03  0.22194571446E+03  0.00000000000E+00 0.  1.
          1   -1    0    0  502    0  0.00000000000E+00 -0.00000000000E+00 -0.78323610820E+03  0.78323610820E+03  0.00000000000E+00 0. -1.
    9000007    1    1    2  502    0  0.11867364078E+02  0.13305774470E+02 -0.42079788609E+03  0.58085173573E+03  0.40000000000E+03 0. -1.
   -9000007    1    1    2    0  501 -0.11867364078E+02 -0.13305774470E+02 -0.14049250766E+03  0.42433008693E+03  0.40000000000E+03 0.  1.
<mgrwt>
<rscale>  2 0.40039715E+03</rscale>
<asrwt>0</asrwt>
<pdfrwt beam="1">  1        1 0.12049786E+00 0.40039715E+03</pdfrwt>
<pdfrwt beam="2">  1       -1 0.34145495E-01 0.40039715E+03</pdfrwt>
<totfact> 0.19325623E+02</totfact>
</mgrwt>
</event>
<event>
 4    1  0.2474915E-002  0.4297983E+03  0.7818608E-02  0.1033924E+00
          1   -1    0    0  502    0  0.00000000000E+00  0.00000000000E+00  0.10089159093E+04  0.10089159093E+04  0.00000000000E+00 0. -1.
         -1   -1    0    0    0  501 -0.00000000000E+00 -0.00000000000E+00 -0.19579621163E+03  0.19579621163E+03  0.00000000000E+00 0.  1.
    9000007    1    1    2  502    0  0.13796319876E+03  0.75450274411E+02  0.25313755730E+03  0.49880378009E+03  0.40000000000E+03 0.  1.
   -9000007    1    1    2    0  501 -0.13796319876E+03 -0.75450274411E+02  0.55998214038E+03  0.70590834084E+03  0.40000000000E+03 0. -1.
<mgrwt>
<rscale>  2 0.42979831E+03</rscale>
<asrwt>0</asrwt>
<pdfrwt beam="1">  1        1 0.15521783E+00 0.42979831E+03</pdfrwt>
<pdfrwt beam="2">  1       -1 0.30122495E-01 0.42979831E+03</pdfrwt>
<totfact> 0.15773171E+02</totfact>
</mgrwt>
</event>
<event>
 4    1  0.2474915E-002  0.6124388E+03  0.7818608E-02  0.9879930E-01
          1   -1    0    0  502    0  0.00000000000E+00  0.00000000000E+00  0.31102600050E+04  0.31102600050E+04  0.00000000000E+00 0. -1.
         -1   -1    0    0    0  501 -0.00000000000E+00 -0.00000000000E+00 -0.14961502775E+03  0.14961502775E+03  0.00000000000E+00 0.  1.
    9000007    1    1    2  502    0  0.40674730430E+02  0.46198147819E+03  0.21981720293E+04  0.22818942987E+04  0.40000000000E+03 0.  1.
   -9000007    1    1    2    0  501 -0.40674730430E+02 -0.46198147819E+03  0.76247294796E+03  0.97798073409E+03  0.40000000000E+03 0.  1.
<mgrwt>
<rscale>  2 0.61243883E+03</rscale>
<asrwt>0</asrwt>
<pdfrwt beam="1">  1        1 0.47850149E+00 0.61243883E+03</pdfrwt>
<pdfrwt beam="2">  1       -1 0.23017699E-01 0.61243883E+03</pdfrwt>
<totfact> 0.87497860E+00</totfact>
</mgrwt>
</event>
<event>
 4    1  0.2474915E-002  0.5337074E+03  0.7818608E-02  0.1005337E+00
          3   -1    0    0  502    0  0.00000000000E+00  0.00000000000E+00  0.32309701541E+03  0.32309701541E+03  0.00000000000E+00 0.  1.
         -3   -1    0    0    0  501 -0.00000000000E+00 -0.00000000000E+00 -0.10012827843E+04  0.10012827843E+04  0.00000000000E+00 0. -1.
    9000007    1    1    2  502    0  0.11330256511E+03  0.33467318817E+03 -0.56802820514E+03  0.77942264271E+03  0.40000000000E+03 0. -1.
   -9000007    1    1    2    0  501 -0.11330256511E+03 -0.33467318817E+03 -0.11015756379E+03  0.54495715703E+03  0.40000000000E+03 0.  1.
<mgrwt>
<rscale>  2 0.53370742E+03</rscale>
<asrwt>0</asrwt>
<pdfrwt beam="1">  1        3 0.49707233E-01 0.53370742E+03</pdfrwt>
<pdfrwt beam="2">  1       -3 0.15404351E+00 0.53370742E+03</pdfrwt>
<totfact> 0.31717431E+00</totfact>
</mgrwt>
</event>
<event>
 4    1  0.2474915E-002  0.4508750E+03  0.7818608E-02  0.1027461E+00
          2   -1    0    0  502    0  0.00000000000E+00  0.00000000000E+00  0.16427338163E+04  0.16427338163E+04  0.00000000000E+00 0. -1.
         -2   -1    0    0    0  501 -0.00000000000E+00 -0.00000000000E+00 -0.14472545804E+03  0.14472545804E+03  0.00000000000E+00 0.  1.
    9000007    1    1    2  502    0  0.16864619079E+03 -0.12184716801E+03  0.10892475486E+04  0.11788759443E+04  0.40000000000E+03 0. -1.
   -9000007    1    1    2    0  501 -0.16864619079E+03  0.12184716801E+03  0.40876080963E+03  0.60858332996E+03  0.40000000000E+03 0.  1.
<mgrwt>
<rscale>  2 0.45087500E+03</rscale>
<asrwt>0</asrwt>
<pdfrwt beam="1">  1        2 0.25272827E+00 0.45087500E+03</pdfrwt>
<pdfrwt beam="2">  1       -2 0.22265456E-01 0.45087500E+03</pdfrwt>
<totfact> 0.19538800E+02</totfact>
</mgrwt>
</event>
<event>
 4    1  0.2474915E-002  0.6628694E+03  0.7818608E-02  0.9782926E-01
          2   -1    0    0  502    0  0.00000000000E+00  0.00000000000E+00  0.57720897136E+03  0.57720897136E+03  0.00000000000E+00 0. -1.
         -2   -1    0    0    0  501 -0.00000000000E+00 -0.00000000000E+00 -0.76819210517E+03  0.76819210517E+03  0.00000000000E+00 0.  1.
    9000007    1    1    2  502    0  0.38456559959E+03 -0.36263634890E+03 -0.31506801676E+02  0.66361773671E+03  0.40000000000E+03 0.  1.
   -9000007    1    1    2    0  501 -0.38456559959E+03  0.36263634890E+03 -0.15947633214E+03  0.68178333981E+03  0.40000000000E+03 0. -1.
<mgrwt>
<rscale>  2 0.66286939E+03</rscale>
<asrwt>0</asrwt>
<pdfrwt beam="1">  1        2 0.88801381E-01 0.66286939E+03</pdfrwt>
<pdfrwt beam="2">  1       -2 0.11818340E+00 0.66286939E+03</pdfrwt>
<totfact> 0.29241819E+01</totfact>
</mgrwt>
</event>
<event>
 4    1  0.2474915E-002  0.5799400E+03  0.7818608E-02  0.9947921E-01
          2   -1    0    0  502    0  0.00000000000E+00  0.00000000000E+00  0.23149396308E+04  0.23149396308E+04  0.00000000000E+00 0.  1.
         -2   -1    0    0    0  501 -0.00000000000E+00 -0.00000000000E+00 -0.20705058335E+03  0.20705058335E+03  0.00000000000E+00 0. -1.
    9000007    1    1    2  502    0 -0.12227272520E+03  0.40172097408E+03  0.17426631528E+04  0.18366287661E+04  0.40000000000E+03 0.  1.
   -9000007    1    1    2    0  501  0.12227272520E+03 -0.40172097408E+03  0.36522589466E+03  0.68536144805E+03  0.40000000000E+03 0. -1.
<mgrwt>
<rscale>  2 0.57993996E+03</rscale>
<asrwt>0</asrwt>
<pdfrwt beam="1">  1        2 0.35614454E+00 0.57993996E+03</pdfrwt>
<pdfrwt beam="2">  1       -2 0.31853937E-01 0.57993996E+03</pdfrwt>
<totfact> 0.43340699E+01</totfact>
</mgrwt>
</event>
<event>
 4    1  0.2474915E-002  0.5377738E+03  0.7818608E-02  0.1004364E+00
          2   -1    0    0  502    0  0.00000000000E+00  0.00000000000E+00  0.28760228782E+04  0.28760228782E+04  0.00000000000E+00 0.  1.
         -2   -1    0    0    0  501 -0.00000000000E+00 -0.00000000000E+00 -0.15341664395E+03  0.15341664395E+03  0.00000000000E+00 0. -1.
    9000007    1    1    2  502    0  0.16487089601E+03 -0.31940302944E+03  0.47217733475E+03  0.71564805807E+03  0.40000000000E+03 0. -1.
   -9000007    1    1    2    0  501 -0.16487089601E+03  0.31940302944E+03  0.22504288995E+04  0.23137914641E+04  0.40000000000E+03 0.  1.
<mgrwt>
<rscale>  2 0.53777384E+03</rscale>
<asrwt>0</asrwt>
<pdfrwt beam="1">  1        2 0.44246502E+00 0.53777384E+03</pdfrwt>
<pdfrwt beam="2">  1       -2 0.23602563E-01 0.53777384E+03</pdfrwt>
<totfact> 0.36134534E+01</totfact>
</mgrwt>
</event>
<event>
 4    1  0.2474915E-002  0.4640513E+03  0.7818608E-02  0.1023613E+00
         -2   -1    0    0    0  501 -0.00000000000E+00  0.00000000000E+00  0.24541011319E+03  0.24541011319E+03  0.00000000000E+00 0. -1.
          2   -1    0    0  502    0  0.00000000000E+00 -0.00000000000E+00 -0.88627679846E+03  0.88627679846E+03  0.00000000000E+00 0.  1.
    9000007    1    1    2  502    0 -0.14145712172E+03 -0.18797193833E+03 -0.37679232966E+03  0.59775917105E+03  0.40000000000E+03 0.  1.
   -9000007    1    1    2    0  501  0.14145712172E+03  0.18797193833E+03 -0.26407435561E+03  0.53392774059E+03  0.40000000000E+03 0. -1.
<mgrwt>
<rscale>  2 0.46405125E+03</rscale>
<asrwt>0</asrwt>
<pdfrwt beam="1">  1        2 0.13635028E+00 0.46405125E+03</pdfrwt>
<pdfrwt beam="2">  1       -2 0.37755402E-01 0.46405125E+03</pdfrwt>
<totfact> 0.20416240E+02</totfact>
</mgrwt>
</event>
<event>
 4    1  0.2474915E-002  0.4658166E+03  0.7818608E-02  0.1023108E+00
         -1   -1    0    0    0  501 -0.00000000000E+00  0.00000000000E+00  0.96824097100E+02  0.96824097100E+02  0.00000000000E+00 0.  1.
          1   -1    0    0  502    0  0.00000000000E+00 -0.00000000000E+00 -0.24520943413E+04  0.24520943413E+04  0.00000000000E+00 0. -1.
    9000007    1    1    2  502    0 -0.21148848245E+03  0.11071459310E+03 -0.15515487023E+04  0.16199655783E+04  0.40000000000E+03 0. -1.
   -9000007    1    1    2    0  501  0.21148848245E+03 -0.11071459310E+03 -0.80372154190E+03  0.92895286008E+03  0.40000000000E+03 0.  1.
<mgrwt>
<rscale>  2 0.46581659E+03</rscale>
<asrwt>0</asrwt>
<pdfrwt beam="1">  1        1 0.37724528E+00 0.46581659E+03</pdfrwt>
<pdfrwt beam="2">  1       -1 0.14896015E-01 0.46581659E+03</pdfrwt>
<totfact> 0.52976575E+01</totfact>
</mgrwt>
</event>
<event>
 4    1  0.2474915E-002  0.4096476E+03  0.7818608E-02  0.1040489E+00
         -2   -1    0    0    0  501 -0.00000000000E+00  0.00000000000E+00  0.70337813528E+02  0.70337813528E+02  0.00000000000E+00 0.  1.
          2   -1    0    0  502    0  0.00000000000E+00 -0.00000000000E+00 -0.25170546399E+04  0.25170546399E+04  0.00000000000E+00 0. -1.
    9000007    1    1    2  502    0 -0.77488488863E+02  0.42505410917E+02 -0.92792360716E+03  0.10143241083E+04  0.40000000000E+03 0.  1.
   -9000007    1    1    2    0  501  0.77488488863E+02 -0.42505410917E+02 -0.15187932192E+04  0.15730683452E+04  0.40000000000E+03 0. -1.
<mgrwt>
<rscale>  2 0.40964762E+03</rscale>
<asrwt>0</asrwt>
<pdfrwt beam="1">  1        2 0.38723919E+00 0.40964762E+03</pdfrwt>
<pdfrwt beam="2">  1       -2 0.10821202E-01 0.40964762E+03</pdfrwt>
<totfact> 0.22304692E+02</totfact>
</mgrwt>
</event>
<event>
 4    1  0.2474915E-002  0.4480617E+03  0.7818608E-02  0.1028302E+00
          1   -1    0    0  502    0  0.00000000000E+00  0.00000000000E+00  0.12533928817E+04  0.12533928817E+04  0.00000000000E+00 0. -1.
         -1   -1    0    0    0  501 -0.00000000000E+00 -0.00000000000E+00 -0.16278497903E+03  0.16278497903E+03  0.00000000000E+00 0.  1.
    9000007    1    1    2  502    0  0.77145945990E+02  0.18656851257E+03  0.45560416075E+03  0.63901053056E+03  0.40000000000E+03 0. -1.
   -9000007    1    1    2    0  501 -0.77145945990E+02 -0.18656851257E+03  0.63500374195E+03  0.77716733021E+03  0.40000000000E+03 0. -1.
<mgrwt>
<rscale>  2 0.44806172E+03</rscale>
<asrwt>0</asrwt>
<pdfrwt beam="1">  1        1 0.19282967E+00 0.44806172E+03</pdfrwt>
<pdfrwt beam="2">  1       -1 0.25043844E-01 0.44806172E+03</pdfrwt>
<totfact> 0.14312396E+02</totfact>
</mgrwt>
</event>
<event>
 4    1  0.2474915E-002  0.4127162E+03  0.7818608E-02  0.1039463E+00
         -2   -1    0    0    0  501 -0.00000000000E+00  0.00000000000E+00  0.69440742608E+03  0.69440742608E+03  0.00000000000E+00 0. -1.
          2   -1    0    0  502    0  0.00000000000E+00 -0.00000000000E+00 -0.24572149209E+03  0.24572149209E+03  0.00000000000E+00 0.  1.
    9000007    1    1    2  502    0 -0.96997817806E+01  0.10119554436E+03  0.20475791286E+03  0.46071729601E+03  0.40000000000E+03 0. -1.
   -9000007    1    1    2    0  501  0.96997817806E+01 -0.10119554436E+03  0.24392802114E+03  0.47941162216E+03  0.40000000000E+03 0. -1.
<mgrwt>
<rscale>  2 0.41271615E+03</rscale>
<asrwt>0</asrwt>
<pdfrwt beam="1">  1        2 0.37803307E-01 0.41271615E+03</pdfrwt>
<pdfrwt beam="2">  1       -2 0.10683191E+00 0.41271615E+03</pdfrwt>
<totfact> 0.99412522E+01</totfact>
</mgrwt>
</event>
<event>
 4    1  0.2474915E-002  0.4898449E+03  0.7818608E-02  0.1016464E+00
          2   -1    0    0  502    0  0.00000000000E+00  0.00000000000E+00  0.24478636131E+04  0.24478636131E+04  0.00000000000E+00 0.  1.
         -2   -1    0    0    0  501 -0.00000000000E+00 -0.00000000000E+00 -0.98068953181E+02  0.98068953181E+02  0.00000000000E+00 0. -1.
    9000007    1    1    2  502    0  0.11406113398E+03 -0.25872397563E+03  0.11474772099E+04  0.12476586011E+04  0.40000000000E+03 0.  1.
   -9000007    1    1    2    0  501 -0.11406113398E+03  0.25872397563E+03  0.12023174501E+04  0.12982739651E+04  0.40000000000E+03 0. -1.
<mgrwt>
<rscale>  2 0.48984491E+03</rscale>
<asrwt>0</asrwt>
<pdfrwt beam="1">  1        2 0.37659435E+00 0.48984491E+03</pdfrwt>
<pdfrwt beam="2">  1       -2 0.15087533E-01 0.48984491E+03</pdfrwt>
<totfact> 0.13892614E+02</totfact>
</mgrwt>
</event>
<event>
 4    1  0.2474915E-002  0.4466631E+03  0.7818608E-02  0.1028722E+00
          2   -1    0    0  502    0  0.00000000000E+00  0.00000000000E+00  0.33498807282E+03  0.33498807282E+03  0.00000000000E+00 0. -1.
         -2   -1    0    0    0  501 -0.00000000000E+00 -0.00000000000E+00 -0.64637682852E+03  0.64637682852E+03  0.00000000000E+00 0.  1.
    9000007    1    1    2  502    0 -0.21327514657E+02 -0.19761853368E+03 -0.29326640796E+03  0.53433429028E+03  0.40000000000E+03 0. -1.
   -9000007    1    1    2    0  501  0.21327514657E+02  0.19761853368E+03 -0.18122347750E+02  0.44703061106E+03  0.40000000000E+03 0.  1.
<mgrwt>
<rscale>  2 0.44666313E+03</rscale>
<asrwt>0</asrwt>
<pdfrwt beam="1">  1        2 0.51536627E-01 0.44666313E+03</pdfrwt>
<pdfrwt beam="2">  1       -2 0.99442588E-01 0.44666313E+03</pdfrwt>
<totfact> 0.83628264E+01</totfact>
</mgrwt>
</event>
<event>
 4    1  0.2474915E-002  0.4008252E+03  0.7818608E-02  0.1043494E+00
          1   -1    0    0  502    0  0.00000000000E+00  0.00000000000E+00  0.16808145344E+04  0.16808145344E+04  0.00000000000E+00 0. -1.
         -1   -1    0    0    0  501 -0.00000000000E+00 -0.00000000000E+00 -0.95585122553E+02  0.95585122553E+02  0.00000000000E+00 0.  1.
    9000007    1    1    2  502    0  0.25259179278E+02  0.47724444381E+01  0.79206787795E+03  0.88771184832E+03  0.40000000000E+03 0. -1.
   -9000007    1    1    2    0  501 -0.25259179278E+02 -0.47724444381E+01  0.79316153389E+03  0.88868780863E+03  0.40000000000E+03 0.  1.
<mgrwt>
<rscale>  2 0.40082515E+03</rscale>
<asrwt>0</asrwt>
<pdfrwt beam="1">  1        1 0.25858683E+00 0.40082515E+03</pdfrwt>
<pdfrwt beam="2">  1       -1 0.14705405E-01 0.40082515E+03</pdfrwt>
<totfact> 0.17725853E+02</totfact>
</mgrwt>
</event>
<event>
 4    1  0.2474915E-002  0.4311242E+03  0.7818608E-02  0.1033505E+00
         -1   -1    0    0    0  501 -0.00000000000E+00  0.00000000000E+00  0.12831283601E+03  0.12831283601E+03  0.00000000000E+00 0.  1.
          1   -1    0    0  502    0  0.00000000000E+00 -0.00000000000E+00 -0.15909894222E+04  0.15909894222E+04  0.00000000000E+00 0. -1.
    9000007    1    1    2  502    0 -0.15642397665E+03 -0.37410974970E+02 -0.98855427863E+03  0.10784746651E+04  0.40000000000E+03 0. -1.
   -9000007    1    1    2    0  501  0.15642397665E+03  0.37410974970E+02 -0.47412230753E+03  0.64082759305E+03  0.40000000000E+03 0. -1.
<mgrwt>
<rscale>  2 0.43112416E+03</rscale>
<asrwt>0</asrwt>
<pdfrwt beam="1">  1        1 0.24476760E+00 0.43112416E+03</pdfrwt>
<pdfrwt beam="2">  1       -1 0.19740437E-01 0.43112416E+03</pdfrwt>
<totfact> 0.12547622E+02</totfact>
</mgrwt>
</event>
<event>
 4    1  0.2474915E-002  0.4401949E+03  0.7818608E-02  0.1030687E+00
         -1   -1    0    0    0  501 -0.00000000000E+00  0.00000000000E+00  0.26187728848E+03  0.26187728848E+03  0.00000000000E+00 0. -1.
          1   -1    0    0  502    0  0.00000000000E+00 -0.00000000000E+00 -0.11777377346E+04  0.11777377346E+04  0.00000000000E+00 0.  1.
    9000007    1    1    2  502    0 -0.16717085929E+03 -0.76324577798E+02 -0.19063637974E+02  0.44060748934E+03  0.40000000000E+03 0. -1.
   -9000007    1    1    2    0  501  0.16717085929E+03  0.76324577798E+02 -0.89679680816E+03  0.99900753376E+03  0.40000000000E+03 0.  1.
<mgrwt>
<rscale>  2 0.44019489E+03</rscale>
<asrwt>0</asrwt>
<pdfrwt beam="1">  1        1 0.18119041E+00 0.44019489E+03</pdfrwt>
<pdfrwt beam="2">  1       -1 0.40288815E-01 0.44019489E+03</pdfrwt>
<totfact> 0.70864878E+01</totfact>
</mgrwt>
</event>
<event>
 4    1  0.2474915E-002  0.4819256E+03  0.7818608E-02  0.1018607E+00
         -2   -1    0    0    0  501 -0.00000000000E+00  0.00000000000E+00  0.22971794030E+03  0.22971794030E+03  0.00000000000E+00 0. -1.
          2   -1    0    0  502    0  0.00000000000E+00 -0.00000000000E+00 -0.10724208585E+04  0.10724208585E+04  0.00000000000E+00 0.  1.
    9000007    1    1    2  502    0  0.26564502127E+03  0.41048786609E+02 -0.26557995038E+03  0.55025902105E+03  0.40000000000E+03 0. -1.
   -9000007    1    1    2    0  501 -0.26564502127E+03 -0.41048786609E+02 -0.57712296786E+03  0.75187977778E+03  0.40000000000E+03 0.  1.
<mgrwt>
<rscale>  2 0.48192560E+03</rscale>
<asrwt>0</asrwt>
<pdfrwt beam="1">  1        2 0.16498782E+00 0.48192560E+03</pdfrwt>
<pdfrwt beam="2">  1       -2 0.35341222E-01 0.48192560E+03</pdfrwt>
<totfact> 0.17603573E+02</totfact>
</mgrwt>
</event>
<event>
 4    1  0.2474915E-002  0.5254985E+03  0.7818608E-02  0.1007330E+00
         -2   -1    0    0    0  501 -0.00000000000E+00  0.00000000000E+00  0.16109650885E+03  0.16109650885E+03  0.00000000000E+00 0. -1.
          2   -1    0    0  502    0  0.00000000000E+00 -0.00000000000E+00 -0.17141818767E+04  0.17141818767E+04  0.00000000000E+00 0.  1.
    9000007    1    1    2  502    0 -0.32087135677E+03  0.11484896306E+03 -0.77643031099E+03  0.93754612673E+03  0.40000000000E+03 0.  1.
   -9000007    1    1    2    0  501  0.32087135677E+03 -0.11484896306E+03 -0.77665505688E+03  0.93773225885E+03  0.40000000000E+03 0. -1.
<mgrwt>
<rscale>  2 0.52549854E+03</rscale>
<asrwt>0</asrwt>
<pdfrwt beam="1">  1        2 0.26372028E+00 0.52549854E+03</pdfrwt>
<pdfrwt beam="2">  1       -2 0.24784079E-01 0.52549854E+03</pdfrwt>
<totfact> 0.14638779E+02</totfact>
</mgrwt>
</event>
<event>
 4    1  0.2474915E-002  0.4124653E+03  0.7818608E-02  0.1039547E+00
          1   -1    0    0  502    0  0.00000000000E+00  0.00000000000E+00  0.10792121239E+03  0.10792121239E+03  0.00000000000E+00 0.  1.
         -1   -1    0    0    0  501 -0.00000000000E+00 -0.00000000000E+00 -0.17439401002E+04  0.17439401002E+04  0.00000000000E+00 0. -1.
    9000007    1    1    2  502    0  0.82552471083E+02  0.57556227593E+02 -0.11049979431E+04  0.11794694078E+04  0.40000000000E+03 0. -1.
   -9000007    1    1    2    0  501 -0.82552471083E+02 -0.57556227593E+02 -0.53102094469E+03  0.67239190471E+03  0.40000000000E+03 0.  1.
<mgrwt>
<rscale>  2 0.41246531E+03</rscale>
<asrwt>0</asrwt>
<pdfrwt beam="1">  1        1 0.16603264E-01 0.41246531E+03</pdfrwt>
<pdfrwt beam="2">  1       -1 0.26829847E+00 0.41246531E+03</pdfrwt>
<totfact> 0.19311779E+01</totfact>
</mgrwt>
</event>
<event>
 4    1  0.2474915E-002  0.4851726E+03  0.7818608E-02  0.1017723E+00
          2   -1    0    0  502    0  0.00000000000E+00  0.00000000000E+00  0.17197687464E+04  0.17197687464E+04  0.00000000000E+00 0.  1.
         -2   -1    0    0    0  501 -0.00000000000E+00 -0.00000000000E+00 -0.24859490918E+03  0.24859490918E+03  0.00000000000E+00 0. -1.
    9000007    1    1    2  502    0  0.26586285306E+03  0.68625208452E+02  0.13953613760E+04  0.14773035725E+04  0.40000000000E+03 0.  1.
   -9000007    1    1    2    0  501 -0.26586285306E+03 -0.68625208452E+02  0.75812461248E+02  0.49106008304E+03  0.40000000000E+03 0. -1.
<mgrwt>
<rscale>  2 0.48517262E+03</rscale>
<asrwt>0</asrwt>
<pdfrwt beam="1">  1        2 0.26457980E+00 0.48517262E+03</pdfrwt>
<pdfrwt beam="2">  1       -2 0.38245372E-01 0.48517262E+03</pdfrwt>
<totfact> 0.65448224E+01</totfact>
</mgrwt>
</event>
<event>
 4    1  0.2474915E-002  0.4756808E+03  0.7818608E-02  0.1020329E+00
          1   -1    0    0  502    0  0.00000000000E+00  0.00000000000E+00  0.19841070106E+03  0.19841070106E+03  0.00000000000E+00 0. -1.
         -1   -1    0    0    0  501 -0.00000000000E+00 -0.00000000000E+00 -0.11521040230E+04  0.11521040230E+04  0.00000000000E+00 0.  1.
    9000007    1    1    2  502    0  0.12175672949E+03 -0.22682052935E+03 -0.40885556487E+03  0.62724407262E+03  0.40000000000E+03 0. -1.
   -9000007    1    1    2    0  501 -0.12175672949E+03  0.22682052935E+03 -0.54483775709E+03  0.72327065146E+03  0.40000000000E+03 0. -1.
<mgrwt>
<rscale>  2 0.47568083E+03</rscale>
<asrwt>0</asrwt>
<pdfrwt beam="1">  1        1 0.30524723E-01 0.47568083E+03</pdfrwt>
<pdfrwt beam="2">  1       -1 0.17724678E+00 0.47568083E+03</pdfrwt>
<totfact> 0.34473921E+01</totfact>
</mgrwt>
</event>
<event>
 4    1  0.2474915E-002  0.4928353E+03  0.7818608E-02  0.1015666E+00
          2   -1    0    0  502    0  0.00000000000E+00  0.00000000000E+00  0.10921923877E+04  0.10921923877E+04  0.00000000000E+00 0. -1.
         -2   -1    0    0    0  501 -0.00000000000E+00 -0.00000000000E+00 -0.22397654936E+03  0.22397654936E+03  0.00000000000E+00 0.  1.
    9000007    1    1    2  502    0  0.28561707700E+03  0.36187863084E+02  0.37862537420E+03  0.62148519701E+03  0.40000000000E+03 0.  1.
   -9000007    1    1    2    0  501 -0.28561707700E+03 -0.36187863084E+02  0.48959046411E+03  0.69468374002E+03  0.40000000000E+03 0.  1.
<mgrwt>
<rscale>  2 0.49283534E+03</rscale>
<asrwt>0</asrwt>
<pdfrwt beam="1">  1        2 0.16802960E+00 0.49283534E+03</pdfrwt>
<pdfrwt beam="2">  1       -2 0.34457931E-01 0.49283534E+03</pdfrwt>
<totfact> 0.17943904E+02</totfact>
</mgrwt>
</event>
<event>
 4    1  0.2474915E-002  0.4729486E+03  0.7818608E-02  0.1021091E+00
          2   -1    0    0  502    0  0.00000000000E+00  0.00000000000E+00  0.99450822016E+03  0.99450822016E+03  0.00000000000E+00 0.  1.
         -2   -1    0    0    0  501 -0.00000000000E+00 -0.00000000000E+00 -0.32077116352E+03  0.32077116352E+03  0.00000000000E+00 0. -1.
    9000007    1    1    2  502    0 -0.24926334363E+03  0.39346362822E+02  0.69636874931E+03  0.84178963272E+03  0.40000000000E+03 0.  1.
   -9000007    1    1    2    0  501  0.24926334363E+03 -0.39346362822E+02 -0.22631692663E+02  0.47348975095E+03  0.40000000000E+03 0. -1.
<mgrwt>
<rscale>  2 0.47294857E+03</rscale>
<asrwt>0</asrwt>
<pdfrwt beam="1">  1        2 0.15300126E+00 0.47294857E+03</pdfrwt>
<pdfrwt beam="2">  1       -2 0.49349410E-01 0.47294857E+03</pdfrwt>
<totfact> 0.10258141E+02</totfact>
</mgrwt>
</event>
<event>
 4    1  0.2474915E-002  0.5643862E+03  0.7818608E-02  0.9982179E-01
         -2   -1    0    0    0  501 -0.00000000000E+00  0.00000000000E+00  0.66233857372E+03  0.66233857372E+03  0.00000000000E+00 0.  1.
          2   -1    0    0  502    0  0.00000000000E+00 -0.00000000000E+00 -0.51726714060E+03  0.51726714060E+03  0.00000000000E+00 0. -1.
    9000007    1    1    2  502    0  0.11578927861E+03  0.38095226426E+03 -0.83809750232E+02  0.57057502480E+03  0.40000000000E+03 0. -1.
   -9000007    1    1    2    0  501 -0.11578927861E+03 -0.38095226426E+03  0.22888118336E+03  0.60903068952E+03  0.40000000000E+03 0.  1.
<mgrwt>
<rscale>  2 0.56438620E+03</rscale>
<asrwt>0</asrwt>
<pdfrwt beam="1">  1        2 0.79579559E-01 0.56438620E+03</pdfrwt>
<pdfrwt beam="2">  1       -2 0.10189824E+00 0.56438620E+03</pdfrwt>
<totfact> 0.47993276E+01</totfact>
</mgrwt>
</event>
<event>
 4    1  0.2474915E-002  0.4097285E+03  0.7818608E-02  0.1040462E+00
         -2   -1    0    0    0  501 -0.00000000000E+00  0.00000000000E+00  0.49848268961E+03  0.49848268961E+03  0.00000000000E+00 0.  1.
          2   -1    0    0  502    0  0.00000000000E+00 -0.00000000000E+00 -0.34257215818E+03  0.34257215818E+03  0.00000000000E+00 0. -1.
    9000007    1    1    2  502    0  0.19673564982E+02 -0.86546893004E+02  0.13265154341E+03  0.43066674566E+03  0.40000000000E+03 0.  1.
   -9000007    1    1    2    0  501 -0.19673564982E+02  0.86546893004E+02  0.23258988030E+02  0.41038810213E+03  0.40000000000E+03 0. -1.
<mgrwt>
<rscale>  2 0.40972846E+03</rscale>
<asrwt>0</asrwt>
<pdfrwt beam="1">  1        2 0.52703409E-01 0.40972846E+03</pdfrwt>
<pdfrwt beam="2">  1       -2 0.76689645E-01 0.40972846E+03</pdfrwt>
<totfact> 0.14769908E+02</totfact>
</mgrwt>
</event>
<event>
 4    1  0.2474915E-002  0.9062864E+03  0.7818608E-02  0.9417757E-01
          2   -1    0    0  502    0  0.00000000000E+00  0.00000000000E+00  0.24081828068E+04  0.24081828068E+04  0.00000000000E+00 0. -1.
         -2   -1    0    0    0  501 -0.00000000000E+00 -0.00000000000E+00 -0.44710663553E+03  0.44710663553E+03  0.00000000000E+00 0.  1.
    9000007    1    1    2  502    0 -0.75338894194E+03 -0.30620263879E+03  0.16757959659E+04  0.19051632668E+04  0.40000000000E+03 0.  1.
   -9000007    1    1    2    0  501  0.75338894194E+03  0.30620263879E+03  0.28528020537E+03  0.95012617552E+03  0.40000000000E+03 0.  1.
<mgrwt>
<rscale>  2 0.90628635E+03</rscale>
<asrwt>0</asrwt>
<pdfrwt beam="1">  1        2 0.37048965E+00 0.90628635E+03</pdfrwt>
<pdfrwt beam="2">  1       -2 0.68785638E-01 0.90628635E+03</pdfrwt>
<totfact> 0.77616894E+00</totfact>
</mgrwt>
</event>
<event>
 4    1  0.2474915E-002  0.4393711E+03  0.7818608E-02  0.1030940E+00
          1   -1    0    0  502    0  0.00000000000E+00  0.00000000000E+00  0.10776095348E+04  0.10776095348E+04  0.00000000000E+00 0. -1.
         -1   -1    0    0    0  501 -0.00000000000E+00 -0.00000000000E+00 -0.37011264755E+03  0.37011264755E+03  0.00000000000E+00 0.  1.
    9000007    1    1    2  502    0  0.22383551124E+01  0.18177444433E+03 -0.16621121244E+03  0.46975858266E+03  0.40000000000E+03 0.  1.
   -9000007    1    1    2    0  501 -0.22383551124E+01 -0.18177444433E+03  0.87370809970E+03  0.97796359969E+03  0.40000000000E+03 0. -1.
<mgrwt>
<rscale>  2 0.43937109E+03</rscale>
<asrwt>0</asrwt>
<pdfrwt beam="1">  1        1 0.16578608E+00 0.43937109E+03</pdfrwt>
<pdfrwt beam="2">  1       -1 0.56940408E-01 0.43937109E+03</pdfrwt>
<totfact> 0.44036375E+01</totfact>
</mgrwt>
</event>
<event>
 4    1  0.2474915E-002  0.4420846E+03  0.7818608E-02  0.1030109E+00
          2   -1    0    0  502    0  0.00000000000E+00  0.00000000000E+00  0.20583964427E+04  0.20583964427E+04  0.00000000000E+00 0. -1.
         -2   -1    0    0    0  501 -0.00000000000E+00 -0.00000000000E+00 -0.12129233378E+03  0.12129233378E+03  0.00000000000E+00 0.  1.
    9000007    1    1    2  502    0  0.75109757989E+02  0.17261895146E+03  0.46062795019E+03  0.63844881286E+03  0.40000000000E+03 0.  1.
   -9000007    1    1    2    0  501 -0.75109757989E+02 -0.17261895146E+03  0.14764761587E+04  0.15412399636E+04  0.40000000000E+03 0. -1.
<mgrwt>
<rscale>  2 0.44208458E+03</rscale>
<asrwt>0</asrwt>
<pdfrwt beam="1">  1        2 0.31667635E+00 0.44208458E+03</pdfrwt>
<pdfrwt beam="2">  1       -2 0.18660361E-01 0.44208458E+03</pdfrwt>
<totfact> 0.15919076E+02</totfact>
</mgrwt>
</event>
<event>
 4    1  0.2474915E-002  0.4898463E+03  0.7818608E-02  0.1016464E+00
         -2   -1    0    0    0  501 -0.00000000000E+00  0.00000000000E+00  0.79180034062E+02  0.79180034062E+02  0.00000000000E+00 0.  1.
          2   -1    0    0  502    0  0.00000000000E+00 -0.00000000000E+00 -0.31474278417E+04  0.31474278417E+04  0.00000000000E+00 0. -1.
    9000007    1    1    2  502    0  0.25779495739E+03  0.11615157231E+03 -0.18451738330E+04  0.19090877145E+04  0.40000000000E+03 0. -1.
   -9000007    1    1    2    0  501 -0.25779495739E+03 -0.11615157231E+03 -0.12230739747E+04  0.13175201612E+04  0.40000000000E+03 0.  1.
<mgrwt>
<rscale>  2 0.48984633E+03</rscale>
<asrwt>0</asrwt>
<pdfrwt beam="1">  1        2 0.48421962E+00 0.48984633E+03</pdfrwt>
<pdfrwt beam="2">  1       -2 0.12181545E-01 0.48984633E+03</pdfrwt>
<totfact> 0.77231535E+01</totfact>
</mgrwt>
</event>
<event>
 4    1  0.2474915E-002  0.7090566E+03  0.7818608E-02  0.9701868E-01
         -1   -1    0    0    0  501 -0.00000000000E+00  0.00000000000E+00  0.89201446826E+03  0.89201446826E+03  0.00000000000E+00 0. -1.
          1   -1    0    0  502    0  0.00000000000E+00 -0.00000000000E+00 -0.58099790405E+03  0.58099790405E+03  0.00000000000E+00 0.  1.
    9000007    1    1    2  502    0  0.54848347453E+03 -0.20476116759E+03  0.28286764877E+03  0.76339725196E+03  0.40000000000E+03 0. -1.
   -9000007    1    1    2    0  501 -0.54848347453E+03  0.20476116759E+03  0.28148915444E+02  0.70961512035E+03  0.40000000000E+03 0.  1.
<mgrwt>
<rscale>  2 0.70905660E+03</rscale>
<asrwt>0</asrwt>
<pdfrwt beam="1">  1        1 0.89384293E-01 0.70905660E+03</pdfrwt>
<pdfrwt beam="2">  1       -1 0.13723299E+00 0.70905660E+03</pdfrwt>
<totfact> 0.16354270E+01</totfact>
</mgrwt>
</event>
<event>
 4    1  0.2474915E-002  0.6354165E+03  0.7818608E-02  0.9834535E-01
          2   -1    0    0  502    0  0.00000000000E+00  0.00000000000E+00  0.15459153086E+04  0.15459153086E+04  0.00000000000E+00 0.  1.
         -2   -1    0    0    0  501 -0.00000000000E+00 -0.00000000000E+00 -0.27057492956E+03  0.27057492956E+03  0.00000000000E+00 0. -1.
    9000007    1    1    2  502    0 -0.34045093401E+03  0.35755743290E+03  0.80695800307E+03  0.10271004698E+04  0.40000000000E+03 0. -1.
   -9000007    1    1    2    0  501  0.34045093401E+03 -0.35755743290E+03  0.46838237593E+03  0.78938976835E+03  0.40000000000E+03 0. -1.
<mgrwt>
<rscale>  2 0.63541652E+03</rscale>
<asrwt>0</asrwt>
<pdfrwt beam="1">  1        2 0.23783312E+00 0.63541652E+03</pdfrwt>
<pdfrwt beam="2">  1       -2 0.41626913E-01 0.63541652E+03</pdfrwt>
<totfact> 0.67608344E+01</totfact>
</mgrwt>
</event>
<event>
 4    1  0.2474915E-002  0.4391754E+03  0.7818608E-02  0.1031000E+00
          1   -1    0    0  502    0  0.00000000000E+00  0.00000000000E+00  0.18738021489E+04  0.18738021489E+04  0.00000000000E+00 0. -1.
         -1   -1    0    0    0  501 -0.00000000000E+00 -0.00000000000E+00 -0.18385249246E+03  0.18385249246E+03  0.00000000000E+00 0.  1.
    9000007    1    1    2  502    0 -0.16887198393E+03  0.66009817844E+02  0.16242276652E+03  0.46824800917E+03  0.40000000000E+03 0.  1.
   -9000007    1    1    2    0  501  0.16887198393E+03 -0.66009817844E+02  0.15275268899E+04  0.15894066322E+04  0.40000000000E+03 0. -1.
<mgrwt>
<rscale>  2 0.43917541E+03</rscale>
<asrwt>0</asrwt>
<pdfrwt beam="1">  1        1 0.28827724E+00 0.43917541E+03</pdfrwt>
<pdfrwt beam="2">  1       -1 0.28285000E-01 0.43917541E+03</pdfrwt>
<totfact> 0.44522000E+01</totfact>
</mgrwt>
</event>
<event>
 4    1  0.2474915E-002  0.4064114E+03  0.7818608E-02  0.1041582E+00
         -1   -1    0    0    0  501 -0.00000000000E+00  0.00000000000E+00  0.53444881986E+03  0.53444881986E+03  0.00000000000E+00 0.  1.
          1   -1    0    0  502    0  0.00000000000E+00 -0.00000000000E+00 -0.31066287168E+03  0.31066287168E+03  0.00000000000E+00 0. -1.
    9000007    1    1    2  502    0  0.58566735124E+02  0.41715418555E+02  0.14236025337E+03  0.43062359474E+03  0.40000000000E+03 0.  1.
   -9000007    1    1    2    0  501 -0.58566735124E+02 -0.41715418555E+02  0.81425694811E+02  0.41448809679E+03  0.40000000000E+03 0. -1.
<mgrwt>
<rscale>  2 0.40641142E+03</rscale>
<asrwt>0</asrwt>
<pdfrwt beam="1">  1        1 0.47794288E-01 0.40641142E+03</pdfrwt>
<pdfrwt beam="2">  1       -1 0.82222895E-01 0.40641142E+03</pdfrwt>
<totfact> 0.12829556E+02</totfact>
</mgrwt>
</event>
<event>
 4    1  0.2474915E-002  0.4032846E+03  0.7818608E-02  0.1042648E+00
          2   -1    0    0  502    0  0.00000000000E+00  0.00000000000E+00  0.11573073581E+04  0.11573073581E+04  0.00000000000E+00 0. -1.
         -2   -1    0    0    0  501 -0.00000000000E+00 -0.00000000000E+00 -0.15070708079E+03  0.15070708079E+03  0.00000000000E+00 0.  1.
    9000007    1    1    2  502    0  0.51233856190E+02 -0.36860394789E+01  0.33336282290E+03  0.52322964996E+03  0.40000000000E+03 0.  1.
   -9000007    1    1    2    0  501 -0.51233856190E+02  0.36860394789E+01  0.67323745437E+03  0.78478478889E+03  0.40000000000E+03 0. -1.
<mgrwt>
<rscale>  2 0.40328463E+03</rscale>
<asrwt>0</asrwt>
<pdfrwt beam="1">  1        2 0.17804728E+00 0.40328463E+03</pdfrwt>
<pdfrwt beam="2">  1       -2 0.23185705E-01 0.40328463E+03</pdfrwt>
<totfact> 0.34091135E+02</totfact>
</mgrwt>
</event>
<event>
 4    1  0.2474915E-002  0.4457691E+03  0.7818608E-02  0.1028991E+00
         -1   -1    0    0    0  501 -0.00000000000E+00  0.00000000000E+00  0.17799984403E+03  0.17799984403E+03  0.00000000000E+00 0. -1.
          1   -1    0    0  502    0  0.00000000000E+00 -0.00000000000E+00 -0.11172809317E+04  0.11172809317E+04  0.00000000000E+00 0.  1.
    9000007    1    1    2  502    0 -0.19619624641E+03 -0.14735355779E+02 -0.48833653119E+03  0.66119790193E+03  0.40000000000E+03 0.  1.
   -9000007    1    1    2    0  501  0.19619624641E+03  0.14735355779E+02 -0.45094455644E+03  0.63408287377E+03  0.40000000000E+03 0. -1.
<mgrwt>
<rscale>  2 0.44576911E+03</rscale>
<asrwt>0</asrwt>
<pdfrwt beam="1">  1        1 0.17188937E+00 0.44576911E+03</pdfrwt>
<pdfrwt beam="2">  1       -1 0.27384592E-01 0.44576911E+03</pdfrwt>
<totfact> 0.15397695E+02</totfact>
</mgrwt>
</event>
<event>
 4    1  0.2474915E-002  0.4114263E+03  0.7818608E-02  0.1039893E+00
         -1   -1    0    0    0  501 -0.00000000000E+00  0.00000000000E+00  0.70778520898E+02  0.70778520898E+02  0.00000000000E+00 0. -1.
          1   -1    0    0  502    0  0.00000000000E+00 -0.00000000000E+00 -0.30874014275E+04  0.30874014275E+04  0.00000000000E+00 0.  1.
    9000007    1    1    2  502    0 -0.57184710996E+02  0.77469663335E+02 -0.22579691347E+04  0.22951462379E+04  0.40000000000E+03 0.  1.
   -9000007    1    1    2    0  501  0.57184710996E+02 -0.77469663335E+02 -0.75865377193E+03  0.86303371056E+03  0.40000000000E+03 0. -1.
<mgrwt>
<rscale>  2 0.41142635E+03</rscale>
<asrwt>0</asrwt>
<pdfrwt beam="1">  1        1 0.47498472E+00 0.41142635E+03</pdfrwt>
<pdfrwt beam="2">  1       -1 0.10889006E-01 0.41142635E+03</pdfrwt>
<totfact> 0.32119586E+01</totfact>
</mgrwt>
</event>
<event>
 4    1  0.2474915E-002  0.4255790E+03  0.7818608E-02  0.1035266E+00
          1   -1    0    0  502    0  0.00000000000E+00  0.00000000000E+00  0.94581270802E+03  0.94581270802E+03  0.00000000000E+00 0. -1.
         -1   -1    0    0    0  501 -0.00000000000E+00 -0.00000000000E+00 -0.29680351154E+03  0.29680351154E+03  0.00000000000E+00 0.  1.
    9000007    1    1    2  502    0 -0.14213771959E+03 -0.30238615555E+02  0.69459362028E+03  0.81460284957E+03  0.40000000000E+03 0. -1.
   -9000007    1    1    2    0  501  0.14213771959E+03  0.30238615555E+02 -0.45584423796E+02  0.42801336999E+03  0.40000000000E+03 0.  1.
<mgrwt>
<rscale>  2 0.42557902E+03</rscale>
<asrwt>0</asrwt>
<pdfrwt beam="1">  1        1 0.14550965E+00 0.42557902E+03</pdfrwt>
<pdfrwt beam="2">  1       -1 0.45662079E-01 0.42557902E+03</pdfrwt>
<totfact> 0.84194394E+01</totfact>
</mgrwt>
</event>
<event>
 4    1  0.2474915E-002  0.4056509E+03  0.7818608E-02  0.1041840E+00
         -1   -1    0    0    0  501 -0.00000000000E+00  0.00000000000E+00  0.12476313944E+03  0.12476313944E+03  0.00000000000E+00 0. -1.
          1   -1    0    0  502    0  0.00000000000E+00 -0.00000000000E+00 -0.14315927688E+04  0.14315927688E+04  0.00000000000E+00 0.  1.
    9000007    1    1    2  502    0 -0.14091976190E+02  0.65985534769E+02 -0.43510286704E+03  0.59486736294E+03  0.40000000000E+03 0. -1.
   -9000007    1    1    2    0  501  0.14091976190E+02 -0.65985534769E+02 -0.87172676234E+03  0.96148854531E+03  0.40000000000E+03 0.  1.
<mgrwt>
<rscale>  2 0.40565093E+03</rscale>
<asrwt>0</asrwt>
<pdfrwt beam="1">  1        1 0.22024504E+00 0.40565093E+03</pdfrwt>
<pdfrwt beam="2">  1       -1 0.19194329E-01 0.40565093E+03</pdfrwt>
<totfact> 0.16882241E+02</totfact>
</mgrwt>
</event>
<event>
 4    1  0.2474915E-002  0.4740207E+03  0.7818608E-02  0.1020791E+00
         -1   -1    0    0    0  501 -0.00000000000E+00  0.00000000000E+00  0.34676664495E+03  0.34676664495E+03  0.00000000000E+00 0. -1.
          1   -1    0    0  502    0  0.00000000000E+00 -0.00000000000E+00 -0.80828067951E+03  0.80828067951E+03  0.00000000000E+00 0.  1.
    9000007    1    1    2  502    0 -0.15054487958E+03  0.20501678645E+03 -0.48795347758E+03  0.68028982043E+03  0.40000000000E+03 0.  1.
   -9000007    1    1    2    0  501  0.15054487958E+03 -0.20501678645E+03  0.26439443024E+02  0.47475750404E+03  0.40000000000E+03 0. -1.
<mgrwt>
<rscale>  2 0.47402072E+03</rscale>
<asrwt>0</asrwt>
<pdfrwt beam="1">  1        1 0.12435087E+00 0.47402072E+03</pdfrwt>
<pdfrwt beam="2">  1       -1 0.53348716E-01 0.47402072E+03</pdfrwt>
<totfact> 0.80865452E+01</totfact>
</mgrwt>
</event>
<event>
 4    1  0.2474915E-002  0.4891278E+03  0.7818608E-02  0.1016656E+00
          1   -1    0    0  502    0  0.00000000000E+00  0.00000000000E+00  0.15555219031E+04  0.15555219031E+04  0.00000000000E+00 0. -1.
         -1   -1    0    0    0  501 -0.00000000000E+00 -0.00000000000E+00 -0.16376513090E+03  0.16376513090E+03  0.00000000000E+00 0.  1.
    9000007    1    1    2  502    0  0.28043242296E+03  0.24570253509E+02  0.90788737934E+03  0.10312640471E+04  0.40000000000E+03 0. -1.
   -9000007    1    1    2    0  501 -0.28043242296E+03 -0.24570253509E+02  0.48386939289E+03  0.68802298696E+03  0.40000000000E+03 0.  1.
<mgrwt>
<rscale>  2 0.48912784E+03</rscale>
<asrwt>0</asrwt>
<pdfrwt beam="1">  1        1 0.23931105E+00 0.48912784E+03</pdfrwt>
<pdfrwt beam="2">  1       -1 0.25194637E-01 0.48912784E+03</pdfrwt>
<totfact> 0.87434068E+01</totfact>
</mgrwt>
</event>
<event>
 4    1  0.2474915E-002  0.5196356E+03  0.7818608E-02  0.1008777E+00
         -2   -1    0    0    0  501 -0.00000000000E+00  0.00000000000E+00  0.53392766953E+03  0.53392766953E+03  0.00000000000E+00 0. -1.
          2   -1    0    0  502    0  0.00000000000E+00 -0.00000000000E+00 -0.50576335920E+03  0.50576335920E+03  0.00000000000E+00 0.  1.
    9000007    1    1    2  502    0 -0.32841643931E+03 -0.46516737496E+02  0.18543303044E+02  0.51996636292E+03  0.40000000000E+03 0.  1.
   -9000007    1    1    2    0  501  0.32841643931E+03  0.46516737496E+02  0.96210072831E+01  0.51972466582E+03  0.40000000000E+03 0.  1.
<mgrwt>
<rscale>  2 0.51963561E+03</rscale>
<asrwt>0</asrwt>
<pdfrwt beam="1">  1        2 0.77809748E-01 0.51963561E+03</pdfrwt>
<pdfrwt beam="2">  1       -2 0.82142718E-01 0.51963561E+03</pdfrwt>
<totfact> 0.81287810E+01</totfact>
</mgrwt>
</event>
<event>
 4    1  0.2474915E-002  0.4093839E+03  0.7818608E-02  0.1040578E+00
          2   -1    0    0  502    0  0.00000000000E+00  0.00000000000E+00  0.14947368501E+04  0.14947368501E+04  0.00000000000E+00 0. -1.
         -2   -1    0    0    0  501 -0.00000000000E+00 -0.00000000000E+00 -0.12081530787E+03  0.12081530787E+03  0.00000000000E+00 0.  1.
    9000007    1    1    2  502    0  0.78859333637E+02  0.37100027360E+02  0.47029827680E+03  0.62351878535E+03  0.40000000000E+03 0.  1.
   -9000007    1    1    2    0  501 -0.78859333637E+02 -0.37100027360E+02  0.90362326540E+03  0.99203337258E+03  0.40000000000E+03 0. -1.
<mgrwt>
<rscale>  2 0.40938394E+03</rscale>
<asrwt>0</asrwt>
<pdfrwt beam="1">  1        2 0.22995950E+00 0.40938394E+03</pdfrwt>
<pdfrwt beam="2">  1       -2 0.18586971E-01 0.40938394E+03</pdfrwt>
<totfact> 0.32327854E+02</totfact>
</mgrwt>
</event>
<event>
 4    1  0.2474915E-002  0.4558055E+03  0.7818608E-02  0.1026005E+00
         -2   -1    0    0    0  501 -0.00000000000E+00  0.00000000000E+00  0.58471903184E+03  0.58471903184E+03  0.00000000000E+00 0. -1.
          2   -1    0    0  502    0  0.00000000000E+00 -0.00000000000E+00 -0.48277797423E+03  0.48277797423E+03  0.00000000000E+00 0.  1.
    9000007    1    1    2  502    0 -0.20323967076E+03  0.80326122633E+02 -0.22328619303E+03  0.50755824665E+03  0.40000000000E+03 0.  1.
   -9000007    1    1    2    0  501  0.20323967076E+03 -0.80326122633E+02  0.32522725063E+03  0.55993875942E+03  0.40000000000E+03 0. -1.
<mgrwt>
<rscale>  2 0.45580550E+03</rscale>
<asrwt>0</asrwt>
<pdfrwt beam="1">  1        2 0.74273534E-01 0.45580550E+03</pdfrwt>
<pdfrwt beam="2">  1       -2 0.89956774E-01 0.45580550E+03</pdfrwt>
<totfact> 0.70152491E+01</totfact>
</mgrwt>
</event>
<event>
 4    1  0.2474915E-002  0.4197207E+03  0.7818608E-02  0.1037157E+00
         -3   -1    0    0    0  501 -0.00000000000E+00  0.00000000000E+00  0.85105140307E+03  0.85105140307E+03  0.00000000000E+00 0. -1.
          3   -1    0    0  502    0  0.00000000000E+00 -0.00000000000E+00 -0.20873968526E+03  0.20873968526E+03  0.00000000000E+00 0.  1.
    9000007    1    1    2  502    0  0.22714758643E+01 -0.12712328747E+03  0.27274550142E+03  0.50055529002E+03  0.40000000000E+03 0. -1.
   -9000007    1    1    2    0  501 -0.22714758643E+01  0.12712328747E+03  0.36956621640E+03  0.55923579832E+03  0.40000000000E+03 0.  1.
<mgrwt>
<rscale>  2 0.41972073E+03</rscale>
<asrwt>0</asrwt>
<pdfrwt beam="1">  1        3 0.32113798E-01 0.41972073E+03</pdfrwt>
<pdfrwt beam="2">  1       -3 0.13093098E+00 0.41972073E+03</pdfrwt>
<totfact> 0.11324853E+01</totfact>
</mgrwt>
</event>
<event>
 4    1  0.2474915E-002  0.4353183E+03  0.7818608E-02  0.1032193E+00
         -2   -1    0    0    0  501 -0.00000000000E+00  0.00000000000E+00  0.34966378495E+03  0.34966378495E+03  0.00000000000E+00 0. -1.
          2   -1    0    0  502    0  0.00000000000E+00 -0.00000000000E+00 -0.58115390625E+03  0.58115390625E+03  0.00000000000E+00 0.  1.
    9000007    1    1    2  502    0  0.16996708442E+03 -0.24763123767E+02 -0.23661721333E+03  0.49546919958E+03  0.40000000000E+03 0.  1.
   -9000007    1    1    2    0  501 -0.16996708442E+03  0.24763123767E+02  0.51270920281E+01  0.43534849162E+03  0.40000000000E+03 0.  1.
<mgrwt>
<rscale>  2 0.43531830E+03</rscale>
<asrwt>0</asrwt>
<pdfrwt beam="1">  1        2 0.89408292E-01 0.43531830E+03</pdfrwt>
<pdfrwt beam="2">  1       -2 0.53794429E-01 0.43531830E+03</pdfrwt>
<totfact> 0.17264097E+02</totfact>
</mgrwt>
</event>
<event>
 4    1  0.2474915E-002  0.4318863E+03  0.7818608E-02  0.1033266E+00
          1   -1    0    0  502    0  0.00000000000E+00  0.00000000000E+00  0.15191238559E+04  0.15191238559E+04  0.00000000000E+00 0. -1.
         -1   -1    0    0    0  501 -0.00000000000E+00 -0.00000000000E+00 -0.14230323102E+03  0.14230323102E+03  0.00000000000E+00 0.  1.
    9000007    1    1    2  502    0 -0.14779561489E+03  0.68426873335E+02  0.38075601948E+03  0.57576117197E+03  0.40000000000E+03 0. -1.
   -9000007    1    1    2    0  501  0.14779561489E+03 -0.68426873335E+02  0.99606460543E+03  0.10856659150E+04  0.40000000000E+03 0.  1.
<mgrwt>
<rscale>  2 0.43188631E+03</rscale>
<asrwt>0</asrwt>
<pdfrwt beam="1">  1        1 0.23371135E+00 0.43188631E+03</pdfrwt>
<pdfrwt beam="2">  1       -1 0.21892806E-01 0.43188631E+03</pdfrwt>
<totfact> 0.11810703E+02</totfact>
</mgrwt>
</event>
<event>
 4    1  0.2474915E-002  0.7141252E+03  0.7818608E-02  0.9693377E-01
         -1   -1    0    0    0  501 -0.00000000000E+00  0.00000000000E+00  0.90285256212E+03  0.90285256212E+03  0.00000000000E+00 0. -1.
          1   -1    0    0  502    0  0.00000000000E+00 -0.00000000000E+00 -0.70574347774E+03  0.70574347774E+03  0.00000000000E+00 0.  1.
    9000007    1    1    2  502    0  0.17859900810E+03 -0.56398327585E+03 -0.26081529001E+03  0.76026268923E+03  0.40000000000E+03 0.  1.
   -9000007    1    1    2    0  501 -0.17859900810E+03  0.56398327585E+03  0.45792437439E+03  0.84833335063E+03  0.40000000000E+03 0. -1.
<mgrwt>
<rscale>  2 0.71412516E+03</rscale>
<asrwt>0</asrwt>
<pdfrwt beam="1">  1        1 0.10857592E+00 0.71412516E+03</pdfrwt>
<pdfrwt beam="2">  1       -1 0.13890039E+00 0.71412516E+03</pdfrwt>
<totfact> 0.11910259E+01</totfact>
</mgrwt>
</event>
<event>
 4    1  0.2474915E-002  0.4580261E+03  0.7818608E-02  0.1025355E+00
         -1   -1    0    0    0  501 -0.00000000000E+00  0.00000000000E+00  0.29970284873E+03  0.29970284873E+03  0.00000000000E+00 0.  1.
          1   -1    0    0  502    0  0.00000000000E+00 -0.00000000000E+00 -0.72507385449E+03  0.72507385449E+03  0.00000000000E+00 0. -1.
    9000007    1    1    2  502    0  0.18733384586E+03  0.12121837372E+03 -0.30799539772E+03  0.55195020513E+03  0.40000000000E+03 0.  1.
   -9000007    1    1    2    0  501 -0.18733384586E+03 -0.12121837372E+03 -0.11737560804E+03  0.47282649809E+03  0.40000000000E+03 0. -1.
<mgrwt>
<rscale>  2 0.45802605E+03</rscale>
<asrwt>0</asrwt>
<pdfrwt beam="1">  1        1 0.11154982E+00 0.45802605E+03</pdfrwt>
<pdfrwt beam="2">  1       -1 0.46108131E-01 0.45802605E+03</pdfrwt>
<totfact> 0.12593644E+02</totfact>
</mgrwt>
</event>
<event>
 4    1  0.2474915E-002  0.4859542E+03  0.7818608E-02  0.1017511E+00
         -1   -1    0    0    0  501 -0.00000000000E+00  0.00000000000E+00  0.11621727117E+03  0.11621727117E+03  0.00000000000E+00 0.  1.
          1   -1    0    0  502    0  0.00000000000E+00 -0.00000000000E+00 -0.22666105598E+04  0.22666105598E+04  0.00000000000E+00 0. -1.
    9000007    1    1    2  502    0 -0.27526913539E+03  0.19452801345E+02 -0.69187458425E+03  0.84548326341E+03  0.40000000000E+03 0.  1.
   -9000007    1    1    2    0  501  0.27526913539E+03 -0.19452801345E+02 -0.14585187043E+04  0.15373445675E+04  0.40000000000E+03 0. -1.
<mgrwt>
<rscale>  2 0.48595422E+03</rscale>
<asrwt>0</asrwt>
<pdfrwt beam="1">  1        1 0.34870931E+00 0.48595422E+03</pdfrwt>
<pdfrwt beam="2">  1       -1 0.17879580E-01 0.48595422E+03</pdfrwt>
<totfact> 0.52211768E+01</totfact>
</mgrwt>
</event>
<event>
 4    1  0.2474915E-002  0.4487503E+03  0.7818608E-02  0.1028095E+00
          2   -1    0    0  502    0  0.00000000000E+00  0.00000000000E+00  0.32630291538E+03  0.32630291538E+03  0.00000000000E+00 0. -1.
         -2   -1    0    0    0  501 -0.00000000000E+00 -0.00000000000E+00 -0.62400112870E+03  0.62400112870E+03  0.00000000000E+00 0.  1.
    9000007    1    1    2  502    0  0.10956050620E+03  0.17138638495E+03 -0.19864833457E+03  0.49075244094E+03  0.40000000000E+03 0.  1.
   -9000007    1    1    2    0  501 -0.10956050620E+03 -0.17138638495E+03 -0.99049878749E+02  0.45955160314E+03  0.40000000000E+03 0.  1.
<mgrwt>
<rscale>  2 0.44875026E+03</rscale>
<asrwt>0</asrwt>
<pdfrwt beam="1">  1        2 0.50200449E-01 0.44875026E+03</pdfrwt>
<pdfrwt beam="2">  1       -2 0.96000173E-01 0.44875026E+03</pdfrwt>
<totfact> 0.93443231E+01</totfact>
</mgrwt>
</event>
<event>
 4    1  0.2474915E-002  0.5588278E+03  0.7818608E-02  0.9994710E-01
         -2   -1    0    0    0  501 -0.00000000000E+00  0.00000000000E+00  0.59061571852E+03  0.59061571852E+03  0.00000000000E+00 0. -1.
          2   -1    0    0  502    0  0.00000000000E+00 -0.00000000000E+00 -0.52898931314E+03  0.52898931314E+03  0.00000000000E+00 0.  1.
    9000007    1    1    2  502    0  0.37224715560E+03 -0.11713489017E+03  0.42700340145E+02  0.56045681938E+03  0.40000000000E+03 0. -1.
   -9000007    1    1    2    0  501 -0.37224715560E+03  0.11713489017E+03  0.18926065239E+02  0.55914821228E+03  0.40000000000E+03 0. -1.
<mgrwt>
<rscale>  2 0.55882782E+03</rscale>
<asrwt>0</asrwt>
<pdfrwt beam="1">  1        2 0.81382971E-01 0.55882782E+03</pdfrwt>
<pdfrwt beam="2">  1       -2 0.90863957E-01 0.55882782E+03</pdfrwt>
<totfact> 0.61143167E+01</totfact>
</mgrwt>
</event>
<event>
 4    1  0.2474915E-002  0.4034051E+03  0.7818608E-02  0.1042607E+00
          1   -1    0    0  502    0  0.00000000000E+00  0.00000000000E+00  0.55785088710E+03  0.55785088710E+03  0.00000000000E+00 0.  1.
         -1   -1    0    0    0  501 -0.00000000000E+00 -0.00000000000E+00 -0.29295840571E+03  0.29295840571E+03  0.00000000000E+00 0. -1.
    9000007    1    1    2  502    0  0.51065045614E+02  0.11313626047E+02  0.16011735803E+03  0.43401982139E+03  0.40000000000E+03 0.  1.
   -9000007    1    1    2    0  501 -0.51065045614E+02 -0.11313626047E+02  0.10477512336E+03  0.41678947143E+03  0.40000000000E+03 0. -1.
<mgrwt>
<rscale>  2 0.40340505E+03</rscale>
<asrwt>0</asrwt>
<pdfrwt beam="1">  1        1 0.85823214E-01 0.40340505E+03</pdfrwt>
<pdfrwt beam="2">  1       -1 0.45070524E-01 0.40340505E+03</pdfrwt>
<totfact> 0.19276566E+02</totfact>
</mgrwt>
</event>
<event>
 4    1  0.2474915E-002  0.4481021E+03  0.7818608E-02  0.1028290E+00
          1   -1    0    0  502    0  0.00000000000E+00  0.00000000000E+00  0.47116855975E+03  0.47116855975E+03  0.00000000000E+00 0.  1.
         -1   -1    0    0    0  501 -0.00000000000E+00 -0.00000000000E+00 -0.45022435123E+03  0.45022435123E+03  0.00000000000E+00 0. -1.
    9000007    1    1    2  502    0  0.86737310059E+02  0.18240657999E+03  0.11697045219E+03  0.46311727248E+03  0.40000000000E+03 0.  1.
   -9000007    1    1    2    0  501 -0.86737310059E+02 -0.18240657999E+03 -0.96026243672E+02  0.45827563851E+03  0.40000000000E+03 0. -1.
<mgrwt>
<rscale>  2 0.44810213E+03</rscale>
<asrwt>0</asrwt>
<pdfrwt beam="1">  1        1 0.72487471E-01 0.44810213E+03</pdfrwt>
<pdfrwt beam="2">  1       -1 0.69265285E-01 0.44810213E+03</pdfrwt>
<totfact> 0.10578560E+02</totfact>
</mgrwt>
</event>
<event>
 4    1  0.2474915E-002  0.4696681E+03  0.7818608E-02  0.1022014E+00
          2   -1    0    0  502    0  0.00000000000E+00  0.00000000000E+00  0.37440059251E+03  0.37440059251E+03  0.00000000000E+00 0.  1.
         -2   -1    0    0    0  501 -0.00000000000E+00 -0.00000000000E+00 -0.60621724031E+03  0.60621724031E+03  0.00000000000E+00 0. -1.
    9000007    1    1    2  502    0  0.19620396633E+03  0.14863405446E+03 -0.19811332692E+03  0.50974206110E+03  0.40000000000E+03 0. -1.
   -9000007    1    1    2    0  501 -0.19620396633E+03 -0.14863405446E+03 -0.33703320881E+02  0.47087577171E+03  0.40000000000E+03 0.  1.
<mgrwt>
<rscale>  2 0.46966805E+03</rscale>
<asrwt>0</asrwt>
<pdfrwt beam="1">  1        2 0.57600092E-01 0.46966805E+03</pdfrwt>
<pdfrwt beam="2">  1       -2 0.93264190E-01 0.46966805E+03</pdfrwt>
<totfact> 0.85721722E+01</totfact>
</mgrwt>
</event>
<event>
 4    1  0.2474915E-002  0.5137599E+03  0.7818608E-02  0.1010249E+00
          2   -1    0    0  502    0  0.00000000000E+00  0.00000000000E+00  0.15164237156E+04  0.15164237156E+04  0.00000000000E+00 0.  1.
         -2   -1    0    0    0  501 -0.00000000000E+00 -0.00000000000E+00 -0.30509599191E+03  0.30509599191E+03  0.00000000000E+00 0. -1.
    9000007    1    1    2  502    0 -0.31758693672E+03  0.55567481975E+02  0.87929884577E+01  0.51383511370E+03  0.40000000000E+03 0. -1.
   -9000007    1    1    2    0  501  0.31758693672E+03 -0.55567481975E+02  0.12025347352E+04  0.13076845938E+04  0.40000000000E+03 0.  1.
<mgrwt>
<rscale>  2 0.51375987E+03</rscale>
<asrwt>0</asrwt>
<pdfrwt beam="1">  1        2 0.23329595E+00 0.51375987E+03</pdfrwt>
<pdfrwt beam="2">  1       -2 0.46937846E-01 0.51375987E+03</pdfrwt>
<totfact> 0.56244387E+01</totfact>
</mgrwt>
</event>
<event>
 4    1  0.2474915E-002  0.5382345E+03  0.7818608E-02  0.1004254E+00
         -1   -1    0    0    0  501 -0.00000000000E+00  0.00000000000E+00  0.33988444637E+03  0.33988444637E+03  0.00000000000E+00 0. -1.
          1   -1    0    0  502    0  0.00000000000E+00 -0.00000000000E+00 -0.10436035130E+04  0.10436035130E+04  0.00000000000E+00 0.  1.
    9000007    1    1    2  502    0 -0.27006542364E+03 -0.23824565432E+03 -0.55720056009E+02  0.54111094010E+03  0.40000000000E+03 0. -1.
   -9000007    1    1    2    0  501  0.27006542364E+03  0.23824565432E+03 -0.64799901066E+03  0.84237701932E+03  0.40000000000E+03 0.  1.
<mgrwt>
<rscale>  2 0.53823445E+03</rscale>
<asrwt>0</asrwt>
<pdfrwt beam="1">  1        1 0.16055439E+00 0.53823445E+03</pdfrwt>
<pdfrwt beam="2">  1       -1 0.52289914E-01 0.53823445E+03</pdfrwt>
<totfact> 0.54105389E+01</totfact>
</mgrwt>
</event>
<event>
 4    1  0.2474915E-002  0.4963839E+03  0.7818608E-02  0.1014727E+00
         -2   -1    0    0    0  501 -0.00000000000E+00  0.00000000000E+00  0.88772485379E+02  0.88772485379E+02  0.00000000000E+00 0.  1.
          2   -1    0    0  502    0  0.00000000000E+00 -0.00000000000E+00 -0.28646133705E+04  0.28646133705E+04  0.00000000000E+00 0. -1.
    9000007    1    1    2  502    0  0.22708024944E+03 -0.18663204928E+03 -0.11276149052E+04  0.12320358501E+04  0.40000000000E+03 0.  1.
   -9000007    1    1    2    0  501 -0.22708024944E+03  0.18663204928E+03 -0.16482259799E+04  0.17213500058E+04  0.40000000000E+03 0. -1.
<mgrwt>
<rscale>  2 0.49638389E+03</rscale>
<asrwt>0</asrwt>
<pdfrwt beam="1">  1        2 0.44070974E+00 0.49638389E+03</pdfrwt>
<pdfrwt beam="2">  1       -2 0.13657306E-01 0.49638389E+03</pdfrwt>
<totfact> 0.94688120E+01</totfact>
</mgrwt>
</event>
<event>
 4    1  0.2474915E-002  0.5928470E+03  0.7818608E-02  0.9920358E-01
          1   -1    0    0  502    0  0.00000000000E+00  0.00000000000E+00  0.21489884637E+03  0.21489884637E+03  0.00000000000E+00 0. -1.
         -1   -1    0    0    0  501 -0.00000000000E+00 -0.00000000000E+00 -0.20835055478E+04  0.20835055478E+04  0.00000000000E+00 0.  1.
    9000007    1    1    2  502    0 -0.12156418786E+03 -0.42034471860E+03 -0.14671960259E+04  0.15824448530E+04  0.40000000000E+03 0.  1.
   -9000007    1    1    2    0  501  0.12156418786E+03  0.42034471860E+03 -0.40141067555E+03  0.71595954122E+03  0.40000000000E+03 0.  1.
<mgrwt>
<rscale>  2 0.59284697E+03</rscale>
<asrwt>0</asrwt>
<pdfrwt beam="1">  1        1 0.33061362E-01 0.59284697E+03</pdfrwt>
<pdfrwt beam="2">  1       -1 0.32053930E+00 0.59284697E+03</pdfrwt>
<totfact> 0.35446342E+00</totfact>
</mgrwt>
</event>
<event>
 4    1  0.2474915E-002  0.5742491E+03  0.7818608E-02  0.9960320E-01
         -1   -1    0    0    0  501 -0.00000000000E+00  0.00000000000E+00  0.34280494994E+03  0.34280494994E+03  0.00000000000E+00 0. -1.
          1   -1    0    0  502    0  0.00000000000E+00 -0.00000000000E+00 -0.99468766941E+03  0.99468766941E+03  0.00000000000E+00 0.  1.
    9000007    1    1    2  502    0  0.40059860778E+03 -0.96346987249E+02 -0.44725988152E+03  0.72787594281E+03  0.40000000000E+03 0.  1.
   -9000007    1    1    2    0  501 -0.40059860778E+03  0.96346987249E+02 -0.20462283795E+03  0.60961667654E+03  0.40000000000E+03 0. -1.
<mgrwt>
<rscale>  2 0.57424906E+03</rscale>
<asrwt>0</asrwt>
<pdfrwt beam="1">  1        1 0.15302887E+00 0.57424906E+03</pdfrwt>
<pdfrwt beam="2">  1       -1 0.52739223E-01 0.57424906E+03</pdfrwt>
<totfact> 0.57732905E+01</totfact>
</mgrwt>
</event>
<event>
 4    1  0.2474915E-002  0.5482527E+03  0.7818608E-02  0.1001899E+00
         -2   -1    0    0    0  501 -0.00000000000E+00  0.00000000000E+00  0.13852496699E+03  0.13852496699E+03  0.00000000000E+00 0.  1.
          2   -1    0    0  502    0  0.00000000000E+00 -0.00000000000E+00 -0.21698746748E+04  0.21698746748E+04  0.00000000000E+00 0. -1.
    9000007    1    1    2  502    0 -0.27463882017E+03 -0.25525389537E+03 -0.10175401583E+04  0.11558412548E+04  0.40000000000E+03 0. -1.
   -9000007    1    1    2    0  501  0.27463882017E+03  0.25525389537E+03 -0.10138095495E+04  0.11525583869E+04  0.40000000000E+03 0.  1.
<mgrwt>
<rscale>  2 0.54825271E+03</rscale>
<asrwt>0</asrwt>
<pdfrwt beam="1">  1        2 0.33382687E+00 0.54825271E+03</pdfrwt>
<pdfrwt beam="2">  1       -2 0.21311534E-01 0.54825271E+03</pdfrwt>
<totfact> 0.10819994E+02</totfact>
</mgrwt>
</event>
<event>
 4    1  0.2474915E-002  0.4218024E+03  0.7818608E-02  0.1036481E+00
          2   -1    0    0  502    0  0.00000000000E+00  0.00000000000E+00  0.53789877374E+03  0.53789877374E+03  0.00000000000E+00 0. -1.
         -2   -1    0    0    0  501 -0.00000000000E+00 -0.00000000000E+00 -0.33410460009E+03  0.33410460009E+03  0.00000000000E+00 0.  1.
    9000007    1    1    2  502    0 -0.80760592742E+02  0.10674728193E+03  0.58296255766E+02  0.42581182343E+03  0.40000000000E+03 0.  1.
   -9000007    1    1    2    0  501  0.80760592742E+02 -0.10674728193E+03  0.14549791789E+03  0.44619155040E+03  0.40000000000E+03 0.  1.
<mgrwt>
<rscale>  2 0.42180239E+03</rscale>
<asrwt>0</asrwt>
<pdfrwt beam="1">  1        2 0.82753657E-01 0.42180239E+03</pdfrwt>
<pdfrwt beam="2">  1       -2 0.51400708E-01 0.42180239E+03</pdfrwt>
<totfact> 0.20752327E+02</totfact>
</mgrwt>
</event>
<event>
 4    1  0.2474915E-002  0.6670876E+03  0.7818608E-02  0.9775233E-01
         -1   -1    0    0    0  501 -0.00000000000E+00  0.00000000000E+00  0.28515863475E+03  0.28515863475E+03  0.00000000000E+00 0. -1.
          1   -1    0    0  502    0  0.00000000000E+00 -0.00000000000E+00 -0.17928321832E+04  0.17928321832E+04  0.00000000000E+00 0.  1.
    9000007    1    1    2  502    0 -0.19529058121E+02 -0.53350210969E+03 -0.11278152318E+04  0.13103331952E+04  0.40000000000E+03 0.  1.
   -9000007    1    1    2    0  501  0.19529058121E+02  0.53350210969E+03 -0.37985831664E+03  0.76765762282E+03  0.40000000000E+03 0. -1.
<mgrwt>
<rscale>  2 0.66708761E+03</rscale>
<asrwt>0</asrwt>
<pdfrwt beam="1">  1        1 0.27582033E+00 0.66708761E+03</pdfrwt>
<pdfrwt beam="2">  1       -1 0.43870559E-01 0.66708761E+03</pdfrwt>
<totfact> 0.22214186E+01</totfact>
</mgrwt>
</event>
<event>
 4    1  0.2474915E-002  0.4077220E+03  0.7818608E-02  0.1041138E+00
          2   -1    0    0  502    0  0.00000000000E+00  0.00000000000E+00  0.40582121697E+03  0.40582121697E+03  0.00000000000E+00 0. -1.
         -2   -1    0    0    0  501 -0.00000000000E+00 -0.00000000000E+00 -0.41687697217E+03  0.41687697217E+03  0.00000000000E+00 0.  1.
    9000007    1    1    2  502    0 -0.75524953771E+02  0.23090603252E+02 -0.59757543514E+02  0.41207785503E+03  0.40000000000E+03 0. -1.
   -9000007    1    1    2    0  501  0.75524953771E+02 -0.23090603252E+02  0.48701788317E+02  0.41062033411E+03  0.40000000000E+03 0. -1.
<mgrwt>
<rscale>  2 0.40772196E+03</rscale>
<asrwt>0</asrwt>
<pdfrwt beam="1">  1        2 0.62434033E-01 0.40772196E+03</pdfrwt>
<pdfrwt beam="2">  1       -2 0.64134919E-01 0.40772196E+03</pdfrwt>
<totfact> 0.18044071E+02</totfact>
</mgrwt>
</event>
<event>
 4    1  0.2474915E-002  0.4620918E+03  0.7818608E-02  0.1024176E+00
          2   -1    0    0  502    0  0.00000000000E+00  0.00000000000E+00  0.37301204410E+04  0.37301204410E+04  0.00000000000E+00 0.  1.
         -2   -1    0    0    0  501 -0.00000000000E+00 -0.00000000000E+00 -0.17359119325E+03  0.17359119325E+03  0.00000000000E+00 0. -1.
    9000007    1    1    2  502    0  0.16762855378E+03  0.15946632150E+03  0.33762063276E+04  0.34076822044E+04  0.40000000000E+03 0.  1.
   -9000007    1    1    2    0  501 -0.16762855378E+03 -0.15946632150E+03  0.18032292014E+03  0.49602942983E+03  0.40000000000E+03 0. -1.
<mgrwt>
<rscale>  2 0.46209181E+03</rscale>
<asrwt>0</asrwt>
<pdfrwt beam="1">  1        2 0.57386462E+00 0.46209181E+03</pdfrwt>
<pdfrwt beam="2">  1       -2 0.26706340E-01 0.46209181E+03</pdfrwt>
<totfact> 0.82785180E+00</totfact>
</mgrwt>
</event>
<event>
 4    1  0.2474915E-002  0.4352164E+03  0.7818608E-02  0.1032225E+00
         -1   -1    0    0    0  501 -0.00000000000E+00  0.00000000000E+00  0.23228220688E+03  0.23228220688E+03  0.00000000000E+00 0.  1.
          1   -1    0    0  502    0  0.00000000000E+00 -0.00000000000E+00 -0.12102422023E+04  0.12102422023E+04  0.00000000000E+00 0. -1.
    9000007    1    1    2  502    0  0.99747709964E+02 -0.13951228711E+03 -0.77030240009E+02  0.44198070294E+03  0.40000000000E+03 0.  1.
   -9000007    1    1    2    0  501 -0.99747709964E+02  0.13951228711E+03 -0.90092975546E+03  0.10005437063E+04  0.40000000000E+03 0. -1.
<mgrwt>
<rscale>  2 0.43521636E+03</rscale>
<asrwt>0</asrwt>
<pdfrwt beam="1">  1        1 0.18619111E+00 0.43521636E+03</pdfrwt>
<pdfrwt beam="2">  1       -1 0.35735724E-01 0.43521636E+03</pdfrwt>
<totfact> 0.83275997E+01</totfact>
</mgrwt>
</event>
<event>
 4    1  0.2474915E-002  0.4982150E+03  0.7818608E-02  0.1014246E+00
         -1   -1    0    0    0  501 -0.00000000000E+00  0.00000000000E+00  0.12283390069E+03  0.12283390069E+03  0.00000000000E+00 0.  1.
          1   -1    0    0  502    0  0.00000000000E+00 -0.00000000000E+00 -0.20972604626E+04  0.20972604626E+04  0.00000000000E+00 0. -1.
    9000007    1    1    2  502    0  0.28794400201E+03 -0.72845177172E+02 -0.77521148324E+03  0.92150475413E+03  0.40000000000E+03 0.  1.
   -9000007    1    1    2    0  501 -0.28794400201E+03  0.72845177172E+02 -0.11992150787E+04  0.12985896092E+04  0.40000000000E+03 0. -1.
<mgrwt>
<rscale>  2 0.49821498E+03</rscale>
<asrwt>0</asrwt>
<pdfrwt beam="1">  1        1 0.32265545E+00 0.49821498E+03</pdfrwt>
<pdfrwt beam="2">  1       -1 0.18897524E-01 0.49821498E+03</pdfrwt>
<totfact> 0.61629131E+01</totfact>
</mgrwt>
</event>
<event>
 4    1  0.2474915E-002  0.6868666E+03  0.7818608E-02  0.9739959E-01
          2   -1    0    0  502    0  0.00000000000E+00  0.00000000000E+00  0.13392299747E+04  0.13392299747E+04  0.00000000000E+00 0. -1.
         -2   -1    0    0    0  501 -0.00000000000E+00 -0.00000000000E+00 -0.56303463152E+03  0.56303463152E+03  0.00000000000E+00 0.  1.
    9000007    1    1    2  502    0  0.54570316045E+03 -0.11829541921E+03 -0.19381866367E+03  0.71368860150E+03  0.40000000000E+03 0.  1.
   -9000007    1    1    2    0  501 -0.54570316045E+03  0.11829541921E+03  0.97001400689E+03  0.11885760048E+04  0.40000000000E+03 0. -1.
<mgrwt>
<rscale>  2 0.68686661E+03</rscale>
<asrwt>0</asrwt>
<pdfrwt beam="1">  1        2 0.20603538E+00 0.68686661E+03</pdfrwt>
<pdfrwt beam="2">  1       -2 0.86620713E-01 0.68686661E+03</pdfrwt>
<totfact> 0.18632112E+01</totfact>
</mgrwt>
</event>
<event>
 4    1  0.2474915E-002  0.4361269E+03  0.7818608E-02  0.1031942E+00
         -2   -1    0    0    0  501 -0.00000000000E+00  0.00000000000E+00  0.34210953079E+03  0.34210953079E+03  0.00000000000E+00 0.  1.
          2   -1    0    0  502    0  0.00000000000E+00 -0.00000000000E+00 -0.98633838388E+03  0.98633838388E+03  0.00000000000E+00 0. -1.
    9000007    1    1    2  502    0 -0.17051550351E+03 -0.33632794552E+02  0.11663418131E+03  0.45145346832E+03  0.40000000000E+03 0.  1.
   -9000007    1    1    2    0  501  0.17051550351E+03  0.33632794552E+02 -0.76086303441E+03  0.87699444635E+03  0.40000000000E+03 0. -1.
<mgrwt>
<rscale>  2 0.43612693E+03</rscale>
<asrwt>0</asrwt>
<pdfrwt beam="1">  1        2 0.15174436E+00 0.43612693E+03</pdfrwt>
<pdfrwt beam="2">  1       -2 0.52632237E-01 0.43612693E+03</pdfrwt>
<totfact> 0.91502763E+01</totfact>
</mgrwt>
</event>
<event>
 4    1  0.2474915E-002  0.4720892E+03  0.7818608E-02  0.1021332E+00
          1   -1    0    0  502    0  0.00000000000E+00  0.00000000000E+00  0.16463653082E+04  0.16463653082E+04  0.00000000000E+00 0.  1.
         -1   -1    0    0    0  501 -0.00000000000E+00 -0.00000000000E+00 -0.14889970014E+03  0.14889970014E+03  0.00000000000E+00 0. -1.
    9000007    1    1    2  502    0  0.13613055377E+03 -0.21056269113E+03  0.10193146416E+04  0.11233300998E+04  0.40000000000E+03 0.  1.
   -9000007    1    1    2    0  501 -0.13613055377E+03  0.21056269113E+03  0.47815096642E+03  0.67193490849E+03  0.40000000000E+03 0. -1.
<mgrwt>
<rscale>  2 0.47208916E+03</rscale>
<asrwt>0</asrwt>
<pdfrwt beam="1">  1        1 0.25328696E+00 0.47208916E+03</pdfrwt>
<pdfrwt beam="2">  1       -1 0.22907647E-01 0.47208916E+03</pdfrwt>
<totfact> 0.89448391E+01</totfact>
</mgrwt>
</event>
<event>
 4    1  0.2474915E-002  0.5300980E+03  0.7818608E-02  0.1006208E+00
          1   -1    0    0  502    0  0.00000000000E+00  0.00000000000E+00  0.88727072650E+03  0.88727072650E+03  0.00000000000E+00 0.  1.
         -1   -1    0    0    0  501 -0.00000000000E+00 -0.00000000000E+00 -0.32539224040E+03  0.32539224040E+03  0.00000000000E+00 0. -1.
    9000007    1    1    2  502    0  0.28904436306E+03 -0.19353864635E+03  0.38000546029E+03  0.65223308817E+03  0.40000000000E+03 0.  1.
   -9000007    1    1    2    0  501 -0.28904436306E+03  0.19353864635E+03  0.18187302580E+03  0.56042987872E+03  0.40000000000E+03 0. -1.
<mgrwt>
<rscale>  2 0.53009796E+03</rscale>
<asrwt>0</asrwt>
<pdfrwt beam="1">  1        1 0.13650319E+00 0.53009796E+03</pdfrwt>
<pdfrwt beam="2">  1       -1 0.50060345E-01 0.53009796E+03</pdfrwt>
<totfact> 0.77893117E+01</totfact>
</mgrwt>
</event>
<event>
 4    1  0.2474915E-002  0.4487218E+03  0.7818608E-02  0.1028104E+00
         -1   -1    0    0    0  501 -0.00000000000E+00  0.00000000000E+00  0.21359408161E+03  0.21359408161E+03  0.00000000000E+00 0. -1.
          1   -1    0    0  502    0  0.00000000000E+00 -0.00000000000E+00 -0.12046314687E+04  0.12046314687E+04  0.00000000000E+00 0.  1.
    9000007    1    1    2  502    0  0.81965216001E+01  0.20318473106E+03 -0.16484680807E+03  0.47804360474E+03  0.40000000000E+03 0. -1.
   -9000007    1    1    2    0  501 -0.81965216001E+01 -0.20318473106E+03 -0.82619057900E+03  0.94018194554E+03  0.40000000000E+03 0.  1.
<mgrwt>
<rscale>  2 0.44872176E+03</rscale>
<asrwt>0</asrwt>
<pdfrwt beam="1">  1        1 0.18532792E+00 0.44872176E+03</pdfrwt>
<pdfrwt beam="2">  1       -1 0.32860628E-01 0.44872176E+03</pdfrwt>
<totfact> 0.97193933E+01</totfact>
</mgrwt>
</event>
<event>
 4    1  0.2474915E-002  0.4663110E+03  0.7818608E-02  0.1022967E+00
         -1   -1    0    0    0  501 -0.00000000000E+00  0.00000000000E+00  0.15834816337E+03  0.15834816337E+03  0.00000000000E+00 0.  1.
          1   -1    0    0  502    0  0.00000000000E+00 -0.00000000000E+00 -0.14064803373E+04  0.14064803373E+04  0.00000000000E+00 0. -1.
    9000007    1    1    2  502    0  0.23956571915E+03 -0.73625893447E+01 -0.50373680870E+03  0.68643769852E+03  0.40000000000E+03 0.  1.
   -9000007    1    1    2    0  501 -0.23956571915E+03  0.73625893447E+01 -0.74439536521E+03  0.87839080212E+03  0.40000000000E+03 0. -1.
<mgrwt>
<rscale>  2 0.46631099E+03</rscale>
<asrwt>0</asrwt>
<pdfrwt beam="1">  1        1 0.21638159E+00 0.46631099E+03</pdfrwt>
<pdfrwt beam="2">  1       -1 0.24361256E-01 0.46631099E+03</pdfrwt>
<totfact> 0.11716306E+02</totfact>
</mgrwt>
</event>
<event>
 4    1  0.2474915E-002  0.5146781E+03  0.7818608E-02  0.1010017E+00
          2   -1    0    0  502    0  0.00000000000E+00  0.00000000000E+00  0.29608610649E+03  0.29608610649E+03  0.00000000000E+00 0.  1.
         -2   -1    0    0    0  501 -0.00000000000E+00 -0.00000000000E+00 -0.95892470056E+03  0.95892470056E+03  0.00000000000E+00 0. -1.
    9000007    1    1    2  502    0 -0.29937477677E+03 -0.12356495928E+03 -0.16896026249E+03  0.54170206427E+03  0.40000000000E+03 0.  1.
   -9000007    1    1    2    0  501  0.29937477677E+03  0.12356495928E+03 -0.49387833157E+03  0.71330874278E+03  0.40000000000E+03 0. -1.
<mgrwt>
<rscale>  2 0.51467811E+03</rscale>
<asrwt>0</asrwt>
<pdfrwt beam="1">  1        2 0.45551709E-01 0.51467811E+03</pdfrwt>
<pdfrwt beam="2">  1       -2 0.14752688E+00 0.51467811E+03</pdfrwt>
<totfact> 0.35949034E+01</totfact>
</mgrwt>
</event>
<event>
 4    1  0.2474915E-002  0.4136549E+03  0.7818608E-02  0.1039151E+00
         -1   -1    0    0    0  501 -0.00000000000E+00  0.00000000000E+00  0.65401178257E+03  0.65401178257E+03  0.00000000000E+00 0. -1.
          1   -1    0    0  502    0  0.00000000000E+00 -0.00000000000E+00 -0.59433507630E+03  0.59433507630E+03  0.00000000000E+00 0.  1.
    9000007    1    1    2  502    0 -0.90280689534E+02 -0.54403797497E+02  0.49683959873E+03  0.64649823121E+03  0.40000000000E+03 0. -1.
   -9000007    1    1    2    0  501  0.90280689534E+02  0.54403797497E+02 -0.43716289245E+03  0.60184862767E+03  0.40000000000E+03 0.  1.
<mgrwt>
<rscale>  2 0.41365490E+03</rscale>
<asrwt>0</asrwt>
<pdfrwt beam="1">  1        1 0.91436165E-01 0.41365490E+03</pdfrwt>
<pdfrwt beam="2">  1       -1 0.10061720E+00 0.41365490E+03</pdfrwt>
<totfact> 0.34888585E+01</totfact>
</mgrwt>
</event>
<event>
 4    1  0.2474915E-002  0.5619687E+03  0.7818608E-02  0.9987610E-01
          1   -1    0    0  502    0  0.00000000000E+00  0.00000000000E+00  0.47330924799E+03  0.47330924799E+03  0.00000000000E+00 0.  1.
         -1   -1    0    0    0  501 -0.00000000000E+00 -0.00000000000E+00 -0.75136465506E+03  0.75136465506E+03  0.00000000000E+00 0. -1.
    9000007    1    1    2  502    0 -0.38416925009E+03  0.90679466558E+02  0.65870476873E+02  0.56581595780E+03  0.40000000000E+03 0.  1.
   -9000007    1    1    2    0  501  0.38416925009E+03 -0.90679466558E+02 -0.34392588395E+03  0.65885794525E+03  0.40000000000E+03 0. -1.
<mgrwt>
<rscale>  2 0.56196866E+03</rscale>
<asrwt>0</asrwt>
<pdfrwt beam="1">  1        1 0.72816807E-01 0.56196866E+03</pdfrwt>
<pdfrwt beam="2">  1       -1 0.11559456E+00 0.56196866E+03</pdfrwt>
<totfact> 0.33836065E+01</totfact>
</mgrwt>
</event>
<event>
 4    1  0.2474915E-002  0.6568885E+03  0.7818608E-02  0.9793939E-01
         -1   -1    0    0    0  501 -0.00000000000E+00  0.00000000000E+00  0.23791177010E+03  0.23791177010E+03  0.00000000000E+00 0.  1.
          1   -1    0    0  502    0  0.00000000000E+00 -0.00000000000E+00 -0.18202663265E+04  0.18202663265E+04  0.00000000000E+00 0. -1.
    9000007    1    1    2  502    0 -0.11175437697E+03  0.50893359992E+03 -0.72940604149E+03  0.98159850411E+03  0.40000000000E+03 0.  1.
   -9000007    1    1    2    0  501  0.11175437697E+03 -0.50893359992E+03 -0.85294851492E+03  0.10765795925E+04  0.40000000000E+03 0.  1.
<mgrwt>
<rscale>  2 0.65688846E+03</rscale>
<asrwt>0</asrwt>
<pdfrwt beam="1">  1        1 0.28004096E+00 0.65688846E+03</pdfrwt>
<pdfrwt beam="2">  1       -1 0.36601812E-01 0.65688846E+03</pdfrwt>
<totfact> 0.29636479E+01</totfact>
</mgrwt>
</event>
<event>
 4    1  0.2474915E-002  0.4313939E+03  0.7818608E-02  0.1033421E+00
         -2   -1    0    0    0  501 -0.00000000000E+00  0.00000000000E+00  0.14202060617E+03  0.14202060617E+03  0.00000000000E+00 0. -1.
          2   -1    0    0  502    0  0.00000000000E+00 -0.00000000000E+00 -0.13168150041E+04  0.13168150041E+04  0.00000000000E+00 0.  1.
    9000007    1    1    2  502    0  0.10837813438E+02  0.16119311165E+03 -0.53639886707E+03  0.68834905537E+03  0.40000000000E+03 0.  1.
   -9000007    1    1    2    0  501 -0.10837813438E+02 -0.16119311165E+03 -0.63839553088E+03  0.77048655491E+03  0.40000000000E+03 0. -1.
<mgrwt>
<rscale>  2 0.43139388E+03</rscale>
<asrwt>0</asrwt>
<pdfrwt beam="1">  1        2 0.20258692E+00 0.43139388E+03</pdfrwt>
<pdfrwt beam="2">  1       -2 0.21849324E-01 0.43139388E+03</pdfrwt>
<totfact> 0.30566942E+02</totfact>
</mgrwt>
</event>
<event>
 4    1  0.2474915E-002  0.7132516E+03  0.7818608E-02  0.9694835E-01
          2   -1    0    0  502    0  0.00000000000E+00  0.00000000000E+00  0.36310188360E+04  0.36310188360E+04  0.00000000000E+00 0. -1.
         -2   -1    0    0    0  501 -0.00000000000E+00 -0.00000000000E+00 -0.14397422489E+03  0.14397422489E+03  0.00000000000E+00 0.  1.
    9000007    1    1    2  502    0 -0.14530873881E+03  0.57237508481E+03  0.14341407965E+04  0.16017139855E+04  0.40000000000E+03 0. -1.
   -9000007    1    1    2    0  501  0.14530873881E+03 -0.57237508481E+03  0.20529038147E+04  0.21732790754E+04  0.40000000000E+03 0. -1.
<mgrwt>
<rscale>  2 0.71325162E+03</rscale>
<asrwt>0</asrwt>
<pdfrwt beam="1">  1        2 0.55861821E+00 0.71325162E+03</pdfrwt>
<pdfrwt beam="2">  1       -2 0.22149884E-01 0.71325162E+03</pdfrwt>
<totfact> 0.12750454E+01</totfact>
</mgrwt>
</event>
<event>
 4    1  0.2474915E-002  0.4413632E+03  0.7818608E-02  0.1030329E+00
          1   -1    0    0  502    0  0.00000000000E+00  0.00000000000E+00  0.32794011028E+03  0.32794011028E+03  0.00000000000E+00 0.  1.
         -1   -1    0    0    0  501 -0.00000000000E+00 -0.00000000000E+00 -0.59764231036E+03  0.59764231036E+03  0.00000000000E+00 0. -1.
    9000007    1    1    2  502    0 -0.38277551420E+02 -0.18258237482E+03 -0.17090310489E+03  0.47329627697E+03  0.40000000000E+03 0.  1.
   -9000007    1    1    2    0  501  0.38277551420E+02  0.18258237482E+03 -0.98799095192E+02  0.45228614366E+03  0.40000000000E+03 0. -1.
<mgrwt>
<rscale>  2 0.44136322E+03</rscale>
<asrwt>0</asrwt>
<pdfrwt beam="1">  1        1 0.50452325E-01 0.44136322E+03</pdfrwt>
<pdfrwt beam="2">  1       -1 0.91944970E-01 0.44136322E+03</pdfrwt>
<totfact> 0.93761506E+01</totfact>
</mgrwt>
</event>
<event>
 4    1  0.2474915E-002  0.4576299E+03  0.7818608E-02  0.1025471E+00
         -1   -1    0    0    0  501 -0.00000000000E+00  0.00000000000E+00  0.13664618054E+03  0.13664618054E+03  0.00000000000E+00 0.  1.
          1   -1    0    0  502    0  0.00000000000E+00 -0.00000000000E+00 -0.17584589711E+04  0.17584589711E+04  0.00000000000E+00 0. -1.
    9000007    1    1    2  502    0  0.20959055639E+03 -0.74141076360E+02 -0.47132203701E+03  0.65693954296E+03  0.40000000000E+03 0.  1.
   -9000007    1    1    2    0  501 -0.20959055639E+03  0.74141076360E+02 -0.11504907535E+04  0.12381656087E+04  0.40000000000E+03 0. -1.
<mgrwt>
<rscale>  2 0.45762987E+03</rscale>
<asrwt>0</asrwt>
<pdfrwt beam="1">  1        1 0.27053217E+00 0.45762987E+03</pdfrwt>
<pdfrwt beam="2">  1       -1 0.21022488E-01 0.45762987E+03</pdfrwt>
<totfact> 0.87154860E+01</totfact>
</mgrwt>
</event>
<event>
 4    1  0.2474915E-002  0.4833349E+03  0.7818608E-02  0.1018223E+00
         -1   -1    0    0    0  501 -0.00000000000E+00  0.00000000000E+00  0.17724903398E+03  0.17724903398E+03  0.00000000000E+00 0.  1.
          1   -1    0    0  502    0  0.00000000000E+00 -0.00000000000E+00 -0.13227456556E+04  0.13227456556E+04  0.00000000000E+00 0. -1.
    9000007    1    1    2  502    0  0.55372667774E+02  0.26560585893E+03 -0.61771470009E+03  0.78433669769E+03  0.40000000000E+03 0. -1.
   -9000007    1    1    2    0  501 -0.55372667774E+02 -0.26560585893E+03 -0.52778192148E+03  0.71565799184E+03  0.40000000000E+03 0.  1.
<mgrwt>
<rscale>  2 0.48333488E+03</rscale>
<asrwt>0</asrwt>
<pdfrwt beam="1">  1        1 0.20349933E+00 0.48333488E+03</pdfrwt>
<pdfrwt beam="2">  1       -1 0.27269083E-01 0.48333488E+03</pdfrwt>
<totfact> 0.11026513E+02</totfact>
</mgrwt>
</event>
<event>
 4    1  0.2474915E-002  0.4165049E+03  0.7818608E-02  0.1038210E+00
         -2   -1    0    0    0  501 -0.00000000000E+00  0.00000000000E+00  0.41823685317E+03  0.41823685317E+03  0.00000000000E+00 0.  1.
          2   -1    0    0  502    0  0.00000000000E+00 -0.00000000000E+00 -0.48109940343E+03  0.48109940343E+03  0.00000000000E+00 0. -1.
    9000007    1    1    2  502    0  0.19417567480E+02  0.11445228031E+03 -0.19838431914E+03  0.46133795039E+03  0.40000000000E+03 0. -1.
   -9000007    1    1    2    0  501 -0.19417567480E+02 -0.11445228031E+03  0.13552176888E+03  0.43799830620E+03  0.40000000000E+03 0.  1.
<mgrwt>
<rscale>  2 0.41650494E+03</rscale>
<asrwt>0</asrwt>
<pdfrwt beam="1">  1        2 0.74015293E-01 0.41650494E+03</pdfrwt>
<pdfrwt beam="2">  1       -2 0.64344131E-01 0.41650494E+03</pdfrwt>
<totfact> 0.14799967E+02</totfact>
</mgrwt>
</event>
<event>
 4    1  0.2474915E-002  0.5744345E+03  0.7818608E-02  0.9959914E-01
          2   -1    0    0  502    0  0.00000000000E+00  0.00000000000E+00  0.24864482436E+04  0.24864482436E+04  0.00000000000E+00 0.  1.
         -2   -1    0    0    0  501 -0.00000000000E+00 -0.00000000000E+00 -0.13282399784E+03  0.13282399784E+03  0.00000000000E+00 0. -1.
    9000007    1    1    2  502    0 -0.95806442670E+02  0.40099384933E+03  0.11383364175E+04  0.12750626420E+04  0.40000000000E+03 0. -1.
   -9000007    1    1    2    0  501  0.95806442670E+02 -0.40099384933E+03  0.12152878282E+04  0.13442095994E+04  0.40000000000E+03 0.  1.
<mgrwt>
<rscale>  2 0.57443445E+03</rscale>
<asrwt>0</asrwt>
<pdfrwt beam="1">  1        2 0.38253046E+00 0.57443445E+03</pdfrwt>
<pdfrwt beam="2">  1       -2 0.20434463E-01 0.57443445E+03</pdfrwt>
<totfact> 0.77556321E+01</totfact>
</mgrwt>
</event>
<event>
 4    1  0.2474915E-002  0.4933984E+03  0.7818608E-02  0.1015517E+00
          2   -1    0    0  502    0  0.00000000000E+00  0.00000000000E+00  0.66049697667E+03  0.66049697667E+03  0.00000000000E+00 0.  1.
         -2   -1    0    0    0  501 -0.00000000000E+00 -0.00000000000E+00 -0.37189135775E+03  0.37189135775E+03  0.00000000000E+00 0. -1.
    9000007    1    1    2  502    0  0.28757181324E+03 -0.27284815569E+02  0.19305583539E+03  0.52982314456E+03  0.40000000000E+03 0.  1.
   -9000007    1    1    2    0  501 -0.28757181324E+03  0.27284815569E+02  0.95549783523E+02  0.50256518986E+03  0.40000000000E+03 0. -1.
<mgrwt>
<rscale>  2 0.49339843E+03</rscale>
<asrwt>0</asrwt>
<pdfrwt beam="1">  1        2 0.10161492E+00 0.49339843E+03</pdfrwt>
<pdfrwt beam="2">  1       -2 0.57214055E-01 0.49339843E+03</pdfrwt>
<totfact> 0.12978964E+02</totfact>
</mgrwt>
</event>
<event>
 4    1  0.2474915E-002  0.4381509E+03  0.7818608E-02  0.1031316E+00
          2   -1    0    0  502    0  0.00000000000E+00  0.00000000000E+00  0.29945309306E+03  0.29945309306E+03  0.00000000000E+00 0. -1.
         -2   -1    0    0    0  501 -0.00000000000E+00 -0.00000000000E+00 -0.64371607634E+03  0.64371607634E+03  0.00000000000E+00 0.  1.
    9000007    1    1    2  502    0 -0.12629392114E+03 -0.12659416525E+03 -0.14200791932E+03  0.46058928162E+03  0.40000000000E+03 0. -1.
   -9000007    1    1    2    0  501  0.12629392114E+03  0.12659416525E+03 -0.20225506397E+03  0.48257988778E+03  0.40000000000E+03 0. -1.
<mgrwt>
<rscale>  2 0.43815093E+03</rscale>
<asrwt>0</asrwt>
<pdfrwt beam="1">  1        2 0.46069707E-01 0.43815093E+03</pdfrwt>
<pdfrwt beam="2">  1       -2 0.99033242E-01 0.43815093E+03</pdfrwt>
<totfact> 0.95568297E+01</totfact>
</mgrwt>
</event>
<event>
 4    1  0.2474915E-002  0.5353566E+03  0.7818608E-02  0.1004941E+00
          1   -1    0    0  502    0  0.00000000000E+00  0.00000000000E+00  0.21188311674E+04  0.21188311674E+04  0.00000000000E+00 0. -1.
         -1   -1    0    0    0  501 -0.00000000000E+00 -0.00000000000E+00 -0.15295727039E+03  0.15295727039E+03  0.00000000000E+00 0.  1.
    9000007    1    1    2  502    0 -0.35227489335E+03 -0.50090551579E+02  0.59663452796E+03  0.80161051876E+03  0.40000000000E+03 0.  1.
   -9000007    1    1    2    0  501  0.35227489335E+03  0.50090551579E+02  0.13692393690E+04  0.14701779190E+04  0.40000000000E+03 0.  1.
<mgrwt>
<rscale>  2 0.53535658E+03</rscale>
<asrwt>0</asrwt>
<pdfrwt beam="1">  1        1 0.32597400E+00 0.53535658E+03</pdfrwt>
<pdfrwt beam="2">  1       -1 0.23531889E-01 0.53535658E+03</pdfrwt>
<totfact> 0.41136477E+01</totfact>
</mgrwt>
</event>
<event>
 4    1  0.2474915E-002  0.6852051E+03  0.7818608E-02  0.9742873E-01
          1   -1    0    0  502    0  0.00000000000E+00  0.00000000000E+00  0.23114442156E+04  0.23114442156E+04  0.00000000000E+00 0.  1.
         -1   -1    0    0    0  501 -0.00000000000E+00 -0.00000000000E+00 -0.20504785887E+03  0.20504785887E+03  0.00000000000E+00 0. -1.
    9000007    1    1    2  502    0  0.47603216410E+03 -0.28792256474E+03  0.11751276208E+04  0.13603054619E+04  0.40000000000E+03 0. -1.
   -9000007    1    1    2    0  501 -0.47603216410E+03  0.28792256474E+03  0.93126873599E+03  0.11561866126E+04  0.40000000000E+03 0.  1.
<mgrwt>
<rscale>  2 0.68520510E+03</rscale>
<asrwt>0</asrwt>
<pdfrwt beam="1">  1        1 0.35560678E+00 0.68520510E+03</pdfrwt>
<pdfrwt beam="2">  1       -1 0.31545826E-01 0.68520510E+03</pdfrwt>
<totfact> 0.18031756E+01</totfact>
</mgrwt>
</event>
<event>
 4    1  0.2474915E-002  0.5298479E+03  0.7818608E-02  0.1006269E+00
         -1   -1    0    0    0  501 -0.00000000000E+00  0.00000000000E+00  0.12158132758E+03  0.12158132758E+03  0.00000000000E+00 0.  1.
          1   -1    0    0  502    0  0.00000000000E+00 -0.00000000000E+00 -0.27657537592E+04  0.27657537592E+04  0.00000000000E+00 0. -1.
    9000007    1    1    2  502    0 -0.39366523490E+01  0.34745262711E+03 -0.73544574950E+03  0.90643216833E+03  0.40000000000E+03 0.  1.
   -9000007    1    1    2    0  501  0.39366523490E+01 -0.34745262711E+03 -0.19087266821E+04  0.19809029184E+04  0.40000000000E+03 0. -1.
<mgrwt>
<rscale>  2 0.52984793E+03</rscale>
<asrwt>0</asrwt>
<pdfrwt beam="1">  1        1 0.42550055E+00 0.52984793E+03</pdfrwt>
<pdfrwt beam="2">  1       -1 0.18704821E-01 0.52984793E+03</pdfrwt>
<totfact> 0.22052225E+01</totfact>
</mgrwt>
</event>
<event>
 4    1  0.2474915E-002  0.4528294E+03  0.7818608E-02  0.1026882E+00
         -2   -1    0    0    0  501 -0.00000000000E+00  0.00000000000E+00  0.26064952154E+03  0.26064952154E+03  0.00000000000E+00 0.  1.
          2   -1    0    0  502    0  0.00000000000E+00 -0.00000000000E+00 -0.78697051519E+03  0.78697051519E+03  0.00000000000E+00 0. -1.
    9000007    1    1    2  502    0 -0.21225533896E+03  0.14576226603E+01 -0.25355102010E+03  0.51898224765E+03  0.40000000000E+03 0.  1.
   -9000007    1    1    2    0  501  0.21225533896E+03 -0.14576226603E+01 -0.27276997354E+03  0.52863778908E+03  0.40000000000E+03 0. -1.
<mgrwt>
<rscale>  2 0.45282939E+03</rscale>
<asrwt>0</asrwt>
<pdfrwt beam="1">  1        2 0.12107239E+00 0.45282939E+03</pdfrwt>
<pdfrwt beam="2">  1       -2 0.40099927E-01 0.45282939E+03</pdfrwt>
<totfact> 0.21306117E+02</totfact>
</mgrwt>
</event>
<event>
 4    1  0.2474915E-002  0.4011932E+03  0.7818608E-02  0.1043367E+00
         -4   -1    0    0    0  501 -0.00000000000E+00  0.00000000000E+00  0.25347177736E+03  0.25347177736E+03  0.00000000000E+00 0. -1.
          4   -1    0    0  502    0  0.00000000000E+00 -0.00000000000E+00 -0.71777770720E+03  0.71777770720E+03  0.00000000000E+00 0.  1.
    9000007    1    1    2  502    0 -0.11763883299E+02 -0.28592946870E+02 -0.39706348903E+03  0.56446023764E+03  0.40000000000E+03 0.  1.
   -9000007    1    1    2    0  501  0.11763883299E+02  0.28592946870E+02 -0.67242440812E+02  0.40678924692E+03  0.40000000000E+03 0. -1.
<mgrwt>
<rscale>  2 0.40119315E+03</rscale>
<asrwt>0</asrwt>
<pdfrwt beam="1">  1        4 0.11042734E+00 0.40119315E+03</pdfrwt>
<pdfrwt beam="2">  1       -4 0.38995658E-01 0.40119315E+03</pdfrwt>
<totfact> 0.80409741E+00</totfact>
</mgrwt>
</event>
<event>
 4    1  0.2474915E-002  0.4908663E+03  0.7818608E-02  0.1016191E+00
          1   -1    0    0  502    0  0.00000000000E+00  0.00000000000E+00  0.40275768029E+03  0.40275768029E+03  0.00000000000E+00 0.  1.
         -1   -1    0    0    0  501 -0.00000000000E+00 -0.00000000000E+00 -0.76134011497E+03  0.76134011497E+03  0.00000000000E+00 0. -1.
    9000007    1    1    2  502    0  0.28421885902E+03  0.13012215065E+02  0.90100525400E+02  0.49906691159E+03  0.40000000000E+03 0.  1.
   -9000007    1    1    2    0  501 -0.28421885902E+03 -0.13012215065E+02 -0.44868296009E+03  0.66503088367E+03  0.40000000000E+03 0. -1.
<mgrwt>
<rscale>  2 0.49086625E+03</rscale>
<asrwt>0</asrwt>
<pdfrwt beam="1">  1        1 0.61962720E-01 0.49086625E+03</pdfrwt>
<pdfrwt beam="2">  1       -1 0.11712925E+00 0.49086625E+03</pdfrwt>
<totfact> 0.41011973E+01</totfact>
</mgrwt>
</event>
<event>
 4    1  0.2474915E-002  0.4470248E+03  0.7818608E-02  0.1028613E+00
         -1   -1    0    0    0  501 -0.00000000000E+00  0.00000000000E+00  0.32352324231E+03  0.32352324231E+03  0.00000000000E+00 0. -1.
          1   -1    0    0  502    0  0.00000000000E+00 -0.00000000000E+00 -0.62796230672E+03  0.62796230672E+03  0.00000000000E+00 0.  1.
    9000007    1    1    2  502    0  0.16499683448E+03  0.11228177345E+03 -0.21312073079E+03  0.49522883391E+03  0.40000000000E+03 0.  1.
   -9000007    1    1    2    0  501 -0.16499683448E+03 -0.11228177345E+03 -0.91318333619E+02  0.45625671512E+03  0.40000000000E+03 0.  1.
<mgrwt>
<rscale>  2 0.44702478E+03</rscale>
<asrwt>0</asrwt>
<pdfrwt beam="1">  1        1 0.96609584E-01 0.44702478E+03</pdfrwt>
<pdfrwt beam="2">  1       -1 0.49772807E-01 0.44702478E+03</pdfrwt>
<totfact> 0.13513354E+02</totfact>
</mgrwt>
</event>
<event>
 4    1  0.2474915E-002  0.4932600E+03  0.7818608E-02  0.1015553E+00
         -2   -1    0    0    0  501 -0.00000000000E+00  0.00000000000E+00  0.36577453785E+03  0.36577453785E+03  0.00000000000E+00 0.  1.
          2   -1    0    0  502    0  0.00000000000E+00 -0.00000000000E+00 -0.75299686103E+03  0.75299686103E+03  0.00000000000E+00 0. -1.
    9000007    1    1    2  502    0 -0.23990186413E+03 -0.16047579504E+03 -0.25786615448E+01  0.49326669734E+03  0.40000000000E+03 0.  1.
   -9000007    1    1    2    0  501  0.23990186413E+03  0.16047579504E+03 -0.38464366164E+03  0.62550470154E+03  0.40000000000E+03 0. -1.
<mgrwt>
<rscale>  2 0.49325996E+03</rscale>
<asrwt>0</asrwt>
<pdfrwt beam="1">  1        2 0.11584567E+00 0.49325996E+03</pdfrwt>
<pdfrwt beam="2">  1       -2 0.56273006E-01 0.49325996E+03</pdfrwt>
<totfact> 0.11404750E+02</totfact>
</mgrwt>
</event>
<event>
 4    1  0.2474915E-002  0.4815807E+03  0.7818608E-02  0.1018702E+00
          2   -1    0    0  502    0  0.00000000000E+00  0.00000000000E+00  0.10759789737E+04  0.10759789737E+04  0.00000000000E+00 0. -1.
         -2   -1    0    0    0  501 -0.00000000000E+00 -0.00000000000E+00 -0.21557251636E+03  0.21557251636E+03  0.00000000000E+00 0.  1.
    9000007    1    1    2  502    0 -0.88441594835E+02  0.25317587750E+03  0.42267119611E+03  0.64075805158E+03  0.40000000000E+03 0.  1.
   -9000007    1    1    2    0  501  0.88441594835E+02 -0.25317587750E+03  0.43773526121E+03  0.65079343847E+03  0.40000000000E+03 0. -1.
<mgrwt>
<rscale>  2 0.48158067E+03</rscale>
<asrwt>0</asrwt>
<pdfrwt beam="1">  1        2 0.16553522E+00 0.48158067E+03</pdfrwt>
<pdfrwt beam="2">  1       -2 0.33165003E-01 0.48158067E+03</pdfrwt>
<totfact> 0.19744151E+02</totfact>
</mgrwt>
</event>
<event>
 4    1  0.2474915E-002  0.4361097E+03  0.7818608E-02  0.1031947E+00
         -2   -1    0    0    0  501 -0.00000000000E+00  0.00000000000E+00  0.16239050051E+03  0.16239050051E+03  0.00000000000E+00 0.  1.
          2   -1    0    0  502    0  0.00000000000E+00 -0.00000000000E+00 -0.13393511741E+04  0.13393511741E+04  0.00000000000E+00 0. -1.
    9000007    1    1    2  502    0  0.33569449458E+02  0.17048402246E+03 -0.32242724472E+03  0.54235692859E+03  0.40000000000E+03 0.  1.
   -9000007    1    1    2    0  501 -0.33569449458E+02 -0.17048402246E+03 -0.85453342886E+03  0.95938474601E+03  0.40000000000E+03 0. -1.
<mgrwt>
<rscale>  2 0.43610975E+03</rscale>
<asrwt>0</asrwt>
<pdfrwt beam="1">  1        2 0.20605403E+00 0.43610975E+03</pdfrwt>
<pdfrwt beam="2">  1       -2 0.24983153E-01 0.43610975E+03</pdfrwt>
<totfact> 0.23406109E+02</totfact>
</mgrwt>
</event>
<event>
 4    1  0.2474915E-002  0.4222379E+03  0.7818608E-02  0.1036340E+00
          1   -1    0    0  502    0  0.00000000000E+00  0.00000000000E+00  0.24772835032E+03  0.24772835032E+03  0.00000000000E+00 0.  1.
         -1   -1    0    0    0  501 -0.00000000000E+00 -0.00000000000E+00 -0.80041833607E+03  0.80041833607E+03  0.00000000000E+00 0. -1.
    9000007    1    1    2  502    0  0.10032048874E+03  0.90667554620E+02 -0.10989757173E+03  0.43630526263E+03  0.40000000000E+03 0.  1.
   -9000007    1    1    2    0  501 -0.10032048874E+03 -0.90667554620E+02 -0.44279241402E+03  0.61184142377E+03  0.40000000000E+03 0. -1.
<mgrwt>
<rscale>  2 0.42223785E+03</rscale>
<asrwt>0</asrwt>
<pdfrwt beam="1">  1        1 0.38112054E-01 0.42223785E+03</pdfrwt>
<pdfrwt beam="2">  1       -1 0.12314128E+00 0.42223785E+03</pdfrwt>
<totfact> 0.68549823E+01</totfact>
</mgrwt>
</event>
<event>
 4    1  0.2474915E-002  0.4003240E+03  0.7818608E-02  0.1043668E+00
          2   -1    0    0  502    0  0.00000000000E+00  0.00000000000E+00  0.95498422950E+03  0.95498422950E+03  0.00000000000E+00 0. -1.
         -2   -1    0    0    0  501 -0.00000000000E+00 -0.00000000000E+00 -0.19574508137E+03  0.19574508137E+03  0.00000000000E+00 0.  1.
    9000007    1    1    2  502    0  0.86007951648E+01  0.13613459598E+02  0.59696228192E+03  0.71876509793E+03  0.40000000000E+03 0. -1.
   -9000007    1    1    2    0  501 -0.86007951648E+01 -0.13613459598E+02  0.16227686620E+03  0.43196421294E+03  0.40000000000E+03 0.  1.
<mgrwt>
<rscale>  2 0.40032399E+03</rscale>
<asrwt>0</asrwt>
<pdfrwt beam="1">  1        2 0.14692065E+00 0.40032399E+03</pdfrwt>
<pdfrwt beam="2">  1       -2 0.30114628E-01 0.40032399E+03</pdfrwt>
<totfact> 0.28296635E+02</totfact>
</mgrwt>
</event>
<event>
 4    1  0.2474915E-002  0.4512301E+03  0.7818608E-02  0.1027356E+00
          4   -1    0    0  502    0  0.00000000000E+00  0.00000000000E+00  0.74610556994E+03  0.74610556994E+03  0.00000000000E+00 0. -1.
         -4   -1    0    0    0  501 -0.00000000000E+00 -0.00000000000E+00 -0.28368090163E+03  0.28368090163E+03  0.00000000000E+00 0.  1.
    9000007    1    1    2  502    0 -0.19314401286E+03 -0.79397572739E+02  0.33161090672E+03  0.55997712249E+03  0.40000000000E+03 0.  1.
   -9000007    1    1    2    0  501  0.19314401286E+03  0.79397572739E+02  0.13081376159E+03  0.46980934908E+03  0.40000000000E+03 0. -1.
<mgrwt>
<rscale>  2 0.45123008E+03</rscale>
<asrwt>0</asrwt>
<pdfrwt beam="1">  1        4 0.11478547E+00 0.45123008E+03</pdfrwt>
<pdfrwt beam="2">  1       -4 0.43643216E-01 0.45123008E+03</pdfrwt>
<totfact> 0.58628448E+00</totfact>
</mgrwt>
</event>
<event>
 4    1  0.2474915E-002  0.6958723E+03  0.7818608E-02  0.9724317E-01
          2   -1    0    0  502    0  0.00000000000E+00  0.00000000000E+00  0.12223691981E+04  0.12223691981E+04  0.00000000000E+00 0. -1.
         -2   -1    0    0    0  501 -0.00000000000E+00 -0.00000000000E+00 -0.42387872327E+03  0.42387872327E+03  0.00000000000E+00 0.  1.
    9000007    1    1    2  502    0  0.19085699729E+02 -0.56909928032E+03  0.18870721855E+03  0.72100531837E+03  0.40000000000E+03 0.  1.
   -9000007    1    1    2    0  501 -0.19085699729E+02  0.56909928032E+03  0.60978325633E+03  0.92524260305E+03  0.40000000000E+03 0. -1.
<mgrwt>
<rscale>  2 0.69587230E+03</rscale>
<asrwt>0</asrwt>
<pdfrwt beam="1">  1        2 0.18805680E+00 0.69587230E+03</pdfrwt>
<pdfrwt beam="2">  1       -2 0.65212112E-01 0.69587230E+03</pdfrwt>
<totfact> 0.40780819E+01</totfact>
</mgrwt>
</event>
<event>
 4    1  0.2474915E-002  0.4383363E+03  0.7818608E-02  0.1031258E+00
          2   -1    0    0  502    0  0.00000000000E+00  0.00000000000E+00  0.95984973025E+03  0.95984973025E+03  0.00000000000E+00 0. -1.
         -2   -1    0    0    0  501 -0.00000000000E+00 -0.00000000000E+00 -0.22922886219E+03  0.22922886219E+03  0.00000000000E+00 0.  1.
    9000007    1    1    2  502    0 -0.14573403985E+03  0.10440468935E+03  0.15364916765E+03  0.46448553933E+03  0.40000000000E+03 0. -1.
   -9000007    1    1    2    0  501  0.14573403985E+03 -0.10440468935E+03  0.57697170041E+03  0.72459305310E+03  0.40000000000E+03 0. -1.
<mgrwt>
<rscale>  2 0.43833634E+03</rscale>
<asrwt>0</asrwt>
<pdfrwt beam="1">  1        2 0.14766919E+00 0.43833634E+03</pdfrwt>
<pdfrwt beam="2">  1       -2 0.35265979E-01 0.43833634E+03</pdfrwt>
<totfact> 0.20860179E+02</totfact>
</mgrwt>
</event>
<event>
 4    1  0.2474915E-002  0.4486752E+03  0.7818608E-02  0.1028118E+00
         -1   -1    0    0    0  501 -0.00000000000E+00  0.00000000000E+00  0.15962177335E+03  0.15962177335E+03  0.00000000000E+00 0. -1.
          1   -1    0    0  502    0  0.00000000000E+00 -0.00000000000E+00 -0.12751520741E+04  0.12751520741E+04  0.00000000000E+00 0.  1.
    9000007    1    1    2  502    0 -0.16144715069E+03  0.12346767253E+03 -0.48263217821E+03  0.65897137120E+03  0.40000000000E+03 0.  1.
   -9000007    1    1    2    0  501  0.16144715069E+03 -0.12346767253E+03 -0.63289812258E+03  0.77580247627E+03  0.40000000000E+03 0.  1.
<mgrwt>
<rscale>  2 0.44867522E+03</rscale>
<asrwt>0</asrwt>
<pdfrwt beam="1">  1        1 0.19617725E+00 0.44867522E+03</pdfrwt>
<pdfrwt beam="2">  1       -1 0.24557195E-01 0.44867522E+03</pdfrwt>
<totfact> 0.14281725E+02</totfact>
</mgrwt>
</event>
<event>
 4    1  0.2474915E-002  0.5154194E+03  0.7818608E-02  0.1009831E+00
         -1   -1    0    0    0  501 -0.00000000000E+00  0.00000000000E+00  0.26781911958E+03  0.26781911958E+03  0.00000000000E+00 0. -1.
          1   -1    0    0  502    0  0.00000000000E+00 -0.00000000000E+00 -0.14024298887E+04  0.14024298887E+04  0.00000000000E+00 0.  1.
    9000007    1    1    2  502    0 -0.26542172469E+02 -0.32396399609E+03 -0.11548223767E+03  0.52819816821E+03  0.40000000000E+03 0. -1.
   -9000007    1    1    2    0  501  0.26542172469E+02  0.32396399609E+03 -0.10191285315E+04  0.11420508401E+04  0.40000000000E+03 0.  1.
<mgrwt>
<rscale>  2 0.51541940E+03</rscale>
<asrwt>0</asrwt>
<pdfrwt beam="1">  1        1 0.21575844E+00 0.51541940E+03</pdfrwt>
<pdfrwt beam="2">  1       -1 0.41202943E-01 0.51541940E+03</pdfrwt>
<totfact> 0.46798294E+01</totfact>
</mgrwt>
</event>
<event>
 4    1  0.2474915E-002  0.5096563E+03  0.7818608E-02  0.1011289E+00
          1   -1    0    0  502    0  0.00000000000E+00  0.00000000000E+00  0.25364780100E+04  0.25364780100E+04  0.00000000000E+00 0.  1.
         -1   -1    0    0    0  501 -0.00000000000E+00 -0.00000000000E+00 -0.11763924559E+03  0.11763924559E+03  0.00000000000E+00 0. -1.
    9000007    1    1    2  502    0  0.91436349965E+02  0.30230611157E+03  0.16869659200E+04  0.17622722850E+04  0.40000000000E+03 0. -1.
   -9000007    1    1    2    0  501 -0.91436349965E+02 -0.30230611157E+03  0.73187284438E+03  0.89184497057E+03  0.40000000000E+03 0. -1.
<mgrwt>
<rscale>  2 0.50965635E+03</rscale>
<asrwt>0</asrwt>
<pdfrwt beam="1">  1        1 0.39022735E+00 0.50965635E+03</pdfrwt>
<pdfrwt beam="2">  1       -1 0.18098347E-01 0.50965635E+03</pdfrwt>
<totfact> 0.33563912E+01</totfact>
</mgrwt>
</event>
<event>
 4    1  0.2474915E-002  0.4983403E+03  0.7818608E-02  0.1014213E+00
         -1   -1    0    0    0  501 -0.00000000000E+00  0.00000000000E+00  0.94344513467E+03  0.94344513467E+03  0.00000000000E+00 0. -1.
          1   -1    0    0  502    0  0.00000000000E+00 -0.00000000000E+00 -0.26585391500E+03  0.26585391500E+03  0.00000000000E+00 0.  1.
    9000007    1    1    2  502    0  0.26784077049E+03  0.12885812043E+03  0.39886515874E+03  0.63830753434E+03  0.40000000000E+03 0.  1.
   -9000007    1    1    2    0  501 -0.26784077049E+03 -0.12885812043E+03  0.27872606093E+03  0.57099151533E+03  0.40000000000E+03 0.  1.
<mgrwt>
<rscale>  2 0.49834034E+03</rscale>
<asrwt>0</asrwt>
<pdfrwt beam="1">  1        1 0.40900603E-01 0.49834034E+03</pdfrwt>
<pdfrwt beam="2">  1       -1 0.14514540E+00 0.49834034E+03</pdfrwt>
<totfact> 0.40962291E+01</totfact>
</mgrwt>
</event>
<event>
 4    1  0.2474915E-002  0.5241349E+03  0.7818608E-02  0.1007665E+00
         -2   -1    0    0    0  501 -0.00000000000E+00  0.00000000000E+00  0.24412366637E+03  0.24412366637E+03  0.00000000000E+00 0. -1.
          2   -1    0    0  502    0  0.00000000000E+00 -0.00000000000E+00 -0.19059872266E+04  0.19059872266E+04  0.00000000000E+00 0.  1.
    9000007    1    1    2  502    0 -0.23154721810E+03 -0.24719073346E+03 -0.15189559548E+04  0.16068430432E+04  0.40000000000E+03 0.  1.
   -9000007    1    1    2    0  501  0.23154721810E+03  0.24719073346E+03 -0.14290760548E+03  0.54326784980E+03  0.40000000000E+03 0. -1.
<mgrwt>
<rscale>  2 0.52413488E+03</rscale>
<asrwt>0</asrwt>
<pdfrwt beam="1">  1        2 0.29322881E+00 0.52413488E+03</pdfrwt>
<pdfrwt beam="2">  1       -2 0.37557486E-01 0.52413488E+03</pdfrwt>
<totfact> 0.53457013E+01</totfact>
</mgrwt>
</event>
<event>
 4    1  0.2474915E-002  0.4243866E+03  0.7818608E-02  0.1035648E+00
         -2   -1    0    0    0  501 -0.00000000000E+00  0.00000000000E+00  0.94302737665E+02  0.94302737665E+02  0.00000000000E+00 0. -1.
          2   -1    0    0  502    0  0.00000000000E+00 -0.00000000000E+00 -0.21464082183E+04  0.21464082183E+04  0.00000000000E+00 0.  1.
    9000007    1    1    2  502    0  0.11267953927E+03 -0.86065923941E+02 -0.65411581077E+03  0.77972528222E+03  0.40000000000E+03 0. -1.
   -9000007    1    1    2    0  501 -0.11267953927E+03  0.86065923941E+02 -0.13979896698E+04  0.14609856737E+04  0.40000000000E+03 0.  1.
<mgrwt>
<rscale>  2 0.42438664E+03</rscale>
<asrwt>0</asrwt>
<pdfrwt beam="1">  1        2 0.33021663E+00 0.42438664E+03</pdfrwt>
<pdfrwt beam="2">  1       -2 0.14508114E-01 0.42438664E+03</pdfrwt>
<totfact> 0.21917381E+02</totfact>
</mgrwt>
</event>
<event>
 4    1  0.2474915E-002  0.4715053E+03  0.7818608E-02  0.1021496E+00
         -2   -1    0    0    0  501 -0.00000000000E+00  0.00000000000E+00  0.34470966880E+03  0.34470966880E+03  0.00000000000E+00 0. -1.
          2   -1    0    0  502    0  0.00000000000E+00 -0.00000000000E+00 -0.79745613096E+03  0.79745613096E+03  0.00000000000E+00 0.  1.
    9000007    1    1    2  502    0 -0.20117698804E+03 -0.14780073706E+03 -0.47612172780E+03  0.67008144137E+03  0.40000000000E+03 0.  1.
   -9000007    1    1    2    0  501  0.20117698804E+03  0.14780073706E+03  0.23375265637E+02  0.47208435839E+03  0.40000000000E+03 0. -1.
<mgrwt>
<rscale>  2 0.47150529E+03</rscale>
<asrwt>0</asrwt>
<pdfrwt beam="1">  1        2 0.12268556E+00 0.47150529E+03</pdfrwt>
<pdfrwt beam="2">  1       -2 0.53032257E-01 0.47150529E+03</pdfrwt>
<totfact> 0.11991262E+02</totfact>
</mgrwt>
</event>
<event>
 4    1  0.2474915E-002  0.5711726E+03  0.7818608E-02  0.9967087E-01
         -1   -1    0    0    0  501 -0.00000000000E+00  0.00000000000E+00  0.56035551458E+03  0.56035551458E+03  0.00000000000E+00 0.  1.
          1   -1    0    0  502    0  0.00000000000E+00 -0.00000000000E+00 -0.76617973368E+03  0.76617973368E+03  0.00000000000E+00 0. -1.
    9000007    1    1    2  502    0  0.13549149871E+03  0.38455199896E+03 -0.42793214619E+03  0.71369749044E+03  0.40000000000E+03 0. -1.
   -9000007    1    1    2    0  501 -0.13549149871E+03 -0.38455199896E+03  0.22210792708E+03  0.61283775781E+03  0.40000000000E+03 0.  1.
<mgrwt>
<rscale>  2 0.57117264E+03</rscale>
<asrwt>0</asrwt>
<pdfrwt beam="1">  1        1 0.11787381E+00 0.57117264E+03</pdfrwt>
<pdfrwt beam="2">  1       -1 0.86208541E-01 0.57117264E+03</pdfrwt>
<totfact> 0.32915808E+01</totfact>
</mgrwt>
</event>
<event>
 4    1  0.2474915E-002  0.4265626E+03  0.7818608E-02  0.1034951E+00
          2   -1    0    0  502    0  0.00000000000E+00  0.00000000000E+00  0.11002980476E+04  0.11002980476E+04  0.00000000000E+00 0. -1.
         -2   -1    0    0    0  501 -0.00000000000E+00 -0.00000000000E+00 -0.17729901941E+03  0.17729901941E+03  0.00000000000E+00 0.  1.
    9000007    1    1    2  502    0 -0.14365080102E+03  0.36332878010E+02  0.29579894761E+03  0.51908828542E+03  0.40000000000E+03 0. -1.
   -9000007    1    1    2    0  501  0.14365080102E+03 -0.36332878010E+02  0.62720008059E+03  0.75850878159E+03  0.40000000000E+03 0.  1.
<mgrwt>
<rscale>  2 0.42656258E+03</rscale>
<asrwt>0</asrwt>
<pdfrwt beam="1">  1        2 0.16927662E+00 0.42656258E+03</pdfrwt>
<pdfrwt beam="2">  1       -2 0.27276773E-01 0.42656258E+03</pdfrwt>
<totfact> 0.27500853E+02</totfact>
</mgrwt>
</event>
<event>
 4    1  0.2474915E-002  0.4233064E+03  0.7818608E-02  0.1035996E+00
          3   -1    0    0  502    0  0.00000000000E+00  0.00000000000E+00  0.16285357247E+03  0.16285357247E+03  0.00000000000E+00 0. -1.
         -3   -1    0    0    0  501 -0.00000000000E+00 -0.00000000000E+00 -0.21250099968E+04  0.21250099968E+04  0.00000000000E+00 0.  1.
    9000007    1    1    2  502    0  0.12573469999E+02 -0.13794997334E+03 -0.18671436137E+03  0.46265596293E+03  0.40000000000E+03 0. -1.
   -9000007    1    1    2    0  501 -0.12573469999E+02  0.13794997334E+03 -0.17754420629E+04  0.18252076063E+04  0.40000000000E+03 0.  1.
<mgrwt>
<rscale>  2 0.42330638E+03</rscale>
<asrwt>0</asrwt>
<pdfrwt beam="1">  1        3 0.25054398E-01 0.42330638E+03</pdfrwt>
<pdfrwt beam="2">  1       -3 0.32692458E+00 0.42330638E+03</pdfrwt>
<totfact> 0.11336443E+00</totfact>
</mgrwt>
</event>
<event>
 4    1  0.2474915E-002  0.5242136E+03  0.7818608E-02  0.1007645E+00
         -1   -1    0    0    0  501 -0.00000000000E+00  0.00000000000E+00  0.21752921622E+03  0.21752921622E+03  0.00000000000E+00 0.  1.
          1   -1    0    0  502    0  0.00000000000E+00 -0.00000000000E+00 -0.12697674300E+04  0.12697674300E+04  0.00000000000E+00 0. -1.
    9000007    1    1    2  502    0 -0.31491302363E+03 -0.12501858097E+03 -0.57928230754E+03  0.78126042385E+03  0.40000000000E+03 0. -1.
   -9000007    1    1    2    0  501  0.31491302363E+03  0.12501858097E+03 -0.47295590619E+03  0.70603622233E+03  0.40000000000E+03 0.  1.
<mgrwt>
<rscale>  2 0.52421356E+03</rscale>
<asrwt>0</asrwt>
<pdfrwt beam="1">  1        1 0.19534884E+00 0.52421356E+03</pdfrwt>
<pdfrwt beam="2">  1       -1 0.33466033E-01 0.52421356E+03</pdfrwt>
<totfact> 0.83769835E+01</totfact>
</mgrwt>
</event>
<event>
 4    1  0.2474915E-002  0.4436615E+03  0.7818608E-02  0.1029629E+00
          3   -1    0    0  502    0  0.00000000000E+00  0.00000000000E+00  0.35764943925E+03  0.35764943925E+03  0.00000000000E+00 0.  1.
         -3   -1    0    0    0  501 -0.00000000000E+00 -0.00000000000E+00 -0.73903534591E+03  0.73903534591E+03  0.00000000000E+00 0. -1.
    9000007    1    1    2  502    0 -0.10325857932E+03 -0.16178137048E+03 -0.46775566486E+03  0.64469442998E+03  0.40000000000E+03 0. -1.
   -9000007    1    1    2    0  501  0.10325857932E+03  0.16178137048E+03  0.86369758212E+02  0.45199035518E+03  0.40000000000E+03 0.  1.
<mgrwt>
<rscale>  2 0.44366152E+03</rscale>
<asrwt>0</asrwt>
<pdfrwt beam="1">  1        3 0.55022991E-01 0.44366152E+03</pdfrwt>
<pdfrwt beam="2">  1       -3 0.11369774E+00 0.44366152E+03</pdfrwt>
<totfact> 0.54791585E+00</totfact>
</mgrwt>
</event>
<event>
 4    1  0.2474915E-002  0.4035973E+03  0.7818608E-02  0.1042541E+00
          2   -1    0    0  502    0  0.00000000000E+00  0.00000000000E+00  0.12274619426E+04  0.12274619426E+04  0.00000000000E+00 0.  1.
         -2   -1    0    0    0  501 -0.00000000000E+00 -0.00000000000E+00 -0.14939564112E+03  0.14939564112E+03  0.00000000000E+00 0. -1.
    9000007    1    1    2  502    0  0.52935146807E+02  0.94162352275E+01  0.76913585120E+03  0.86859700256E+03  0.40000000000E+03 0.  1.
   -9000007    1    1    2    0  501 -0.52935146807E+02 -0.94162352275E+01  0.30893045030E+03  0.50826058117E+03  0.40000000000E+03 0. -1.
<mgrwt>
<rscale>  2 0.40359732E+03</rscale>
<asrwt>0</asrwt>
<pdfrwt beam="1">  1        2 0.18884029E+00 0.40359732E+03</pdfrwt>
<pdfrwt beam="2">  1       -2 0.22983946E-01 0.40359732E+03</pdfrwt>
<totfact> 0.31522151E+02</totfact>
</mgrwt>
</event>
<event>
 4    1  0.2474915E-002  0.6624715E+03  0.7818608E-02  0.9783655E-01
          1   -1    0    0  502    0  0.00000000000E+00  0.00000000000E+00  0.10261275552E+04  0.10261275552E+04  0.00000000000E+00 0.  1.
         -1   -1    0    0    0  501 -0.00000000000E+00 -0.00000000000E+00 -0.43366649204E+03  0.43366649204E+03  0.00000000000E+00 0. -1.
    9000007    1    1    2  502    0  0.23606796895E+03 -0.47237742216E+03  0.21057322521E+03  0.69513279170E+03  0.40000000000E+03 0.  1.
   -9000007    1    1    2    0  501 -0.23606796895E+03  0.47237742216E+03  0.38188783794E+03  0.76466125552E+03  0.40000000000E+03 0.  1.
<mgrwt>
<rscale>  2 0.66247152E+03</rscale>
<asrwt>0</asrwt>
<pdfrwt beam="1">  1        1 0.15786578E+00 0.66247152E+03</pdfrwt>
<pdfrwt beam="2">  1       -1 0.66717922E-01 0.66247152E+03</pdfrwt>
<totfact> 0.34081637E+01</totfact>
</mgrwt>
</event>
<event>
 4    1  0.2474915E-002  0.4039573E+03  0.7818608E-02  0.1042418E+00
          1   -1    0    0  502    0  0.00000000000E+00  0.00000000000E+00  0.28909202105E+04  0.28909202105E+04  0.00000000000E+00 0.  1.
         -1   -1    0    0    0  501 -0.00000000000E+00 -0.00000000000E+00 -0.58271662629E+02  0.58271662629E+02  0.00000000000E+00 0. -1.
    9000007    1    1    2  502    0 -0.55477866627E+02 -0.10184254910E+02  0.16773171464E+04  0.17252751440E+04  0.40000000000E+03 0.  1.
   -9000007    1    1    2    0  501  0.55477866627E+02  0.10184254910E+02  0.11553314015E+04  0.12239167292E+04  0.40000000000E+03 0. -1.
<mgrwt>
<rscale>  2 0.40395732E+03</rscale>
<asrwt>0</asrwt>
<pdfrwt beam="1">  1        1 0.44475685E+00 0.40395732E+03</pdfrwt>
<pdfrwt beam="2">  1       -1 0.89648734E-02 0.40395732E+03</pdfrwt>
<totfact> 0.60049573E+01</totfact>
</mgrwt>
</event>
<event>
 4    1  0.2474915E-002  0.4025501E+03  0.7818608E-02  0.1042900E+00
         -1   -1    0    0    0  501 -0.00000000000E+00  0.00000000000E+00  0.21021009713E+03  0.21021009713E+03  0.00000000000E+00 0. -1.
          1   -1    0    0  502    0  0.00000000000E+00 -0.00000000000E+00 -0.85454102725E+03  0.85454102725E+03  0.00000000000E+00 0.  1.
    9000007    1    1    2  502    0  0.42365996783E+02 -0.15865873207E+02 -0.48874251857E+03  0.63317916349E+03  0.40000000000E+03 0.  1.
   -9000007    1    1    2    0  501 -0.42365996783E+02  0.15865873207E+02 -0.15558841155E+03  0.43157196089E+03  0.40000000000E+03 0. -1.
<mgrwt>
<rscale>  2 0.40255013E+03</rscale>
<asrwt>0</asrwt>
<pdfrwt beam="1">  1        1 0.13146785E+00 0.40255013E+03</pdfrwt>
<pdfrwt beam="2">  1       -1 0.32340016E-01 0.40255013E+03</pdfrwt>
<totfact> 0.18509101E+02</totfact>
</mgrwt>
</event>
<event>
 4    1  0.2474915E-002  0.6217020E+03  0.7818608E-02  0.9861377E-01
         -2   -1    0    0    0  501 -0.00000000000E+00  0.00000000000E+00  0.57656082910E+03  0.57656082910E+03  0.00000000000E+00 0. -1.
          2   -1    0    0  502    0  0.00000000000E+00 -0.00000000000E+00 -0.67180117413E+03  0.67180117413E+03  0.00000000000E+00 0.  1.
    9000007    1    1    2  502    0  0.47067019197E+03  0.70590124660E+02 -0.76354339462E+02  0.62637319584E+03  0.40000000000E+03 0.  1.
   -9000007    1    1    2    0  501 -0.47067019197E+03 -0.70590124660E+02 -0.18886005570E+02  0.62198880739E+03  0.40000000000E+03 0. -1.
<mgrwt>
<rscale>  2 0.62170201E+03</rscale>
<asrwt>0</asrwt>
<pdfrwt beam="1">  1        2 0.10335403E+00 0.62170201E+03</pdfrwt>
<pdfrwt beam="2">  1       -2 0.88701666E-01 0.62170201E+03</pdfrwt>
<totfact> 0.48264615E+01</totfact>
</mgrwt>
</event>
<event>
 4    1  0.2474915E-002  0.4518674E+03  0.7818608E-02  0.1027167E+00
         -1   -1    0    0    0  501 -0.00000000000E+00  0.00000000000E+00  0.22110587661E+03  0.22110587661E+03  0.00000000000E+00 0.  1.
          1   -1    0    0  502    0  0.00000000000E+00 -0.00000000000E+00 -0.93270249058E+03  0.93270249058E+03  0.00000000000E+00 0. -1.
    9000007    1    1    2  502    0 -0.12154201925E+02 -0.20984864998E+03 -0.29839448101E+03  0.54150110510E+03  0.40000000000E+03 0. -1.
   -9000007    1    1    2    0  501  0.12154201925E+02  0.20984864998E+03 -0.41320213296E+03  0.61230726209E+03  0.40000000000E+03 0. -1.
<mgrwt>
<rscale>  2 0.45186744E+03</rscale>
<asrwt>0</asrwt>
<pdfrwt beam="1">  1        1 0.14349269E+00 0.45186744E+03</pdfrwt>
<pdfrwt beam="2">  1       -1 0.34016288E-01 0.45186744E+03</pdfrwt>
<totfact> 0.14581913E+02</totfact>
</mgrwt>
</event>
<event>
 4    1  0.2474915E-002  0.6223908E+03  0.7818608E-02  0.9860011E-01
          2   -1    0    0  502    0  0.00000000000E+00  0.00000000000E+00  0.90133251966E+03  0.90133251966E+03  0.00000000000E+00 0.  1.
         -2   -1    0    0    0  501 -0.00000000000E+00 -0.00000000000E+00 -0.57342826715E+03  0.57342826715E+03  0.00000000000E+00 0. -1.
    9000007    1    1    2  502    0  0.33992995505E+03 -0.33439186063E+03  0.53302286237E+03  0.81944106720E+03  0.40000000000E+03 0.  1.
   -9000007    1    1    2    0  501 -0.33992995505E+03  0.33439186063E+03 -0.20511860986E+03  0.65531971961E+03  0.40000000000E+03 0. -1.
<mgrwt>
<rscale>  2 0.62239079E+03</rscale>
<asrwt>0</asrwt>
<pdfrwt beam="1">  1        2 0.13866654E+00 0.62239079E+03</pdfrwt>
<pdfrwt beam="2">  1       -2 0.88219733E-01 0.62239079E+03</pdfrwt>
<totfact> 0.33287655E+01</totfact>
</mgrwt>
</event>
<event>
 4    1  0.2474915E-002  0.4077869E+03  0.7818608E-02  0.1041116E+00
          2   -1    0    0  502    0  0.00000000000E+00  0.00000000000E+00  0.15581598689E+04  0.15581598689E+04  0.00000000000E+00 0.  1.
         -2   -1    0    0    0  501 -0.00000000000E+00 -0.00000000000E+00 -0.12194739285E+03  0.12194739285E+03  0.00000000000E+00 0. -1.
    9000007    1    1    2  502    0  0.63614412147E+02 -0.47364518941E+02  0.42127972782E+03  0.58631629703E+03  0.40000000000E+03 0. -1.
   -9000007    1    1    2    0  501 -0.63614412147E+02  0.47364518941E+02  0.10149327482E+04  0.10937909647E+04  0.40000000000E+03 0.  1.
<mgrwt>
<rscale>  2 0.40778694E+03</rscale>
<asrwt>0</asrwt>
<pdfrwt beam="1">  1        2 0.23971689E+00 0.40778694E+03</pdfrwt>
<pdfrwt beam="2">  1       -2 0.18761138E-01 0.40778694E+03</pdfrwt>
<totfact> 0.29393469E+02</totfact>
</mgrwt>
</event>
<event>
 4    1  0.2474915E-002  0.4536885E+03  0.7818608E-02  0.1026628E+00
          2   -1    0    0  502    0  0.00000000000E+00  0.00000000000E+00  0.19189756394E+04  0.19189756394E+04  0.00000000000E+00 0. -1.
         -2   -1    0    0    0  501 -0.00000000000E+00 -0.00000000000E+00 -0.11601989280E+03  0.11601989280E+03  0.00000000000E+00 0.  1.
    9000007    1    1    2  502    0 -0.39430171030E+02  0.21042453865E+03  0.62192351067E+03  0.76981951000E+03  0.40000000000E+03 0. -1.
   -9000007    1    1    2    0  501  0.39430171030E+02 -0.21042453865E+03  0.11810322359E+04  0.12651760222E+04  0.40000000000E+03 0. -1.
<mgrwt>
<rscale>  2 0.45368847E+03</rscale>
<asrwt>0</asrwt>
<pdfrwt beam="1">  1        2 0.29522700E+00 0.45368847E+03</pdfrwt>
<pdfrwt beam="2">  1       -2 0.17849216E-01 0.45368847E+03</pdfrwt>
<totfact> 0.20369801E+02</totfact>
</mgrwt>
</event>
<event>
 4    1  0.2474915E-002  0.4556813E+03  0.7818608E-02  0.1026041E+00
         -2   -1    0    0    0  501 -0.00000000000E+00  0.00000000000E+00  0.20236833163E+03  0.20236833163E+03  0.00000000000E+00 0.  1.
          2   -1    0    0  502    0  0.00000000000E+00 -0.00000000000E+00 -0.13953828432E+04  0.13953828432E+04  0.00000000000E+00 0. -1.
    9000007    1    1    2  502    0  0.14983283097E+01  0.21827330074E+03 -0.10074918894E+04  0.11057510507E+04  0.40000000000E+03 0. -1.
   -9000007    1    1    2    0  501 -0.14983283097E+01 -0.21827330074E+03 -0.18552262209E+03  0.49200012410E+03  0.40000000000E+03 0. -1.
<mgrwt>
<rscale>  2 0.45568133E+03</rscale>
<asrwt>0</asrwt>
<pdfrwt beam="1">  1        2 0.21467429E+00 0.45568133E+03</pdfrwt>
<pdfrwt beam="2">  1       -2 0.31133589E-01 0.45568133E+03</pdfrwt>
<totfact> 0.14560151E+02</totfact>
</mgrwt>
</event>
<event>
 4    1  0.2474915E-002  0.4788005E+03  0.7818608E-02  0.1019465E+00
         -1   -1    0    0    0  501 -0.00000000000E+00  0.00000000000E+00  0.20306291846E+03  0.20306291846E+03  0.00000000000E+00 0.  1.
          1   -1    0    0  502    0  0.00000000000E+00 -0.00000000000E+00 -0.11295492289E+04  0.11295492289E+04  0.00000000000E+00 0. -1.
    9000007    1    1    2  502    0 -0.15648410278E+03  0.21157174572E+03 -0.47846354093E+03  0.67688790653E+03  0.40000000000E+03 0. -1.
   -9000007    1    1    2    0  501  0.15648410278E+03 -0.21157174572E+03 -0.44802276950E+03  0.65572424082E+03  0.40000000000E+03 0.  1.
<mgrwt>
<rscale>  2 0.47880046E+03</rscale>
<asrwt>0</asrwt>
<pdfrwt beam="1">  1        1 0.17377680E+00 0.47880046E+03</pdfrwt>
<pdfrwt beam="2">  1       -1 0.31240450E-01 0.47880046E+03</pdfrwt>
<totfact> 0.11973644E+02</totfact>
</mgrwt>
</event>
<event>
 4    1  0.2474915E-002  0.4057412E+03  0.7818608E-02  0.1041810E+00
         -3   -1    0    0    0  501 -0.00000000000E+00  0.00000000000E+00  0.64718435731E+03  0.64718435731E+03  0.00000000000E+00 0.  1.
          3   -1    0    0  502    0  0.00000000000E+00 -0.00000000000E+00 -0.27812367627E+03  0.27812367627E+03  0.00000000000E+00 0. -1.
    9000007    1    1    2  502    0 -0.66965702230E+02 -0.11895915463E+02  0.31973127825E+03  0.51657914047E+03  0.40000000000E+03 0.  1.
   -9000007    1    1    2    0  501  0.66965702230E+02  0.11895915463E+02  0.49329402788E+02  0.40872889311E+03  0.40000000000E+03 0. -1.
<mgrwt>
<rscale>  2 0.40574120E+03</rscale>
<asrwt>0</asrwt>
<pdfrwt beam="1">  1        3 0.42788258E-01 0.40574120E+03</pdfrwt>
<pdfrwt beam="2">  1       -3 0.99566824E-01 0.40574120E+03</pdfrwt>
<totfact> 0.12467427E+01</totfact>
</mgrwt>
</event>
<event>
 4    1  0.2474915E-002  0.4534936E+03  0.7818608E-02  0.1026685E+00
          2   -1    0    0  502    0  0.00000000000E+00  0.00000000000E+00  0.39539918122E+03  0.39539918122E+03  0.00000000000E+00 0.  1.
         -2   -1    0    0    0  501 -0.00000000000E+00 -0.00000000000E+00 -0.52287016571E+03  0.52287016571E+03  0.00000000000E+00 0. -1.
    9000007    1    1    2  502    0  0.28474206007E+02  0.21176801771E+03 -0.97011600419E+02  0.46375394807E+03  0.40000000000E+03 0.  1.
   -9000007    1    1    2    0  501 -0.28474206007E+02 -0.21176801771E+03 -0.30459384069E+02  0.45451539887E+03  0.40000000000E+03 0.  1.
<mgrwt>
<rscale>  2 0.45349363E+03</rscale>
<asrwt>0</asrwt>
<pdfrwt beam="1">  1        2 0.60830643E-01 0.45349363E+03</pdfrwt>
<pdfrwt beam="2">  1       -2 0.80441565E-01 0.45349363E+03</pdfrwt>
<totfact> 0.11304489E+02</totfact>
</mgrwt>
</event>
<event>
 4    1  0.2474915E-002  0.4658098E+03  0.7818608E-02  0.1023110E+00
         -2   -1    0    0    0  501 -0.00000000000E+00  0.00000000000E+00  0.89092176346E+02  0.89092176346E+02  0.00000000000E+00 0. -1.
          2   -1    0    0  502    0  0.00000000000E+00 -0.00000000000E+00 -0.27693026354E+04  0.27693026354E+04  0.00000000000E+00 0.  1.
    9000007    1    1    2  502    0 -0.23855297601E+03  0.84429478779E+01 -0.84386749992E+03  0.96389375096E+03  0.40000000000E+03 0. -1.
   -9000007    1    1    2    0  501  0.23855297601E+03 -0.84429478779E+01 -0.18363429592E+04  0.18945010608E+04  0.40000000000E+03 0.  1.
<mgrwt>
<rscale>  2 0.46580984E+03</rscale>
<asrwt>0</asrwt>
<pdfrwt beam="1">  1        2 0.42604649E+00 0.46580984E+03</pdfrwt>
<pdfrwt beam="2">  1       -2 0.13706491E-01 0.46580984E+03</pdfrwt>
<totfact> 0.10766747E+02</totfact>
</mgrwt>
</event>
<event>
 4    1  0.2474915E-002  0.4732580E+03  0.7818608E-02  0.1021005E+00
          2   -1    0    0  502    0  0.00000000000E+00  0.00000000000E+00  0.12360384091E+04  0.12360384091E+04  0.00000000000E+00 0.  1.
         -2   -1    0    0    0  501 -0.00000000000E+00 -0.00000000000E+00 -0.19729326578E+03  0.19729326578E+03  0.00000000000E+00 0. -1.
    9000007    1    1    2  502    0  0.24872337931E+03  0.45932439732E+02  0.72404081979E+03  0.86499029888E+03  0.40000000000E+03 0.  1.
   -9000007    1    1    2    0  501 -0.24872337931E+03 -0.45932439732E+02  0.31470432354E+03  0.56834137602E+03  0.40000000000E+03 0. -1.
<mgrwt>
<rscale>  2 0.47325797E+03</rscale>
<asrwt>0</asrwt>
<pdfrwt beam="1">  1        2 0.19015975E+00 0.47325797E+03</pdfrwt>
<pdfrwt beam="2">  1       -2 0.30352811E-01 0.47325797E+03</pdfrwt>
<totfact> 0.18738671E+02</totfact>
</mgrwt>
</event>
<event>
 4    1  0.2474915E-002  0.4029721E+03  0.7818608E-02  0.1042755E+00
          2   -1    0    0  502    0  0.00000000000E+00  0.00000000000E+00  0.15202167124E+04  0.15202167124E+04  0.00000000000E+00 0. -1.
         -2   -1    0    0    0  501 -0.00000000000E+00 -0.00000000000E+00 -0.13041132380E+03  0.13041132380E+03  0.00000000000E+00 0.  1.
    9000007    1    1    2  502    0 -0.44979759512E+02 -0.19062279297E+02  0.10459421149E+04  0.11208842300E+04  0.40000000000E+03 0. -1.
   -9000007    1    1    2    0  501  0.44979759512E+02  0.19062279297E+02  0.34386327371E+03  0.52974380626E+03  0.40000000000E+03 0.  1.
<mgrwt>
<rscale>  2 0.40297214E+03</rscale>
<asrwt>0</asrwt>
<pdfrwt beam="1">  1        2 0.23387948E+00 0.40297214E+03</pdfrwt>
<pdfrwt beam="2">  1       -2 0.20063282E-01 0.40297214E+03</pdfrwt>
<totfact> 0.27468550E+02</totfact>
</mgrwt>
</event>
<event>
 4    1  0.2474915E-002  0.6968197E+03  0.7818608E-02  0.9722687E-01
          2   -1    0    0  502    0  0.00000000000E+00  0.00000000000E+00  0.12348390164E+04  0.12348390164E+04  0.00000000000E+00 0.  1.
         -2   -1    0    0    0  501 -0.00000000000E+00 -0.00000000000E+00 -0.40275402119E+03  0.40275402119E+03  0.00000000000E+00 0. -1.
    9000007    1    1    2  502    0  0.41468994759E+03  0.39190544958E+03  0.54205115649E+03  0.88282336302E+03  0.40000000000E+03 0. -1.
   -9000007    1    1    2    0  501 -0.41468994759E+03 -0.39190544958E+03  0.29003383870E+03  0.75476967456E+03  0.40000000000E+03 0.  1.
<mgrwt>
<rscale>  2 0.69681966E+03</rscale>
<asrwt>0</asrwt>
<pdfrwt beam="1">  1        2 0.18997523E+00 0.69681966E+03</pdfrwt>
<pdfrwt beam="2">  1       -2 0.61962158E-01 0.69681966E+03</pdfrwt>
<totfact> 0.44722181E+01</totfact>
</mgrwt>
</event>
<event>
 4    1  0.2474915E-002  0.4634073E+03  0.7818608E-02  0.1023798E+00
         -2   -1    0    0    0  501 -0.00000000000E+00  0.00000000000E+00  0.23972340649E+03  0.23972340649E+03  0.00000000000E+00 0.  1.
          2   -1    0    0  502    0  0.00000000000E+00 -0.00000000000E+00 -0.95206876937E+03  0.95206876937E+03  0.00000000000E+00 0. -1.
    9000007    1    1    2  502    0  0.20521727904E+03 -0.11239296798E+03 -0.21131666338E+03  0.50931428715E+03  0.40000000000E+03 0.  1.
   -9000007    1    1    2    0  501 -0.20521727904E+03  0.11239296798E+03 -0.50102869950E+03  0.68247788872E+03  0.40000000000E+03 0. -1.
<mgrwt>
<rscale>  2 0.46340728E+03</rscale>
<asrwt>0</asrwt>
<pdfrwt beam="1">  1        2 0.14647212E+00 0.46340728E+03</pdfrwt>
<pdfrwt beam="2">  1       -2 0.36880524E-01 0.46340728E+03</pdfrwt>
<totfact> 0.19336772E+02</totfact>
</mgrwt>
</event>
<event>
 4    1  0.2474915E-002  0.5152160E+03  0.7818608E-02  0.1009882E+00
          1   -1    0    0  502    0  0.00000000000E+00  0.00000000000E+00  0.88831847397E+03  0.88831847397E+03  0.00000000000E+00 0. -1.
         -1   -1    0    0    0  501 -0.00000000000E+00 -0.00000000000E+00 -0.30177902069E+03  0.30177902069E+03  0.00000000000E+00 0.  1.
    9000007    1    1    2  502    0  0.31878028280E+03 -0.61859688839E+02  0.35219051152E+03  0.62408785136E+03  0.40000000000E+03 0.  1.
   -9000007    1    1    2    0  501 -0.31878028280E+03  0.61859688839E+02  0.23434894176E+03  0.56600964330E+03  0.40000000000E+03 0.  1.
<mgrwt>
<rscale>  2 0.51521596E+03</rscale>
<asrwt>0</asrwt>
<pdfrwt beam="1">  1        1 0.13666438E+00 0.51521596E+03</pdfrwt>
<pdfrwt beam="2">  1       -1 0.46427542E-01 0.51521596E+03</pdfrwt>
<totfact> 0.89645975E+01</totfact>
</mgrwt>
</event>
<event>
 4    1  0.2474915E-002  0.5172357E+03  0.7818608E-02  0.1009376E+00
          2   -1    0    0  502    0  0.00000000000E+00  0.00000000000E+00  0.11724601020E+04  0.11724601020E+04  0.00000000000E+00 0. -1.
         -2   -1    0    0    0  501 -0.00000000000E+00 -0.00000000000E+00 -0.29651415605E+03  0.29651415605E+03  0.00000000000E+00 0.  1.
    9000007    1    1    2  502    0 -0.80271947636E+02 -0.31794532289E+03  0.79056950715E+03  0.94473962527E+03  0.40000000000E+03 0. -1.
   -9000007    1    1    2    0  501  0.80271947636E+02  0.31794532289E+03  0.85376438824E+02  0.52423463281E+03  0.40000000000E+03 0.  1.
<mgrwt>
<rscale>  2 0.51723574E+03</rscale>
<asrwt>0</asrwt>
<pdfrwt beam="1">  1        2 0.18037848E+00 0.51723574E+03</pdfrwt>
<pdfrwt beam="2">  1       -2 0.45617563E-01 0.51723574E+03</pdfrwt>
<totfact> 0.93122266E+01</totfact>
</mgrwt>
</event>
<event>
 4    1  0.2474915E-002  0.4005224E+03  0.7818608E-02  0.1043599E+00
          2   -1    0    0  502    0  0.00000000000E+00  0.00000000000E+00  0.51936640660E+03  0.51936640660E+03  0.00000000000E+00 0. -1.
         -2   -1    0    0    0  501 -0.00000000000E+00 -0.00000000000E+00 -0.31728923376E+03  0.31728923376E+03  0.00000000000E+00 0.  1.
    9000007    1    1    2  502    0  0.70835639091E+01  0.19183671330E+02  0.32906537290E+02  0.40187190785E+03  0.40000000000E+03 0.  1.
   -9000007    1    1    2    0  501 -0.70835639091E+01 -0.19183671330E+02  0.16917063555E+03  0.43478373251E+03  0.40000000000E+03 0. -1.
<mgrwt>
<rscale>  2 0.40052240E+03</rscale>
<asrwt>0</asrwt>
<pdfrwt beam="1">  1        2 0.79902524E-01 0.40052240E+03</pdfrwt>
<pdfrwt beam="2">  1       -2 0.48813728E-01 0.40052240E+03</pdfrwt>
<totfact> 0.24013484E+02</totfact>
</mgrwt>
</event>
<event>
 4    1  0.2474915E-002  0.4480700E+03  0.7818608E-02  0.1028299E+00
         -1   -1    0    0    0  501 -0.00000000000E+00  0.00000000000E+00  0.11869966135E+04  0.11869966135E+04  0.00000000000E+00 0. -1.
          1   -1    0    0  502    0  0.00000000000E+00 -0.00000000000E+00 -0.29398793335E+03  0.29398793335E+03  0.00000000000E+00 0.  1.
    9000007    1    1    2  502    0  0.11474419995E+03 -0.16613396414E+03 -0.36053320926E+02  0.44951815026E+03  0.40000000000E+03 0.  1.
   -9000007    1    1    2    0  501 -0.11474419995E+03  0.16613396414E+03  0.92906200104E+03  0.10314663966E+04  0.40000000000E+03 0. -1.
<mgrwt>
<rscale>  2 0.44807000E+03</rscale>
<asrwt>0</asrwt>
<pdfrwt beam="1">  1        1 0.45228913E-01 0.44807000E+03</pdfrwt>
<pdfrwt beam="2">  1       -1 0.18261486E+00 0.44807000E+03</pdfrwt>
<totfact> 0.19175102E+01</totfact>
</mgrwt>
</event>
<event>
 4    1  0.2474915E-002  0.4830127E+03  0.7818608E-02  0.1018310E+00
         -2   -1    0    0    0  501 -0.00000000000E+00  0.00000000000E+00  0.47194133935E+03  0.47194133935E+03  0.00000000000E+00 0. -1.
          2   -1    0    0  502    0  0.00000000000E+00 -0.00000000000E+00 -0.62519387319E+03  0.62519387319E+03  0.00000000000E+00 0.  1.
    9000007    1    1    2  502    0  0.16709132734E+03 -0.21302988504E+03  0.17433684866E+03  0.51351200609E+03  0.40000000000E+03 0. -1.
   -9000007    1    1    2    0  501 -0.16709132734E+03  0.21302988504E+03 -0.32758938250E+03  0.58362320646E+03  0.40000000000E+03 0.  1.
<mgrwt>
<rscale>  2 0.48301267E+03</rscale>
<asrwt>0</asrwt>
<pdfrwt beam="1">  1        2 0.96183672E-01 0.48301267E+03</pdfrwt>
<pdfrwt beam="2">  1       -2 0.72606360E-01 0.48301267E+03</pdfrwt>
<totfact> 0.83574498E+01</totfact>
</mgrwt>
</event>
<event>
 4    1  0.2474915E-002  0.5784438E+03  0.7818608E-02  0.9951166E-01
          4   -1    0    0  502    0  0.00000000000E+00  0.00000000000E+00  0.30037099644E+03  0.30037099644E+03  0.00000000000E+00 0. -1.
         -4   -1    0    0    0  501 -0.00000000000E+00 -0.00000000000E+00 -0.13448252117E+04  0.13448252117E+04  0.00000000000E+00 0.  1.
    9000007    1    1    2  502    0  0.32371658867E+03  0.26420600275E+03 -0.18139016495E+03  0.60621748046E+03  0.40000000000E+03 0. -1.
   -9000007    1    1    2    0  501 -0.32371658867E+03 -0.26420600275E+03 -0.86306405035E+03  0.10389787277E+04  0.40000000000E+03 0.  1.
<mgrwt>
<rscale>  2 0.57844381E+03</rscale>
<asrwt>0</asrwt>
<pdfrwt beam="1">  1        4 0.46210923E-01 0.57844381E+03</pdfrwt>
<pdfrwt beam="2">  1       -4 0.20689618E+00 0.57844381E+03</pdfrwt>
<totfact> 0.10698338E+00</totfact>
</mgrwt>
</event>
<event>
 4    1  0.2474915E-002  0.4481610E+03  0.7818608E-02  0.1028272E+00
         -2   -1    0    0    0  501 -0.00000000000E+00  0.00000000000E+00  0.17451776445E+03  0.17451776445E+03  0.00000000000E+00 0.  1.
          2   -1    0    0  502    0  0.00000000000E+00 -0.00000000000E+00 -0.14637643731E+04  0.14637643731E+04  0.00000000000E+00 0. -1.
    9000007    1    1    2  502    0 -0.20142997546E+03 -0.16559656775E+02 -0.10233431148E+04  0.11171747347E+04  0.40000000000E+03 0. -1.
   -9000007    1    1    2    0  501  0.20142997546E+03  0.16559656775E+02 -0.26590349383E+03  0.52110740282E+03  0.40000000000E+03 0.  1.
<mgrwt>
<rscale>  2 0.44816097E+03</rscale>
<asrwt>0</asrwt>
<pdfrwt beam="1">  1        2 0.22519452E+00 0.44816097E+03</pdfrwt>
<pdfrwt beam="2">  1       -2 0.26848886E-01 0.44816097E+03</pdfrwt>
<totfact> 0.17516930E+02</totfact>
</mgrwt>
</event>
<event>
 4    1  0.2474915E-002  0.4121068E+03  0.7818608E-02  0.1039666E+00
          3   -1    0    0  502    0  0.00000000000E+00  0.00000000000E+00  0.51489663737E+03  0.51489663737E+03  0.00000000000E+00 0. -1.
         -3   -1    0    0    0  501 -0.00000000000E+00 -0.00000000000E+00 -0.32992069934E+03  0.32992069934E+03  0.00000000000E+00 0.  1.
    9000007    1    1    2  502    0  0.57802902053E+02 -0.80565776198E+02  0.99211519215E+02  0.42388081500E+03  0.40000000000E+03 0.  1.
   -9000007    1    1    2    0  501 -0.57802902053E+02  0.80565776198E+02  0.85764418814E+02  0.42093652172E+03  0.40000000000E+03 0.  1.
<mgrwt>
<rscale>  2 0.41210681E+03</rscale>
<asrwt>0</asrwt>
<pdfrwt beam="1">  1        3 0.79214867E-01 0.41210681E+03</pdfrwt>
<pdfrwt beam="2">  1       -3 0.50757031E-01 0.41210681E+03</pdfrwt>
<totfact> 0.14853774E+01</totfact>
</mgrwt>
</event>
<event>
 4    1  0.2474915E-002  0.5015577E+03  0.7818608E-02  0.1013373E+00
          1   -1    0    0  502    0  0.00000000000E+00  0.00000000000E+00  0.69595407504E+03  0.69595407504E+03  0.00000000000E+00 0. -1.
         -1   -1    0    0    0  501 -0.00000000000E+00 -0.00000000000E+00 -0.53262932239E+03  0.53262932239E+03  0.00000000000E+00 0.  1.
    9000007    1    1    2  502    0 -0.24638415533E+03 -0.17565583580E+03 -0.26657392949E+03  0.56799804976E+03  0.40000000000E+03 0.  1.
   -9000007    1    1    2    0  501  0.24638415533E+03  0.17565583580E+03  0.42989868214E+03  0.66058534767E+03  0.40000000000E+03 0. -1.
<mgrwt>
<rscale>  2 0.50155770E+03</rscale>
<asrwt>0</asrwt>
<pdfrwt beam="1">  1        1 0.10706986E+00 0.50155770E+03</pdfrwt>
<pdfrwt beam="2">  1       -1 0.81942973E-01 0.50155770E+03</pdfrwt>
<totfact> 0.42881308E+01</totfact>
</mgrwt>
</event>
<event>
 4    1  0.2474915E-002  0.5322708E+03  0.7818608E-02  0.1005683E+00
          2   -1    0    0  502    0  0.00000000000E+00  0.00000000000E+00  0.21908521609E+04  0.21908521609E+04  0.00000000000E+00 0.  1.
         -2   -1    0    0    0  501 -0.00000000000E+00 -0.00000000000E+00 -0.15449508433E+03  0.15449508433E+03  0.00000000000E+00 0. -1.
    9000007    1    1    2  502    0 -0.47436677488E+02 -0.34793956384E+03  0.54476570742E+03  0.76163104876E+03  0.40000000000E+03 0. -1.
   -9000007    1    1    2    0  501  0.47436677488E+02  0.34793956384E+03  0.14915913692E+04  0.15837161965E+04  0.40000000000E+03 0.  1.
<mgrwt>
<rscale>  2 0.53227078E+03</rscale>
<asrwt>0</asrwt>
<pdfrwt beam="1">  1        2 0.33705416E+00 0.53227078E+03</pdfrwt>
<pdfrwt beam="2">  1       -2 0.23768476E-01 0.53227078E+03</pdfrwt>
<totfact> 0.87116996E+01</totfact>
</mgrwt>
</event>
<event>
 4    1  0.2474915E-002  0.4526629E+03  0.7818608E-02  0.1026931E+00
         -2   -1    0    0    0  501 -0.00000000000E+00  0.00000000000E+00  0.77751886706E+03  0.77751886706E+03  0.00000000000E+00 0.  1.
          2   -1    0    0  502    0  0.00000000000E+00 -0.00000000000E+00 -0.29186870985E+03  0.29186870985E+03  0.00000000000E+00 0. -1.
    9000007    1    1    2  502    0 -0.18449591432E+03  0.10423496734E+03  0.40941961826E+03  0.61035079637E+03  0.40000000000E+03 0.  1.
   -9000007    1    1    2    0  501  0.18449591432E+03 -0.10423496734E+03  0.76230538955E+02  0.45903678054E+03  0.40000000000E+03 0. -1.
<mgrwt>
<rscale>  2 0.45266287E+03</rscale>
<asrwt>0</asrwt>
<pdfrwt beam="1">  1        2 0.44902879E-01 0.45266287E+03</pdfrwt>
<pdfrwt beam="2">  1       -2 0.11961829E+00 0.45266287E+03</pdfrwt>
<totfact> 0.62438599E+01</totfact>
</mgrwt>
</event>
<event>
 4    1  0.2474915E-002  0.4446970E+03  0.7818608E-02  0.1029315E+00
          2   -1    0    0  502    0  0.00000000000E+00  0.00000000000E+00  0.12096448510E+04  0.12096448510E+04  0.00000000000E+00 0. -1.
         -2   -1    0    0    0  501 -0.00000000000E+00 -0.00000000000E+00 -0.18090043693E+03  0.18090043693E+03  0.00000000000E+00 0.  1.
    9000007    1    1    2  502    0 -0.73143730677E+00  0.19430614846E+03  0.29862891648E+03  0.53566280820E+03  0.40000000000E+03 0.  1.
   -9000007    1    1    2    0  501  0.73143730677E+00 -0.19430614846E+03  0.73011549762E+03  0.85488247976E+03  0.40000000000E+03 0. -1.
<mgrwt>
<rscale>  2 0.44469699E+03</rscale>
<asrwt>0</asrwt>
<pdfrwt beam="1">  1        2 0.18609920E+00 0.44469699E+03</pdfrwt>
<pdfrwt beam="2">  1       -2 0.27830837E-01 0.44469699E+03</pdfrwt>
<totfact> 0.22819712E+02</totfact>
</mgrwt>
</event>
<event>
 4    1  0.2474915E-002  0.4923311E+03  0.7818608E-02  0.1015800E+00
         -1   -1    0    0    0  501 -0.00000000000E+00  0.00000000000E+00  0.74288353395E+03  0.74288353395E+03  0.00000000000E+00 0. -1.
          1   -1    0    0  502    0  0.00000000000E+00 -0.00000000000E+00 -0.69118336700E+03  0.69118336700E+03  0.00000000000E+00 0.  1.
    9000007    1    1    2  502    0  0.10812843996E+03 -0.26589131139E+03  0.54684103779E+03  0.73581592101E+03  0.40000000000E+03 0. -1.
   -9000007    1    1    2    0  501 -0.10812843996E+03  0.26589131139E+03 -0.49514087085E+03  0.69825097994E+03  0.40000000000E+03 0.  1.
<mgrwt>
<rscale>  2 0.49233114E+03</rscale>
<asrwt>0</asrwt>
<pdfrwt beam="1">  1        1 0.10633590E+00 0.49233114E+03</pdfrwt>
<pdfrwt beam="2">  1       -1 0.11428977E+00 0.49233114E+03</pdfrwt>
<totfact> 0.20594043E+01</totfact>
</mgrwt>
</event>
<event>
 4    1  0.2474915E-002  0.4968786E+03  0.7818608E-02  0.1014597E+00
         -1   -1    0    0    0  501 -0.00000000000E+00  0.00000000000E+00  0.72868144262E+03  0.72868144262E+03  0.00000000000E+00 0.  1.
          1   -1    0    0  502    0  0.00000000000E+00 -0.00000000000E+00 -0.35408129709E+03  0.35408129709E+03  0.00000000000E+00 0. -1.
    9000007    1    1    2  502    0 -0.23214982467E+03 -0.18164462114E+03  0.29971308589E+03  0.58027255953E+03  0.40000000000E+03 0.  1.
   -9000007    1    1    2    0  501  0.23214982467E+03  0.18164462114E+03  0.74887059635E+02  0.50249018019E+03  0.40000000000E+03 0. -1.
<mgrwt>
<rscale>  2 0.49687857E+03</rscale>
<asrwt>0</asrwt>
<pdfrwt beam="1">  1        1 0.54474046E-01 0.49687857E+03</pdfrwt>
<pdfrwt beam="2">  1       -1 0.11210484E+00 0.49687857E+03</pdfrwt>
<totfact> 0.53784828E+01</totfact>
</mgrwt>
</event>
<event>
 4    1  0.2474915E-002  0.6007091E+03  0.7818608E-02  0.9903936E-01
          1   -1    0    0  502    0  0.00000000000E+00  0.00000000000E+00  0.51659181282E+03  0.51659181282E+03  0.00000000000E+00 0.  1.
         -1   -1    0    0    0  501 -0.00000000000E+00 -0.00000000000E+00 -0.84540863901E+03  0.84540863901E+03  0.00000000000E+00 0. -1.
    9000007    1    1    2  502    0  0.36056360532E+03 -0.26616784539E+03  0.11945086243E+03  0.61247036168E+03  0.40000000000E+03 0.  1.
   -9000007    1    1    2    0  501 -0.36056360532E+03  0.26616784539E+03 -0.44826768861E+03  0.74953009016E+03  0.40000000000E+03 0. -1.
<mgrwt>
<rscale>  2 0.60070911E+03</rscale>
<asrwt>0</asrwt>
<pdfrwt beam="1">  1        1 0.79475664E-01 0.60070911E+03</pdfrwt>
<pdfrwt beam="2">  1       -1 0.13006287E+00 0.60070911E+03</pdfrwt>
<totfact> 0.22392388E+01</totfact>
</mgrwt>
</event>
<event>
 4    1  0.2474915E-002  0.4847871E+03  0.7818608E-02  0.1017828E+00
          2   -1    0    0  502    0  0.00000000000E+00  0.00000000000E+00  0.33275663413E+03  0.33275663413E+03  0.00000000000E+00 0. -1.
         -2   -1    0    0    0  501 -0.00000000000E+00 -0.00000000000E+00 -0.71075543741E+03  0.71075543741E+03  0.00000000000E+00 0.  1.
    9000007    1    1    2  502    0  0.18487104471E+03  0.20209222757E+03 -0.14758614270E+03  0.50675461629E+03  0.40000000000E+03 0. -1.
   -9000007    1    1    2    0  501 -0.18487104471E+03 -0.20209222757E+03 -0.23041266059E+03  0.53675745526E+03  0.40000000000E+03 0.  1.
<mgrwt>
<rscale>  2 0.48478714E+03</rscale>
<asrwt>0</asrwt>
<pdfrwt beam="1">  1        2 0.51193329E-01 0.48478714E+03</pdfrwt>
<pdfrwt beam="2">  1       -2 0.10934699E+00 0.48478714E+03</pdfrwt>
<totfact> 0.67016854E+01</totfact>
</mgrwt>
</event>
<event>
 4    1  0.2474915E-002  0.4607750E+03  0.7818608E-02  0.1024557E+00
         -1   -1    0    0    0  501 -0.00000000000E+00  0.00000000000E+00  0.57599166131E+03  0.57599166131E+03  0.00000000000E+00 0. -1.
          1   -1    0    0  502    0  0.00000000000E+00 -0.00000000000E+00 -0.37168314121E+03  0.37168314121E+03  0.00000000000E+00 0.  1.
    9000007    1    1    2  502    0 -0.21000327798E+03  0.90621310771E+02  0.59035763563E+02  0.46454151602E+03  0.40000000000E+03 0. -1.
   -9000007    1    1    2    0  501  0.21000327798E+03 -0.90621310771E+02  0.14527275654E+03  0.48313328649E+03  0.40000000000E+03 0. -1.
<mgrwt>
<rscale>  2 0.46077500E+03</rscale>
<asrwt>0</asrwt>
<pdfrwt beam="1">  1        1 0.57182022E-01 0.46077500E+03</pdfrwt>
<pdfrwt beam="2">  1       -1 0.88614101E-01 0.46077500E+03</pdfrwt>
<totfact> 0.86252686E+01</totfact>
</mgrwt>
</event>
<event>
 4    1  0.2474915E-002  0.4018957E+03  0.7818608E-02  0.1043125E+00
          2   -1    0    0  502    0  0.00000000000E+00  0.00000000000E+00  0.10695064470E+04  0.10695064470E+04  0.00000000000E+00 0.  1.
         -2   -1    0    0    0  501 -0.00000000000E+00 -0.00000000000E+00 -0.21450234409E+03  0.21450234409E+03  0.00000000000E+00 0. -1.
    9000007    1    1    2  502    0 -0.21790234222E+02 -0.32331841199E+02  0.78250851163E+02  0.40944274077E+03  0.40000000000E+03 0. -1.
   -9000007    1    1    2    0  501  0.21790234222E+02  0.32331841199E+02  0.77675325173E+03  0.87456605030E+03  0.40000000000E+03 0.  1.
<mgrwt>
<rscale>  2 0.40189571E+03</rscale>
<asrwt>0</asrwt>
<pdfrwt beam="1">  1        2 0.16453945E+00 0.40189571E+03</pdfrwt>
<pdfrwt beam="2">  1       -2 0.33000361E-01 0.40189571E+03</pdfrwt>
<totfact> 0.20274578E+02</totfact>
</mgrwt>
</event>
<event>
 4    1  0.2474915E-002  0.4391371E+03  0.7818608E-02  0.1031012E+00
         -1   -1    0    0    0  501 -0.00000000000E+00  0.00000000000E+00  0.25095208914E+03  0.25095208914E+03  0.00000000000E+00 0. -1.
          1   -1    0    0  502    0  0.00000000000E+00 -0.00000000000E+00 -0.84026894251E+03  0.84026894251E+03  0.00000000000E+00 0.  1.
    9000007    1    1    2  502    0  0.18102926293E+03 -0.83550887758E+01 -0.13513444357E+03  0.45945915965E+03  0.40000000000E+03 0. -1.
   -9000007    1    1    2    0  501 -0.18102926293E+03  0.83550887758E+01 -0.45418240980E+03  0.63176187200E+03  0.40000000000E+03 0.  1.
<mgrwt>
<rscale>  2 0.43913711E+03</rscale>
<asrwt>0</asrwt>
<pdfrwt beam="1">  1        1 0.12927215E+00 0.43913711E+03</pdfrwt>
<pdfrwt beam="2">  1       -1 0.38608014E-01 0.43913711E+03</pdfrwt>
<totfact> 0.13856376E+02</totfact>
</mgrwt>
</event>
<event>
 4    1  0.2474915E-002  0.5071465E+03  0.7818608E-02  0.1011930E+00
         -2   -1    0    0    0  501 -0.00000000000E+00  0.00000000000E+00  0.65178607093E+03  0.65178607093E+03  0.00000000000E+00 0. -1.
          2   -1    0    0  502    0  0.00000000000E+00 -0.00000000000E+00 -0.70139890050E+03  0.70139890050E+03  0.00000000000E+00 0.  1.
    9000007    1    1    2  502    0  0.23119886705E+03  0.20915224806E+03  0.42266829355E+03  0.66018638684E+03  0.40000000000E+03 0. -1.
   -9000007    1    1    2    0  501 -0.23119886705E+03 -0.20915224806E+03 -0.47228112312E+03  0.69299858460E+03  0.40000000000E+03 0.  1.
<mgrwt>
<rscale>  2 0.50714651E+03</rscale>
<asrwt>0</asrwt>
<pdfrwt beam="1">  1        2 0.10790752E+00 0.50714651E+03</pdfrwt>
<pdfrwt beam="2">  1       -2 0.10027478E+00 0.50714651E+03</pdfrwt>
<totfact> 0.34818140E+01</totfact>
</mgrwt>
</event>
<event>
 4    1  0.2474915E-002  0.4802903E+03  0.7818608E-02  0.1019055E+00
         -3   -1    0    0    0  501 -0.00000000000E+00  0.00000000000E+00  0.12777057790E+04  0.12777057790E+04  0.00000000000E+00 0. -1.
          3   -1    0    0  502    0  0.00000000000E+00 -0.00000000000E+00 -0.22763562896E+03  0.22763562896E+03  0.00000000000E+00 0.  1.
    9000007    1    1    2  502    0  0.21884859767E+03  0.15094386313E+03  0.86738390899E+03  0.99148051120E+03  0.40000000000E+03 0. -1.
   -9000007    1    1    2    0  501 -0.21884859767E+03 -0.15094386313E+03  0.18268624100E+03  0.51386089672E+03  0.40000000000E+03 0.  1.
<mgrwt>
<rscale>  2 0.48029029E+03</rscale>
<asrwt>0</asrwt>
<pdfrwt beam="1">  1        3 0.35020867E-01 0.48029029E+03</pdfrwt>
<pdfrwt beam="2">  1       -3 0.19657012E+00 0.48029029E+03</pdfrwt>
<totfact> 0.32871111E+00</totfact>
</mgrwt>
</event>
<event>
 4    1  0.2474915E-002  0.4119639E+03  0.7818608E-02  0.1039714E+00
          1   -1    0    0  502    0  0.00000000000E+00  0.00000000000E+00  0.11488524272E+04  0.11488524272E+04  0.00000000000E+00 0.  1.
         -1   -1    0    0    0  501 -0.00000000000E+00 -0.00000000000E+00 -0.17449418783E+03  0.17449418783E+03  0.00000000000E+00 0. -1.
    9000007    1    1    2  502    0  0.98556729853E+02  0.92048102656E+00  0.22801769047E+03  0.47085703080E+03  0.40000000000E+03 0. -1.
   -9000007    1    1    2    0  501 -0.98556729853E+02 -0.92048102656E+00  0.74634054895E+03  0.85248958427E+03  0.40000000000E+03 0. -1.
<mgrwt>
<rscale>  2 0.41196393E+03</rscale>
<asrwt>0</asrwt>
<pdfrwt beam="1">  1        1 0.17674652E+00 0.41196393E+03</pdfrwt>
<pdfrwt beam="2">  1       -1 0.26845260E-01 0.41196393E+03</pdfrwt>
<totfact> 0.15174549E+02</totfact>
</mgrwt>
</event>
<event>
 4    1  0.2474915E-002  0.4359207E+03  0.7818608E-02  0.1032006E+00
         -2   -1    0    0    0  501 -0.00000000000E+00  0.00000000000E+00  0.21136840745E+03  0.21136840745E+03  0.00000000000E+00 0.  1.
          2   -1    0    0  502    0  0.00000000000E+00 -0.00000000000E+00 -0.93899139355E+03  0.93899139355E+03  0.00000000000E+00 0. -1.
    9000007    1    1    2  502    0 -0.11980558076E+03  0.12519391420E+03 -0.24515702206E+03  0.50012884220E+03  0.40000000000E+03 0.  1.
   -9000007    1    1    2    0  501  0.11980558076E+03 -0.12519391420E+03 -0.48246596403E+03  0.65023095880E+03  0.40000000000E+03 0. -1.
<mgrwt>
<rscale>  2 0.43592074E+03</rscale>
<asrwt>0</asrwt>
<pdfrwt beam="1">  1        2 0.14446021E+00 0.43592074E+03</pdfrwt>
<pdfrwt beam="2">  1       -2 0.32518217E-01 0.43592074E+03</pdfrwt>
<totfact> 0.25057171E+02</totfact>
</mgrwt>
</event>
<event>
 4    1  0.2474915E-002  0.6687248E+03  0.7818608E-02  0.9772264E-01
          1   -1    0    0  502    0  0.00000000000E+00  0.00000000000E+00  0.72042310657E+03  0.72042310657E+03  0.00000000000E+00 0.  1.
         -1   -1    0    0    0  501 -0.00000000000E+00 -0.00000000000E+00 -0.80336189664E+03  0.80336189664E+03  0.00000000000E+00 0. -1.
    9000007    1    1    2  502    0 -0.53051651659E+03 -0.75796467191E+02  0.32179157217E+03  0.74212040447E+03  0.40000000000E+03 0.  1.
   -9000007    1    1    2    0  501  0.53051651659E+03  0.75796467191E+02 -0.40473036224E+03  0.78166459874E+03  0.40000000000E+03 0.  1.
<mgrwt>
<rscale>  2 0.66872482E+03</rscale>
<asrwt>0</asrwt>
<pdfrwt beam="1">  1        1 0.11083432E+00 0.66872482E+03</pdfrwt>
<pdfrwt beam="2">  1       -1 0.12359414E+00 0.66872482E+03</pdfrwt>
<totfact> 0.15591601E+01</totfact>
</mgrwt>
</event>
<event>
 4    1  0.2474915E-002  0.4057522E+03  0.7818608E-02  0.1041806E+00
         -1   -1    0    0    0  501 -0.00000000000E+00  0.00000000000E+00  0.40476947669E+03  0.40476947669E+03  0.00000000000E+00 0.  1.
          1   -1    0    0  502    0  0.00000000000E+00 -0.00000000000E+00 -0.40683027169E+03  0.40683027169E+03  0.00000000000E+00 0. -1.
    9000007    1    1    2  502    0 -0.68072484337E+02  0.97438814114E+00 -0.71674866733E+01  0.40581545735E+03  0.40000000000E+03 0. -1.
   -9000007    1    1    2    0  501  0.68072484337E+02 -0.97438814114E+00  0.51066916733E+01  0.40578429104E+03  0.40000000000E+03 0.  1.
<mgrwt>
<rscale>  2 0.40575216E+03</rscale>
<asrwt>0</asrwt>
<pdfrwt beam="1">  1        1 0.62589273E-01 0.40575216E+03</pdfrwt>
<pdfrwt beam="2">  1       -1 0.62272227E-01 0.40575216E+03</pdfrwt>
<totfact> 0.15946835E+02</totfact>
</mgrwt>
</event>
<event>
 4    1  0.2474915E-002  0.8790022E+03  0.7818608E-02  0.9452217E-01
         -2   -1    0    0    0  501 -0.00000000000E+00  0.00000000000E+00  0.89188041906E+03  0.89188041906E+03  0.00000000000E+00 0.  1.
          2   -1    0    0  502    0  0.00000000000E+00 -0.00000000000E+00 -0.10695179852E+04  0.10695179852E+04  0.00000000000E+00 0. -1.
    9000007    1    1    2  502    0  0.77270746541E+03  0.12477181402E+03 -0.51629531021E+03  0.10194143809E+04  0.40000000000E+03 0. -1.
   -9000007    1    1    2    0  501 -0.77270746541E+03 -0.12477181402E+03  0.33865774405E+03  0.94198402337E+03  0.40000000000E+03 0.  1.
<mgrwt>
<rscale>  2 0.87900218E+03</rscale>
<asrwt>0</asrwt>
<pdfrwt beam="1">  1        2 0.16454123E+00 0.87900218E+03</pdfrwt>
<pdfrwt beam="2">  1       -2 0.13721237E+00 0.87900218E+03</pdfrwt>
<totfact> 0.86420626E+00</totfact>
</mgrwt>
</event>
<event>
 4    1  0.2474915E-002  0.6499626E+03  0.7818608E-02  0.9806849E-01
         -2   -1    0    0    0  501 -0.00000000000E+00  0.00000000000E+00  0.23370106251E+03  0.23370106251E+03  0.00000000000E+00 0.  1.
          2   -1    0    0  502    0  0.00000000000E+00 -0.00000000000E+00 -0.18314330449E+04  0.18314330449E+04  0.00000000000E+00 0. -1.
    9000007    1    1    2  502    0  0.50565128645E+03  0.82268791129E+02 -0.68121599313E+03  0.94154479808E+03  0.40000000000E+03 0.  1.
   -9000007    1    1    2    0  501 -0.50565128645E+03 -0.82268791129E+02 -0.91651598927E+03  0.11235893093E+04  0.40000000000E+03 0. -1.
<mgrwt>
<rscale>  2 0.64996260E+03</rscale>
<asrwt>0</asrwt>
<pdfrwt beam="1">  1        2 0.28175894E+00 0.64996260E+03</pdfrwt>
<pdfrwt beam="2">  1       -2 0.35954009E-01 0.64996260E+03</pdfrwt>
<totfact> 0.62595413E+01</totfact>
</mgrwt>
</event>
<event>
 4    1  0.2474915E-002  0.4501841E+03  0.7818608E-02  0.1027667E+00
          2   -1    0    0  502    0  0.00000000000E+00  0.00000000000E+00  0.11651052119E+04  0.11651052119E+04  0.00000000000E+00 0.  1.
         -2   -1    0    0    0  501 -0.00000000000E+00 -0.00000000000E+00 -0.17410637179E+03  0.17410637179E+03  0.00000000000E+00 0. -1.
    9000007    1    1    2  502    0  0.18327380363E+03 -0.95270135893E+02  0.51580582742E+03  0.68463226442E+03  0.40000000000E+03 0. -1.
   -9000007    1    1    2    0  501 -0.18327380363E+03  0.95270135893E+02  0.47519301266E+03  0.65457931924E+03  0.40000000000E+03 0. -1.
<mgrwt>
<rscale>  2 0.45018406E+03</rscale>
<asrwt>0</asrwt>
<pdfrwt beam="1">  1        2 0.17924695E+00 0.45018406E+03</pdfrwt>
<pdfrwt beam="2">  1       -2 0.26785596E-01 0.45018406E+03</pdfrwt>
<totfact> 0.25953040E+02</totfact>
</mgrwt>
</event>
<event>
 4    1  0.2474915E-002  0.4430009E+03  0.7818608E-02  0.1029830E+00
         -2   -1    0    0    0  501 -0.00000000000E+00  0.00000000000E+00  0.14616804856E+03  0.14616804856E+03  0.00000000000E+00 0.  1.
          2   -1    0    0  502    0  0.00000000000E+00 -0.00000000000E+00 -0.14545950361E+04  0.14545950361E+04  0.00000000000E+00 0. -1.
    9000007    1    1    2  502    0  0.14591150330E+03 -0.12230966639E+03 -0.87627045056E+03  0.98188579978E+03  0.40000000000E+03 0. -1.
   -9000007    1    1    2    0  501 -0.14591150330E+03  0.12230966639E+03 -0.43215653700E+03  0.61887728490E+03  0.40000000000E+03 0.  1.
<mgrwt>
<rscale>  2 0.44300093E+03</rscale>
<asrwt>0</asrwt>
<pdfrwt beam="1">  1        2 0.22378385E+00 0.44300093E+03</pdfrwt>
<pdfrwt beam="2">  1       -2 0.22487392E-01 0.44300093E+03</pdfrwt>
<totfact> 0.24328012E+02</totfact>
</mgrwt>
</event>
<event>
 4    1  0.2474915E-002  0.4829738E+03  0.7818608E-02  0.1018321E+00
          2   -1    0    0  502    0  0.00000000000E+00  0.00000000000E+00  0.63512661257E+03  0.63512661257E+03  0.00000000000E+00 0. -1.
         -2   -1    0    0    0  501 -0.00000000000E+00 -0.00000000000E+00 -0.42008432312E+03  0.42008432312E+03  0.00000000000E+00 0.  1.
    9000007    1    1    2  502    0  0.93718496600E+01  0.27051038669E+03 -0.79552261978E+02  0.48948162709E+03  0.40000000000E+03 0.  1.
   -9000007    1    1    2    0  501 -0.93718496600E+01 -0.27051038669E+03  0.29459455143E+03  0.56572930860E+03  0.40000000000E+03 0. -1.
<mgrwt>
<rscale>  2 0.48297381E+03</rscale>
<asrwt>0</asrwt>
<pdfrwt beam="1">  1        2 0.97711787E-01 0.48297381E+03</pdfrwt>
<pdfrwt beam="2">  1       -2 0.64628357E-01 0.48297381E+03</pdfrwt>
<totfact> 0.10542533E+02</totfact>
</mgrwt>
</event>
<event>
 4    1  0.2474915E-002  0.4495984E+03  0.7818608E-02  0.1027842E+00
         -1   -1    0    0    0  501 -0.00000000000E+00  0.00000000000E+00  0.69436067568E+03  0.69436067568E+03  0.00000000000E+00 0. -1.
          1   -1    0    0  502    0  0.00000000000E+00 -0.00000000000E+00 -0.37904344971E+03  0.37904344971E+03  0.00000000000E+00 0.  1.
    9000007    1    1    2  502    0 -0.19557678106E+03  0.62357255899E+02 -0.10083739608E+03  0.46076771274E+03  0.40000000000E+03 0.  1.
   -9000007    1    1    2    0  501  0.19557678106E+03 -0.62357255899E+02  0.41615462205E+03  0.61263641265E+03  0.40000000000E+03 0. -1.
<mgrwt>
<rscale>  2 0.44959838E+03</rscale>
<asrwt>0</asrwt>
<pdfrwt beam="1">  1        1 0.58314377E-01 0.44959838E+03</pdfrwt>
<pdfrwt beam="2">  1       -1 0.10682472E+00 0.44959838E+03</pdfrwt>
<totfact> 0.55416242E+01</totfact>
</mgrwt>
</event>
<event>
 4    1  0.2474915E-002  0.4416167E+03  0.7818608E-02  0.1030252E+00
          2   -1    0    0  502    0  0.00000000000E+00  0.00000000000E+00  0.74264602045E+03  0.74264602045E+03  0.00000000000E+00 0.  1.
         -2   -1    0    0    0  501 -0.00000000000E+00 -0.00000000000E+00 -0.26370364206E+03  0.26370364206E+03  0.00000000000E+00 0. -1.
    9000007    1    1    2  502    0  0.95189646510E+02 -0.16113423755E+03  0.20704805508E+03  0.48774399886E+03  0.40000000000E+03 0. -1.
   -9000007    1    1    2    0  501 -0.95189646510E+02  0.16113423755E+03  0.27189432331E+03  0.51860566364E+03  0.40000000000E+03 0. -1.
<mgrwt>
<rscale>  2 0.44161670E+03</rscale>
<asrwt>0</asrwt>
<pdfrwt beam="1">  1        2 0.11425323E+00 0.44161670E+03</pdfrwt>
<pdfrwt beam="2">  1       -2 0.40569792E-01 0.44161670E+03</pdfrwt>
<totfact> 0.22454843E+02</totfact>
</mgrwt>
</event>
<event>
 4    1  0.2474915E-002  0.4850483E+03  0.7818608E-02  0.1017757E+00
          2   -1    0    0  502    0  0.00000000000E+00  0.00000000000E+00  0.78396452812E+03  0.78396452812E+03  0.00000000000E+00 0.  1.
         -2   -1    0    0    0  501 -0.00000000000E+00 -0.00000000000E+00 -0.30265891430E+03  0.30265891430E+03  0.00000000000E+00 0. -1.
    9000007    1    1    2  502    0 -0.16890197932E+03  0.21620353893E+03  0.29055924918E+03  0.56541712580E+03  0.40000000000E+03 0. -1.
   -9000007    1    1    2    0  501  0.16890197932E+03 -0.21620353893E+03  0.19074636464E+03  0.52120631662E+03  0.40000000000E+03 0.  1.
<mgrwt>
<rscale>  2 0.48504830E+03</rscale>
<asrwt>0</asrwt>
<pdfrwt beam="1">  1        2 0.12060993E+00 0.48504830E+03</pdfrwt>
<pdfrwt beam="2">  1       -2 0.46562910E-01 0.48504830E+03</pdfrwt>
<totfact> 0.15923761E+02</totfact>
</mgrwt>
</event>
<event>
 4    1  0.2474915E-002  0.5927831E+03  0.7818608E-02  0.9920493E-01
         -2   -1    0    0    0  501 -0.00000000000E+00  0.00000000000E+00  0.12113656763E+03  0.12113656763E+03  0.00000000000E+00 0.  1.
          2   -1    0    0  502    0  0.00000000000E+00 -0.00000000000E+00 -0.29400216963E+04  0.29400216963E+04  0.00000000000E+00 0. -1.
    9000007    1    1    2  502    0 -0.33536664131E+03 -0.28092890532E+03 -0.15862477321E+04  0.16933911839E+04  0.40000000000E+03 0. -1.
   -9000007    1    1    2    0  501  0.33536664131E+03  0.28092890532E+03 -0.12326373966E+04  0.13677670801E+04  0.40000000000E+03 0.  1.
<mgrwt>
<rscale>  2 0.59278313E+03</rscale>
<asrwt>0</asrwt>
<pdfrwt beam="1">  1        2 0.45231099E+00 0.59278313E+03</pdfrwt>
<pdfrwt beam="2">  1       -2 0.18636397E-01 0.59278313E+03</pdfrwt>
<totfact> 0.49523247E+01</totfact>
</mgrwt>
</event>
<event>
 4    1  0.2474915E-002  0.4108961E+03  0.7818608E-02  0.1040071E+00
          1   -1    0    0  502    0  0.00000000000E+00  0.00000000000E+00  0.20422617228E+04  0.20422617228E+04  0.00000000000E+00 0.  1.
         -1   -1    0    0    0  501 -0.00000000000E+00 -0.00000000000E+00 -0.14922578923E+03  0.14922578923E+03  0.00000000000E+00 0. -1.
    9000007    1    1    2  502    0  0.83706946664E+02 -0.42763761206E+02  0.21474378854E+03  0.46362753036E+03  0.40000000000E+03 0. -1.
   -9000007    1    1    2    0  501 -0.83706946664E+02  0.42763761206E+02  0.16782921450E+04  0.17278599817E+04  0.40000000000E+03 0.  1.
<mgrwt>
<rscale>  2 0.41089608E+03</rscale>
<asrwt>0</asrwt>
<pdfrwt beam="1">  1        1 0.31419409E+00 0.41089608E+03</pdfrwt>
<pdfrwt beam="2">  1       -1 0.22957815E-01 0.41089608E+03</pdfrwt>
<totfact> 0.49370829E+01</totfact>
</mgrwt>
</event>
<event>
 4    1  0.2474915E-002  0.4119237E+03  0.7818608E-02  0.1039727E+00
         -2   -1    0    0    0  501 -0.00000000000E+00  0.00000000000E+00  0.28716629630E+03  0.28716629630E+03  0.00000000000E+00 0. -1.
          2   -1    0    0  502    0  0.00000000000E+00 -0.00000000000E+00 -0.59746940955E+03  0.59746940955E+03  0.00000000000E+00 0.  1.
    9000007    1    1    2  502    0  0.34627599929E+02 -0.92097935181E+02 -0.20159964470E+03  0.45861041973E+03  0.40000000000E+03 0.  1.
   -9000007    1    1    2    0  501 -0.34627599929E+02  0.92097935181E+02 -0.10870346856E+03  0.42602528613E+03  0.40000000000E+03 0.  1.
<mgrwt>
<rscale>  2 0.41192366E+03</rscale>
<asrwt>0</asrwt>
<pdfrwt beam="1">  1        2 0.91918372E-01 0.41192366E+03</pdfrwt>
<pdfrwt beam="2">  1       -2 0.44179430E-01 0.41192366E+03</pdfrwt>
<totfact> 0.24852208E+02</totfact>
</mgrwt>
</event>
<event>
 4    1  0.2474915E-002  0.4335036E+03  0.7818608E-02  0.1032759E+00
          1   -1    0    0  502    0  0.00000000000E+00  0.00000000000E+00  0.10139154637E+04  0.10139154637E+04  0.00000000000E+00 0.  1.
         -1   -1    0    0    0  501 -0.00000000000E+00 -0.00000000000E+00 -0.23076796099E+03  0.23076796099E+03  0.00000000000E+00 0. -1.
    9000007    1    1    2  502    0  0.15739797287E+03 -0.56136188055E+02  0.66767798532E+03  0.79606487522E+03  0.40000000000E+03 0.  1.
   -9000007    1    1    2    0  501 -0.15739797287E+03  0.56136188055E+02  0.11546951737E+03  0.44861854946E+03  0.40000000000E+03 0. -1.
<mgrwt>
<rscale>  2 0.43350363E+03</rscale>
<asrwt>0</asrwt>
<pdfrwt beam="1">  1        1 0.15598699E+00 0.43350363E+03</pdfrwt>
<pdfrwt beam="2">  1       -1 0.35502764E-01 0.43350363E+03</pdfrwt>
<totfact> 0.11731874E+02</totfact>
</mgrwt>
</event>
<event>
 4    1  0.2474915E-002  0.5364784E+03  0.7818608E-02  0.1004673E+00
         -2   -1    0    0    0  501 -0.00000000000E+00  0.00000000000E+00  0.18888434724E+03  0.18888434724E+03  0.00000000000E+00 0.  1.
          2   -1    0    0  502    0  0.00000000000E+00 -0.00000000000E+00 -0.17694502213E+04  0.17694502213E+04  0.00000000000E+00 0. -1.
    9000007    1    1    2  502    0  0.87838124390E+02 -0.34654513258E+03 -0.11551684980E+04  0.12736653108E+04  0.40000000000E+03 0. -1.
   -9000007    1    1    2    0  501 -0.87838124390E+02  0.34654513258E+03 -0.42539737603E+03  0.68466925778E+03  0.40000000000E+03 0.  1.
<mgrwt>
<rscale>  2 0.53647839E+03</rscale>
<asrwt>0</asrwt>
<pdfrwt beam="1">  1        2 0.27222311E+00 0.53647839E+03</pdfrwt>
<pdfrwt beam="2">  1       -2 0.29059130E-01 0.53647839E+03</pdfrwt>
<totfact> 0.10226328E+02</totfact>
</mgrwt>
</event>
<event>
 4    1  0.2474915E-002  0.4874895E+03  0.7818608E-02  0.1017097E+00
         -2   -1    0    0    0  501 -0.00000000000E+00  0.00000000000E+00  0.21529759148E+03  0.21529759148E+03  0.00000000000E+00 0.  1.
          2   -1    0    0  502    0  0.00000000000E+00 -0.00000000000E+00 -0.11412319002E+04  0.11412319002E+04  0.00000000000E+00 0. -1.
    9000007    1    1    2  502    0  0.26058500204E+03  0.98698654361E+02 -0.34013272018E+03  0.59442092409E+03  0.40000000000E+03 0.  1.
   -9000007    1    1    2    0  501 -0.26058500204E+03 -0.98698654361E+02 -0.58580158856E+03  0.76210856761E+03  0.40000000000E+03 0.  1.
<mgrwt>
<rscale>  2 0.48748945E+03</rscale>
<asrwt>0</asrwt>
<pdfrwt beam="1">  1        2 0.17557414E+00 0.48748945E+03</pdfrwt>
<pdfrwt beam="2">  1       -2 0.33122707E-01 0.48748945E+03</pdfrwt>
<totfact> 0.18072769E+02</totfact>
</mgrwt>
</event>
<event>
 4    1  0.2474915E-002  0.4834359E+03  0.7818608E-02  0.1018195E+00
          2   -1    0    0  502    0  0.00000000000E+00  0.00000000000E+00  0.10393300340E+04  0.10393300340E+04  0.00000000000E+00 0.  1.
         -2   -1    0    0    0  501 -0.00000000000E+00 -0.00000000000E+00 -0.22613513826E+03  0.22613513826E+03  0.00000000000E+00 0. -1.
    9000007    1    1    2  502    0 -0.12275135776E+03  0.24216186863E+03  0.35920111886E+03  0.60227544383E+03  0.40000000000E+03 0.  1.
   -9000007    1    1    2    0  501  0.12275135776E+03 -0.24216186863E+03  0.45399377688E+03  0.66318972844E+03  0.40000000000E+03 0.  1.
<mgrwt>
<rscale>  2 0.48343590E+03</rscale>
<asrwt>0</asrwt>
<pdfrwt beam="1">  1        2 0.15989693E+00 0.48343590E+03</pdfrwt>
<pdfrwt beam="2">  1       -2 0.34790022E-01 0.48343590E+03</pdfrwt>
<totfact> 0.18999298E+02</totfact>
</mgrwt>
</event>
<event>
 4    1  0.2474915E-002  0.4141319E+03  0.7818608E-02  0.1038993E+00
         -3   -1    0    0    0  501 -0.00000000000E+00  0.00000000000E+00  0.58175065463E+03  0.58175065463E+03  0.00000000000E+00 0.  1.
          3   -1    0    0  502    0  0.00000000000E+00 -0.00000000000E+00 -0.31109824825E+03  0.31109824825E+03  0.00000000000E+00 0. -1.
    9000007    1    1    2  502    0  0.78553644185E+02  0.73037898956E+02  0.33172894067E+02  0.41545836205E+03  0.40000000000E+03 0. -1.
   -9000007    1    1    2    0  501 -0.78553644185E+02 -0.73037898956E+02  0.23747951232E+03  0.47739054083E+03  0.40000000000E+03 0.  1.
<mgrwt>
<rscale>  2 0.41413187E+03</rscale>
<asrwt>0</asrwt>
<pdfrwt beam="1">  1        3 0.47861269E-01 0.41413187E+03</pdfrwt>
<pdfrwt beam="2">  1       -3 0.89500101E-01 0.41413187E+03</pdfrwt>
<totfact> 0.12722428E+01</totfact>
</mgrwt>
</event>
<event>
 4    1  0.2474915E-002  0.4282886E+03  0.7818608E-02  0.1034402E+00
          1   -1    0    0  502    0  0.00000000000E+00  0.00000000000E+00  0.44261021253E+03  0.44261021253E+03  0.00000000000E+00 0.  1.
         -1   -1    0    0    0  501 -0.00000000000E+00 -0.00000000000E+00 -0.48631967405E+03  0.48631967405E+03  0.00000000000E+00 0. -1.
    9000007    1    1    2  502    0 -0.70207687603E+02 -0.13602220353E+03 -0.20043104384E+03  0.47286759520E+03  0.40000000000E+03 0. -1.
   -9000007    1    1    2    0  501  0.70207687603E+02  0.13602220353E+03  0.15672158233E+03  0.45606229138E+03  0.40000000000E+03 0.  1.
<mgrwt>
<rscale>  2 0.42828864E+03</rscale>
<asrwt>0</asrwt>
<pdfrwt beam="1">  1        1 0.68093879E-01 0.42828864E+03</pdfrwt>
<pdfrwt beam="2">  1       -1 0.74818411E-01 0.42828864E+03</pdfrwt>
<totfact> 0.98448908E+01</totfact>
</mgrwt>
</event>
<event>
 4    1  0.2474915E-002  0.4967208E+03  0.7818608E-02  0.1014638E+00
         -2   -1    0    0    0  501 -0.00000000000E+00  0.00000000000E+00  0.24594536594E+03  0.24594536594E+03  0.00000000000E+00 0.  1.
          2   -1    0    0  502    0  0.00000000000E+00 -0.00000000000E+00 -0.10209068539E+04  0.10209068539E+04  0.00000000000E+00 0. -1.
    9000007    1    1    2  502    0 -0.26309028178E+03  0.13234449228E+03 -0.47090935065E+03  0.68446123158E+03  0.40000000000E+03 0.  1.
   -9000007    1    1    2    0  501  0.26309028178E+03 -0.13234449228E+03 -0.30405213733E+03  0.58239098827E+03  0.40000000000E+03 0.  1.
<mgrwt>
<rscale>  2 0.49672081E+03</rscale>
<asrwt>0</asrwt>
<pdfrwt beam="1">  1        2 0.15706259E+00 0.49672081E+03</pdfrwt>
<pdfrwt beam="2">  1       -2 0.37837749E-01 0.49672081E+03</pdfrwt>
<totfact> 0.16603829E+02</totfact>
</mgrwt>
</event>
<event>
 4    1  0.2474915E-002  0.4190393E+03  0.7818608E-02  0.1037379E+00
         -1   -1    0    0    0  501 -0.00000000000E+00  0.00000000000E+00  0.32380082924E+03  0.32380082924E+03  0.00000000000E+00 0.  1.
          1   -1    0    0  502    0  0.00000000000E+00 -0.00000000000E+00 -0.60518797765E+03  0.60518797765E+03  0.00000000000E+00 0. -1.
    9000007    1    1    2  502    0  0.10452071164E+03  0.68332436042E+02  0.90520778731E+01  0.41913701947E+03  0.40000000000E+03 0.  1.
   -9000007    1    1    2    0  501 -0.10452071164E+03 -0.68332436042E+02 -0.29043922628E+03  0.50985178742E+03  0.40000000000E+03 0. -1.
<mgrwt>
<rscale>  2 0.41903926E+03</rscale>
<asrwt>0</asrwt>
<pdfrwt beam="1">  1        1 0.93105842E-01 0.41903926E+03</pdfrwt>
<pdfrwt beam="2">  1       -1 0.49815512E-01 0.41903926E+03</pdfrwt>
<totfact> 0.14263975E+02</totfact>
</mgrwt>
</event>
<event>
 4    1  0.2474915E-002  0.5989335E+03  0.7818608E-02  0.9907621E-01
         -1   -1    0    0    0  501 -0.00000000000E+00  0.00000000000E+00  0.75532061729E+03  0.75532061729E+03  0.00000000000E+00 0. -1.
          1   -1    0    0  502    0  0.00000000000E+00 -0.00000000000E+00 -0.50429223701E+03  0.50429223701E+03  0.00000000000E+00 0.  1.
    9000007    1    1    2  502    0 -0.43135442189E+03 -0.11249285433E+03  0.27749588062E+03  0.66009487448E+03  0.40000000000E+03 0.  1.
   -9000007    1    1    2    0  501  0.43135442189E+03  0.11249285433E+03 -0.26467500335E+02  0.59951797982E+03  0.40000000000E+03 0.  1.
<mgrwt>
<rscale>  2 0.59893345E+03</rscale>
<asrwt>0</asrwt>
<pdfrwt beam="1">  1        1 0.77583421E-01 0.59893345E+03</pdfrwt>
<pdfrwt beam="2">  1       -1 0.11620317E+00 0.59893345E+03</pdfrwt>
<totfact> 0.30516020E+01</totfact>
</mgrwt>
</event>
<event>
 4    1  0.2474915E-002  0.4346824E+03  0.7818608E-02  0.1032391E+00
          2   -1    0    0  502    0  0.00000000000E+00  0.00000000000E+00  0.31601931731E+04  0.31601931731E+04  0.00000000000E+00 0. -1.
         -2   -1    0    0    0  501 -0.00000000000E+00 -0.00000000000E+00 -0.59823210094E+02  0.59823210094E+02  0.00000000000E+00 0.  1.
    9000007    1    1    2  502    0 -0.12525750103E+03  0.11514908265E+03  0.15123964092E+04  0.15736237325E+04  0.40000000000E+03 0.  1.
   -9000007    1    1    2    0  501  0.12525750103E+03 -0.11514908265E+03  0.15879735537E+04  0.16463926507E+04  0.40000000000E+03 0.  1.
<mgrwt>
<rscale>  2 0.43468236E+03</rscale>
<asrwt>0</asrwt>
<pdfrwt beam="1">  1        2 0.48618344E+00 0.43468236E+03</pdfrwt>
<pdfrwt beam="2">  1       -2 0.92035732E-02 0.43468236E+03</pdfrwt>
<totfact> 0.12094749E+02</totfact>
</mgrwt>
</event>
<event>
 4    1  0.2474915E-002  0.4596496E+03  0.7818608E-02  0.1024883E+00
          1   -1    0    0  502    0  0.00000000000E+00  0.00000000000E+00  0.25112187615E+03  0.25112187615E+03  0.00000000000E+00 0.  1.
         -1   -1    0    0    0  501 -0.00000000000E+00 -0.00000000000E+00 -0.92907358005E+03  0.92907358005E+03  0.00000000000E+00 0. -1.
    9000007    1    1    2  502    0 -0.88290741681E+02  0.20852448564E+03 -0.15763599178E+03  0.48592882409E+03  0.40000000000E+03 0.  1.
   -9000007    1    1    2    0  501  0.88290741681E+02 -0.20852448564E+03 -0.52031571212E+03  0.69426663211E+03  0.40000000000E+03 0. -1.
<mgrwt>
<rscale>  2 0.45964956E+03</rscale>
<asrwt>0</asrwt>
<pdfrwt beam="1">  1        1 0.38634135E-01 0.45964956E+03</pdfrwt>
<pdfrwt beam="2">  1       -1 0.14293439E+00 0.45964956E+03</pdfrwt>
<totfact> 0.46092099E+01</totfact>
</mgrwt>
</event>
<event>
 4    1  0.2474915E-002  0.4112121E+03  0.7818608E-02  0.1039965E+00
          2   -1    0    0  502    0  0.00000000000E+00  0.00000000000E+00  0.25287647070E+03  0.25287647070E+03  0.00000000000E+00 0. -1.
         -2   -1    0    0    0  501 -0.00000000000E+00 -0.00000000000E+00 -0.73888087068E+03  0.73888087068E+03  0.00000000000E+00 0.  1.
    9000007    1    1    2  502    0 -0.22839208167E+02  0.92594464245E+02 -0.39584180548E+03  0.57077675076E+03  0.40000000000E+03 0.  1.
   -9000007    1    1    2    0  501  0.22839208167E+02 -0.92594464245E+02 -0.90162594502E+02  0.42098059063E+03  0.40000000000E+03 0. -1.
<mgrwt>
<rscale>  2 0.41121207E+03</rscale>
<asrwt>0</asrwt>
<pdfrwt beam="1">  1        2 0.38904073E-01 0.41121207E+03</pdfrwt>
<pdfrwt beam="2">  1       -2 0.11367398E+00 0.41121207E+03</pdfrwt>
<totfact> 0.83002118E+01</totfact>
</mgrwt>
</event>
<event>
 4    1  0.2474915E-002  0.4334437E+03  0.7818608E-02  0.1032778E+00
         -2   -1    0    0    0  501 -0.00000000000E+00  0.00000000000E+00  0.28575355374E+03  0.28575355374E+03  0.00000000000E+00 0.  1.
          2   -1    0    0  502    0  0.00000000000E+00 -0.00000000000E+00 -0.89638827174E+03  0.89638827174E+03  0.00000000000E+00 0. -1.
    9000007    1    1    2  502    0 -0.26876699218E+02 -0.16477595905E+03 -0.16333693524E+00  0.43344376835E+03  0.40000000000E+03 0.  1.
   -9000007    1    1    2    0  501  0.26876699218E+02  0.16477595905E+03 -0.61047138107E+03  0.74869805713E+03  0.40000000000E+03 0. -1.
<mgrwt>
<rscale>  2 0.43344374E+03</rscale>
<asrwt>0</asrwt>
<pdfrwt beam="1">  1        2 0.13790589E+00 0.43344374E+03</pdfrwt>
<pdfrwt beam="2">  1       -2 0.43962086E-01 0.43344374E+03</pdfrwt>
<totfact> 0.15004048E+02</totfact>
</mgrwt>
</event>
<event>
 4    1  0.2474915E-002  0.4084356E+03  0.7818608E-02  0.1040897E+00
         -1   -1    0    0    0  501 -0.00000000000E+00  0.00000000000E+00  0.43916356598E+03  0.43916356598E+03  0.00000000000E+00 0. -1.
          1   -1    0    0  502    0  0.00000000000E+00 -0.00000000000E+00 -0.38116106846E+03  0.38116106846E+03  0.00000000000E+00 0.  1.
    9000007    1    1    2  502    0 -0.63294115582E+02  0.53042703513E+02  0.50167425337E+01  0.40846645048E+03  0.40000000000E+03 0. -1.
   -9000007    1    1    2    0  501  0.63294115582E+02 -0.53042703513E+02  0.52985754976E+02  0.41185818396E+03  0.40000000000E+03 0.  1.
<mgrwt>
<rscale>  2 0.40843564E+03</rscale>
<asrwt>0</asrwt>
<pdfrwt beam="1">  1        1 0.58640164E-01 0.40843564E+03</pdfrwt>
<pdfrwt beam="2">  1       -1 0.67563626E-01 0.40843564E+03</pdfrwt>
<totfact> 0.14762420E+02</totfact>
</mgrwt>
</event>
<event>
 4    1  0.2474915E-002  0.5020962E+03  0.7818608E-02  0.1013233E+00
          2   -1    0    0  502    0  0.00000000000E+00  0.00000000000E+00  0.67142007194E+03  0.67142007194E+03  0.00000000000E+00 0.  1.
         -2   -1    0    0    0  501 -0.00000000000E+00 -0.00000000000E+00 -0.50867640437E+03  0.50867640437E+03  0.00000000000E+00 0. -1.
    9000007    1    1    2  502    0 -0.66635866681E+02  0.29607476672E+03  0.38331358932E+03  0.63168814614E+03  0.40000000000E+03 0.  1.
   -9000007    1    1    2    0  501  0.66635866681E+02 -0.29607476672E+03 -0.22056992175E+03  0.54840833017E+03  0.40000000000E+03 0. -1.
<mgrwt>
<rscale>  2 0.50209621E+03</rscale>
<asrwt>0</asrwt>
<pdfrwt beam="1">  1        2 0.10329540E+00 0.50209621E+03</pdfrwt>
<pdfrwt beam="2">  1       -2 0.78257908E-01 0.50209621E+03</pdfrwt>
<totfact> 0.64828794E+01</totfact>
</mgrwt>
</event>
<event>
 4    1  0.2474915E-002  0.4177085E+03  0.7818608E-02  0.1037815E+00
          2   -1    0    0  502    0  0.00000000000E+00  0.00000000000E+00  0.10331389756E+04  0.10331389756E+04  0.00000000000E+00 0.  1.
         -2   -1    0    0    0  501 -0.00000000000E+00 -0.00000000000E+00 -0.27889077634E+03  0.27889077634E+03  0.00000000000E+00 0. -1.
    9000007    1    1    2  502    0  0.11311012753E+03  0.41066825788E+02  0.78913321390E+03  0.89286707545E+03  0.40000000000E+03 0.  1.
   -9000007    1    1    2    0  501 -0.11311012753E+03 -0.41066825788E+02 -0.34885014625E+02  0.41916267651E+03  0.40000000000E+03 0. -1.
<mgrwt>
<rscale>  2 0.41770849E+03</rscale>
<asrwt>0</asrwt>
<pdfrwt beam="1">  1        2 0.15894446E+00 0.41770849E+03</pdfrwt>
<pdfrwt beam="2">  1       -2 0.42906274E-01 0.41770849E+03</pdfrwt>
<totfact> 0.12899031E+02</totfact>
</mgrwt>
</event>
<event>
 4    1  0.2474915E-002  0.4411898E+03  0.7818608E-02  0.1030382E+00
         -2   -1    0    0    0  501 -0.00000000000E+00  0.00000000000E+00  0.84375850103E+02  0.84375850103E+02  0.00000000000E+00 0. -1.
          2   -1    0    0  502    0  0.00000000000E+00 -0.00000000000E+00 -0.23372498743E+04  0.23372498743E+04  0.00000000000E+00 0.  1.
    9000007    1    1    2  502    0 -0.14419823657E+02 -0.18558163455E+03 -0.98851041390E+03  0.10824977195E+04  0.40000000000E+03 0. -1.
   -9000007    1    1    2    0  501  0.14419823657E+02  0.18558163455E+03 -0.12643636103E+04  0.13391280049E+04  0.40000000000E+03 0.  1.
<mgrwt>
<rscale>  2 0.44118984E+03</rscale>
<asrwt>0</asrwt>
<pdfrwt beam="1">  1        2 0.35957690E+00 0.44118984E+03</pdfrwt>
<pdfrwt beam="2">  1       -2 0.12980900E-01 0.44118984E+03</pdfrwt>
<totfact> 0.20707314E+02</totfact>
</mgrwt>
</event>
<event>
 4    1  0.2474915E-002  0.5914006E+03  0.7818608E-02  0.9923409E-01
          1   -1    0    0  502    0  0.00000000000E+00  0.00000000000E+00  0.81395082956E+03  0.81395082956E+03  0.00000000000E+00 0.  1.
         -1   -1    0    0    0  501 -0.00000000000E+00 -0.00000000000E+00 -0.52945302437E+03  0.52945302437E+03  0.00000000000E+00 0. -1.
    9000007    1    1    2  502    0 -0.34615893835E+03  0.26444033405E+03  0.43380748817E+03  0.73344641090E+03  0.40000000000E+03 0.  1.
   -9000007    1    1    2    0  501  0.34615893835E+03 -0.26444033405E+03 -0.14930968298E+03  0.60995744303E+03  0.40000000000E+03 0. -1.
<mgrwt>
<rscale>  2 0.59140063E+03</rscale>
<asrwt>0</asrwt>
<pdfrwt beam="1">  1        1 0.12522321E+00 0.59140063E+03</pdfrwt>
<pdfrwt beam="2">  1       -1 0.81454311E-01 0.59140063E+03</pdfrwt>
<totfact> 0.33698584E+01</totfact>
</mgrwt>
</event>
<event>
 4    1  0.2474915E-002  0.4034091E+03  0.7818608E-02  0.1042606E+00
         -2   -1    0    0    0  501 -0.00000000000E+00  0.00000000000E+00  0.76962295689E+02  0.76962295689E+02  0.00000000000E+00 0. -1.
          2   -1    0    0  502    0  0.00000000000E+00 -0.00000000000E+00 -0.39965191989E+04  0.39965191989E+04  0.00000000000E+00 0.  1.
    9000007    1    1    2  502    0  0.48257228092E+02  0.20252024613E+02 -0.33574451939E+04  0.33815938749E+04  0.40000000000E+03 0.  1.
   -9000007    1    1    2    0  501 -0.48257228092E+02 -0.20252024613E+02 -0.56211170930E+03  0.69188761970E+03  0.40000000000E+03 0. -1.
<mgrwt>
<rscale>  2 0.40340910E+03</rscale>
<asrwt>0</asrwt>
<pdfrwt beam="1">  1        2 0.61484917E+00 0.40340910E+03</pdfrwt>
<pdfrwt beam="2">  1       -2 0.11840352E-01 0.40340910E+03</pdfrwt>
<totfact> 0.21537714E+01</totfact>
</mgrwt>
</event>
<event>
 4    1  0.2474915E-002  0.4245909E+03  0.7818608E-02  0.1035582E+00
         -2   -1    0    0    0  501 -0.00000000000E+00  0.00000000000E+00  0.13891757326E+03  0.13891757326E+03  0.00000000000E+00 0.  1.
          2   -1    0    0  502    0  0.00000000000E+00 -0.00000000000E+00 -0.13110148721E+04  0.13110148721E+04  0.00000000000E+00 0. -1.
    9000007    1    1    2  502    0 -0.95232744340E+02 -0.10586878114E+03 -0.65902731856E+03  0.78396076497E+03  0.40000000000E+03 0.  1.
   -9000007    1    1    2    0  501  0.95232744340E+02  0.10586878114E+03 -0.51306998026E+03  0.66597168037E+03  0.40000000000E+03 0.  1.
<mgrwt>
<rscale>  2 0.42459095E+03</rscale>
<asrwt>0</asrwt>
<pdfrwt beam="1">  1        2 0.20169460E+00 0.42459095E+03</pdfrwt>
<pdfrwt beam="2">  1       -2 0.21371934E-01 0.42459095E+03</pdfrwt>
<totfact> 0.32034278E+02</totfact>
</mgrwt>
</event>
<event>
 4    1  0.2474915E-002  0.4967192E+03  0.7818608E-02  0.1014639E+00
          2   -1    0    0  502    0  0.00000000000E+00  0.00000000000E+00  0.18601421465E+04  0.18601421465E+04  0.00000000000E+00 0.  1.
         -2   -1    0    0    0  501 -0.00000000000E+00 -0.00000000000E+00 -0.13268130559E+03  0.13268130559E+03  0.00000000000E+00 0. -1.
    9000007    1    1    2  502    0 -0.14517871009E+03 -0.25622864943E+03  0.88122814444E+03  0.10115794686E+04  0.40000000000E+03 0.  1.
   -9000007    1    1    2    0  501  0.14517871009E+03  0.25622864943E+03  0.84623269645E+03  0.98124398352E+03  0.40000000000E+03 0. -1.
<mgrwt>
<rscale>  2 0.49671922E+03</rscale>
<asrwt>0</asrwt>
<pdfrwt beam="1">  1        2 0.28617570E+00 0.49671922E+03</pdfrwt>
<pdfrwt beam="2">  1       -2 0.20412510E-01 0.49671922E+03</pdfrwt>
<totfact> 0.17273044E+02</totfact>
</mgrwt>
</event>
<event>
 4    1  0.2474915E-002  0.5952139E+03  0.7818608E-02  0.9915386E-01
          1   -1    0    0  502    0  0.00000000000E+00  0.00000000000E+00  0.26759380259E+04  0.26759380259E+04  0.00000000000E+00 0. -1.
         -1   -1    0    0    0  501 -0.00000000000E+00 -0.00000000000E+00 -0.13255844466E+03  0.13255844466E+03  0.00000000000E+00 0.  1.
    9000007    1    1    2  502    0 -0.37944867789E+03  0.22427269239E+03  0.13210705502E+04  0.14489675422E+04  0.40000000000E+03 0. -1.
   -9000007    1    1    2    0  501  0.37944867789E+03 -0.22427269239E+03  0.12223090310E+04  0.13595289284E+04  0.40000000000E+03 0.  1.
<mgrwt>
<rscale>  2 0.59521386E+03</rscale>
<asrwt>0</asrwt>
<pdfrwt beam="1">  1        1 0.41168273E+00 0.59521386E+03</pdfrwt>
<pdfrwt beam="2">  1       -1 0.20393609E-01 0.59521386E+03</pdfrwt>
<totfact> 0.21764557E+01</totfact>
</mgrwt>
</event>
<event>
 4    1  0.2474915E-002  0.4507932E+03  0.7818608E-02  0.1027486E+00
         -2   -1    0    0    0  501 -0.00000000000E+00  0.00000000000E+00  0.16187562666E+04  0.16187562666E+04  0.00000000000E+00 0. -1.
          2   -1    0    0  502    0  0.00000000000E+00 -0.00000000000E+00 -0.12577518359E+03  0.12577518359E+03  0.00000000000E+00 0.  1.
    9000007    1    1    2  502    0 -0.20685414345E+03  0.20636301749E+02  0.70856608830E+03  0.83980973744E+03  0.40000000000E+03 0. -1.
   -9000007    1    1    2    0  501  0.20685414345E+03 -0.20636301749E+02  0.78441499473E+03  0.90472171277E+03  0.40000000000E+03 0. -1.
<mgrwt>
<rscale>  2 0.45079318E+03</rscale>
<asrwt>0</asrwt>
<pdfrwt beam="1">  1        2 0.19350029E-01 0.45079318E+03</pdfrwt>
<pdfrwt beam="2">  1       -2 0.24903941E+00 0.45079318E+03</pdfrwt>
<totfact> 0.20388798E+01</totfact>
</mgrwt>
</event>
<event>
 4    1  0.2474915E-002  0.4079872E+03  0.7818608E-02  0.1041049E+00
         -2   -1    0    0    0  501 -0.00000000000E+00  0.00000000000E+00  0.36058627962E+03  0.36058627962E+03  0.00000000000E+00 0.  1.
          2   -1    0    0  502    0  0.00000000000E+00 -0.00000000000E+00 -0.46164720164E+03  0.46164720164E+03  0.00000000000E+00 0. -1.
    9000007    1    1    2  502    0 -0.27511652418E+02 -0.75476125067E+02 -0.53734449644E+02  0.41151054367E+03  0.40000000000E+03 0. -1.
   -9000007    1    1    2    0  501  0.27511652418E+02  0.75476125067E+02 -0.47326472378E+02  0.41072293759E+03  0.40000000000E+03 0.  1.
<mgrwt>
<rscale>  2 0.40798718E+03</rscale>
<asrwt>0</asrwt>
<pdfrwt beam="1">  1        2 0.71022646E-01 0.40798718E+03</pdfrwt>
<pdfrwt beam="2">  1       -2 0.55474813E-01 0.40798718E+03</pdfrwt>
<totfact> 0.21158519E+02</totfact>
</mgrwt>
</event>
<event>
 4    1  0.2474915E-002  0.5685636E+03  0.7818608E-02  0.9972862E-01
         -2   -1    0    0    0  501 -0.00000000000E+00  0.00000000000E+00  0.23149892576E+03  0.23149892576E+03  0.00000000000E+00 0.  1.
          2   -1    0    0  502    0  0.00000000000E+00 -0.00000000000E+00 -0.14075220275E+04  0.14075220275E+04  0.00000000000E+00 0. -1.
    9000007    1    1    2  502    0  0.30548268305E+03 -0.26447096566E+03 -0.66086738123E+03  0.87178567142E+03  0.40000000000E+03 0. -1.
   -9000007    1    1    2    0  501 -0.30548268305E+03  0.26447096566E+03 -0.51515572051E+03  0.76723528184E+03  0.40000000000E+03 0.  1.
<mgrwt>
<rscale>  2 0.56856359E+03</rscale>
<asrwt>0</asrwt>
<pdfrwt beam="1">  1        2 0.21654185E+00 0.56856359E+03</pdfrwt>
<pdfrwt beam="2">  1       -2 0.35615220E-01 0.56856359E+03</pdfrwt>
<totfact> 0.10986723E+02</totfact>
</mgrwt>
</event>
<event>
 4    1  0.2474915E-002  0.8147058E+03  0.7818608E-02  0.9538972E-01
         -2   -1    0    0    0  501 -0.00000000000E+00  0.00000000000E+00  0.25651202983E+03  0.25651202983E+03  0.00000000000E+00 0.  1.
          2   -1    0    0  502    0  0.00000000000E+00 -0.00000000000E+00 -0.28333028300E+04  0.28333028300E+04  0.00000000000E+00 0. -1.
    9000007    1    1    2  502    0 -0.35868070944E+03 -0.61244887199E+03 -0.17433608981E+04  0.19243317523E+04  0.40000000000E+03 0.  1.
   -9000007    1    1    2    0  501  0.35868070944E+03  0.61244887199E+03 -0.83342990208E+03  0.11654831075E+04  0.40000000000E+03 0. -1.
<mgrwt>
<rscale>  2 0.81470576E+03</rscale>
<asrwt>0</asrwt>
<pdfrwt beam="1">  1        2 0.43589274E+00 0.81470576E+03</pdfrwt>
<pdfrwt beam="2">  1       -2 0.39463390E-01 0.81470576E+03</pdfrwt>
<totfact> 0.14013646E+01</totfact>
</mgrwt>
</event>
<event>
 4    1  0.2474915E-002  0.4135366E+03  0.7818608E-02  0.1039191E+00
         -2   -1    0    0    0  501 -0.00000000000E+00  0.00000000000E+00  0.20069168909E+03  0.20069168909E+03  0.00000000000E+00 0.  1.
          2   -1    0    0  502    0  0.00000000000E+00 -0.00000000000E+00 -0.85239127271E+03  0.85239127271E+03  0.00000000000E+00 0. -1.
    9000007    1    1    2  502    0 -0.96896868428E+02 -0.40292793975E+02 -0.33531949333E+03  0.53240179842E+03  0.40000000000E+03 0. -1.
   -9000007    1    1    2    0  501  0.96896868428E+02  0.40292793975E+02 -0.31638009029E+03  0.52068116337E+03  0.40000000000E+03 0.  1.
<mgrwt>
<rscale>  2 0.41353659E+03</rscale>
<asrwt>0</asrwt>
<pdfrwt beam="1">  1        2 0.13113712E+00 0.41353659E+03</pdfrwt>
<pdfrwt beam="2">  1       -2 0.30875643E-01 0.41353659E+03</pdfrwt>
<totfact> 0.31534945E+02</totfact>
</mgrwt>
</event>
<event>
 4    1  0.2474915E-002  0.4231409E+03  0.7818608E-02  0.1036049E+00
         -1   -1    0    0    0  501 -0.00000000000E+00  0.00000000000E+00  0.43772220660E+03  0.43772220660E+03  0.00000000000E+00 0.  1.
          1   -1    0    0  502    0  0.00000000000E+00 -0.00000000000E+00 -0.41098874987E+03  0.41098874987E+03  0.00000000000E+00 0. -1.
    9000007    1    1    2  502    0 -0.13215747828E+03  0.39781895479E+02  0.42548042562E+02  0.42527465737E+03  0.40000000000E+03 0.  1.
   -9000007    1    1    2    0  501  0.13215747828E+03 -0.39781895479E+02 -0.15814585834E+02  0.42343629910E+03  0.40000000000E+03 0.  1.
<mgrwt>
<rscale>  2 0.42314087E+03</rscale>
<asrwt>0</asrwt>
<pdfrwt beam="1">  1        1 0.63229038E-01 0.42314087E+03</pdfrwt>
<pdfrwt beam="2">  1       -1 0.67341878E-01 0.42314087E+03</pdfrwt>
<totfact> 0.13450489E+02</totfact>
</mgrwt>
</event>
<event>
 4    1  0.2474915E-002  0.5435531E+03  0.7818608E-02  0.1002997E+00
         -2   -1    0    0    0  501 -0.00000000000E+00  0.00000000000E+00  0.13851841676E+03  0.13851841676E+03  0.00000000000E+00 0.  1.
          2   -1    0    0  502    0  0.00000000000E+00 -0.00000000000E+00 -0.23079537605E+04  0.23079537605E+04  0.00000000000E+00 0. -1.
    9000007    1    1    2  502    0  0.28000457390E+03  0.23884601403E+03 -0.14215751523E+04  0.15219480587E+04  0.40000000000E+03 0. -1.
   -9000007    1    1    2    0  501 -0.28000457390E+03 -0.23884601403E+03 -0.74786019146E+03  0.92452411856E+03  0.40000000000E+03 0.  1.
<mgrwt>
<rscale>  2 0.54355311E+03</rscale>
<asrwt>0</asrwt>
<pdfrwt beam="1">  1        2 0.35506980E+00 0.54355311E+03</pdfrwt>
<pdfrwt beam="2">  1       -2 0.21310526E-01 0.54355311E+03</pdfrwt>
<totfact> 0.90996829E+01</totfact>
</mgrwt>
</event>
<event>
 4    1  0.2474915E-002  0.4225664E+03  0.7818608E-02  0.1036234E+00
         -2   -1    0    0    0  501 -0.00000000000E+00  0.00000000000E+00  0.32698652492E+03  0.32698652492E+03  0.00000000000E+00 0. -1.
          2   -1    0    0  502    0  0.00000000000E+00 -0.00000000000E+00 -0.60350651379E+03  0.60350651379E+03  0.00000000000E+00 0.  1.
    9000007    1    1    2  502    0 -0.74156344763E+02  0.11429445774E+03 -0.28176929504E+03  0.50789400682E+03  0.40000000000E+03 0.  1.
   -9000007    1    1    2    0  501  0.74156344763E+02 -0.11429445774E+03  0.52493061661E+01  0.42259903189E+03  0.40000000000E+03 0. -1.
<mgrwt>
<rscale>  2 0.42256643E+03</rscale>
<asrwt>0</asrwt>
<pdfrwt beam="1">  1        2 0.92847155E-01 0.42256643E+03</pdfrwt>
<pdfrwt beam="2">  1       -2 0.50305620E-01 0.42256643E+03</pdfrwt>
<totfact> 0.18941658E+02</totfact>
</mgrwt>
</event>
<event>
 4    1  0.2474915E-002  0.6675965E+03  0.7818608E-02  0.9774310E-01
         -1   -1    0    0    0  501 -0.00000000000E+00  0.00000000000E+00  0.14509895267E+04  0.14509895267E+04  0.00000000000E+00 0. -1.
          1   -1    0    0  502    0  0.00000000000E+00 -0.00000000000E+00 -0.40579669654E+03  0.40579669654E+03  0.00000000000E+00 0.  1.
    9000007    1    1    2  502    0  0.41833937733E+03  0.33268183550E+03  0.98031472738E+03  0.11860446885E+04  0.40000000000E+03 0. -1.
   -9000007    1    1    2    0  501 -0.41833937733E+03 -0.33268183550E+03  0.64878102808E+02  0.67074153481E+03  0.40000000000E+03 0.  1.
<mgrwt>
<rscale>  2 0.66759646E+03</rscale>
<asrwt>0</asrwt>
<pdfrwt beam="1">  1        1 0.62430262E-01 0.66759646E+03</pdfrwt>
<pdfrwt beam="2">  1       -1 0.22322916E+00 0.66759646E+03</pdfrwt>
<totfact> 0.64588105E+00</totfact>
</mgrwt>
</event>
<event>
 4    1  0.2474915E-002  0.4540670E+03  0.7818608E-02  0.1026516E+00
         -2   -1    0    0    0  501 -0.00000000000E+00  0.00000000000E+00  0.22837134991E+03  0.22837134991E+03  0.00000000000E+00 0.  1.
          2   -1    0    0  502    0  0.00000000000E+00 -0.00000000000E+00 -0.93629649740E+03  0.93629649740E+03  0.00000000000E+00 0. -1.
    9000007    1    1    2  502    0  0.21307748026E+03  0.27836209496E+02 -0.46408452035E+03  0.64926982772E+03  0.40000000000E+03 0.  1.
   -9000007    1    1    2    0  501 -0.21307748026E+03 -0.27836209496E+02 -0.24384062715E+03  0.51539801959E+03  0.40000000000E+03 0. -1.
<mgrwt>
<rscale>  2 0.45406703E+03</rscale>
<asrwt>0</asrwt>
<pdfrwt beam="1">  1        2 0.14404562E+00 0.45406703E+03</pdfrwt>
<pdfrwt beam="2">  1       -2 0.35134053E-01 0.45406703E+03</pdfrwt>
<totfact> 0.21723140E+02</totfact>
</mgrwt>
</event>
<event>
 4    1  0.2474915E-002  0.4159090E+03  0.7818608E-02  0.1038406E+00
         -1   -1    0    0    0  501 -0.00000000000E+00  0.00000000000E+00  0.92891781480E+03  0.92891781480E+03  0.00000000000E+00 0. -1.
          1   -1    0    0  502    0  0.00000000000E+00 -0.00000000000E+00 -0.27979087860E+03  0.27979087860E+03  0.00000000000E+00 0.  1.
    9000007    1    1    2  502    0  0.10128839380E+03  0.52163024613E+02 -0.24940500761E+02  0.41665615132E+03  0.40000000000E+03 0.  1.
   -9000007    1    1    2    0  501 -0.10128839380E+03 -0.52163024613E+02  0.67406743695E+03  0.79205254208E+03  0.40000000000E+03 0. -1.
<mgrwt>
<rscale>  2 0.41590903E+03</rscale>
<asrwt>0</asrwt>
<pdfrwt beam="1">  1        1 0.43044751E-01 0.41590903E+03</pdfrwt>
<pdfrwt beam="2">  1       -1 0.14291043E+00 0.41590903E+03</pdfrwt>
<totfact> 0.40410174E+01</totfact>
</mgrwt>
</event>
<event>
 4    1  0.2474915E-002  0.6687015E+03  0.7818608E-02  0.9772306E-01
          2   -1    0    0  502    0  0.00000000000E+00  0.00000000000E+00  0.10021680993E+04  0.10021680993E+04  0.00000000000E+00 0. -1.
         -2   -1    0    0    0  501 -0.00000000000E+00 -0.00000000000E+00 -0.47538508100E+03  0.47538508100E+03  0.00000000000E+00 0.  1.
    9000007    1    1    2  502    0 -0.41311195498E+03 -0.34132127562E+03  0.80323205751E+02  0.67350836515E+03  0.40000000000E+03 0.  1.
   -9000007    1    1    2    0  501  0.41311195498E+03  0.34132127562E+03  0.44645981251E+03  0.80404481512E+03  0.40000000000E+03 0. -1.
<mgrwt>
<rscale>  2 0.66870150E+03</rscale>
<asrwt>0</asrwt>
<pdfrwt beam="1">  1        2 0.15417971E+00 0.66870150E+03</pdfrwt>
<pdfrwt beam="2">  1       -2 0.73136166E-01 0.66870150E+03</pdfrwt>
<totfact> 0.43389997E+01</totfact>
</mgrwt>
</event>
<event>
 4    1  0.2474915E-002  0.5245441E+03  0.7818608E-02  0.1007564E+00
         -2   -1    0    0    0  501 -0.00000000000E+00  0.00000000000E+00  0.17839206535E+03  0.17839206535E+03  0.00000000000E+00 0.  1.
          2   -1    0    0  502    0  0.00000000000E+00 -0.00000000000E+00 -0.15524048219E+04  0.15524048219E+04  0.00000000000E+00 0. -1.
    9000007    1    1    2  502    0 -0.14569155641E+02  0.33901947856E+03 -0.61742694148E+03  0.81016201787E+03  0.40000000000E+03 0.  1.
   -9000007    1    1    2    0  501  0.14569155641E+02 -0.33901947856E+03 -0.75658581509E+03  0.92063486939E+03  0.40000000000E+03 0.  1.
<mgrwt>
<rscale>  2 0.52454406E+03</rscale>
<asrwt>0</asrwt>
<pdfrwt beam="1">  1        2 0.23883150E+00 0.52454406E+03</pdfrwt>
<pdfrwt beam="2">  1       -2 0.27444934E-01 0.52454406E+03</pdfrwt>
<totfact> 0.14910265E+02</totfact>
</mgrwt>
</event>
<event>
 4    1  0.2474915E-002  0.6464611E+03  0.7818608E-02  0.9813442E-01
          1   -1    0    0  502    0  0.00000000000E+00  0.00000000000E+00  0.67882465103E+03  0.67882465103E+03  0.00000000000E+00 0. -1.
         -1   -1    0    0    0  501 -0.00000000000E+00 -0.00000000000E+00 -0.63248191887E+03  0.63248191887E+03  0.00000000000E+00 0.  1.
    9000007    1    1    2  502    0 -0.16256121008E+03 -0.48112968134E+03 -0.83817872823E+02  0.65187219077E+03  0.40000000000E+03 0.  1.
   -9000007    1    1    2    0  501  0.16256121008E+03  0.48112968134E+03  0.13016060498E+03  0.65943437913E+03  0.40000000000E+03 0. -1.
<mgrwt>
<rscale>  2 0.64646107E+03</rscale>
<asrwt>0</asrwt>
<pdfrwt beam="1">  1        1 0.10443456E+00 0.64646107E+03</pdfrwt>
<pdfrwt beam="2">  1       -1 0.97304910E-01 0.64646107E+03</pdfrwt>
<totfact> 0.30010841E+01</totfact>
</mgrwt>
</event>
<event>
 4    1  0.2474915E-002  0.4056922E+03  0.7818608E-02  0.1041826E+00
         -2   -1    0    0    0  501 -0.00000000000E+00  0.00000000000E+00  0.15135219689E+03  0.15135219689E+03  0.00000000000E+00 0.  1.
          2   -1    0    0  502    0  0.00000000000E+00 -0.00000000000E+00 -0.10995764525E+04  0.10995764525E+04  0.00000000000E+00 0. -1.
    9000007    1    1    2  502    0 -0.42292537367E+02  0.52891467475E+02 -0.53982754404E+03  0.67527767871E+03  0.40000000000E+03 0. -1.
   -9000007    1    1    2    0  501  0.42292537367E+02 -0.52891467475E+02 -0.40839671158E+03  0.57565097071E+03  0.40000000000E+03 0.  1.
<mgrwt>
<rscale>  2 0.40569221E+03</rscale>
<asrwt>0</asrwt>
<pdfrwt beam="1">  1        2 0.16916560E+00 0.40569221E+03</pdfrwt>
<pdfrwt beam="2">  1       -2 0.23284954E-01 0.40569221E+03</pdfrwt>
<totfact> 0.36599732E+02</totfact>
</mgrwt>
</event>
<event>
 4    1  0.2474915E-002  0.4080243E+03  0.7818608E-02  0.1041036E+00
         -2   -1    0    0    0  501 -0.00000000000E+00  0.00000000000E+00  0.50844401023E+02  0.50844401023E+02  0.00000000000E+00 0. -1.
          2   -1    0    0  502    0  0.00000000000E+00 -0.00000000000E+00 -0.33230510843E+04  0.33230510843E+04  0.00000000000E+00 0.  1.
    9000007    1    1    2  502    0 -0.18320597555E+02 -0.78410593161E+02 -0.18402633962E+04  0.18849544379E+04  0.40000000000E+03 0.  1.
   -9000007    1    1    2    0  501  0.18320597555E+02  0.78410593161E+02 -0.14319432871E+04  0.14889410475E+04  0.40000000000E+03 0. -1.
<mgrwt>
<rscale>  2 0.40802434E+03</rscale>
<asrwt>0</asrwt>
<pdfrwt beam="1">  1        2 0.51123865E+00 0.40802434E+03</pdfrwt>
<pdfrwt beam="2">  1       -2 0.78222152E-02 0.40802434E+03</pdfrwt>
<totfact> 0.12437125E+02</totfact>
</mgrwt>
</event>
<event>
 4    1  0.2474915E-002  0.4558002E+03  0.7818608E-02  0.1026006E+00
          1   -1    0    0  502    0  0.00000000000E+00  0.00000000000E+00  0.12876515951E+04  0.12876515951E+04  0.00000000000E+00 0.  1.
         -1   -1    0    0    0  501 -0.00000000000E+00 -0.00000000000E+00 -0.27737344719E+03  0.27737344719E+03  0.00000000000E+00 0. -1.
    9000007    1    1    2  502    0 -0.16562612240E+03  0.14255468261E+03 -0.97035868292E+00  0.45580126322E+03  0.40000000000E+03 0.  1.
   -9000007    1    1    2    0  501  0.16562612240E+03 -0.14255468261E+03  0.10112485066E+04  0.11092237791E+04  0.40000000000E+03 0.  1.
<mgrwt>
<rscale>  2 0.45580023E+03</rscale>
<asrwt>0</asrwt>
<pdfrwt beam="1">  1        1 0.19810024E+00 0.45580023E+03</pdfrwt>
<pdfrwt beam="2">  1       -1 0.42672839E-01 0.45580023E+03</pdfrwt>
<totfact> 0.53249432E+01</totfact>
</mgrwt>
</event>
<event>
 4    1  0.2474915E-002  0.4359160E+03  0.7818608E-02  0.1032007E+00
          2   -1    0    0  502    0  0.00000000000E+00  0.00000000000E+00  0.14904092981E+04  0.14904092981E+04  0.00000000000E+00 0.  1.
         -2   -1    0    0    0  501 -0.00000000000E+00 -0.00000000000E+00 -0.18922672633E+03  0.18922672633E+03  0.00000000000E+00 0. -1.
    9000007    1    1    2  502    0  0.16581350966E+03 -0.50285370279E+02  0.11302596386E+04  0.12114081018E+04  0.40000000000E+03 0.  1.
   -9000007    1    1    2    0  501 -0.16581350966E+03  0.50285370279E+02  0.17092293318E+03  0.46822792264E+03  0.40000000000E+03 0. -1.
<mgrwt>
<rscale>  2 0.43591598E+03</rscale>
<asrwt>0</asrwt>
<pdfrwt beam="1">  1        2 0.22929373E+00 0.43591598E+03</pdfrwt>
<pdfrwt beam="2">  1       -2 0.29111805E-01 0.43591598E+03</pdfrwt>
<totfact> 0.14643157E+02</totfact>
</mgrwt>
</event>
<event>
 4    1  0.2474915E-002  0.4262665E+03  0.7818608E-02  0.1035046E+00
          1   -1    0    0  502    0  0.00000000000E+00  0.00000000000E+00  0.73710780572E+03  0.73710780572E+03  0.00000000000E+00 0.  1.
         -1   -1    0    0    0  501 -0.00000000000E+00 -0.00000000000E+00 -0.27451967465E+03  0.27451967465E+03  0.00000000000E+00 0. -1.
    9000007    1    1    2  502    0 -0.45603836028E+02 -0.14008363274E+03  0.69719979935E+02  0.43193056112E+03  0.40000000000E+03 0. -1.
   -9000007    1    1    2    0  501  0.45603836028E+02  0.14008363274E+03  0.39286815113E+03  0.57969691925E+03  0.40000000000E+03 0.  1.
<mgrwt>
<rscale>  2 0.42626651E+03</rscale>
<asrwt>0</asrwt>
<pdfrwt beam="1">  1        1 0.11340120E+00 0.42626651E+03</pdfrwt>
<pdfrwt beam="2">  1       -1 0.42233796E-01 0.42626651E+03</pdfrwt>
<totfact> 0.14477110E+02</totfact>
</mgrwt>
</event>
<event>
 4    1  0.2474915E-002  0.4013452E+03  0.7818608E-02  0.1043315E+00
          1   -1    0    0  502    0  0.00000000000E+00  0.00000000000E+00  0.87448916834E+03  0.87448916834E+03  0.00000000000E+00 0. -1.
         -1   -1    0    0    0  501 -0.00000000000E+00 -0.00000000000E+00 -0.18427192593E+03  0.18427192593E+03  0.00000000000E+00 0.  1.
    9000007    1    1    2  502    0  0.32824806174E+02  0.71800201077E+00  0.33440971112E+03  0.52240581765E+03  0.40000000000E+03 0.  1.
   -9000007    1    1    2    0  501 -0.32824806174E+02 -0.71800201077E+00  0.35580753130E+03  0.53635527662E+03  0.40000000000E+03 0.  1.
<mgrwt>
<rscale>  2 0.40134522E+03</rscale>
<asrwt>0</asrwt>
<pdfrwt beam="1">  1        1 0.13453679E+00 0.40134522E+03</pdfrwt>
<pdfrwt beam="2">  1       -1 0.28349527E-01 0.40134522E+03</pdfrwt>
<totfact> 0.22378081E+02</totfact>
</mgrwt>
</event>
<event>
 4    1  0.2474915E-002  0.4350704E+03  0.7818608E-02  0.1032270E+00
         -2   -1    0    0    0  501 -0.00000000000E+00  0.00000000000E+00  0.41324437101E+03  0.41324437101E+03  0.00000000000E+00 0. -1.
          2   -1    0    0  502    0  0.00000000000E+00 -0.00000000000E+00 -0.10634310814E+04  0.10634310814E+04  0.00000000000E+00 0.  1.
    9000007    1    1    2  502    0  0.15086139468E+00  0.17113213754E+03 -0.88217020839E+03  0.98362112006E+03  0.40000000000E+03 0.  1.
   -9000007    1    1    2    0  501 -0.15086139468E+00 -0.17113213754E+03  0.23198349804E+03  0.49305433232E+03  0.40000000000E+03 0. -1.
<mgrwt>
<rscale>  2 0.43507038E+03</rscale>
<asrwt>0</asrwt>
<pdfrwt beam="1">  1        2 0.16360478E+00 0.43507038E+03</pdfrwt>
<pdfrwt beam="2">  1       -2 0.63576057E-01 0.43507038E+03</pdfrwt>
<totfact> 0.55356228E+01</totfact>
</mgrwt>
</event>
<event>
 4    1  0.2474915E-002  0.5218189E+03  0.7818608E-02  0.1008236E+00
          1   -1    0    0  502    0  0.00000000000E+00  0.00000000000E+00  0.20694007107E+04  0.20694007107E+04  0.00000000000E+00 0.  1.
         -1   -1    0    0    0  501 -0.00000000000E+00 -0.00000000000E+00 -0.17234064521E+03  0.17234064521E+03  0.00000000000E+00 0. -1.
    9000007    1    1    2  502    0  0.19291552795E+03  0.27400470969E+03  0.14936270985E+04  0.15821557734E+04  0.40000000000E+03 0. -1.
   -9000007    1    1    2    0  501 -0.19291552795E+03 -0.27400470969E+03  0.40343296703E+03  0.65958558258E+03  0.40000000000E+03 0.  1.
<mgrwt>
<rscale>  2 0.52181892E+03</rscale>
<asrwt>0</asrwt>
<pdfrwt beam="1">  1        1 0.31836932E+00 0.52181892E+03</pdfrwt>
<pdfrwt beam="2">  1       -1 0.26513947E-01 0.52181892E+03</pdfrwt>
<totfact> 0.36334043E+01</totfact>
</mgrwt>
</event>
<event>
 4    1  0.2474915E-002  0.4234428E+03  0.7818608E-02  0.1035952E+00
          2   -1    0    0  502    0  0.00000000000E+00  0.00000000000E+00  0.38618505494E+03  0.38618505494E+03  0.00000000000E+00 0. -1.
         -2   -1    0    0    0  501 -0.00000000000E+00 -0.00000000000E+00 -0.48081663585E+03  0.48081663585E+03  0.00000000000E+00 0.  1.
    9000007    1    1    2  502    0 -0.13783388281E+03 -0.17481842128E+02  0.33041742237E+02  0.42472997397E+03  0.40000000000E+03 0. -1.
   -9000007    1    1    2    0  501  0.13783388281E+03  0.17481842128E+02 -0.12767332314E+03  0.44227171682E+03  0.40000000000E+03 0.  1.
<mgrwt>
<rscale>  2 0.42344279E+03</rscale>
<asrwt>0</asrwt>
<pdfrwt beam="1">  1        2 0.59413086E-01 0.42344279E+03</pdfrwt>
<pdfrwt beam="2">  1       -2 0.73971790E-01 0.42344279E+03</pdfrwt>
<totfact> 0.13998931E+02</totfact>
</mgrwt>
</event>
<event>
 4    1  0.2474915E-002  0.4010320E+03  0.7818608E-02  0.1043423E+00
         -1   -1    0    0    0  501 -0.00000000000E+00  0.00000000000E+00  0.31038896623E+03  0.31038896623E+03  0.00000000000E+00 0. -1.
          1   -1    0    0  502    0  0.00000000000E+00 -0.00000000000E+00 -0.55001768922E+03  0.55001768922E+03  0.00000000000E+00 0.  1.
    9000007    1    1    2  502    0  0.26554522330E+02  0.11022928203E+02 -0.22337419691E+03  0.45904540020E+03  0.40000000000E+03 0.  1.
   -9000007    1    1    2    0  501 -0.26554522330E+02 -0.11022928203E+02 -0.16254526081E+02  0.40136125526E+03  0.40000000000E+03 0. -1.
<mgrwt>
<rscale>  2 0.40103198E+03</rscale>
<asrwt>0</asrwt>
<pdfrwt beam="1">  1        1 0.84618104E-01 0.40103198E+03</pdfrwt>
<pdfrwt beam="2">  1       -1 0.47752150E-01 0.40103198E+03</pdfrwt>
<totfact> 0.17673398E+02</totfact>
</mgrwt>
</event>
<event>
 4    1  0.2474915E-002  0.5955968E+03  0.7818608E-02  0.9914584E-01
         -2   -1    0    0    0  501 -0.00000000000E+00  0.00000000000E+00  0.27406409171E+03  0.27406409171E+03  0.00000000000E+00 0.  1.
          2   -1    0    0  502    0  0.00000000000E+00 -0.00000000000E+00 -0.12958878048E+04  0.12958878048E+04  0.00000000000E+00 0. -1.
    9000007    1    1    2  502    0  0.39638763103E+03  0.19393916927E+03 -0.48389323615E+03  0.76739052600E+03  0.40000000000E+03 0.  1.
   -9000007    1    1    2    0  501 -0.39638763103E+03 -0.19393916927E+03 -0.53793047696E+03  0.80256137052E+03  0.40000000000E+03 0.  1.
<mgrwt>
<rscale>  2 0.59559681E+03</rscale>
<asrwt>0</asrwt>
<pdfrwt beam="1">  1        2 0.19936735E+00 0.59559681E+03</pdfrwt>
<pdfrwt beam="2">  1       -2 0.42163707E-01 0.59559681E+03</pdfrwt>
<totfact> 0.91435807E+01</totfact>
</mgrwt>
</event>
<event>
 4    1  0.2474915E-002  0.4029049E+03  0.7818608E-02  0.1042778E+00
          2   -1    0    0  502    0  0.00000000000E+00  0.00000000000E+00  0.58936966071E+03  0.58936966071E+03  0.00000000000E+00 0.  1.
         -2   -1    0    0    0  501 -0.00000000000E+00 -0.00000000000E+00 -0.27930422021E+03  0.27930422021E+03  0.00000000000E+00 0. -1.
    9000007    1    1    2  502    0  0.16437761018E+02 -0.45410578667E+02  0.10390369452E+03  0.41608688801E+03  0.40000000000E+03 0.  1.
   -9000007    1    1    2    0  501 -0.16437761018E+02  0.45410578667E+02  0.20616174598E+03  0.45258699290E+03  0.40000000000E+03 0.  1.
<mgrwt>
<rscale>  2 0.40290485E+03</rscale>
<asrwt>0</asrwt>
<pdfrwt beam="1">  1        2 0.90672255E-01 0.40290485E+03</pdfrwt>
<pdfrwt beam="2">  1       -2 0.42969880E-01 0.40290485E+03</pdfrwt>
<totfact> 0.26685693E+02</totfact>
</mgrwt>
</event>
<event>
 4    1  0.2474915E-002  0.4093291E+03  0.7818608E-02  0.1040596E+00
         -2   -1    0    0    0  501 -0.00000000000E+00  0.00000000000E+00  0.61371103331E+03  0.61371103331E+03  0.00000000000E+00 0.  1.
          2   -1    0    0  502    0  0.00000000000E+00 -0.00000000000E+00 -0.27308642569E+03  0.27308642569E+03  0.00000000000E+00 0. -1.
    9000007    1    1    2  502    0  0.86836194148E+02  0.31271430699E+01  0.16297854433E+03  0.44058178531E+03  0.40000000000E+03 0.  1.
   -9000007    1    1    2    0  501 -0.86836194148E+02 -0.31271430699E+01  0.17764606329E+03  0.44621567368E+03  0.40000000000E+03 0.  1.
<mgrwt>
<rscale>  2 0.40932909E+03</rscale>
<asrwt>0</asrwt>
<pdfrwt beam="1">  1        2 0.42013296E-01 0.40932909E+03</pdfrwt>
<pdfrwt beam="2">  1       -2 0.94417082E-01 0.40932909E+03</pdfrwt>
<totfact> 0.11838327E+02</totfact>
</mgrwt>
</event>
<event>
 4    1  0.2474915E-002  0.4315318E+03  0.7818608E-02  0.1033377E+00
          1   -1    0    0  502    0  0.00000000000E+00  0.00000000000E+00  0.35894944043E+03  0.35894944043E+03  0.00000000000E+00 0. -1.
         -1   -1    0    0    0  501 -0.00000000000E+00 -0.00000000000E+00 -0.51893392508E+03  0.51893392508E+03  0.00000000000E+00 0.  1.
    9000007    1    1    2  502    0 -0.16124107939E+03  0.14867065716E+02 -0.87278521960E+02  0.44026952622E+03  0.40000000000E+03 0.  1.
   -9000007    1    1    2    0  501  0.16124107939E+03 -0.14867065716E+02 -0.72705962696E+02  0.43761383929E+03  0.40000000000E+03 0. -1.
<mgrwt>
<rscale>  2 0.43153182E+03</rscale>
<asrwt>0</asrwt>
<pdfrwt beam="1">  1        1 0.55222991E-01 0.43153182E+03</pdfrwt>
<pdfrwt beam="2">  1       -1 0.79835989E-01 0.43153182E+03</pdfrwt>
<totfact> 0.11307521E+02</totfact>
</mgrwt>
</event>
<event>
 4    1  0.2474915E-002  0.4555849E+03  0.7818608E-02  0.1026070E+00
          2   -1    0    0  502    0  0.00000000000E+00  0.00000000000E+00  0.25788773923E+04  0.25788773923E+04  0.00000000000E+00 0.  1.
         -2   -1    0    0    0  501 -0.00000000000E+00 -0.00000000000E+00 -0.81105267102E+02  0.81105267102E+02  0.00000000000E+00 0. -1.
    9000007    1    1    2  502    0 -0.21698707571E+03  0.21775960174E+02  0.11324547567E+04  0.12206602146E+04  0.40000000000E+03 0. -1.
   -9000007    1    1    2    0  501  0.21698707571E+03 -0.21775960174E+02  0.13653173685E+04  0.14393224448E+04  0.40000000000E+03 0.  1.
<mgrwt>
<rscale>  2 0.45558488E+03</rscale>
<asrwt>0</asrwt>
<pdfrwt beam="1">  1        2 0.39675030E+00 0.45558488E+03</pdfrwt>
<pdfrwt beam="2">  1       -2 0.12477735E-01 0.45558488E+03</pdfrwt>
<totfact> 0.16187110E+02</totfact>
</mgrwt>
</event>
<event>
 4    1  0.2474915E-002  0.4061052E+03  0.7818608E-02  0.1041686E+00
          2   -1    0    0  502    0  0.00000000000E+00  0.00000000000E+00  0.16933768641E+04  0.16933768641E+04  0.00000000000E+00 0.  1.
         -2   -1    0    0    0  501 -0.00000000000E+00 -0.00000000000E+00 -0.10714943128E+03  0.10714943128E+03  0.00000000000E+00 0. -1.
    9000007    1    1    2  502    0  0.70143369805E+02  0.11551069792E+01  0.52144388888E+03  0.66092749667E+03  0.40000000000E+03 0. -1.
   -9000007    1    1    2    0  501 -0.70143369805E+02 -0.11551069792E+01  0.10647835439E+04  0.11395987987E+04  0.40000000000E+03 0.  1.
<mgrwt>
<rscale>  2 0.40610519E+03</rscale>
<asrwt>0</asrwt>
<pdfrwt beam="1">  1        2 0.26051950E+00 0.40610519E+03</pdfrwt>
<pdfrwt beam="2">  1       -2 0.16484529E-01 0.40610519E+03</pdfrwt>
<totfact> 0.30991084E+02</totfact>
</mgrwt>
</event>
<event>
 4    1  0.2474915E-002  0.4794286E+03  0.7818608E-02  0.1019292E+00
         -1   -1    0    0    0  501 -0.00000000000E+00  0.00000000000E+00  0.24604365338E+03  0.24604365338E+03  0.00000000000E+00 0. -1.
          1   -1    0    0  502    0  0.00000000000E+00 -0.00000000000E+00 -0.10051096823E+04  0.10051096823E+04  0.00000000000E+00 0.  1.
    9000007    1    1    2  502    0  0.12316637871E+03  0.23384151819E+03 -0.54570337875E+03  0.72639107240E+03  0.40000000000E+03 0.  1.
   -9000007    1    1    2    0  501 -0.12316637871E+03 -0.23384151819E+03 -0.21336265015E+03  0.52476226327E+03  0.40000000000E+03 0. -1.
<mgrwt>
<rscale>  2 0.47942863E+03</rscale>
<asrwt>0</asrwt>
<pdfrwt beam="1">  1        1 0.15463225E+00 0.47942863E+03</pdfrwt>
<pdfrwt beam="2">  1       -1 0.37852871E-01 0.47942863E+03</pdfrwt>
<totfact> 0.10569464E+02</totfact>
</mgrwt>
</event>
<event>
 4    1  0.2474915E-002  0.5071943E+03  0.7818608E-02  0.1011918E+00
         -2   -1    0    0    0  501 -0.00000000000E+00  0.00000000000E+00  0.27381234890E+03  0.27381234890E+03  0.00000000000E+00 0. -1.
          2   -1    0    0  502    0  0.00000000000E+00 -0.00000000000E+00 -0.18177548593E+04  0.18177548593E+04  0.00000000000E+00 0.  1.
    9000007    1    1    2  502    0  0.31174735065E+03 -0.77259839644E+01 -0.14988885375E+04  0.15823757295E+04  0.40000000000E+03 0.  1.
   -9000007    1    1    2    0  501 -0.31174735065E+03  0.77259839644E+01 -0.45053972861E+02  0.50919147865E+03  0.40000000000E+03 0. -1.
<mgrwt>
<rscale>  2 0.50719434E+03</rscale>
<asrwt>0</asrwt>
<pdfrwt beam="1">  1        2 0.27965459E+00 0.50719434E+03</pdfrwt>
<pdfrwt beam="2">  1       -2 0.42124977E-01 0.50719434E+03</pdfrwt>
<totfact> 0.47884014E+01</totfact>
</mgrwt>
</event>
<event>
 4    1  0.2474915E-002  0.5493381E+03  0.7818608E-02  0.1001647E+00
         -2   -1    0    0    0  501 -0.00000000000E+00  0.00000000000E+00  0.14519971582E+03  0.14519971582E+03  0.00000000000E+00 0. -1.
          2   -1    0    0  502    0  0.00000000000E+00 -0.00000000000E+00 -0.22810573307E+04  0.22810573307E+04  0.00000000000E+00 0.  1.
    9000007    1    1    2  502    0  0.61349505450E+02  0.37149505523E+03 -0.14295877421E+04  0.15315003918E+04  0.40000000000E+03 0. -1.
   -9000007    1    1    2    0  501 -0.61349505450E+02 -0.37149505523E+03 -0.70626987283E+03  0.89475665471E+03  0.40000000000E+03 0.  1.
<mgrwt>
<rscale>  2 0.54933809E+03</rscale>
<asrwt>0</asrwt>
<pdfrwt beam="1">  1        2 0.35093188E+00 0.54933809E+03</pdfrwt>
<pdfrwt beam="2">  1       -2 0.22338419E-01 0.54933809E+03</pdfrwt>
<totfact> 0.86573638E+01</totfact>
</mgrwt>
</event>
<event>
 4    1  0.2474915E-002  0.4314926E+03  0.7818608E-02  0.1033389E+00
          2   -1    0    0  502    0  0.00000000000E+00  0.00000000000E+00  0.24191410753E+03  0.24191410753E+03  0.00000000000E+00 0. -1.
         -2   -1    0    0    0  501 -0.00000000000E+00 -0.00000000000E+00 -0.80553426992E+03  0.80553426992E+03  0.00000000000E+00 0.  1.
    9000007    1    1    2  502    0  0.12955066495E+03  0.96966614611E+02 -0.39236932359E+03  0.58321487055E+03  0.40000000000E+03 0.  1.
   -9000007    1    1    2    0  501 -0.12955066495E+03 -0.96966614611E+02 -0.17125083880E+03  0.46423350690E+03  0.40000000000E+03 0. -1.
<mgrwt>
<rscale>  2 0.43149264E+03</rscale>
<asrwt>0</asrwt>
<pdfrwt beam="1">  1        2 0.37217555E-01 0.43149264E+03</pdfrwt>
<pdfrwt beam="2">  1       -2 0.12392835E+00 0.43149264E+03</pdfrwt>
<totfact> 0.70446747E+01</totfact>
</mgrwt>
</event>
<event>
 4    1  0.2474915E-002  0.4698726E+03  0.7818608E-02  0.1021956E+00
         -1   -1    0    0    0  501 -0.00000000000E+00  0.00000000000E+00  0.33713051606E+03  0.33713051606E+03  0.00000000000E+00 0.  1.
          1   -1    0    0  502    0  0.00000000000E+00 -0.00000000000E+00 -0.11659873615E+04  0.11659873615E+04  0.00000000000E+00 0. -1.
    9000007    1    1    2  502    0 -0.14509472975E+03  0.19931817533E+03 -0.91201878514E+03  0.10259427275E+04  0.40000000000E+03 0. -1.
   -9000007    1    1    2    0  501  0.14509472975E+03 -0.19931817533E+03  0.83161939714E+02  0.47717515006E+03  0.40000000000E+03 0.  1.
<mgrwt>
<rscale>  2 0.46987255E+03</rscale>
<asrwt>0</asrwt>
<pdfrwt beam="1">  1        1 0.17938267E+00 0.46987255E+03</pdfrwt>
<pdfrwt beam="2">  1       -1 0.51866234E-01 0.46987255E+03</pdfrwt>
<totfact> 0.45115437E+01</totfact>
</mgrwt>
</event>
<event>
 4    1  0.2474915E-002  0.4457568E+03  0.7818608E-02  0.1028995E+00
         -2   -1    0    0    0  501 -0.00000000000E+00  0.00000000000E+00  0.15777146168E+03  0.15777146168E+03  0.00000000000E+00 0. -1.
          2   -1    0    0  502    0  0.00000000000E+00 -0.00000000000E+00 -0.13748238572E+04  0.13748238572E+04  0.00000000000E+00 0.  1.
    9000007    1    1    2  502    0 -0.19531981242E+03  0.23436689146E+02 -0.83055082350E+03  0.94261008797E+03  0.40000000000E+03 0.  1.
   -9000007    1    1    2    0  501  0.19531981242E+03 -0.23436689146E+02 -0.38650157205E+03  0.58998523094E+03  0.40000000000E+03 0. -1.
<mgrwt>
<rscale>  2 0.44575678E+03</rscale>
<asrwt>0</asrwt>
<pdfrwt beam="1">  1        2 0.21151136E+00 0.44575678E+03</pdfrwt>
<pdfrwt beam="2">  1       -2 0.24272532E-01 0.44575678E+03</pdfrwt>
<totfact> 0.23516883E+02</totfact>
</mgrwt>
</event>
<event>
 4    1  0.2474915E-002  0.4576675E+03  0.7818608E-02  0.1025460E+00
         -1   -1    0    0    0  501 -0.00000000000E+00  0.00000000000E+00  0.14968300350E+03  0.14968300350E+03  0.00000000000E+00 0. -1.
          1   -1    0    0  502    0  0.00000000000E+00 -0.00000000000E+00 -0.14180523348E+04  0.14180523348E+04  0.00000000000E+00 0.  1.
    9000007    1    1    2  502    0 -0.20812538683E+03 -0.78379448439E+02 -0.54417322596E+03  0.71104431256E+03  0.40000000000E+03 0. -1.
   -9000007    1    1    2    0  501  0.20812538683E+03  0.78379448439E+02 -0.72419610529E+03  0.85669102569E+03  0.40000000000E+03 0.  1.
<mgrwt>
<rscale>  2 0.45766747E+03</rscale>
<asrwt>0</asrwt>
<pdfrwt beam="1">  1        1 0.21816189E+00 0.45766747E+03</pdfrwt>
<pdfrwt beam="2">  1       -1 0.23028155E-01 0.45766747E+03</pdfrwt>
<totfact> 0.12660391E+02</totfact>
</mgrwt>
</event>
<event>
 4    1  0.2474915E-002  0.4743844E+03  0.7818608E-02  0.1020690E+00
          2   -1    0    0  502    0  0.00000000000E+00  0.00000000000E+00  0.75585372758E+03  0.75585372758E+03  0.00000000000E+00 0.  1.
         -2   -1    0    0    0  501 -0.00000000000E+00 -0.00000000000E+00 -0.40890598144E+03  0.40890598144E+03  0.00000000000E+00 0. -1.
    9000007    1    1    2  502    0 -0.25151429071E+03 -0.42203410173E+02  0.47714219404E+03  0.67283373845E+03  0.40000000000E+03 0.  1.
   -9000007    1    1    2    0  501  0.25151429071E+03  0.42203410173E+02 -0.13019444790E+03  0.49192597058E+03  0.40000000000E+03 0. -1.
<mgrwt>
<rscale>  2 0.47438441E+03</rscale>
<asrwt>0</asrwt>
<pdfrwt beam="1">  1        2 0.11628519E+00 0.47438441E+03</pdfrwt>
<pdfrwt beam="2">  1       -2 0.62908612E-01 0.47438441E+03</pdfrwt>
<totfact> 0.90028612E+01</totfact>
</mgrwt>
</event>
<event>
 4    1  0.2474915E-002  0.4568038E+03  0.7818608E-02  0.1025712E+00
          2   -1    0    0  502    0  0.00000000000E+00  0.00000000000E+00  0.11003821546E+04  0.11003821546E+04  0.00000000000E+00 0.  1.
         -2   -1    0    0    0  501 -0.00000000000E+00 -0.00000000000E+00 -0.19489233779E+03  0.19489233779E+03  0.00000000000E+00 0. -1.
    9000007    1    1    2  502    0  0.73972440738E+02  0.20784082023E+03  0.55912588312E+03  0.72200518123E+03  0.40000000000E+03 0. -1.
   -9000007    1    1    2    0  501 -0.73972440738E+02 -0.20784082023E+03  0.34636393367E+03  0.57326931113E+03  0.40000000000E+03 0. -1.
<mgrwt>
<rscale>  2 0.45680382E+03</rscale>
<asrwt>0</asrwt>
<pdfrwt beam="1">  1        2 0.16928956E+00 0.45680382E+03</pdfrwt>
<pdfrwt beam="2">  1       -2 0.29983437E-01 0.45680382E+03</pdfrwt>
<totfact> 0.23069214E+02</totfact>
</mgrwt>
</event>
<event>
 4    1  0.2474915E-002  0.4748509E+03  0.7818608E-02  0.1020560E+00
          1   -1    0    0  502    0  0.00000000000E+00  0.00000000000E+00  0.22037814730E+04  0.22037814730E+04  0.00000000000E+00 0.  1.
         -1   -1    0    0    0  501 -0.00000000000E+00 -0.00000000000E+00 -0.10754706933E+03  0.10754706933E+03  0.00000000000E+00 0. -1.
    9000007    1    1    2  502    0 -0.23976905267E+03 -0.89410032306E+02  0.79325575835E+03  0.92452044361E+03  0.40000000000E+03 0.  1.
   -9000007    1    1    2    0  501  0.23976905267E+03  0.89410032306E+02  0.13029786453E+04  0.13868080987E+04  0.40000000000E+03 0. -1.
<mgrwt>
<rscale>  2 0.47485087E+03</rscale>
<asrwt>0</asrwt>
<pdfrwt beam="1">  1        1 0.33904327E+00 0.47485087E+03</pdfrwt>
<pdfrwt beam="2">  1       -1 0.16545705E-01 0.47485087E+03</pdfrwt>
<totfact> 0.65363056E+01</totfact>
</mgrwt>
</event>
<event>
 4    1  0.2474915E-002  0.4809190E+03  0.7818608E-02  0.1018883E+00
          2   -1    0    0  502    0  0.00000000000E+00  0.00000000000E+00  0.11678554352E+04  0.11678554352E+04  0.00000000000E+00 0.  1.
         -2   -1    0    0    0  501 -0.00000000000E+00 -0.00000000000E+00 -0.20883365923E+03  0.20883365923E+03  0.00000000000E+00 0. -1.
    9000007    1    1    2  502    0  0.25855923957E+03 -0.66559660558E+02  0.63599603547E+03  0.79735439167E+03  0.40000000000E+03 0. -1.
   -9000007    1    1    2    0  501 -0.25855923957E+03  0.66559660558E+02  0.32302574047E+03  0.57933470273E+03  0.40000000000E+03 0.  1.
<mgrwt>
<rscale>  2 0.48091898E+03</rscale>
<asrwt>0</asrwt>
<pdfrwt beam="1">  1        2 0.17967006E+00 0.48091898E+03</pdfrwt>
<pdfrwt beam="2">  1       -2 0.32128256E-01 0.48091898E+03</pdfrwt>
<totfact> 0.18463329E+02</totfact>
</mgrwt>
</event>
<event>
 4    1  0.2474915E-002  0.4051476E+03  0.7818608E-02  0.1042012E+00
          2   -1    0    0  502    0  0.00000000000E+00  0.00000000000E+00  0.19189136517E+04  0.19189136517E+04  0.00000000000E+00 0.  1.
         -2   -1    0    0    0  501 -0.00000000000E+00 -0.00000000000E+00 -0.91460766755E+02  0.91460766755E+02  0.00000000000E+00 0. -1.
    9000007    1    1    2  502    0 -0.88939456378E+01  0.63761245329E+02  0.65798291231E+03  0.77271347314E+03  0.40000000000E+03 0. -1.
   -9000007    1    1    2    0  501  0.88939456378E+01 -0.63761245329E+02  0.11694699726E+04  0.12376609453E+04  0.40000000000E+03 0.  1.
<mgrwt>
<rscale>  2 0.40514763E+03</rscale>
<asrwt>0</asrwt>
<pdfrwt beam="1">  1        2 0.29521745E+00 0.40514763E+03</pdfrwt>
<pdfrwt beam="2">  1       -2 0.14070889E-01 0.40514763E+03</pdfrwt>
<totfact> 0.30623155E+02</totfact>
</mgrwt>
</event>
<event>
 4    1  0.2474915E-002  0.4773186E+03  0.7818608E-02  0.1019875E+00
         -2   -1    0    0    0  501 -0.00000000000E+00  0.00000000000E+00  0.21061470955E+03  0.21061470955E+03  0.00000000000E+00 0. -1.
          2   -1    0    0  502    0  0.00000000000E+00 -0.00000000000E+00 -0.11306247179E+04  0.11306247179E+04  0.00000000000E+00 0.  1.
    9000007    1    1    2  502    0  0.25448558108E+03 -0.55408711947E+02 -0.32057793604E+03  0.57498108614E+03  0.40000000000E+03 0.  1.
   -9000007    1    1    2    0  501 -0.25448558108E+03  0.55408711947E+02 -0.59943207233E+03  0.76625834134E+03  0.40000000000E+03 0.  1.
<mgrwt>
<rscale>  2 0.47731859E+03</rscale>
<asrwt>0</asrwt>
<pdfrwt beam="1">  1        2 0.17394226E+00 0.47731859E+03</pdfrwt>
<pdfrwt beam="2">  1       -2 0.32402264E-01 0.47731859E+03</pdfrwt>
<totfact> 0.19126253E+02</totfact>
</mgrwt>
</event>
<event>
 4    1  0.2474915E-002  0.6139821E+03  0.7818608E-02  0.9876815E-01
          2   -1    0    0  502    0  0.00000000000E+00  0.00000000000E+00  0.25106980161E+04  0.25106980161E+04  0.00000000000E+00 0. -1.
         -2   -1    0    0    0  501 -0.00000000000E+00 -0.00000000000E+00 -0.15219134774E+03  0.15219134774E+03  0.00000000000E+00 0.  1.
    9000007    1    1    2  502    0  0.36482159395E+03  0.28961915773E+03  0.10249434252E+04  0.11947732324E+04  0.40000000000E+03 0.  1.
   -9000007    1    1    2    0  501 -0.36482159395E+03 -0.28961915773E+03  0.13335632431E+04  0.14681161314E+04  0.40000000000E+03 0. -1.
<mgrwt>
<rscale>  2 0.61398213E+03</rscale>
<asrwt>0</asrwt>
<pdfrwt beam="1">  1        2 0.38626120E+00 0.61398213E+03</pdfrwt>
<pdfrwt beam="2">  1       -2 0.23414055E-01 0.61398213E+03</pdfrwt>
<totfact> 0.58738169E+01</totfact>
</mgrwt>
</event>
<event>
 4    1  0.2474915E-002  0.5217293E+03  0.7818608E-02  0.1008258E+00
         -2   -1    0    0    0  501 -0.00000000000E+00  0.00000000000E+00  0.14051545916E+04  0.14051545916E+04  0.00000000000E+00 0. -1.
          2   -1    0    0  502    0  0.00000000000E+00 -0.00000000000E+00 -0.24804582650E+03  0.24804582650E+03  0.00000000000E+00 0.  1.
    9000007    1    1    2  502    0  0.13154405648E+03  0.30805452629E+03  0.19170021778E+03  0.55583307158E+03  0.40000000000E+03 0.  1.
   -9000007    1    1    2    0  501 -0.13154405648E+03 -0.30805452629E+03  0.96540854731E+03  0.10973673465E+04  0.40000000000E+03 0. -1.
<mgrwt>
<rscale>  2 0.52172927E+03</rscale>
<asrwt>0</asrwt>
<pdfrwt beam="1">  1        2 0.38160897E-01 0.52172927E+03</pdfrwt>
<pdfrwt beam="2">  1       -2 0.21617762E+00 0.52172927E+03</pdfrwt>
<totfact> 0.14830512E+01</totfact>
</mgrwt>
</event>
<event>
 4    1  0.2474915E-002  0.4065422E+03  0.7818608E-02  0.1041538E+00
          2   -1    0    0  502    0  0.00000000000E+00  0.00000000000E+00  0.23016849142E+04  0.23016849142E+04  0.00000000000E+00 0. -1.
         -2   -1    0    0    0  501 -0.00000000000E+00 -0.00000000000E+00 -0.71972789207E+02  0.71972789207E+02  0.00000000000E+00 0.  1.
    9000007    1    1    2  502    0 -0.59532890414E+02 -0.41621615194E+02  0.11718597808E+04  0.12403756971E+04  0.40000000000E+03 0.  1.
   -9000007    1    1    2    0  501  0.59532890414E+02  0.41621615194E+02  0.10578523442E+04  0.11332820064E+04  0.40000000000E+03 0.  1.
<mgrwt>
<rscale>  2 0.40654216E+03</rscale>
<asrwt>0</asrwt>
<pdfrwt beam="1">  1        2 0.35410531E+00 0.40654216E+03</pdfrwt>
<pdfrwt beam="2">  1       -2 0.11072739E-01 0.40654216E+03</pdfrwt>
<totfact> 0.28249407E+02</totfact>
</mgrwt>
</event>
<event>
 4    1  0.2474915E-002  0.4900126E+03  0.7818608E-02  0.1016419E+00
          1   -1    0    0  502    0  0.00000000000E+00  0.00000000000E+00  0.64430092816E+03  0.64430092816E+03  0.00000000000E+00 0.  1.
         -1   -1    0    0    0  501 -0.00000000000E+00 -0.00000000000E+00 -0.39859501876E+03  0.39859501876E+03  0.00000000000E+00 0. -1.
    9000007    1    1    2  502    0  0.22092992194E+03  0.17692456818E+03 -0.10129825247E+02  0.49011727841E+03  0.40000000000E+03 0. -1.
   -9000007    1    1    2    0  501 -0.22092992194E+03 -0.17692456818E+03  0.25583573466E+03  0.55277866851E+03  0.40000000000E+03 0. -1.
<mgrwt>
<rscale>  2 0.49001258E+03</rscale>
<asrwt>0</asrwt>
<pdfrwt beam="1">  1        1 0.99123219E-01 0.49001258E+03</pdfrwt>
<pdfrwt beam="2">  1       -1 0.61322311E-01 0.49001258E+03</pdfrwt>
<totfact> 0.86869628E+01</totfact>
</mgrwt>
</event>
<event>
 4    1  0.2474915E-002  0.7702404E+03  0.7818608E-02  0.9604121E-01
         -2   -1    0    0    0  501 -0.00000000000E+00  0.00000000000E+00  0.47794509881E+03  0.47794509881E+03  0.00000000000E+00 0. -1.
          2   -1    0    0  502    0  0.00000000000E+00 -0.00000000000E+00 -0.17987503802E+04  0.17987503802E+04  0.00000000000E+00 0.  1.
    9000007    1    1    2  502    0 -0.54736068325E+03 -0.36560436840E+03 -0.26686109444E+02  0.77070254975E+03  0.40000000000E+03 0. -1.
   -9000007    1    1    2    0  501  0.54736068325E+03  0.36560436840E+03 -0.12941191720E+04  0.15059929293E+04  0.40000000000E+03 0.  1.
<mgrwt>
<rscale>  2 0.77024040E+03</rscale>
<asrwt>0</asrwt>
<pdfrwt beam="1">  1        2 0.27673083E+00 0.77024040E+03</pdfrwt>
<pdfrwt beam="2">  1       -2 0.73530014E-01 0.77024040E+03</pdfrwt>
<totfact> 0.14814874E+01</totfact>
</mgrwt>
</event>
<event>
 4    1  0.2474915E-002  0.4255844E+03  0.7818608E-02  0.1035264E+00
          1   -1    0    0  502    0  0.00000000000E+00  0.00000000000E+00  0.19669581460E+04  0.19669581460E+04  0.00000000000E+00 0. -1.
         -1   -1    0    0    0  501 -0.00000000000E+00 -0.00000000000E+00 -0.10197763943E+03  0.10197763943E+03  0.00000000000E+00 0.  1.
    9000007    1    1    2  502    0  0.14946955897E+02 -0.14456366704E+03  0.61025022026E+03  0.74399421816E+03  0.40000000000E+03 0.  1.
   -9000007    1    1    2    0  501 -0.14946955897E+02  0.14456366704E+03  0.12547302863E+04  0.13249415672E+04  0.40000000000E+03 0. -1.
<mgrwt>
<rscale>  2 0.42558438E+03</rscale>
<asrwt>0</asrwt>
<pdfrwt beam="1">  1        1 0.30260892E+00 0.42558438E+03</pdfrwt>
<pdfrwt beam="2">  1       -1 0.15688869E-01 0.42558438E+03</pdfrwt>
<totfact> 0.10303856E+02</totfact>
</mgrwt>
</event>
<event>
 4    1  0.2474915E-002  0.5559787E+03  0.7818608E-02  0.1000120E+00
         -2   -1    0    0    0  501 -0.00000000000E+00  0.00000000000E+00  0.59640920765E+03  0.59640920765E+03  0.00000000000E+00 0. -1.
          2   -1    0    0  502    0  0.00000000000E+00 -0.00000000000E+00 -0.58938461893E+03  0.58938461893E+03  0.00000000000E+00 0.  1.
    9000007    1    1    2  502    0 -0.30834945153E+02 -0.38491748174E+03 -0.20240914713E+03  0.59167704403E+03  0.40000000000E+03 0.  1.
   -9000007    1    1    2    0  501  0.30834945153E+02  0.38491748174E+03  0.20943373586E+03  0.59411678255E+03  0.40000000000E+03 0. -1.
<mgrwt>
<rscale>  2 0.55597865E+03</rscale>
<asrwt>0</asrwt>
<pdfrwt beam="1">  1        2 0.90674557E-01 0.55597865E+03</pdfrwt>
<pdfrwt beam="2">  1       -2 0.91755262E-01 0.55597865E+03</pdfrwt>
<totfact> 0.52654980E+01</totfact>
</mgrwt>
</event>
<event>
 4    1  0.2474915E-002  0.4872222E+03  0.7818608E-02  0.1017169E+00
         -2   -1    0    0    0  501 -0.00000000000E+00  0.00000000000E+00  0.59791476552E+03  0.59791476552E+03  0.00000000000E+00 0.  1.
          2   -1    0    0  502    0  0.00000000000E+00 -0.00000000000E+00 -0.40159719476E+03  0.40159719476E+03  0.00000000000E+00 0. -1.
    9000007    1    1    2  502    0 -0.25110244863E+03 -0.11972068879E+03  0.44818639262E+02  0.48927925917E+03  0.40000000000E+03 0. -1.
   -9000007    1    1    2    0  501  0.25110244863E+03  0.11972068879E+03  0.15149893150E+03  0.51023270111E+03  0.40000000000E+03 0.  1.
<mgrwt>
<rscale>  2 0.48722221E+03</rscale>
<asrwt>0</asrwt>
<pdfrwt beam="1">  1        2 0.61784184E-01 0.48722221E+03</pdfrwt>
<pdfrwt beam="2">  1       -2 0.91986887E-01 0.48722221E+03</pdfrwt>
<totfact> 0.81755688E+01</totfact>
</mgrwt>
</event>
<event>
 4    1  0.2474915E-002  0.4323453E+03  0.7818608E-02  0.1033122E+00
          1   -1    0    0  502    0  0.00000000000E+00  0.00000000000E+00  0.17467686165E+03  0.17467686165E+03  0.00000000000E+00 0. -1.
         -1   -1    0    0    0  501 -0.00000000000E+00 -0.00000000000E+00 -0.12589175683E+04  0.12589175683E+04  0.00000000000E+00 0.  1.
    9000007    1    1    2  502    0 -0.13067907978E+03  0.99224024029E+02 -0.26452376312E+03  0.50684835019E+03  0.40000000000E+03 0. -1.
   -9000007    1    1    2    0  501  0.13067907978E+03 -0.99224024029E+02 -0.81971694357E+03  0.92674607980E+03  0.40000000000E+03 0.  1.
<mgrwt>
<rscale>  2 0.43234527E+03</rscale>
<asrwt>0</asrwt>
<pdfrwt beam="1">  1        1 0.26873363E-01 0.43234527E+03</pdfrwt>
<pdfrwt beam="2">  1       -1 0.19367963E+00 0.43234527E+03</pdfrwt>
<totfact> 0.31393261E+01</totfact>
</mgrwt>
</event>
<event>
 4    1  0.2474915E-002  0.4259162E+03  0.7818608E-02  0.1035158E+00
         -3   -1    0    0    0  501 -0.00000000000E+00  0.00000000000E+00  0.30251526144E+03  0.30251526144E+03  0.00000000000E+00 0.  1.
          3   -1    0    0  502    0  0.00000000000E+00 -0.00000000000E+00 -0.60169821531E+03  0.60169821531E+03  0.00000000000E+00 0. -1.
    9000007    1    1    2  502    0 -0.12920478398E+03  0.68634519187E+02 -0.12324124518E+03  0.44338806698E+03  0.40000000000E+03 0.  1.
   -9000007    1    1    2    0  501  0.12920478398E+03 -0.68634519187E+02 -0.17594170870E+03  0.46082540977E+03  0.40000000000E+03 0. -1.
<mgrwt>
<rscale>  2 0.42591616E+03</rscale>
<asrwt>0</asrwt>
<pdfrwt beam="1">  1        3 0.92568956E-01 0.42591616E+03</pdfrwt>
<pdfrwt beam="2">  1       -3 0.46540809E-01 0.42591616E+03</pdfrwt>
<totfact> 0.12492256E+01</totfact>
</mgrwt>
</event>
<event>
 4    1  0.2474915E-002  0.6092933E+03  0.7818608E-02  0.9886311E-01
         -2   -1    0    0    0  501 -0.00000000000E+00  0.00000000000E+00  0.32320329835E+03  0.32320329835E+03  0.00000000000E+00 0.  1.
          2   -1    0    0  502    0  0.00000000000E+00 -0.00000000000E+00 -0.14587313408E+04  0.14587313408E+04  0.00000000000E+00 0. -1.
    9000007    1    1    2  502    0 -0.45650725387E+03 -0.53286335061E+02 -0.97856529877E+03  0.11527481730E+04  0.40000000000E+03 0. -1.
   -9000007    1    1    2    0  501  0.45650725387E+03  0.53286335061E+02 -0.15696274370E+03  0.62918646620E+03  0.40000000000E+03 0.  1.
<mgrwt>
<rscale>  2 0.60929328E+03</rscale>
<asrwt>0</asrwt>
<pdfrwt beam="1">  1        2 0.22442021E+00 0.60929328E+03</pdfrwt>
<pdfrwt beam="2">  1       -2 0.49723584E-01 0.60929328E+03</pdfrwt>
<totfact> 0.53186961E+01</totfact>
</mgrwt>
</event>
<event>
 4    1  0.2474915E-002  0.4465251E+03  0.7818608E-02  0.1028763E+00
          1   -1    0    0  502    0  0.00000000000E+00  0.00000000000E+00  0.52635547301E+03  0.52635547301E+03  0.00000000000E+00 0. -1.
         -1   -1    0    0    0  501 -0.00000000000E+00 -0.00000000000E+00 -0.37922239893E+03  0.37922239893E+03  0.00000000000E+00 0.  1.
    9000007    1    1    2  502    0 -0.19822980410E+03 -0.94660685629E+01  0.88637002614E+02  0.45523749837E+03  0.40000000000E+03 0.  1.
   -9000007    1    1    2    0  501  0.19822980410E+03  0.94660685629E+01  0.58496071466E+02  0.45034037357E+03  0.40000000000E+03 0. -1.
<mgrwt>
<rscale>  2 0.44652510E+03</rscale>
<asrwt>0</asrwt>
<pdfrwt beam="1">  1        1 0.80977766E-01 0.44652510E+03</pdfrwt>
<pdfrwt beam="2">  1       -1 0.58341907E-01 0.44652510E+03</pdfrwt>
<totfact> 0.12788470E+02</totfact>
</mgrwt>
</event>
<event>
 4    1  0.2474915E-002  0.4941042E+03  0.7818608E-02  0.1015329E+00
         -2   -1    0    0    0  501 -0.00000000000E+00  0.00000000000E+00  0.21254094671E+03  0.21254094671E+03  0.00000000000E+00 0.  1.
          2   -1    0    0  502    0  0.00000000000E+00 -0.00000000000E+00 -0.12278812976E+04  0.12278812976E+04  0.00000000000E+00 0. -1.
    9000007    1    1    2  502    0 -0.29005453153E+03  0.27065735167E+01 -0.69059853133E+03  0.84915563254E+03  0.40000000000E+03 0.  1.
   -9000007    1    1    2    0  501  0.29005453153E+03 -0.27065735167E+01 -0.32474181952E+03  0.59126661173E+03  0.40000000000E+03 0. -1.
<mgrwt>
<rscale>  2 0.49410420E+03</rscale>
<asrwt>0</asrwt>
<pdfrwt beam="1">  1        2 0.18890481E+00 0.49410420E+03</pdfrwt>
<pdfrwt beam="2">  1       -2 0.32698607E-01 0.49410420E+03</pdfrwt>
<totfact> 0.16459881E+02</totfact>
</mgrwt>
</event>
<event>
 4    1  0.2474915E-002  0.4364904E+03  0.7818608E-02  0.1031829E+00
          1   -1    0    0  502    0  0.00000000000E+00  0.00000000000E+00  0.28591588190E+04  0.28591588190E+04  0.00000000000E+00 0.  1.
         -1   -1    0    0    0  501 -0.00000000000E+00 -0.00000000000E+00 -0.67617808010E+02  0.67617808010E+02  0.00000000000E+00 0. -1.
    9000007    1    1    2  502    0 -0.14366200145E+03  0.99423872157E+02  0.12194644293E+04  0.12952286946E+04  0.40000000000E+03 0.  1.
   -9000007    1    1    2    0  501  0.14366200145E+03 -0.99423872157E+02  0.15720765817E+04  0.16315479324E+04  0.40000000000E+03 0.  1.
<mgrwt>
<rscale>  2 0.43649041E+03</rscale>
<asrwt>0</asrwt>
<pdfrwt beam="1">  1        1 0.43987049E+00 0.43649041E+03</pdfrwt>
<pdfrwt beam="2">  1       -1 0.10402742E-01 0.43649041E+03</pdfrwt>
<totfact> 0.49711395E+01</totfact>
</mgrwt>
</event>
<event>
 4    1  0.2474915E-002  0.4506367E+03  0.7818608E-02  0.1027532E+00
          2   -1    0    0  502    0  0.00000000000E+00  0.00000000000E+00  0.91436325018E+03  0.91436325018E+03  0.00000000000E+00 0. -1.
         -2   -1    0    0    0  501 -0.00000000000E+00 -0.00000000000E+00 -0.22788290430E+03  0.22788290430E+03  0.00000000000E+00 0.  1.
    9000007    1    1    2  502    0 -0.18795925694E+03 -0.88004139711E+02  0.43427770112E+03  0.62583586711E+03  0.40000000000E+03 0. -1.
   -9000007    1    1    2    0  501  0.18795925694E+03  0.88004139711E+02  0.25220264477E+03  0.51641028737E+03  0.40000000000E+03 0. -1.
<mgrwt>
<rscale>  2 0.45063667E+03</rscale>
<asrwt>0</asrwt>
<pdfrwt beam="1">  1        2 0.14067127E+00 0.45063667E+03</pdfrwt>
<pdfrwt beam="2">  1       -2 0.35058909E-01 0.45063667E+03</pdfrwt>
<totfact> 0.22547694E+02</totfact>
</mgrwt>
</event>
<event>
 4    1  0.2474915E-002  0.5160673E+03  0.7818608E-02  0.1009668E+00
         -2   -1    0    0    0  501 -0.00000000000E+00  0.00000000000E+00  0.16533511187E+03  0.16533511187E+03  0.00000000000E+00 0.  1.
          2   -1    0    0  502    0  0.00000000000E+00 -0.00000000000E+00 -0.21205114740E+04  0.21205114740E+04  0.00000000000E+00 0. -1.
    9000007    1    1    2  502    0 -0.23468149536E+03 -0.22638484231E+03 -0.41725100902E+03  0.66364441204E+03  0.40000000000E+03 0.  1.
   -9000007    1    1    2    0  501  0.23468149536E+03  0.22638484231E+03 -0.15379253531E+04  0.16222021738E+04  0.40000000000E+03 0. -1.
<mgrwt>
<rscale>  2 0.51606734E+03</rscale>
<asrwt>0</asrwt>
<pdfrwt beam="1">  1        2 0.32623249E+00 0.51606734E+03</pdfrwt>
<pdfrwt beam="2">  1       -2 0.25436174E-01 0.51606734E+03</pdfrwt>
<totfact> 0.84482756E+01</totfact>
</mgrwt>
</event>
<event>
 4    1  0.2474915E-002  0.4048516E+03  0.7818608E-02  0.1042113E+00
          2   -1    0    0  502    0  0.00000000000E+00  0.00000000000E+00  0.80807103063E+03  0.80807103063E+03  0.00000000000E+00 0. -1.
         -2   -1    0    0    0  501 -0.00000000000E+00 -0.00000000000E+00 -0.33538362458E+03  0.33538362458E+03  0.00000000000E+00 0.  1.
    9000007    1    1    2  502    0  0.59252285530E+02 -0.19848833169E+02 -0.12307957490E+03  0.42314700906E+03  0.40000000000E+03 0.  1.
   -9000007    1    1    2    0  501 -0.59252285530E+02  0.19848833169E+02  0.59576698095E+03  0.72030764615E+03  0.40000000000E+03 0. -1.
<mgrwt>
<rscale>  2 0.40485159E+03</rscale>
<asrwt>0</asrwt>
<pdfrwt beam="1">  1        2 0.12431862E+00 0.40485159E+03</pdfrwt>
<pdfrwt beam="2">  1       -2 0.51597481E-01 0.40485159E+03</pdfrwt>
<totfact> 0.12550189E+02</totfact>
</mgrwt>
</event>
<event>
 4    1  0.2474915E-002  0.4798734E+03  0.7818608E-02  0.1019170E+00
         -2   -1    0    0    0  501 -0.00000000000E+00  0.00000000000E+00  0.11462036774E+03  0.11462036774E+03  0.00000000000E+00 0. -1.
          2   -1    0    0  502    0  0.00000000000E+00 -0.00000000000E+00 -0.26129092378E+04  0.26129092378E+04  0.00000000000E+00 0.  1.
    9000007    1    1    2  502    0  0.76590054352E+02 -0.25379606595E+03 -0.59353706873E+03  0.76325928195E+03  0.40000000000E+03 0. -1.
   -9000007    1    1    2    0  501 -0.76590054352E+02  0.25379606595E+03 -0.19047518014E+04  0.19642703236E+04  0.40000000000E+03 0.  1.
<mgrwt>
<rscale>  2 0.47987340E+03</rscale>
<asrwt>0</asrwt>
<pdfrwt beam="1">  1        2 0.40198605E+00 0.47987340E+03</pdfrwt>
<pdfrwt beam="2">  1       -2 0.17633902E-01 0.47987340E+03</pdfrwt>
<totfact> 0.86337356E+01</totfact>
</mgrwt>
</event>
<event>
 4    1  0.2474915E-002  0.4463632E+03  0.7818608E-02  0.1028812E+00
         -2   -1    0    0    0  501 -0.00000000000E+00  0.00000000000E+00  0.19138143803E+03  0.19138143803E+03  0.00000000000E+00 0.  1.
          2   -1    0    0  502    0  0.00000000000E+00 -0.00000000000E+00 -0.11356234098E+04  0.11356234098E+04  0.00000000000E+00 0. -1.
    9000007    1    1    2  502    0 -0.19372666850E+03 -0.41353316132E+02 -0.66358193198E+03  0.79973814420E+03  0.40000000000E+03 0. -1.
   -9000007    1    1    2    0  501  0.19372666850E+03  0.41353316132E+02 -0.28066003983E+03  0.52726670367E+03  0.40000000000E+03 0.  1.
<mgrwt>
<rscale>  2 0.44636321E+03</rscale>
<asrwt>0</asrwt>
<pdfrwt beam="1">  1        2 0.17471129E+00 0.44636321E+03</pdfrwt>
<pdfrwt beam="2">  1       -2 0.29443299E-01 0.44636321E+03</pdfrwt>
<totfact> 0.22747864E+02</totfact>
</mgrwt>
</event>
<event>
 4    1  0.2474915E-002  0.4947426E+03  0.7818608E-02  0.1015160E+00
         -2   -1    0    0    0  501 -0.00000000000E+00  0.00000000000E+00  0.26963369916E+03  0.26963369916E+03  0.00000000000E+00 0. -1.
          2   -1    0    0  502    0  0.00000000000E+00 -0.00000000000E+00 -0.10257049529E+04  0.10257049529E+04  0.00000000000E+00 0.  1.
    9000007    1    1    2  502    0 -0.25165683492E+03 -0.14642095406E+03 -0.59763448506E+03  0.77584614202E+03  0.40000000000E+03 0.  1.
   -9000007    1    1    2    0  501  0.25165683492E+03  0.14642095406E+03 -0.15843676870E+03  0.51949251008E+03  0.40000000000E+03 0.  1.
<mgrwt>
<rscale>  2 0.49474262E+03</rscale>
<asrwt>0</asrwt>
<pdfrwt beam="1">  1        2 0.15780076E+00 0.49474262E+03</pdfrwt>
<pdfrwt beam="2">  1       -2 0.41482107E-01 0.49474262E+03</pdfrwt>
<totfact> 0.13805989E+02</totfact>
</mgrwt>
</event>
<event>
 4    1  0.2474915E-002  0.4169517E+03  0.7818608E-02  0.1038063E+00
          1   -1    0    0  502    0  0.00000000000E+00  0.00000000000E+00  0.33704140865E+03  0.33704140865E+03  0.00000000000E+00 0.  1.
         -1   -1    0    0    0  501 -0.00000000000E+00 -0.00000000000E+00 -0.59148487198E+03  0.59148487198E+03  0.00000000000E+00 0. -1.
    9000007    1    1    2  502    0 -0.92968250333E+02 -0.72150021382E+02 -0.29328493317E+03  0.50976933331E+03  0.40000000000E+03 0. -1.
   -9000007    1    1    2    0  501  0.92968250333E+02  0.72150021382E+02  0.38841469839E+02  0.41875694733E+03  0.40000000000E+03 0.  1.
<mgrwt>
<rscale>  2 0.41695170E+03</rscale>
<asrwt>0</asrwt>
<pdfrwt beam="1">  1        1 0.51852525E-01 0.41695170E+03</pdfrwt>
<pdfrwt beam="2">  1       -1 0.90997672E-01 0.41695170E+03</pdfrwt>
<totfact> 0.92839145E+01</totfact>
</mgrwt>
</event>
<event>
 4    1  0.2474915E-002  0.5656595E+03  0.7818608E-02  0.9979330E-01
          1   -1    0    0  502    0  0.00000000000E+00  0.00000000000E+00  0.90215168635E+03  0.90215168635E+03  0.00000000000E+00 0.  1.
         -1   -1    0    0    0  501 -0.00000000000E+00 -0.00000000000E+00 -0.35780723522E+03  0.35780723522E+03  0.00000000000E+00 0. -1.
    9000007    1    1    2  502    0 -0.14910729480E+03 -0.37113026530E+03  0.33111468603E+03  0.65544457774E+03  0.40000000000E+03 0. -1.
   -9000007    1    1    2    0  501  0.14910729480E+03  0.37113026530E+03  0.21322976510E+03  0.60451434384E+03  0.40000000000E+03 0.  1.
<mgrwt>
<rscale>  2 0.56565949E+03</rscale>
<asrwt>0</asrwt>
<pdfrwt beam="1">  1        1 0.13879257E+00 0.56565949E+03</pdfrwt>
<pdfrwt beam="2">  1       -1 0.55047267E-01 0.56565949E+03</pdfrwt>
<totfact> 0.62978713E+01</totfact>
</mgrwt>
</event>
<event>
 4    1  0.2474915E-002  0.4890228E+03  0.7818608E-02  0.1016684E+00
          3   -1    0    0  502    0  0.00000000000E+00  0.00000000000E+00  0.21874283016E+04  0.21874283016E+04  0.00000000000E+00 0. -1.
         -3   -1    0    0    0  501 -0.00000000000E+00 -0.00000000000E+00 -0.13739396335E+03  0.13739396335E+03  0.00000000000E+00 0.  1.
    9000007    1    1    2  502    0  0.20266346443E+03 -0.19511751277E+03  0.49962997199E+03  0.69912333140E+03  0.40000000000E+03 0.  1.
   -9000007    1    1    2    0  501 -0.20266346443E+03  0.19511751277E+03  0.15504043663E+04  0.16256989336E+04  0.40000000000E+03 0. -1.
<mgrwt>
<rscale>  2 0.48902283E+03</rscale>
<asrwt>0</asrwt>
<pdfrwt beam="1">  1        3 0.33652740E+00 0.48902283E+03</pdfrwt>
<pdfrwt beam="2">  1       -3 0.21137534E-01 0.48902283E+03</pdfrwt>
<totfact> 0.13981769E+00</totfact>
</mgrwt>
</event>
<event>
 4    1  0.2474915E-002  0.4779524E+03  0.7818608E-02  0.1019699E+00
         -2   -1    0    0    0  501 -0.00000000000E+00  0.00000000000E+00  0.79610416693E+03  0.79610416693E+03  0.00000000000E+00 0. -1.
          2   -1    0    0  502    0  0.00000000000E+00 -0.00000000000E+00 -0.47706620811E+03  0.47706620811E+03  0.00000000000E+00 0.  1.
    9000007    1    1    2  502    0 -0.18896592746E+03  0.18091542971E+03 -0.24234761262E+03  0.53588327068E+03  0.40000000000E+03 0.  1.
   -9000007    1    1    2    0  501  0.18896592746E+03 -0.18091542971E+03  0.56138557143E+03  0.73728710436E+03  0.40000000000E+03 0. -1.
<mgrwt>
<rscale>  2 0.47795242E+03</rscale>
<asrwt>0</asrwt>
<pdfrwt beam="1">  1        2 0.73394801E-01 0.47795242E+03</pdfrwt>
<pdfrwt beam="2">  1       -2 0.12247756E+00 0.47795242E+03</pdfrwt>
<totfact> 0.34049573E+01</totfact>
</mgrwt>
</event>
<event>
 4    1  0.2474915E-002  0.4086536E+03  0.7818608E-02  0.1040824E+00
          2   -1    0    0  502    0  0.00000000000E+00  0.00000000000E+00  0.46006028215E+03  0.46006028215E+03  0.00000000000E+00 0.  1.
         -2   -1    0    0    0  501 -0.00000000000E+00 -0.00000000000E+00 -0.56471794287E+03  0.56471794287E+03  0.00000000000E+00 0. -1.
    9000007    1    1    2  502    0 -0.82530725752E+02 -0.13655323999E+02 -0.35857167054E+03  0.54366481538E+03  0.40000000000E+03 0. -1.
   -9000007    1    1    2    0  501  0.82530725752E+02  0.13655323999E+02  0.25391400981E+03  0.48111340965E+03  0.40000000000E+03 0.  1.
<mgrwt>
<rscale>  2 0.40865363E+03</rscale>
<asrwt>0</asrwt>
<pdfrwt beam="1">  1        2 0.70778505E-01 0.40865363E+03</pdfrwt>
<pdfrwt beam="2">  1       -2 0.86879684E-01 0.40865363E+03</pdfrwt>
<totfact> 0.80567617E+01</totfact>
</mgrwt>
</event>
<event>
 4    1  0.2474915E-002  0.4263105E+03  0.7818608E-02  0.1035032E+00
          1   -1    0    0  502    0  0.00000000000E+00  0.00000000000E+00  0.11633713359E+04  0.11633713359E+04  0.00000000000E+00 0. -1.
         -1   -1    0    0    0  501 -0.00000000000E+00 -0.00000000000E+00 -0.16961570067E+03  0.16961570067E+03  0.00000000000E+00 0.  1.
    9000007    1    1    2  502    0 -0.13154405460E+03  0.66609136646E+02  0.68418874080E+03  0.80613575062E+03  0.40000000000E+03 0. -1.
   -9000007    1    1    2    0  501  0.13154405460E+03 -0.66609136646E+02  0.30956689443E+03  0.52685128595E+03  0.40000000000E+03 0.  1.
<mgrwt>
<rscale>  2 0.42631047E+03</rscale>
<asrwt>0</asrwt>
<pdfrwt beam="1">  1        1 0.17898020E+00 0.42631047E+03</pdfrwt>
<pdfrwt beam="2">  1       -1 0.26094724E-01 0.42631047E+03</pdfrwt>
<totfact> 0.15514550E+02</totfact>
</mgrwt>
</event>
<event>
 4    1  0.2474915E-002  0.5114328E+03  0.7818608E-02  0.1010837E+00
         -2   -1    0    0    0  501 -0.00000000000E+00  0.00000000000E+00  0.27067648608E+03  0.27067648608E+03  0.00000000000E+00 0. -1.
          2   -1    0    0  502    0  0.00000000000E+00 -0.00000000000E+00 -0.14451953378E+04  0.14451953378E+04  0.00000000000E+00 0.  1.
    9000007    1    1    2  502    0 -0.30095752236E+03  0.10482386268E+03 -0.10811118165E+04  0.11959791939E+04  0.40000000000E+03 0.  1.
   -9000007    1    1    2    0  501  0.30095752236E+03 -0.10482386268E+03 -0.93407035180E+02  0.51989262995E+03  0.40000000000E+03 0. -1.
<mgrwt>
<rscale>  2 0.51143276E+03</rscale>
<asrwt>0</asrwt>
<pdfrwt beam="1">  1        2 0.22233774E+00 0.51143276E+03</pdfrwt>
<pdfrwt beam="2">  1       -2 0.41642537E-01 0.51143276E+03</pdfrwt>
<totfact> 0.78014074E+01</totfact>
</mgrwt>
</event>
<event>
 4    1  0.2474915E-002  0.5844772E+03  0.7818608E-02  0.9938145E-01
         -1   -1    0    0    0  501 -0.00000000000E+00  0.00000000000E+00  0.36200618628E+03  0.36200618628E+03  0.00000000000E+00 0. -1.
          1   -1    0    0  502    0  0.00000000000E+00 -0.00000000000E+00 -0.94868480375E+03  0.94868480375E+03  0.00000000000E+00 0.  1.
    9000007    1    1    2  502    0  0.31846364233E+02  0.42496987903E+03 -0.34099674212E+03  0.67667744690E+03  0.40000000000E+03 0.  1.
   -9000007    1    1    2    0  501 -0.31846364233E+02 -0.42496987903E+03 -0.24568187535E+03  0.63401354313E+03  0.40000000000E+03 0. -1.
<mgrwt>
<rscale>  2 0.58447719E+03</rscale>
<asrwt>0</asrwt>
<pdfrwt beam="1">  1        1 0.14595151E+00 0.58447719E+03</pdfrwt>
<pdfrwt beam="2">  1       -1 0.55693260E-01 0.58447719E+03</pdfrwt>
<totfact> 0.56411971E+01</totfact>
</mgrwt>
</event>
<event>
 4    1  0.2474915E-002  0.5345980E+03  0.7818608E-02  0.1005123E+00
          1   -1    0    0  502    0  0.00000000000E+00  0.00000000000E+00  0.12048970168E+04  0.12048970168E+04  0.00000000000E+00 0.  1.
         -1   -1    0    0    0  501 -0.00000000000E+00 -0.00000000000E+00 -0.23721620800E+03  0.23721620800E+03  0.00000000000E+00 0. -1.
    9000007    1    1    2  502    0  0.30508229383E+03  0.18088625868E+03  0.49072506223E+03  0.72567632681E+03  0.40000000000E+03 0.  1.
   -9000007    1    1    2    0  501 -0.30508229383E+03 -0.18088625868E+03  0.47695574652E+03  0.71643689794E+03  0.40000000000E+03 0.  1.
<mgrwt>
<rscale>  2 0.53459802E+03</rscale>
<asrwt>0</asrwt>
<pdfrwt beam="1">  1        1 0.18536877E+00 0.53459802E+03</pdfrwt>
<pdfrwt beam="2">  1       -1 0.36494802E-01 0.53459802E+03</pdfrwt>
<totfact> 0.79799038E+01</totfact>
</mgrwt>
</event>
<event>
 4    1  0.2474915E-002  0.4011659E+03  0.7818608E-02  0.1043377E+00
         -1   -1    0    0    0  501 -0.00000000000E+00  0.00000000000E+00  0.96775794353E+02  0.96775794353E+02  0.00000000000E+00 0. -1.
          1   -1    0    0  502    0  0.00000000000E+00 -0.00000000000E+00 -0.20196657593E+04  0.20196657593E+04  0.00000000000E+00 0.  1.
    9000007    1    1    2  502    0 -0.25285830592E+02  0.17167576357E+02 -0.14061711675E+04  0.14622761201E+04  0.40000000000E+03 0.  1.
   -9000007    1    1    2    0  501  0.25285830592E+02 -0.17167576357E+02 -0.51671879743E+03  0.65416543361E+03  0.40000000000E+03 0. -1.
<mgrwt>
<rscale>  2 0.40116592E+03</rscale>
<asrwt>0</asrwt>
<pdfrwt beam="1">  1        1 0.31071782E+00 0.40116592E+03</pdfrwt>
<pdfrwt beam="2">  1       -1 0.14888583E-01 0.40116592E+03</pdfrwt>
<totfact> 0.10396032E+02</totfact>
</mgrwt>
</event>
<event>
 4    1  0.2474915E-002  0.5237855E+03  0.7818608E-02  0.1007750E+00
          2   -1    0    0  502    0  0.00000000000E+00  0.00000000000E+00  0.10533927752E+04  0.10533927752E+04  0.00000000000E+00 0.  1.
         -2   -1    0    0    0  501 -0.00000000000E+00 -0.00000000000E+00 -0.76928623275E+03  0.76928623275E+03  0.00000000000E+00 0. -1.
    9000007    1    1    2  502    0  0.33814098447E+03  0.34591963410E+01 -0.59913271236E+03  0.79580858153E+03  0.40000000000E+03 0. -1.
   -9000007    1    1    2    0  501 -0.33814098447E+03 -0.34591963410E+01  0.88323925481E+03  0.10268704264E+04  0.40000000000E+03 0.  1.
<mgrwt>
<rscale>  2 0.52378554E+03</rscale>
<asrwt>0</asrwt>
<pdfrwt beam="1">  1        2 0.16206043E+00 0.52378554E+03</pdfrwt>
<pdfrwt beam="2">  1       -2 0.11835173E+00 0.52378554E+03</pdfrwt>
<totfact> 0.13439147E+01</totfact>
</mgrwt>
</event>
<event>
 4    1  0.2474915E-002  0.4181917E+03  0.7818608E-02  0.1037656E+00
          2   -1    0    0  502    0  0.00000000000E+00  0.00000000000E+00  0.19703925718E+04  0.19703925718E+04  0.00000000000E+00 0. -1.
         -2   -1    0    0    0  501 -0.00000000000E+00 -0.00000000000E+00 -0.89262813059E+02  0.89262813059E+02  0.00000000000E+00 0.  1.
    9000007    1    1    2  502    0 -0.40243999777E+02 -0.11517266717E+03  0.10181571488E+04  0.11006944637E+04  0.40000000000E+03 0. -1.
   -9000007    1    1    2    0  501  0.40243999777E+02  0.11517266717E+03  0.86297260991E+03  0.95896092112E+03  0.40000000000E+03 0. -1.
<mgrwt>
<rscale>  2 0.41819173E+03</rscale>
<asrwt>0</asrwt>
<pdfrwt beam="1">  1        2 0.30313729E+00 0.41819173E+03</pdfrwt>
<pdfrwt beam="2">  1       -2 0.13732742E-01 0.41819173E+03</pdfrwt>
<totfact> 0.29874288E+02</totfact>
</mgrwt>
</event>
<event>
 4    1  0.2474915E-002  0.5228654E+03  0.7818608E-02  0.1007977E+00
          1   -1    0    0  502    0  0.00000000000E+00  0.00000000000E+00  0.21112813416E+04  0.21112813416E+04  0.00000000000E+00 0. -1.
         -1   -1    0    0    0  501 -0.00000000000E+00 -0.00000000000E+00 -0.13217273715E+03  0.13217273715E+03  0.00000000000E+00 0.  1.
    9000007    1    1    2  502    0  0.17513995113E+03 -0.28760084915E+03  0.82972165560E+03  0.98072742222E+03  0.40000000000E+03 0. -1.
   -9000007    1    1    2    0  501 -0.17513995113E+03  0.28760084915E+03  0.11493869488E+04  0.12627266565E+04  0.40000000000E+03 0.  1.
<mgrwt>
<rscale>  2 0.52286542E+03</rscale>
<asrwt>0</asrwt>
<pdfrwt beam="1">  1        1 0.32481249E+00 0.52286542E+03</pdfrwt>
<pdfrwt beam="2">  1       -1 0.20334269E-01 0.52286542E+03</pdfrwt>
<totfact> 0.53224522E+01</totfact>
</mgrwt>
</event>
<event>
 4    1  0.2474915E-002  0.5035667E+03  0.7818608E-02  0.1012852E+00
         -2   -1    0    0    0  501 -0.00000000000E+00  0.00000000000E+00  0.29710681463E+03  0.29710681463E+03  0.00000000000E+00 0. -1.
          2   -1    0    0  502    0  0.00000000000E+00 -0.00000000000E+00 -0.10267393876E+04  0.10267393876E+04  0.00000000000E+00 0.  1.
    9000007    1    1    2  502    0  0.29769611152E+03  0.70401862498E+02 -0.63671434179E+03  0.81177863368E+03  0.40000000000E+03 0.  1.
   -9000007    1    1    2    0  501 -0.29769611152E+03 -0.70401862498E+02 -0.92918231167E+02  0.51206756853E+03  0.40000000000E+03 0. -1.
<mgrwt>
<rscale>  2 0.50356668E+03</rscale>
<asrwt>0</asrwt>
<pdfrwt beam="1">  1        2 0.15795991E+00 0.50356668E+03</pdfrwt>
<pdfrwt beam="2">  1       -2 0.45708741E-01 0.50356668E+03</pdfrwt>
<totfact> 0.11377788E+02</totfact>
</mgrwt>
</event>
<event>
 4    1  0.2474915E-002  0.4820318E+03  0.7818608E-02  0.1018578E+00
         -1   -1    0    0    0  501 -0.00000000000E+00  0.00000000000E+00  0.79219396274E+02  0.79219396274E+02  0.00000000000E+00 0.  1.
          1   -1    0    0  502    0  0.00000000000E+00 -0.00000000000E+00 -0.29928939951E+04  0.29928939951E+04  0.00000000000E+00 0. -1.
    9000007    1    1    2  502    0  0.78068166164E+02 -0.25741023535E+03 -0.12396362591E+04  0.13300574133E+04  0.40000000000E+03 0.  1.
   -9000007    1    1    2    0  501 -0.78068166164E+02  0.25741023535E+03 -0.16740383398E+04  0.17420559781E+04  0.40000000000E+03 0.  1.
<mgrwt>
<rscale>  2 0.48203181E+03</rscale>
<asrwt>0</asrwt>
<pdfrwt beam="1">  1        1 0.46044526E+00 0.48203181E+03</pdfrwt>
<pdfrwt beam="2">  1       -1 0.12187599E-01 0.48203181E+03</pdfrwt>
<totfact> 0.30856675E+01</totfact>
</mgrwt>
</event>
<event>
 4    1  0.2474915E-002  0.4090147E+03  0.7818608E-02  0.1040702E+00
          2   -1    0    0  502    0  0.00000000000E+00  0.00000000000E+00  0.13031450795E+04  0.13031450795E+04  0.00000000000E+00 0.  1.
         -2   -1    0    0    0  501 -0.00000000000E+00 -0.00000000000E+00 -0.18135703528E+03  0.18135703528E+03  0.00000000000E+00 0. -1.
    9000007    1    1    2  502    0 -0.71122658193E+02  0.47271187599E+02  0.15971109579E+03  0.43909068745E+03  0.40000000000E+03 0. -1.
   -9000007    1    1    2    0  501  0.71122658193E+02 -0.47271187599E+02  0.96207694848E+03  0.10454114274E+04  0.40000000000E+03 0.  1.
<mgrwt>
<rscale>  2 0.40901467E+03</rscale>
<asrwt>0</asrwt>
<pdfrwt beam="1">  1        2 0.20048385E+00 0.40901467E+03</pdfrwt>
<pdfrwt beam="2">  1       -2 0.27901083E-01 0.40901467E+03</pdfrwt>
<totfact> 0.20168345E+02</totfact>
</mgrwt>
</event>
<event>
 4    1  0.2474915E-002  0.5632149E+03  0.7818608E-02  0.9984806E-01
         -2   -1    0    0    0  501 -0.00000000000E+00  0.00000000000E+00  0.13805292378E+03  0.13805292378E+03  0.00000000000E+00 0. -1.
          2   -1    0    0  502    0  0.00000000000E+00 -0.00000000000E+00 -0.24707825515E+04  0.24707825515E+04  0.00000000000E+00 0.  1.
    9000007    1    1    2  502    0 -0.16351783697E+03  0.36121043879E+03 -0.15115591936E+04  0.16130785040E+04  0.40000000000E+03 0.  1.
   -9000007    1    1    2    0  501  0.16351783697E+03 -0.36121043879E+03 -0.82117043406E+03  0.99575697130E+03  0.40000000000E+03 0. -1.
<mgrwt>
<rscale>  2 0.56321494E+03</rscale>
<asrwt>0</asrwt>
<pdfrwt beam="1">  1        2 0.38012037E+00 0.56321494E+03</pdfrwt>
<pdfrwt beam="2">  1       -2 0.21238913E-01 0.56321494E+03</pdfrwt>
<totfact> 0.74104154E+01</totfact>
</mgrwt>
</event>
<event>
 4    1  0.2474915E-002  0.4210974E+03  0.7818608E-02  0.1036710E+00
          1   -1    0    0  502    0  0.00000000000E+00  0.00000000000E+00  0.17546531755E+04  0.17546531755E+04  0.00000000000E+00 0. -1.
         -1   -1    0    0    0  501 -0.00000000000E+00 -0.00000000000E+00 -0.20476499241E+03  0.20476499241E+03  0.00000000000E+00 0.  1.
    9000007    1    1    2  502    0 -0.10856334932E+03  0.74411225645E+02  0.14721671789E+04  0.15312084228E+04  0.40000000000E+03 0. -1.
   -9000007    1    1    2    0  501  0.10856334932E+03 -0.74411225645E+02  0.77721004160E+02  0.42820974511E+03  0.40000000000E+03 0.  1.
<mgrwt>
<rscale>  2 0.42109741E+03</rscale>
<asrwt>0</asrwt>
<pdfrwt beam="1">  1        1 0.26994663E+00 0.42109741E+03</pdfrwt>
<pdfrwt beam="2">  1       -1 0.31502308E-01 0.42109741E+03</pdfrwt>
<totfact> 0.44480141E+01</totfact>
</mgrwt>
</event>
<event>
 4    1  0.2474915E-002  0.4313201E+03  0.7818608E-02  0.1033444E+00
          2   -1    0    0  502    0  0.00000000000E+00  0.00000000000E+00  0.12372717290E+04  0.12372717290E+04  0.00000000000E+00 0. -1.
         -2   -1    0    0    0  501 -0.00000000000E+00 -0.00000000000E+00 -0.16057023328E+03  0.16057023328E+03  0.00000000000E+00 0.  1.
    9000007    1    1    2  502    0 -0.15245985177E+01 -0.16135270640E+03  0.71458848125E+03  0.83466982562E+03  0.40000000000E+03 0. -1.
   -9000007    1    1    2    0  501  0.15245985177E+01  0.16135270640E+03  0.36211301444E+03  0.56317213664E+03  0.40000000000E+03 0. -1.
<mgrwt>
<rscale>  2 0.43132009E+03</rscale>
<asrwt>0</asrwt>
<pdfrwt beam="1">  1        2 0.19034949E+00 0.43132009E+03</pdfrwt>
<pdfrwt beam="2">  1       -2 0.24703114E-01 0.43132009E+03</pdfrwt>
<totfact> 0.27302053E+02</totfact>
</mgrwt>
</event>
<event>
 4    1  0.2474915E-002  0.4016208E+03  0.7818608E-02  0.1043220E+00
          1   -1    0    0  502    0  0.00000000000E+00  0.00000000000E+00  0.18803672282E+04  0.18803672282E+04  0.00000000000E+00 0.  1.
         -1   -1    0    0    0  501 -0.00000000000E+00 -0.00000000000E+00 -0.86087088911E+02  0.86087088911E+02  0.00000000000E+00 0. -1.
    9000007    1    1    2  502    0 -0.65179273658E+01 -0.35450932260E+02  0.95579550015E+03  0.10367469750E+04  0.40000000000E+03 0.  1.
   -9000007    1    1    2    0  501  0.65179273658E+01  0.35450932260E+02  0.83848463910E+03  0.92970734212E+03  0.40000000000E+03 0. -1.
<mgrwt>
<rscale>  2 0.40162078E+03</rscale>
<asrwt>0</asrwt>
<pdfrwt beam="1">  1        1 0.28928723E+00 0.40162078E+03</pdfrwt>
<pdfrwt beam="2">  1       -1 0.13244169E-01 0.40162078E+03</pdfrwt>
<totfact> 0.15476345E+02</totfact>
</mgrwt>
</event>
<event>
 4    1  0.2474915E-002  0.4407653E+03  0.7818608E-02  0.1030512E+00
          1   -1    0    0  502    0  0.00000000000E+00  0.00000000000E+00  0.82030009478E+03  0.82030009478E+03  0.00000000000E+00 0.  1.
         -1   -1    0    0    0  501 -0.00000000000E+00 -0.00000000000E+00 -0.35549085711E+03  0.35549085711E+03  0.00000000000E+00 0. -1.
    9000007    1    1    2  502    0 -0.18277637644E+03  0.29442138396E+02  0.57205675437E+03  0.72216547516E+03  0.40000000000E+03 0.  1.
   -9000007    1    1    2    0  501  0.18277637644E+03 -0.29442138396E+02 -0.10724751670E+03  0.45362547673E+03  0.40000000000E+03 0.  1.
<mgrwt>
<rscale>  2 0.44076529E+03</rscale>
<asrwt>0</asrwt>
<pdfrwt beam="1">  1        1 0.12620001E+00 0.44076529E+03</pdfrwt>
<pdfrwt beam="2">  1       -1 0.54690901E-01 0.44076529E+03</pdfrwt>
<totfact> 0.75683133E+01</totfact>
</mgrwt>
</event>
<event>
 4    1  0.2474915E-002  0.5294441E+03  0.7818608E-02  0.1006367E+00
         -1   -1    0    0    0  501 -0.00000000000E+00  0.00000000000E+00  0.13455755824E+03  0.13455755824E+03  0.00000000000E+00 0.  1.
          1   -1    0    0  502    0  0.00000000000E+00 -0.00000000000E+00 -0.25833734797E+04  0.25833734797E+04  0.00000000000E+00 0. -1.
    9000007    1    1    2  502    0  0.18645101895E+03 -0.29248429498E+03 -0.62644706743E+03  0.82021154196E+03  0.40000000000E+03 0.  1.
   -9000007    1    1    2    0  501 -0.18645101895E+03  0.29248429498E+03 -0.18223688541E+04  0.18977194960E+04  0.40000000000E+03 0. -1.
<mgrwt>
<rscale>  2 0.52944409E+03</rscale>
<asrwt>0</asrwt>
<pdfrwt beam="1">  1        1 0.39744210E+00 0.52944409E+03</pdfrwt>
<pdfrwt beam="2">  1       -1 0.20701161E-01 0.52944409E+03</pdfrwt>
<totfact> 0.24887104E+01</totfact>
</mgrwt>
</event>
<event>
 4    1  0.2474915E-002  0.4445055E+03  0.7818608E-02  0.1029373E+00
         -3   -1    0    0    0  501 -0.00000000000E+00  0.00000000000E+00  0.69573321125E+03  0.69573321125E+03  0.00000000000E+00 0.  1.
          3   -1    0    0  502    0  0.00000000000E+00 -0.00000000000E+00 -0.32354649208E+03  0.32354649208E+03  0.00000000000E+00 0. -1.
    9000007    1    1    2  502    0 -0.18166250097E+03  0.67704585689E+02  0.36427917953E+03  0.57470383313E+03  0.40000000000E+03 0.  1.
   -9000007    1    1    2    0  501  0.18166250097E+03 -0.67704585689E+02  0.79075396461E+01  0.44457587020E+03  0.40000000000E+03 0. -1.
<mgrwt>
<rscale>  2 0.44450554E+03</rscale>
<asrwt>0</asrwt>
<pdfrwt beam="1">  1        3 0.49776383E-01 0.44450554E+03</pdfrwt>
<pdfrwt beam="2">  1       -3 0.10703588E+00 0.44450554E+03</pdfrwt>
<totfact> 0.77717875E+00</totfact>
</mgrwt>
</event>
<event>
 4    1  0.2474915E-002  0.4519634E+03  0.7818608E-02  0.1027138E+00
          1   -1    0    0  502    0  0.00000000000E+00  0.00000000000E+00  0.62123026460E+03  0.62123026460E+03  0.00000000000E+00 0.  1.
         -1   -1    0    0    0  501 -0.00000000000E+00 -0.00000000000E+00 -0.33842138032E+03  0.33842138032E+03  0.00000000000E+00 0. -1.
    9000007    1    1    2  502    0 -0.19719627951E+03  0.73379218090E+02  0.22223885638E+03  0.50364768597E+03  0.40000000000E+03 0.  1.
   -9000007    1    1    2    0  501  0.19719627951E+03 -0.73379218090E+02  0.60570027895E+02  0.45600395895E+03  0.40000000000E+03 0. -1.
<mgrwt>
<rscale>  2 0.45196336E+03</rscale>
<asrwt>0</asrwt>
<pdfrwt beam="1">  1        1 0.95573886E-01 0.45196336E+03</pdfrwt>
<pdfrwt beam="2">  1       -1 0.52064828E-01 0.45196336E+03</pdfrwt>
<totfact> 0.12602323E+02</totfact>
</mgrwt>
</event>
<event>
 4    1  0.2474915E-002  0.8587659E+03  0.7818608E-02  0.9478647E-01
          2   -1    0    0  502    0  0.00000000000E+00  0.00000000000E+00  0.26372635714E+04  0.26372635714E+04  0.00000000000E+00 0.  1.
         -2   -1    0    0    0  501 -0.00000000000E+00 -0.00000000000E+00 -0.62768781629E+03  0.62768781629E+03  0.00000000000E+00 0. -1.
    9000007    1    1    2  502    0 -0.21125509187E+03 -0.72996591085E+03 -0.21082591196E+03  0.88426608552E+03  0.40000000000E+03 0. -1.
   -9000007    1    1    2    0  501  0.21125509187E+03  0.72996591085E+03  0.22204016671E+04  0.23806853022E+04  0.40000000000E+03 0.  1.
<mgrwt>
<rscale>  2 0.85876594E+03</rscale>
<asrwt>0</asrwt>
<pdfrwt beam="1">  1        2 0.40573285E+00 0.85876594E+03</pdfrwt>
<pdfrwt beam="2">  1       -2 0.96567358E-01 0.85876594E+03</pdfrwt>
<totfact> 0.26834460E+00</totfact>
</mgrwt>
</event>
<event>
 4    1  0.2474915E-002  0.4008087E+03  0.7818608E-02  0.1043500E+00
         -2   -1    0    0    0  501 -0.00000000000E+00  0.00000000000E+00  0.16567040227E+04  0.16567040227E+04  0.00000000000E+00 0.  1.
          2   -1    0    0  502    0  0.00000000000E+00 -0.00000000000E+00 -0.13071328862E+03  0.13071328862E+03  0.00000000000E+00 0. -1.
    9000007    1    1    2  502    0 -0.14638488603E+01  0.25406496197E+02  0.12170846786E+04  0.12813831386E+04  0.40000000000E+03 0.  1.
   -9000007    1    1    2    0  501  0.14638488603E+01 -0.25406496197E+02  0.30890605550E+03  0.50603417278E+03  0.40000000000E+03 0. -1.
<mgrwt>
<rscale>  2 0.40080872E+03</rscale>
<asrwt>0</asrwt>
<pdfrwt beam="1">  1        2 0.20109738E-01 0.40080872E+03</pdfrwt>
<pdfrwt beam="2">  1       -2 0.25487753E+00 0.40080872E+03</pdfrwt>
<totfact> 0.18125069E+01</totfact>
</mgrwt>
</event>
<event>
 4    1  0.2474915E-002  0.5575602E+03  0.7818608E-02  0.9997590E-01
         -1   -1    0    0    0  501 -0.00000000000E+00  0.00000000000E+00  0.25679458851E+03  0.25679458851E+03  0.00000000000E+00 0. -1.
          1   -1    0    0  502    0  0.00000000000E+00 -0.00000000000E+00 -0.13209222150E+04  0.13209222150E+04  0.00000000000E+00 0.  1.
    9000007    1    1    2  502    0 -0.38641305261E+03 -0.39475905312E+02 -0.30407776022E+03  0.63508792980E+03  0.40000000000E+03 0. -1.
   -9000007    1    1    2    0  501  0.38641305261E+03  0.39475905312E+02 -0.76004986623E+03  0.94262887367E+03  0.40000000000E+03 0.  1.
<mgrwt>
<rscale>  2 0.55756022E+03</rscale>
<asrwt>0</asrwt>
<pdfrwt beam="1">  1        1 0.20321880E+00 0.55756022E+03</pdfrwt>
<pdfrwt beam="2">  1       -1 0.39506861E-01 0.55756022E+03</pdfrwt>
<totfact> 0.57142577E+01</totfact>
</mgrwt>
</event>
<event>
 4    1  0.2474915E-002  0.4104771E+03  0.7818608E-02  0.1040211E+00
         -2   -1    0    0    0  501 -0.00000000000E+00  0.00000000000E+00  0.50333670300E+02  0.50333670300E+02  0.00000000000E+00 0.  1.
          2   -1    0    0  502    0  0.00000000000E+00 -0.00000000000E+00 -0.36024345644E+04  0.36024345644E+04  0.00000000000E+00 0. -1.
    9000007    1    1    2  502    0 -0.85742321052E+02 -0.33759316896E+02 -0.12901835583E+04  0.13539073274E+04  0.40000000000E+03 0.  1.
   -9000007    1    1    2    0  501  0.85742321052E+02  0.33759316896E+02 -0.22619173358E+04  0.22988609073E+04  0.40000000000E+03 0. -1.
<mgrwt>
<rscale>  2 0.41047708E+03</rscale>
<asrwt>0</asrwt>
<pdfrwt beam="1">  1        2 0.55422074E+00 0.41047708E+03</pdfrwt>
<pdfrwt beam="2">  1       -2 0.77436411E-02 0.41047708E+03</pdfrwt>
<totfact> 0.82339895E+01</totfact>
</mgrwt>
</event>
<event>
 4    1  0.2474915E-002  0.5624149E+03  0.7818608E-02  0.9986605E-01
         -2   -1    0    0    0  501 -0.00000000000E+00  0.00000000000E+00  0.12077000587E+03  0.12077000587E+03  0.00000000000E+00 0.  1.
          2   -1    0    0  502    0  0.00000000000E+00 -0.00000000000E+00 -0.26384401766E+04  0.26384401766E+04  0.00000000000E+00 0. -1.
    9000007    1    1    2  502    0 -0.39353991901E+03  0.37906239201E+02 -0.13769055644E+04  0.14873397339E+04  0.40000000000E+03 0.  1.
   -9000007    1    1    2    0  501  0.39353991901E+03 -0.37906239201E+02 -0.11407646063E+04  0.12718704485E+04  0.40000000000E+03 0.  1.
<mgrwt>
<rscale>  2 0.56241493E+03</rscale>
<asrwt>0</asrwt>
<pdfrwt beam="1">  1        2 0.40591383E+00 0.56241493E+03</pdfrwt>
<pdfrwt beam="2">  1       -2 0.18580003E-01 0.56241493E+03</pdfrwt>
<totfact> 0.75183496E+01</totfact>
</mgrwt>
</event>
<event>
 4    1  0.2474915E-002  0.4404646E+03  0.7818608E-02  0.1030604E+00
         -2   -1    0    0    0  501 -0.00000000000E+00  0.00000000000E+00  0.64479993481E+03  0.64479993481E+03  0.00000000000E+00 0.  1.
          2   -1    0    0  502    0  0.00000000000E+00 -0.00000000000E+00 -0.31121446690E+03  0.31121446690E+03  0.00000000000E+00 0. -1.
    9000007    1    1    2  502    0  0.17280128830E+03 -0.64410843617E+02  0.25388813399E+03  0.50839770514E+03  0.40000000000E+03 0.  1.
   -9000007    1    1    2    0  501 -0.17280128830E+03  0.64410843617E+02  0.79697333912E+02  0.44761669657E+03  0.40000000000E+03 0.  1.
<mgrwt>
<rscale>  2 0.44046458E+03</rscale>
<asrwt>0</asrwt>
<pdfrwt beam="1">  1        2 0.47879149E-01 0.44046458E+03</pdfrwt>
<pdfrwt beam="2">  1       -2 0.99199989E-01 0.44046458E+03</pdfrwt>
<totfact> 0.91237033E+01</totfact>
</mgrwt>
</event>
<event>
 4    1  0.2474915E-002  0.5061852E+03  0.7818608E-02  0.1012177E+00
          1   -1    0    0  502    0  0.00000000000E+00  0.00000000000E+00  0.88883483560E+03  0.88883483560E+03  0.00000000000E+00 0.  1.
         -1   -1    0    0    0  501 -0.00000000000E+00 -0.00000000000E+00 -0.29171463901E+03  0.29171463901E+03  0.00000000000E+00 0. -1.
    9000007    1    1    2  502    0 -0.30542054439E+03  0.54237586870E+02  0.23440703795E+03  0.55782621327E+03  0.40000000000E+03 0.  1.
   -9000007    1    1    2    0  501  0.30542054439E+03 -0.54237586870E+02  0.36271315864E+03  0.62272326134E+03  0.40000000000E+03 0. -1.
<mgrwt>
<rscale>  2 0.50618517E+03</rscale>
<asrwt>0</asrwt>
<pdfrwt beam="1">  1        1 0.13674382E+00 0.50618517E+03</pdfrwt>
<pdfrwt beam="2">  1       -1 0.44879176E-01 0.50618517E+03</pdfrwt>
<totfact> 0.95454490E+01</totfact>
</mgrwt>
</event>
<event>
 4    1  0.2474915E-002  0.4812429E+03  0.7818608E-02  0.1018794E+00
         -2   -1    0    0    0  501 -0.00000000000E+00  0.00000000000E+00  0.91650968353E+02  0.91650968353E+02  0.00000000000E+00 0.  1.
          2   -1    0    0  502    0  0.00000000000E+00 -0.00000000000E+00 -0.25368403804E+04  0.25368403804E+04  0.00000000000E+00 0. -1.
    9000007    1    1    2  502    0  0.12702377928E+03  0.23549883903E+03 -0.11404129639E+04  0.12377950040E+04  0.40000000000E+03 0.  1.
   -9000007    1    1    2    0  501 -0.12702377928E+03 -0.23549883903E+03 -0.13047764482E+04  0.13906963448E+04  0.40000000000E+03 0. -1.
<mgrwt>
<rscale>  2 0.48124292E+03</rscale>
<asrwt>0</asrwt>
<pdfrwt beam="1">  1        2 0.39028310E+00 0.48124292E+03</pdfrwt>
<pdfrwt beam="2">  1       -2 0.14100150E-01 0.48124292E+03</pdfrwt>
<totfact> 0.13896611E+02</totfact>
</mgrwt>
</event>
<event>
 4    1  0.2474915E-002  0.4059473E+03  0.7818608E-02  0.1041740E+00
          2   -1    0    0  502    0  0.00000000000E+00  0.00000000000E+00  0.22272063342E+03  0.22272063342E+03  0.00000000000E+00 0. -1.
         -2   -1    0    0    0  501 -0.00000000000E+00 -0.00000000000E+00 -0.12164612162E+04  0.12164612162E+04  0.00000000000E+00 0.  1.
    9000007    1    1    2  502    0 -0.69136366694E+02  0.36525165623E+01 -0.46477502193E+02  0.40859923677E+03  0.40000000000E+03 0. -1.
   -9000007    1    1    2    0  501  0.69136366694E+02 -0.36525165623E+01 -0.94726308056E+03  0.10305826128E+04  0.40000000000E+03 0.  1.
<mgrwt>
<rscale>  2 0.40594726E+03</rscale>
<asrwt>0</asrwt>
<pdfrwt beam="1">  1        2 0.34264713E-01 0.40594726E+03</pdfrwt>
<pdfrwt beam="2">  1       -2 0.18714788E+00 0.40594726E+03</pdfrwt>
<totfact> 0.26046190E+01</totfact>
</mgrwt>
</event>
<event>
 4    1  0.2474915E-002  0.4510864E+03  0.7818608E-02  0.1027399E+00
          2   -1    0    0  502    0  0.00000000000E+00  0.00000000000E+00  0.12423633416E+04  0.12423633416E+04  0.00000000000E+00 0. -1.
         -2   -1    0    0    0  501 -0.00000000000E+00 -0.00000000000E+00 -0.16492071480E+03  0.16492071480E+03  0.00000000000E+00 0.  1.
    9000007    1    1    2  502    0  0.10388488915E+03  0.18079521934E+03  0.59714369877E+03  0.74837128387E+03  0.40000000000E+03 0.  1.
   -9000007    1    1    2    0  501 -0.10388488915E+03 -0.18079521934E+03  0.48029892799E+03  0.65891277250E+03  0.40000000000E+03 0. -1.
<mgrwt>
<rscale>  2 0.45108645E+03</rscale>
<asrwt>0</asrwt>
<pdfrwt beam="1">  1        2 0.19113282E+00 0.45108645E+03</pdfrwt>
<pdfrwt beam="2">  1       -2 0.25372418E-01 0.45108645E+03</pdfrwt>
<totfact> 0.25801424E+02</totfact>
</mgrwt>
</event>
<event>
 4    1  0.2474915E-002  0.5522964E+03  0.7818608E-02  0.1000964E+00
         -2   -1    0    0    0  501 -0.00000000000E+00  0.00000000000E+00  0.72511584738E+03  0.72511584738E+03  0.00000000000E+00 0. -1.
          2   -1    0    0  502    0  0.00000000000E+00 -0.00000000000E+00 -0.65452655973E+03  0.65452655973E+03  0.00000000000E+00 0.  1.
    9000007    1    1    2  502    0 -0.38008655118E+03  0.23780868376E+02  0.44763110240E+03  0.71091836375E+03  0.40000000000E+03 0. -1.
   -9000007    1    1    2    0  501  0.38008655118E+03 -0.23780868376E+02 -0.37704181476E+03  0.66872404335E+03  0.40000000000E+03 0.  1.
<mgrwt>
<rscale>  2 0.55229640E+03</rscale>
<asrwt>0</asrwt>
<pdfrwt beam="1">  1        2 0.10069639E+00 0.55229640E+03</pdfrwt>
<pdfrwt beam="2">  1       -2 0.11155629E+00 0.55229640E+03</pdfrwt>
<totfact> 0.29238672E+01</totfact>
</mgrwt>
</event>
<event>
 4    1  0.2474915E-002  0.4933830E+03  0.7818608E-02  0.1015521E+00
          1   -1    0    0  502    0  0.00000000000E+00  0.00000000000E+00  0.17912607038E+04  0.17912607038E+04  0.00000000000E+00 0.  1.
         -1   -1    0    0    0  501 -0.00000000000E+00 -0.00000000000E+00 -0.14052646034E+03  0.14052646034E+03  0.00000000000E+00 0. -1.
    9000007    1    1    2  502    0 -0.25437450367E+03 -0.13682255509E+03  0.65005195047E+03  0.81608476154E+03  0.40000000000E+03 0.  1.
   -9000007    1    1    2    0  501  0.25437450367E+03  0.13682255509E+03  0.10006822930E+04  0.11157024026E+04  0.40000000000E+03 0. -1.
<mgrwt>
<rscale>  2 0.49338302E+03</rscale>
<asrwt>0</asrwt>
<pdfrwt beam="1">  1        1 0.27557855E+00 0.49338302E+03</pdfrwt>
<pdfrwt beam="2">  1       -1 0.21619457E-01 0.49338302E+03</pdfrwt>
<totfact> 0.78671765E+01</totfact>
</mgrwt>
</event>
<event>
 4    1  0.2474915E-002  0.5040900E+03  0.7818608E-02  0.1012717E+00
         -2   -1    0    0    0  501 -0.00000000000E+00  0.00000000000E+00  0.39236177269E+03  0.39236177269E+03  0.00000000000E+00 0.  1.
          2   -1    0    0  502    0  0.00000000000E+00 -0.00000000000E+00 -0.66525371406E+03  0.66525371406E+03  0.00000000000E+00 0. -1.
    9000007    1    1    2  502    0 -0.30113804522E+03 -0.58502826932E+02 -0.22250716894E+03  0.55101374145E+03  0.40000000000E+03 0.  1.
   -9000007    1    1    2    0  501  0.30113804522E+03  0.58502826932E+02 -0.50384772433E+02  0.50660174529E+03  0.40000000000E+03 0.  1.
<mgrwt>
<rscale>  2 0.50408998E+03</rscale>
<asrwt>0</asrwt>
<pdfrwt beam="1">  1        2 0.10234672E+00 0.50408998E+03</pdfrwt>
<pdfrwt beam="2">  1       -2 0.60363351E-01 0.50408998E+03</pdfrwt>
<totfact> 0.11492153E+02</totfact>
</mgrwt>
</event>
<event>
 4    1  0.2474915E-002  0.4795113E+03  0.7818608E-02  0.1019270E+00
         -1   -1    0    0    0  501 -0.00000000000E+00  0.00000000000E+00  0.17582781587E+03  0.17582781587E+03  0.00000000000E+00 0.  1.
          1   -1    0    0  502    0  0.00000000000E+00 -0.00000000000E+00 -0.14307923443E+04  0.14307923443E+04  0.00000000000E+00 0. -1.
    9000007    1    1    2  502    0 -0.13684336064E+03  0.22628516830E+03 -0.39186890022E+03  0.61926756552E+03  0.40000000000E+03 0.  1.
   -9000007    1    1    2    0  501  0.13684336064E+03 -0.22628516830E+03 -0.86309562822E+03  0.98735259467E+03  0.40000000000E+03 0. -1.
<mgrwt>
<rscale>  2 0.47951130E+03</rscale>
<asrwt>0</asrwt>
<pdfrwt beam="1">  1        1 0.22012190E+00 0.47951130E+03</pdfrwt>
<pdfrwt beam="2">  1       -1 0.27050433E-01 0.47951130E+03</pdfrwt>
<totfact> 0.94251441E+01</totfact>
</mgrwt>
</event>
<event>
 4    1  0.2474915E-002  0.4773276E+03  0.7818608E-02  0.1019872E+00
         -1   -1    0    0    0  501 -0.00000000000E+00  0.00000000000E+00  0.24094237859E+03  0.24094237859E+03  0.00000000000E+00 0.  1.
          1   -1    0    0  502    0  0.00000000000E+00 -0.00000000000E+00 -0.13633790982E+04  0.13633790982E+04  0.00000000000E+00 0. -1.
    9000007    1    1    2  502    0  0.21471368588E+03 -0.14744368856E+03 -0.11718824221E+03  0.49150248454E+03  0.40000000000E+03 0.  1.
   -9000007    1    1    2    0  501 -0.21471368588E+03  0.14744368856E+03 -0.10052484774E+04  0.11128189922E+04  0.40000000000E+03 0. -1.
<mgrwt>
<rscale>  2 0.47732757E+03</rscale>
<asrwt>0</asrwt>
<pdfrwt beam="1">  1        1 0.20975063E+00 0.47732757E+03</pdfrwt>
<pdfrwt beam="2">  1       -1 0.37068058E-01 0.47732757E+03</pdfrwt>
<totfact> 0.60580256E+01</totfact>
</mgrwt>
</event>
<event>
 4    1  0.2474915E-002  0.5098351E+03  0.7818608E-02  0.1011243E+00
          1   -1    0    0  502    0  0.00000000000E+00  0.00000000000E+00  0.30816686403E+04  0.30816686403E+04  0.00000000000E+00 0. -1.
         -1   -1    0    0    0  501 -0.00000000000E+00 -0.00000000000E+00 -0.55546002604E+03  0.55546002604E+03  0.00000000000E+00 0.  1.
    9000007    1    1    2  502    0  0.20428538677E+03  0.24124526721E+03 -0.41170157408E+03  0.65530907540E+03  0.40000000000E+03 0.  1.
   -9000007    1    1    2    0  501 -0.20428538677E+03 -0.24124526721E+03  0.29379101884E+04  0.29818195910E+04  0.40000000000E+03 0. -1.
<mgrwt>
<rscale>  2 0.50983507E+03</rscale>
<asrwt>0</asrwt>
<pdfrwt beam="1">  1        1 0.47410286E+00 0.50983507E+03</pdfrwt>
<pdfrwt beam="2">  1       -1 0.85455390E-01 0.50983507E+03</pdfrwt>
<totfact> 0.81638815E-01</totfact>
</mgrwt>
</event>
<event>
 4    1  0.2474915E-002  0.4045083E+03  0.7818608E-02  0.1042230E+00
         -2   -1    0    0    0  501 -0.00000000000E+00  0.00000000000E+00  0.42077544939E+03  0.42077544939E+03  0.00000000000E+00 0. -1.
          2   -1    0    0  502    0  0.00000000000E+00 -0.00000000000E+00 -0.70458249877E+03  0.70458249877E+03  0.00000000000E+00 0.  1.
    9000007    1    1    2  502    0 -0.49207657141E+02 -0.34721336227E+02 -0.51855582430E+03  0.65766793112E+03  0.40000000000E+03 0.  1.
   -9000007    1    1    2    0  501  0.49207657141E+02  0.34721336227E+02  0.23474877491E+03  0.46769001703E+03  0.40000000000E+03 0. -1.
<mgrwt>
<rscale>  2 0.40450830E+03</rscale>
<asrwt>0</asrwt>
<pdfrwt beam="1">  1        2 0.10839731E+00 0.40450830E+03</pdfrwt>
<pdfrwt beam="2">  1       -2 0.64734685E-01 0.40450830E+03</pdfrwt>
<totfact> 0.93256727E+01</totfact>
</mgrwt>
</event>
<event>
 4    1  0.2474915E-002  0.4490354E+03  0.7818608E-02  0.1028010E+00
         -1   -1    0    0    0  501 -0.00000000000E+00  0.00000000000E+00  0.56684724193E+03  0.56684724193E+03  0.00000000000E+00 0. -1.
          1   -1    0    0  502    0  0.00000000000E+00 -0.00000000000E+00 -0.36903063790E+03  0.36903063790E+03  0.00000000000E+00 0.  1.
    9000007    1    1    2  502    0  0.16566356969E+02  0.20336749217E+03  0.18781479241E+03  0.48673111397E+03  0.40000000000E+03 0. -1.
   -9000007    1    1    2    0  501 -0.16566356969E+02 -0.20336749217E+03  0.10001811628E+02  0.44914676587E+03  0.40000000000E+03 0.  1.
<mgrwt>
<rscale>  2 0.44903539E+03</rscale>
<asrwt>0</asrwt>
<pdfrwt beam="1">  1        1 0.56773944E-01 0.44903539E+03</pdfrwt>
<pdfrwt beam="2">  1       -1 0.87207268E-01 0.44903539E+03</pdfrwt>
<totfact> 0.90238982E+01</totfact>
</mgrwt>
</event>
<event>
 4    1  0.2474915E-002  0.4408105E+03  0.7818608E-02  0.1030498E+00
         -2   -1    0    0    0  501 -0.00000000000E+00  0.00000000000E+00  0.26589536744E+03  0.26589536744E+03  0.00000000000E+00 0.  1.
          2   -1    0    0  502    0  0.00000000000E+00 -0.00000000000E+00 -0.13340441359E+04  0.13340441359E+04  0.00000000000E+00 0. -1.
    9000007    1    1    2  502    0  0.16375948452E+03 -0.86583891700E+02  0.38710974057E+01  0.44082754504E+03  0.40000000000E+03 0.  1.
   -9000007    1    1    2    0  501 -0.16375948452E+03  0.86583891700E+02 -0.10720198659E+04  0.11591119583E+04  0.40000000000E+03 0. -1.
<mgrwt>
<rscale>  2 0.44081055E+03</rscale>
<asrwt>0</asrwt>
<pdfrwt beam="1">  1        2 0.20523756E+00 0.44081055E+03</pdfrwt>
<pdfrwt beam="2">  1       -2 0.40906979E-01 0.44081055E+03</pdfrwt>
<totfact> 0.94099097E+01</totfact>
</mgrwt>
</event>
<event>
 4    1  0.2474915E-002  0.5382406E+03  0.7818608E-02  0.1004253E+00
         -1   -1    0    0    0  501 -0.00000000000E+00  0.00000000000E+00  0.13089887098E+03  0.13089887098E+03  0.00000000000E+00 0.  1.
          1   -1    0    0  502    0  0.00000000000E+00 -0.00000000000E+00 -0.22435149103E+04  0.22435149103E+04  0.00000000000E+00 0. -1.
    9000007    1    1    2  502    0 -0.33365995098E+03 -0.13555055493E+03 -0.91826166511E+03  0.10643812294E+04  0.40000000000E+03 0.  1.
   -9000007    1    1    2    0  501  0.33365995098E+03  0.13555055493E+03 -0.11943543742E+04  0.13100325519E+04  0.40000000000E+03 0. -1.
<mgrwt>
<rscale>  2 0.53824057E+03</rscale>
<asrwt>0</asrwt>
<pdfrwt beam="1">  1        1 0.34515613E+00 0.53824057E+03</pdfrwt>
<pdfrwt beam="2">  1       -1 0.20138289E-01 0.53824057E+03</pdfrwt>
<totfact> 0.44054718E+01</totfact>
</mgrwt>
</event>
<event>
 4    1  0.2474915E-002  0.6072199E+03  0.7818608E-02  0.9890539E-01
          2   -1    0    0  502    0  0.00000000000E+00  0.00000000000E+00  0.32496494018E+03  0.32496494018E+03  0.00000000000E+00 0.  1.
         -2   -1    0    0    0  501 -0.00000000000E+00 -0.00000000000E+00 -0.11589746770E+04  0.11589746770E+04  0.00000000000E+00 0. -1.
    9000007    1    1    2  502    0 -0.44937866125E+03 -0.82309470279E+02 -0.30947671905E+03  0.68153640381E+03  0.40000000000E+03 0.  1.
   -9000007    1    1    2    0  501  0.44937866125E+03  0.82309470279E+02 -0.52453301777E+03  0.80240321336E+03  0.40000000000E+03 0. -1.
<mgrwt>
<rscale>  2 0.60721992E+03</rscale>
<asrwt>0</asrwt>
<pdfrwt beam="1">  1        2 0.49994606E-01 0.60721992E+03</pdfrwt>
<pdfrwt beam="2">  1       -2 0.17830380E+00 0.60721992E+03</pdfrwt>
<totfact> 0.19236702E+01</totfact>
</mgrwt>
</event>
<event>
 4    1  0.2474915E-002  0.5451251E+03  0.7818608E-02  0.1002629E+00
         -2   -1    0    0    0  501 -0.00000000000E+00  0.00000000000E+00  0.17863383736E+03  0.17863383736E+03  0.00000000000E+00 0.  1.
          2   -1    0    0  502    0  0.00000000000E+00 -0.00000000000E+00 -0.20327807702E+04  0.20327807702E+04  0.00000000000E+00 0. -1.
    9000007    1    1    2  502    0  0.30843747880E+03 -0.20500657346E+03 -0.13983329843E+04  0.15008319388E+04  0.40000000000E+03 0. -1.
   -9000007    1    1    2    0  501 -0.30843747880E+03  0.20500657346E+03 -0.45581394854E+03  0.71058266878E+03  0.40000000000E+03 0. -1.
<mgrwt>
<rscale>  2 0.54512510E+03</rscale>
<asrwt>0</asrwt>
<pdfrwt beam="1">  1        2 0.31273551E+00 0.54512510E+03</pdfrwt>
<pdfrwt beam="2">  1       -2 0.27482128E-01 0.54512510E+03</pdfrwt>
<totfact> 0.81558803E+01</totfact>
</mgrwt>
</event>
<event>
 4    1  0.2474915E-002  0.4322875E+03  0.7818608E-02  0.1033140E+00
         -2   -1    0    0    0  501 -0.00000000000E+00  0.00000000000E+00  0.22453610144E+03  0.22453610144E+03  0.00000000000E+00 0. -1.
          2   -1    0    0  502    0  0.00000000000E+00 -0.00000000000E+00 -0.85749658199E+03  0.85749658199E+03  0.00000000000E+00 0.  1.
    9000007    1    1    2  502    0  0.36851509384E+02  0.15973236776E+03 -0.40929299017E+03  0.59530934383E+03  0.40000000000E+03 0. -1.
   -9000007    1    1    2    0  501 -0.36851509384E+02 -0.15973236776E+03 -0.22366749038E+03  0.48672333960E+03  0.40000000000E+03 0.  1.
<mgrwt>
<rscale>  2 0.43228748E+03</rscale>
<asrwt>0</asrwt>
<pdfrwt beam="1">  1        2 0.13192255E+00 0.43228748E+03</pdfrwt>
<pdfrwt beam="2">  1       -2 0.34544015E-01 0.43228748E+03</pdfrwt>
<totfact> 0.25338995E+02</totfact>
</mgrwt>
</event>
<event>
 4    1  0.2474915E-002  0.4412225E+03  0.7818608E-02  0.1030372E+00
         -2   -1    0    0    0  501 -0.00000000000E+00  0.00000000000E+00  0.11538688422E+03  0.11538688422E+03  0.00000000000E+00 0.  1.
          2   -1    0    0  502    0  0.00000000000E+00 -0.00000000000E+00 -0.21753784422E+04  0.21753784422E+04  0.00000000000E+00 0. -1.
    9000007    1    1    2  502    0  0.10516395521E+03  0.15368099307E+03 -0.15726032600E+04  0.16333273764E+04  0.40000000000E+03 0. -1.
   -9000007    1    1    2    0  501 -0.10516395521E+03 -0.15368099307E+03 -0.48738829792E+03  0.65743794996E+03  0.40000000000E+03 0.  1.
<mgrwt>
<rscale>  2 0.44122251E+03</rscale>
<asrwt>0</asrwt>
<pdfrwt beam="1">  1        2 0.33467360E+00 0.44122251E+03</pdfrwt>
<pdfrwt beam="2">  1       -2 0.17751829E-01 0.44122251E+03</pdfrwt>
<totfact> 0.14999291E+02</totfact>
</mgrwt>
</event>
<event>
 4    1  0.2474915E-002  0.4228497E+03  0.7818608E-02  0.1036143E+00
          1   -1    0    0  502    0  0.00000000000E+00  0.00000000000E+00  0.18585966673E+04  0.18585966673E+04  0.00000000000E+00 0. -1.
         -1   -1    0    0    0  501 -0.00000000000E+00 -0.00000000000E+00 -0.11617251058E+03  0.11617251058E+03  0.00000000000E+00 0.  1.
    9000007    1    1    2  502    0 -0.10125003556E+03 -0.92467646647E+02  0.46183577886E+03  0.62617419462E+03  0.40000000000E+03 0.  1.
   -9000007    1    1    2    0  501  0.10125003556E+03  0.92467646647E+02  0.12805883778E+04  0.13485949832E+04  0.40000000000E+03 0. -1.
<mgrwt>
<rscale>  2 0.42284966E+03</rscale>
<asrwt>0</asrwt>
<pdfrwt beam="1">  1        1 0.28593793E+00 0.42284966E+03</pdfrwt>
<pdfrwt beam="2">  1       -1 0.17872695E-01 0.42284966E+03</pdfrwt>
<totfact> 0.98334984E+01</totfact>
</mgrwt>
</event>
<event>
 4    1  0.2474915E-002  0.7765962E+03  0.7818608E-02  0.9594525E-01
          3   -1    0    0  502    0  0.00000000000E+00  0.00000000000E+00  0.41229923507E+04  0.41229923507E+04  0.00000000000E+00 0. -1.
         -3   -1    0    0    0  501 -0.00000000000E+00 -0.00000000000E+00 -0.23112622653E+03  0.23112622653E+03  0.00000000000E+00 0.  1.
    9000007    1    1    2  502    0  0.46210877984E+03  0.47912118874E+03  0.62686283241E+03  0.99802737866E+03  0.40000000000E+03 0.  1.
   -9000007    1    1    2    0  501 -0.46210877984E+03 -0.47912118874E+03  0.32650032917E+04  0.33560911985E+04  0.40000000000E+03 0. -1.
<mgrwt>
<rscale>  2 0.77659619E+03</rscale>
<asrwt>0</asrwt>
<pdfrwt beam="1">  1        3 0.63430646E+00 0.77659619E+03</pdfrwt>
<pdfrwt beam="2">  1       -3 0.35557884E-01 0.77659619E+03</pdfrwt>
<totfact> 0.16607357E-02</totfact>
</mgrwt>
</event>
<event>
 4    1  0.2474915E-002  0.4050955E+03  0.7818608E-02  0.1042029E+00
         -1   -1    0    0    0  501 -0.00000000000E+00  0.00000000000E+00  0.41136652067E+03  0.41136652067E+03  0.00000000000E+00 0.  1.
          1   -1    0    0  502    0  0.00000000000E+00 -0.00000000000E+00 -0.47617588860E+03  0.47617588860E+03  0.00000000000E+00 0. -1.
    9000007    1    1    2  502    0  0.51000818371E+02 -0.38746697516E+02 -0.21115253131E+03  0.45682357811E+03  0.40000000000E+03 0. -1.
   -9000007    1    1    2    0  501 -0.51000818371E+02  0.38746697516E+02  0.14634316337E+03  0.43071883115E+03  0.40000000000E+03 0.  1.
<mgrwt>
<rscale>  2 0.40509553E+03</rscale>
<asrwt>0</asrwt>
<pdfrwt beam="1">  1        1 0.73257829E-01 0.40509553E+03</pdfrwt>
<pdfrwt beam="2">  1       -1 0.63287157E-01 0.40509553E+03</pdfrwt>
<totfact> 0.12546983E+02</totfact>
</mgrwt>
</event>
<event>
 4    1  0.2474915E-002  0.4070900E+03  0.7818608E-02  0.1041352E+00
         -3   -1    0    0    0  501 -0.00000000000E+00  0.00000000000E+00  0.14380887653E+04  0.14380887653E+04  0.00000000000E+00 0.  1.
          3   -1    0    0  502    0  0.00000000000E+00 -0.00000000000E+00 -0.11748628489E+03  0.11748628489E+03  0.00000000000E+00 0. -1.
    9000007    1    1    2  502    0  0.13242418295E+02 -0.74477406000E+02  0.55270221513E+03  0.68644153740E+03  0.40000000000E+03 0. -1.
   -9000007    1    1    2    0  501 -0.13242418295E+02  0.74477406000E+02  0.76790026525E+03  0.86913351277E+03  0.40000000000E+03 0.  1.
<mgrwt>
<rscale>  2 0.40708997E+03</rscale>
<asrwt>0</asrwt>
<pdfrwt beam="1">  1        3 0.18074814E-01 0.40708997E+03</pdfrwt>
<pdfrwt beam="2">  1       -3 0.22124441E+00 0.40708997E+03</pdfrwt>
<totfact> 0.79318401E+00</totfact>
</mgrwt>
</event>
<event>
 4    1  0.2474915E-002  0.4335603E+03  0.7818608E-02  0.1032741E+00
         -2   -1    0    0    0  501 -0.00000000000E+00  0.00000000000E+00  0.25538607011E+03  0.25538607011E+03  0.00000000000E+00 0.  1.
          2   -1    0    0  502    0  0.00000000000E+00 -0.00000000000E+00 -0.74053033858E+03  0.74053033858E+03  0.00000000000E+00 0. -1.
    9000007    1    1    2  502    0 -0.38366984636E+02 -0.16279582558E+03 -0.20379873523E+03  0.47907038190E+03  0.40000000000E+03 0.  1.
   -9000007    1    1    2    0  501  0.38366984636E+02  0.16279582558E+03 -0.28134553324E+03  0.51684602679E+03  0.40000000000E+03 0.  1.
<mgrwt>
<rscale>  2 0.43356027E+03</rscale>
<asrwt>0</asrwt>
<pdfrwt beam="1">  1        2 0.11392774E+00 0.43356027E+03</pdfrwt>
<pdfrwt beam="2">  1       -2 0.39290165E-01 0.43356027E+03</pdfrwt>
<totfact> 0.23990839E+02</totfact>
</mgrwt>
</event>
<event>
 4    1  0.2474915E-002  0.4027832E+03  0.7818608E-02  0.1042820E+00
         -1   -1    0    0    0  501 -0.00000000000E+00  0.00000000000E+00  0.58848166381E+03  0.58848166381E+03  0.00000000000E+00 0. -1.
          1   -1    0    0  502    0  0.00000000000E+00 -0.00000000000E+00 -0.32211738842E+03  0.32211738842E+03  0.00000000000E+00 0.  1.
    9000007    1    1    2  502    0 -0.12907453914E+02 -0.45472331977E+02 -0.39684194350E+02  0.40473345627E+03  0.40000000000E+03 0.  1.
   -9000007    1    1    2    0  501  0.12907453914E+02  0.45472331977E+02  0.30604846974E+03  0.50586559595E+03  0.40000000000E+03 0. -1.
<mgrwt>
<rscale>  2 0.40278324E+03</rscale>
<asrwt>0</asrwt>
<pdfrwt beam="1">  1        1 0.49556522E-01 0.40278324E+03</pdfrwt>
<pdfrwt beam="2">  1       -1 0.90535640E-01 0.40278324E+03</pdfrwt>
<totfact> 0.99655546E+01</totfact>
</mgrwt>
</event>
<event>
 4    1  0.2474915E-002  0.4246639E+03  0.7818608E-02  0.1035559E+00
         -1   -1    0    0    0  501 -0.00000000000E+00  0.00000000000E+00  0.17299641608E+03  0.17299641608E+03  0.00000000000E+00 0.  1.
          1   -1    0    0  502    0  0.00000000000E+00 -0.00000000000E+00 -0.10845373783E+04  0.10845373783E+04  0.00000000000E+00 0. -1.
    9000007    1    1    2  502    0 -0.11161798443E+03  0.88774182272E+02 -0.57963979846E+03  0.71855530465E+03  0.40000000000E+03 0. -1.
   -9000007    1    1    2    0  501  0.11161798443E+03 -0.88774182272E+02 -0.33190116377E+03  0.53897848973E+03  0.40000000000E+03 0. -1.
<mgrwt>
<rscale>  2 0.42466390E+03</rscale>
<asrwt>0</asrwt>
<pdfrwt beam="1">  1        1 0.16685190E+00 0.42466390E+03</pdfrwt>
<pdfrwt beam="2">  1       -1 0.26614834E-01 0.42466390E+03</pdfrwt>
<totfact> 0.17126521E+02</totfact>
</mgrwt>
</event>
<event>
 4    1  0.2474915E-002  0.5986467E+03  0.7818608E-02  0.9908218E-01
         -2   -1    0    0    0  501 -0.00000000000E+00  0.00000000000E+00  0.65710935680E+03  0.65710935680E+03  0.00000000000E+00 0.  1.
          2   -1    0    0  502    0  0.00000000000E+00 -0.00000000000E+00 -0.55231867375E+03  0.55231867375E+03  0.00000000000E+00 0. -1.
    9000007    1    1    2  502    0  0.40869037177E+03 -0.17705933250E+03 -0.15357170655E+02  0.59884361055E+03  0.40000000000E+03 0. -1.
   -9000007    1    1    2    0  501 -0.40869037177E+03  0.17705933250E+03  0.12014785371E+03  0.61058442000E+03  0.40000000000E+03 0.  1.
<mgrwt>
<rscale>  2 0.59864666E+03</rscale>
<asrwt>0</asrwt>
<pdfrwt beam="1">  1        2 0.84972104E-01 0.59864666E+03</pdfrwt>
<pdfrwt beam="2">  1       -2 0.10109375E+00 0.59864666E+03</pdfrwt>
<totfact> 0.45162937E+01</totfact>
</mgrwt>
</event>
<event>
 4    1  0.2474915E-002  0.4426331E+03  0.7818608E-02  0.1029942E+00
         -2   -1    0    0    0  501 -0.00000000000E+00  0.00000000000E+00  0.20407970968E+03  0.20407970968E+03  0.00000000000E+00 0.  1.
          2   -1    0    0  502    0  0.00000000000E+00 -0.00000000000E+00 -0.13492897665E+04  0.13492897665E+04  0.00000000000E+00 0. -1.
    9000007    1    1    2  502    0 -0.53085541262E+02  0.18195054547E+03 -0.15543989541E+03  0.46913285621E+03  0.40000000000E+03 0.  1.
   -9000007    1    1    2    0  501  0.53085541262E+02 -0.18195054547E+03 -0.98977016146E+03  0.10842366200E+04  0.40000000000E+03 0. -1.
<mgrwt>
<rscale>  2 0.44263312E+03</rscale>
<asrwt>0</asrwt>
<pdfrwt beam="1">  1        2 0.20758304E+00 0.44263312E+03</pdfrwt>
<pdfrwt beam="2">  1       -2 0.31396879E-01 0.44263312E+03</pdfrwt>
<totfact> 0.15234807E+02</totfact>
</mgrwt>
</event>
<event>
 4    1  0.2474915E-002  0.4338831E+03  0.7818608E-02  0.1032640E+00
          2   -1    0    0  502    0  0.00000000000E+00  0.00000000000E+00  0.26467319631E+04  0.26467319631E+04  0.00000000000E+00 0.  1.
         -2   -1    0    0    0  501 -0.00000000000E+00 -0.00000000000E+00 -0.75682668702E+02  0.75682668702E+02  0.00000000000E+00 0. -1.
    9000007    1    1    2  502    0  0.11323523682E+03  0.12422686138E+03  0.16194846235E+04  0.16765992299E+04  0.40000000000E+03 0.  1.
   -9000007    1    1    2    0  501 -0.11323523682E+03 -0.12422686138E+03  0.95156467084E+03  0.10458154018E+04  0.40000000000E+03 0. -1.
<mgrwt>
<rscale>  2 0.43388309E+03</rscale>
<asrwt>0</asrwt>
<pdfrwt beam="1">  1        2 0.40718946E+00 0.43388309E+03</pdfrwt>
<pdfrwt beam="2">  1       -2 0.11643490E-01 0.43388309E+03</pdfrwt>
<totfact> 0.16663870E+02</totfact>
</mgrwt>
</event>
<event>
 4    1  0.2474915E-002  0.4275868E+03  0.7818608E-02  0.1034625E+00
          1   -1    0    0  502    0  0.00000000000E+00  0.00000000000E+00  0.25686872633E+04  0.25686872633E+04  0.00000000000E+00 0.  1.
         -1   -1    0    0    0  501 -0.00000000000E+00 -0.00000000000E+00 -0.79875295390E+02  0.79875295390E+02  0.00000000000E+00 0. -1.
    9000007    1    1    2  502    0  0.19882669791E+02 -0.14978373283E+03  0.80738683522E+03  0.91362135968E+03  0.40000000000E+03 0. -1.
   -9000007    1    1    2    0  501 -0.19882669791E+02  0.14978373283E+03  0.16814251327E+04  0.17349411990E+04  0.40000000000E+03 0.  1.
<mgrwt>
<rscale>  2 0.42758682E+03</rscale>
<asrwt>0</asrwt>
<pdfrwt beam="1">  1        1 0.39518259E+00 0.42758682E+03</pdfrwt>
<pdfrwt beam="2">  1       -1 0.12288509E-01 0.42758682E+03</pdfrwt>
<totfact> 0.60594633E+01</totfact>
</mgrwt>
</event>
<event>
 4    1  0.2474915E-002  0.4212518E+03  0.7818608E-02  0.1036660E+00
         -2   -1    0    0    0  501 -0.00000000000E+00  0.00000000000E+00  0.18015307480E+03  0.18015307480E+03  0.00000000000E+00 0.  1.
          2   -1    0    0  502    0  0.00000000000E+00 -0.00000000000E+00 -0.11365772612E+04  0.11365772612E+04  0.00000000000E+00 0. -1.
    9000007    1    1    2  502    0  0.22466322475E+02  0.13018569592E+03 -0.71862972836E+03  0.83299564077E+03  0.40000000000E+03 0. -1.
   -9000007    1    1    2    0  501 -0.22466322475E+02 -0.13018569592E+03 -0.23779445800E+03  0.48373469518E+03  0.40000000000E+03 0.  1.
<mgrwt>
<rscale>  2 0.42125177E+03</rscale>
<asrwt>0</asrwt>
<pdfrwt beam="1">  1        2 0.17485804E+00 0.42125177E+03</pdfrwt>
<pdfrwt beam="2">  1       -2 0.27715858E-01 0.42125177E+03</pdfrwt>
<totfact> 0.25432441E+02</totfact>
</mgrwt>
</event>
<event>
 4    1  0.2474915E-002  0.4793674E+03  0.7818608E-02  0.1019309E+00
         -2   -1    0    0    0  501 -0.00000000000E+00  0.00000000000E+00  0.10506542465E+03  0.10506542465E+03  0.00000000000E+00 0. -1.
          2   -1    0    0  502    0  0.00000000000E+00 -0.00000000000E+00 -0.22226501701E+04  0.22226501701E+04  0.00000000000E+00 0.  1.
    9000007    1    1    2  502    0 -0.26339489639E+03 -0.20401392717E+02 -0.12058960559E+04  0.12976819279E+04  0.40000000000E+03 0. -1.
   -9000007    1    1    2    0  501  0.26339489639E+03  0.20401392717E+02 -0.91168868960E+03  0.10300336669E+04  0.40000000000E+03 0. -1.
<mgrwt>
<rscale>  2 0.47936738E+03</rscale>
<asrwt>0</asrwt>
<pdfrwt beam="1">  1        2 0.34194617E+00 0.47936738E+03</pdfrwt>
<pdfrwt beam="2">  1       -2 0.16163912E-01 0.47936738E+03</pdfrwt>
<totfact> 0.16476629E+02</totfact>
</mgrwt>
</event>
<event>
 4    1  0.2474915E-002  0.4117903E+03  0.7818608E-02  0.1039772E+00
         -2   -1    0    0    0  501 -0.00000000000E+00  0.00000000000E+00  0.62665351273E+03  0.62665351273E+03  0.00000000000E+00 0. -1.
          2   -1    0    0  502    0  0.00000000000E+00 -0.00000000000E+00 -0.39829656644E+03  0.39829656644E+03  0.00000000000E+00 0.  1.
    9000007    1    1    2  502    0 -0.97818899104E+02 -0.16505712912E+01  0.40435497846E+03  0.57712581818E+03  0.40000000000E+03 0. -1.
   -9000007    1    1    2    0  501  0.97818899104E+02  0.16505712912E+01 -0.17599803217E+03  0.44782426099E+03  0.40000000000E+03 0.  1.
<mgrwt>
<rscale>  2 0.41179031E+03</rscale>
<asrwt>0</asrwt>
<pdfrwt beam="1">  1        2 0.61276395E-01 0.41179031E+03</pdfrwt>
<pdfrwt beam="2">  1       -2 0.96408233E-01 0.41179031E+03</pdfrwt>
<totfact> 0.74497875E+01</totfact>
</mgrwt>
</event>
<event>
 4    1  0.2474915E-002  0.4461523E+03  0.7818608E-02  0.1028876E+00
         -2   -1    0    0    0  501 -0.00000000000E+00  0.00000000000E+00  0.16027612944E+03  0.16027612944E+03  0.00000000000E+00 0.  1.
          2   -1    0    0  502    0  0.00000000000E+00 -0.00000000000E+00 -0.12777460740E+04  0.12777460740E+04  0.00000000000E+00 0. -1.
    9000007    1    1    2  502    0 -0.19719447164E+03 -0.12891259597E+02 -0.67911324762E+03  0.81255562721E+03  0.40000000000E+03 0. -1.
   -9000007    1    1    2    0  501  0.19719447164E+03  0.12891259597E+02 -0.43835669691E+03  0.62546657620E+03  0.40000000000E+03 0.  1.
<mgrwt>
<rscale>  2 0.44615227E+03</rscale>
<asrwt>0</asrwt>
<pdfrwt beam="1">  1        2 0.19657632E+00 0.44615227E+03</pdfrwt>
<pdfrwt beam="2">  1       -2 0.24657866E-01 0.44615227E+03</pdfrwt>
<totfact> 0.25931103E+02</totfact>
</mgrwt>
</event>
<event>
 4    1  0.2474915E-002  0.4812495E+03  0.7818608E-02  0.1018792E+00
         -2   -1    0    0    0  501 -0.00000000000E+00  0.00000000000E+00  0.13526449991E+03  0.13526449991E+03  0.00000000000E+00 0.  1.
          2   -1    0    0  502    0  0.00000000000E+00 -0.00000000000E+00 -0.23210899609E+04  0.23210899609E+04  0.00000000000E+00 0. -1.
    9000007    1    1    2  502    0 -0.23983274866E+03 -0.11866497815E+03 -0.17219569450E+04  0.17879420698E+04  0.40000000000E+03 0. -1.
   -9000007    1    1    2    0  501  0.23983274866E+03  0.11866497815E+03 -0.46386851596E+03  0.66841239102E+03  0.40000000000E+03 0.  1.
<mgrwt>
<rscale>  2 0.48124954E+03</rscale>
<asrwt>0</asrwt>
<pdfrwt beam="1">  1        2 0.35709077E+00 0.48124954E+03</pdfrwt>
<pdfrwt beam="2">  1       -2 0.20809922E-01 0.48124954E+03</pdfrwt>
<totfact> 0.94293072E+01</totfact>
</mgrwt>
</event>
<event>
 4    1  0.2474915E-002  0.4100412E+03  0.7818608E-02  0.1040357E+00
          1   -1    0    0  502    0  0.00000000000E+00  0.00000000000E+00  0.60193211260E+03  0.60193211260E+03  0.00000000000E+00 0.  1.
         -1   -1    0    0    0  501 -0.00000000000E+00 -0.00000000000E+00 -0.75191047776E+03  0.75191047776E+03  0.00000000000E+00 0. -1.
    9000007    1    1    2  502    0 -0.55459431916E+02 -0.71119886766E+02 -0.61164517323E+03  0.73637192017E+03  0.40000000000E+03 0. -1.
   -9000007    1    1    2    0  501  0.55459431916E+02  0.71119886766E+02  0.46166680806E+03  0.61747067019E+03  0.40000000000E+03 0.  1.
<mgrwt>
<rscale>  2 0.41004120E+03</rscale>
<asrwt>0</asrwt>
<pdfrwt beam="1">  1        1 0.92604941E-01 0.41004120E+03</pdfrwt>
<pdfrwt beam="2">  1       -1 0.11567853E+00 0.41004120E+03</pdfrwt>
<totfact> 0.24827947E+01</totfact>
</mgrwt>
</event>
<event>
 4    1  0.2474915E-002  0.4457602E+03  0.7818608E-02  0.1028994E+00
          1   -1    0    0  502    0  0.00000000000E+00  0.00000000000E+00  0.69808024179E+03  0.69808024179E+03  0.00000000000E+00 0. -1.
         -1   -1    0    0    0  501 -0.00000000000E+00 -0.00000000000E+00 -0.31562741398E+03  0.31562741398E+03  0.00000000000E+00 0.  1.
    9000007    1    1    2  502    0  0.19672485750E+03  0.12290343952E+01  0.32414962517E+02  0.44693725497E+03  0.40000000000E+03 0.  1.
   -9000007    1    1    2    0  501 -0.19672485750E+03 -0.12290343952E+01  0.35003786530E+03  0.56677040080E+03  0.40000000000E+03 0. -1.
<mgrwt>
<rscale>  2 0.44576023E+03</rscale>
<asrwt>0</asrwt>
<pdfrwt beam="1">  1        1 0.10739696E+00 0.44576023E+03</pdfrwt>
<pdfrwt beam="2">  1       -1 0.48558064E-01 0.44576023E+03</pdfrwt>
<totfact> 0.12125684E+02</totfact>
</mgrwt>
</event>
<event>
 4    1  0.2474915E-002  0.6366380E+03  0.7818608E-02  0.9832180E-01
         -3   -1    0    0    0  501 -0.00000000000E+00  0.00000000000E+00  0.65289903610E+03  0.65289903610E+03  0.00000000000E+00 0. -1.
          3   -1    0    0  502    0  0.00000000000E+00 -0.00000000000E+00 -0.62190755679E+03  0.62190755679E+03  0.00000000000E+00 0.  1.
    9000007    1    1    2  502    0 -0.33447797259E+03  0.36528395340E+03  0.42613966816E+02  0.63806256035E+03  0.40000000000E+03 0. -1.
   -9000007    1    1    2    0  501  0.33447797259E+03 -0.36528395340E+03 -0.11622487501E+02  0.63674403254E+03  0.40000000000E+03 0. -1.
<mgrwt>
<rscale>  2 0.63663795E+03</rscale>
<asrwt>0</asrwt>
<pdfrwt beam="1">  1        3 0.95678085E-01 0.63663795E+03</pdfrwt>
<pdfrwt beam="2">  1       -3 0.10044601E+00 0.63663795E+03</pdfrwt>
<totfact> 0.21869295E+00</totfact>
</mgrwt>
</event>
<event>
 4    1  0.2474915E-002  0.4568340E+03  0.7818608E-02  0.1025703E+00
          4   -1    0    0  502    0  0.00000000000E+00  0.00000000000E+00  0.29724946806E+03  0.29724946806E+03  0.00000000000E+00 0. -1.
         -4   -1    0    0    0  501 -0.00000000000E+00 -0.00000000000E+00 -0.74229567737E+03  0.74229567737E+03  0.00000000000E+00 0.  1.
    9000007    1    1    2  502    0 -0.40202036920E+02 -0.21698188712E+03 -0.10156304801E+03  0.46798760222E+03  0.40000000000E+03 0.  1.
   -9000007    1    1    2    0  501  0.40202036920E+02  0.21698188712E+03 -0.34348316130E+03  0.57155754321E+03  0.40000000000E+03 0.  1.
<mgrwt>
<rscale>  2 0.45683404E+03</rscale>
<asrwt>0</asrwt>
<pdfrwt beam="1">  1        4 0.45730688E-01 0.45683404E+03</pdfrwt>
<pdfrwt beam="2">  1       -4 0.11419933E+00 0.45683404E+03</pdfrwt>
<totfact> 0.53977631E+00</totfact>
</mgrwt>
</event>
<event>
 4    1  0.2474915E-002  0.1197357E+04  0.7818608E-02  0.9115173E-01
         -2   -1    0    0    0  501 -0.00000000000E+00  0.00000000000E+00  0.59583545451E+03  0.59583545451E+03  0.00000000000E+00 0. -1.
          2   -1    0    0  502    0  0.00000000000E+00 -0.00000000000E+00 -0.24672456387E+04  0.24672456387E+04  0.00000000000E+00 0.  1.
    9000007    1    1    2  502    0  0.10976608711E+04 -0.26230409676E+03 -0.11767328625E+04  0.16787980988E+04  0.40000000000E+03 0.  1.
   -9000007    1    1    2    0  501 -0.10976608711E+04  0.26230409676E+03 -0.69467732171E+03  0.13842829943E+04  0.40000000000E+03 0. -1.
<mgrwt>
<rscale>  2 0.11973566E+04</rscale>
<asrwt>0</asrwt>
<pdfrwt beam="1">  1        2 0.37957625E+00 0.11973566E+04</pdfrwt>
<pdfrwt beam="2">  1       -2 0.91666993E-01 0.11973566E+04</pdfrwt>
<totfact> 0.36260772E+00</totfact>
</mgrwt>
</event>
<event>
 4    1  0.2474915E-002  0.4464365E+03  0.7818608E-02  0.1028790E+00
          2   -1    0    0  502    0  0.00000000000E+00  0.00000000000E+00  0.39339314444E+03  0.39339314444E+03  0.00000000000E+00 0. -1.
         -2   -1    0    0    0  501 -0.00000000000E+00 -0.00000000000E+00 -0.54440759620E+03  0.54440759620E+03  0.00000000000E+00 0.  1.
    9000007    1    1    2  502    0  0.65762596963E+02 -0.18703171352E+03  0.48008933464E+02  0.44901051069E+03  0.40000000000E+03 0. -1.
   -9000007    1    1    2    0  501 -0.65762596963E+02  0.18703171352E+03 -0.19902338523E+03  0.48879022995E+03  0.40000000000E+03 0.  1.
<mgrwt>
<rscale>  2 0.44643654E+03</rscale>
<asrwt>0</asrwt>
<pdfrwt beam="1">  1        2 0.60522022E-01 0.44643654E+03</pdfrwt>
<pdfrwt beam="2">  1       -2 0.83755015E-01 0.44643654E+03</pdfrwt>
<totfact> 0.10389414E+02</totfact>
</mgrwt>
</event>
<event>
 4    1  0.2474915E-002  0.4388860E+03  0.7818608E-02  0.1031089E+00
          2   -1    0    0  502    0  0.00000000000E+00  0.00000000000E+00  0.40755913799E+04  0.40755913799E+04  0.00000000000E+00 0. -1.
         -2   -1    0    0    0  501 -0.00000000000E+00 -0.00000000000E+00 -0.59536182191E+02  0.59536182191E+02  0.00000000000E+00 0.  1.
    9000007    1    1    2  502    0  0.74434937543E+02  0.16456119089E+03  0.29468062551E+04  0.29793099957E+04  0.40000000000E+03 0. -1.
   -9000007    1    1    2    0  501 -0.74434937543E+02 -0.16456119089E+03  0.10692489426E+04  0.11558175664E+04  0.40000000000E+03 0.  1.
<mgrwt>
<rscale>  2 0.43888603E+03</rscale>
<asrwt>0</asrwt>
<pdfrwt beam="1">  1        2 0.62701384E+00 0.43888603E+03</pdfrwt>
<pdfrwt beam="2">  1       -2 0.91594159E-02 0.43888603E+03</pdfrwt>
<totfact> 0.27935896E+01</totfact>
</mgrwt>
</event>
<event>
 4    1  0.2474915E-002  0.4006505E+03  0.7818608E-02  0.1043555E+00
          1   -1    0    0  502    0  0.00000000000E+00  0.00000000000E+00  0.18208224896E+04  0.18208224896E+04  0.00000000000E+00 0.  1.
         -1   -1    0    0    0  501 -0.00000000000E+00 -0.00000000000E+00 -0.94515005485E+02  0.94515005485E+02  0.00000000000E+00 0. -1.
    9000007    1    1    2  502    0  0.13329126233E+02  0.18525033031E+02  0.61479656418E+03  0.73382263374E+03  0.40000000000E+03 0. -1.
   -9000007    1    1    2    0  501 -0.13329126233E+02 -0.18525033031E+02  0.11115109199E+04  0.11815148614E+04  0.40000000000E+03 0.  1.
<mgrwt>
<rscale>  2 0.40065052E+03</rscale>
<asrwt>0</asrwt>
<pdfrwt beam="1">  1        1 0.28012651E+00 0.40065052E+03</pdfrwt>
<pdfrwt beam="2">  1       -1 0.14540771E-01 0.40065052E+03</pdfrwt>
<totfact> 0.14591145E+02</totfact>
</mgrwt>
</event>
<event>
 4    1  0.2474915E-002  0.4095830E+03  0.7818608E-02  0.1040511E+00
          1   -1    0    0  502    0  0.00000000000E+00  0.00000000000E+00  0.30687506498E+04  0.30687506498E+04  0.00000000000E+00 0. -1.
         -1   -1    0    0    0  501 -0.00000000000E+00 -0.00000000000E+00 -0.80975901496E+02  0.80975901496E+02  0.00000000000E+00 0.  1.
    9000007    1    1    2  502    0  0.62436762019E+02  0.62127933177E+02  0.23915630222E+04  0.24263824757E+04  0.40000000000E+03 0. -1.
   -9000007    1    1    2    0  501 -0.62436762019E+02 -0.62127933177E+02  0.59621172614E+03  0.72334407561E+03  0.40000000000E+03 0.  1.
<mgrwt>
<rscale>  2 0.40958299E+03</rscale>
<asrwt>0</asrwt>
<pdfrwt beam="1">  1        1 0.47211539E+00 0.40958299E+03</pdfrwt>
<pdfrwt beam="2">  1       -1 0.12457833E-01 0.40958299E+03</pdfrwt>
<totfact> 0.26788988E+01</totfact>
</mgrwt>
</event>
<event>
 4    1  0.2474915E-002  0.4844534E+03  0.7818608E-02  0.1017918E+00
         -2   -1    0    0    0  501 -0.00000000000E+00  0.00000000000E+00  0.19888209825E+03  0.19888209825E+03  0.00000000000E+00 0. -1.
          2   -1    0    0  502    0  0.00000000000E+00 -0.00000000000E+00 -0.16477772535E+04  0.16477772535E+04  0.00000000000E+00 0.  1.
    9000007    1    1    2  502    0 -0.20739788764E+03 -0.17799213770E+03 -0.23252820685E+03  0.53736807856E+03  0.40000000000E+03 0. -1.
   -9000007    1    1    2    0  501  0.20739788764E+03  0.17799213770E+03 -0.12163669484E+04  0.13092912732E+04  0.40000000000E+03 0.  1.
<mgrwt>
<rscale>  2 0.48445339E+03</rscale>
<asrwt>0</asrwt>
<pdfrwt beam="1">  1        2 0.25350420E+00 0.48445339E+03</pdfrwt>
<pdfrwt beam="2">  1       -2 0.30597245E-01 0.48445339E+03</pdfrwt>
<totfact> 0.10897703E+02</totfact>
</mgrwt>
</event>
<event>
 4    1  0.2474915E-002  0.4076734E+03  0.7818608E-02  0.1041155E+00
          2   -1    0    0  502    0  0.00000000000E+00  0.00000000000E+00  0.11219936329E+04  0.11219936329E+04  0.00000000000E+00 0. -1.
         -2   -1    0    0    0  501 -0.00000000000E+00 -0.00000000000E+00 -0.33765561384E+03  0.33765561384E+03  0.00000000000E+00 0.  1.
    9000007    1    1    2  502    0  0.69907168396E+02  0.36202296711E+02 -0.15461883156E+03  0.43600986405E+03  0.40000000000E+03 0.  1.
   -9000007    1    1    2    0  501 -0.69907168396E+02 -0.36202296711E+02  0.93895685067E+03  0.10236393827E+04  0.40000000000E+03 0. -1.
<mgrwt>
<rscale>  2 0.40767342E+03</rscale>
<asrwt>0</asrwt>
<pdfrwt beam="1">  1        2 0.17261440E+00 0.40767342E+03</pdfrwt>
<pdfrwt beam="2">  1       -2 0.51947018E-01 0.40767342E+03</pdfrwt>
<totfact> 0.77957268E+01</totfact>
</mgrwt>
</event>
<event>
 4    1  0.2474915E-002  0.7376785E+03  0.7818608E-02  0.9654882E-01
         -2   -1    0    0    0  501 -0.00000000000E+00  0.00000000000E+00  0.30241189429E+03  0.30241189429E+03  0.00000000000E+00 0. -1.
          2   -1    0    0  502    0  0.00000000000E+00 -0.00000000000E+00 -0.17999363500E+04  0.17999363500E+04  0.00000000000E+00 0.  1.
    9000007    1    1    2  502    0  0.51141608979E+03 -0.35017593800E+03 -0.76636019062E+03  0.10637093335E+04  0.40000000000E+03 0. -1.
   -9000007    1    1    2    0  501 -0.51141608979E+03  0.35017593800E+03 -0.73116426513E+03  0.10386389108E+04  0.40000000000E+03 0.  1.
<mgrwt>
<rscale>  2 0.73767852E+03</rscale>
<asrwt>0</asrwt>
<pdfrwt beam="1">  1        2 0.27691328E+00 0.73767852E+03</pdfrwt>
<pdfrwt beam="2">  1       -2 0.46524908E-01 0.73767852E+03</pdfrwt>
<totfact> 0.38896930E+01</totfact>
</mgrwt>
</event>
<event>
 4    1  0.2474915E-002  0.4042419E+03  0.7818608E-02  0.1042321E+00
          2   -1    0    0  502    0  0.00000000000E+00  0.00000000000E+00  0.12535942102E+04  0.12535942102E+04  0.00000000000E+00 0. -1.
         -2   -1    0    0    0  501 -0.00000000000E+00 -0.00000000000E+00 -0.17227069522E+03  0.17227069522E+03  0.00000000000E+00 0.  1.
    9000007    1    1    2  502    0 -0.37572309491E+02  0.44719185263E+02  0.18899260094E+03  0.44623949532E+03  0.40000000000E+03 0.  1.
   -9000007    1    1    2    0  501  0.37572309491E+02 -0.44719185263E+02  0.89233091409E+03  0.97962541015E+03  0.40000000000E+03 0. -1.
<mgrwt>
<rscale>  2 0.40424186E+03</rscale>
<asrwt>0</asrwt>
<pdfrwt beam="1">  1        2 0.19286064E+00 0.40424186E+03</pdfrwt>
<pdfrwt beam="2">  1       -2 0.26503185E-01 0.40424186E+03</pdfrwt>
<totfact> 0.23625719E+02</totfact>
</mgrwt>
</event>
<event>
 4    1  0.2474915E-002  0.5036723E+03  0.7818608E-02  0.1012825E+00
          2   -1    0    0  502    0  0.00000000000E+00  0.00000000000E+00  0.25824956643E+04  0.25824956643E+04  0.00000000000E+00 0. -1.
         -2   -1    0    0    0  501 -0.00000000000E+00 -0.00000000000E+00 -0.16768303132E+03  0.16768303132E+03  0.00000000000E+00 0.  1.
    9000007    1    1    2  502    0 -0.19664698352E+03  0.23455433697E+03  0.20923654509E+04  0.21521335817E+04  0.40000000000E+03 0. -1.
   -9000007    1    1    2    0  501  0.19664698352E+03 -0.23455433697E+03  0.32244718210E+03  0.59804511398E+03  0.40000000000E+03 0.  1.
<mgrwt>
<rscale>  2 0.50367229E+03</rscale>
<asrwt>0</asrwt>
<pdfrwt beam="1">  1        2 0.39730700E+00 0.50367229E+03</pdfrwt>
<pdfrwt beam="2">  1       -2 0.25797391E-01 0.50367229E+03</pdfrwt>
<totfact> 0.45888488E+01</totfact>
</mgrwt>
</event>
<event>
 4    1  0.2474915E-002  0.5457259E+03  0.7818608E-02  0.1002488E+00
         -2   -1    0    0    0  501 -0.00000000000E+00  0.00000000000E+00  0.16710063676E+03  0.16710063676E+03  0.00000000000E+00 0. -1.
          2   -1    0    0  502    0  0.00000000000E+00 -0.00000000000E+00 -0.20962870349E+04  0.20962870349E+04  0.00000000000E+00 0.  1.
    9000007    1    1    2  502    0 -0.10844185012E+03  0.35504517305E+03 -0.52657980634E+03  0.75835545900E+03  0.40000000000E+03 0.  1.
   -9000007    1    1    2    0  501  0.10844185012E+03 -0.35504517305E+03 -0.14026065918E+04  0.15050322127E+04  0.40000000000E+03 0. -1.
<mgrwt>
<rscale>  2 0.54572586E+03</rscale>
<asrwt>0</asrwt>
<pdfrwt beam="1">  1        2 0.32250570E+00 0.54572586E+03</pdfrwt>
<pdfrwt beam="2">  1       -2 0.25707790E-01 0.54572586E+03</pdfrwt>
<totfact> 0.85025156E+01</totfact>
</mgrwt>
</event>
<event>
 4    1  0.2474915E-002  0.4058934E+03  0.7818608E-02  0.1041758E+00
         -2   -1    0    0    0  501 -0.00000000000E+00  0.00000000000E+00  0.72549855725E+02  0.72549855725E+02  0.00000000000E+00 0. -1.
          2   -1    0    0  502    0  0.00000000000E+00 -0.00000000000E+00 -0.23717789603E+04  0.23717789603E+04  0.00000000000E+00 0.  1.
    9000007    1    1    2  502    0  0.68379773847E+02 -0.85843680705E+01 -0.89749243020E+03  0.98500870408E+03  0.40000000000E+03 0. -1.
   -9000007    1    1    2    0  501 -0.68379773847E+02  0.85843680705E+01 -0.14017366744E+04  0.14593201120E+04  0.40000000000E+03 0.  1.
<mgrwt>
<rscale>  2 0.40589344E+03</rscale>
<asrwt>0</asrwt>
<pdfrwt beam="1">  1        2 0.36488910E+00 0.40589344E+03</pdfrwt>
<pdfrwt beam="2">  1       -2 0.11161515E-01 0.40589344E+03</pdfrwt>
<totfact> 0.25534940E+02</totfact>
</mgrwt>
</event>
<event>
 4    1  0.2474915E-002  0.4071462E+03  0.7818608E-02  0.1041333E+00
          1   -1    0    0  502    0  0.00000000000E+00  0.00000000000E+00  0.14650663606E+04  0.14650663606E+04  0.00000000000E+00 0.  1.
         -1   -1    0    0    0  501 -0.00000000000E+00 -0.00000000000E+00 -0.11394303590E+03  0.11394303590E+03  0.00000000000E+00 0. -1.
    9000007    1    1    2  502    0 -0.46887384072E+02 -0.59745867048E+02  0.60957554259E+03  0.73304183887E+03  0.40000000000E+03 0. -1.
   -9000007    1    1    2    0  501  0.46887384072E+02  0.59745867048E+02  0.74154778213E+03  0.84596755765E+03  0.40000000000E+03 0.  1.
<mgrwt>
<rscale>  2 0.40714616E+03</rscale>
<asrwt>0</asrwt>
<pdfrwt beam="1">  1        1 0.22539481E+00 0.40714616E+03</pdfrwt>
<pdfrwt beam="2">  1       -1 0.17529699E-01 0.40714616E+03</pdfrwt>
<totfact> 0.18579704E+02</totfact>
</mgrwt>
</event>
<event>
 4    1  0.2474915E-002  0.4195343E+03  0.7818608E-02  0.1037218E+00
         -1   -1    0    0    0  501 -0.00000000000E+00  0.00000000000E+00  0.24632783914E+03  0.24632783914E+03  0.00000000000E+00 0. -1.
          1   -1    0    0  502    0  0.00000000000E+00 -0.00000000000E+00 -0.71464373892E+03  0.71464373892E+03  0.00000000000E+00 0.  1.
    9000007    1    1    2  502    0  0.11462642775E+03 -0.53570795570E+02 -0.24017429386E+03  0.48341776912E+03  0.40000000000E+03 0. -1.
   -9000007    1    1    2    0  501 -0.11462642775E+03  0.53570795570E+02 -0.22814160593E+03  0.47755380894E+03  0.40000000000E+03 0. -1.
<mgrwt>
<rscale>  2 0.41953432E+03</rscale>
<asrwt>0</asrwt>
<pdfrwt beam="1">  1        1 0.10994519E+00 0.41953432E+03</pdfrwt>
<pdfrwt beam="2">  1       -1 0.37896591E-01 0.41953432E+03</pdfrwt>
<totfact> 0.18445864E+02</totfact>
</mgrwt>
</event>
<event>
 4    1  0.2474915E-002  0.4621370E+03  0.7818608E-02  0.1024163E+00
          2   -1    0    0  502    0  0.00000000000E+00  0.00000000000E+00  0.31785815754E+04  0.31785815754E+04  0.00000000000E+00 0. -1.
         -2   -1    0    0    0  501 -0.00000000000E+00 -0.00000000000E+00 -0.69199452709E+02  0.69199452709E+02  0.00000000000E+00 0.  1.
    9000007    1    1    2  502    0 -0.95936341950E+02  0.21063432747E+03  0.18313765089E+04  0.18887854613E+04  0.40000000000E+03 0. -1.
   -9000007    1    1    2    0  501  0.95936341950E+02 -0.21063432747E+03  0.12780056138E+04  0.13589955668E+04  0.40000000000E+03 0.  1.
<mgrwt>
<rscale>  2 0.46213699E+03</rscale>
<asrwt>0</asrwt>
<pdfrwt beam="1">  1        2 0.48901244E+00 0.46213699E+03</pdfrwt>
<pdfrwt beam="2">  1       -2 0.10646072E-01 0.46213699E+03</pdfrwt>
<totfact> 0.92591876E+01</totfact>
</mgrwt>
</event>
<event>
 4    1  0.2474915E-002  0.5454842E+03  0.7818608E-02  0.1002545E+00
         -2   -1    0    0    0  501 -0.00000000000E+00  0.00000000000E+00  0.38565998702E+03  0.38565998702E+03  0.00000000000E+00 0. -1.
          2   -1    0    0  502    0  0.00000000000E+00 -0.00000000000E+00 -0.77294472273E+03  0.77294472273E+03  0.00000000000E+00 0.  1.
    9000007    1    1    2  502    0 -0.36839995090E+03  0.42831066937E+02 -0.21831742783E+03  0.58755044329E+03  0.40000000000E+03 0.  1.
   -9000007    1    1    2    0  501  0.36839995090E+03 -0.42831066937E+02 -0.16896730787E+03  0.57105426646E+03  0.40000000000E+03 0.  1.
<mgrwt>
<rscale>  2 0.54548421E+03</rscale>
<asrwt>0</asrwt>
<pdfrwt beam="1">  1        2 0.11891457E+00 0.54548421E+03</pdfrwt>
<pdfrwt beam="2">  1       -2 0.59332307E-01 0.54548421E+03</pdfrwt>
<totfact> 0.98293444E+01</totfact>
</mgrwt>
</event>
<event>
 4    1  0.2474915E-002  0.4973928E+03  0.7818608E-02  0.1014462E+00
          2   -1    0    0  502    0  0.00000000000E+00  0.00000000000E+00  0.10541762567E+04  0.10541762567E+04  0.00000000000E+00 0. -1.
         -2   -1    0    0    0  501 -0.00000000000E+00 -0.00000000000E+00 -0.48800434555E+03  0.48800434555E+03  0.00000000000E+00 0.  1.
    9000007    1    1    2  502    0  0.75799804434E+01 -0.29553711479E+03  0.83864131401E+03  0.97504815054E+03  0.40000000000E+03 0. -1.
   -9000007    1    1    2    0  501 -0.75799804434E+01  0.29553711479E+03 -0.27246940283E+03  0.56713245172E+03  0.40000000000E+03 0.  1.
<mgrwt>
<rscale>  2 0.49739285E+03</rscale>
<asrwt>0</asrwt>
<pdfrwt beam="1">  1        2 0.16218096E+00 0.49739285E+03</pdfrwt>
<pdfrwt beam="2">  1       -2 0.75077592E-01 0.49739285E+03</pdfrwt>
<totfact> 0.38791684E+01</totfact>
</mgrwt>
</event>
<event>
 4    1  0.2474915E-002  0.7273749E+03  0.7818608E-02  0.9671530E-01
         -2   -1    0    0    0  501 -0.00000000000E+00  0.00000000000E+00  0.48121622294E+03  0.48121622294E+03  0.00000000000E+00 0. -1.
          2   -1    0    0  502    0  0.00000000000E+00 -0.00000000000E+00 -0.23690096952E+04  0.23690096952E+04  0.00000000000E+00 0.  1.
    9000007    1    1    2  502    0 -0.28806835408E+03  0.53487466446E+03  0.99362023669E+02  0.73413016220E+03  0.40000000000E+03 0. -1.
   -9000007    1    1    2    0  501  0.28806835408E+03 -0.53487466446E+03 -0.19871554959E+04  0.21160957559E+04  0.40000000000E+03 0.  1.
<mgrwt>
<rscale>  2 0.72737493E+03</rscale>
<asrwt>0</asrwt>
<pdfrwt beam="1">  1        2 0.36446303E+00 0.72737493E+03</pdfrwt>
<pdfrwt beam="2">  1       -2 0.74033265E-01 0.72737493E+03</pdfrwt>
<totfact> 0.71431528E+00</totfact>
</mgrwt>
</event>
<event>
 4    1  0.2474915E-002  0.4348361E+03  0.7818608E-02  0.1032343E+00
         -2   -1    0    0    0  501 -0.00000000000E+00  0.00000000000E+00  0.71818957688E+02  0.71818957688E+02  0.00000000000E+00 0. -1.
          2   -1    0    0  502    0  0.00000000000E+00 -0.00000000000E+00 -0.32066421116E+04  0.32066421116E+04  0.00000000000E+00 0.  1.
    9000007    1    1    2  502    0 -0.16966645538E+03  0.17195846963E+02 -0.22608763831E+04  0.23023128421E+04  0.40000000000E+03 0.  1.
   -9000007    1    1    2    0  501  0.16966645538E+03 -0.17195846963E+02 -0.87394677082E+03  0.97614822720E+03  0.40000000000E+03 0. -1.
<mgrwt>
<rscale>  2 0.43483606E+03</rscale>
<asrwt>0</asrwt>
<pdfrwt beam="1">  1        2 0.49332958E+00 0.43483606E+03</pdfrwt>
<pdfrwt beam="2">  1       -2 0.11049070E-01 0.43483606E+03</pdfrwt>
<totfact> 0.84245020E+01</totfact>
</mgrwt>
</event>
<event>
 4    1  0.2474915E-002  0.5013533E+03  0.7818608E-02  0.1013426E+00
          2   -1    0    0  502    0  0.00000000000E+00  0.00000000000E+00  0.57976465459E+03  0.57976465459E+03  0.00000000000E+00 0. -1.
         -2   -1    0    0    0  501 -0.00000000000E+00 -0.00000000000E+00 -0.45721372038E+03  0.45721372038E+03  0.00000000000E+00 0.  1.
    9000007    1    1    2  502    0  0.96743779634E+01 -0.30209523602E+03 -0.56688867606E+02  0.50454806801E+03  0.40000000000E+03 0. -1.
   -9000007    1    1    2    0  501 -0.96743779634E+01  0.30209523602E+03  0.17923980182E+03  0.53243030696E+03  0.40000000000E+03 0. -1.
<mgrwt>
<rscale>  2 0.50135329E+03</rscale>
<asrwt>0</asrwt>
<pdfrwt beam="1">  1        2 0.89194562E-01 0.50135329E+03</pdfrwt>
<pdfrwt beam="2">  1       -2 0.70340572E-01 0.50135329E+03</pdfrwt>
<totfact> 0.97826620E+01</totfact>
</mgrwt>
</event>
<event>
 4    1  0.2474915E-002  0.4187972E+03  0.7818608E-02  0.1037458E+00
         -2   -1    0    0    0  501 -0.00000000000E+00  0.00000000000E+00  0.12470574844E+03  0.12470574844E+03  0.00000000000E+00 0. -1.
          2   -1    0    0  502    0  0.00000000000E+00 -0.00000000000E+00 -0.14074294503E+04  0.14074294503E+04  0.00000000000E+00 0.  1.
    9000007    1    1    2  502    0  0.12342541647E+03 -0.12539379464E+02 -0.66168062213E+03  0.78307874136E+03  0.40000000000E+03 0. -1.
   -9000007    1    1    2    0  501 -0.12342541647E+03  0.12539379464E+02 -0.62104307973E+03  0.74905645739E+03  0.40000000000E+03 0.  1.
<mgrwt>
<rscale>  2 0.41879717E+03</rscale>
<asrwt>0</asrwt>
<pdfrwt beam="1">  1        2 0.21652761E+00 0.41879717E+03</pdfrwt>
<pdfrwt beam="2">  1       -2 0.19185500E-01 0.41879717E+03</pdfrwt>
<totfact> 0.34150854E+02</totfact>
</mgrwt>
</event>
<event>
 4    1  0.2474915E-002  0.4425849E+03  0.7818608E-02  0.1029957E+00
         -1   -1    0    0    0  501 -0.00000000000E+00  0.00000000000E+00  0.46883030921E+03  0.46883030921E+03  0.00000000000E+00 0. -1.
          1   -1    0    0  502    0  0.00000000000E+00 -0.00000000000E+00 -0.42115249401E+03  0.42115249401E+03  0.00000000000E+00 0.  1.
    9000007    1    1    2  502    0  0.65904603591E+02  0.17758937643E+03  0.63489412940E+02  0.44711554318E+03  0.40000000000E+03 0.  1.
   -9000007    1    1    2    0  501 -0.65904603591E+02 -0.17758937643E+03 -0.15811597742E+02  0.44286726004E+03  0.40000000000E+03 0.  1.
<mgrwt>
<rscale>  2 0.44258491E+03</rscale>
<asrwt>0</asrwt>
<pdfrwt beam="1">  1        1 0.64792692E-01 0.44258491E+03</pdfrwt>
<pdfrwt beam="2">  1       -1 0.72127740E-01 0.44258491E+03</pdfrwt>
<totfact> 0.11314983E+02</totfact>
</mgrwt>
</event>
<event>
 4    1  0.2474915E-002  0.4050368E+03  0.7818608E-02  0.1042049E+00
         -4   -1    0    0    0  501 -0.00000000000E+00  0.00000000000E+00  0.41885456829E+03  0.41885456829E+03  0.00000000000E+00 0.  1.
          4   -1    0    0  502    0  0.00000000000E+00 -0.00000000000E+00 -0.39467985137E+03  0.39467985137E+03  0.00000000000E+00 0. -1.
    9000007    1    1    2  502    0  0.39917701842E+02 -0.49612270451E+02 -0.23405892489E+02  0.40571250425E+03  0.40000000000E+03 0.  1.
   -9000007    1    1    2    0  501 -0.39917701842E+02  0.49612270451E+02  0.47580609410E+02  0.40782191541E+03  0.40000000000E+03 0.  1.
<mgrwt>
<rscale>  2 0.40503679E+03</rscale>
<asrwt>0</asrwt>
<pdfrwt beam="1">  1        4 0.60719977E-01 0.40503679E+03</pdfrwt>
<pdfrwt beam="2">  1       -4 0.64439165E-01 0.40503679E+03</pdfrwt>
<totfact> 0.11026647E+01</totfact>
</mgrwt>
</event>
<event>
 4    1  0.2474915E-002  0.4495706E+03  0.7818608E-02  0.1027850E+00
          2   -1    0    0  502    0  0.00000000000E+00  0.00000000000E+00  0.31651532513E+04  0.31651532513E+04  0.00000000000E+00 0.  1.
         -2   -1    0    0    0  501 -0.00000000000E+00 -0.00000000000E+00 -0.67330200116E+02  0.67330200116E+02  0.00000000000E+00 0. -1.
    9000007    1    1    2  502    0 -0.19463987628E+03 -0.65031398743E+02  0.19160534212E+04  0.19680890420E+04  0.40000000000E+03 0.  1.
   -9000007    1    1    2    0  501  0.19463987628E+03  0.65031398743E+02  0.11817696299E+04  0.12643944094E+04  0.40000000000E+03 0.  1.
<mgrwt>
<rscale>  2 0.44957064E+03</rscale>
<asrwt>0</asrwt>
<pdfrwt beam="1">  1        2 0.48694654E+00 0.44957064E+03</pdfrwt>
<pdfrwt beam="2">  1       -2 0.10358495E-01 0.44957064E+03</pdfrwt>
<totfact> 0.98954723E+01</totfact>
</mgrwt>
</event>
<event>
 4    1  0.2474915E-002  0.4964537E+03  0.7818608E-02  0.1014709E+00
          2   -1    0    0  502    0  0.00000000000E+00  0.00000000000E+00  0.25313479743E+04  0.25313479743E+04  0.00000000000E+00 0. -1.
         -2   -1    0    0    0  501 -0.00000000000E+00 -0.00000000000E+00 -0.11163650153E+03  0.11163650153E+03  0.00000000000E+00 0.  1.
    9000007    1    1    2  502    0  0.98971624093E+02  0.27689514720E+03  0.16823392591E+04  0.17540614834E+04  0.40000000000E+03 0.  1.
   -9000007    1    1    2    0  501 -0.98971624093E+02 -0.27689514720E+03  0.73737221362E+03  0.88892299235E+03  0.40000000000E+03 0.  1.
<mgrwt>
<rscale>  2 0.49645373E+03</rscale>
<asrwt>0</asrwt>
<pdfrwt beam="1">  1        2 0.38943811E+00 0.49645373E+03</pdfrwt>
<pdfrwt beam="2">  1       -2 0.17174848E-01 0.49645373E+03</pdfrwt>
<totfact> 0.10009436E+02</totfact>
</mgrwt>
</event>
<event>
 4    1  0.2474915E-002  0.4291932E+03  0.7818608E-02  0.1034115E+00
         -2   -1    0    0    0  501 -0.00000000000E+00  0.00000000000E+00  0.12284672948E+03  0.12284672948E+03  0.00000000000E+00 0. -1.
          2   -1    0    0  502    0  0.00000000000E+00 -0.00000000000E+00 -0.15082213225E+04  0.15082213225E+04  0.00000000000E+00 0.  1.
    9000007    1    1    2  502    0  0.14361965925E+03 -0.59834453136E+02 -0.75475790271E+03  0.86825472069E+03  0.40000000000E+03 0.  1.
   -9000007    1    1    2    0  501 -0.14361965925E+03  0.59834453136E+02 -0.63061669032E+03  0.76281333131E+03  0.40000000000E+03 0.  1.
<mgrwt>
<rscale>  2 0.42919316E+03</rscale>
<asrwt>0</asrwt>
<pdfrwt beam="1">  1        2 0.23203404E+00 0.42919316E+03</pdfrwt>
<pdfrwt beam="2">  1       -2 0.18899498E-01 0.42919316E+03</pdfrwt>
<totfact> 0.30818535E+02</totfact>
</mgrwt>
</event>
<event>
 4    1  0.2474915E-002  0.5471442E+03  0.7818608E-02  0.1002157E+00
         -2   -1    0    0    0  501 -0.00000000000E+00  0.00000000000E+00  0.41120624722E+03  0.41120624722E+03  0.00000000000E+00 0. -1.
          2   -1    0    0  502    0  0.00000000000E+00 -0.00000000000E+00 -0.96995871247E+03  0.96995871247E+03  0.00000000000E+00 0.  1.
    9000007    1    1    2  502    0  0.36745587980E+03 -0.65901035336E+02  0.65521822850E+02  0.55105342692E+03  0.40000000000E+03 0. -1.
   -9000007    1    1    2    0  501 -0.36745587980E+03  0.65901035336E+02 -0.62427428809E+03  0.83011153277E+03  0.40000000000E+03 0.  1.
<mgrwt>
<rscale>  2 0.54714419E+03</rscale>
<asrwt>0</asrwt>
<pdfrwt beam="1">  1        2 0.14922442E+00 0.54714419E+03</pdfrwt>
<pdfrwt beam="2">  1       -2 0.63262499E-01 0.54714419E+03</pdfrwt>
<totfact> 0.63059569E+01</totfact>
</mgrwt>
</event>
<event>
 4    1  0.2474915E-002  0.4541514E+03  0.7818608E-02  0.1026491E+00
          2   -1    0    0  502    0  0.00000000000E+00  0.00000000000E+00  0.14000885895E+04  0.14000885895E+04  0.00000000000E+00 0. -1.
         -2   -1    0    0    0  501 -0.00000000000E+00 -0.00000000000E+00 -0.14770438473E+03  0.14770438473E+03  0.00000000000E+00 0.  1.
    9000007    1    1    2  502    0 -0.21088212723E+03 -0.42216022315E+02  0.58643551482E+03  0.74172776486E+03  0.40000000000E+03 0.  1.
   -9000007    1    1    2    0  501  0.21088212723E+03  0.42216022315E+02  0.66594868995E+03  0.80606520938E+03  0.40000000000E+03 0. -1.
<mgrwt>
<rscale>  2 0.45415137E+03</rscale>
<asrwt>0</asrwt>
<pdfrwt beam="1">  1        2 0.21539824E+00 0.45415137E+03</pdfrwt>
<pdfrwt beam="2">  1       -2 0.22723752E-01 0.45415137E+03</pdfrwt>
<totfact> 0.25566841E+02</totfact>
</mgrwt>
</event>
<event>
 4    1  0.2474915E-002  0.4110698E+03  0.7818608E-02  0.1040013E+00
          1   -1    0    0  502    0  0.00000000000E+00  0.00000000000E+00  0.32510653936E+03  0.32510653936E+03  0.00000000000E+00 0. -1.
         -1   -1    0    0    0  501 -0.00000000000E+00 -0.00000000000E+00 -0.52490657961E+03  0.52490657961E+03  0.00000000000E+00 0.  1.
    9000007    1    1    2  502    0  0.76263065454E+02  0.56234346067E+02 -0.57828665191E+02  0.41511746693E+03  0.40000000000E+03 0. -1.
   -9000007    1    1    2    0  501 -0.76263065454E+02 -0.56234346067E+02 -0.14197137507E+03  0.43489565205E+03  0.40000000000E+03 0.  1.
<mgrwt>
<rscale>  2 0.41106977E+03</rscale>
<asrwt>0</asrwt>
<pdfrwt beam="1">  1        1 0.50016391E-01 0.41106977E+03</pdfrwt>
<pdfrwt beam="2">  1       -1 0.80754858E-01 0.41106977E+03</pdfrwt>
<totfact> 0.12566658E+02</totfact>
</mgrwt>
</event>
<event>
 4    1  0.2474915E-002  0.4255057E+03  0.7818608E-02  0.1035289E+00
         -2   -1    0    0    0  501 -0.00000000000E+00  0.00000000000E+00  0.13707193886E+03  0.13707193886E+03  0.00000000000E+00 0. -1.
          2   -1    0    0  502    0  0.00000000000E+00 -0.00000000000E+00 -0.22370798517E+04  0.22370798517E+04  0.00000000000E+00 0.  1.
    9000007    1    1    2  502    0  0.14127629461E+03  0.33107012025E+02 -0.18096892961E+04  0.18590401862E+04  0.40000000000E+03 0.  1.
   -9000007    1    1    2    0  501 -0.14127629461E+03 -0.33107012025E+02 -0.29031861672E+03  0.51511160429E+03  0.40000000000E+03 0. -1.
<mgrwt>
<rscale>  2 0.42550566E+03</rscale>
<asrwt>0</asrwt>
<pdfrwt beam="1">  1        2 0.34416616E+00 0.42550566E+03</pdfrwt>
<pdfrwt beam="2">  1       -2 0.21087989E-01 0.42550566E+03</pdfrwt>
<totfact> 0.10347415E+02</totfact>
</mgrwt>
</event>
<event>
 4    1  0.2474915E-002  0.4942903E+03  0.7818608E-02  0.1015280E+00
          2   -1    0    0  502    0  0.00000000000E+00  0.00000000000E+00  0.11930011811E+04  0.11930011811E+04  0.00000000000E+00 0.  1.
         -2   -1    0    0    0  501 -0.00000000000E+00 -0.00000000000E+00 -0.21808298492E+03  0.21808298492E+03  0.00000000000E+00 0. -1.
    9000007    1    1    2  502    0 -0.26114490019E+03 -0.12698927385E+03  0.31331423549E+03  0.58522537943E+03  0.40000000000E+03 0. -1.
   -9000007    1    1    2    0  501  0.26114490019E+03  0.12698927385E+03  0.66160396067E+03  0.82585878656E+03  0.40000000000E+03 0.  1.
<mgrwt>
<rscale>  2 0.49429033E+03</rscale>
<asrwt>0</asrwt>
<pdfrwt beam="1">  1        2 0.18353864E+00 0.49429033E+03</pdfrwt>
<pdfrwt beam="2">  1       -2 0.33551229E-01 0.49429033E+03</pdfrwt>
<totfact> 0.16434441E+02</totfact>
</mgrwt>
</event>
<event>
 4    1  0.2474915E-002  0.6295817E+03  0.7818608E-02  0.9845865E-01
          1   -1    0    0  502    0  0.00000000000E+00  0.00000000000E+00  0.14649138664E+04  0.14649138664E+04  0.00000000000E+00 0. -1.
         -1   -1    0    0    0  501 -0.00000000000E+00 -0.00000000000E+00 -0.41482493635E+03  0.41482493635E+03  0.00000000000E+00 0.  1.
    9000007    1    1    2  502    0 -0.11979417744E+03 -0.47119255445E+03  0.10792728812E+04  0.12494811005E+04  0.40000000000E+03 0.  1.
   -9000007    1    1    2    0  501  0.11979417744E+03  0.47119255445E+03 -0.29183951128E+02  0.63025770231E+03  0.40000000000E+03 0. -1.
<mgrwt>
<rscale>  2 0.62958166E+03</rscale>
<asrwt>0</asrwt>
<pdfrwt beam="1">  1        1 0.22537136E+00 0.62958166E+03</pdfrwt>
<pdfrwt beam="2">  1       -1 0.63819222E-01 0.62958166E+03</pdfrwt>
<totfact> 0.18148511E+01</totfact>
</mgrwt>
</event>
<event>
 4    1  0.2474915E-002  0.5077967E+03  0.7818608E-02  0.1011764E+00
         -1   -1    0    0    0  501 -0.00000000000E+00  0.00000000000E+00  0.12950391377E+04  0.12950391377E+04  0.00000000000E+00 0. -1.
          1   -1    0    0  502    0  0.00000000000E+00 -0.00000000000E+00 -0.26740345397E+03  0.26740345397E+03  0.00000000000E+00 0.  1.
    9000007    1    1    2  502    0  0.16937956690E+03  0.26299818912E+03  0.90861552956E+03  0.10408840789E+04  0.40000000000E+03 0. -1.
   -9000007    1    1    2    0  501 -0.16937956690E+03 -0.26299818912E+03  0.11902015419E+03  0.52155851279E+03  0.40000000000E+03 0.  1.
<mgrwt>
<rscale>  2 0.50779670E+03</rscale>
<asrwt>0</asrwt>
<pdfrwt beam="1">  1        1 0.41138994E-01 0.50779670E+03</pdfrwt>
<pdfrwt beam="2">  1       -1 0.19923679E+00 0.50779670E+03</pdfrwt>
<totfact> 0.16461756E+01</totfact>
</mgrwt>
</event>
<event>
 4    1  0.2474915E-002  0.5609283E+03  0.7818608E-02  0.9989956E-01
          2   -1    0    0  502    0  0.00000000000E+00  0.00000000000E+00  0.83801854307E+03  0.83801854307E+03  0.00000000000E+00 0. -1.
         -2   -1    0    0    0  501 -0.00000000000E+00 -0.00000000000E+00 -0.38389918189E+03  0.38389918189E+03  0.00000000000E+00 0.  1.
    9000007    1    1    2  502    0 -0.26532870613E+02 -0.39234754171E+03  0.13646336982E+03  0.57728921522E+03  0.40000000000E+03 0.  1.
   -9000007    1    1    2    0  501  0.26532870613E+02  0.39234754171E+03  0.31765599136E+03  0.64462850973E+03  0.40000000000E+03 0. -1.
<mgrwt>
<rscale>  2 0.56092833E+03</rscale>
<asrwt>0</asrwt>
<pdfrwt beam="1">  1        2 0.12892593E+00 0.56092833E+03</pdfrwt>
<pdfrwt beam="2">  1       -2 0.59061413E-01 0.56092833E+03</pdfrwt>
<totfact> 0.89105443E+01</totfact>
</mgrwt>
</event>
<event>
 4    1  0.2474915E-002  0.4908252E+03  0.7818608E-02  0.1016202E+00
          4   -1    0    0  502    0  0.00000000000E+00  0.00000000000E+00  0.22409652909E+03  0.22409652909E+03  0.00000000000E+00 0. -1.
         -4   -1    0    0    0  501 -0.00000000000E+00 -0.00000000000E+00 -0.11476819578E+04  0.11476819578E+04  0.00000000000E+00 0.  1.
    9000007    1    1    2  502    0 -0.26758666627E+03  0.96471401997E+02 -0.28921606582E+03  0.56969754089E+03  0.40000000000E+03 0.  1.
   -9000007    1    1    2    0  501  0.26758666627E+03 -0.96471401997E+02 -0.63436936291E+03  0.80208094602E+03  0.40000000000E+03 0.  1.
<mgrwt>
<rscale>  2 0.49082518E+03</rscale>
<asrwt>0</asrwt>
<pdfrwt beam="1">  1        4 0.34476389E-01 0.49082518E+03</pdfrwt>
<pdfrwt beam="2">  1       -4 0.17656645E+00 0.49082518E+03</pdfrwt>
<totfact> 0.30705180E+00</totfact>
</mgrwt>
</event>
