<event>
 4    1  0.3889096E-001  0.2056611E+03  0.7546771E-02  0.1145049E+00
          2   -1    0    0  502    0  0.00000000000E+00  0.00000000000E+00  0.85041245928E+02  0.85041245928E+02  0.00000000000E+00 0.  1.
         -2   -1    0    0    0  501 -0.00000000000E+00 -0.00000000000E+00 -0.52220870665E+03  0.52220870665E+03  0.00000000000E+00 0. -1.
          6    1    1    2  502    0 -0.51519123938E+02  0.10029097457E+03 -0.15235785568E+03  0.25594807266E+03  0.17200000000E+03 0.  1.
         -6    1    1    2    0  501  0.51519123938E+02 -0.10029097457E+03 -0.28480960505E+03  0.35130187992E+03  0.17200000000E+03 0. -1.
<mgrwt>
<rscale>  2 0.20566113E+03</rscale>
<asrwt>0</asrwt>
<pdfrwt beam="1">  1        2 0.21260312E-01 0.20566113E+03</pdfrwt>
<pdfrwt beam="2">  1       -2 0.13055217E+00 0.20566113E+03</pdfrwt>
<totfact> 0.11780988E+02</totfact>
</mgrwt>
</event>
<event>
 4    1  0.3889096E-001  0.1772735E+03  0.7546771E-02  0.1170468E+00
          1   -1    0    0  502    0  0.00000000000E+00  0.00000000000E+00  0.44864284712E+03  0.44864284712E+03  0.00000000000E+00 0.  1.
         -1   -1    0    0    0  501 -0.00000000000E+00 -0.00000000000E+00 -0.71824694887E+02  0.71824694887E+02  0.00000000000E+00 0. -1.
          6    1    1    2  502    0 -0.39494837141E+02  0.16794028277E+02  0.14746313119E+03  0.23058893427E+03  0.17200000000E+03 0. -1.
         -6    1    1    2    0  501  0.39494837141E+02 -0.16794028277E+02  0.22935502104E+03  0.28987860773E+03  0.17200000000E+03 0.  1.
<mgrwt>
<rscale>  2 0.17727347E+03</rscale>
<asrwt>0</asrwt>
<pdfrwt beam="1">  1        1 0.11216070E+00 0.17727347E+03</pdfrwt>
<pdfrwt beam="2">  1       -1 0.17956175E-01 0.17727347E+03</pdfrwt>
<totfact> 0.64388558E+02</totfact>
</mgrwt>
</event>
<event>
 4    1  0.3889096E-001  0.2961137E+03  0.7546771E-02  0.1087200E+00
         -2   -1    0    0    0  501 -0.00000000000E+00  0.00000000000E+00  0.36041918014E+03  0.36041918014E+03  0.00000000000E+00 0.  1.
          2   -1    0    0  502    0  0.00000000000E+00 -0.00000000000E+00 -0.27681098969E+03  0.27681098969E+03  0.00000000000E+00 0. -1.
          6    1    1    2  502    0 -0.95838391465E+02 -0.22116588554E+03  0.15269288627E+03  0.33316431940E+03  0.17200000000E+03 0.  1.
         -6    1    1    2    0  501  0.95838391465E+02  0.22116588554E+03 -0.69084695815E+02  0.30406585043E+03  0.17200000000E+03 0. -1.
<mgrwt>
<rscale>  2 0.29611374E+03</rscale>
<asrwt>0</asrwt>
<pdfrwt beam="1">  1        2 0.69202748E-01 0.29611374E+03</pdfrwt>
<pdfrwt beam="2">  1       -2 0.90104795E-01 0.29611374E+03</pdfrwt>
<totfact> 0.77032191E+01</totfact>
</mgrwt>
</event>
<event>
 4    1  0.3889096E-001  0.1801058E+03  0.7546771E-02  0.1167701E+00
          2   -1    0    0  502    0  0.00000000000E+00  0.00000000000E+00  0.27713584045E+03  0.27713584045E+03  0.00000000000E+00 0. -1.
         -2   -1    0    0    0  501 -0.00000000000E+00 -0.00000000000E+00 -0.16428478393E+03  0.16428478393E+03  0.00000000000E+00 0.  1.
          6    1    1    2  502    0  0.90997934690E+01 -0.52642904472E+02  0.17477491448E+03  0.25096683519E+03  0.17200000000E+03 0. -1.
         -6    1    1    2    0  501 -0.90997934690E+01  0.52642904472E+02 -0.61923857962E+02  0.19045378919E+03  0.17200000000E+03 0.  1.
<mgrwt>
<rscale>  2 0.18010575E+03</rscale>
<asrwt>0</asrwt>
<pdfrwt beam="1">  1        2 0.69283960E-01 0.18010575E+03</pdfrwt>
<pdfrwt beam="2">  1       -2 0.41071196E-01 0.18010575E+03</pdfrwt>
<totfact> 0.40032029E+02</totfact>
</mgrwt>
</event>
<event>
 4    1  0.3889096E-001  0.1805954E+03  0.7546771E-02  0.1167228E+00
          2   -1    0    0  502    0  0.00000000000E+00  0.00000000000E+00  0.12597114358E+03  0.12597114358E+03  0.00000000000E+00 0.  1.
         -2   -1    0    0    0  501 -0.00000000000E+00 -0.00000000000E+00 -0.25891657299E+03  0.25891657299E+03  0.00000000000E+00 0. -1.
          6    1    1    2  502    0  0.54988876673E+02 -0.26293961068E+01 -0.65245434193E+02  0.19201993898E+03  0.17200000000E+03 0. -1.
         -6    1    1    2    0  501 -0.54988876673E+02  0.26293961068E+01 -0.67699995210E+02  0.19286777759E+03  0.17200000000E+03 0. -1.
<mgrwt>
<rscale>  2 0.18059538E+03</rscale>
<asrwt>0</asrwt>
<pdfrwt beam="1">  1        2 0.31492786E-01 0.18059538E+03</pdfrwt>
<pdfrwt beam="2">  1       -2 0.64729143E-01 0.18059538E+03</pdfrwt>
<totfact> 0.37619844E+02</totfact>
</mgrwt>
</event>
<event>
 4    1  0.3889096E-001  0.2070472E+03  0.7546771E-02  0.1143926E+00
          2   -1    0    0  502    0  0.00000000000E+00  0.00000000000E+00  0.39065804524E+03  0.39065804524E+03  0.00000000000E+00 0. -1.
         -2   -1    0    0    0  501 -0.00000000000E+00 -0.00000000000E+00 -0.56893217312E+03  0.56893217312E+03  0.00000000000E+00 0.  1.
          6    1    1    2  502    0 -0.96525613292E+02 -0.62986752309E+02  0.34191088100E+03  0.39971436744E+03  0.17200000000E+03 0. -1.
         -6    1    1    2    0  501  0.96525613292E+02  0.62986752309E+02 -0.52018500888E+03  0.55987585092E+03  0.17200000000E+03 0.  1.
<mgrwt>
<rscale>  2 0.20704716E+03</rscale>
<asrwt>0</asrwt>
<pdfrwt beam="1">  1        2 0.97664512E-01 0.20704716E+03</pdfrwt>
<pdfrwt beam="2">  1       -2 0.14223304E+00 0.20704716E+03</pdfrwt>
<totfact> 0.17751811E+01</totfact>
</mgrwt>
</event>
<event>
 4    1  0.3889096E-001  0.1834059E+03  0.7546771E-02  0.1164547E+00
         -2   -1    0    0    0  501 -0.00000000000E+00  0.00000000000E+00  0.15741587157E+02  0.15741587157E+02  0.00000000000E+00 0. -1.
          2   -1    0    0  502    0  0.00000000000E+00 -0.00000000000E+00 -0.22122172997E+04  0.22122172997E+04  0.00000000000E+00 0.  1.
          6    1    1    2  502    0 -0.22603535423E+02  0.59521349588E+02 -0.13038268125E+04  0.13166632325E+04  0.17200000000E+03 0.  1.
         -6    1    1    2    0  501  0.22603535423E+02 -0.59521349588E+02 -0.89264890002E+03  0.91129565432E+03  0.17200000000E+03 0. -1.
<mgrwt>
<rscale>  2 0.18340586E+03</rscale>
<asrwt>0</asrwt>
<pdfrwt beam="1">  1        2 0.55305436E+00 0.18340586E+03</pdfrwt>
<pdfrwt beam="2">  1       -2 0.39353965E-02 0.18340586E+03</pdfrwt>
<totfact> 0.25560320E+02</totfact>
</mgrwt>
</event>
<event>
 4    1  0.3889096E-001  0.2694879E+03  0.7546771E-02  0.1101573E+00
          2   -1    0    0  502    0  0.00000000000E+00  0.00000000000E+00  0.83473442750E+03  0.83473442750E+03  0.00000000000E+00 0.  1.
         -2   -1    0    0    0  501 -0.00000000000E+00 -0.00000000000E+00 -0.10719205248E+03  0.10719205248E+03  0.00000000000E+00 0. -1.
          6    1    1    2  502    0  0.20737977331E+03  0.57756093012E+01  0.56816716095E+03  0.62883833441E+03  0.17200000000E+03 0.  1.
         -6    1    1    2    0  501 -0.20737977331E+03 -0.57756093012E+01  0.15937521407E+03  0.31308814558E+03  0.17200000000E+03 0. -1.
<mgrwt>
<rscale>  2 0.26948790E+03</rscale>
<asrwt>0</asrwt>
<pdfrwt beam="1">  1        2 0.20868359E+00 0.26948790E+03</pdfrwt>
<pdfrwt beam="2">  1       -2 0.26798016E-01 0.26948790E+03</pdfrwt>
<totfact> 0.20693654E+02</totfact>
</mgrwt>
</event>
<event>
 4    1  0.3889096E-001  0.2345928E+03  0.7546771E-02  0.1123448E+00
          2   -1    0    0  502    0  0.00000000000E+00  0.00000000000E+00  0.12148864674E+04  0.12148864674E+04  0.00000000000E+00 0.  1.
         -2   -1    0    0    0  501 -0.00000000000E+00 -0.00000000000E+00 -0.46640673590E+02  0.46640673590E+02  0.00000000000E+00 0. -1.
          6    1    1    2  502    0  0.15259851222E+03  0.46513401928E+02  0.47716333046E+03  0.53171293611E+03  0.17200000000E+03 0. -1.
         -6    1    1    2    0  501 -0.15259851222E+03 -0.46513401928E+02  0.69108246335E+03  0.72981420487E+03  0.17200000000E+03 0.  1.
<mgrwt>
<rscale>  2 0.23459284E+03</rscale>
<asrwt>0</asrwt>
<pdfrwt beam="1">  1        2 0.30372151E+00 0.23459284E+03</pdfrwt>
<pdfrwt beam="2">  1       -2 0.11660172E-01 0.23459284E+03</pdfrwt>
<totfact> 0.40116711E+02</totfact>
</mgrwt>
</event>
<event>
 4    1  0.3889096E-001  0.2284768E+03  0.7546771E-02  0.1127716E+00
         -2   -1    0    0    0  501 -0.00000000000E+00  0.00000000000E+00  0.82057388341E+02  0.82057388341E+02  0.00000000000E+00 0.  1.
          2   -1    0    0  502    0  0.00000000000E+00 -0.00000000000E+00 -0.69096134757E+03  0.69096134757E+03  0.00000000000E+00 0. -1.
          6    1    1    2  502    0 -0.89761949683E+02  0.12066669124E+03 -0.19560225696E+03  0.30076884964E+03  0.17200000000E+03 0.  1.
         -6    1    1    2    0  501  0.89761949683E+02 -0.12066669124E+03 -0.41330170227E+03  0.47224988627E+03  0.17200000000E+03 0. -1.
<mgrwt>
<rscale>  2 0.22847682E+03</rscale>
<asrwt>0</asrwt>
<pdfrwt beam="1">  1        2 0.17274034E+00 0.22847682E+03</pdfrwt>
<pdfrwt beam="2">  1       -2 0.20514347E-01 0.22847682E+03</pdfrwt>
<totfact> 0.45029991E+02</totfact>
</mgrwt>
</event>
<event>
 4    1  0.3889096E-001  0.1753127E+03  0.7546771E-02  0.1172418E+00
         -1   -1    0    0    0  501 -0.00000000000E+00  0.00000000000E+00  0.18625202556E+03  0.18625202556E+03  0.00000000000E+00 0. -1.
          1   -1    0    0  502    0  0.00000000000E+00 -0.00000000000E+00 -0.16626043921E+03  0.16626043921E+03  0.00000000000E+00 0.  1.
          6    1    1    2  502    0  0.31349038321E+02  0.12953538127E+02  0.25244894882E+02  0.17712103509E+03  0.17200000000E+03 0. -1.
         -6    1    1    2    0  501 -0.31349038321E+02 -0.12953538127E+02 -0.52533085351E+01  0.17539142968E+03  0.17200000000E+03 0.  1.
<mgrwt>
<rscale>  2 0.17531274E+03</rscale>
<asrwt>0</asrwt>
<pdfrwt beam="1">  1        1 0.41565110E-01 0.17531274E+03</pdfrwt>
<pdfrwt beam="2">  1       -1 0.46563006E-01 0.17531274E+03</pdfrwt>
<totfact> 0.47270356E+02</totfact>
</mgrwt>
</event>
<event>
 4    1  0.3889096E-001  0.2011168E+03  0.7546771E-02  0.1148800E+00
          1   -1    0    0  502    0  0.00000000000E+00  0.00000000000E+00  0.16607491356E+03  0.16607491356E+03  0.00000000000E+00 0.  1.
         -1   -1    0    0    0  501 -0.00000000000E+00 -0.00000000000E+00 -0.24945449332E+03  0.24945449332E+03  0.00000000000E+00 0. -1.
          6    1    1    2  502    0 -0.35123154457E+02 -0.98134149902E+02 -0.73647698182E+02  0.21417733494E+03  0.17200000000E+03 0. -1.
         -6    1    1    2    0  501  0.35123154457E+02  0.98134149902E+02 -0.97318815769E+01  0.20135207194E+03  0.17200000000E+03 0. -1.
<mgrwt>
<rscale>  2 0.20111675E+03</rscale>
<asrwt>0</asrwt>
<pdfrwt beam="1">  1        1 0.41518729E-01 0.20111675E+03</pdfrwt>
<pdfrwt beam="2">  1       -1 0.62363623E-01 0.20111675E+03</pdfrwt>
<totfact> 0.27365534E+02</totfact>
</mgrwt>
</event>
<event>
 4    1  0.3889096E-001  0.1959949E+03  0.7546771E-02  0.1153163E+00
          2   -1    0    0  502    0  0.00000000000E+00  0.00000000000E+00  0.73577533964E+03  0.73577533964E+03  0.00000000000E+00 0.  1.
         -2   -1    0    0    0  501 -0.00000000000E+00 -0.00000000000E+00 -0.52666232334E+02  0.52666232334E+02  0.00000000000E+00 0. -1.
          6    1    1    2  502    0 -0.54626786859E+02 -0.76458559095E+02  0.37829165220E+03  0.42604996330E+03  0.17200000000E+03 0. -1.
         -6    1    1    2    0  501  0.54626786859E+02  0.76458559095E+02  0.30481745511E+03  0.36239160868E+03  0.17200000000E+03 0.  1.
<mgrwt>
<rscale>  2 0.19599489E+03</rscale>
<asrwt>0</asrwt>
<pdfrwt beam="1">  1        2 0.18394380E+00 0.19599489E+03</pdfrwt>
<pdfrwt beam="2">  1       -2 0.13166560E-01 0.19599489E+03</pdfrwt>
<totfact> 0.86038063E+02</totfact>
</mgrwt>
</event>
<event>
 4    1  0.3889096E-001  0.3407925E+03  0.7546771E-02  0.1066459E+00
          1   -1    0    0  502    0  0.00000000000E+00  0.00000000000E+00  0.20082024436E+03  0.20082024436E+03  0.00000000000E+00 0.  1.
         -1   -1    0    0    0  501 -0.00000000000E+00 -0.00000000000E+00 -0.90025007726E+03  0.90025007726E+03  0.00000000000E+00 0. -1.
          6    1    1    2  502    0 -0.28297804265E+02 -0.29283919070E+03 -0.67893039438E+03  0.75966179169E+03  0.17200000000E+03 0. -1.
         -6    1    1    2    0  501  0.28297804265E+02  0.29283919070E+03 -0.20499438520E+02  0.34140852994E+03  0.17200000000E+03 0.  1.
<mgrwt>
<rscale>  2 0.34079254E+03</rscale>
<asrwt>0</asrwt>
<pdfrwt beam="1">  1        1 0.50205062E-01 0.34079254E+03</pdfrwt>
<pdfrwt beam="2">  1       -1 0.22506251E+00 0.34079254E+03</pdfrwt>
<totfact> 0.89143536E+00</totfact>
</mgrwt>
</event>
<event>
 4    1  0.3889096E-001  0.2581969E+03  0.7546771E-02  0.1108231E+00
          2   -1    0    0  502    0  0.00000000000E+00  0.00000000000E+00  0.36632704487E+03  0.36632704487E+03  0.00000000000E+00 0. -1.
         -2   -1    0    0    0  501 -0.00000000000E+00 -0.00000000000E+00 -0.18376638713E+03  0.18376638713E+03  0.00000000000E+00 0.  1.
          6    1    1    2  502    0  0.12030508354E+03 -0.15036065130E+03  0.11836863677E+03  0.28403656940E+03  0.17200000000E+03 0.  1.
         -6    1    1    2    0  501 -0.12030508354E+03  0.15036065130E+03  0.64192020969E+02  0.26605686261E+03  0.17200000000E+03 0. -1.
<mgrwt>
<rscale>  2 0.25819690E+03</rscale>
<asrwt>0</asrwt>
<pdfrwt beam="1">  1        2 0.91581760E-01 0.25819690E+03</pdfrwt>
<pdfrwt beam="2">  1       -2 0.45941597E-01 0.25819690E+03</pdfrwt>
<totfact> 0.23395556E+02</totfact>
</mgrwt>
</event>
<event>
 4    1  0.3889096E-001  0.1763187E+03  0.7546771E-02  0.1171414E+00
         -2   -1    0    0    0  501 -0.00000000000E+00  0.00000000000E+00  0.55543042003E+03  0.55543042003E+03  0.00000000000E+00 0.  1.
          2   -1    0    0  502    0  0.00000000000E+00 -0.00000000000E+00 -0.66062417224E+02  0.66062417224E+02  0.00000000000E+00 0. -1.
          6    1    1    2  502    0  0.25419418898E+02  0.29293776958E+02  0.12323490641E+03  0.21511651351E+03  0.17200000000E+03 0. -1.
         -6    1    1    2    0  501 -0.25419418898E+02 -0.29293776958E+02  0.36613309640E+03  0.40637632375E+03  0.17200000000E+03 0.  1.
<mgrwt>
<rscale>  2 0.17631867E+03</rscale>
<asrwt>0</asrwt>
<pdfrwt beam="1">  1        2 0.16515606E-01 0.17631867E+03</pdfrwt>
<pdfrwt beam="2">  1       -2 0.13885759E+00 0.17631867E+03</pdfrwt>
<totfact> 0.13533779E+02</totfact>
</mgrwt>
</event>
<event>
 4    1  0.3889096E-001  0.3450104E+03  0.7546771E-02  0.1064682E+00
         -2   -1    0    0    0  501 -0.00000000000E+00  0.00000000000E+00  0.13162154075E+03  0.13162154075E+03  0.00000000000E+00 0.  1.
          2   -1    0    0  502    0  0.00000000000E+00 -0.00000000000E+00 -0.11102107082E+04  0.11102107082E+04  0.00000000000E+00 0. -1.
          6    1    1    2  502    0 -0.24545725927E+03 -0.17087679212E+03 -0.22192294993E+03  0.41022181794E+03  0.17200000000E+03 0.  1.
         -6    1    1    2    0  501  0.24545725927E+03  0.17087679212E+03 -0.75666621755E+03  0.83161043103E+03  0.17200000000E+03 0. -1.
<mgrwt>
<rscale>  2 0.34501035E+03</rscale>
<asrwt>0</asrwt>
<pdfrwt beam="1">  1        2 0.27755267E+00 0.34501035E+03</pdfrwt>
<pdfrwt beam="2">  1       -2 0.32905386E-01 0.34501035E+03</pdfrwt>
<totfact> 0.80565230E+01</totfact>
</mgrwt>
</event>
<event>
 4    1  0.3889096E-001  0.1878186E+03  0.7546771E-02  0.1160444E+00
         -1   -1    0    0    0  501 -0.00000000000E+00  0.00000000000E+00  0.34453601264E+02  0.34453601264E+02  0.00000000000E+00 0. -1.
          1   -1    0    0  502    0  0.00000000000E+00 -0.00000000000E+00 -0.10473707902E+04  0.10473707902E+04  0.00000000000E+00 0.  1.
          6    1    1    2  502    0 -0.67858530316E+02 -0.32970612560E+02 -0.58749172908E+03  0.61678389503E+03  0.17200000000E+03 0.  1.
         -6    1    1    2    0  501  0.67858530316E+02  0.32970612560E+02 -0.42542545983E+03  0.46504049641E+03  0.17200000000E+03 0. -1.
<mgrwt>
<rscale>  2 0.18781864E+03</rscale>
<asrwt>0</asrwt>
<pdfrwt beam="1">  1        1 0.26184269E+00 0.18781864E+03</pdfrwt>
<pdfrwt beam="2">  1       -1 0.86134004E-02 0.18781864E+03</pdfrwt>
<totfact> 0.41174575E+02</totfact>
</mgrwt>
</event>
<event>
 4    1  0.3889096E-001  0.1854868E+03  0.7546771E-02  0.1162596E+00
          2   -1    0    0  502    0  0.00000000000E+00  0.00000000000E+00  0.50327397258E+02  0.50327397258E+02  0.00000000000E+00 0. -1.
         -2   -1    0    0    0  501 -0.00000000000E+00 -0.00000000000E+00 -0.68960588856E+03  0.68960588856E+03  0.00000000000E+00 0.  1.
          6    1    1    2  502    0 -0.44844803375E+02 -0.53012236900E+02 -0.35407725306E+03  0.39971997046E+03  0.17200000000E+03 0.  1.
         -6    1    1    2    0  501  0.44844803375E+02  0.53012236900E+02 -0.28520123824E+03  0.34021331536E+03  0.17200000000E+03 0.  1.
<mgrwt>
<rscale>  2 0.18548680E+03</rscale>
<asrwt>0</asrwt>
<pdfrwt beam="1">  1        2 0.12581850E-01 0.18548680E+03</pdfrwt>
<pdfrwt beam="2">  1       -2 0.17240147E+00 0.18548680E+03</pdfrwt>
<totfact> 0.10638696E+02</totfact>
</mgrwt>
</event>
<event>
 4    1  0.3889096E-001  0.2612860E+03  0.7546771E-02  0.1106373E+00
         -2   -1    0    0    0  501 -0.00000000000E+00  0.00000000000E+00  0.47713945601E+02  0.47713945601E+02  0.00000000000E+00 0.  1.
          2   -1    0    0  502    0  0.00000000000E+00 -0.00000000000E+00 -0.14830211544E+04  0.14830211544E+04  0.00000000000E+00 0. -1.
          6    1    1    2  502    0  0.19611970754E+03  0.14947602345E+02 -0.86123891775E+03  0.90000157997E+03  0.17200000000E+03 0. -1.
         -6    1    1    2    0  501 -0.19611970754E+03 -0.14947602345E+02 -0.57406829103E+03  0.63073352002E+03  0.17200000000E+03 0.  1.
<mgrwt>
<rscale>  2 0.26128599E+03</rscale>
<asrwt>0</asrwt>
<pdfrwt beam="1">  1        2 0.37075531E+00 0.26128599E+03</pdfrwt>
<pdfrwt beam="2">  1       -2 0.11928486E-01 0.26128599E+03</pdfrwt>
<totfact> 0.22550394E+02</totfact>
</mgrwt>
</event>
<event>
 4    1  0.3889096E-001  0.2652363E+03  0.7546771E-02  0.1104037E+00
          1   -1    0    0  502    0  0.00000000000E+00  0.00000000000E+00  0.14928787292E+03  0.14928787292E+03  0.00000000000E+00 0.  1.
         -1   -1    0    0    0  501 -0.00000000000E+00 -0.00000000000E+00 -0.58242642475E+03  0.58242642475E+03  0.00000000000E+00 0. -1.
          6    1    1    2  502    0 -0.20188010428E+03  0.32772403765E+01 -0.56717227205E+02  0.27123266889E+03  0.17200000000E+03 0.  1.
         -6    1    1    2    0  501  0.20188010428E+03 -0.32772403765E+01 -0.37642132463E+03  0.46048162878E+03  0.17200000000E+03 0. -1.
<mgrwt>
<rscale>  2 0.26523634E+03</rscale>
<asrwt>0</asrwt>
<pdfrwt beam="1">  1        1 0.37321968E-01 0.26523634E+03</pdfrwt>
<pdfrwt beam="2">  1       -1 0.14560661E+00 0.26523634E+03</pdfrwt>
<totfact> 0.47403367E+01</totfact>
</mgrwt>
</event>
<event>
 4    1  0.3889096E-001  0.2420309E+03  0.7546771E-02  0.1118447E+00
         -2   -1    0    0    0  501 -0.00000000000E+00  0.00000000000E+00  0.88176060570E+02  0.88176060570E+02  0.00000000000E+00 0.  1.
          2   -1    0    0  502    0  0.00000000000E+00 -0.00000000000E+00 -0.70764911016E+03  0.70764911016E+03  0.00000000000E+00 0. -1.
          6    1    1    2  502    0  0.10526137918E+03  0.13384696808E+03 -0.40817468885E+03  0.47453719078E+03  0.17200000000E+03 0. -1.
         -6    1    1    2    0  501 -0.10526137918E+03 -0.13384696808E+03 -0.21129836074E+03  0.32128797995E+03  0.17200000000E+03 0. -1.
<mgrwt>
<rscale>  2 0.24203093E+03</rscale>
<asrwt>0</asrwt>
<pdfrwt beam="1">  1        2 0.17691227E+00 0.24203093E+03</pdfrwt>
<pdfrwt beam="2">  1       -2 0.22044016E-01 0.24203093E+03</pdfrwt>
<totfact> 0.38293660E+02</totfact>
</mgrwt>
</event>
<event>
 4    1  0.3889096E-001  0.2411572E+03  0.7546771E-02  0.1119024E+00
         -2   -1    0    0    0  501 -0.00000000000E+00  0.00000000000E+00  0.14716751760E+03  0.14716751760E+03  0.00000000000E+00 0.  1.
          2   -1    0    0  502    0  0.00000000000E+00 -0.00000000000E+00 -0.51687846669E+03  0.51687846669E+03  0.00000000000E+00 0. -1.
          6    1    1    2  502    0 -0.16055526445E+03 -0.52865909579E+02 -0.34596712496E+03  0.42172271565E+03  0.17200000000E+03 0. -1.
         -6    1    1    2    0  501  0.16055526445E+03  0.52865909579E+02 -0.23743824128E+02  0.24232326864E+03  0.17200000000E+03 0.  1.
<mgrwt>
<rscale>  2 0.24115720E+03</rscale>
<asrwt>0</asrwt>
<pdfrwt beam="1">  1        2 0.12921962E+00 0.24115720E+03</pdfrwt>
<pdfrwt beam="2">  1       -2 0.36791880E-01 0.24115720E+03</pdfrwt>
<totfact> 0.23588395E+02</totfact>
</mgrwt>
</event>
<event>
 4    1  0.3889096E-001  0.2268273E+03  0.7546771E-02  0.1128893E+00
         -2   -1    0    0    0  501 -0.00000000000E+00  0.00000000000E+00  0.86548790759E+02  0.86548790759E+02  0.00000000000E+00 0.  1.
          2   -1    0    0  502    0  0.00000000000E+00 -0.00000000000E+00 -0.61951794664E+03  0.61951794664E+03  0.00000000000E+00 0. -1.
          6    1    1    2  502    0 -0.28525495475E+02 -0.14509631238E+03 -0.19549796304E+03  0.29944965739E+03  0.17200000000E+03 0. -1.
         -6    1    1    2    0  501  0.28525495475E+02  0.14509631238E+03 -0.33747119284E+03  0.40661708001E+03  0.17200000000E+03 0. -1.
<mgrwt>
<rscale>  2 0.22682734E+03</rscale>
<asrwt>0</asrwt>
<pdfrwt beam="1">  1        2 0.15487948E+00 0.22682734E+03</pdfrwt>
<pdfrwt beam="2">  1       -2 0.21637198E-01 0.22682734E+03</pdfrwt>
<totfact> 0.48154173E+02</totfact>
</mgrwt>
</event>
<event>
 4    1  0.3889096E-001  0.1752400E+03  0.7546771E-02  0.1172491E+00
         -2   -1    0    0    0  501 -0.00000000000E+00  0.00000000000E+00  0.16234880965E+03  0.16234880965E+03  0.00000000000E+00 0. -1.
          2   -1    0    0  502    0  0.00000000000E+00 -0.00000000000E+00 -0.18915884137E+03  0.18915884137E+03  0.00000000000E+00 0.  1.
          6    1    1    2  502    0  0.25274014416E+02 -0.22051920841E+02 -0.14213418548E+02  0.17581548363E+03  0.17200000000E+03 0.  1.
         -6    1    1    2    0  501 -0.25274014416E+02  0.22051920841E+02 -0.12596613174E+02  0.17569216739E+03  0.17200000000E+03 0.  1.
<mgrwt>
<rscale>  2 0.17524002E+03</rscale>
<asrwt>0</asrwt>
<pdfrwt beam="1">  1        2 0.47289710E-01 0.17524002E+03</pdfrwt>
<pdfrwt beam="2">  1       -2 0.40587202E-01 0.17524002E+03</pdfrwt>
<totfact> 0.61769928E+02</totfact>
</mgrwt>
</event>
<event>
 4    1  0.3889096E-001  0.3499319E+03  0.7546771E-02  0.1062643E+00
         -2   -1    0    0    0  501 -0.00000000000E+00  0.00000000000E+00  0.30413266414E+03  0.30413266414E+03  0.00000000000E+00 0. -1.
          2   -1    0    0  502    0  0.00000000000E+00 -0.00000000000E+00 -0.42872249169E+03  0.42872249169E+03  0.00000000000E+00 0.  1.
          6    1    1    2  502    0 -0.25566117872E+03 -0.16584830868E+03 -0.15269631532E+03  0.38179636524E+03  0.17200000000E+03 0. -1.
         -6    1    1    2    0  501  0.25566117872E+03  0.16584830868E+03  0.28106487758E+02  0.35105879059E+03  0.17200000000E+03 0.  1.
<mgrwt>
<rscale>  2 0.34993185E+03</rscale>
<asrwt>0</asrwt>
<pdfrwt beam="1">  1        2 0.10718062E+00 0.34993185E+03</pdfrwt>
<pdfrwt beam="2">  1       -2 0.76033166E-01 0.34993185E+03</pdfrwt>
<totfact> 0.67258714E+01</totfact>
</mgrwt>
</event>
<event>
 4    1  0.3889096E-001  0.2470126E+03  0.7546771E-02  0.1115207E+00
          1   -1    0    0  502    0  0.00000000000E+00  0.00000000000E+00  0.89259119482E+03  0.89259119482E+03  0.00000000000E+00 0.  1.
         -1   -1    0    0    0  501 -0.00000000000E+00 -0.00000000000E+00 -0.83499529280E+02  0.83499529280E+02  0.00000000000E+00 0. -1.
          6    1    1    2  502    0  0.16128050951E+03 -0.73619547216E+02  0.19671440784E+03  0.31577175101E+03  0.17200000000E+03 0. -1.
         -6    1    1    2    0  501 -0.16128050951E+03  0.73619547216E+02  0.61237725770E+03  0.66031897310E+03  0.17200000000E+03 0. -1.
<mgrwt>
<rscale>  2 0.24701263E+03</rscale>
<asrwt>0</asrwt>
<pdfrwt beam="1">  1        1 0.22314777E+00 0.24701263E+03</pdfrwt>
<pdfrwt beam="2">  1       -1 0.20874885E-01 0.24701263E+03</pdfrwt>
<totfact> 0.14715782E+02</totfact>
</mgrwt>
</event>
<event>
 4    1  0.3889096E-001  0.1880210E+03  0.7546771E-02  0.1160258E+00
         -1   -1    0    0    0  501 -0.00000000000E+00  0.00000000000E+00  0.42679263280E+02  0.42679263280E+02  0.00000000000E+00 0. -1.
          1   -1    0    0  502    0  0.00000000000E+00 -0.00000000000E+00 -0.82853861849E+03  0.82853861849E+03  0.00000000000E+00 0.  1.
          6    1    1    2  502    0 -0.67838401720E+02  0.34144479986E+02 -0.40007845771E+03  0.44205731143E+03  0.17200000000E+03 0. -1.
         -6    1    1    2    0  501  0.67838401720E+02 -0.34144479986E+02 -0.38578089749E+03  0.42916057034E+03  0.17200000000E+03 0.  1.
<mgrwt>
<rscale>  2 0.18802099E+03</rscale>
<asrwt>0</asrwt>
<pdfrwt beam="1">  1        1 0.20713466E+00 0.18802099E+03</pdfrwt>
<pdfrwt beam="2">  1       -1 0.10669816E-01 0.18802099E+03</pdfrwt>
<totfact> 0.50691689E+02</totfact>
</mgrwt>
</event>
<event>
 4    1  0.3889096E-001  0.1946584E+03  0.7546771E-02  0.1154326E+00
         -2   -1    0    0    0  501 -0.00000000000E+00  0.00000000000E+00  0.11713364337E+03  0.11713364337E+03  0.00000000000E+00 0.  1.
          2   -1    0    0  502    0  0.00000000000E+00 -0.00000000000E+00 -0.34886400295E+03  0.34886400295E+03  0.00000000000E+00 0. -1.
          6    1    1    2  502    0 -0.26075116606E+02  0.87338404448E+02 -0.17869919862E+03  0.26424479595E+03  0.17200000000E+03 0. -1.
         -6    1    1    2    0  501  0.26075116606E+02 -0.87338404448E+02 -0.53031160957E+02  0.20175285036E+03  0.17200000000E+03 0.  1.
<mgrwt>
<rscale>  2 0.19465844E+03</rscale>
<asrwt>0</asrwt>
<pdfrwt beam="1">  1        2 0.87216000E-01 0.19465844E+03</pdfrwt>
<pdfrwt beam="2">  1       -2 0.29283411E-01 0.19465844E+03</pdfrwt>
<totfact> 0.58023475E+02</totfact>
</mgrwt>
</event>
<event>
 4    1  0.3889096E-001  0.1791272E+03  0.7546771E-02  0.1168650E+00
         -2   -1    0    0    0  501 -0.00000000000E+00  0.00000000000E+00  0.17537108181E+04  0.17537108181E+04  0.00000000000E+00 0. -1.
          2   -1    0    0  502    0  0.00000000000E+00 -0.00000000000E+00 -0.20009455276E+02  0.20009455276E+02  0.00000000000E+00 0.  1.
          6    1    1    2  502    0  0.16287676879E+02  0.47299560104E+02  0.11263447099E+04  0.11404994267E+04  0.17200000000E+03 0. -1.
         -6    1    1    2    0  501 -0.16287676879E+02 -0.47299560104E+02  0.60735665296E+03  0.63322084670E+03  0.17200000000E+03 0.  1.
<mgrwt>
<rscale>  2 0.17912715E+03</rscale>
<asrwt>0</asrwt>
<pdfrwt beam="1">  1        2 0.50023698E-02 0.17912715E+03</pdfrwt>
<pdfrwt beam="2">  1       -2 0.43842718E+00 0.17912715E+03</pdfrwt>
<totfact> 0.82384475E+00</totfact>
</mgrwt>
</event>
<event>
 4    1  0.3889096E-001  0.2979163E+03  0.7546771E-02  0.1086287E+00
         -1   -1    0    0    0  501 -0.00000000000E+00  0.00000000000E+00  0.16475294166E+03  0.16475294166E+03  0.00000000000E+00 0. -1.
          1   -1    0    0  502    0  0.00000000000E+00 -0.00000000000E+00 -0.53960344669E+03  0.53960344669E+03  0.00000000000E+00 0.  1.
          6    1    1    2  502    0  0.24033253912E+03  0.37554938596E+02 -0.17309703414E+03  0.34455287838E+03  0.17200000000E+03 0. -1.
         -6    1    1    2    0  501 -0.24033253912E+03 -0.37554938596E+02 -0.20175347089E+03  0.35980350997E+03  0.17200000000E+03 0. -1.
<mgrwt>
<rscale>  2 0.29791627E+03</rscale>
<asrwt>0</asrwt>
<pdfrwt beam="1">  1        1 0.13490086E+00 0.29791627E+03</pdfrwt>
<pdfrwt beam="2">  1       -1 0.41188236E-01 0.29791627E+03</pdfrwt>
<totfact> 0.11758939E+02</totfact>
</mgrwt>
</event>
<event>
 4    1  0.3889096E-001  0.3443986E+03  0.7546771E-02  0.1064938E+00
         -1   -1    0    0    0  501 -0.00000000000E+00  0.00000000000E+00  0.28219108401E+03  0.28219108401E+03  0.00000000000E+00 0.  1.
          1   -1    0    0  502    0  0.00000000000E+00 -0.00000000000E+00 -0.42313166979E+03  0.42313166979E+03  0.00000000000E+00 0. -1.
          6    1    1    2  502    0  0.14151232699E+03  0.26267974494E+03 -0.99221006546E+02  0.35840646651E+03  0.17200000000E+03 0. -1.
         -6    1    1    2    0  501 -0.14151232699E+03 -0.26267974494E+03 -0.41719579234E+02  0.34691628729E+03  0.17200000000E+03 0.  1.
<mgrwt>
<rscale>  2 0.34439859E+03</rscale>
<asrwt>0</asrwt>
<pdfrwt beam="1">  1        1 0.10578292E+00 0.34439859E+03</pdfrwt>
<pdfrwt beam="2">  1       -1 0.70547771E-01 0.34439859E+03</pdfrwt>
<totfact> 0.61044978E+01</totfact>
</mgrwt>
</event>
<event>
 4    1  0.3889096E-001  0.1849693E+03  0.7546771E-02  0.1163079E+00
         -1   -1    0    0    0  501 -0.00000000000E+00  0.00000000000E+00  0.14702489858E+03  0.14702489858E+03  0.00000000000E+00 0.  1.
          1   -1    0    0  502    0  0.00000000000E+00 -0.00000000000E+00 -0.23481298292E+03  0.23481298292E+03  0.00000000000E+00 0. -1.
          6    1    1    2  502    0  0.23269724121E+02  0.63938619902E+02 -0.61977547947E+02  0.19507650711E+03  0.17200000000E+03 0. -1.
         -6    1    1    2    0  501 -0.23269724121E+02 -0.63938619902E+02 -0.25810536402E+02  0.18676137439E+03  0.17200000000E+03 0.  1.
<mgrwt>
<rscale>  2 0.18496926E+03</rscale>
<asrwt>0</asrwt>
<pdfrwt beam="1">  1        1 0.58703245E-01 0.18496926E+03</pdfrwt>
<pdfrwt beam="2">  1       -1 0.36756225E-01 0.18496926E+03</pdfrwt>
<totfact> 0.46648813E+02</totfact>
</mgrwt>
</event>
<event>
 4    1  0.3889096E-001  0.2265728E+03  0.7546771E-02  0.1129076E+00
         -2   -1    0    0    0  501 -0.00000000000E+00  0.00000000000E+00  0.65318516935E+02  0.65318516935E+02  0.00000000000E+00 0.  1.
          2   -1    0    0  502    0  0.00000000000E+00 -0.00000000000E+00 -0.78627422099E+03  0.78627422099E+03  0.00000000000E+00 0. -1.
          6    1    1    2  502    0  0.14480817360E+03  0.27960766003E+02 -0.35145644896E+03  0.41815887781E+03  0.17200000000E+03 0. -1.
         -6    1    1    2    0  501 -0.14480817360E+03 -0.27960766003E+02 -0.36949925510E+03  0.43343386012E+03  0.17200000000E+03 0.  1.
<mgrwt>
<rscale>  2 0.22657275E+03</rscale>
<asrwt>0</asrwt>
<pdfrwt beam="1">  1        2 0.19656855E+00 0.22657275E+03</pdfrwt>
<pdfrwt beam="2">  1       -2 0.16329630E-01 0.22657275E+03</pdfrwt>
<totfact> 0.54142743E+02</totfact>
</mgrwt>
</event>
<event>
 4    1  0.3889096E-001  0.2447733E+03  0.7546771E-02  0.1116653E+00
         -3   -1    0    0    0  501 -0.00000000000E+00  0.00000000000E+00  0.27035027786E+03  0.27035027786E+03  0.00000000000E+00 0.  1.
          3   -1    0    0  502    0  0.00000000000E+00 -0.00000000000E+00 -0.22214121959E+03  0.22214121959E+03  0.00000000000E+00 0. -1.
          6    1    1    2  502    0  0.11846230347E+03  0.12765837686E+03  0.36076804012E+02  0.24741769200E+03  0.17200000000E+03 0. -1.
         -6    1    1    2    0  501 -0.11846230347E+03 -0.12765837686E+03  0.12132254255E+02  0.24507380545E+03  0.17200000000E+03 0.  1.
<mgrwt>
<rscale>  2 0.24477332E+03</rscale>
<asrwt>0</asrwt>
<pdfrwt beam="1">  1        3 0.55535305E-01 0.24477332E+03</pdfrwt>
<pdfrwt beam="2">  1       -3 0.67587569E-01 0.24477332E+03</pdfrwt>
<totfact> 0.17090245E+01</totfact>
</mgrwt>
</event>
<event>
 4    1  0.3889096E-001  0.2476354E+03  0.7546771E-02  0.1114808E+00
          2   -1    0    0  502    0  0.00000000000E+00  0.00000000000E+00  0.45439373005E+03  0.45439373005E+03  0.00000000000E+00 0.  1.
         -2   -1    0    0    0  501 -0.00000000000E+00 -0.00000000000E+00 -0.13575640698E+03  0.13575640698E+03  0.00000000000E+00 0. -1.
          6    1    1    2  502    0 -0.54400989049E+02  0.16964614180E+03  0.18197217898E+03  0.30730628851E+03  0.17200000000E+03 0.  1.
         -6    1    1    2    0  501  0.54400989049E+02 -0.16964614180E+03  0.13666514409E+03  0.28284384852E+03  0.17200000000E+03 0.  1.
<mgrwt>
<rscale>  2 0.24763538E+03</rscale>
<asrwt>0</asrwt>
<pdfrwt beam="1">  1        2 0.11359843E+00 0.24763538E+03</pdfrwt>
<pdfrwt beam="2">  1       -2 0.33939103E-01 0.24763538E+03</pdfrwt>
<totfact> 0.32272663E+02</totfact>
</mgrwt>
</event>
<event>
 4    1  0.3889096E-001  0.2688885E+03  0.7546771E-02  0.1101917E+00
          1   -1    0    0  502    0  0.00000000000E+00  0.00000000000E+00  0.20948726084E+04  0.20948726084E+04  0.00000000000E+00 0.  1.
         -1   -1    0    0    0  501 -0.00000000000E+00 -0.00000000000E+00 -0.34987434675E+02  0.34987434675E+02  0.00000000000E+00 0. -1.
          6    1    1    2  502    0 -0.20541895134E+03  0.22805108712E+02  0.90597602315E+03  0.94503628135E+03  0.17200000000E+03 0. -1.
         -6    1    1    2    0  501  0.20541895134E+03 -0.22805108712E+02  0.11539091506E+04  0.11848237617E+04  0.17200000000E+03 0.  1.
<mgrwt>
<rscale>  2 0.26888849E+03</rscale>
<asrwt>0</asrwt>
<pdfrwt beam="1">  1        1 0.52371773E+00 0.26888849E+03</pdfrwt>
<pdfrwt beam="2">  1       -1 0.87468657E-02 0.26888849E+03</pdfrwt>
<totfact> 0.27840117E+01</totfact>
</mgrwt>
</event>
<event>
 4    1  0.3889096E-001  0.1786491E+03  0.7546771E-02  0.1169117E+00
         -1   -1    0    0    0  501 -0.00000000000E+00  0.00000000000E+00  0.35596700377E+02  0.35596700377E+02  0.00000000000E+00 0.  1.
          1   -1    0    0  502    0  0.00000000000E+00 -0.00000000000E+00 -0.93750049815E+03  0.93750049815E+03  0.00000000000E+00 0. -1.
          6    1    1    2  502    0  0.44893999453E+02 -0.17777284102E+02 -0.34930851497E+03  0.39234161345E+03  0.17200000000E+03 0.  1.
         -6    1    1    2    0  501 -0.44893999453E+02  0.17777284102E+02 -0.55259528281E+03  0.58075558508E+03  0.17200000000E+03 0. -1.
<mgrwt>
<rscale>  2 0.17864911E+03</rscale>
<asrwt>0</asrwt>
<pdfrwt beam="1">  1        1 0.23437513E+00 0.17864911E+03</pdfrwt>
<pdfrwt beam="2">  1       -1 0.88991748E-02 0.17864911E+03</pdfrwt>
<totfact> 0.51237337E+02</totfact>
</mgrwt>
</event>
<event>
 4    1  0.3889096E-001  0.1808874E+03  0.7546771E-02  0.1166947E+00
         -1   -1    0    0    0  501 -0.00000000000E+00  0.00000000000E+00  0.58874574303E+03  0.58874574303E+03  0.00000000000E+00 0.  1.
          1   -1    0    0  502    0  0.00000000000E+00 -0.00000000000E+00 -0.55627899470E+02  0.55627899470E+02  0.00000000000E+00 0. -1.
          6    1    1    2  502    0 -0.13850276613E+02  0.54262393324E+02  0.27638323061E+03  0.33031489166E+03  0.17200000000E+03 0. -1.
         -6    1    1    2    0  501  0.13850276613E+02 -0.54262393324E+02  0.25673461295E+03  0.31405875084E+03  0.17200000000E+03 0.  1.
<mgrwt>
<rscale>  2 0.18088736E+03</rscale>
<asrwt>0</asrwt>
<pdfrwt beam="1">  1        1 0.13906977E-01 0.18088736E+03</pdfrwt>
<pdfrwt beam="2">  1       -1 0.14718642E+00 0.18088736E+03</pdfrwt>
<totfact> 0.16579851E+02</totfact>
</mgrwt>
</event>
<event>
 4    1  0.3889096E-001  0.1784159E+03  0.7546771E-02  0.1169345E+00
          1   -1    0    0  502    0  0.00000000000E+00  0.00000000000E+00  0.75886669013E+03  0.75886669013E+03  0.00000000000E+00 0.  1.
         -1   -1    0    0    0  501 -0.00000000000E+00 -0.00000000000E+00 -0.73062270778E+02  0.73062270778E+02  0.00000000000E+00 0. -1.
          6    1    1    2  502    0  0.44868157127E+02 -0.15332931350E+02  0.61435594363E+03  0.63973859957E+03  0.17200000000E+03 0.  1.
         -6    1    1    2    0  501 -0.44868157127E+02  0.15332931350E+02  0.71448475721E+02  0.19219036134E+03  0.17200000000E+03 0. -1.
<mgrwt>
<rscale>  2 0.17841595E+03</rscale>
<asrwt>0</asrwt>
<pdfrwt beam="1">  1        1 0.18971665E+00 0.17841595E+03</pdfrwt>
<pdfrwt beam="2">  1       -1 0.18265570E-01 0.17841595E+03</pdfrwt>
<totfact> 0.26033943E+02</totfact>
</mgrwt>
</event>
<event>
 4    1  0.3889096E-001  0.1727256E+03  0.7546771E-02  0.1175035E+00
          1   -1    0    0  502    0  0.00000000000E+00  0.00000000000E+00  0.20717470433E+03  0.20717470433E+03  0.00000000000E+00 0.  1.
         -1   -1    0    0    0  501 -0.00000000000E+00 -0.00000000000E+00 -0.15706351681E+03  0.15706351681E+03  0.00000000000E+00 0. -1.
          6    1    1    2  502    0  0.10631577812E+02  0.11708751397E+02 -0.27457819229E+02  0.17489441713E+03  0.17200000000E+03 0. -1.
         -6    1    1    2    0  501 -0.10631577812E+02 -0.11708751397E+02  0.77569006750E+02  0.18934380400E+03  0.17200000000E+03 0.  1.
<mgrwt>
<rscale>  2 0.17272558E+03</rscale>
<asrwt>0</asrwt>
<pdfrwt beam="1">  1        1 0.51793676E-01 0.17272558E+03</pdfrwt>
<pdfrwt beam="2">  1       -1 0.39265879E-01 0.17272558E+03</pdfrwt>
<totfact> 0.48688906E+02</totfact>
</mgrwt>
</event>
<event>
 4    1  0.3889096E-001  0.3016052E+03  0.7546771E-02  0.1084441E+00
          1   -1    0    0  502    0  0.00000000000E+00  0.00000000000E+00  0.22733230279E+03  0.22733230279E+03  0.00000000000E+00 0. -1.
         -1   -1    0    0    0  501 -0.00000000000E+00 -0.00000000000E+00 -0.46679846153E+03  0.46679846153E+03  0.00000000000E+00 0.  1.
          6    1    1    2  502    0  0.13441908983E+03 -0.20811829378E+03  0.11414523445E+02  0.30182115112E+03  0.17200000000E+03 0. -1.
         -6    1    1    2    0  501 -0.13441908983E+03  0.20811829378E+03 -0.25088068219E+03  0.39230961320E+03  0.17200000000E+03 0.  1.
<mgrwt>
<rscale>  2 0.30160523E+03</rscale>
<asrwt>0</asrwt>
<pdfrwt beam="1">  1        1 0.56833076E-01 0.30160523E+03</pdfrwt>
<pdfrwt beam="2">  1       -1 0.11669961E+00 0.30160523E+03</pdfrwt>
<totfact> 0.47730613E+01</totfact>
</mgrwt>
</event>
<event>
 4    1  0.3889096E-001  0.3512342E+03  0.7546771E-02  0.1062110E+00
         -2   -1    0    0    0  501 -0.00000000000E+00  0.00000000000E+00  0.11833632357E+03  0.11833632357E+03  0.00000000000E+00 0. -1.
          2   -1    0    0  502    0  0.00000000000E+00 -0.00000000000E+00 -0.12946207421E+04  0.12946207421E+04  0.00000000000E+00 0.  1.
          6    1    1    2  502    0 -0.10900618751E+03  0.28618018612E+03 -0.89991141127E+03  0.96602587748E+03  0.17200000000E+03 0.  1.
         -6    1    1    2    0  501  0.10900618751E+03 -0.28618018612E+03 -0.27637300731E+03  0.44693118823E+03  0.17200000000E+03 0. -1.
<mgrwt>
<rscale>  2 0.35123418E+03</rscale>
<asrwt>0</asrwt>
<pdfrwt beam="1">  1        2 0.32365519E+00 0.35123418E+03</pdfrwt>
<pdfrwt beam="2">  1       -2 0.29584081E-01 0.35123418E+03</pdfrwt>
<totfact> 0.67837578E+01</totfact>
</mgrwt>
</event>
<event>
 4    1  0.3889096E-001  0.1875527E+03  0.7546771E-02  0.1160687E+00
          2   -1    0    0  502    0  0.00000000000E+00  0.00000000000E+00  0.78307524831E+03  0.78307524831E+03  0.00000000000E+00 0.  1.
         -2   -1    0    0    0  501 -0.00000000000E+00 -0.00000000000E+00 -0.49011906301E+02  0.49011906301E+02  0.00000000000E+00 0. -1.
          6    1    1    2  502    0 -0.28599975271E+02 -0.69094681624E+02  0.48723900816E+03  0.52208992011E+03  0.17200000000E+03 0. -1.
         -6    1    1    2    0  501  0.28599975271E+02  0.69094681624E+02  0.24682433385E+03  0.30999723450E+03  0.17200000000E+03 0. -1.
<mgrwt>
<rscale>  2 0.18755275E+03</rscale>
<asrwt>0</asrwt>
<pdfrwt beam="1">  1        2 0.19576877E+00 0.18755275E+03</pdfrwt>
<pdfrwt beam="2">  1       -2 0.12252979E-01 0.18755275E+03</pdfrwt>
<totfact> 0.87649649E+02</totfact>
</mgrwt>
</event>
<event>
 4    1  0.3889096E-001  0.2733471E+03  0.7546771E-02  0.1099379E+00
          2   -1    0    0  502    0  0.00000000000E+00  0.00000000000E+00  0.10561541164E+03  0.10561541164E+03  0.00000000000E+00 0. -1.
         -2   -1    0    0    0  501 -0.00000000000E+00 -0.00000000000E+00 -0.10831882510E+04  0.10831882510E+04  0.00000000000E+00 0.  1.
          6    1    1    2  502    0 -0.11693455908E+03 -0.17737239122E+03 -0.13870809751E+03  0.30652665886E+03  0.17200000000E+03 0. -1.
         -6    1    1    2    0  501  0.11693455908E+03  0.17737239122E+03 -0.83886474190E+03  0.88227700383E+03  0.17200000000E+03 0.  1.
<mgrwt>
<rscale>  2 0.27334714E+03</rscale>
<asrwt>0</asrwt>
<pdfrwt beam="1">  1        2 0.26403853E-01 0.27334714E+03</pdfrwt>
<pdfrwt beam="2">  1       -2 0.27079706E+00 0.27334714E+03</pdfrwt>
<totfact> 0.11002317E+01</totfact>
</mgrwt>
</event>
<event>
 4    1  0.3889096E-001  0.1933983E+03  0.7546771E-02  0.1155432E+00
         -1   -1    0    0    0  501 -0.00000000000E+00  0.00000000000E+00  0.62242784605E+02  0.62242784605E+02  0.00000000000E+00 0. -1.
          1   -1    0    0  502    0  0.00000000000E+00 -0.00000000000E+00 -0.97940590214E+03  0.97940590214E+03  0.00000000000E+00 0.  1.
          6    1    1    2  502    0 -0.68779073013E+02 -0.55572881689E+02 -0.78235038364E+03  0.80590013577E+03  0.17200000000E+03 0.  1.
         -6    1    1    2    0  501  0.68779073013E+02  0.55572881689E+02 -0.13481273390E+03  0.23574855097E+03  0.17200000000E+03 0. -1.
<mgrwt>
<rscale>  2 0.19339831E+03</rscale>
<asrwt>0</asrwt>
<pdfrwt beam="1">  1        1 0.24485147E+00 0.19339831E+03</pdfrwt>
<pdfrwt beam="2">  1       -1 0.15560697E-01 0.19339831E+03</pdfrwt>
<totfact> 0.19343035E+02</totfact>
</mgrwt>
</event>
<event>
 4    1  0.3889096E-001  0.1928708E+03  0.7546771E-02  0.1155897E+00
          1   -1    0    0  502    0  0.00000000000E+00  0.00000000000E+00  0.49574903926E+03  0.49574903926E+03  0.00000000000E+00 0. -1.
         -1   -1    0    0    0  501 -0.00000000000E+00 -0.00000000000E+00 -0.88330396966E+02  0.88330396966E+02  0.00000000000E+00 0.  1.
          6    1    1    2  502    0  0.83063692109E+02 -0.26749869130E+02  0.90412530535E+02  0.21301069955E+03  0.17200000000E+03 0.  1.
         -6    1    1    2    0  501 -0.83063692109E+02  0.26749869130E+02  0.31700611176E+03  0.37106873668E+03  0.17200000000E+03 0. -1.
<mgrwt>
<rscale>  2 0.19287077E+03</rscale>
<asrwt>0</asrwt>
<pdfrwt beam="1">  1        1 0.12393725E+00 0.19287077E+03</pdfrwt>
<pdfrwt beam="2">  1       -1 0.22082601E-01 0.19287077E+03</pdfrwt>
<totfact> 0.39626571E+02</totfact>
</mgrwt>
</event>
<event>
 4    1  0.3889096E-001  0.1803047E+03  0.7546771E-02  0.1167508E+00
         -2   -1    0    0    0  501 -0.00000000000E+00  0.00000000000E+00  0.21566995833E+03  0.21566995833E+03  0.00000000000E+00 0.  1.
          2   -1    0    0  502    0  0.00000000000E+00 -0.00000000000E+00 -0.32982828494E+03  0.32982828494E+03  0.00000000000E+00 0. -1.
          6    1    1    2  502    0 -0.53065743014E+02  0.10479321034E+02  0.14390169160E+03  0.23068915470E+03  0.17200000000E+03 0.  1.
         -6    1    1    2    0  501  0.53065743014E+02 -0.10479321034E+02 -0.25806001820E+03  0.31480908857E+03  0.17200000000E+03 0. -1.
<mgrwt>
<rscale>  2 0.18030471E+03</rscale>
<asrwt>0</asrwt>
<pdfrwt beam="1">  1        2 0.82457071E-01 0.18030471E+03</pdfrwt>
<pdfrwt beam="2">  1       -2 0.53917490E-01 0.18030471E+03</pdfrwt>
<totfact> 0.19342536E+02</totfact>
</mgrwt>
</event>
<event>
 4    1  0.3889096E-001  0.2099359E+03  0.7546771E-02  0.1141617E+00
         -2   -1    0    0    0  501 -0.00000000000E+00  0.00000000000E+00  0.92034204356E+02  0.92034204356E+02  0.00000000000E+00 0. -1.
          2   -1    0    0  502    0  0.00000000000E+00 -0.00000000000E+00 -0.51066161291E+03  0.51066161291E+03  0.00000000000E+00 0.  1.
          6    1    1    2  502    0  0.11887765178E+03  0.18899041568E+02 -0.28449496075E+03  0.35356817244E+03  0.17200000000E+03 0. -1.
         -6    1    1    2    0  501 -0.11887765178E+03 -0.18899041568E+02 -0.13413244780E+03  0.24912764483E+03  0.17200000000E+03 0.  1.
<mgrwt>
<rscale>  2 0.20993587E+03</rscale>
<asrwt>0</asrwt>
<pdfrwt beam="1">  1        2 0.12766540E+00 0.20993587E+03</pdfrwt>
<pdfrwt beam="2">  1       -2 0.23008552E-01 0.20993587E+03</pdfrwt>
<totfact> 0.56203761E+02</totfact>
</mgrwt>
</event>
<event>
 4    1  0.3889096E-001  0.2104396E+03  0.7546771E-02  0.1141218E+00
          2   -1    0    0  502    0  0.00000000000E+00  0.00000000000E+00  0.41142012497E+03  0.41142012497E+03  0.00000000000E+00 0.  1.
         -2   -1    0    0    0  501 -0.00000000000E+00 -0.00000000000E+00 -0.22383744514E+03  0.22383744514E+03  0.00000000000E+00 0. -1.
          6    1    1    2  502    0 -0.99910579485E+02  0.68692807345E+02 -0.13506015621E+03  0.25005213750E+03  0.17200000000E+03 0. -1.
         -6    1    1    2    0  501  0.99910579485E+02 -0.68692807345E+02  0.32264283603E+03  0.38520543261E+03  0.17200000000E+03 0.  1.
<mgrwt>
<rscale>  2 0.21043960E+03</rscale>
<asrwt>0</asrwt>
<pdfrwt beam="1">  1        2 0.10285503E+00 0.21043960E+03</pdfrwt>
<pdfrwt beam="2">  1       -2 0.55959362E-01 0.21043960E+03</pdfrwt>
<totfact> 0.13832310E+02</totfact>
</mgrwt>
</event>
<event>
 4    1  0.3889096E-001  0.2644458E+03  0.7546771E-02  0.1104501E+00
          1   -1    0    0  502    0  0.00000000000E+00  0.00000000000E+00  0.71647911949E+03  0.71647911949E+03  0.00000000000E+00 0.  1.
         -1   -1    0    0    0  501 -0.00000000000E+00 -0.00000000000E+00 -0.13171957074E+03  0.13171957074E+03  0.00000000000E+00 0. -1.
          6    1    1    2  502    0  0.17883161954E+03 -0.91470264533E+02  0.76547770856E+02  0.27530186825E+03  0.17200000000E+03 0. -1.
         -6    1    1    2    0  501 -0.17883161954E+03  0.91470264533E+02  0.50821177789E+03  0.57289682197E+03  0.17200000000E+03 0.  1.
<mgrwt>
<rscale>  2 0.26444576E+03</rscale>
<asrwt>0</asrwt>
<pdfrwt beam="1">  1        1 0.17911977E+00 0.26444576E+03</pdfrwt>
<pdfrwt beam="2">  1       -1 0.32929895E-01 0.26444576E+03</pdfrwt>
<totfact> 0.10700452E+02</totfact>
</mgrwt>
</event>
<event>
 4    1  0.3889096E-001  0.2962075E+03  0.7546771E-02  0.1087152E+00
         -1   -1    0    0    0  501 -0.00000000000E+00  0.00000000000E+00  0.27882107614E+03  0.27882107614E+03  0.00000000000E+00 0. -1.
          1   -1    0    0  502    0  0.00000000000E+00 -0.00000000000E+00 -0.97794478827E+03  0.97794478827E+03  0.00000000000E+00 0.  1.
          6    1    1    2  502    0  0.22678241650E+03 -0.82003847753E+02  0.16793926457E+03  0.34050329229E+03  0.17200000000E+03 0. -1.
         -6    1    1    2    0  501 -0.22678241650E+03  0.82003847753E+02 -0.86706297671E+03  0.91626257211E+03  0.17200000000E+03 0.  1.
<mgrwt>
<rscale>  2 0.29620752E+03</rscale>
<asrwt>0</asrwt>
<pdfrwt beam="1">  1        1 0.24448619E+00 0.29620752E+03</pdfrwt>
<pdfrwt beam="2">  1       -1 0.69705270E-01 0.29620752E+03</pdfrwt>
<totfact> 0.13618170E+01</totfact>
</mgrwt>
</event>
<event>
 4    1  0.3889096E-001  0.2192814E+03  0.7546771E-02  0.1134420E+00
          2   -1    0    0  502    0  0.00000000000E+00  0.00000000000E+00  0.21895437065E+03  0.21895437065E+03  0.00000000000E+00 0.  1.
         -2   -1    0    0    0  501 -0.00000000000E+00 -0.00000000000E+00 -0.39564476242E+03  0.39564476242E+03  0.00000000000E+00 0. -1.
          6    1    1    2  502    0 -0.17169183580E+02  0.13492786934E+03  0.11663406040E+03  0.24837031794E+03  0.17200000000E+03 0.  1.
         -6    1    1    2    0  501  0.17169183580E+02 -0.13492786934E+03 -0.29332445217E+03  0.36622881512E+03  0.17200000000E+03 0. -1.
<mgrwt>
<rscale>  2 0.21928135E+03</rscale>
<asrwt>0</asrwt>
<pdfrwt beam="1">  1        2 0.54738593E-01 0.21928135E+03</pdfrwt>
<pdfrwt beam="2">  1       -2 0.98911190E-01 0.21928135E+03</pdfrwt>
<totfact> 0.81234631E+01</totfact>
</mgrwt>
</event>
<event>
 4    1  0.3889096E-001  0.1743361E+03  0.7546771E-02  0.1173400E+00
         -1   -1    0    0    0  501 -0.00000000000E+00  0.00000000000E+00  0.10295860800E+03  0.10295860800E+03  0.00000000000E+00 0. -1.
          1   -1    0    0  502    0  0.00000000000E+00 -0.00000000000E+00 -0.29787228657E+03  0.29787228657E+03  0.00000000000E+00 0.  1.
          6    1    1    2  502    0 -0.19673144721E+02  0.20543395030E+02 -0.78463208133E+02  0.19117933657E+03  0.17200000000E+03 0.  1.
         -6    1    1    2    0  501  0.19673144721E+02 -0.20543395030E+02 -0.11645047044E+03  0.20965155799E+03  0.17200000000E+03 0.  1.
<mgrwt>
<rscale>  2 0.17433607E+03</rscale>
<asrwt>0</asrwt>
<pdfrwt beam="1">  1        1 0.74468071E-01 0.17433607E+03</pdfrwt>
<pdfrwt beam="2">  1       -1 0.25739652E-01 0.17433607E+03</pdfrwt>
<totfact> 0.62943708E+02</totfact>
</mgrwt>
</event>
<event>
 4    1  0.3889096E-001  0.2028144E+03  0.7546771E-02  0.1147386E+00
          1   -1    0    0  502    0  0.00000000000E+00  0.00000000000E+00  0.20298073115E+03  0.20298073115E+03  0.00000000000E+00 0.  1.
         -1   -1    0    0    0  501 -0.00000000000E+00 -0.00000000000E+00 -0.22536799399E+03  0.22536799399E+03  0.00000000000E+00 0. -1.
          6    1    1    2  502    0  0.10557872615E+03 -0.20070432586E+02 -0.79195851741E+02  0.21772843777E+03  0.17200000000E+03 0. -1.
         -6    1    1    2    0  501 -0.10557872615E+03  0.20070432586E+02  0.56808588899E+02  0.21062028737E+03  0.17200000000E+03 0.  1.
<mgrwt>
<rscale>  2 0.20281442E+03</rscale>
<asrwt>0</asrwt>
<pdfrwt beam="1">  1        1 0.50745183E-01 0.20281442E+03</pdfrwt>
<pdfrwt beam="2">  1       -1 0.56341998E-01 0.20281442E+03</pdfrwt>
<totfact> 0.25835987E+02</totfact>
</mgrwt>
</event>
<event>
 4    1  0.3889096E-001  0.1962334E+03  0.7546771E-02  0.1152956E+00
          1   -1    0    0  502    0  0.00000000000E+00  0.00000000000E+00  0.82099636043E+03  0.82099636043E+03  0.00000000000E+00 0. -1.
         -1   -1    0    0    0  501 -0.00000000000E+00 -0.00000000000E+00 -0.55120224405E+02  0.55120224405E+02  0.00000000000E+00 0.  1.
          6    1    1    2  502    0 -0.93549482676E+02 -0.13115888556E+02  0.21380518623E+03  0.29020714998E+03  0.17200000000E+03 0.  1.
         -6    1    1    2    0  501  0.93549482676E+02  0.13115888556E+02  0.55207094980E+03  0.58590943486E+03  0.17200000000E+03 0. -1.
<mgrwt>
<rscale>  2 0.19623336E+03</rscale>
<asrwt>0</asrwt>
<pdfrwt beam="1">  1        1 0.20524905E+00 0.19623336E+03</pdfrwt>
<pdfrwt beam="2">  1       -1 0.13780059E-01 0.19623336E+03</pdfrwt>
<totfact> 0.34635419E+02</totfact>
</mgrwt>
</event>
<event>
 4    1  0.3889096E-001  0.2403665E+03  0.7546771E-02  0.1119549E+00
          2   -1    0    0  502    0  0.00000000000E+00  0.00000000000E+00  0.12203549287E+04  0.12203549287E+04  0.00000000000E+00 0.  1.
         -2   -1    0    0    0  501 -0.00000000000E+00 -0.00000000000E+00 -0.60820130085E+02  0.60820130085E+02  0.00000000000E+00 0. -1.
          6    1    1    2  502    0 -0.20257850545E+02  0.16667832763E+03  0.88130619254E+03  0.91349693509E+03  0.17200000000E+03 0.  1.
         -6    1    1    2    0  501  0.20257850545E+02 -0.16667832763E+03  0.27822860611E+03  0.36767812373E+03  0.17200000000E+03 0. -1.
<mgrwt>
<rscale>  2 0.24036648E+03</rscale>
<asrwt>0</asrwt>
<pdfrwt beam="1">  1        2 0.30508865E+00 0.24036648E+03</pdfrwt>
<pdfrwt beam="2">  1       -2 0.15205036E-01 0.24036648E+03</pdfrwt>
<totfact> 0.25684933E+02</totfact>
</mgrwt>
</event>
<event>
 4    1  0.3889096E-001  0.2252139E+03  0.7546771E-02  0.1130054E+00
          2   -1    0    0  502    0  0.00000000000E+00  0.00000000000E+00  0.18030644930E+03  0.18030644930E+03  0.00000000000E+00 0.  1.
         -2   -1    0    0    0  501 -0.00000000000E+00 -0.00000000000E+00 -0.29736157781E+03  0.29736157781E+03  0.00000000000E+00 0. -1.
          6    1    1    2  502    0 -0.79461964743E+02 -0.12175017685E+03 -0.11402398411E+03  0.25243371082E+03  0.17200000000E+03 0. -1.
         -6    1    1    2    0  501  0.79461964743E+02  0.12175017685E+03 -0.30311443982E+01  0.22523431630E+03  0.17200000000E+03 0.  1.
<mgrwt>
<rscale>  2 0.22521392E+03</rscale>
<asrwt>0</asrwt>
<pdfrwt beam="1">  1        2 0.45076613E-01 0.22521392E+03</pdfrwt>
<pdfrwt beam="2">  1       -2 0.74340394E-01 0.22521392E+03</pdfrwt>
<totfact> 0.18977211E+02</totfact>
</mgrwt>
</event>
<event>
 4    1  0.3889096E-001  0.2000006E+03  0.7546771E-02  0.1149739E+00
         -1   -1    0    0    0  501 -0.00000000000E+00  0.00000000000E+00  0.59530734605E+02  0.59530734605E+02  0.00000000000E+00 0. -1.
          1   -1    0    0  502    0  0.00000000000E+00 -0.00000000000E+00 -0.69614669774E+03  0.69614669774E+03  0.00000000000E+00 0.  1.
          6    1    1    2  502    0 -0.10178484916E+03 -0.74883147062E+01 -0.24783021875E+03  0.31846514362E+03  0.17200000000E+03 0.  1.
         -6    1    1    2    0  501  0.10178484916E+03  0.74883147062E+01 -0.38878574438E+03  0.43721228872E+03  0.17200000000E+03 0.  1.
<mgrwt>
<rscale>  2 0.20000058E+03</rscale>
<asrwt>0</asrwt>
<pdfrwt beam="1">  1        1 0.17403667E+00 0.20000058E+03</pdfrwt>
<pdfrwt beam="2">  1       -1 0.14882684E-01 0.20000058E+03</pdfrwt>
<totfact> 0.42293885E+02</totfact>
</mgrwt>
</event>
<event>
 4    1  0.3889096E-001  0.1877469E+03  0.7546771E-02  0.1160509E+00
          1   -1    0    0  502    0  0.00000000000E+00  0.00000000000E+00  0.96563228393E+02  0.96563228393E+02  0.00000000000E+00 0. -1.
         -1   -1    0    0    0  501 -0.00000000000E+00 -0.00000000000E+00 -0.47458712945E+03  0.47458712945E+03  0.00000000000E+00 0.  1.
          6    1    1    2  502    0  0.55285432912E+02 -0.51072659079E+02 -0.32621828869E+03  0.37638712448E+03  0.17200000000E+03 0.  1.
         -6    1    1    2    0  501 -0.55285432912E+02  0.51072659079E+02 -0.51805612366E+02  0.19476323336E+03  0.17200000000E+03 0. -1.
<mgrwt>
<rscale>  2 0.18774689E+03</rscale>
<asrwt>0</asrwt>
<pdfrwt beam="1">  1        1 0.24140808E-01 0.18774689E+03</pdfrwt>
<pdfrwt beam="2">  1       -1 0.11864678E+00 0.18774689E+03</pdfrwt>
<totfact> 0.13840532E+02</totfact>
</mgrwt>
</event>
<event>
 4    1  0.3889096E-001  0.1758092E+03  0.7546771E-02  0.1171922E+00
         -3   -1    0    0    0  501 -0.00000000000E+00  0.00000000000E+00  0.33875425854E+02  0.33875425854E+02  0.00000000000E+00 0. -1.
          3   -1    0    0  502    0  0.00000000000E+00 -0.00000000000E+00 -0.11569485252E+04  0.11569485252E+04  0.00000000000E+00 0.  1.
          6    1    1    2  502    0  0.33006256081E+02 -0.15344617663E+02 -0.83526418652E+03  0.85356612604E+03  0.17200000000E+03 0.  1.
         -6    1    1    2    0  501 -0.33006256081E+02  0.15344617663E+02 -0.28780891280E+03  0.33725782499E+03  0.17200000000E+03 0. -1.
<mgrwt>
<rscale>  2 0.17580919E+03</rscale>
<asrwt>0</asrwt>
<pdfrwt beam="1">  1        3 0.28923711E+00 0.17580919E+03</pdfrwt>
<pdfrwt beam="2">  1       -3 0.84688571E-02 0.17580919E+03</pdfrwt>
<totfact> 0.12175739E+01</totfact>
</mgrwt>
</event>
<event>
 4    1  0.3889096E-001  0.2266798E+03  0.7546771E-02  0.1128999E+00
          3   -1    0    0  502    0  0.00000000000E+00  0.00000000000E+00  0.92118266654E+03  0.92118266654E+03  0.00000000000E+00 0. -1.
         -3   -1    0    0    0  501 -0.00000000000E+00 -0.00000000000E+00 -0.56130448165E+02  0.56130448165E+02  0.00000000000E+00 0.  1.
          6    1    1    2  502    0 -0.14503105474E+03  0.27671841325E+02  0.47112750418E+03  0.52282393101E+03  0.17200000000E+03 0. -1.
         -6    1    1    2    0  501  0.14503105474E+03 -0.27671841325E+02  0.39392471419E+03  0.45448918369E+03  0.17200000000E+03 0.  1.
<mgrwt>
<rscale>  2 0.22667981E+03</rscale>
<asrwt>0</asrwt>
<pdfrwt beam="1">  1        3 0.23029562E+00 0.22667981E+03</pdfrwt>
<pdfrwt beam="2">  1       -3 0.14032615E-01 0.22667981E+03</pdfrwt>
<totfact> 0.10950975E+01</totfact>
</mgrwt>
</event>
<event>
 4    1  0.3889096E-001  0.2391209E+03  0.7546771E-02  0.1120380E+00
         -2   -1    0    0    0  501 -0.00000000000E+00  0.00000000000E+00  0.24116957533E+03  0.24116957533E+03  0.00000000000E+00 0.  1.
          2   -1    0    0  502    0  0.00000000000E+00 -0.00000000000E+00 -0.25881372309E+03  0.25881372309E+03  0.00000000000E+00 0. -1.
          6    1    1    2  502    0 -0.11671926697E+03  0.11820080556E+03 -0.81249352584E+02  0.25254756980E+03  0.17200000000E+03 0.  1.
         -6    1    1    2    0  501  0.11671926697E+03 -0.11820080556E+03  0.63605204818E+02  0.24743572862E+03  0.17200000000E+03 0.  1.
<mgrwt>
<rscale>  2 0.23912093E+03</rscale>
<asrwt>0</asrwt>
<pdfrwt beam="1">  1        2 0.64703431E-01 0.23912093E+03</pdfrwt>
<pdfrwt beam="2">  1       -2 0.60292394E-01 0.23912093E+03</pdfrwt>
<totfact> 0.19997701E+02</totfact>
</mgrwt>
</event>
<event>
 4    1  0.3889096E-001  0.1877528E+03  0.7546771E-02  0.1160504E+00
          2   -1    0    0  502    0  0.00000000000E+00  0.00000000000E+00  0.11351641436E+04  0.11351641436E+04  0.00000000000E+00 0. -1.
         -2   -1    0    0    0  501 -0.00000000000E+00 -0.00000000000E+00 -0.31208555265E+02  0.31208555265E+02  0.00000000000E+00 0.  1.
          6    1    1    2  502    0  0.66928254692E+01  0.74982034844E+02  0.51090366157E+03  0.54431025240E+03  0.17200000000E+03 0.  1.
         -6    1    1    2    0  501 -0.66928254692E+01 -0.74982034844E+02  0.59305192676E+03  0.62206244646E+03  0.17200000000E+03 0. -1.
<mgrwt>
<rscale>  2 0.18775276E+03</rscale>
<asrwt>0</asrwt>
<pdfrwt beam="1">  1        2 0.28379090E+00 0.18775276E+03</pdfrwt>
<pdfrwt beam="2">  1       -2 0.78021426E-02 0.18775276E+03</pdfrwt>
<totfact> 0.89260828E+02</totfact>
</mgrwt>
</event>
<event>
 4    1  0.3889096E-001  0.2464960E+03  0.7546771E-02  0.1115540E+00
          2   -1    0    0  502    0  0.00000000000E+00  0.00000000000E+00  0.12575703824E+04  0.12575703824E+04  0.00000000000E+00 0. -1.
         -2   -1    0    0    0  501 -0.00000000000E+00 -0.00000000000E+00 -0.16591679832E+03  0.16591679832E+03  0.00000000000E+00 0.  1.
          6    1    1    2  502    0 -0.11790019865E+03  0.13143743602E+03 -0.53390414126E+02  0.25221180137E+03  0.17200000000E+03 0.  1.
         -6    1    1    2    0  501  0.11790019865E+03 -0.13143743602E+03  0.11450439982E+04  0.11712753793E+04  0.17200000000E+03 0. -1.
<mgrwt>
<rscale>  2 0.24649596E+03</rscale>
<asrwt>0</asrwt>
<pdfrwt beam="1">  1        2 0.31439257E+00 0.24649596E+03</pdfrwt>
<pdfrwt beam="2">  1       -2 0.41479203E-01 0.24649596E+03</pdfrwt>
<totfact> 0.40050231E+01</totfact>
</mgrwt>
</event>
<event>
 4    1  0.3889096E-001  0.2243590E+03  0.7546771E-02  0.1130674E+00
         -3   -1    0    0    0  501 -0.00000000000E+00  0.00000000000E+00  0.35853771601E+03  0.35853771601E+03  0.00000000000E+00 0. -1.
          3   -1    0    0  502    0  0.00000000000E+00 -0.00000000000E+00 -0.14164872706E+03  0.14164872706E+03  0.00000000000E+00 0.  1.
          6    1    1    2  502    0 -0.11333448988E+03  0.88928254707E+02  0.13197214230E+03  0.26029519286E+03  0.17200000000E+03 0. -1.
         -6    1    1    2    0  501  0.11333448988E+03 -0.88928254707E+02  0.84916846647E+02  0.23989125021E+03  0.17200000000E+03 0.  1.
<mgrwt>
<rscale>  2 0.22435896E+03</rscale>
<asrwt>0</asrwt>
<pdfrwt beam="1">  1        3 0.35412182E-01 0.22435896E+03</pdfrwt>
<pdfrwt beam="2">  1       -3 0.89634427E-01 0.22435896E+03</pdfrwt>
<totfact> 0.22383070E+01</totfact>
</mgrwt>
</event>
<event>
 4    1  0.3889096E-001  0.2072437E+03  0.7546771E-02  0.1143767E+00
         -2   -1    0    0    0  501 -0.00000000000E+00  0.00000000000E+00  0.23723232235E+02  0.23723232235E+02  0.00000000000E+00 0. -1.
          2   -1    0    0  502    0  0.00000000000E+00 -0.00000000000E+00 -0.18151851251E+04  0.18151851251E+04  0.00000000000E+00 0.  1.
          6    1    1    2  502    0 -0.11543154909E+03 -0.64434870777E+01 -0.94264253285E+03  0.96515537909E+03  0.17200000000E+03 0.  1.
         -6    1    1    2    0  501  0.11543154909E+03  0.64434870777E+01 -0.84881935997E+03  0.87375297820E+03  0.17200000000E+03 0. -1.
<mgrwt>
<rscale>  2 0.20724372E+03</rscale>
<asrwt>0</asrwt>
<pdfrwt beam="1">  1        2 0.45379625E+00 0.20724372E+03</pdfrwt>
<pdfrwt beam="2">  1       -2 0.59308085E-02 0.20724372E+03</pdfrwt>
<totfact> 0.34301700E+02</totfact>
</mgrwt>
</event>
<event>
 4    1  0.3889096E-001  0.2468619E+03  0.7546771E-02  0.1115304E+00
          2   -1    0    0  502    0  0.00000000000E+00  0.00000000000E+00  0.10004132502E+04  0.10004132502E+04  0.00000000000E+00 0. -1.
         -2   -1    0    0    0  501 -0.00000000000E+00 -0.00000000000E+00 -0.63034696905E+02  0.63034696905E+02  0.00000000000E+00 0.  1.
          6    1    1    2  502    0  0.12420187687E+03  0.12621677684E+03  0.56618173867E+03  0.61765892058E+03  0.17200000000E+03 0. -1.
         -6    1    1    2    0  501 -0.12420187687E+03 -0.12621677684E+03  0.37119681460E+03  0.44578902649E+03  0.17200000000E+03 0.  1.
<mgrwt>
<rscale>  2 0.24686187E+03</rscale>
<asrwt>0</asrwt>
<pdfrwt beam="1">  1        2 0.25010326E+00 0.24686187E+03</pdfrwt>
<pdfrwt beam="2">  1       -2 0.15758677E-01 0.24686187E+03</pdfrwt>
<totfact> 0.37206497E+02</totfact>
</mgrwt>
</event>
<event>
 4    1  0.3889096E-001  0.2529080E+03  0.7546771E-02  0.1111481E+00
          1   -1    0    0  502    0  0.00000000000E+00  0.00000000000E+00  0.10680564977E+04  0.10680564977E+04  0.00000000000E+00 0.  1.
         -1   -1    0    0    0  501 -0.00000000000E+00 -0.00000000000E+00 -0.77454686283E+02  0.77454686283E+02  0.00000000000E+00 0. -1.
          6    1    1    2  502    0 -0.57013468980E+02 -0.17643100881E+03  0.76807669138E+03  0.80864345688E+03  0.17200000000E+03 0.  1.
         -6    1    1    2    0  501  0.57013468980E+02  0.17643100881E+03  0.22252512004E+03  0.33686772710E+03  0.17200000000E+03 0. -1.
<mgrwt>
<rscale>  2 0.25290796E+03</rscale>
<asrwt>0</asrwt>
<pdfrwt beam="1">  1        1 0.26701408E+00 0.25290796E+03</pdfrwt>
<pdfrwt beam="2">  1       -1 0.19363675E-01 0.25290796E+03</pdfrwt>
<totfact> 0.10789149E+02</totfact>
</mgrwt>
</event>
<event>
 4    1  0.3889096E-001  0.2189152E+03  0.7546771E-02  0.1134694E+00
         -1   -1    0    0    0  501 -0.00000000000E+00  0.00000000000E+00  0.38209270877E+03  0.38209270877E+03  0.00000000000E+00 0.  1.
          1   -1    0    0  502    0  0.00000000000E+00 -0.00000000000E+00 -0.12828346214E+03  0.12828346214E+03  0.00000000000E+00 0. -1.
          6    1    1    2  502    0  0.12412959186E+03 -0.54145327721E+02  0.88810118294E+02  0.23624374955E+03  0.17200000000E+03 0. -1.
         -6    1    1    2    0  501 -0.12412959186E+03  0.54145327721E+02  0.16499912834E+03  0.27413242136E+03  0.17200000000E+03 0. -1.
<mgrwt>
<rscale>  2 0.21891522E+03</rscale>
<asrwt>0</asrwt>
<pdfrwt beam="1">  1        1 0.32070866E-01 0.21891522E+03</pdfrwt>
<pdfrwt beam="2">  1       -1 0.95523175E-01 0.21891522E+03</pdfrwt>
<totfact> 0.15740084E+02</totfact>
</mgrwt>
</event>
<event>
 4    1  0.3889096E-001  0.1753540E+03  0.7546771E-02  0.1172377E+00
          2   -1    0    0  502    0  0.00000000000E+00  0.00000000000E+00  0.27149232742E+04  0.27149232742E+04  0.00000000000E+00 0. -1.
         -2   -1    0    0    0  501 -0.00000000000E+00 -0.00000000000E+00 -0.13434988706E+02  0.13434988706E+02  0.00000000000E+00 0.  1.
          6    1    1    2  502    0 -0.21916401698E+02 -0.26166541402E+02  0.81024173934E+03  0.82899981467E+03  0.17200000000E+03 0.  1.
         -6    1    1    2    0  501  0.21916401698E+02  0.26166541402E+02  0.18912465461E+04  0.18993584482E+04  0.17200000000E+03 0. -1.
<mgrwt>
<rscale>  2 0.17535398E+03</rscale>
<asrwt>0</asrwt>
<pdfrwt beam="1">  1        2 0.67872894E+00 0.17535398E+03</pdfrwt>
<pdfrwt beam="2">  1       -2 0.33587565E-02 0.17535398E+03</pdfrwt>
<totfact> 0.77327487E+01</totfact>
</mgrwt>
</event>
<event>
 4    1  0.3889096E-001  0.1819987E+03  0.7546771E-02  0.1165883E+00
          2   -1    0    0  502    0  0.00000000000E+00  0.00000000000E+00  0.14918593891E+04  0.14918593891E+04  0.00000000000E+00 0.  1.
         -2   -1    0    0    0  501 -0.00000000000E+00 -0.00000000000E+00 -0.22258343401E+02  0.22258343401E+02  0.00000000000E+00 0. -1.
          6    1    1    2  502    0 -0.34114852830E+02  0.48741019842E+02  0.77260615054E+03  0.79375296790E+03  0.17200000000E+03 0.  1.
         -6    1    1    2    0  501  0.34114852830E+02 -0.48741019842E+02  0.69699489513E+03  0.72036476457E+03  0.17200000000E+03 0.  1.
<mgrwt>
<rscale>  2 0.18199865E+03</rscale>
<asrwt>0</asrwt>
<pdfrwt beam="1">  1        2 0.37296451E+00 0.18199865E+03</pdfrwt>
<pdfrwt beam="2">  1       -2 0.55645909E-02 0.18199865E+03</pdfrwt>
<totfact> 0.74691025E+02</totfact>
</mgrwt>
</event>
<event>
 4    1  0.3889096E-001  0.1937046E+03  0.7546771E-02  0.1155162E+00
          2   -1    0    0  502    0  0.00000000000E+00  0.00000000000E+00  0.69550230885E+03  0.69550230885E+03  0.00000000000E+00 0. -1.
         -2   -1    0    0    0  501 -0.00000000000E+00 -0.00000000000E+00 -0.64544565547E+02  0.64544565547E+02  0.00000000000E+00 0.  1.
          6    1    1    2  502    0 -0.19276801332E+00 -0.89092230851E+02  0.16150456788E+03  0.25220069033E+03  0.17200000000E+03 0.  1.
         -6    1    1    2    0  501  0.19276801332E+00  0.89092230851E+02  0.46945317542E+03  0.50784618406E+03  0.17200000000E+03 0. -1.
<mgrwt>
<rscale>  2 0.19370458E+03</rscale>
<asrwt>0</asrwt>
<pdfrwt beam="1">  1        2 0.17387555E+00 0.19370458E+03</pdfrwt>
<pdfrwt beam="2">  1       -2 0.16136144E-01 0.19370458E+03</pdfrwt>
<totfact> 0.67130136E+02</totfact>
</mgrwt>
</event>
<event>
 4    1  0.3889096E-001  0.2446136E+03  0.7546771E-02  0.1116757E+00
         -2   -1    0    0    0  501 -0.00000000000E+00  0.00000000000E+00  0.71776779978E+02  0.71776779978E+02  0.00000000000E+00 0. -1.
          2   -1    0    0  502    0  0.00000000000E+00 -0.00000000000E+00 -0.85546701199E+03  0.85546701199E+03  0.00000000000E+00 0.  1.
          6    1    1    2  502    0  0.16604459731E+03  0.51778236589E+02 -0.31778450755E+03  0.40102716532E+03  0.17200000000E+03 0.  1.
         -6    1    1    2    0  501 -0.16604459731E+03 -0.51778236589E+02 -0.46590572446E+03  0.52621662665E+03  0.17200000000E+03 0.  1.
<mgrwt>
<rscale>  2 0.24461356E+03</rscale>
<asrwt>0</asrwt>
<pdfrwt beam="1">  1        2 0.21386676E+00 0.24461356E+03</pdfrwt>
<pdfrwt beam="2">  1       -2 0.17944195E-01 0.24461356E+03</pdfrwt>
<totfact> 0.39997729E+02</totfact>
</mgrwt>
</event>
<event>
 4    1  0.3889096E-001  0.2200417E+03  0.7546771E-02  0.1133852E+00
          2   -1    0    0  502    0  0.00000000000E+00  0.00000000000E+00  0.85956131502E+02  0.85956131502E+02  0.00000000000E+00 0. -1.
         -2   -1    0    0    0  501 -0.00000000000E+00 -0.00000000000E+00 -0.56332490579E+03  0.56332490579E+03  0.00000000000E+00 0.  1.
          6    1    1    2  502    0 -0.26325540348E+02  0.13468977838E+03 -0.23618974928E+03  0.32280639421E+03  0.17200000000E+03 0. -1.
         -6    1    1    2    0  501  0.26325540348E+02 -0.13468977838E+03 -0.24117902501E+03  0.32647464309E+03  0.17200000000E+03 0. -1.
<mgrwt>
<rscale>  2 0.22004175E+03</rscale>
<asrwt>0</asrwt>
<pdfrwt beam="1">  1        2 0.21489033E-01 0.22004175E+03</pdfrwt>
<pdfrwt beam="2">  1       -2 0.14083122E+00 0.22004175E+03</pdfrwt>
<totfact> 0.96171857E+01</totfact>
</mgrwt>
</event>
<event>
 4    1  0.3889096E-001  0.1785783E+03  0.7546771E-02  0.1169186E+00
         -2   -1    0    0    0  501 -0.00000000000E+00  0.00000000000E+00  0.66754199462E+03  0.66754199462E+03  0.00000000000E+00 0.  1.
          2   -1    0    0  502    0  0.00000000000E+00 -0.00000000000E+00 -0.67061643356E+02  0.67061643356E+02  0.00000000000E+00 0. -1.
          6    1    1    2  502    0 -0.48012963416E+02 -0.98157611156E+00  0.49722894723E+03  0.52832455377E+03  0.17200000000E+03 0.  1.
         -6    1    1    2    0  501  0.48012963416E+02  0.98157611156E+00  0.10325140403E+03  0.20627908421E+03  0.17200000000E+03 0. -1.
<mgrwt>
<rscale>  2 0.17857830E+03</rscale>
<asrwt>0</asrwt>
<pdfrwt beam="1">  1        2 0.16765413E-01 0.17857830E+03</pdfrwt>
<pdfrwt beam="2">  1       -2 0.16688548E+00 0.17857830E+03</pdfrwt>
<totfact> 0.82660305E+01</totfact>
</mgrwt>
</event>
<event>
 4    1  0.3889096E-001  0.2109253E+03  0.7546771E-02  0.1140835E+00
          2   -1    0    0  502    0  0.00000000000E+00  0.00000000000E+00  0.65474101481E+03  0.65474101481E+03  0.00000000000E+00 0.  1.
         -2   -1    0    0    0  501 -0.00000000000E+00 -0.00000000000E+00 -0.11113440133E+03  0.11113440133E+03  0.00000000000E+00 0. -1.
          6    1    1    2  502    0  0.87597648932E+02  0.85042051029E+02  0.33094464551E+02  0.21350583628E+03  0.17200000000E+03 0.  1.
         -6    1    1    2    0  501 -0.87597648932E+02 -0.85042051029E+02  0.51051214894E+03  0.55236957986E+03  0.17200000000E+03 0.  1.
<mgrwt>
<rscale>  2 0.21092534E+03</rscale>
<asrwt>0</asrwt>
<pdfrwt beam="1">  1        2 0.16368524E+00 0.21092534E+03</pdfrwt>
<pdfrwt beam="2">  1       -2 0.27783602E-01 0.21092534E+03</pdfrwt>
<totfact> 0.28718368E+02</totfact>
</mgrwt>
</event>
<event>
 4    1  0.3889096E-001  0.2036522E+03  0.7546771E-02  0.1146694E+00
         -1   -1    0    0    0  501 -0.00000000000E+00  0.00000000000E+00  0.44761072983E+02  0.44761072983E+02  0.00000000000E+00 0. -1.
          1   -1    0    0  502    0  0.00000000000E+00 -0.00000000000E+00 -0.11218415529E+04  0.11218415529E+04  0.00000000000E+00 0.  1.
          6    1    1    2  502    0 -0.10406278850E+03  0.32575266133E+02 -0.78189960365E+03  0.80798589227E+03  0.17200000000E+03 0.  1.
         -6    1    1    2    0  501  0.10406278850E+03 -0.32575266133E+02 -0.29518087626E+03  0.35861673361E+03  0.17200000000E+03 0.  1.
<mgrwt>
<rscale>  2 0.20365218E+03</rscale>
<asrwt>0</asrwt>
<pdfrwt beam="1">  1        1 0.28046038E+00 0.20365218E+03</pdfrwt>
<pdfrwt beam="2">  1       -1 0.11190269E-01 0.20365218E+03</pdfrwt>
<totfact> 0.22910368E+02</totfact>
</mgrwt>
</event>
<event>
 4    1  0.3889096E-001  0.1935754E+03  0.7546771E-02  0.1155276E+00
         -1   -1    0    0    0  501 -0.00000000000E+00  0.00000000000E+00  0.16779020630E+03  0.16779020630E+03  0.00000000000E+00 0.  1.
          1   -1    0    0  502    0  0.00000000000E+00 -0.00000000000E+00 -0.24685197942E+03  0.24685197942E+03  0.00000000000E+00 0. -1.
          6    1    1    2  502    0 -0.46753000103E+02  0.75508928339E+02 -0.10353754140E+03  0.21952554238E+03  0.17200000000E+03 0. -1.
         -6    1    1    2    0  501  0.46753000103E+02 -0.75508928339E+02  0.24475768282E+02  0.19511664335E+03  0.17200000000E+03 0. -1.
<mgrwt>
<rscale>  2 0.19357541E+03</rscale>
<asrwt>0</asrwt>
<pdfrwt beam="1">  1        1 0.61712995E-01 0.19357541E+03</pdfrwt>
<pdfrwt beam="2">  1       -1 0.41947552E-01 0.19357541E+03</pdfrwt>
<totfact> 0.34666281E+02</totfact>
</mgrwt>
</event>
<event>
 4    1  0.3889096E-001  0.1760805E+03  0.7546771E-02  0.1171651E+00
          1   -1    0    0  502    0  0.00000000000E+00  0.00000000000E+00  0.30239681221E+03  0.30239681221E+03  0.00000000000E+00 0. -1.
         -1   -1    0    0    0  501 -0.00000000000E+00 -0.00000000000E+00 -0.15968735443E+03  0.15968735443E+03  0.00000000000E+00 0.  1.
          6    1    1    2  502    0 -0.16474234991E+02  0.33896030008E+02  0.20958302753E+03  0.27373232673E+03  0.17200000000E+03 0. -1.
         -6    1    1    2    0  501  0.16474234991E+02 -0.33896030008E+02 -0.66873569743E+02  0.18835183991E+03  0.17200000000E+03 0.  1.
<mgrwt>
<rscale>  2 0.17608050E+03</rscale>
<asrwt>0</asrwt>
<pdfrwt beam="1">  1        1 0.75599202E-01 0.17608050E+03</pdfrwt>
<pdfrwt beam="2">  1       -1 0.39921839E-01 0.17608050E+03</pdfrwt>
<totfact> 0.29168843E+02</totfact>
</mgrwt>
</event>
<event>
 4    1  0.3889096E-001  0.2235416E+03  0.7546771E-02  0.1131270E+00
          1   -1    0    0  502    0  0.00000000000E+00  0.00000000000E+00  0.11059894560E+04  0.11059894560E+04  0.00000000000E+00 0.  1.
         -1   -1    0    0    0  501 -0.00000000000E+00 -0.00000000000E+00 -0.55686278382E+02  0.55686278382E+02  0.00000000000E+00 0. -1.
          6    1    1    2  502    0  0.14775789647E+02 -0.14201597912E+03  0.77742011144E+03  0.80892081933E+03  0.17200000000E+03 0. -1.
         -6    1    1    2    0  501 -0.14775789647E+02  0.14201597912E+03  0.27288306619E+03  0.35275491506E+03  0.17200000000E+03 0.  1.
<mgrwt>
<rscale>  2 0.22354163E+03</rscale>
<asrwt>0</asrwt>
<pdfrwt beam="1">  1        1 0.27649729E+00 0.22354163E+03</pdfrwt>
<pdfrwt beam="2">  1       -1 0.13921573E-01 0.22354163E+03</pdfrwt>
<totfact> 0.16822995E+02</totfact>
</mgrwt>
</event>
<event>
 4    1  0.3889096E-001  0.1999492E+03  0.7546771E-02  0.1149782E+00
         -1   -1    0    0    0  501 -0.00000000000E+00  0.00000000000E+00  0.49418943356E+02  0.49418943356E+02  0.00000000000E+00 0. -1.
          1   -1    0    0  502    0  0.00000000000E+00 -0.00000000000E+00 -0.89137438835E+03  0.89137438835E+03  0.00000000000E+00 0.  1.
          6    1    1    2  502    0  0.10081526092E+03 -0.15230095899E+02 -0.27797518957E+03  0.34241769620E+03  0.17200000000E+03 0. -1.
         -6    1    1    2    0  501 -0.10081526092E+03  0.15230095899E+02 -0.56398025542E+03  0.59837563550E+03  0.17200000000E+03 0.  1.
<mgrwt>
<rscale>  2 0.19994918E+03</rscale>
<asrwt>0</asrwt>
<pdfrwt beam="1">  1        1 0.22284359E+00 0.19994918E+03</pdfrwt>
<pdfrwt beam="2">  1       -1 0.12354736E-01 0.19994918E+03</pdfrwt>
<totfact> 0.34450466E+02</totfact>
</mgrwt>
</event>
<event>
 4    1  0.3889096E-001  0.2112840E+03  0.7546771E-02  0.1140553E+00
         -1   -1    0    0    0  501 -0.00000000000E+00  0.00000000000E+00  0.12021491613E+03  0.12021491613E+03  0.00000000000E+00 0.  1.
          1   -1    0    0  502    0  0.00000000000E+00 -0.00000000000E+00 -0.42687430830E+03  0.42687430830E+03  0.00000000000E+00 0. -1.
          6    1    1    2  502    0 -0.15697588084E+02  0.12169850141E+03 -0.25199126625E+03  0.32884728641E+03  0.17200000000E+03 0.  1.
         -6    1    1    2    0  501  0.15697588084E+02 -0.12169850141E+03 -0.54668125924E+02  0.21824193801E+03  0.17200000000E+03 0.  1.
<mgrwt>
<rscale>  2 0.21128403E+03</rscale>
<asrwt>0</asrwt>
<pdfrwt beam="1">  1        1 0.10671858E+00 0.21128403E+03</pdfrwt>
<pdfrwt beam="2">  1       -1 0.30053729E-01 0.21128403E+03</pdfrwt>
<totfact> 0.29558502E+02</totfact>
</mgrwt>
</event>
<event>
 4    1  0.3889096E-001  0.1851795E+03  0.7546771E-02  0.1162882E+00
          2   -1    0    0  502    0  0.00000000000E+00  0.00000000000E+00  0.15388101644E+04  0.15388101644E+04  0.00000000000E+00 0.  1.
         -2   -1    0    0    0  501 -0.00000000000E+00 -0.00000000000E+00 -0.24131928894E+02  0.24131928894E+02  0.00000000000E+00 0. -1.
          6    1    1    2  502    0  0.50537596134E+02 -0.46404547920E+02  0.54110967674E+03  0.57191879926E+03  0.17200000000E+03 0. -1.
         -6    1    1    2    0  501 -0.50537596134E+02  0.46404547920E+02  0.97356855878E+03  0.99102329404E+03  0.17200000000E+03 0.  1.
<mgrwt>
<rscale>  2 0.18517946E+03</rscale>
<asrwt>0</asrwt>
<pdfrwt beam="1">  1        2 0.38470221E+00 0.18517946E+03</pdfrwt>
<pdfrwt beam="2">  1       -2 0.60329874E-02 0.18517946E+03</pdfrwt>
<totfact> 0.60029269E+02</totfact>
</mgrwt>
</event>
<event>
 4    1  0.3889096E-001  0.2134542E+03  0.7546771E-02  0.1138859E+00
         -1   -1    0    0    0  501 -0.00000000000E+00  0.00000000000E+00  0.11748776883E+03  0.11748776883E+03  0.00000000000E+00 0. -1.
          1   -1    0    0  502    0  0.00000000000E+00 -0.00000000000E+00 -0.63802938368E+03  0.63802938368E+03  0.00000000000E+00 0.  1.
          6    1    1    2  502    0 -0.97900312379E+02 -0.79963928644E+02 -0.23702713285E+02  0.21476619768E+03  0.17200000000E+03 0. -1.
         -6    1    1    2    0  501  0.97900312379E+02  0.79963928644E+02 -0.49683890156E+03  0.54075095483E+03  0.17200000000E+03 0.  1.
<mgrwt>
<rscale>  2 0.21345421E+03</rscale>
<asrwt>0</asrwt>
<pdfrwt beam="1">  1        1 0.15950734E+00 0.21345421E+03</pdfrwt>
<pdfrwt beam="2">  1       -1 0.29371943E-01 0.21345421E+03</pdfrwt>
<totfact> 0.16268930E+02</totfact>
</mgrwt>
</event>
<event>
 4    1  0.3889096E-001  0.2352591E+03  0.7546771E-02  0.1122992E+00
         -1   -1    0    0    0  501 -0.00000000000E+00  0.00000000000E+00  0.15471876896E+03  0.15471876896E+03  0.00000000000E+00 0.  1.
          1   -1    0    0  502    0  0.00000000000E+00 -0.00000000000E+00 -0.41891801382E+03  0.41891801382E+03  0.00000000000E+00 0. -1.
          6    1    1    2  502    0 -0.80037691269E+02  0.13912873839E+03 -0.22479096829E+02  0.23633058978E+03  0.17200000000E+03 0. -1.
         -6    1    1    2    0  501  0.80037691269E+02 -0.13912873839E+03 -0.24172014803E+03  0.33730619300E+03  0.17200000000E+03 0. -1.
<mgrwt>
<rscale>  2 0.23525909E+03</rscale>
<asrwt>0</asrwt>
<pdfrwt beam="1">  1        1 0.10472950E+00 0.23525909E+03</pdfrwt>
<pdfrwt beam="2">  1       -1 0.38679693E-01 0.23525909E+03</pdfrwt>
<totfact> 0.19556364E+02</totfact>
</mgrwt>
</event>
<event>
 4    1  0.3889096E-001  0.1855834E+03  0.7546771E-02  0.1162506E+00
          2   -1    0    0  502    0  0.00000000000E+00  0.00000000000E+00  0.87181541683E+03  0.87181541683E+03  0.00000000000E+00 0. -1.
         -2   -1    0    0    0  501 -0.00000000000E+00 -0.00000000000E+00 -0.41414077349E+02  0.41414077349E+02  0.00000000000E+00 0.  1.
          6    1    1    2  502    0  0.33833119088E+02  0.60930508774E+02  0.51323305966E+03  0.54575578822E+03  0.17200000000E+03 0. -1.
         -6    1    1    2    0  501 -0.33833119088E+02 -0.60930508774E+02  0.31716827982E+03  0.36747370596E+03  0.17200000000E+03 0. -1.
<mgrwt>
<rscale>  2 0.18558342E+03</rscale>
<asrwt>0</asrwt>
<pdfrwt beam="1">  1        2 0.21795379E+00 0.18558342E+03</pdfrwt>
<pdfrwt beam="2">  1       -2 0.10353522E-01 0.18558342E+03</pdfrwt>
<totfact> 0.95873699E+02</totfact>
</mgrwt>
</event>
<event>
 4    1  0.3889096E-001  0.1766049E+03  0.7546771E-02  0.1171130E+00
          2   -1    0    0  502    0  0.00000000000E+00  0.00000000000E+00  0.59088131792E+03  0.59088131792E+03  0.00000000000E+00 0. -1.
         -2   -1    0    0    0  501 -0.00000000000E+00 -0.00000000000E+00 -0.84434821046E+02  0.84434821046E+02  0.00000000000E+00 0.  1.
          6    1    1    2  502    0  0.33807126293E+02  0.21503024098E+02  0.46491942556E+02  0.18262202101E+03  0.17200000000E+03 0.  1.
         -6    1    1    2    0  501 -0.33807126293E+02 -0.21503024098E+02  0.45995455432E+03  0.49269411796E+03  0.17200000000E+03 0. -1.
<mgrwt>
<rscale>  2 0.17660493E+03</rscale>
<asrwt>0</asrwt>
<pdfrwt beam="1">  1        2 0.14772032E+00 0.17660493E+03</pdfrwt>
<pdfrwt beam="2">  1       -2 0.21108707E-01 0.17660493E+03</pdfrwt>
<totfact> 0.53934364E+02</totfact>
</mgrwt>
</event>
<event>
 4    1  0.3889096E-001  0.1797703E+03  0.7546771E-02  0.1168026E+00
         -1   -1    0    0    0  501 -0.00000000000E+00  0.00000000000E+00  0.24435075590E+03  0.24435075590E+03  0.00000000000E+00 0.  1.
          1   -1    0    0  502    0  0.00000000000E+00 -0.00000000000E+00 -0.25403657905E+03  0.25403657905E+03  0.00000000000E+00 0. -1.
          6    1    1    2  502    0  0.26611008508E+02  0.45002401749E+02  0.16769088603E+03  0.24584058899E+03  0.17200000000E+03 0.  1.
         -6    1    1    2    0  501 -0.26611008508E+02 -0.45002401749E+02 -0.17737670917E+03  0.25254674596E+03  0.17200000000E+03 0. -1.
<mgrwt>
<rscale>  2 0.17977030E+03</rscale>
<asrwt>0</asrwt>
<pdfrwt beam="1">  1        1 0.63509145E-01 0.17977030E+03</pdfrwt>
<pdfrwt beam="2">  1       -1 0.61087689E-01 0.17977030E+03</pdfrwt>
<totfact> 0.16723828E+02</totfact>
</mgrwt>
</event>
<event>
 4    1  0.3889096E-001  0.2847343E+03  0.7546771E-02  0.1093131E+00
         -1   -1    0    0    0  501 -0.00000000000E+00  0.00000000000E+00  0.20719650010E+03  0.20719650010E+03  0.00000000000E+00 0.  1.
          1   -1    0    0  502    0  0.00000000000E+00 -0.00000000000E+00 -0.39515815072E+03  0.39515815072E+03  0.00000000000E+00 0. -1.
          6    1    1    2  502    0  0.22181099813E+03  0.47848789287E+02 -0.12378436605E+03  0.31047736602E+03  0.17200000000E+03 0.  1.
         -6    1    1    2    0  501 -0.22181099813E+03 -0.47848789287E+02 -0.64177284563E+02  0.29187728480E+03  0.17200000000E+03 0. -1.
<mgrwt>
<rscale>  2 0.28473431E+03</rscale>
<asrwt>0</asrwt>
<pdfrwt beam="1">  1        1 0.98789537E-01 0.28473431E+03</pdfrwt>
<pdfrwt beam="2">  1       -1 0.51799125E-01 0.28473431E+03</pdfrwt>
<totfact> 0.12408637E+02</totfact>
</mgrwt>
</event>
<event>
 4    1  0.3889096E-001  0.3053899E+03  0.7546771E-02  0.1082577E+00
          2   -1    0    0  502    0  0.00000000000E+00  0.00000000000E+00  0.53487373000E+03  0.53487373000E+03  0.00000000000E+00 0.  1.
         -2   -1    0    0    0  501 -0.00000000000E+00 -0.00000000000E+00 -0.18128328553E+03  0.18128328553E+03  0.00000000000E+00 0. -1.
          6    1    1    2  502    0  0.22807780876E+03  0.10797923133E+03  0.24674940326E+03  0.39261720448E+03  0.17200000000E+03 0.  1.
         -6    1    1    2    0  501 -0.22807780876E+03 -0.10797923133E+03  0.10684104122E+03  0.32353981105E+03  0.17200000000E+03 0. -1.
<mgrwt>
<rscale>  2 0.30538992E+03</rscale>
<asrwt>0</asrwt>
<pdfrwt beam="1">  1        2 0.13371843E+00 0.30538992E+03</pdfrwt>
<pdfrwt beam="2">  1       -2 0.45320822E-01 0.30538992E+03</pdfrwt>
<totfact> 0.14960138E+02</totfact>
</mgrwt>
</event>
<event>
 4    1  0.3889096E-001  0.2570759E+03  0.7546771E-02  0.1108913E+00
         -2   -1    0    0    0  501 -0.00000000000E+00  0.00000000000E+00  0.41590914249E+02  0.41590914249E+02  0.00000000000E+00 0. -1.
          2   -1    0    0  502    0  0.00000000000E+00 -0.00000000000E+00 -0.18639732156E+04  0.18639732156E+04  0.00000000000E+00 0.  1.
          6    1    1    2  502    0  0.19101963650E+03  0.39372804204E+01 -0.12771381228E+04  0.13027546924E+04  0.17200000000E+03 0. -1.
         -6    1    1    2    0  501 -0.19101963650E+03 -0.39372804204E+01 -0.54524417855E+03  0.60280943751E+03  0.17200000000E+03 0.  1.
<mgrwt>
<rscale>  2 0.25707587E+03</rscale>
<asrwt>0</asrwt>
<pdfrwt beam="1">  1        2 0.46599327E+00 0.25707587E+03</pdfrwt>
<pdfrwt beam="2">  1       -2 0.10397729E-01 0.25707587E+03</pdfrwt>
<totfact> 0.12579734E+02</totfact>
</mgrwt>
</event>
<event>
 4    1  0.3889096E-001  0.1851780E+03  0.7546771E-02  0.1162884E+00
         -2   -1    0    0    0  501 -0.00000000000E+00  0.00000000000E+00  0.20994399148E+03  0.20994399148E+03  0.00000000000E+00 0. -1.
          2   -1    0    0  502    0  0.00000000000E+00 -0.00000000000E+00 -0.16355406636E+03  0.16355406636E+03  0.00000000000E+00 0.  1.
          6    1    1    2  502    0  0.55356877363E+02  0.40527798066E+02  0.16336917337E+02  0.18589723278E+03  0.17200000000E+03 0. -1.
         -6    1    1    2    0  501 -0.55356877363E+02 -0.40527798066E+02  0.30053007780E+02  0.18760082506E+03  0.17200000000E+03 0. -1.
<mgrwt>
<rscale>  2 0.18517799E+03</rscale>
<asrwt>0</asrwt>
<pdfrwt beam="1">  1        2 0.40888517E-01 0.18517799E+03</pdfrwt>
<pdfrwt beam="2">  1       -2 0.52485998E-01 0.18517799E+03</pdfrwt>
<totfact> 0.43647036E+02</totfact>
</mgrwt>
</event>
<event>
 4    1  0.3889096E-001  0.2156078E+03  0.7546771E-02  0.1137201E+00
         -2   -1    0    0    0  501 -0.00000000000E+00  0.00000000000E+00  0.55509621909E+02  0.55509621909E+02  0.00000000000E+00 0.  1.
          2   -1    0    0  502    0  0.00000000000E+00 -0.00000000000E+00 -0.93392052829E+03  0.93392052829E+03  0.00000000000E+00 0. -1.
          6    1    1    2  502    0  0.70347167470E+02 -0.10933427091E+03 -0.28020789292E+03  0.35355787365E+03  0.17200000000E+03 0. -1.
         -6    1    1    2    0  501 -0.70347167470E+02  0.10933427091E+03 -0.59820301347E+03  0.63587227655E+03  0.17200000000E+03 0. -1.
<mgrwt>
<rscale>  2 0.21560776E+03</rscale>
<asrwt>0</asrwt>
<pdfrwt beam="1">  1        2 0.23348012E+00 0.21560776E+03</pdfrwt>
<pdfrwt beam="2">  1       -2 0.13877406E-01 0.21560776E+03</pdfrwt>
<totfact> 0.52634917E+02</totfact>
</mgrwt>
</event>
<event>
 4    1  0.3889096E-001  0.1822673E+03  0.7546771E-02  0.1165627E+00
         -2   -1    0    0    0  501 -0.00000000000E+00  0.00000000000E+00  0.29666236684E+02  0.29666236684E+02  0.00000000000E+00 0. -1.
          2   -1    0    0  502    0  0.00000000000E+00 -0.00000000000E+00 -0.19075525643E+04  0.19075525643E+04  0.00000000000E+00 0.  1.
          6    1    1    2  502    0 -0.35968352352E+01 -0.60203101970E+02 -0.15613797678E+04  0.15719822295E+04  0.17200000000E+03 0.  1.
         -6    1    1    2    0  501  0.35968352352E+01  0.60203101970E+02 -0.31650655983E+03  0.36523657145E+03  0.17200000000E+03 0. -1.
<mgrwt>
<rscale>  2 0.18226725E+03</rscale>
<asrwt>0</asrwt>
<pdfrwt beam="1">  1        2 0.47688817E+00 0.18226725E+03</pdfrwt>
<pdfrwt beam="2">  1       -2 0.74165587E-02 0.18226725E+03</pdfrwt>
<totfact> 0.20043881E+02</totfact>
</mgrwt>
</event>
<event>
 4    1  0.3889096E-001  0.1733421E+03  0.7546771E-02  0.1174407E+00
         -2   -1    0    0    0  501 -0.00000000000E+00  0.00000000000E+00  0.16464012129E+02  0.16464012129E+02  0.00000000000E+00 0. -1.
          2   -1    0    0  502    0  0.00000000000E+00 -0.00000000000E+00 -0.19243180441E+04  0.19243180441E+04  0.00000000000E+00 0.  1.
          6    1    1    2  502    0  0.14744106139E+02  0.15687863853E+02 -0.11743377234E+04  0.11870621661E+04  0.17200000000E+03 0.  1.
         -6    1    1    2    0  501 -0.14744106139E+02 -0.15687863853E+02 -0.73351630857E+03  0.75371989006E+03  0.17200000000E+03 0. -1.
<mgrwt>
<rscale>  2 0.17334214E+03</rscale>
<asrwt>0</asrwt>
<pdfrwt beam="1">  1        2 0.48107948E+00 0.17334214E+03</pdfrwt>
<pdfrwt beam="2">  1       -2 0.41160033E-02 0.17334214E+03</pdfrwt>
<totfact> 0.47443315E+02</totfact>
</mgrwt>
</event>
<event>
 4    1  0.3889096E-001  0.1736779E+03  0.7546771E-02  0.1174066E+00
         -2   -1    0    0    0  501 -0.00000000000E+00  0.00000000000E+00  0.14139839346E+02  0.14139839346E+02  0.00000000000E+00 0.  1.
          2   -1    0    0  502    0  0.00000000000E+00 -0.00000000000E+00 -0.22254772125E+04  0.22254772125E+04  0.00000000000E+00 0. -1.
          6    1    1    2  502    0 -0.92435291457E+01  0.22238997187E+02 -0.87772485710E+03  0.89474294666E+03  0.17200000000E+03 0. -1.
         -6    1    1    2    0  501  0.92435291457E+01 -0.22238997187E+02 -0.13336125161E+04  0.13448741052E+04  0.17200000000E+03 0. -1.
<mgrwt>
<rscale>  2 0.17367791E+03</rscale>
<asrwt>0</asrwt>
<pdfrwt beam="1">  1        2 0.55636928E+00 0.17367791E+03</pdfrwt>
<pdfrwt beam="2">  1       -2 0.35349600E-02 0.17367791E+03</pdfrwt>
<totfact> 0.29154559E+02</totfact>
</mgrwt>
</event>
<event>
 4    1  0.3889096E-001  0.2038491E+03  0.7546771E-02  0.1146532E+00
         -2   -1    0    0    0  501 -0.00000000000E+00  0.00000000000E+00  0.23993788524E+02  0.23993788524E+02  0.00000000000E+00 0. -1.
          2   -1    0    0  502    0  0.00000000000E+00 -0.00000000000E+00 -0.17318841211E+04  0.17318841211E+04  0.00000000000E+00 0.  1.
          6    1    1    2  502    0 -0.14393204916E+02  0.10845863215E+03 -0.85330471897E+03  0.87731601071E+03  0.17200000000E+03 0. -1.
         -6    1    1    2    0  501  0.14393204916E+02 -0.10845863215E+03 -0.85458561360E+03  0.87856189891E+03  0.17200000000E+03 0. -1.
<mgrwt>
<rscale>  2 0.20384906E+03</rscale>
<asrwt>0</asrwt>
<pdfrwt beam="1">  1        2 0.43297102E+00 0.20384906E+03</pdfrwt>
<pdfrwt beam="2">  1       -2 0.59984473E-02 0.20384906E+03</pdfrwt>
<totfact> 0.40370646E+02</totfact>
</mgrwt>
</event>
<event>
 4    1  0.3889096E-001  0.2027001E+03  0.7546771E-02  0.1147481E+00
          2   -1    0    0  502    0  0.00000000000E+00  0.00000000000E+00  0.55992692711E+03  0.55992692711E+03  0.00000000000E+00 0. -1.
         -2   -1    0    0    0  501 -0.00000000000E+00 -0.00000000000E+00 -0.77961586566E+02  0.77961586566E+02  0.00000000000E+00 0.  1.
          6    1    1    2  502    0 -0.53407171682E+02  0.93010712963E+02  0.31830278499E+03  0.37736452092E+03  0.17200000000E+03 0. -1.
         -6    1    1    2    0  501  0.53407171682E+02 -0.93010712963E+02  0.16366255555E+03  0.26052399276E+03  0.17200000000E+03 0.  1.
<mgrwt>
<rscale>  2 0.20270007E+03</rscale>
<asrwt>0</asrwt>
<pdfrwt beam="1">  1        2 0.13998172E+00 0.20270007E+03</pdfrwt>
<pdfrwt beam="2">  1       -2 0.19490398E-01 0.20270007E+03</pdfrwt>
<totfact> 0.66318990E+02</totfact>
</mgrwt>
</event>
<event>
 4    1  0.3889096E-001  0.2005438E+03  0.7546771E-02  0.1149281E+00
          2   -1    0    0  502    0  0.00000000000E+00  0.00000000000E+00  0.15265378948E+04  0.15265378948E+04  0.00000000000E+00 0. -1.
         -2   -1    0    0    0  501 -0.00000000000E+00 -0.00000000000E+00 -0.26668143289E+02  0.26668143289E+02  0.00000000000E+00 0.  1.
          6    1    1    2  502    0 -0.94736329592E+02  0.40728979341E+02  0.66455024085E+03  0.69415044804E+03  0.17200000000E+03 0.  1.
         -6    1    1    2    0  501  0.94736329592E+02 -0.40728979341E+02  0.83531951069E+03  0.85905559008E+03  0.17200000000E+03 0. -1.
<mgrwt>
<rscale>  2 0.20054382E+03</rscale>
<asrwt>0</asrwt>
<pdfrwt beam="1">  1        2 0.38163418E+00 0.20054382E+03</pdfrwt>
<pdfrwt beam="2">  1       -2 0.66670410E-02 0.20054382E+03</pdfrwt>
<totfact> 0.52567546E+02</totfact>
</mgrwt>
</event>
<event>
 4    1  0.3889096E-001  0.2543116E+03  0.7546771E-02  0.1110610E+00
         -2   -1    0    0    0  501 -0.00000000000E+00  0.00000000000E+00  0.20512044476E+03  0.20512044476E+03  0.00000000000E+00 0. -1.
          2   -1    0    0  502    0  0.00000000000E+00 -0.00000000000E+00 -0.40042435301E+03  0.40042435301E+03  0.00000000000E+00 0.  1.
          6    1    1    2  502    0  0.18726914291E+03  0.45442987029E+01  0.41947627849E+02  0.25774791177E+03  0.17200000000E+03 0.  1.
         -6    1    1    2    0  501 -0.18726914291E+03 -0.45442987029E+01 -0.23725153609E+03  0.34779688600E+03  0.17200000000E+03 0.  1.
<mgrwt>
<rscale>  2 0.25431159E+03</rscale>
<asrwt>0</asrwt>
<pdfrwt beam="1">  1        2 0.10010609E+00 0.25431159E+03</pdfrwt>
<pdfrwt beam="2">  1       -2 0.51280112E-01 0.25431159E+03</pdfrwt>
<totfact> 0.16939152E+02</totfact>
</mgrwt>
</event>
<event>
 4    1  0.3889096E-001  0.1948935E+03  0.7546771E-02  0.1154120E+00
         -1   -1    0    0    0  501 -0.00000000000E+00  0.00000000000E+00  0.13323776423E+03  0.13323776423E+03  0.00000000000E+00 0. -1.
          1   -1    0    0  502    0  0.00000000000E+00 -0.00000000000E+00 -0.35874762933E+03  0.35874762933E+03  0.00000000000E+00 0.  1.
          6    1    1    2  502    0 -0.34902149038E+02 -0.84742646340E+02 -0.12831772639E+01  0.19489772359E+03  0.17200000000E+03 0. -1.
         -6    1    1    2    0  501  0.34902149038E+02  0.84742646340E+02 -0.22422668783E+03  0.29708766998E+03  0.17200000000E+03 0.  1.
<mgrwt>
<rscale>  2 0.19489350E+03</rscale>
<asrwt>0</asrwt>
<pdfrwt beam="1">  1        1 0.89686906E-01 0.19489350E+03</pdfrwt>
<pdfrwt beam="2">  1       -1 0.33309441E-01 0.19489350E+03</pdfrwt>
<totfact> 0.31729030E+02</totfact>
</mgrwt>
</event>
<event>
 4    1  0.3889096E-001  0.1784254E+03  0.7546771E-02  0.1169336E+00
         -1   -1    0    0    0  501 -0.00000000000E+00  0.00000000000E+00  0.34003257687E+02  0.34003257687E+02  0.00000000000E+00 0.  1.
          1   -1    0    0  502    0  0.00000000000E+00 -0.00000000000E+00 -0.99167854295E+03  0.99167854295E+03  0.00000000000E+00 0. -1.
          6    1    1    2  502    0  0.13972879843E+02  0.45347316565E+02 -0.60008040047E+03  0.62604481270E+03  0.17200000000E+03 0. -1.
         -6    1    1    2    0  501 -0.13972879843E+02 -0.45347316565E+02 -0.35759488480E+03  0.39963698794E+03  0.17200000000E+03 0.  1.
<mgrwt>
<rscale>  2 0.17842539E+03</rscale>
<asrwt>0</asrwt>
<pdfrwt beam="1">  1        1 0.24791965E+00 0.17842539E+03</pdfrwt>
<pdfrwt beam="2">  1       -1 0.85008139E-02 0.17842539E+03</pdfrwt>
<totfact> 0.48159681E+02</totfact>
</mgrwt>
</event>
<event>
 4    1  0.3889096E-001  0.1845375E+03  0.7546771E-02  0.1163482E+00
         -2   -1    0    0    0  501 -0.00000000000E+00  0.00000000000E+00  0.53073090381E+02  0.53073090381E+02  0.00000000000E+00 0. -1.
          2   -1    0    0  502    0  0.00000000000E+00 -0.00000000000E+00 -0.65623913659E+03  0.65623913659E+03  0.00000000000E+00 0.  1.
          6    1    1    2  502    0  0.57803175385E+02 -0.33598934237E+02 -0.35447162868E+03  0.39963011774E+03  0.17200000000E+03 0. -1.
         -6    1    1    2    0  501 -0.57803175385E+02  0.33598934237E+02 -0.24869441752E+03  0.30968210922E+03  0.17200000000E+03 0. -1.
<mgrwt>
<rscale>  2 0.18453752E+03</rscale>
<asrwt>0</asrwt>
<pdfrwt beam="1">  1        2 0.16405978E+00 0.18453752E+03</pdfrwt>
<pdfrwt beam="2">  1       -2 0.13268273E-01 0.18453752E+03</pdfrwt>
<totfact> 0.10088532E+03</totfact>
</mgrwt>
</event>
<event>
 4    1  0.3889096E-001  0.1824524E+03  0.7546771E-02  0.1165450E+00
          2   -1    0    0  502    0  0.00000000000E+00  0.00000000000E+00  0.10552813827E+03  0.10552813827E+03  0.00000000000E+00 0. -1.
         -2   -1    0    0    0  501 -0.00000000000E+00 -0.00000000000E+00 -0.34018854690E+03  0.34018854690E+03  0.00000000000E+00 0.  1.
          6    1    1    2  502    0 -0.19860009315E+02  0.57536597696E+02 -0.17742733642E+03  0.25449821169E+03  0.17200000000E+03 0.  1.
         -6    1    1    2    0  501  0.19860009315E+02 -0.57536597696E+02 -0.57233072208E+02  0.19121847348E+03  0.17200000000E+03 0. -1.
<mgrwt>
<rscale>  2 0.18245240E+03</rscale>
<asrwt>0</asrwt>
<pdfrwt beam="1">  1        2 0.26382035E-01 0.18245240E+03</pdfrwt>
<pdfrwt beam="2">  1       -2 0.85047136E-01 0.18245240E+03</pdfrwt>
<totfact> 0.25311982E+02</totfact>
</mgrwt>
</event>
<event>
 4    1  0.3889096E-001  0.1963298E+03  0.7546771E-02  0.1152873E+00
         -2   -1    0    0    0  501 -0.00000000000E+00  0.00000000000E+00  0.15879079740E+03  0.15879079740E+03  0.00000000000E+00 0.  1.
          2   -1    0    0  502    0  0.00000000000E+00 -0.00000000000E+00 -0.26933944177E+03  0.26933944177E+03  0.00000000000E+00 0. -1.
          6    1    1    2  502    0 -0.31266344056E+02  0.89352130529E+02  0.11993288786E+02  0.19669577137E+03  0.17200000000E+03 0.  1.
         -6    1    1    2    0  501  0.31266344056E+02 -0.89352130529E+02 -0.12254193316E+03  0.23143446779E+03  0.17200000000E+03 0. -1.
<mgrwt>
<rscale>  2 0.19632979E+03</rscale>
<asrwt>0</asrwt>
<pdfrwt beam="1">  1        2 0.67334860E-01 0.19632979E+03</pdfrwt>
<pdfrwt beam="2">  1       -2 0.39697700E-01 0.19632979E+03</pdfrwt>
<totfact> 0.44045501E+02</totfact>
</mgrwt>
</event>
<event>
 4    1  0.3889096E-001  0.1973015E+03  0.7546771E-02  0.1152036E+00
          2   -1    0    0  502    0  0.00000000000E+00  0.00000000000E+00  0.46524298864E+03  0.46524298864E+03  0.00000000000E+00 0.  1.
         -2   -1    0    0    0  501 -0.00000000000E+00 -0.00000000000E+00 -0.90585920408E+02  0.90585920408E+02  0.00000000000E+00 0. -1.
          6    1    1    2  502    0 -0.33350276644E+02 -0.90728442278E+02  0.26410667332E+03  0.32966684104E+03  0.17200000000E+03 0.  1.
         -6    1    1    2    0  501  0.33350276644E+02  0.90728442278E+02  0.11055039492E+03  0.22616206801E+03  0.17200000000E+03 0. -1.
<mgrwt>
<rscale>  2 0.19730152E+03</rscale>
<asrwt>0</asrwt>
<pdfrwt beam="1">  1        2 0.11631074E+00 0.19730152E+03</pdfrwt>
<pdfrwt beam="2">  1       -2 0.22646481E-01 0.19730152E+03</pdfrwt>
<totfact> 0.65019034E+02</totfact>
</mgrwt>
</event>
<event>
 4    1  0.3889096E-001  0.2289958E+03  0.7546771E-02  0.1127349E+00
          1   -1    0    0  502    0  0.00000000000E+00  0.00000000000E+00  0.76412791892E+03  0.76412791892E+03  0.00000000000E+00 0. -1.
         -1   -1    0    0    0  501 -0.00000000000E+00 -0.00000000000E+00 -0.76921363433E+02  0.76921363433E+02  0.00000000000E+00 0.  1.
          6    1    1    2  502    0  0.85963816755E+02 -0.12435948828E+03  0.48170054030E+03  0.53336148215E+03  0.17200000000E+03 0. -1.
         -6    1    1    2    0  501 -0.85963816755E+02  0.12435948828E+03  0.20550601519E+03  0.30768780021E+03  0.17200000000E+03 0. -1.
<mgrwt>
<rscale>  2 0.22899576E+03</rscale>
<asrwt>0</asrwt>
<pdfrwt beam="1">  1        1 0.19103196E+00 0.22899576E+03</pdfrwt>
<pdfrwt beam="2">  1       -1 0.19230343E-01 0.22899576E+03</pdfrwt>
<totfact> 0.23378802E+02</totfact>
</mgrwt>
</event>
<event>
 4    1  0.3889096E-001  0.1775553E+03  0.7546771E-02  0.1170190E+00
          1   -1    0    0  502    0  0.00000000000E+00  0.00000000000E+00  0.59423276525E+02  0.59423276525E+02  0.00000000000E+00 0. -1.
         -1   -1    0    0    0  501 -0.00000000000E+00 -0.00000000000E+00 -0.53077266329E+03  0.53077266329E+03  0.00000000000E+00 0.  1.
          6    1    1    2  502    0 -0.35485345660E+02  0.26128108965E+02 -0.24197199992E+03  0.30012720067E+03  0.17200000000E+03 0.  1.
         -6    1    1    2    0  501  0.35485345660E+02 -0.26128108965E+02 -0.22937738684E+03  0.29006873914E+03  0.17200000000E+03 0.  1.
<mgrwt>
<rscale>  2 0.17755531E+03</rscale>
<asrwt>0</asrwt>
<pdfrwt beam="1">  1        1 0.14855819E-01 0.17755531E+03</pdfrwt>
<pdfrwt beam="2">  1       -1 0.13269317E+00 0.17755531E+03</pdfrwt>
<totfact> 0.19762231E+02</totfact>
</mgrwt>
</event>
<event>
 4    1  0.3889096E-001  0.1722883E+03  0.7546771E-02  0.1175482E+00
          4   -1    0    0  502    0  0.00000000000E+00  0.00000000000E+00  0.27260249670E+02  0.27260249670E+02  0.00000000000E+00 0. -1.
         -4   -1    0    0    0  501 -0.00000000000E+00 -0.00000000000E+00 -0.13312086019E+04  0.13312086019E+04  0.00000000000E+00 0.  1.
          6    1    1    2  502    0 -0.25681224549E+01  0.96270550463E+01 -0.94177161258E+03  0.95740119370E+03  0.17200000000E+03 0.  1.
         -6    1    1    2    0  501  0.25681224549E+01 -0.96270550463E+01 -0.36217673962E+03  0.40106765784E+03  0.17200000000E+03 0. -1.
<mgrwt>
<rscale>  2 0.17228835E+03</rscale>
<asrwt>0</asrwt>
<pdfrwt beam="1">  1        4 0.68150627E-02 0.17228835E+03</pdfrwt>
<pdfrwt beam="2">  1       -4 0.33280214E+00 0.17228835E+03</pdfrwt>
<totfact> 0.60121073E+00</totfact>
</mgrwt>
</event>
<event>
 4    1  0.3889096E-001  0.1812470E+03  0.7546771E-02  0.1166602E+00
          1   -1    0    0  502    0  0.00000000000E+00  0.00000000000E+00  0.12070182551E+03  0.12070182551E+03  0.00000000000E+00 0.  1.
         -1   -1    0    0    0  501 -0.00000000000E+00 -0.00000000000E+00 -0.42321983196E+03  0.42321983196E+03  0.00000000000E+00 0. -1.
          6    1    1    2  502    0  0.54268059066E+02  0.17928804634E+02  0.11219087554E+02  0.18159386607E+03  0.17200000000E+03 0.  1.
         -6    1    1    2    0  501 -0.54268059066E+02 -0.17928804634E+02 -0.31373709400E+03  0.36232779140E+03  0.17200000000E+03 0. -1.
<mgrwt>
<rscale>  2 0.18124697E+03</rscale>
<asrwt>0</asrwt>
<pdfrwt beam="1">  1        1 0.30175457E-01 0.18124697E+03</pdfrwt>
<pdfrwt beam="2">  1       -1 0.10580496E+00 0.18124697E+03</pdfrwt>
<totfact> 0.13615803E+02</totfact>
</mgrwt>
</event>
<event>
 4    1  0.3889096E-001  0.2512975E+03  0.7546771E-02  0.1112488E+00
         -2   -1    0    0    0  501 -0.00000000000E+00  0.00000000000E+00  0.15196080712E+03  0.15196080712E+03  0.00000000000E+00 0. -1.
          2   -1    0    0  502    0  0.00000000000E+00 -0.00000000000E+00 -0.53557965178E+03  0.53557965178E+03  0.00000000000E+00 0.  1.
          6    1    1    2  502    0 -0.18291715845E+03 -0.10379225625E+02 -0.29080940558E+02  0.25297453683E+03  0.17200000000E+03 0. -1.
         -6    1    1    2    0  501  0.18291715845E+03  0.10379225625E+02 -0.35453790411E+03  0.43456592207E+03  0.17200000000E+03 0.  1.
<mgrwt>
<rscale>  2 0.25129746E+03</rscale>
<asrwt>0</asrwt>
<pdfrwt beam="1">  1        2 0.13389491E+00 0.25129746E+03</pdfrwt>
<pdfrwt beam="2">  1       -2 0.37990202E-01 0.25129746E+03</pdfrwt>
<totfact> 0.21161905E+02</totfact>
</mgrwt>
</event>
<event>
 4    1  0.3889096E-001  0.1854146E+03  0.7546771E-02  0.1162663E+00
         -2   -1    0    0    0  501 -0.00000000000E+00  0.00000000000E+00  0.64162897720E+02  0.64162897720E+02  0.00000000000E+00 0. -1.
          2   -1    0    0  502    0  0.00000000000E+00 -0.00000000000E+00 -0.55898209111E+03  0.55898209111E+03  0.00000000000E+00 0.  1.
          6    1    1    2  502    0  0.11427179944E+02 -0.68293343964E+02 -0.31085858341E+03  0.36195527369E+03  0.17200000000E+03 0.  1.
         -6    1    1    2    0  501 -0.11427179944E+02  0.68293343964E+02 -0.18396060998E+03  0.26118971514E+03  0.17200000000E+03 0.  1.
<mgrwt>
<rscale>  2 0.18541457E+03</rscale>
<asrwt>0</asrwt>
<pdfrwt beam="1">  1        2 0.13974552E+00 0.18541457E+03</pdfrwt>
<pdfrwt beam="2">  1       -2 0.16040724E-01 0.18541457E+03</pdfrwt>
<totfact> 0.92257802E+02</totfact>
</mgrwt>
</event>
<event>
 4    1  0.3889096E-001  0.1977713E+03  0.7546771E-02  0.1151633E+00
          2   -1    0    0  502    0  0.00000000000E+00  0.00000000000E+00  0.39830843179E+03  0.39830843179E+03  0.00000000000E+00 0.  1.
         -2   -1    0    0    0  501 -0.00000000000E+00 -0.00000000000E+00 -0.99930421711E+02  0.99930421711E+02  0.00000000000E+00 0. -1.
          6    1    1    2  502    0 -0.16389524593E+00  0.97619016325E+02  0.18198019439E+03  0.26875693546E+03  0.17200000000E+03 0.  1.
         -6    1    1    2    0  501  0.16389524593E+00 -0.97619016325E+02  0.11639781569E+03  0.22948191804E+03  0.17200000000E+03 0. -1.
<mgrwt>
<rscale>  2 0.19777133E+03</rscale>
<asrwt>0</asrwt>
<pdfrwt beam="1">  1        2 0.99577104E-01 0.19777133E+03</pdfrwt>
<pdfrwt beam="2">  1       -2 0.24982606E-01 0.19777133E+03</pdfrwt>
<totfact> 0.66048005E+02</totfact>
</mgrwt>
</event>
<event>
 4    1  0.3889096E-001  0.1878710E+03  0.7546771E-02  0.1160396E+00
         -2   -1    0    0    0  501 -0.00000000000E+00  0.00000000000E+00  0.11472672616E+03  0.11472672616E+03  0.00000000000E+00 0.  1.
          2   -1    0    0  502    0  0.00000000000E+00 -0.00000000000E+00 -0.54157682836E+03  0.54157682836E+03  0.00000000000E+00 0. -1.
          6    1    1    2  502    0 -0.48008124812E+02  0.58367076428E+02 -0.42909329866E+03  0.46841920821E+03  0.17200000000E+03 0. -1.
         -6    1    1    2    0  501  0.48008124812E+02 -0.58367076428E+02  0.22431964643E+01  0.18788434631E+03  0.17200000000E+03 0.  1.
<mgrwt>
<rscale>  2 0.18787095E+03</rscale>
<asrwt>0</asrwt>
<pdfrwt beam="1">  1        2 0.13539421E+00 0.18787095E+03</pdfrwt>
<pdfrwt beam="2">  1       -2 0.28681682E-01 0.18787095E+03</pdfrwt>
<totfact> 0.35345419E+02</totfact>
</mgrwt>
</event>
<event>
 4    1  0.3889096E-001  0.2734925E+03  0.7546771E-02  0.1099297E+00
         -2   -1    0    0    0  501 -0.00000000000E+00  0.00000000000E+00  0.20315934123E+03  0.20315934123E+03  0.00000000000E+00 0. -1.
          2   -1    0    0  502    0  0.00000000000E+00 -0.00000000000E+00 -0.40936054430E+03  0.40936054430E+03  0.00000000000E+00 0.  1.
          6    1    1    2  502    0  0.16532373229E+03  0.13372440761E+03 -0.20024339021E+03  0.33896248903E+03  0.17200000000E+03 0. -1.
         -6    1    1    2    0  501 -0.16532373229E+03 -0.13372440761E+03 -0.59578128556E+01  0.27355739650E+03  0.17200000000E+03 0.  1.
<mgrwt>
<rscale>  2 0.27349251E+03</rscale>
<asrwt>0</asrwt>
<pdfrwt beam="1">  1        2 0.10234014E+00 0.27349251E+03</pdfrwt>
<pdfrwt beam="2">  1       -2 0.50789836E-01 0.27349251E+03</pdfrwt>
<totfact> 0.16778907E+02</totfact>
</mgrwt>
</event>
<event>
 4    1  0.3889096E-001  0.1906965E+03  0.7546771E-02  0.1157835E+00
         -2   -1    0    0    0  501 -0.00000000000E+00  0.00000000000E+00  0.38810430360E+03  0.38810430360E+03  0.00000000000E+00 0.  1.
          2   -1    0    0  502    0  0.00000000000E+00 -0.00000000000E+00 -0.19055855265E+03  0.19055855265E+03  0.00000000000E+00 0. -1.
          6    1    1    2  502    0 -0.42102545009E+02 -0.70770884237E+02  0.30505030422E+03  0.35975106734E+03  0.17200000000E+03 0.  1.
         -6    1    1    2    0  501  0.42102545009E+02  0.70770884237E+02 -0.10750455326E+03  0.21891178891E+03  0.17200000000E+03 0. -1.
<mgrwt>
<rscale>  2 0.19069647E+03</rscale>
<asrwt>0</asrwt>
<pdfrwt beam="1">  1        2 0.47639639E-01 0.19069647E+03</pdfrwt>
<pdfrwt beam="2">  1       -2 0.97026075E-01 0.19069647E+03</pdfrwt>
<totfact> 0.99006921E+01</totfact>
</mgrwt>
</event>
<event>
 4    1  0.3889096E-001  0.1821501E+03  0.7546771E-02  0.1165738E+00
         -4   -1    0    0    0  501 -0.00000000000E+00  0.00000000000E+00  0.17511303570E+03  0.17511303570E+03  0.00000000000E+00 0.  1.
          4   -1    0    0  502    0  0.00000000000E+00 -0.00000000000E+00 -0.22413126097E+03  0.22413126097E+03  0.00000000000E+00 0. -1.
          6    1    1    2  502    0 -0.63870291074E+01 -0.59614282097E+02 -0.10301099098E+03  0.20926041440E+03  0.17200000000E+03 0.  1.
         -6    1    1    2    0  501  0.63870291074E+01  0.59614282097E+02  0.53992765711E+02  0.18998388226E+03  0.17200000000E+03 0.  1.
<mgrwt>
<rscale>  2 0.18215009E+03</rscale>
<asrwt>0</asrwt>
<pdfrwt beam="1">  1        4 0.56032815E-01 0.18215009E+03</pdfrwt>
<pdfrwt beam="2">  1       -4 0.43778259E-01 0.18215009E+03</pdfrwt>
<totfact> 0.27335684E+01</totfact>
</mgrwt>
</event>
<event>
 4    1  0.3889096E-001  0.1772067E+03  0.7546771E-02  0.1170534E+00
         -2   -1    0    0    0  501 -0.00000000000E+00  0.00000000000E+00  0.16521561587E+03  0.16521561587E+03  0.00000000000E+00 0.  1.
          2   -1    0    0  502    0  0.00000000000E+00 -0.00000000000E+00 -0.19008115378E+03  0.19008115378E+03  0.00000000000E+00 0. -1.
          6    1    1    2  502    0  0.22510250246E+02  0.36214574641E+02 -0.10956700965E+02  0.17754508182E+03  0.17200000000E+03 0. -1.
         -6    1    1    2    0  501 -0.22510250246E+02 -0.36214574641E+02 -0.13908836947E+02  0.17775168783E+03  0.17200000000E+03 0. -1.
<mgrwt>
<rscale>  2 0.17720668E+03</rscale>
<asrwt>0</asrwt>
<pdfrwt beam="1">  1        2 0.47520288E-01 0.17720668E+03</pdfrwt>
<pdfrwt beam="2">  1       -2 0.41303904E-01 0.17720668E+03</pdfrwt>
<totfact> 0.59433127E+02</totfact>
</mgrwt>
</event>
<event>
 4    1  0.3889096E-001  0.1735400E+03  0.7546771E-02  0.1174206E+00
          2   -1    0    0  502    0  0.00000000000E+00  0.00000000000E+00  0.87267071488E+03  0.87267071488E+03  0.00000000000E+00 0.  1.
         -2   -1    0    0    0  501 -0.00000000000E+00 -0.00000000000E+00 -0.36048450404E+02  0.36048450404E+02  0.00000000000E+00 0. -1.
          6    1    1    2  502    0  0.22864345671E+02 -0.30583213107E+01  0.32445660341E+03  0.36795138147E+03  0.17200000000E+03 0. -1.
         -6    1    1    2    0  501 -0.22864345671E+02  0.30583213107E+01  0.51216566106E+03  0.54076778381E+03  0.17200000000E+03 0.  1.
<mgrwt>
<rscale>  2 0.17354000E+03</rscale>
<asrwt>0</asrwt>
<pdfrwt beam="1">  1        2 0.21816761E+00 0.17354000E+03</pdfrwt>
<pdfrwt beam="2">  1       -2 0.90121155E-02 0.17354000E+03</pdfrwt>
<totfact> 0.11924531E+03</totfact>
</mgrwt>
</event>
<event>
 4    1  0.3889096E-001  0.2578903E+03  0.7546771E-02  0.1108417E+00
         -1   -1    0    0    0  501 -0.00000000000E+00  0.00000000000E+00  0.90956736294E+02  0.90956736294E+02  0.00000000000E+00 0.  1.
          1   -1    0    0  502    0  0.00000000000E+00 -0.00000000000E+00 -0.83971316632E+03  0.83971316632E+03  0.00000000000E+00 0. -1.
          6    1    1    2  502    0  0.18758562852E+03 -0.41653605783E+02 -0.54165869009E+03  0.59991793393E+03  0.17200000000E+03 0. -1.
         -6    1    1    2    0  501 -0.18758562852E+03  0.41653605783E+02 -0.20709773993E+03  0.33075196868E+03  0.17200000000E+03 0. -1.
<mgrwt>
<rscale>  2 0.25789027E+03</rscale>
<asrwt>0</asrwt>
<pdfrwt beam="1">  1        1 0.20992829E+00 0.25789027E+03</pdfrwt>
<pdfrwt beam="2">  1       -1 0.22739184E-01 0.25789027E+03</pdfrwt>
<totfact> 0.14562577E+02</totfact>
</mgrwt>
</event>
<event>
 4    1  0.3889096E-001  0.2211881E+03  0.7546771E-02  0.1133000E+00
         -1   -1    0    0    0  501 -0.00000000000E+00  0.00000000000E+00  0.11816710411E+03  0.11816710411E+03  0.00000000000E+00 0.  1.
          1   -1    0    0  502    0  0.00000000000E+00 -0.00000000000E+00 -0.44535620436E+03  0.44535620436E+03  0.00000000000E+00 0. -1.
          6    1    1    2  502    0  0.12234960140E+03 -0.66111572583E+02 -0.23832798384E+03  0.32515287616E+03  0.17200000000E+03 0. -1.
         -6    1    1    2    0  501 -0.12234960140E+03  0.66111572583E+02 -0.88861116408E+02  0.23837043231E+03  0.17200000000E+03 0.  1.
<mgrwt>
<rscale>  2 0.22118808E+03</rscale>
<asrwt>0</asrwt>
<pdfrwt beam="1">  1        1 0.11133905E+00 0.22118808E+03</pdfrwt>
<pdfrwt beam="2">  1       -1 0.29541776E-01 0.22118808E+03</pdfrwt>
<totfact> 0.28568633E+02</totfact>
</mgrwt>
</event>
<event>
 4    1  0.3889096E-001  0.1776702E+03  0.7546771E-02  0.1170077E+00
          2   -1    0    0  502    0  0.00000000000E+00  0.00000000000E+00  0.19296703126E+03  0.19296703126E+03  0.00000000000E+00 0.  1.
         -2   -1    0    0    0  501 -0.00000000000E+00 -0.00000000000E+00 -0.17126585810E+03  0.17126585810E+03  0.00000000000E+00 0. -1.
          6    1    1    2  502    0  0.94572005296E+01 -0.43511739776E+02 -0.27714079711E+02  0.17981874306E+03  0.17200000000E+03 0.  1.
         -6    1    1    2    0  501 -0.94572005296E+01  0.43511739776E+02  0.49415252866E+02  0.18441414630E+03  0.17200000000E+03 0. -1.
<mgrwt>
<rscale>  2 0.17767023E+03</rscale>
<asrwt>0</asrwt>
<pdfrwt beam="1">  1        2 0.48241758E-01 0.17767023E+03</pdfrwt>
<pdfrwt beam="2">  1       -2 0.42816465E-01 0.17767023E+03</pdfrwt>
<totfact> 0.54580931E+02</totfact>
</mgrwt>
</event>
<event>
 4    1  0.3889096E-001  0.2235720E+03  0.7546771E-02  0.1131248E+00
         -2   -1    0    0    0  501 -0.00000000000E+00  0.00000000000E+00  0.10926515220E+03  0.10926515220E+03  0.00000000000E+00 0.  1.
          2   -1    0    0  502    0  0.00000000000E+00 -0.00000000000E+00 -0.47466817561E+03  0.47466817561E+03  0.00000000000E+00 0. -1.
          6    1    1    2  502    0 -0.14272661343E+03  0.54355290184E+01 -0.12711028662E+03  0.25717981282E+03  0.17200000000E+03 0.  1.
         -6    1    1    2    0  501  0.14272661343E+03 -0.54355290184E+01 -0.23829273679E+03  0.32675351500E+03  0.17200000000E+03 0. -1.
<mgrwt>
<rscale>  2 0.22357198E+03</rscale>
<asrwt>0</asrwt>
<pdfrwt beam="1">  1        2 0.11866704E+00 0.22357198E+03</pdfrwt>
<pdfrwt beam="2">  1       -2 0.27316288E-01 0.22357198E+03</pdfrwt>
<totfact> 0.45505550E+02</totfact>
</mgrwt>
</event>
<event>
 4    1  0.3889096E-001  0.1771917E+03  0.7546771E-02  0.1170549E+00
         -1   -1    0    0    0  501 -0.00000000000E+00  0.00000000000E+00  0.15006202905E+03  0.15006202905E+03  0.00000000000E+00 0. -1.
          1   -1    0    0  502    0  0.00000000000E+00 -0.00000000000E+00 -0.20937740410E+03  0.20937740410E+03  0.00000000000E+00 0.  1.
          6    1    1    2  502    0 -0.34158017296E+02  0.25419368448E+02 -0.34486629340E+02  0.18051659769E+03  0.17200000000E+03 0. -1.
         -6    1    1    2    0  501  0.34158017296E+02 -0.25419368448E+02 -0.24828745709E+02  0.17892283547E+03  0.17200000000E+03 0. -1.
<mgrwt>
<rscale>  2 0.17719174E+03</rscale>
<asrwt>0</asrwt>
<pdfrwt beam="1">  1        1 0.52344351E-01 0.17719174E+03</pdfrwt>
<pdfrwt beam="2">  1       -1 0.37515508E-01 0.17719174E+03</pdfrwt>
<totfact> 0.52034766E+02</totfact>
</mgrwt>
</event>
<event>
 4    1  0.3889096E-001  0.1765572E+03  0.7546771E-02  0.1171177E+00
          2   -1    0    0  502    0  0.00000000000E+00  0.00000000000E+00  0.18868361172E+04  0.18868361172E+04  0.00000000000E+00 0. -1.
         -2   -1    0    0    0  501 -0.00000000000E+00 -0.00000000000E+00 -0.21717187036E+02  0.21717187036E+02  0.00000000000E+00 0.  1.
          6    1    1    2  502    0 -0.16156000639E+02  0.36433773607E+02  0.46577700389E+03  0.49811710829E+03  0.17200000000E+03 0.  1.
         -6    1    1    2    0  501  0.16156000639E+02 -0.36433773607E+02  0.13993419263E+04  0.14104361960E+04  0.17200000000E+03 0. -1.
<mgrwt>
<rscale>  2 0.17655718E+03</rscale>
<asrwt>0</asrwt>
<pdfrwt beam="1">  1        2 0.47170847E+00 0.17655718E+03</pdfrwt>
<pdfrwt beam="2">  1       -2 0.54293032E-02 0.17655718E+03</pdfrwt>
<totfact> 0.33932651E+02</totfact>
</mgrwt>
</event>
<event>
 4    1  0.3889096E-001  0.2056941E+03  0.7546771E-02  0.1145022E+00
         -2   -1    0    0    0  501 -0.00000000000E+00  0.00000000000E+00  0.27716563008E+02  0.27716563008E+02  0.00000000000E+00 0. -1.
          2   -1    0    0  502    0  0.00000000000E+00 -0.00000000000E+00 -0.15608140250E+04  0.15608140250E+04  0.00000000000E+00 0.  1.
          6    1    1    2  502    0 -0.96200178006E+02 -0.58920055361E+02 -0.64882532571E+03  0.68064994708E+03  0.17200000000E+03 0.  1.
         -6    1    1    2    0  501  0.96200178006E+02  0.58920055361E+02 -0.88427213624E+03  0.90788064089E+03  0.17200000000E+03 0. -1.
<mgrwt>
<rscale>  2 0.20569406E+03</rscale>
<asrwt>0</asrwt>
<pdfrwt beam="1">  1        2 0.39020352E+00 0.20569406E+03</pdfrwt>
<pdfrwt beam="2">  1       -2 0.69291405E-02 0.20569406E+03</pdfrwt>
<totfact> 0.46134353E+02</totfact>
</mgrwt>
</event>
<event>
 4    1  0.3889096E-001  0.2444395E+03  0.7546771E-02  0.1116870E+00
         -1   -1    0    0    0  501 -0.00000000000E+00  0.00000000000E+00  0.10881278321E+03  0.10881278321E+03  0.00000000000E+00 0. -1.
          1   -1    0    0  502    0  0.00000000000E+00 -0.00000000000E+00 -0.12989505297E+04  0.12989505297E+04  0.00000000000E+00 0.  1.
          6    1    1    2  502    0 -0.15224786316E+03 -0.83589881985E+02 -0.11298628232E+04  0.11560020240E+04  0.17200000000E+03 0.  1.
         -6    1    1    2    0  501  0.15224786316E+03  0.83589881985E+02 -0.60274923240E+02  0.25176128888E+03  0.17200000000E+03 0. -1.
<mgrwt>
<rscale>  2 0.24443952E+03</rscale>
<asrwt>0</asrwt>
<pdfrwt beam="1">  1        1 0.32473763E+00 0.24443952E+03</pdfrwt>
<pdfrwt beam="2">  1       -1 0.27203196E-01 0.24443952E+03</pdfrwt>
<totfact> 0.35236471E+01</totfact>
</mgrwt>
</event>
<event>
 4    1  0.3889096E-001  0.2154457E+03  0.7546771E-02  0.1137325E+00
         -2   -1    0    0    0  501 -0.00000000000E+00  0.00000000000E+00  0.87088490009E+02  0.87088490009E+02  0.00000000000E+00 0. -1.
          2   -1    0    0  502    0  0.00000000000E+00 -0.00000000000E+00 -0.54074656868E+03  0.54074656868E+03  0.00000000000E+00 0.  1.
          6    1    1    2  502    0  0.10717019404E+03  0.73125973269E+02 -0.26443819291E+03  0.34109297314E+03  0.17200000000E+03 0.  1.
         -6    1    1    2    0  501 -0.10717019404E+03 -0.73125973269E+02 -0.18921988575E+03  0.28674208554E+03  0.17200000000E+03 0. -1.
<mgrwt>
<rscale>  2 0.21544572E+03</rscale>
<asrwt>0</asrwt>
<pdfrwt beam="1">  1        2 0.13518664E+00 0.21544572E+03</pdfrwt>
<pdfrwt beam="2">  1       -2 0.21772123E-01 0.21544572E+03</pdfrwt>
<totfact> 0.57394710E+02</totfact>
</mgrwt>
</event>
<event>
 4    1  0.3889096E-001  0.2112025E+03  0.7546771E-02  0.1140617E+00
         -2   -1    0    0    0  501 -0.00000000000E+00  0.00000000000E+00  0.57077698991E+02  0.57077698991E+02  0.00000000000E+00 0. -1.
          2   -1    0    0  502    0  0.00000000000E+00 -0.00000000000E+00 -0.78291590426E+03  0.78291590426E+03  0.00000000000E+00 0.  1.
          6    1    1    2  502    0  0.90864787183E+02 -0.82256231804E+02 -0.38074962109E+03  0.43540414695E+03  0.17200000000E+03 0.  1.
         -6    1    1    2    0  501 -0.90864787183E+02  0.82256231804E+02 -0.34508858418E+03  0.40458945630E+03  0.17200000000E+03 0. -1.
<mgrwt>
<rscale>  2 0.21120250E+03</rscale>
<asrwt>0</asrwt>
<pdfrwt beam="1">  1        2 0.19572897E+00 0.21120250E+03</pdfrwt>
<pdfrwt beam="2">  1       -2 0.14269425E-01 0.21120250E+03</pdfrwt>
<totfact> 0.68275378E+02</totfact>
</mgrwt>
</event>
<event>
 4    1  0.3889096E-001  0.2331794E+03  0.7546771E-02  0.1124422E+00
         -1   -1    0    0    0  501 -0.00000000000E+00  0.00000000000E+00  0.38349540067E+03  0.38349540067E+03  0.00000000000E+00 0. -1.
          1   -1    0    0  502    0  0.00000000000E+00 -0.00000000000E+00 -0.30255258038E+03  0.30255258038E+03  0.00000000000E+00 0.  1.
          6    1    1    2  502    0 -0.15739917836E+03 -0.37568910148E+01 -0.20957913721E+03  0.31352197743E+03  0.17200000000E+03 0.  1.
         -6    1    1    2    0  501  0.15739917836E+03  0.37568910148E+01  0.29052195751E+03  0.37252600362E+03  0.17200000000E+03 0. -1.
<mgrwt>
<rscale>  2 0.23317936E+03</rscale>
<asrwt>0</asrwt>
<pdfrwt beam="1">  1        1 0.75638145E-01 0.23317936E+03</pdfrwt>
<pdfrwt beam="2">  1       -1 0.95873850E-01 0.23317936E+03</pdfrwt>
<totfact> 0.52331617E+01</totfact>
</mgrwt>
</event>
<event>
 4    1  0.3889096E-001  0.2037621E+03  0.7546771E-02  0.1146603E+00
         -2   -1    0    0    0  501 -0.00000000000E+00  0.00000000000E+00  0.36312932910E+03  0.36312932910E+03  0.00000000000E+00 0.  1.
          2   -1    0    0  502    0  0.00000000000E+00 -0.00000000000E+00 -0.11961381553E+03  0.11961381553E+03  0.00000000000E+00 0. -1.
          6    1    1    2  502    0  0.10630053580E+03 -0.25202601719E+02  0.17245654914E+03  0.26694613012E+03  0.17200000000E+03 0.  1.
         -6    1    1    2    0  501 -0.10630053580E+03  0.25202601719E+02  0.71058964431E+02  0.21579701451E+03  0.17200000000E+03 0. -1.
<mgrwt>
<rscale>  2 0.20376205E+03</rscale>
<asrwt>0</asrwt>
<pdfrwt beam="1">  1        2 0.29903455E-01 0.20376205E+03</pdfrwt>
<pdfrwt beam="2">  1       -2 0.90782330E-01 0.20376205E+03</pdfrwt>
<totfact> 0.19032790E+02</totfact>
</mgrwt>
</event>
<event>
 4    1  0.3889096E-001  0.2237097E+03  0.7546771E-02  0.1131147E+00
          1   -1    0    0  502    0  0.00000000000E+00  0.00000000000E+00  0.20598945535E+03  0.20598945535E+03  0.00000000000E+00 0. -1.
         -1   -1    0    0    0  501 -0.00000000000E+00 -0.00000000000E+00 -0.28066090398E+03  0.28066090398E+03  0.00000000000E+00 0.  1.
          6    1    1    2  502    0 -0.13835805214E+03 -0.36319232702E+02  0.51851865989E+02  0.22964026925E+03  0.17200000000E+03 0.  1.
         -6    1    1    2    0  501  0.13835805214E+03  0.36319232702E+02 -0.12652331462E+03  0.25701009007E+03  0.17200000000E+03 0.  1.
<mgrwt>
<rscale>  2 0.22370972E+03</rscale>
<asrwt>0</asrwt>
<pdfrwt beam="1">  1        1 0.51497364E-01 0.22370972E+03</pdfrwt>
<pdfrwt beam="2">  1       -1 0.70165226E-01 0.22370972E+03</pdfrwt>
<totfact> 0.16516752E+02</totfact>
</mgrwt>
</event>
<event>
 4    1  0.3889096E-001  0.2288780E+03  0.7546771E-02  0.1127432E+00
          1   -1    0    0  502    0  0.00000000000E+00  0.00000000000E+00  0.70094484726E+03  0.70094484726E+03  0.00000000000E+00 0.  1.
         -1   -1    0    0    0  501 -0.00000000000E+00 -0.00000000000E+00 -0.12013708856E+03  0.12013708856E+03  0.00000000000E+00 0. -1.
          6    1    1    2  502    0  0.80211749257E+02  0.12793450175E+03  0.38023530332E+02  0.23201497865E+03  0.17200000000E+03 0. -1.
         -6    1    1    2    0  501 -0.80211749257E+02 -0.12793450175E+03  0.54278422837E+03  0.58906695717E+03  0.17200000000E+03 0.  1.
<mgrwt>
<rscale>  2 0.22887805E+03</rscale>
<asrwt>0</asrwt>
<pdfrwt beam="1">  1        1 0.17523620E+00 0.22887805E+03</pdfrwt>
<pdfrwt beam="2">  1       -1 0.30034274E-01 0.22887805E+03</pdfrwt>
<totfact> 0.13170365E+02</totfact>
</mgrwt>
</event>
<event>
 4    1  0.3889096E-001  0.3191032E+03  0.7546771E-02  0.1076063E+00
         -1   -1    0    0    0  501 -0.00000000000E+00  0.00000000000E+00  0.29014265112E+03  0.29014265112E+03  0.00000000000E+00 0.  1.
          1   -1    0    0  502    0  0.00000000000E+00 -0.00000000000E+00 -0.42608054190E+03  0.42608054190E+03  0.00000000000E+00 0. -1.
          6    1    1    2  502    0  0.23463497274E+03 -0.13110783453E+03  0.82403454253E+02  0.32957118196E+03  0.17200000000E+03 0.  1.
         -6    1    1    2    0  501 -0.23463497274E+03  0.13110783453E+03 -0.21834134503E+03  0.38665201106E+03  0.17200000000E+03 0. -1.
<mgrwt>
<rscale>  2 0.31910317E+03</rscale>
<asrwt>0</asrwt>
<pdfrwt beam="1">  1        1 0.10652014E+00 0.31910317E+03</pdfrwt>
<pdfrwt beam="2">  1       -1 0.72535663E-01 0.31910317E+03</pdfrwt>
<totfact> 0.57404592E+01</totfact>
</mgrwt>
</event>
<event>
 4    1  0.3889096E-001  0.1985355E+03  0.7546771E-02  0.1150980E+00
          4   -1    0    0  502    0  0.00000000000E+00  0.00000000000E+00  0.22820308344E+03  0.22820308344E+03  0.00000000000E+00 0.  1.
         -4   -1    0    0    0  501 -0.00000000000E+00 -0.00000000000E+00 -0.18267920405E+03  0.18267920405E+03  0.00000000000E+00 0. -1.
          6    1    1    2  502    0 -0.38118614569E+02  0.91538692539E+02 -0.25194587205E+02  0.20012777976E+03  0.17200000000E+03 0.  1.
         -6    1    1    2    0  501  0.38118614569E+02 -0.91538692539E+02  0.70718466594E+02  0.21075450772E+03  0.17200000000E+03 0.  1.
<mgrwt>
<rscale>  2 0.19853554E+03</rscale>
<asrwt>0</asrwt>
<pdfrwt beam="1">  1        4 0.57050771E-01 0.19853554E+03</pdfrwt>
<pdfrwt beam="2">  1       -4 0.45669801E-01 0.19853554E+03</pdfrwt>
<totfact> 0.24408912E+01</totfact>
</mgrwt>
</event>
<event>
 4    1  0.3889096E-001  0.1817444E+03  0.7546771E-02  0.1166125E+00
          1   -1    0    0  502    0  0.00000000000E+00  0.00000000000E+00  0.22263599367E+03  0.22263599367E+03  0.00000000000E+00 0.  1.
         -1   -1    0    0    0  501 -0.00000000000E+00 -0.00000000000E+00 -0.32494186006E+03  0.32494186006E+03  0.00000000000E+00 0. -1.
          6    1    1    2  502    0 -0.23681124717E+02  0.53723804727E+02  0.15067527117E+03  0.23608066461E+03  0.17200000000E+03 0.  1.
         -6    1    1    2    0  501  0.23681124717E+02 -0.53723804727E+02 -0.25298113757E+03  0.31149718912E+03  0.17200000000E+03 0. -1.
<mgrwt>
<rscale>  2 0.18174444E+03</rscale>
<asrwt>0</asrwt>
<pdfrwt beam="1">  1        1 0.55658999E-01 0.18174444E+03</pdfrwt>
<pdfrwt beam="2">  1       -1 0.81235464E-01 0.18174444E+03</pdfrwt>
<totfact> 0.11202491E+02</totfact>
</mgrwt>
</event>
<event>
 4    1  0.3889096E-001  0.1877137E+03  0.7546771E-02  0.1160540E+00
          4   -1    0    0  502    0  0.00000000000E+00  0.00000000000E+00  0.51556826685E+03  0.51556826685E+03  0.00000000000E+00 0.  1.
         -4   -1    0    0    0  501 -0.00000000000E+00 -0.00000000000E+00 -0.70352919805E+02  0.70352919805E+02  0.00000000000E+00 0. -1.
          6    1    1    2  502    0  0.74580047101E+02  0.95002725976E+01  0.17311317014E+03  0.25535193024E+03  0.17200000000E+03 0. -1.
         -6    1    1    2    0  501 -0.74580047101E+02 -0.95002725976E+01  0.27210217691E+03  0.33056925641E+03  0.17200000000E+03 0. -1.
<mgrwt>
<rscale>  2 0.18771371E+03</rscale>
<asrwt>0</asrwt>
<pdfrwt beam="1">  1        4 0.12889206E+00 0.18771371E+03</pdfrwt>
<pdfrwt beam="2">  1       -4 0.17588231E-01 0.18771371E+03</pdfrwt>
<totfact> 0.23328634E+01</totfact>
</mgrwt>
</event>
<event>
 4    1  0.3889096E-001  0.2419075E+03  0.7546771E-02  0.1118529E+00
         -2   -1    0    0    0  501 -0.00000000000E+00  0.00000000000E+00  0.70640757549E+02  0.70640757549E+02  0.00000000000E+00 0.  1.
          2   -1    0    0  502    0  0.00000000000E+00 -0.00000000000E+00 -0.82840602026E+03  0.82840602026E+03  0.00000000000E+00 0. -1.
          6    1    1    2  502    0 -0.14525581162E+03  0.88521027786E+02 -0.37874284771E+03  0.44940557169E+03  0.17200000000E+03 0. -1.
         -6    1    1    2    0  501  0.14525581162E+03 -0.88521027786E+02 -0.37902241500E+03  0.44964120612E+03  0.17200000000E+03 0.  1.
<mgrwt>
<rscale>  2 0.24190747E+03</rscale>
<asrwt>0</asrwt>
<pdfrwt beam="1">  1        2 0.20710150E+00 0.24190747E+03</pdfrwt>
<pdfrwt beam="2">  1       -2 0.17660189E-01 0.24190747E+03</pdfrwt>
<totfact> 0.43438943E+02</totfact>
</mgrwt>
</event>
<event>
 4    1  0.3889096E-001  0.2246603E+03  0.7546771E-02  0.1130456E+00
          1   -1    0    0  502    0  0.00000000000E+00  0.00000000000E+00  0.26678631681E+03  0.26678631681E+03  0.00000000000E+00 0. -1.
         -1   -1    0    0    0  501 -0.00000000000E+00 -0.00000000000E+00 -0.23289440567E+03  0.23289440567E+03  0.00000000000E+00 0.  1.
          6    1    1    2  502    0  0.13206699885E+03  0.58707426234E+02 -0.91288420835E+02  0.24249913373E+03  0.17200000000E+03 0.  1.
         -6    1    1    2    0  501 -0.13206699885E+03 -0.58707426234E+02  0.12518033197E+03  0.25718158875E+03  0.17200000000E+03 0. -1.
<mgrwt>
<rscale>  2 0.22466031E+03</rscale>
<asrwt>0</asrwt>
<pdfrwt beam="1">  1        1 0.66696579E-01 0.22466031E+03</pdfrwt>
<pdfrwt beam="2">  1       -1 0.58223602E-01 0.22466031E+03</pdfrwt>
<totfact> 0.17085305E+02</totfact>
</mgrwt>
</event>
<event>
 4    1  0.3889096E-001  0.1897471E+03  0.7546771E-02  0.1158690E+00
         -1   -1    0    0    0  501 -0.00000000000E+00  0.00000000000E+00  0.78815956389E+02  0.78815956389E+02  0.00000000000E+00 0.  1.
          1   -1    0    0  502    0  0.00000000000E+00 -0.00000000000E+00 -0.46773151933E+03  0.46773151933E+03  0.00000000000E+00 0. -1.
          6    1    1    2  502    0 -0.76040983894E+02  0.25253648172E+02 -0.15270112327E+03  0.24356028212E+03  0.17200000000E+03 0.  1.
         -6    1    1    2    0  501  0.76040983894E+02 -0.25253648172E+02 -0.23621443967E+03  0.30298719360E+03  0.17200000000E+03 0.  1.
<mgrwt>
<rscale>  2 0.18974714E+03</rscale>
<asrwt>0</asrwt>
<pdfrwt beam="1">  1        1 0.11693288E+00 0.18974714E+03</pdfrwt>
<pdfrwt beam="2">  1       -1 0.19703990E-01 0.18974714E+03</pdfrwt>
<totfact> 0.52095692E+02</totfact>
</mgrwt>
</event>
<event>
 4    1  0.3889096E-001  0.1768754E+03  0.7546771E-02  0.1170862E+00
          1   -1    0    0  502    0  0.00000000000E+00  0.00000000000E+00  0.90141448064E+02  0.90141448064E+02  0.00000000000E+00 0. -1.
         -1   -1    0    0    0  501 -0.00000000000E+00 -0.00000000000E+00 -0.38194931571E+03  0.38194931571E+03  0.00000000000E+00 0.  1.
          6    1    1    2  502    0 -0.37127630544E+02 -0.17956736025E+02 -0.74567687296E+02  0.19195115344E+03  0.17200000000E+03 0.  1.
         -6    1    1    2    0  501  0.37127630544E+02  0.17956736025E+02 -0.21724018035E+03  0.28013961033E+03  0.17200000000E+03 0.  1.
<mgrwt>
<rscale>  2 0.17687539E+03</rscale>
<asrwt>0</asrwt>
<pdfrwt beam="1">  1        1 0.22535362E-01 0.17687539E+03</pdfrwt>
<pdfrwt beam="2">  1       -1 0.95487328E-01 0.17687539E+03</pdfrwt>
<totfact> 0.24729196E+02</totfact>
</mgrwt>
</event>
<event>
 4    1  0.3889096E-001  0.1753836E+03  0.7546771E-02  0.1172347E+00
         -3   -1    0    0    0  501 -0.00000000000E+00  0.00000000000E+00  0.84541668586E+02  0.84541668586E+02  0.00000000000E+00 0. -1.
          3   -1    0    0  502    0  0.00000000000E+00 -0.00000000000E+00 -0.42889759010E+03  0.42889759010E+03  0.00000000000E+00 0.  1.
          6    1    1    2  502    0  0.11559366595E+01 -0.34264565440E+02 -0.72191569125E+02  0.18966027335E+03  0.17200000000E+03 0. -1.
         -6    1    1    2    0  501 -0.11559366595E+01  0.34264565440E+02 -0.27216435239E+03  0.32377898534E+03  0.17200000000E+03 0.  1.
<mgrwt>
<rscale>  2 0.17538357E+03</rscale>
<asrwt>0</asrwt>
<pdfrwt beam="1">  1        3 0.10722440E+00 0.17538357E+03</pdfrwt>
<pdfrwt beam="2">  1       -3 0.21135417E-01 0.17538357E+03</pdfrwt>
<totfact> 0.37990331E+01</totfact>
</mgrwt>
</event>
<event>
 4    1  0.3889096E-001  0.1782145E+03  0.7546771E-02  0.1169542E+00
          2   -1    0    0  502    0  0.00000000000E+00  0.00000000000E+00  0.13873490271E+04  0.13873490271E+04  0.00000000000E+00 0.  1.
         -2   -1    0    0    0  501 -0.00000000000E+00 -0.00000000000E+00 -0.23508514059E+02  0.23508514059E+02  0.00000000000E+00 0. -1.
          6    1    1    2  502    0 -0.46628115153E+02  0.14873219167E+01  0.79607852589E+03  0.81578269940E+03  0.17200000000E+03 0.  1.
         -6    1    1    2    0  501  0.46628115153E+02 -0.14873219167E+01  0.56776198718E+03  0.59507484179E+03  0.17200000000E+03 0.  1.
<mgrwt>
<rscale>  2 0.17821446E+03</rscale>
<asrwt>0</asrwt>
<pdfrwt beam="1">  1        2 0.34683698E+00 0.17821446E+03</pdfrwt>
<pdfrwt beam="2">  1       -2 0.58771332E-02 0.17821446E+03</pdfrwt>
<totfact> 0.84643145E+02</totfact>
</mgrwt>
</event>
<event>
 4    1  0.3889096E-001  0.2186631E+03  0.7546771E-02  0.1134884E+00
          1   -1    0    0  502    0  0.00000000000E+00  0.00000000000E+00  0.29597199345E+03  0.29597199345E+03  0.00000000000E+00 0. -1.
         -1   -1    0    0    0  501 -0.00000000000E+00 -0.00000000000E+00 -0.27390787568E+03  0.27390787568E+03  0.00000000000E+00 0.  1.
          6    1    1    2  502    0 -0.58038258435E+01  0.13489199890E+03 -0.17146574837E+03  0.27787414170E+03  0.17200000000E+03 0.  1.
         -6    1    1    2    0  501  0.58038258435E+01 -0.13489199890E+03  0.19352986614E+03  0.29200572743E+03  0.17200000000E+03 0. -1.
<mgrwt>
<rscale>  2 0.21866306E+03</rscale>
<asrwt>0</asrwt>
<pdfrwt beam="1">  1        1 0.73992998E-01 0.21866306E+03</pdfrwt>
<pdfrwt beam="2">  1       -1 0.68476969E-01 0.21866306E+03</pdfrwt>
<totfact> 0.10894127E+02</totfact>
</mgrwt>
</event>
<event>
 4    1  0.3889096E-001  0.2099273E+03  0.7546771E-02  0.1141624E+00
          1   -1    0    0  502    0  0.00000000000E+00  0.00000000000E+00  0.10965380285E+03  0.10965380285E+03  0.00000000000E+00 0.  1.
         -1   -1    0    0    0  501 -0.00000000000E+00 -0.00000000000E+00 -0.70537852409E+03  0.70537852409E+03  0.00000000000E+00 0. -1.
          6    1    1    2  502    0 -0.56594485647E+02 -0.10621929897E+03 -0.30561574178E+02  0.21214024864E+03  0.17200000000E+03 0.  1.
         -6    1    1    2    0  501  0.56594485647E+02  0.10621929897E+03 -0.56516314706E+03  0.60289207829E+03  0.17200000000E+03 0. -1.
<mgrwt>
<rscale>  2 0.20992731E+03</rscale>
<asrwt>0</asrwt>
<pdfrwt beam="1">  1        1 0.27413451E-01 0.20992731E+03</pdfrwt>
<pdfrwt beam="2">  1       -1 0.17634463E+00 0.20992731E+03</pdfrwt>
<totfact> 0.42190797E+01</totfact>
</mgrwt>
</event>
<event>
 4    1  0.3889096E-001  0.2121038E+03  0.7546771E-02  0.1139911E+00
         -1   -1    0    0    0  501 -0.00000000000E+00  0.00000000000E+00  0.11946095837E+04  0.11946095837E+04  0.00000000000E+00 0. -1.
          1   -1    0    0  502    0  0.00000000000E+00 -0.00000000000E+00 -0.42221397142E+02  0.42221397142E+02  0.00000000000E+00 0.  1.
          6    1    1    2  502    0 -0.68527226035E+02 -0.10347962865E+03  0.77947760680E+03  0.80782012463E+03  0.17200000000E+03 0. -1.
         -6    1    1    2    0  501  0.68527226035E+02  0.10347962865E+03  0.37291057976E+03  0.42901085621E+03  0.17200000000E+03 0.  1.
<mgrwt>
<rscale>  2 0.21210378E+03</rscale>
<asrwt>0</asrwt>
<pdfrwt beam="1">  1        1 0.10555353E-01 0.21210378E+03</pdfrwt>
<pdfrwt beam="2">  1       -1 0.29865228E+00 0.21210378E+03</pdfrwt>
<totfact> 0.23931568E+01</totfact>
</mgrwt>
</event>
<event>
 4    1  0.3889096E-001  0.3046664E+03  0.7546771E-02  0.1082931E+00
          2   -1    0    0  502    0  0.00000000000E+00  0.00000000000E+00  0.20051868307E+04  0.20051868307E+04  0.00000000000E+00 0. -1.
         -2   -1    0    0    0  501 -0.00000000000E+00 -0.00000000000E+00 -0.61903572807E+02  0.61903572807E+02  0.00000000000E+00 0.  1.
          6    1    1    2  502    0  0.25113211249E+03 -0.13049282559E+02  0.45258804013E+03  0.54558001775E+03  0.17200000000E+03 0.  1.
         -6    1    1    2    0  501 -0.25113211249E+03  0.13049282559E+02  0.14906952177E+04  0.15215103857E+04  0.17200000000E+03 0. -1.
<mgrwt>
<rscale>  2 0.30466641E+03</rscale>
<asrwt>0</asrwt>
<pdfrwt beam="1">  1        2 0.50129649E+00 0.30466641E+03</pdfrwt>
<pdfrwt beam="2">  1       -2 0.15475900E-01 0.30466641E+03</pdfrwt>
<totfact> 0.46725829E+01</totfact>
</mgrwt>
</event>
<event>
 4    1  0.3889096E-001  0.2219372E+03  0.7546771E-02  0.1132447E+00
         -1   -1    0    0    0  501 -0.00000000000E+00  0.00000000000E+00  0.13501487848E+03  0.13501487848E+03  0.00000000000E+00 0.  1.
          1   -1    0    0  502    0  0.00000000000E+00 -0.00000000000E+00 -0.38048269793E+03  0.38048269793E+03  0.00000000000E+00 0. -1.
          6    1    1    2  502    0  0.13593974367E+03  0.34532379358E+02 -0.70438276912E+02  0.23284683805E+03  0.17200000000E+03 0.  1.
         -6    1    1    2    0  501 -0.13593974367E+03 -0.34532379358E+02 -0.17502954254E+03  0.28265073836E+03  0.17200000000E+03 0.  1.
<mgrwt>
<rscale>  2 0.22193715E+03</rscale>
<asrwt>0</asrwt>
<pdfrwt beam="1">  1        1 0.95120674E-01 0.22193715E+03</pdfrwt>
<pdfrwt beam="2">  1       -1 0.33753720E-01 0.22193715E+03</pdfrwt>
<totfact> 0.28495184E+02</totfact>
</mgrwt>
</event>
<event>
 4    1  0.3889096E-001  0.1923587E+03  0.7546771E-02  0.1156351E+00
          2   -1    0    0  502    0  0.00000000000E+00  0.00000000000E+00  0.68571309580E+03  0.68571309580E+03  0.00000000000E+00 0. -1.
         -2   -1    0    0    0  501 -0.00000000000E+00 -0.00000000000E+00 -0.84996764365E+02  0.84996764365E+02  0.00000000000E+00 0.  1.
          6    1    1    2  502    0 -0.86025619284E+02 -0.41773701095E+01  0.53321553919E+03  0.56685154038E+03  0.17200000000E+03 0. -1.
         -6    1    1    2    0  501  0.86025619284E+02  0.41773701095E+01  0.67500792248E+02  0.20385831979E+03  0.17200000000E+03 0.  1.
<mgrwt>
<rscale>  2 0.19235867E+03</rscale>
<asrwt>0</asrwt>
<pdfrwt beam="1">  1        2 0.17142826E+00 0.19235867E+03</pdfrwt>
<pdfrwt beam="2">  1       -2 0.21249193E-01 0.19235867E+03</pdfrwt>
<totfact> 0.43079191E+02</totfact>
</mgrwt>
</event>
<event>
 4    1  0.3889096E-001  0.1737705E+03  0.7546771E-02  0.1173972E+00
          2   -1    0    0  502    0  0.00000000000E+00  0.00000000000E+00  0.91187110747E+02  0.91187110747E+02  0.00000000000E+00 0. -1.
         -2   -1    0    0    0  501 -0.00000000000E+00 -0.00000000000E+00 -0.33136713576E+03  0.33136713576E+03  0.00000000000E+00 0.  1.
          6    1    1    2  502    0  0.24325586710E+02 -0.45235628961E+01 -0.11462530391E+03  0.20817098042E+03  0.17200000000E+03 0.  1.
         -6    1    1    2    0  501 -0.24325586710E+02  0.45235628961E+01 -0.12555472110E+03  0.21438326609E+03  0.17200000000E+03 0.  1.
<mgrwt>
<rscale>  2 0.17377053E+03</rscale>
<asrwt>0</asrwt>
<pdfrwt beam="1">  1        2 0.22796778E-01 0.17377053E+03</pdfrwt>
<pdfrwt beam="2">  1       -2 0.82841783E-01 0.17377053E+03</pdfrwt>
<totfact> 0.31571636E+02</totfact>
</mgrwt>
</event>
<event>
 4    1  0.3889096E-001  0.1820227E+03  0.7546771E-02  0.1165860E+00
          2   -1    0    0  502    0  0.00000000000E+00  0.00000000000E+00  0.26300126923E+03  0.26300126923E+03  0.00000000000E+00 0. -1.
         -2   -1    0    0    0  501 -0.00000000000E+00 -0.00000000000E+00 -0.16809414116E+03  0.16809414116E+03  0.00000000000E+00 0.  1.
          6    1    1    2  502    0 -0.38682895826E+02  0.45298049609E+02 -0.60439430671E+02  0.19179469364E+03  0.17200000000E+03 0.  1.
         -6    1    1    2    0  501  0.38682895826E+02 -0.45298049609E+02  0.15534655874E+03  0.23930071675E+03  0.17200000000E+03 0. -1.
<mgrwt>
<rscale>  2 0.18202275E+03</rscale>
<asrwt>0</asrwt>
<pdfrwt beam="1">  1        2 0.65750317E-01 0.18202275E+03</pdfrwt>
<pdfrwt beam="2">  1       -2 0.42023535E-01 0.18202275E+03</pdfrwt>
<totfact> 0.40557220E+02</totfact>
</mgrwt>
</event>
<event>
 4    1  0.3889096E-001  0.1812339E+03  0.7546771E-02  0.1166614E+00
          2   -1    0    0  502    0  0.00000000000E+00  0.00000000000E+00  0.20828582888E+03  0.20828582888E+03  0.00000000000E+00 0. -1.
         -2   -1    0    0    0  501 -0.00000000000E+00 -0.00000000000E+00 -0.16779590360E+03  0.16779590360E+03  0.00000000000E+00 0.  1.
          6    1    1    2  502    0  0.55372746747E+02  0.13985327292E+02 -0.25890162270E+02  0.18307384020E+03  0.17200000000E+03 0. -1.
         -6    1    1    2    0  501 -0.55372746747E+02 -0.13985327292E+02  0.66380087554E+02  0.19300789229E+03  0.17200000000E+03 0. -1.
<mgrwt>
<rscale>  2 0.18123391E+03</rscale>
<asrwt>0</asrwt>
<pdfrwt beam="1">  1        2 0.52071457E-01 0.18123391E+03</pdfrwt>
<pdfrwt beam="2">  1       -2 0.41948976E-01 0.18123391E+03</pdfrwt>
<totfact> 0.52320776E+02</totfact>
</mgrwt>
</event>
<event>
 4    1  0.3889096E-001  0.2317386E+03  0.7546771E-02  0.1125422E+00
         -2   -1    0    0    0  501 -0.00000000000E+00  0.00000000000E+00  0.21837560353E+03  0.21837560353E+03  0.00000000000E+00 0. -1.
          2   -1    0    0  502    0  0.00000000000E+00 -0.00000000000E+00 -0.32619937547E+03  0.32619937547E+03  0.00000000000E+00 0.  1.
          6    1    1    2  502    0 -0.15527030129E+03 -0.31458418476E+01  0.81167839518E+02  0.24554221827E+03  0.17200000000E+03 0.  1.
         -6    1    1    2    0  501  0.15527030129E+03  0.31458418476E+01 -0.18899161146E+03  0.29903276072E+03  0.17200000000E+03 0.  1.
<mgrwt>
<rscale>  2 0.23173857E+03</rscale>
<asrwt>0</asrwt>
<pdfrwt beam="1">  1        2 0.81549843E-01 0.23173857E+03</pdfrwt>
<pdfrwt beam="2">  1       -2 0.54593901E-01 0.23173857E+03</pdfrwt>
<totfact> 0.18977743E+02</totfact>
</mgrwt>
</event>
<event>
 4    1  0.3889096E-001  0.1752188E+03  0.7546771E-02  0.1172512E+00
         -1   -1    0    0    0  501 -0.00000000000E+00  0.00000000000E+00  0.40521736509E+02  0.40521736509E+02  0.00000000000E+00 0. -1.
          1   -1    0    0  502    0  0.00000000000E+00 -0.00000000000E+00 -0.76368152645E+03  0.76368152645E+03  0.00000000000E+00 0.  1.
          6    1    1    2  502    0  0.20865742866E+02 -0.26119584038E+02 -0.32586820587E+03  0.36998878293E+03  0.17200000000E+03 0. -1.
         -6    1    1    2    0  501 -0.20865742866E+02  0.26119584038E+02 -0.39729158407E+03  0.43421448003E+03  0.17200000000E+03 0.  1.
<mgrwt>
<rscale>  2 0.17521875E+03</rscale>
<asrwt>0</asrwt>
<pdfrwt beam="1">  1        1 0.19092039E+00 0.17521875E+03</pdfrwt>
<pdfrwt beam="2">  1       -1 0.10130434E-01 0.17521875E+03</pdfrwt>
<totfact> 0.64821308E+02</totfact>
</mgrwt>
</event>
<event>
 4    1  0.3889096E-001  0.1904942E+03  0.7546771E-02  0.1158016E+00
         -2   -1    0    0    0  501 -0.00000000000E+00  0.00000000000E+00  0.91648495195E+02  0.91648495195E+02  0.00000000000E+00 0.  1.
          2   -1    0    0  502    0  0.00000000000E+00 -0.00000000000E+00 -0.80630531684E+03  0.80630531684E+03  0.00000000000E+00 0. -1.
          6    1    1    2  502    0 -0.33526161970E+02  0.74699682680E+02 -0.37029628956E+02  0.19405988650E+03  0.17200000000E+03 0.  1.
         -6    1    1    2    0  501  0.33526161970E+02 -0.74699682680E+02 -0.67762719269E+03  0.70389392553E+03  0.17200000000E+03 0. -1.
<mgrwt>
<rscale>  2 0.19049422E+03</rscale>
<asrwt>0</asrwt>
<pdfrwt beam="1">  1        2 0.20157633E+00 0.19049422E+03</pdfrwt>
<pdfrwt beam="2">  1       -2 0.22912124E-01 0.19049422E+03</pdfrwt>
<totfact> 0.29377536E+02</totfact>
</mgrwt>
</event>
<event>
 4    1  0.3889096E-001  0.1847033E+03  0.7546771E-02  0.1163327E+00
         -2   -1    0    0    0  501 -0.00000000000E+00  0.00000000000E+00  0.45536921806E+02  0.45536921806E+02  0.00000000000E+00 0. -1.
          2   -1    0    0  502    0  0.00000000000E+00 -0.00000000000E+00 -0.89869689038E+03  0.89869689038E+03  0.00000000000E+00 0.  1.
          6    1    1    2  502    0  0.36333281594E+02 -0.56667314961E+02 -0.61915056818E+03  0.64611354885E+03  0.17200000000E+03 0.  1.
         -6    1    1    2    0  501 -0.36333281594E+02  0.56667314961E+02 -0.23400940040E+03  0.29812026333E+03  0.17200000000E+03 0. -1.
<mgrwt>
<rscale>  2 0.18470325E+03</rscale>
<asrwt>0</asrwt>
<pdfrwt beam="1">  1        2 0.22467423E+00 0.18470325E+03</pdfrwt>
<pdfrwt beam="2">  1       -2 0.11384230E-01 0.18470325E+03</pdfrwt>
<totfact> 0.78124212E+02</totfact>
</mgrwt>
</event>
<event>
 4    1  0.3889096E-001  0.1858755E+03  0.7546771E-02  0.1162235E+00
          1   -1    0    0  502    0  0.00000000000E+00  0.00000000000E+00  0.40993880220E+03  0.40993880220E+03  0.00000000000E+00 0. -1.
         -1   -1    0    0    0  501 -0.00000000000E+00 -0.00000000000E+00 -0.84659148749E+02  0.84659148749E+02  0.00000000000E+00 0.  1.
          6    1    1    2  502    0  0.19240423518E+02  0.67790136341E+02  0.14609301217E+03  0.23641671829E+03  0.17200000000E+03 0.  1.
         -6    1    1    2    0  501 -0.19240423518E+02 -0.67790136341E+02  0.17918664128E+03  0.25818123266E+03  0.17200000000E+03 0.  1.
<mgrwt>
<rscale>  2 0.18587549E+03</rscale>
<asrwt>0</asrwt>
<pdfrwt beam="1">  1        1 0.10248470E+00 0.18587549E+03</pdfrwt>
<pdfrwt beam="2">  1       -1 0.21164788E-01 0.18587549E+03</pdfrwt>
<totfact> 0.56224941E+02</totfact>
</mgrwt>
</event>
<event>
 4    1  0.3889096E-001  0.1862853E+03  0.7546771E-02  0.1161855E+00
         -1   -1    0    0    0  501 -0.00000000000E+00  0.00000000000E+00  0.28422144465E+02  0.28422144465E+02  0.00000000000E+00 0. -1.
          1   -1    0    0  502    0  0.00000000000E+00 -0.00000000000E+00 -0.15080095402E+04  0.15080095402E+04  0.00000000000E+00 0.  1.
          6    1    1    2  502    0 -0.71419626953E+02  0.41770677925E+01 -0.10749613144E+04  0.10909830605E+04  0.17200000000E+03 0.  1.
         -6    1    1    2    0  501  0.71419626953E+02 -0.41770677925E+01 -0.40462608139E+03  0.44544862414E+03  0.17200000000E+03 0. -1.
<mgrwt>
<rscale>  2 0.18628529E+03</rscale>
<asrwt>0</asrwt>
<pdfrwt beam="1">  1        1 0.37700239E+00 0.18628529E+03</pdfrwt>
<pdfrwt beam="2">  1       -1 0.71055360E-02 0.18628529E+03</pdfrwt>
<totfact> 0.18128953E+02</totfact>
</mgrwt>
</event>
<event>
 4    1  0.3889096E-001  0.2071620E+03  0.7546771E-02  0.1143833E+00
         -2   -1    0    0    0  501 -0.00000000000E+00  0.00000000000E+00  0.72655165230E+02  0.72655165230E+02  0.00000000000E+00 0. -1.
          2   -1    0    0  502    0  0.00000000000E+00 -0.00000000000E+00 -0.61611983119E+03  0.61611983119E+03  0.00000000000E+00 0.  1.
          6    1    1    2  502    0 -0.43929406972E+02 -0.10678148432E+03 -0.34170963396E+03  0.39960174190E+03  0.17200000000E+03 0. -1.
         -6    1    1    2    0  501  0.43929406972E+02  0.10678148432E+03 -0.20175503200E+03  0.28917325452E+03  0.17200000000E+03 0.  1.
<mgrwt>
<rscale>  2 0.20716196E+03</rscale>
<asrwt>0</asrwt>
<pdfrwt beam="1">  1        2 0.15402996E+00 0.20716196E+03</pdfrwt>
<pdfrwt beam="2">  1       -2 0.18163791E-01 0.20716196E+03</pdfrwt>
<totfact> 0.65547089E+02</totfact>
</mgrwt>
</event>
<event>
 4    1  0.3889096E-001  0.1993189E+03  0.7546771E-02  0.1150315E+00
         -2   -1    0    0    0  501 -0.00000000000E+00  0.00000000000E+00  0.38859381563E+02  0.38859381563E+02  0.00000000000E+00 0. -1.
          2   -1    0    0  502    0  0.00000000000E+00 -0.00000000000E+00 -0.10778637055E+04  0.10778637055E+04  0.00000000000E+00 0.  1.
          6    1    1    2  502    0  0.10053985455E+03 -0.59799804417E+01 -0.64621488301E+03  0.67625564511E+03  0.17200000000E+03 0.  1.
         -6    1    1    2    0  501 -0.10053985455E+03  0.59799804417E+01 -0.39278944094E+03  0.44046744196E+03  0.17200000000E+03 0. -1.
<mgrwt>
<rscale>  2 0.19931890E+03</rscale>
<asrwt>0</asrwt>
<pdfrwt beam="1">  1        2 0.26946591E+00 0.19931890E+03</pdfrwt>
<pdfrwt beam="2">  1       -2 0.97148461E-02 0.19931890E+03</pdfrwt>
<totfact> 0.70615771E+02</totfact>
</mgrwt>
</event>
<event>
 4    1  0.3889096E-001  0.2931901E+03  0.7546771E-02  0.1088695E+00
         -1   -1    0    0    0  501 -0.00000000000E+00  0.00000000000E+00  0.90308806194E+02  0.90308806194E+02  0.00000000000E+00 0. -1.
          1   -1    0    0  502    0  0.00000000000E+00 -0.00000000000E+00 -0.10938190869E+04  0.10938190869E+04  0.00000000000E+00 0.  1.
          6    1    1    2  502    0  0.22382941719E+03  0.79226283754E+02 -0.71505628565E+03  0.77282980254E+03  0.17200000000E+03 0.  1.
         -6    1    1    2    0  501 -0.22382941719E+03 -0.79226283754E+02 -0.28845399507E+03  0.41129809057E+03  0.17200000000E+03 0.  1.
<mgrwt>
<rscale>  2 0.29319006E+03</rscale>
<asrwt>0</asrwt>
<pdfrwt beam="1">  1        1 0.27345477E+00 0.29319006E+03</pdfrwt>
<pdfrwt beam="2">  1       -1 0.22577202E-01 0.29319006E+03</pdfrwt>
<totfact> 0.77892004E+01</totfact>
</mgrwt>
</event>
<event>
 4    1  0.3889096E-001  0.2094635E+03  0.7546771E-02  0.1141992E+00
         -2   -1    0    0    0  501 -0.00000000000E+00  0.00000000000E+00  0.67467131111E+02  0.67467131111E+02  0.00000000000E+00 0. -1.
          2   -1    0    0  502    0  0.00000000000E+00 -0.00000000000E+00 -0.72948380712E+03  0.72948380712E+03  0.00000000000E+00 0.  1.
          6    1    1    2  502    0 -0.68851408797E+02  0.97726300672E+02 -0.19973745218E+03  0.28943046858E+03  0.17200000000E+03 0. -1.
         -6    1    1    2    0  501  0.68851408797E+02 -0.97726300672E+02 -0.46227922383E+03  0.50752046965E+03  0.17200000000E+03 0.  1.
<mgrwt>
<rscale>  2 0.20946347E+03</rscale>
<asrwt>0</asrwt>
<pdfrwt beam="1">  1        2 0.18237095E+00 0.20946347E+03</pdfrwt>
<pdfrwt beam="2">  1       -2 0.16866783E-01 0.20946347E+03</pdfrwt>
<totfact> 0.57894071E+02</totfact>
</mgrwt>
</event>
<event>
 4    1  0.3889096E-001  0.2138826E+03  0.7546771E-02  0.1138528E+00
         -1   -1    0    0    0  501 -0.00000000000E+00  0.00000000000E+00  0.89410301023E+02  0.89410301023E+02  0.00000000000E+00 0. -1.
          1   -1    0    0  502    0  0.00000000000E+00 -0.00000000000E+00 -0.61815665674E+03  0.61815665674E+03  0.00000000000E+00 0.  1.
          6    1    1    2  502    0  0.58012401939E+02 -0.11312093312E+03 -0.41123177148E+03  0.46352708029E+03  0.17200000000E+03 0. -1.
         -6    1    1    2    0  501 -0.58012401939E+02  0.11312093312E+03 -0.11751458424E+03  0.24403987748E+03  0.17200000000E+03 0. -1.
<mgrwt>
<rscale>  2 0.21388264E+03</rscale>
<asrwt>0</asrwt>
<pdfrwt beam="1">  1        1 0.15453916E+00 0.21388264E+03</pdfrwt>
<pdfrwt beam="2">  1       -1 0.22352575E-01 0.21388264E+03</pdfrwt>
<totfact> 0.27088568E+02</totfact>
</mgrwt>
</event>
<event>
 4    1  0.3889096E-001  0.2548076E+03  0.7546771E-02  0.1110304E+00
         -3   -1    0    0    0  501 -0.00000000000E+00  0.00000000000E+00  0.29155721817E+03  0.29155721817E+03  0.00000000000E+00 0. -1.
          3   -1    0    0  502    0  0.00000000000E+00 -0.00000000000E+00 -0.32106872126E+03  0.32106872126E+03  0.00000000000E+00 0.  1.
          6    1    1    2  502    0  0.16798856715E+03 -0.84396375325E+02  0.15480164771E+03  0.29814502678E+03  0.17200000000E+03 0. -1.
         -6    1    1    2    0  501 -0.16798856715E+03  0.84396375325E+02 -0.18431315080E+03  0.31448091265E+03  0.17200000000E+03 0.  1.
<mgrwt>
<rscale>  2 0.25480759E+03</rscale>
<asrwt>0</asrwt>
<pdfrwt beam="1">  1        3 0.80267180E-01 0.25480759E+03</pdfrwt>
<pdfrwt beam="2">  1       -3 0.72889305E-01 0.25480759E+03</pdfrwt>
<totfact> 0.66550482E+00</totfact>
</mgrwt>
</event>
<event>
 4    1  0.3889096E-001  0.2065008E+03  0.7546771E-02  0.1144367E+00
          1   -1    0    0  502    0  0.00000000000E+00  0.00000000000E+00  0.51918111049E+03  0.51918111049E+03  0.00000000000E+00 0. -1.
         -1   -1    0    0    0  501 -0.00000000000E+00 -0.00000000000E+00 -0.10264187934E+03  0.10264187934E+03  0.00000000000E+00 0.  1.
          6    1    1    2  502    0 -0.10220472290E+03 -0.51115371474E+02  0.34724295320E+03  0.40400526621E+03  0.17200000000E+03 0. -1.
         -6    1    1    2    0  501  0.10220472290E+03  0.51115371474E+02  0.69296277949E+02  0.21781772362E+03  0.17200000000E+03 0.  1.
<mgrwt>
<rscale>  2 0.20650081E+03</rscale>
<asrwt>0</asrwt>
<pdfrwt beam="1">  1        1 0.12979527E+00 0.20650081E+03</pdfrwt>
<pdfrwt beam="2">  1       -1 0.25660471E-01 0.20650081E+03</pdfrwt>
<totfact> 0.28740590E+02</totfact>
</mgrwt>
</event>
<event>
 4    1  0.3889096E-001  0.1908900E+03  0.7546771E-02  0.1157661E+00
          2   -1    0    0  502    0  0.00000000000E+00  0.00000000000E+00  0.12718456200E+04  0.12718456200E+04  0.00000000000E+00 0. -1.
         -2   -1    0    0    0  501 -0.00000000000E+00 -0.00000000000E+00 -0.29595994369E+02  0.29595994369E+02  0.00000000000E+00 0.  1.
          6    1    1    2  502    0 -0.72360920103E+02 -0.40235539063E+02  0.73743286671E+03  0.76173895415E+03  0.17200000000E+03 0. -1.
         -6    1    1    2    0  501  0.72360920103E+02  0.40235539063E+02  0.50481675890E+03  0.53970266020E+03  0.17200000000E+03 0. -1.
<mgrwt>
<rscale>  2 0.19089002E+03</rscale>
<asrwt>0</asrwt>
<pdfrwt beam="1">  1        2 0.31796122E+00 0.19089002E+03</pdfrwt>
<pdfrwt beam="2">  1       -2 0.73990028E-02 0.19089002E+03</pdfrwt>
<totfact> 0.74292865E+02</totfact>
</mgrwt>
</event>
<event>
 4    1  0.3889096E-001  0.2265174E+03  0.7546771E-02  0.1129115E+00
         -1   -1    0    0    0  501 -0.00000000000E+00  0.00000000000E+00  0.10131838688E+03  0.10131838688E+03  0.00000000000E+00 0.  1.
          1   -1    0    0  502    0  0.00000000000E+00 -0.00000000000E+00 -0.51163476000E+03  0.51163476000E+03  0.00000000000E+00 0. -1.
          6    1    1    2  502    0  0.10549944479E+03  0.10293680380E+03 -0.23608569253E+03  0.32717972529E+03  0.17200000000E+03 0. -1.
         -6    1    1    2    0  501 -0.10549944479E+03 -0.10293680380E+03 -0.17423068059E+03  0.28577342159E+03  0.17200000000E+03 0.  1.
<mgrwt>
<rscale>  2 0.22651737E+03</rscale>
<asrwt>0</asrwt>
<pdfrwt beam="1">  1        1 0.12790869E+00 0.22651737E+03</pdfrwt>
<pdfrwt beam="2">  1       -1 0.25329597E-01 0.22651737E+03</pdfrwt>
<totfact> 0.29959967E+02</totfact>
</mgrwt>
</event>
<event>
 4    1  0.3889096E-001  0.1966920E+03  0.7546771E-02  0.1152560E+00
          1   -1    0    0  502    0  0.00000000000E+00  0.00000000000E+00  0.70585026235E+03  0.70585026235E+03  0.00000000000E+00 0.  1.
         -1   -1    0    0    0  501 -0.00000000000E+00 -0.00000000000E+00 -0.56174419217E+02  0.56174419217E+02  0.00000000000E+00 0. -1.
          6    1    1    2  502    0  0.13430223691E+02  0.94463580619E+02  0.38421574150E+03  0.43163581291E+03  0.17200000000E+03 0.  1.
         -6    1    1    2    0  501 -0.13430223691E+02 -0.94463580619E+02  0.26546010163E+03  0.33038886865E+03  0.17200000000E+03 0. -1.
<mgrwt>
<rscale>  2 0.19669199E+03</rscale>
<asrwt>0</asrwt>
<pdfrwt beam="1">  1        1 0.17646254E+00 0.19669199E+03</pdfrwt>
<pdfrwt beam="2">  1       -1 0.14043607E-01 0.19669199E+03</pdfrwt>
<totfact> 0.45197603E+02</totfact>
</mgrwt>
</event>
<event>
 4    1  0.3889096E-001  0.2839426E+03  0.7546771E-02  0.1093555E+00
          1   -1    0    0  502    0  0.00000000000E+00  0.00000000000E+00  0.35061723724E+03  0.35061723724E+03  0.00000000000E+00 0.  1.
         -1   -1    0    0    0  501 -0.00000000000E+00 -0.00000000000E+00 -0.23039251322E+03  0.23039251322E+03  0.00000000000E+00 0. -1.
          6    1    1    2  502    0 -0.66933548362E+02  0.21577602291E+03  0.47338109788E+02  0.28786157889E+03  0.17200000000E+03 0. -1.
         -6    1    1    2    0  501  0.66933548362E+02 -0.21577602291E+03  0.72886614238E+02  0.29314817157E+03  0.17200000000E+03 0.  1.
<mgrwt>
<rscale>  2 0.28394259E+03</rscale>
<asrwt>0</asrwt>
<pdfrwt beam="1">  1        1 0.87654309E-01 0.28394259E+03</pdfrwt>
<pdfrwt beam="2">  1       -1 0.57598129E-01 0.28394259E+03</pdfrwt>
<totfact> 0.12004745E+02</totfact>
</mgrwt>
</event>
<event>
 4    1  0.3889096E-001  0.2348201E+03  0.7546771E-02  0.1123292E+00
          1   -1    0    0  502    0  0.00000000000E+00  0.00000000000E+00  0.31101887128E+03  0.31101887128E+03  0.00000000000E+00 0.  1.
         -1   -1    0    0    0  501 -0.00000000000E+00 -0.00000000000E+00 -0.21472681581E+03  0.21472681581E+03  0.00000000000E+00 0. -1.
          6    1    1    2  502    0 -0.12858174259E+03 -0.94990510565E+02  0.15790838203E+03  0.28297618052E+03  0.17200000000E+03 0.  1.
         -6    1    1    2    0  501  0.12858174259E+03  0.94990510565E+02 -0.61616326560E+02  0.24276950658E+03  0.17200000000E+03 0. -1.
<mgrwt>
<rscale>  2 0.23482006E+03</rscale>
<asrwt>0</asrwt>
<pdfrwt beam="1">  1        1 0.77754717E-01 0.23482006E+03</pdfrwt>
<pdfrwt beam="2">  1       -1 0.53681704E-01 0.23482006E+03</pdfrwt>
<totfact> 0.16264886E+02</totfact>
</mgrwt>
</event>
<event>
 4    1  0.3889096E-001  0.2707259E+03  0.7546771E-02  0.1100865E+00
          2   -1    0    0  502    0  0.00000000000E+00  0.00000000000E+00  0.26400327946E+03  0.26400327946E+03  0.00000000000E+00 0. -1.
         -2   -1    0    0    0  501 -0.00000000000E+00 -0.00000000000E+00 -0.27825964361E+03  0.27825964361E+03  0.00000000000E+00 0.  1.
          6    1    1    2  502    0  0.18358496436E+03 -0.10002532713E+03  0.58745141042E+01  0.27078961414E+03  0.17200000000E+03 0.  1.
         -6    1    1    2    0  501 -0.18358496436E+03  0.10002532713E+03 -0.20130878252E+02  0.27147330894E+03  0.17200000000E+03 0. -1.
<mgrwt>
<rscale>  2 0.27072589E+03</rscale>
<asrwt>0</asrwt>
<pdfrwt beam="1">  1        2 0.66000820E-01 0.27072589E+03</pdfrwt>
<pdfrwt beam="2">  1       -2 0.69564911E-01 0.27072589E+03</pdfrwt>
<totfact> 0.14422761E+02</totfact>
</mgrwt>
</event>
<event>
 4    1  0.3889096E-001  0.1770453E+03  0.7546771E-02  0.1170694E+00
         -1   -1    0    0    0  501 -0.00000000000E+00  0.00000000000E+00  0.28410784873E+03  0.28410784873E+03  0.00000000000E+00 0.  1.
          1   -1    0    0  502    0  0.00000000000E+00 -0.00000000000E+00 -0.11874535785E+03  0.11874535785E+03  0.00000000000E+00 0. -1.
          6    1    1    2  502    0  0.29330924505E+02 -0.30012432184E+02  0.13630985560E+03  0.22343998288E+03  0.17200000000E+03 0.  1.
         -6    1    1    2    0  501 -0.29330924505E+02  0.30012432184E+02  0.29052635279E+02  0.17941322369E+03  0.17200000000E+03 0. -1.
<mgrwt>
<rscale>  2 0.17704533E+03</rscale>
<asrwt>0</asrwt>
<pdfrwt beam="1">  1        1 0.29686340E-01 0.17704533E+03</pdfrwt>
<pdfrwt beam="2">  1       -1 0.71026961E-01 0.17704533E+03</pdfrwt>
<totfact> 0.32312751E+02</totfact>
</mgrwt>
</event>
<event>
 4    1  0.3889096E-001  0.2288269E+03  0.7546771E-02  0.1127468E+00
          2   -1    0    0  502    0  0.00000000000E+00  0.00000000000E+00  0.12409364534E+03  0.12409364534E+03  0.00000000000E+00 0. -1.
         -2   -1    0    0    0  501 -0.00000000000E+00 -0.00000000000E+00 -0.43417516890E+03  0.43417516890E+03  0.00000000000E+00 0.  1.
          6    1    1    2  502    0 -0.85037999533E+02  0.12468466667E+03 -0.20187344872E+03  0.30514687737E+03  0.17200000000E+03 0.  1.
         -6    1    1    2    0  501  0.85037999533E+02 -0.12468466667E+03 -0.10820807484E+03  0.25312193688E+03  0.17200000000E+03 0. -1.
<mgrwt>
<rscale>  2 0.22882685E+03</rscale>
<asrwt>0</asrwt>
<pdfrwt beam="1">  1        2 0.31023412E-01 0.22882685E+03</pdfrwt>
<pdfrwt beam="2">  1       -2 0.10854379E+00 0.22882685E+03</pdfrwt>
<totfact> 0.12061511E+02</totfact>
</mgrwt>
</event>
<event>
 4    1  0.3889096E-001  0.2514119E+03  0.7546771E-02  0.1112416E+00
         -2   -1    0    0    0  501 -0.00000000000E+00  0.00000000000E+00  0.97955767413E+02  0.97955767413E+02  0.00000000000E+00 0. -1.
          2   -1    0    0  502    0  0.00000000000E+00 -0.00000000000E+00 -0.12221577259E+04  0.12221577259E+04  0.00000000000E+00 0.  1.
          6    1    1    2  502    0 -0.18036736467E+03 -0.33038874678E+02 -0.10155862221E+04  0.10462424805E+04  0.17200000000E+03 0.  1.
         -6    1    1    2    0  501  0.18036736467E+03  0.33038874678E+02 -0.10861573641E+03  0.27387101284E+03  0.17200000000E+03 0. -1.
<mgrwt>
<rscale>  2 0.25141192E+03</rscale>
<asrwt>0</asrwt>
<pdfrwt beam="1">  1        2 0.30553942E+00 0.25141192E+03</pdfrwt>
<pdfrwt beam="2">  1       -2 0.24488943E-01 0.25141192E+03</pdfrwt>
<totfact> 0.11307787E+02</totfact>
</mgrwt>
</event>
<event>
 4    1  0.3889096E-001  0.1970192E+03  0.7546771E-02  0.1152279E+00
          2   -1    0    0  502    0  0.00000000000E+00  0.00000000000E+00  0.11868551528E+04  0.11868551528E+04  0.00000000000E+00 0. -1.
         -2   -1    0    0    0  501 -0.00000000000E+00 -0.00000000000E+00 -0.46871469336E+02  0.46871469336E+02  0.00000000000E+00 0.  1.
          6    1    1    2  502    0 -0.23517083780E+02 -0.93163810653E+02  0.23086696893E+03  0.30350635280E+03  0.17200000000E+03 0.  1.
         -6    1    1    2    0  501  0.23517083780E+02  0.93163810653E+02  0.90911671457E+03  0.93022026938E+03  0.17200000000E+03 0. -1.
<mgrwt>
<rscale>  2 0.19701916E+03</rscale>
<asrwt>0</asrwt>
<pdfrwt beam="1">  1        2 0.29671369E+00 0.19701916E+03</pdfrwt>
<pdfrwt beam="2">  1       -2 0.11717871E-01 0.19701916E+03</pdfrwt>
<totfact> 0.42402819E+02</totfact>
</mgrwt>
</event>
<event>
 4    1  0.3889096E-001  0.1927799E+03  0.7546771E-02  0.1155978E+00
         -2   -1    0    0    0  501 -0.00000000000E+00  0.00000000000E+00  0.49592793190E+02  0.49592793190E+02  0.00000000000E+00 0. -1.
          2   -1    0    0  502    0  0.00000000000E+00 -0.00000000000E+00 -0.14391478294E+04  0.14391478294E+04  0.00000000000E+00 0.  1.
          6    1    1    2  502    0  0.95605007942E+01  0.86537162192E+02 -0.12101085645E+04  0.12253680351E+04  0.17200000000E+03 0.  1.
         -6    1    1    2    0  501 -0.95605007942E+01 -0.86537162192E+02 -0.17944647168E+03  0.26337258744E+03  0.17200000000E+03 0. -1.
<mgrwt>
<rscale>  2 0.19277988E+03</rscale>
<asrwt>0</asrwt>
<pdfrwt beam="1">  1        2 0.35978698E+00 0.19277988E+03</pdfrwt>
<pdfrwt beam="2">  1       -2 0.12398198E-01 0.19277988E+03</pdfrwt>
<totfact> 0.23642748E+02</totfact>
</mgrwt>
</event>
<event>
 4    1  0.3889096E-001  0.2621991E+03  0.7546771E-02  0.1105829E+00
         -2   -1    0    0    0  501 -0.00000000000E+00  0.00000000000E+00  0.19167423446E+03  0.19167423446E+03  0.00000000000E+00 0.  1.
          2   -1    0    0  502    0  0.00000000000E+00 -0.00000000000E+00 -0.39534425235E+03  0.39534425235E+03  0.00000000000E+00 0. -1.
          6    1    1    2  502    0 -0.19293346433E+03 -0.44057111622E+02 -0.12443222332E+02  0.26249416093E+03  0.17200000000E+03 0.  1.
         -6    1    1    2    0  501  0.19293346433E+03  0.44057111622E+02 -0.19122679556E+03  0.32452432587E+03  0.17200000000E+03 0. -1.
<mgrwt>
<rscale>  2 0.26219907E+03</rscale>
<asrwt>0</asrwt>
<pdfrwt beam="1">  1        2 0.98836062E-01 0.26219907E+03</pdfrwt>
<pdfrwt beam="2">  1       -2 0.47918559E-01 0.26219907E+03</pdfrwt>
<totfact> 0.19673579E+02</totfact>
</mgrwt>
</event>
<event>
 4    1  0.3889096E-001  0.1997240E+03  0.7546771E-02  0.1149972E+00
          2   -1    0    0  502    0  0.00000000000E+00  0.00000000000E+00  0.16722388156E+04  0.16722388156E+04  0.00000000000E+00 0.  1.
         -2   -1    0    0    0  501 -0.00000000000E+00 -0.00000000000E+00 -0.24385177233E+02  0.24385177233E+02  0.00000000000E+00 0. -1.
          6    1    1    2  502    0  0.83353453115E+02  0.57947134701E+02  0.69873040945E+03  0.72671442373E+03  0.17200000000E+03 0. -1.
         -6    1    1    2    0  501 -0.83353453115E+02 -0.57947134701E+02  0.94912322888E+03  0.96990956907E+03  0.17200000000E+03 0. -1.
<mgrwt>
<rscale>  2 0.19972398E+03</rscale>
<asrwt>0</asrwt>
<pdfrwt beam="1">  1        2 0.41805932E+00 0.19972398E+03</pdfrwt>
<pdfrwt beam="2">  1       -2 0.60963000E-02 0.19972398E+03</pdfrwt>
<totfact> 0.44715479E+02</totfact>
</mgrwt>
</event>
<event>
 4    1  0.3889096E-001  0.1882649E+03  0.7546771E-02  0.1160036E+00
         -1   -1    0    0    0  501 -0.00000000000E+00  0.00000000000E+00  0.28020049792E+03  0.28020049792E+03  0.00000000000E+00 0. -1.
          1   -1    0    0  502    0  0.00000000000E+00 -0.00000000000E+00 -0.16383426673E+03  0.16383426673E+03  0.00000000000E+00 0.  1.
          6    1    1    2  502    0 -0.76365019149E+02 -0.52979661248E+01 -0.47808925776E+02  0.19424051580E+03  0.17200000000E+03 0.  1.
         -6    1    1    2    0  501  0.76365019149E+02  0.52979661248E+01  0.16417515697E+03  0.24979424885E+03  0.17200000000E+03 0. -1.
<mgrwt>
<rscale>  2 0.18826493E+03</rscale>
<asrwt>0</asrwt>
<pdfrwt beam="1">  1        1 0.40958567E-01 0.18826493E+03</pdfrwt>
<pdfrwt beam="2">  1       -1 0.70050124E-01 0.18826493E+03</pdfrwt>
<totfact> 0.22190280E+02</totfact>
</mgrwt>
</event>
<event>
 4    1  0.3889096E-001  0.2103988E+03  0.7546771E-02  0.1141251E+00
          4   -1    0    0  502    0  0.00000000000E+00  0.00000000000E+00  0.22487969866E+03  0.22487969866E+03  0.00000000000E+00 0. -1.
         -4   -1    0    0    0  501 -0.00000000000E+00 -0.00000000000E+00 -0.21908818103E+03  0.21908818103E+03  0.00000000000E+00 0.  1.
          6    1    1    2  502    0  0.87825405542E+02 -0.83488733629E+02 -0.67826689946E+02  0.22106137241E+03  0.17200000000E+03 0. -1.
         -6    1    1    2    0  501 -0.87825405542E+02  0.83488733629E+02  0.73618207574E+02  0.22290650728E+03  0.17200000000E+03 0. -1.
<mgrwt>
<rscale>  2 0.21039884E+03</rscale>
<asrwt>0</asrwt>
<pdfrwt beam="1">  1        4 0.56219925E-01 0.21039884E+03</pdfrwt>
<pdfrwt beam="2">  1       -4 0.54772045E-01 0.21039884E+03</pdfrwt>
<totfact> 0.17430348E+01</totfact>
</mgrwt>
</event>
<event>
 4    1  0.3889096E-001  0.2150528E+03  0.7546771E-02  0.1137626E+00
          1   -1    0    0  502    0  0.00000000000E+00  0.00000000000E+00  0.42532508328E+03  0.42532508328E+03  0.00000000000E+00 0.  1.
         -1   -1    0    0    0  501 -0.00000000000E+00 -0.00000000000E+00 -0.11175978417E+03  0.11175978417E+03  0.00000000000E+00 0. -1.
          6    1    1    2  502    0  0.56523055441E+02 -0.11605542562E+03  0.11260340993E+03  0.24274934714E+03  0.17200000000E+03 0. -1.
         -6    1    1    2    0  501 -0.56523055441E+02  0.11605542562E+03  0.20096188918E+03  0.29433552031E+03  0.17200000000E+03 0.  1.
<mgrwt>
<rscale>  2 0.21505283E+03</rscale>
<asrwt>0</asrwt>
<pdfrwt beam="1">  1        1 0.10633127E+00 0.21505283E+03</pdfrwt>
<pdfrwt beam="2">  1       -1 0.27939947E-01 0.21505283E+03</pdfrwt>
<totfact> 0.33598358E+02</totfact>
</mgrwt>
</event>
<event>
 4    1  0.3889096E-001  0.1745682E+03  0.7546771E-02  0.1173166E+00
          1   -1    0    0  502    0  0.00000000000E+00  0.00000000000E+00  0.74132595688E+03  0.74132595688E+03  0.00000000000E+00 0. -1.
         -1   -1    0    0    0  501 -0.00000000000E+00 -0.00000000000E+00 -0.60535355471E+02  0.60535355471E+02  0.00000000000E+00 0.  1.
          6    1    1    2  502    0 -0.13527736403E+02 -0.26590687786E+02  0.56752662566E+03  0.59376808197E+03  0.17200000000E+03 0. -1.
         -6    1    1    2    0  501  0.13527736403E+02  0.26590687786E+02  0.11326397575E+03  0.20809323038E+03  0.17200000000E+03 0.  1.
<mgrwt>
<rscale>  2 0.17456822E+03</rscale>
<asrwt>0</asrwt>
<pdfrwt beam="1">  1        1 0.18533146E+00 0.17456822E+03</pdfrwt>
<pdfrwt beam="2">  1       -1 0.15133841E-01 0.17456822E+03</pdfrwt>
<totfact> 0.36760650E+02</totfact>
</mgrwt>
</event>
<event>
 4    1  0.3889096E-001  0.2011747E+03  0.7546771E-02  0.1148752E+00
         -1   -1    0    0    0  501 -0.00000000000E+00  0.00000000000E+00  0.38478992108E+02  0.38478992108E+02  0.00000000000E+00 0.  1.
          1   -1    0    0  502    0  0.00000000000E+00 -0.00000000000E+00 -0.12386279431E+04  0.12386279431E+04  0.00000000000E+00 0. -1.
          6    1    1    2  502    0  0.59733781861E+02  0.85551985707E+02 -0.84808838960E+03  0.87162215640E+03  0.17200000000E+03 0.  1.
         -6    1    1    2    0  501 -0.59733781861E+02 -0.85551985707E+02 -0.35206056136E+03  0.40548477878E+03  0.17200000000E+03 0.  1.
<mgrwt>
<rscale>  2 0.20117472E+03</rscale>
<asrwt>0</asrwt>
<pdfrwt beam="1">  1        1 0.30965698E+00 0.20117472E+03</pdfrwt>
<pdfrwt beam="2">  1       -1 0.96197481E-02 0.20117472E+03</pdfrwt>
<totfact> 0.21856684E+02</totfact>
</mgrwt>
</event>
<event>
 4    1  0.3889096E-001  0.1776904E+03  0.7546771E-02  0.1170057E+00
          2   -1    0    0  502    0  0.00000000000E+00  0.00000000000E+00  0.93531973056E+03  0.93531973056E+03  0.00000000000E+00 0.  1.
         -2   -1    0    0    0  501 -0.00000000000E+00 -0.00000000000E+00 -0.33773793261E+02  0.33773793261E+02  0.00000000000E+00 0. -1.
          6    1    1    2  502    0  0.44410673900E+02 -0.41896062392E+01  0.44006242802E+03  0.47458276550E+03  0.17200000000E+03 0. -1.
         -6    1    1    2    0  501 -0.44410673900E+02  0.41896062392E+01  0.46148350928E+03  0.49451075832E+03  0.17200000000E+03 0.  1.
<mgrwt>
<rscale>  2 0.17769035E+03</rscale>
<asrwt>0</asrwt>
<pdfrwt beam="1">  1        2 0.23382985E+00 0.17769035E+03</pdfrwt>
<pdfrwt beam="2">  1       -2 0.84434514E-02 0.17769035E+03</pdfrwt>
<totfact> 0.11660326E+03</totfact>
</mgrwt>
</event>
<event>
 4    1  0.3889096E-001  0.2033905E+03  0.7546771E-02  0.1146910E+00
         -2   -1    0    0    0  501 -0.00000000000E+00  0.00000000000E+00  0.14263281537E+03  0.14263281537E+03  0.00000000000E+00 0.  1.
          2   -1    0    0  502    0  0.00000000000E+00 -0.00000000000E+00 -0.30178163419E+03  0.30178163419E+03  0.00000000000E+00 0. -1.
          6    1    1    2  502    0 -0.27009550816E+01  0.10851911793E+03 -0.12342485703E+03  0.23791046519E+03  0.17200000000E+03 0.  1.
         -6    1    1    2    0  501  0.27009550816E+01 -0.10851911793E+03 -0.35723961795E+02  0.20650398437E+03  0.17200000000E+03 0.  1.
<mgrwt>
<rscale>  2 0.20339050E+03</rscale>
<asrwt>0</asrwt>
<pdfrwt beam="1">  1        2 0.75445408E-01 0.20339050E+03</pdfrwt>
<pdfrwt beam="2">  1       -2 0.35658204E-01 0.20339050E+03</pdfrwt>
<totfact> 0.47562794E+02</totfact>
</mgrwt>
</event>
<event>
 4    1  0.3889096E-001  0.2175644E+03  0.7546771E-02  0.1135712E+00
          2   -1    0    0  502    0  0.00000000000E+00  0.00000000000E+00  0.64588722648E+03  0.64588722648E+03  0.00000000000E+00 0.  1.
         -2   -1    0    0    0  501 -0.00000000000E+00 -0.00000000000E+00 -0.82741999839E+02  0.82741999839E+02  0.00000000000E+00 0. -1.
          6    1    1    2  502    0 -0.10411980217E+03  0.83122331119E+02  0.40473432297E+03  0.45950421905E+03  0.17200000000E+03 0.  1.
         -6    1    1    2    0  501  0.10411980217E+03 -0.83122331119E+02  0.15841090367E+03  0.26912500727E+03  0.17200000000E+03 0. -1.
<mgrwt>
<rscale>  2 0.21756437E+03</rscale>
<asrwt>0</asrwt>
<pdfrwt beam="1">  1        2 0.16147179E+00 0.21756437E+03</pdfrwt>
<pdfrwt beam="2">  1       -2 0.20685502E-01 0.21756437E+03</pdfrwt>
<totfact> 0.49081992E+02</totfact>
</mgrwt>
</event>
<event>
 4    1  0.3889096E-001  0.1924220E+03  0.7546771E-02  0.1156295E+00
         -2   -1    0    0    0  501 -0.00000000000E+00  0.00000000000E+00  0.35293593313E+03  0.35293593313E+03  0.00000000000E+00 0. -1.
          2   -1    0    0  502    0  0.00000000000E+00 -0.00000000000E+00 -0.26825551400E+03  0.26825551400E+03  0.00000000000E+00 0.  1.
          6    1    1    2  502    0  0.65972826188E+02  0.55585941189E+02  0.28470854030E+03  0.34363521876E+03  0.17200000000E+03 0. -1.
         -6    1    1    2    0  501 -0.65972826188E+02 -0.55585941189E+02 -0.20002812117E+03  0.27755622838E+03  0.17200000000E+03 0.  1.
<mgrwt>
<rscale>  2 0.19242196E+03</rscale>
<asrwt>0</asrwt>
<pdfrwt beam="1">  1        2 0.67063879E-01 0.19242196E+03</pdfrwt>
<pdfrwt beam="2">  1       -2 0.88233983E-01 0.19242196E+03</pdfrwt>
<totfact> 0.84958724E+01</totfact>
</mgrwt>
</event>
<event>
 4    1  0.3889096E-001  0.2061557E+03  0.7546771E-02  0.1144647E+00
          2   -1    0    0  502    0  0.00000000000E+00  0.00000000000E+00  0.22401298301E+03  0.22401298301E+03  0.00000000000E+00 0.  1.
         -2   -1    0    0    0  501 -0.00000000000E+00 -0.00000000000E+00 -0.20960897525E+03  0.20960897525E+03  0.00000000000E+00 0. -1.
          6    1    1    2  502    0 -0.11347811274E+03 -0.62358477335E+01  0.73984375118E+02  0.21902934879E+03  0.17200000000E+03 0.  1.
         -6    1    1    2    0  501  0.11347811274E+03  0.62358477335E+01 -0.59580367356E+02  0.21459260948E+03  0.17200000000E+03 0. -1.
<mgrwt>
<rscale>  2 0.20615569E+03</rscale>
<asrwt>0</asrwt>
<pdfrwt beam="1">  1        2 0.56003246E-01 0.20615569E+03</pdfrwt>
<pdfrwt beam="2">  1       -2 0.52402244E-01 0.20615569E+03</pdfrwt>
<totfact> 0.31228949E+02</totfact>
</mgrwt>
</event>
<event>
 4    1  0.3889096E-001  0.2136729E+03  0.7546771E-02  0.1138690E+00
         -2   -1    0    0    0  501 -0.00000000000E+00  0.00000000000E+00  0.67215635876E+02  0.67215635876E+02  0.00000000000E+00 0. -1.
          2   -1    0    0  502    0  0.00000000000E+00 -0.00000000000E+00 -0.96357554850E+03  0.96357554850E+03  0.00000000000E+00 0.  1.
          6    1    1    2  502    0  0.16273038244E+02  0.12572702531E+03 -0.16821274828E+03  0.27194048127E+03  0.17200000000E+03 0. -1.
         -6    1    1    2    0  501 -0.16273038244E+02 -0.12572702531E+03 -0.72814716434E+03  0.75885070311E+03  0.17200000000E+03 0.  1.
<mgrwt>
<rscale>  2 0.21367287E+03</rscale>
<asrwt>0</asrwt>
<pdfrwt beam="1">  1        2 0.24089389E+00 0.21367287E+03</pdfrwt>
<pdfrwt beam="2">  1       -2 0.16803909E-01 0.21367287E+03</pdfrwt>
<totfact> 0.36179659E+02</totfact>
</mgrwt>
</event>
<event>
 4    1  0.3889096E-001  0.1893096E+03  0.7546771E-02  0.1159086E+00
          2   -1    0    0  502    0  0.00000000000E+00  0.00000000000E+00  0.89929066339E+03  0.89929066339E+03  0.00000000000E+00 0.  1.
         -2   -1    0    0    0  501 -0.00000000000E+00 -0.00000000000E+00 -0.41075716454E+02  0.41075716454E+02  0.00000000000E+00 0. -1.
          6    1    1    2  502    0 -0.61065446417E+02  0.50250709990E+02  0.34793746390E+03  0.39610428095E+03  0.17200000000E+03 0. -1.
         -6    1    1    2    0  501  0.61065446417E+02 -0.50250709990E+02  0.51027748304E+03  0.54426209890E+03  0.17200000000E+03 0.  1.
<mgrwt>
<rscale>  2 0.18930959E+03</rscale>
<asrwt>0</asrwt>
<pdfrwt beam="1">  1        2 0.22482260E+00 0.18930959E+03</pdfrwt>
<pdfrwt beam="2">  1       -2 0.10268932E-01 0.18930959E+03</pdfrwt>
<totfact> 0.91919798E+02</totfact>
</mgrwt>
</event>
<event>
 4    1  0.3889096E-001  0.2011159E+03  0.7546771E-02  0.1148801E+00
          2   -1    0    0  502    0  0.00000000000E+00  0.00000000000E+00  0.82298489180E+03  0.82298489180E+03  0.00000000000E+00 0. -1.
         -2   -1    0    0    0  501 -0.00000000000E+00 -0.00000000000E+00 -0.49614572792E+02  0.49614572792E+02  0.00000000000E+00 0.  1.
          6    1    1    2  502    0  0.57025479028E+02 -0.87245013095E+02  0.42902041677E+03  0.47382076313E+03  0.17200000000E+03 0.  1.
         -6    1    1    2    0  501 -0.57025479028E+02  0.87245013095E+02  0.34434990224E+03  0.39877870147E+03  0.17200000000E+03 0.  1.
<mgrwt>
<rscale>  2 0.20111588E+03</rscale>
<asrwt>0</asrwt>
<pdfrwt beam="1">  1        2 0.20574618E+00 0.20111588E+03</pdfrwt>
<pdfrwt beam="2">  1       -2 0.12403646E-01 0.20111588E+03</pdfrwt>
<totfact> 0.79093377E+02</totfact>
</mgrwt>
</event>
<event>
 4    1  0.3889096E-001  0.2342602E+03  0.7546771E-02  0.1123677E+00
          1   -1    0    0  502    0  0.00000000000E+00  0.00000000000E+00  0.59953866183E+02  0.59953866183E+02  0.00000000000E+00 0.  1.
         -1   -1    0    0    0  501 -0.00000000000E+00 -0.00000000000E+00 -0.92187171724E+03  0.92187171724E+03  0.00000000000E+00 0. -1.
          6    1    1    2  502    0  0.15781691224E+03  0.19688589880E+02 -0.38961813961E+03  0.45462084540E+03  0.17200000000E+03 0.  1.
         -6    1    1    2    0  501 -0.15781691224E+03 -0.19688589880E+02 -0.47229971145E+03  0.52720473802E+03  0.17200000000E+03 0. -1.
<mgrwt>
<rscale>  2 0.23426015E+03</rscale>
<asrwt>0</asrwt>
<pdfrwt beam="1">  1        1 0.14988466E-01 0.23426015E+03</pdfrwt>
<pdfrwt beam="2">  1       -1 0.23046793E+00 0.23426015E+03</pdfrwt>
<totfact> 0.39870619E+01</totfact>
</mgrwt>
</event>
<event>
 4    1  0.3889096E-001  0.1721275E+03  0.7546771E-02  0.1175647E+00
         -1   -1    0    0    0  501 -0.00000000000E+00  0.00000000000E+00  0.20593416413E+03  0.20593416413E+03  0.00000000000E+00 0.  1.
          1   -1    0    0  502    0  0.00000000000E+00 -0.00000000000E+00 -0.14398494716E+03  0.14398494716E+03  0.00000000000E+00 0. -1.
          6    1    1    2  502    0  0.62997072875E+01 -0.20465102871E+01  0.26044387955E+02  0.17408671592E+03  0.17200000000E+03 0. -1.
         -6    1    1    2    0  501 -0.62997072875E+01  0.20465102871E+01  0.35904829016E+02  0.17583239537E+03  0.17200000000E+03 0.  1.
<mgrwt>
<rscale>  2 0.17212749E+03</rscale>
<asrwt>0</asrwt>
<pdfrwt beam="1">  1        1 0.35996237E-01 0.17212749E+03</pdfrwt>
<pdfrwt beam="2">  1       -1 0.51483541E-01 0.17212749E+03</pdfrwt>
<totfact> 0.47059960E+02</totfact>
</mgrwt>
</event>
<event>
 4    1  0.3889096E-001  0.1969295E+03  0.7546771E-02  0.1152356E+00
          2   -1    0    0  502    0  0.00000000000E+00  0.00000000000E+00  0.13422922967E+03  0.13422922967E+03  0.00000000000E+00 0.  1.
         -2   -1    0    0    0  501 -0.00000000000E+00 -0.00000000000E+00 -0.29651991987E+03  0.29651991987E+03  0.00000000000E+00 0. -1.
          6    1    1    2  502    0 -0.88650443128E+02 -0.36583217681E+02 -0.11563038855E+03  0.22836729109E+03  0.17200000000E+03 0.  1.
         -6    1    1    2    0  501  0.88650443128E+02  0.36583217681E+02 -0.46660301646E+02  0.20238185846E+03  0.17200000000E+03 0. -1.
<mgrwt>
<rscale>  2 0.19692951E+03</rscale>
<asrwt>0</asrwt>
<pdfrwt beam="1">  1        2 0.33557308E-01 0.19692951E+03</pdfrwt>
<pdfrwt beam="2">  1       -2 0.74129979E-01 0.19692951E+03</pdfrwt>
<totfact> 0.26295811E+02</totfact>
</mgrwt>
</event>
<event>
 4    1  0.3889096E-001  0.1823660E+03  0.7546771E-02  0.1165533E+00
         -1   -1    0    0    0  501 -0.00000000000E+00  0.00000000000E+00  0.22710537502E+02  0.22710537502E+02  0.00000000000E+00 0. -1.
          1   -1    0    0  502    0  0.00000000000E+00 -0.00000000000E+00 -0.15799523095E+04  0.15799523095E+04  0.00000000000E+00 0.  1.
          6    1    1    2  502    0  0.60604757043E+02 -0.63592570930E+00 -0.99532992614E+03  0.10118987118E+04  0.17200000000E+03 0.  1.
         -6    1    1    2    0  501 -0.60604757043E+02  0.63592570930E+00 -0.56191184582E+03  0.59076413521E+03  0.17200000000E+03 0. -1.
<mgrwt>
<rscale>  2 0.18236595E+03</rscale>
<asrwt>0</asrwt>
<pdfrwt beam="1">  1        1 0.39498799E+00 0.18236595E+03</pdfrwt>
<pdfrwt beam="2">  1       -1 0.56776357E-02 0.18236595E+03</pdfrwt>
<totfact> 0.21309944E+02</totfact>
</mgrwt>
</event>
<event>
 4    1  0.3889096E-001  0.1973210E+03  0.7546771E-02  0.1152019E+00
          1   -1    0    0  502    0  0.00000000000E+00  0.00000000000E+00  0.17139917429E+03  0.17139917429E+03  0.00000000000E+00 0. -1.
         -1   -1    0    0    0  501 -0.00000000000E+00 -0.00000000000E+00 -0.31485137061E+03  0.31485137061E+03  0.00000000000E+00 0.  1.
          6    1    1    2  502    0 -0.27050752015E+02 -0.92843127656E+02  0.56580133273E+02  0.20527274787E+03  0.17200000000E+03 0. -1.
         -6    1    1    2    0  501  0.27050752015E+02  0.92843127656E+02 -0.20003232959E+03  0.28097779702E+03  0.17200000000E+03 0.  1.
<mgrwt>
<rscale>  2 0.19732103E+03</rscale>
<asrwt>0</asrwt>
<pdfrwt beam="1">  1        1 0.42849794E-01 0.19732103E+03</pdfrwt>
<pdfrwt beam="2">  1       -1 0.78712842E-01 0.19732103E+03</pdfrwt>
<totfact> 0.16549568E+02</totfact>
</mgrwt>
</event>
<event>
 4    1  0.3889096E-001  0.2537821E+03  0.7546771E-02  0.1110938E+00
         -2   -1    0    0    0  501 -0.00000000000E+00  0.00000000000E+00  0.29322352124E+03  0.29322352124E+03  0.00000000000E+00 0. -1.
          2   -1    0    0  502    0  0.00000000000E+00 -0.00000000000E+00 -0.32698039491E+03  0.32698039491E+03  0.00000000000E+00 0.  1.
          6    1    1    2  502    0 -0.88225655071E+02 -0.16443105800E+03  0.16079125361E+03  0.30043163330E+03  0.17200000000E+03 0. -1.
         -6    1    1    2    0  501  0.88225655071E+02  0.16443105800E+03 -0.19454812729E+03  0.31977228285E+03  0.17200000000E+03 0.  1.
<mgrwt>
<rscale>  2 0.25378207E+03</rscale>
<asrwt>0</asrwt>
<pdfrwt beam="1">  1        2 0.81745099E-01 0.25378207E+03</pdfrwt>
<pdfrwt beam="2">  1       -2 0.73305880E-01 0.25378207E+03</pdfrwt>
<totfact> 0.10164929E+02</totfact>
</mgrwt>
</event>
<event>
 4    1  0.3889096E-001  0.1727281E+03  0.7546771E-02  0.1175032E+00
         -1   -1    0    0    0  501 -0.00000000000E+00  0.00000000000E+00  0.11794424592E+04  0.11794424592E+04  0.00000000000E+00 0.  1.
          1   -1    0    0  502    0  0.00000000000E+00 -0.00000000000E+00 -0.26310611956E+02  0.26310611956E+02  0.00000000000E+00 0. -1.
          6    1    1    2  502    0 -0.17117782335E+00  0.15841972323E+02  0.69496420097E+03  0.71610770001E+03  0.17200000000E+03 0.  1.
         -6    1    1    2    0  501  0.17117782335E+00 -0.15841972323E+02  0.45816764627E+03  0.48964537114E+03  0.17200000000E+03 0. -1.
<mgrwt>
<rscale>  2 0.17272810E+03</rscale>
<asrwt>0</asrwt>
<pdfrwt beam="1">  1        1 0.65776569E-02 0.17272810E+03</pdfrwt>
<pdfrwt beam="2">  1       -1 0.29486044E+00 0.17272810E+03</pdfrwt>
<totfact> 0.48448542E+01</totfact>
</mgrwt>
</event>
<event>
 4    1  0.3889096E-001  0.1920989E+03  0.7546771E-02  0.1156582E+00
         -1   -1    0    0    0  501 -0.00000000000E+00  0.00000000000E+00  0.68892386084E+03  0.68892386084E+03  0.00000000000E+00 0. -1.
          1   -1    0    0  502    0  0.00000000000E+00 -0.00000000000E+00 -0.67787406191E+02  0.67787406191E+02  0.00000000000E+00 0.  1.
          6    1    1    2  502    0  0.68416106716E+02 -0.51353979559E+02  0.13726089878E+03  0.23609860061E+03  0.17200000000E+03 0.  1.
         -6    1    1    2    0  501 -0.68416106716E+02  0.51353979559E+02  0.48387555586E+03  0.52061266642E+03  0.17200000000E+03 0. -1.
<mgrwt>
<rscale>  2 0.19209892E+03</rscale>
<asrwt>0</asrwt>
<pdfrwt beam="1">  1        1 0.16946854E-01 0.19209892E+03</pdfrwt>
<pdfrwt beam="2">  1       -1 0.17223094E+00 0.19209892E+03</pdfrwt>
<totfact> 0.83833434E+01</totfact>
</mgrwt>
</event>
<event>
 4    1  0.3889096E-001  0.1746542E+03  0.7546771E-02  0.1173079E+00
         -1   -1    0    0    0  501 -0.00000000000E+00  0.00000000000E+00  0.67232336490E+02  0.67232336490E+02  0.00000000000E+00 0. -1.
          1   -1    0    0  502    0  0.00000000000E+00 -0.00000000000E+00 -0.45405062290E+03  0.45405062290E+03  0.00000000000E+00 0.  1.
          6    1    1    2  502    0 -0.29284909404E+02 -0.79047379536E+01 -0.20053123276E+03  0.26592642989E+03  0.17200000000E+03 0. -1.
         -6    1    1    2    0  501  0.29284909404E+02  0.79047379536E+01 -0.18628705364E+03  0.25535652949E+03  0.17200000000E+03 0. -1.
<mgrwt>
<rscale>  2 0.17465420E+03</rscale>
<asrwt>0</asrwt>
<pdfrwt beam="1">  1        1 0.11351265E+00 0.17465420E+03</pdfrwt>
<pdfrwt beam="2">  1       -1 0.16808084E-01 0.17465420E+03</pdfrwt>
<totfact> 0.70309203E+02</totfact>
</mgrwt>
</event>
<event>
 4    1  0.3889096E-001  0.1870087E+03  0.7546771E-02  0.1161187E+00
         -1   -1    0    0    0  501 -0.00000000000E+00  0.00000000000E+00  0.13813037607E+03  0.13813037607E+03  0.00000000000E+00 0. -1.
          1   -1    0    0  502    0  0.00000000000E+00 -0.00000000000E+00 -0.26455431436E+03  0.26455431436E+03  0.00000000000E+00 0.  1.
          6    1    1    2  502    0 -0.53853067818E+02 -0.49880879771E+02 -0.21468924054E+02  0.18823700428E+03  0.17200000000E+03 0.  1.
         -6    1    1    2    0  501  0.53853067818E+02  0.49880879771E+02 -0.10495501424E+03  0.21444768615E+03  0.17200000000E+03 0.  1.
<mgrwt>
<rscale>  2 0.18700870E+03</rscale>
<asrwt>0</asrwt>
<pdfrwt beam="1">  1        1 0.66138578E-01 0.18700870E+03</pdfrwt>
<pdfrwt beam="2">  1       -1 0.34532594E-01 0.18700870E+03</pdfrwt>
<totfact> 0.44636855E+02</totfact>
</mgrwt>
</event>
<event>
 4    1  0.3889096E-001  0.2435178E+03  0.7546771E-02  0.1117471E+00
          3   -1    0    0  502    0  0.00000000000E+00  0.00000000000E+00  0.10416248546E+03  0.10416248546E+03  0.00000000000E+00 0. -1.
         -3   -1    0    0    0  501 -0.00000000000E+00 -0.00000000000E+00 -0.66820229595E+03  0.66820229595E+03  0.00000000000E+00 0.  1.
          6    1    1    2  502    0 -0.85346859532E+02  0.14977586641E+03 -0.13345490403E+03  0.27768886906E+03  0.17200000000E+03 0. -1.
         -6    1    1    2    0  501  0.85346859532E+02 -0.14977586641E+03 -0.43058490646E+03  0.49467591235E+03  0.17200000000E+03 0.  1.
<mgrwt>
<rscale>  2 0.24351775E+03</rscale>
<asrwt>0</asrwt>
<pdfrwt beam="1">  1        3 0.26040622E-01 0.24351775E+03</pdfrwt>
<pdfrwt beam="2">  1       -3 0.16705057E+00 0.24351775E+03</pdfrwt>
<totfact> 0.89105085E+00</totfact>
</mgrwt>
</event>
<event>
 4    1  0.3889096E-001  0.2016513E+03  0.7546771E-02  0.1148353E+00
         -2   -1    0    0    0  501 -0.00000000000E+00  0.00000000000E+00  0.11546653054E+03  0.11546653054E+03  0.00000000000E+00 0.  1.
          2   -1    0    0  502    0  0.00000000000E+00 -0.00000000000E+00 -0.38024847294E+03  0.38024847294E+03  0.00000000000E+00 0. -1.
          6    1    1    2  502    0 -0.64304455009E+01 -0.10506148267E+03 -0.19974972870E+03  0.28383660773E+03  0.17200000000E+03 0. -1.
         -6    1    1    2    0  501  0.64304455009E+01  0.10506148267E+03 -0.65032213695E+02  0.21187839576E+03  0.17200000000E+03 0.  1.
<mgrwt>
<rscale>  2 0.20165135E+03</rscale>
<asrwt>0</asrwt>
<pdfrwt beam="1">  1        2 0.95062117E-01 0.20165135E+03</pdfrwt>
<pdfrwt beam="2">  1       -2 0.28866633E-01 0.20165135E+03</pdfrwt>
<totfact> 0.53908059E+02</totfact>
</mgrwt>
</event>
<event>
 4    1  0.3889096E-001  0.2983375E+03  0.7546771E-02  0.1086075E+00
          1   -1    0    0  502    0  0.00000000000E+00  0.00000000000E+00  0.99051991565E+03  0.99051991565E+03  0.00000000000E+00 0. -1.
         -1   -1    0    0    0  501 -0.00000000000E+00 -0.00000000000E+00 -0.13567982996E+03  0.13567982996E+03  0.00000000000E+00 0.  1.
          6    1    1    2  502    0  0.89013856893E+02 -0.22693129594E+03  0.10017874437E+03  0.31470789730E+03  0.17200000000E+03 0.  1.
         -6    1    1    2    0  501 -0.89013856893E+02  0.22693129594E+03  0.75466134132E+03  0.81149184831E+03  0.17200000000E+03 0. -1.
<mgrwt>
<rscale>  2 0.29833753E+03</rscale>
<asrwt>0</asrwt>
<pdfrwt beam="1">  1        1 0.24762996E+00 0.29833753E+03</pdfrwt>
<pdfrwt beam="2">  1       -1 0.33919960E-01 0.29833753E+03</pdfrwt>
<totfact> 0.50267427E+01</totfact>
</mgrwt>
</event>
<event>
 4    1  0.3889096E-001  0.2894893E+03  0.7546771E-02  0.1090616E+00
          4   -1    0    0  502    0  0.00000000000E+00  0.00000000000E+00  0.61744283536E+03  0.61744283536E+03  0.00000000000E+00 0. -1.
         -4   -1    0    0    0  501 -0.00000000000E+00 -0.00000000000E+00 -0.21917006969E+03  0.21917006969E+03  0.00000000000E+00 0.  1.
          6    1    1    2  502    0  0.20033214641E+03 -0.11868913729E+03  0.45724192012E+03  0.54117857839E+03  0.17200000000E+03 0. -1.
         -6    1    1    2    0  501 -0.20033214641E+03  0.11868913729E+03 -0.58969154440E+02  0.29543432666E+03  0.17200000000E+03 0.  1.
<mgrwt>
<rscale>  2 0.28948934E+03</rscale>
<asrwt>0</asrwt>
<pdfrwt beam="1">  1        4 0.15436071E+00 0.28948934E+03</pdfrwt>
<pdfrwt beam="2">  1       -4 0.54792519E-01 0.28948934E+03</pdfrwt>
<totfact> 0.17010870E+00</totfact>
</mgrwt>
</event>
<event>
 4    1  0.3889096E-001  0.1743815E+03  0.7546771E-02  0.1173354E+00
         -1   -1    0    0    0  501 -0.00000000000E+00  0.00000000000E+00  0.69615090500E+02  0.69615090500E+02  0.00000000000E+00 0.  1.
          1   -1    0    0  502    0  0.00000000000E+00 -0.00000000000E+00 -0.44176116774E+03  0.44176116774E+03  0.00000000000E+00 0. -1.
          6    1    1    2  502    0 -0.13698920982E+02 -0.25243602096E+02 -0.15901718581E+03  0.23599865522E+03  0.17200000000E+03 0.  1.
         -6    1    1    2    0  501  0.13698920982E+02  0.25243602096E+02 -0.21312889144E+03  0.27537760302E+03  0.17200000000E+03 0.  1.
<mgrwt>
<rscale>  2 0.17438148E+03</rscale>
<asrwt>0</asrwt>
<pdfrwt beam="1">  1        1 0.11044029E+00 0.17438148E+03</pdfrwt>
<pdfrwt beam="2">  1       -1 0.17403773E-01 0.17438148E+03</pdfrwt>
<totfact> 0.69239772E+02</totfact>
</mgrwt>
</event>
<event>
 4    1  0.3889096E-001  0.2313488E+03  0.7546771E-02  0.1125694E+00
          1   -1    0    0  502    0  0.00000000000E+00  0.00000000000E+00  0.63480559098E+03  0.63480559098E+03  0.00000000000E+00 0. -1.
         -1   -1    0    0    0  501 -0.00000000000E+00 -0.00000000000E+00 -0.90814072930E+02  0.90814072930E+02  0.00000000000E+00 0.  1.
          6    1    1    2  502    0 -0.15041231955E+03  0.36254535439E+02  0.36906923873E+03  0.43558507801E+03  0.17200000000E+03 0.  1.
         -6    1    1    2    0  501  0.15041231955E+03 -0.36254535439E+02  0.17492227932E+03  0.29003458590E+03  0.17200000000E+03 0.  1.
<mgrwt>
<rscale>  2 0.23134878E+03</rscale>
<asrwt>0</asrwt>
<pdfrwt beam="1">  1        1 0.15870139E+00 0.23134878E+03</pdfrwt>
<pdfrwt beam="2">  1       -1 0.22703520E-01 0.23134878E+03</pdfrwt>
<totfact> 0.25137081E+02</totfact>
</mgrwt>
</event>
<event>
 4    1  0.3889096E-001  0.1940945E+03  0.7546771E-02  0.1154819E+00
          2   -1    0    0  502    0  0.00000000000E+00  0.00000000000E+00  0.12499825384E+04  0.12499825384E+04  0.00000000000E+00 0. -1.
         -2   -1    0    0    0  501 -0.00000000000E+00 -0.00000000000E+00 -0.42317533013E+02  0.42317533013E+02  0.00000000000E+00 0.  1.
          6    1    1    2  502    0 -0.86052423923E+02  0.26147095508E+02  0.95047220265E+03  0.97008767556E+03  0.17200000000E+03 0. -1.
         -6    1    1    2    0  501  0.86052423923E+02 -0.26147095508E+02  0.25719280279E+03  0.32221239590E+03  0.17200000000E+03 0.  1.
<mgrwt>
<rscale>  2 0.19409454E+03</rscale>
<asrwt>0</asrwt>
<pdfrwt beam="1">  1        2 0.31249551E+00 0.19409454E+03</pdfrwt>
<pdfrwt beam="2">  1       -2 0.10579387E-01 0.19409454E+03</pdfrwt>
<totfact> 0.44198960E+02</totfact>
</mgrwt>
</event>
<event>
 4    1  0.3889096E-001  0.2097192E+03  0.7546771E-02  0.1141789E+00
         -2   -1    0    0    0  501 -0.00000000000E+00  0.00000000000E+00  0.25145873568E+03  0.25145873568E+03  0.00000000000E+00 0. -1.
          2   -1    0    0  502    0  0.00000000000E+00 -0.00000000000E+00 -0.24680952092E+03  0.24680952092E+03  0.00000000000E+00 0.  1.
          6    1    1    2  502    0  0.10999424409E+03 -0.47951984504E+02 -0.13214419120E+03  0.24787943404E+03  0.17200000000E+03 0.  1.
         -6    1    1    2    0  501 -0.10999424409E+03  0.47951984504E+02  0.13679340596E+03  0.25038882256E+03  0.17200000000E+03 0. -1.
<mgrwt>
<rscale>  2 0.20971916E+03</rscale>
<asrwt>0</asrwt>
<pdfrwt beam="1">  1        2 0.61702380E-01 0.20971916E+03</pdfrwt>
<pdfrwt beam="2">  1       -2 0.62864684E-01 0.20971916E+03</pdfrwt>
<totfact> 0.19355652E+02</totfact>
</mgrwt>
</event>
<event>
 4    1  0.3889096E-001  0.1720059E+03  0.7546771E-02  0.1175772E+00
          2   -1    0    0  502    0  0.00000000000E+00  0.00000000000E+00  0.14900586151E+03  0.14900586151E+03  0.00000000000E+00 0.  1.
         -2   -1    0    0    0  501 -0.00000000000E+00 -0.00000000000E+00 -0.20334885320E+03  0.20334885320E+03  0.00000000000E+00 0. -1.
          6    1    1    2  502    0  0.14100533729E+01  0.23853389822E+00 -0.54218237119E+02  0.18034872438E+03  0.17200000000E+03 0. -1.
         -6    1    1    2    0  501 -0.14100533729E+01 -0.23853389822E+00 -0.12475457051E+00  0.17200599034E+03  0.17200000000E+03 0.  1.
<mgrwt>
<rscale>  2 0.17200595E+03</rscale>
<asrwt>0</asrwt>
<pdfrwt beam="1">  1        2 0.37251466E-01 0.17200595E+03</pdfrwt>
<pdfrwt beam="2">  1       -2 0.50837213E-01 0.17200595E+03</pdfrwt>
<totfact> 0.51401775E+02</totfact>
</mgrwt>
</event>
<event>
 4    1  0.3889096E-001  0.1856471E+03  0.7546771E-02  0.1162447E+00
         -2   -1    0    0    0  501 -0.00000000000E+00  0.00000000000E+00  0.90381055649E+02  0.90381055649E+02  0.00000000000E+00 0. -1.
          2   -1    0    0  502    0  0.00000000000E+00 -0.00000000000E+00 -0.43533431976E+03  0.43533431976E+03  0.00000000000E+00 0.  1.
          6    1    1    2  502    0 -0.13804647882E+02  0.68485572872E+02 -0.26505954974E+03  0.32360687091E+03  0.17200000000E+03 0.  1.
         -6    1    1    2    0  501  0.13804647882E+02 -0.68485572872E+02 -0.79893714379E+02  0.20210850450E+03  0.17200000000E+03 0. -1.
<mgrwt>
<rscale>  2 0.18564709E+03</rscale>
<asrwt>0</asrwt>
<pdfrwt beam="1">  1        2 0.10883358E+00 0.18564709E+03</pdfrwt>
<pdfrwt beam="2">  1       -2 0.22595264E-01 0.18564709E+03</pdfrwt>
<totfact> 0.70820511E+02</totfact>
</mgrwt>
</event>
<event>
 4    1  0.3889096E-001  0.2384837E+03  0.7546771E-02  0.1120807E+00
          2   -1    0    0  502    0  0.00000000000E+00  0.00000000000E+00  0.31464489996E+03  0.31464489996E+03  0.00000000000E+00 0.  1.
         -2   -1    0    0    0  501 -0.00000000000E+00 -0.00000000000E+00 -0.18763859922E+03  0.18763859922E+03  0.00000000000E+00 0. -1.
          6    1    1    2  502    0  0.75490849197E+02  0.14694085612E+03  0.15410255802E+02  0.23898108606E+03  0.17200000000E+03 0.  1.
         -6    1    1    2    0  501 -0.75490849197E+02 -0.14694085612E+03  0.11159604495E+03  0.26330241312E+03  0.17200000000E+03 0. -1.
<mgrwt>
<rscale>  2 0.23848372E+03</rscale>
<asrwt>0</asrwt>
<pdfrwt beam="1">  1        2 0.78661224E-01 0.23848372E+03</pdfrwt>
<pdfrwt beam="2">  1       -2 0.46909650E-01 0.23848372E+03</pdfrwt>
<totfact> 0.26765172E+02</totfact>
</mgrwt>
</event>
<event>
 4    1  0.3889096E-001  0.2627354E+03  0.7546771E-02  0.1105511E+00
          2   -1    0    0  502    0  0.00000000000E+00  0.00000000000E+00  0.24328652200E+03  0.24328652200E+03  0.00000000000E+00 0. -1.
         -2   -1    0    0    0  501 -0.00000000000E+00 -0.00000000000E+00 -0.36068519656E+03  0.36068519656E+03  0.00000000000E+00 0.  1.
          6    1    1    2  502    0 -0.40659635551E+02  0.19440335060E+03  0.80781997261E+02  0.27487378880E+03  0.17200000000E+03 0. -1.
         -6    1    1    2    0  501  0.40659635551E+02 -0.19440335060E+03 -0.19818067182E+03  0.32909792976E+03  0.17200000000E+03 0.  1.
<mgrwt>
<rscale>  2 0.26273536E+03</rscale>
<asrwt>0</asrwt>
<pdfrwt beam="1">  1        2 0.60821631E-01 0.26273536E+03</pdfrwt>
<pdfrwt beam="2">  1       -2 0.90171299E-01 0.26273536E+03</pdfrwt>
<totfact> 0.89033760E+01</totfact>
</mgrwt>
</event>
<event>
 4    1  0.3889096E-001  0.2340642E+03  0.7546771E-02  0.1123811E+00
         -2   -1    0    0    0  501 -0.00000000000E+00  0.00000000000E+00  0.83115471125E+02  0.83115471125E+02  0.00000000000E+00 0. -1.
          2   -1    0    0  502    0  0.00000000000E+00 -0.00000000000E+00 -0.67187018179E+03  0.67187018179E+03  0.00000000000E+00 0.  1.
          6    1    1    2  502    0  0.10563142658E+03 -0.11850768929E+03 -0.24244854972E+03  0.33699758154E+03  0.17200000000E+03 0.  1.
         -6    1    1    2    0  501 -0.10563142658E+03  0.11850768929E+03 -0.34630616095E+03  0.41798807137E+03  0.17200000000E+03 0. -1.
<mgrwt>
<rscale>  2 0.23406424E+03</rscale>
<asrwt>0</asrwt>
<pdfrwt beam="1">  1        2 0.16796754E+00 0.23406424E+03</pdfrwt>
<pdfrwt beam="2">  1       -2 0.20778868E-01 0.23406424E+03</pdfrwt>
<totfact> 0.45895236E+02</totfact>
</mgrwt>
</event>
<event>
 4    1  0.3889096E-001  0.1897269E+03  0.7546771E-02  0.1158708E+00
         -3   -1    0    0    0  501 -0.00000000000E+00  0.00000000000E+00  0.21220110465E+03  0.21220110465E+03  0.00000000000E+00 0. -1.
          3   -1    0    0  502    0  0.00000000000E+00 -0.00000000000E+00 -0.17009739122E+03  0.17009739122E+03  0.00000000000E+00 0.  1.
          6    1    1    2  502    0 -0.60380738254E+02  0.52597116869E+02  0.11063150545E+02  0.19004916089E+03  0.17200000000E+03 0. -1.
         -6    1    1    2    0  501  0.60380738254E+02 -0.52597116869E+02  0.31040562882E+02  0.19224933498E+03  0.17200000000E+03 0.  1.
<mgrwt>
<rscale>  2 0.18972688E+03</rscale>
<asrwt>0</asrwt>
<pdfrwt beam="1">  1        3 0.42524348E-01 0.18972688E+03</pdfrwt>
<pdfrwt beam="2">  1       -3 0.53050276E-01 0.18972688E+03</pdfrwt>
<totfact> 0.47545060E+01</totfact>
</mgrwt>
</event>
<event>
 4    1  0.3889096E-001  0.2403247E+03  0.7546771E-02  0.1119577E+00
          3   -1    0    0  502    0  0.00000000000E+00  0.00000000000E+00  0.93656343331E+02  0.93656343331E+02  0.00000000000E+00 0. -1.
         -3   -1    0    0    0  501 -0.00000000000E+00 -0.00000000000E+00 -0.63211419833E+03  0.63211419833E+03  0.00000000000E+00 0.  1.
          6    1    1    2  502    0  0.99973139444E+02  0.13482338763E+03 -0.32593329521E+03  0.40495492020E+03  0.17200000000E+03 0.  1.
         -6    1    1    2    0  501 -0.99973139444E+02 -0.13482338763E+03 -0.21252455979E+03  0.32081562147E+03  0.17200000000E+03 0. -1.
<mgrwt>
<rscale>  2 0.24032473E+03</rscale>
<asrwt>0</asrwt>
<pdfrwt beam="1">  1        3 0.23414086E-01 0.24032473E+03</pdfrwt>
<pdfrwt beam="2">  1       -3 0.15802855E+00 0.24032473E+03</pdfrwt>
<totfact> 0.12492103E+01</totfact>
</mgrwt>
</event>
<event>
 4    1  0.3889096E-001  0.2002037E+03  0.7546771E-02  0.1149567E+00
          1   -1    0    0  502    0  0.00000000000E+00  0.00000000000E+00  0.76790471711E+03  0.76790471711E+03  0.00000000000E+00 0.  1.
         -1   -1    0    0    0  501 -0.00000000000E+00 -0.00000000000E+00 -0.59380578546E+02  0.59380578546E+02  0.00000000000E+00 0. -1.
          6    1    1    2  502    0 -0.77413978050E+02  0.67116300829E+02  0.49814359549E+03  0.53686922389E+03  0.17200000000E+03 0.  1.
         -6    1    1    2    0  501  0.77413978050E+02 -0.67116300829E+02  0.21038054308E+03  0.29041607176E+03  0.17200000000E+03 0.  1.
<mgrwt>
<rscale>  2 0.20020370E+03</rscale>
<asrwt>0</asrwt>
<pdfrwt beam="1">  1        1 0.19197615E+00 0.20020370E+03</pdfrwt>
<pdfrwt beam="2">  1       -1 0.14845147E-01 0.20020370E+03</pdfrwt>
<totfact> 0.35222806E+02</totfact>
</mgrwt>
</event>
<event>
 4    1  0.3889096E-001  0.2113012E+03  0.7546771E-02  0.1140540E+00
          1   -1    0    0  502    0  0.00000000000E+00  0.00000000000E+00  0.11760642327E+04  0.11760642327E+04  0.00000000000E+00 0.  1.
         -1   -1    0    0    0  501 -0.00000000000E+00 -0.00000000000E+00 -0.38304410750E+02  0.38304410750E+02  0.00000000000E+00 0. -1.
          6    1    1    2  502    0  0.12251589369E+03  0.73533525881E+01  0.51164826549E+03  0.55356315230E+03  0.17200000000E+03 0. -1.
         -6    1    1    2    0  501 -0.12251589369E+03 -0.73533525881E+01  0.62611155642E+03  0.66080549111E+03  0.17200000000E+03 0. -1.
<mgrwt>
<rscale>  2 0.21130124E+03</rscale>
<asrwt>0</asrwt>
<pdfrwt beam="1">  1        1 0.29401594E+00 0.21130124E+03</pdfrwt>
<pdfrwt beam="2">  1       -1 0.95761066E-02 0.21130124E+03</pdfrwt>
<totfact> 0.25522136E+02</totfact>
</mgrwt>
</event>
<event>
 4    1  0.3889096E-001  0.2174990E+03  0.7546771E-02  0.1135761E+00
          1   -1    0    0  502    0  0.00000000000E+00  0.00000000000E+00  0.77113837827E+03  0.77113837827E+03  0.00000000000E+00 0.  1.
         -1   -1    0    0    0  501 -0.00000000000E+00 -0.00000000000E+00 -0.87574160981E+02  0.87574160981E+02  0.00000000000E+00 0. -1.
          6    1    1    2  502    0 -0.13197148118E+03 -0.17474271481E+02  0.10680887971E+03  0.24230963414E+03  0.17200000000E+03 0. -1.
         -6    1    1    2    0  501  0.13197148118E+03  0.17474271481E+02  0.57675533758E+03  0.61640290512E+03  0.17200000000E+03 0.  1.
<mgrwt>
<rscale>  2 0.21749902E+03</rscale>
<asrwt>0</asrwt>
<pdfrwt beam="1">  1        1 0.19278457E+00 0.21749902E+03</pdfrwt>
<pdfrwt beam="2">  1       -1 0.21893543E-01 0.21749902E+03</pdfrwt>
<totfact> 0.18633781E+02</totfact>
</mgrwt>
</event>
<event>
 4    1  0.3889096E-001  0.3184891E+03  0.7546771E-02  0.1076347E+00
          1   -1    0    0  502    0  0.00000000000E+00  0.00000000000E+00  0.14122939352E+04  0.14122939352E+04  0.00000000000E+00 0. -1.
         -1   -1    0    0    0  501 -0.00000000000E+00 -0.00000000000E+00 -0.14626009856E+03  0.14626009856E+03  0.00000000000E+00 0.  1.
          6    1    1    2  502    0  0.26674215927E+03 -0.26456066459E+02  0.11889511498E+04  0.12308696680E+04  0.17200000000E+03 0. -1.
         -6    1    1    2    0  501 -0.26674215927E+03  0.26456066459E+02  0.77082686899E+02  0.32768436583E+03  0.17200000000E+03 0.  1.
<mgrwt>
<rscale>  2 0.31848909E+03</rscale>
<asrwt>0</asrwt>
<pdfrwt beam="1">  1        1 0.35307344E+00 0.31848909E+03</pdfrwt>
<pdfrwt beam="2">  1       -1 0.36565029E-01 0.31848909E+03</pdfrwt>
<totfact> 0.15584251E+01</totfact>
</mgrwt>
</event>
<event>
 4    1  0.3889096E-001  0.2143366E+03  0.7546771E-02  0.1138177E+00
          2   -1    0    0  502    0  0.00000000000E+00  0.00000000000E+00  0.16951729022E+04  0.16951729022E+04  0.00000000000E+00 0.  1.
         -2   -1    0    0    0  501 -0.00000000000E+00 -0.00000000000E+00 -0.30793266600E+02  0.30793266600E+02  0.00000000000E+00 0. -1.
          6    1    1    2  502    0 -0.96552252775E+01  0.12752630936E+03  0.11310342288E+04  0.11511640238E+04  0.17200000000E+03 0.  1.
         -6    1    1    2    0  501  0.96552252775E+01 -0.12752630936E+03  0.53334540684E+03  0.57480214504E+03  0.17200000000E+03 0. -1.
<mgrwt>
<rscale>  2 0.21433661E+03</rscale>
<asrwt>0</asrwt>
<pdfrwt beam="1">  1        2 0.42379291E+00 0.21433661E+03</pdfrwt>
<pdfrwt beam="2">  1       -2 0.76983224E-02 0.21433661E+03</pdfrwt>
<totfact> 0.29581267E+02</totfact>
</mgrwt>
</event>
<event>
 4    1  0.3889096E-001  0.2202651E+03  0.7546771E-02  0.1133686E+00
         -4   -1    0    0    0  501 -0.00000000000E+00  0.00000000000E+00  0.51234623817E+02  0.51234623817E+02  0.00000000000E+00 0.  1.
          4   -1    0    0  502    0  0.00000000000E+00 -0.00000000000E+00 -0.94741179956E+03  0.94741179956E+03  0.00000000000E+00 0. -1.
          6    1    1    2  502    0 -0.10090706484E+03 -0.93543916623E+02 -0.45909555460E+03  0.50920077409E+03  0.17200000000E+03 0.  1.
         -6    1    1    2    0  501  0.10090706484E+03  0.93543916623E+02 -0.43708162114E+03  0.48944564929E+03  0.17200000000E+03 0. -1.
<mgrwt>
<rscale>  2 0.22026507E+03</rscale>
<asrwt>0</asrwt>
<pdfrwt beam="1">  1        4 0.23685295E+00 0.22026507E+03</pdfrwt>
<pdfrwt beam="2">  1       -4 0.12808656E-01 0.22026507E+03</pdfrwt>
<totfact> 0.76728278E+00</totfact>
</mgrwt>
</event>
<event>
 4    1  0.3889096E-001  0.1885453E+03  0.7546771E-02  0.1159780E+00
         -2   -1    0    0    0  501 -0.00000000000E+00  0.00000000000E+00  0.66471899749E+02  0.66471899749E+02  0.00000000000E+00 0. -1.
          2   -1    0    0  502    0  0.00000000000E+00 -0.00000000000E+00 -0.69981906454E+03  0.69981906454E+03  0.00000000000E+00 0.  1.
          6    1    1    2  502    0  0.44788216419E+02  0.62923315840E+02 -0.50272577652E+03  0.53691948594E+03  0.17200000000E+03 0.  1.
         -6    1    1    2    0  501 -0.44788216419E+02 -0.62923315840E+02 -0.13062138827E+03  0.22937147835E+03  0.17200000000E+03 0. -1.
<mgrwt>
<rscale>  2 0.18854529E+03</rscale>
<asrwt>0</asrwt>
<pdfrwt beam="1">  1        2 0.17495477E+00 0.18854529E+03</pdfrwt>
<pdfrwt beam="2">  1       -2 0.16617975E-01 0.18854529E+03</pdfrwt>
<totfact> 0.63367092E+02</totfact>
</mgrwt>
</event>
<event>
 4    1  0.3889096E-001  0.1869825E+03  0.7546771E-02  0.1161211E+00
          1   -1    0    0  502    0  0.00000000000E+00  0.00000000000E+00  0.98450036163E+03  0.98450036163E+03  0.00000000000E+00 0.  1.
         -1   -1    0    0    0  501 -0.00000000000E+00 -0.00000000000E+00 -0.35582352742E+02  0.35582352742E+02  0.00000000000E+00 0. -1.
          6    1    1    2  502    0 -0.69532819721E+02  0.23316124006E+02  0.45192393437E+03  0.48907841612E+03  0.17200000000E+03 0. -1.
         -6    1    1    2    0  501  0.69532819721E+02 -0.23316124006E+02  0.49699407452E+03  0.53100429826E+03  0.17200000000E+03 0. -1.
<mgrwt>
<rscale>  2 0.18698250E+03</rscale>
<asrwt>0</asrwt>
<pdfrwt beam="1">  1        1 0.24612500E+00 0.18698250E+03</pdfrwt>
<pdfrwt beam="2">  1       -1 0.88955914E-02 0.18698250E+03</pdfrwt>
<totfact> 0.45651447E+02</totfact>
</mgrwt>
</event>
<event>
 4    1  0.3889096E-001  0.1744474E+03  0.7546771E-02  0.1173288E+00
          2   -1    0    0  502    0  0.00000000000E+00  0.00000000000E+00  0.71564131299E+03  0.71564131299E+03  0.00000000000E+00 0. -1.
         -2   -1    0    0    0  501 -0.00000000000E+00 -0.00000000000E+00 -0.78427128325E+02  0.78427128325E+02  0.00000000000E+00 0.  1.
          6    1    1    2  502    0  0.88237947868E+01 -0.27749829415E+02  0.58724116017E+03  0.61260435240E+03  0.17200000000E+03 0. -1.
         -6    1    1    2    0  501 -0.88237947868E+01  0.27749829415E+02  0.49973024496E+02  0.18146408891E+03  0.17200000000E+03 0.  1.
<mgrwt>
<rscale>  2 0.17444745E+03</rscale>
<asrwt>0</asrwt>
<pdfrwt beam="1">  1        2 0.17891031E+00 0.17444745E+03</pdfrwt>
<pdfrwt beam="2">  1       -2 0.19606784E-01 0.17444745E+03</pdfrwt>
<totfact> 0.46481262E+02</totfact>
</mgrwt>
</event>
<event>
 4    1  0.3889096E-001  0.1886793E+03  0.7546771E-02  0.1159658E+00
         -1   -1    0    0    0  501 -0.00000000000E+00  0.00000000000E+00  0.13494970648E+03  0.13494970648E+03  0.00000000000E+00 0.  1.
          1   -1    0    0  502    0  0.00000000000E+00 -0.00000000000E+00 -0.28671096386E+03  0.28671096386E+03  0.00000000000E+00 0. -1.
          6    1    1    2  502    0  0.66417311278E+02 -0.40057496854E+02 -0.13547750784E+03  0.23228004095E+03  0.17200000000E+03 0. -1.
         -6    1    1    2    0  501 -0.66417311278E+02  0.40057496854E+02 -0.16283749535E+02  0.18938062940E+03  0.17200000000E+03 0.  1.
<mgrwt>
<rscale>  2 0.18867926E+03</rscale>
<asrwt>0</asrwt>
<pdfrwt beam="1">  1        1 0.71677740E-01 0.18867926E+03</pdfrwt>
<pdfrwt beam="2">  1       -1 0.33737427E-01 0.18867926E+03</pdfrwt>
<totfact> 0.41869424E+02</totfact>
</mgrwt>
</event>
<event>
 4    1  0.3889096E-001  0.1809028E+03  0.7546771E-02  0.1166932E+00
          1   -1    0    0  502    0  0.00000000000E+00  0.00000000000E+00  0.57987209898E+02  0.57987209898E+02  0.00000000000E+00 0.  1.
         -1   -1    0    0    0  501 -0.00000000000E+00 -0.00000000000E+00 -0.57047686379E+03  0.57047686379E+03  0.00000000000E+00 0. -1.
          6    1    1    2  502    0 -0.12758918450E+01 -0.56037515128E+02 -0.28877543821E+03  0.34075957025E+03  0.17200000000E+03 0.  1.
         -6    1    1    2    0  501  0.12758918450E+01  0.56037515128E+02 -0.22371421568E+03  0.28770450344E+03  0.17200000000E+03 0.  1.
<mgrwt>
<rscale>  2 0.18090282E+03</rscale>
<asrwt>0</asrwt>
<pdfrwt beam="1">  1        1 0.14496803E-01 0.18090282E+03</pdfrwt>
<pdfrwt beam="2">  1       -1 0.14261921E+00 0.18090282E+03</pdfrwt>
<totfact> 0.17024656E+02</totfact>
</mgrwt>
</event>
<event>
 4    1  0.3889096E-001  0.2352598E+03  0.7546771E-02  0.1122992E+00
         -1   -1    0    0    0  501 -0.00000000000E+00  0.00000000000E+00  0.72348879443E+02  0.72348879443E+02  0.00000000000E+00 0. -1.
          1   -1    0    0  502    0  0.00000000000E+00 -0.00000000000E+00 -0.76930666389E+03  0.76930666389E+03  0.00000000000E+00 0.  1.
          6    1    1    2  502    0  0.53982293546E+02 -0.15115910780E+03 -0.31700603948E+03  0.39476574440E+03  0.17200000000E+03 0. -1.
         -6    1    1    2    0  501 -0.53982293546E+02  0.15115910780E+03 -0.37995174497E+03  0.44688979893E+03  0.17200000000E+03 0.  1.
<mgrwt>
<rscale>  2 0.23525978E+03</rscale>
<asrwt>0</asrwt>
<pdfrwt beam="1">  1        1 0.19232667E+00 0.23525978E+03</pdfrwt>
<pdfrwt beam="2">  1       -1 0.18087220E-01 0.23525978E+03</pdfrwt>
<totfact> 0.25439038E+02</totfact>
</mgrwt>
</event>
<event>
 4    1  0.3889096E-001  0.1722332E+03  0.7546771E-02  0.1175539E+00
          1   -1    0    0  502    0  0.00000000000E+00  0.00000000000E+00  0.13485500788E+03  0.13485500788E+03  0.00000000000E+00 0. -1.
         -1   -1    0    0    0  501 -0.00000000000E+00 -0.00000000000E+00 -0.23006105891E+03  0.23006105891E+03  0.00000000000E+00 0.  1.
          6    1    1    2  502    0  0.89028739051E+00  0.89145893605E+01 -0.85813009904E+02  0.19242696065E+03  0.17200000000E+03 0.  1.
         -6    1    1    2    0  501 -0.89028739051E+00 -0.89145893605E+01 -0.93930411316E+01  0.17248910614E+03  0.17200000000E+03 0. -1.
<mgrwt>
<rscale>  2 0.17223316E+03</rscale>
<asrwt>0</asrwt>
<pdfrwt beam="1">  1        1 0.33713752E-01 0.17223316E+03</pdfrwt>
<pdfrwt beam="2">  1       -1 0.57515264E-01 0.17223316E+03</pdfrwt>
<totfact> 0.41518564E+02</totfact>
</mgrwt>
</event>
<event>
 4    1  0.3889096E-001  0.1761474E+03  0.7546771E-02  0.1171585E+00
         -2   -1    0    0    0  501 -0.00000000000E+00  0.00000000000E+00  0.34441305595E+03  0.34441305595E+03  0.00000000000E+00 0.  1.
          2   -1    0    0  502    0  0.00000000000E+00 -0.00000000000E+00 -0.90108652744E+02  0.90108652744E+02  0.00000000000E+00 0. -1.
          6    1    1    2  502    0 -0.32063218462E+02 -0.20392926780E+02  0.13033848695E+03  0.21912563205E+03  0.17200000000E+03 0.  1.
         -6    1    1    2    0  501  0.32063218462E+02  0.20392926780E+02  0.12396591625E+03  0.21539607664E+03  0.17200000000E+03 0. -1.
<mgrwt>
<rscale>  2 0.17614744E+03</rscale>
<asrwt>0</asrwt>
<pdfrwt beam="1">  1        2 0.22527164E-01 0.17614744E+03</pdfrwt>
<pdfrwt beam="2">  1       -2 0.86103261E-01 0.17614744E+03</pdfrwt>
<totfact> 0.29366790E+02</totfact>
</mgrwt>
</event>
<event>
 4    1  0.3889096E-001  0.1778754E+03  0.7546771E-02  0.1169875E+00
         -4   -1    0    0    0  501 -0.00000000000E+00  0.00000000000E+00  0.62689470697E+03  0.62689470697E+03  0.00000000000E+00 0. -1.
          4   -1    0    0  502    0  0.00000000000E+00 -0.00000000000E+00 -0.77741569524E+02  0.77741569524E+02  0.00000000000E+00 0.  1.
          6    1    1    2  502    0 -0.44813611452E+02 -0.68844139220E+01  0.48324649959E+03  0.51494352534E+03  0.17200000000E+03 0. -1.
         -6    1    1    2    0  501  0.44813611452E+02  0.68844139220E+01  0.65906637857E+02  0.18969275115E+03  0.17200000000E+03 0.  1.
<mgrwt>
<rscale>  2 0.17787539E+03</rscale>
<asrwt>0</asrwt>
<pdfrwt beam="1">  1        4 0.19435394E-01 0.17787539E+03</pdfrwt>
<pdfrwt beam="2">  1       -4 0.15672366E+00 0.17787539E+03</pdfrwt>
<totfact> 0.11825541E+01</totfact>
</mgrwt>
</event>
<event>
 4    1  0.3889096E-001  0.1908581E+03  0.7546771E-02  0.1157690E+00
         -1   -1    0    0    0  501 -0.00000000000E+00  0.00000000000E+00  0.97845504885E+02  0.97845504885E+02  0.00000000000E+00 0. -1.
          1   -1    0    0  502    0  0.00000000000E+00 -0.00000000000E+00 -0.41278038121E+03  0.41278038121E+03  0.00000000000E+00 0.  1.
          6    1    1    2  502    0  0.55487868382E+02 -0.61350797127E+02 -0.23743126682E+03  0.30463163051E+03  0.17200000000E+03 0. -1.
         -6    1    1    2    0  501 -0.55487868382E+02  0.61350797127E+02 -0.77503609502E+02  0.20599425558E+03  0.17200000000E+03 0. -1.
<mgrwt>
<rscale>  2 0.19085812E+03</rscale>
<asrwt>0</asrwt>
<pdfrwt beam="1">  1        1 0.10319509E+00 0.19085812E+03</pdfrwt>
<pdfrwt beam="2">  1       -1 0.24461377E-01 0.19085812E+03</pdfrwt>
<totfact> 0.43895855E+02</totfact>
</mgrwt>
</event>
<event>
 4    1  0.3889096E-001  0.1778261E+03  0.7546771E-02  0.1169924E+00
         -2   -1    0    0    0  501 -0.00000000000E+00  0.00000000000E+00  0.58691646008E+02  0.58691646008E+02  0.00000000000E+00 0. -1.
          2   -1    0    0  502    0  0.00000000000E+00 -0.00000000000E+00 -0.54598143022E+03  0.54598143022E+03  0.00000000000E+00 0.  1.
          6    1    1    2  502    0 -0.11708531330E+02  0.43600634909E+02 -0.27835836021E+03  0.33031118929E+03  0.17200000000E+03 0. -1.
         -6    1    1    2    0  501  0.11708531330E+02 -0.43600634909E+02 -0.20893142401E+03  0.27436188695E+03  0.17200000000E+03 0. -1.
<mgrwt>
<rscale>  2 0.17782605E+03</rscale>
<asrwt>0</asrwt>
<pdfrwt beam="1">  1        2 0.13649536E+00 0.17782605E+03</pdfrwt>
<pdfrwt beam="2">  1       -2 0.14672911E-01 0.17782605E+03</pdfrwt>
<totfact> 0.11024951E+03</totfact>
</mgrwt>
</event>
<event>
 4    1  0.3889096E-001  0.2225897E+03  0.7546771E-02  0.1131967E+00
          2   -1    0    0  502    0  0.00000000000E+00  0.00000000000E+00  0.12706000036E+04  0.12706000036E+04  0.00000000000E+00 0.  1.
         -2   -1    0    0    0  501 -0.00000000000E+00 -0.00000000000E+00 -0.40645177537E+02  0.40645177537E+02  0.00000000000E+00 0. -1.
          6    1    1    2  502    0 -0.83341038227E+02  0.11408958491E+03  0.74710891737E+03  0.77956263151E+03  0.17200000000E+03 0.  1.
         -6    1    1    2    0  501  0.83341038227E+02 -0.11408958491E+03  0.48284590873E+03  0.53168254966E+03  0.17200000000E+03 0. -1.
<mgrwt>
<rscale>  2 0.22258967E+03</rscale>
<asrwt>0</asrwt>
<pdfrwt beam="1">  1        2 0.31764987E+00 0.22258967E+03</pdfrwt>
<pdfrwt beam="2">  1       -2 0.10161299E-01 0.22258967E+03</pdfrwt>
<totfact> 0.44960163E+02</totfact>
</mgrwt>
</event>
<event>
 4    1  0.3889096E-001  0.3181093E+03  0.7546771E-02  0.1076523E+00
         -1   -1    0    0    0  501 -0.00000000000E+00  0.00000000000E+00  0.89718327220E+02  0.89718327220E+02  0.00000000000E+00 0. -1.
          1   -1    0    0  502    0  0.00000000000E+00 -0.00000000000E+00 -0.13021200056E+04  0.13021200056E+04  0.00000000000E+00 0.  1.
          6    1    1    2  502    0 -0.12919756420E+03  0.23434490111E+03 -0.86075426231E+03  0.91765540557E+03  0.17200000000E+03 0.  1.
         -6    1    1    2    0  501  0.12919756420E+03 -0.23434490111E+03 -0.35164741607E+03  0.47418292726E+03  0.17200000000E+03 0. -1.
<mgrwt>
<rscale>  2 0.31810933E+03</rscale>
<asrwt>0</asrwt>
<pdfrwt beam="1">  1        1 0.32552999E+00 0.31810933E+03</pdfrwt>
<pdfrwt beam="2">  1       -1 0.22429582E-01 0.31810933E+03</pdfrwt>
<totfact> 0.47018825E+01</totfact>
</mgrwt>
</event>
<event>
 4    1  0.3889096E-001  0.2144520E+03  0.7546771E-02  0.1138088E+00
         -1   -1    0    0    0  501 -0.00000000000E+00  0.00000000000E+00  0.28217835680E+03  0.28217835680E+03  0.00000000000E+00 0.  1.
          1   -1    0    0  502    0  0.00000000000E+00 -0.00000000000E+00 -0.16557520518E+03  0.16557520518E+03  0.00000000000E+00 0. -1.
          6    1    1    2  502    0  0.38374275739E+02 -0.12220097080E+03  0.30277716763E+02  0.21657885962E+03  0.17200000000E+03 0.  1.
         -6    1    1    2    0  501 -0.38374275739E+02  0.12220097080E+03  0.86325434859E+02  0.23117470235E+03  0.17200000000E+03 0.  1.
<mgrwt>
<rscale>  2 0.21445200E+03</rscale>
<asrwt>0</asrwt>
<pdfrwt beam="1">  1        1 0.41393802E-01 0.21445200E+03</pdfrwt>
<pdfrwt beam="2">  1       -1 0.70544588E-01 0.21445200E+03</pdfrwt>
<totfact> 0.21526912E+02</totfact>
</mgrwt>
</event>
<event>
 4    1  0.3889096E-001  0.1877564E+03  0.7546771E-02  0.1160501E+00
         -2   -1    0    0    0  501 -0.00000000000E+00  0.00000000000E+00  0.12822280907E+03  0.12822280907E+03  0.00000000000E+00 0.  1.
          2   -1    0    0  502    0  0.00000000000E+00 -0.00000000000E+00 -0.28912324695E+03  0.28912324695E+03  0.00000000000E+00 0. -1.
          6    1    1    2  502    0  0.72615308981E+02 -0.19886986372E+02 -0.34218035933E+02  0.19084902229E+03  0.17200000000E+03 0.  1.
         -6    1    1    2    0  501 -0.72615308981E+02  0.19886986372E+02 -0.12668240195E+03  0.22649703373E+03  0.17200000000E+03 0.  1.
<mgrwt>
<rscale>  2 0.18775643E+03</rscale>
<asrwt>0</asrwt>
<pdfrwt beam="1">  1        2 0.72280811E-01 0.18775643E+03</pdfrwt>
<pdfrwt beam="2">  1       -2 0.32055703E-01 0.18775643E+03</pdfrwt>
<totfact> 0.60741572E+02</totfact>
</mgrwt>
</event>
<event>
 4    1  0.3889096E-001  0.2016603E+03  0.7546771E-02  0.1148346E+00
          2   -1    0    0  502    0  0.00000000000E+00  0.00000000000E+00  0.11567825953E+04  0.11567825953E+04  0.00000000000E+00 0. -1.
         -2   -1    0    0    0  501 -0.00000000000E+00 -0.00000000000E+00 -0.39004974409E+02  0.39004974409E+02  0.00000000000E+00 0.  1.
          6    1    1    2  502    0  0.95623643800E+02 -0.44033957618E+02  0.74672715676E+03  0.77347806518E+03  0.17200000000E+03 0. -1.
         -6    1    1    2    0  501 -0.95623643800E+02  0.44033957618E+02  0.37105046410E+03  0.42230950450E+03  0.17200000000E+03 0.  1.
<mgrwt>
<rscale>  2 0.20166029E+03</rscale>
<asrwt>0</asrwt>
<pdfrwt beam="1">  1        2 0.28919553E+00 0.20166029E+03</pdfrwt>
<pdfrwt beam="2">  1       -2 0.97512474E-02 0.20166029E+03</pdfrwt>
<totfact> 0.60193690E+02</totfact>
</mgrwt>
</event>
<event>
 4    1  0.3889096E-001  0.2101350E+03  0.7546771E-02  0.1141459E+00
          2   -1    0    0  502    0  0.00000000000E+00  0.00000000000E+00  0.11231090347E+04  0.11231090347E+04  0.00000000000E+00 0.  1.
         -2   -1    0    0    0  501 -0.00000000000E+00 -0.00000000000E+00 -0.40097413095E+02  0.40097413095E+02  0.00000000000E+00 0. -1.
          6    1    1    2  502    0 -0.11349704009E+03 -0.41123514378E+02  0.46034082850E+03  0.50603399089E+03  0.17200000000E+03 0. -1.
         -6    1    1    2    0  501  0.11349704009E+03  0.41123514378E+02  0.62267079313E+03  0.65717245694E+03  0.17200000000E+03 0.  1.
<mgrwt>
<rscale>  2 0.21013501E+03</rscale>
<asrwt>0</asrwt>
<pdfrwt beam="1">  1        2 0.28077715E+00 0.21013501E+03</pdfrwt>
<pdfrwt beam="2">  1       -2 0.10024357E-01 0.21013501E+03</pdfrwt>
<totfact> 0.61415284E+02</totfact>
</mgrwt>
</event>
<event>
 4    1  0.3889096E-001  0.2875686E+03  0.7546771E-02  0.1091625E+00
         -2   -1    0    0    0  501 -0.00000000000E+00  0.00000000000E+00  0.51616571032E+02  0.51616571032E+02  0.00000000000E+00 0. -1.
          2   -1    0    0  502    0  0.00000000000E+00 -0.00000000000E+00 -0.16334083607E+04  0.16334083607E+04  0.00000000000E+00 0.  1.
          6    1    1    2  502    0  0.19345776122E+03  0.12524295043E+03 -0.67428142148E+03  0.73304238442E+03  0.17200000000E+03 0. -1.
         -6    1    1    2    0  501 -0.19345776122E+03 -0.12524295043E+03 -0.90751036819E+03  0.95198254731E+03  0.17200000000E+03 0.  1.
<mgrwt>
<rscale>  2 0.28756860E+03</rscale>
<asrwt>0</asrwt>
<pdfrwt beam="1">  1        2 0.40835209E+00 0.28756860E+03</pdfrwt>
<pdfrwt beam="2">  1       -2 0.12904143E-01 0.28756860E+03</pdfrwt>
<totfact> 0.14442988E+02</totfact>
</mgrwt>
</event>
<event>
 4    1  0.3889096E-001  0.2063437E+03  0.7546771E-02  0.1144495E+00
          2   -1    0    0  502    0  0.00000000000E+00  0.00000000000E+00  0.46744325477E+03  0.46744325477E+03  0.00000000000E+00 0. -1.
         -2   -1    0    0    0  501 -0.00000000000E+00 -0.00000000000E+00 -0.96305547836E+02  0.96305547836E+02  0.00000000000E+00 0.  1.
          6    1    1    2  502    0 -0.87721599136E+02 -0.72791695474E+02  0.25118806014E+03  0.32507407070E+03  0.17200000000E+03 0. -1.
         -6    1    1    2    0  501  0.87721599136E+02  0.72791695474E+02  0.11994964680E+03  0.23867473191E+03  0.17200000000E+03 0. -1.
<mgrwt>
<rscale>  2 0.20634367E+03</rscale>
<asrwt>0</asrwt>
<pdfrwt beam="1">  1        2 0.11686081E+00 0.20634367E+03</pdfrwt>
<pdfrwt beam="2">  1       -2 0.24076388E-01 0.20634367E+03</pdfrwt>
<totfact> 0.58067296E+02</totfact>
</mgrwt>
</event>
<event>
 4    1  0.3889096E-001  0.1773749E+03  0.7546771E-02  0.1170368E+00
         -2   -1    0    0    0  501 -0.00000000000E+00  0.00000000000E+00  0.24687169695E+02  0.24687169695E+02  0.00000000000E+00 0. -1.
          2   -1    0    0  502    0  0.00000000000E+00 -0.00000000000E+00 -0.20377597877E+04  0.20377597877E+04  0.00000000000E+00 0.  1.
          6    1    1    2  502    0 -0.33717834596E+02  0.27220694264E+02 -0.16376895784E+04  0.16472671350E+04  0.17200000000E+03 0.  1.
         -6    1    1    2    0  501  0.33717834596E+02 -0.27220694264E+02 -0.37538303952E+03  0.41517982240E+03  0.17200000000E+03 0. -1.
<mgrwt>
<rscale>  2 0.17737491E+03</rscale>
<asrwt>0</asrwt>
<pdfrwt beam="1">  1        2 0.50943987E+00 0.17737491E+03</pdfrwt>
<pdfrwt beam="2">  1       -2 0.61717933E-02 0.17737491E+03</pdfrwt>
<totfact> 0.19804060E+02</totfact>
</mgrwt>
</event>
<event>
 4    1  0.3889096E-001  0.2274220E+03  0.7546771E-02  0.1128468E+00
          2   -1    0    0  502    0  0.00000000000E+00  0.00000000000E+00  0.86751095294E+03  0.86751095294E+03  0.00000000000E+00 0.  1.
         -2   -1    0    0    0  501 -0.00000000000E+00 -0.00000000000E+00 -0.60019813572E+02  0.60019813572E+02  0.00000000000E+00 0. -1.
          6    1    1    2  502    0 -0.46249696922E+02  0.14141330655E+03  0.44161016167E+03  0.49672959709E+03  0.17200000000E+03 0.  1.
         -6    1    1    2    0  501  0.46249696922E+02 -0.14141330655E+03  0.36588097770E+03  0.43080116942E+03  0.17200000000E+03 0. -1.
<mgrwt>
<rscale>  2 0.22742198E+03</rscale>
<asrwt>0</asrwt>
<pdfrwt beam="1">  1        2 0.21687770E+00 0.22742198E+03</pdfrwt>
<pdfrwt beam="2">  1       -2 0.15004956E-01 0.22742198E+03</pdfrwt>
<totfact> 0.52769129E+02</totfact>
</mgrwt>
</event>
<event>
 4    1  0.3889096E-001  0.3777376E+03  0.7546771E-02  0.1051773E+00
          2   -1    0    0  502    0  0.00000000000E+00  0.00000000000E+00  0.36051080215E+03  0.36051080215E+03  0.00000000000E+00 0.  1.
         -2   -1    0    0    0  501 -0.00000000000E+00 -0.00000000000E+00 -0.43547203925E+03  0.43547203925E+03  0.00000000000E+00 0. -1.
          6    1    1    2  502    0 -0.29572510323E+03  0.16015112833E+03 -0.15762499909E+03  0.40930595027E+03  0.17200000000E+03 0. -1.
         -6    1    1    2    0  501  0.29572510323E+03 -0.16015112833E+03  0.82663761991E+02  0.38667689113E+03  0.17200000000E+03 0.  1.
<mgrwt>
<rscale>  2 0.37773763E+03</rscale>
<asrwt>0</asrwt>
<pdfrwt beam="1">  1        2 0.90127701E-01 0.37773763E+03</pdfrwt>
<pdfrwt beam="2">  1       -2 0.10886801E+00 0.37773763E+03</pdfrwt>
<totfact> 0.36230260E+01</totfact>
</mgrwt>
</event>
<event>
 4    1  0.3889096E-001  0.1818834E+03  0.7546771E-02  0.1165993E+00
         -2   -1    0    0    0  501 -0.00000000000E+00  0.00000000000E+00  0.33034261312E+03  0.33034261312E+03  0.00000000000E+00 0. -1.
          2   -1    0    0  502    0  0.00000000000E+00 -0.00000000000E+00 -0.14181325425E+03  0.14181325425E+03  0.00000000000E+00 0.  1.
          6    1    1    2  502    0 -0.57544204557E+02 -0.13646799204E+02 -0.33705550386E+02  0.18498009280E+03  0.17200000000E+03 0.  1.
         -6    1    1    2    0  501  0.57544204557E+02  0.13646799204E+02  0.22223490925E+03  0.28717577457E+03  0.17200000000E+03 0. -1.
<mgrwt>
<rscale>  2 0.18188340E+03</rscale>
<asrwt>0</asrwt>
<pdfrwt beam="1">  1        2 0.35453314E-01 0.18188340E+03</pdfrwt>
<pdfrwt beam="2">  1       -2 0.82585652E-01 0.18188340E+03</pdfrwt>
<totfact> 0.19568062E+02</totfact>
</mgrwt>
</event>
<event>
 4    1  0.3889096E-001  0.2026776E+03  0.7546771E-02  0.1147499E+00
          2   -1    0    0  502    0  0.00000000000E+00  0.00000000000E+00  0.23231920829E+04  0.23231920829E+04  0.00000000000E+00 0.  1.
         -2   -1    0    0    0  501 -0.00000000000E+00 -0.00000000000E+00 -0.18514859169E+02  0.18514859169E+02  0.00000000000E+00 0. -1.
          6    1    1    2  502    0 -0.10624501531E+03  0.14360217333E+02  0.90397949085E+03  0.92642168530E+03  0.17200000000E+03 0. -1.
         -6    1    1    2    0  501  0.10624501531E+03 -0.14360217333E+02  0.14006977328E+04  0.14152852567E+04  0.17200000000E+03 0.  1.
<mgrwt>
<rscale>  2 0.20267762E+03</rscale>
<asrwt>0</asrwt>
<pdfrwt beam="1">  1        2 0.58079703E+00 0.20267762E+03</pdfrwt>
<pdfrwt beam="2">  1       -2 0.46287227E-02 0.20267762E+03</pdfrwt>
<totfact> 0.14901322E+02</totfact>
</mgrwt>
</event>
<event>
 4    1  0.3889096E-001  0.2528663E+03  0.7546771E-02  0.1111507E+00
          2   -1    0    0  502    0  0.00000000000E+00  0.00000000000E+00  0.20859085172E+03  0.20859085172E+03  0.00000000000E+00 0. -1.
         -2   -1    0    0    0  501 -0.00000000000E+00 -0.00000000000E+00 -0.32457987584E+03  0.32457987584E+03  0.00000000000E+00 0.  1.
          6    1    1    2  502    0  0.42721465429E+02 -0.18036700782E+03  0.48540953008E+01  0.25291291655E+03  0.17200000000E+03 0. -1.
         -6    1    1    2    0  501 -0.42721465429E+02  0.18036700782E+03 -0.12084311943E+03  0.28025781101E+03  0.17200000000E+03 0.  1.
<mgrwt>
<rscale>  2 0.25286633E+03</rscale>
<asrwt>0</asrwt>
<pdfrwt beam="1">  1        2 0.52147713E-01 0.25286633E+03</pdfrwt>
<pdfrwt beam="2">  1       -2 0.81144968E-01 0.25286633E+03</pdfrwt>
<totfact> 0.13348688E+02</totfact>
</mgrwt>
</event>
<event>
 4    1  0.3889096E-001  0.2397852E+03  0.7546771E-02  0.1119936E+00
         -2   -1    0    0    0  501 -0.00000000000E+00  0.00000000000E+00  0.29516300485E+03  0.29516300485E+03  0.00000000000E+00 0.  1.
          2   -1    0    0  502    0  0.00000000000E+00 -0.00000000000E+00 -0.26073998703E+03  0.26073998703E+03  0.00000000000E+00 0. -1.
          6    1    1    2  502    0 -0.14794890310E+03  0.77614782749E+02 -0.12256969715E+03  0.26929586534E+03  0.17200000000E+03 0.  1.
         -6    1    1    2    0  501  0.14794890310E+03 -0.77614782749E+02  0.15699271498E+03  0.28660712654E+03  0.17200000000E+03 0.  1.
<mgrwt>
<rscale>  2 0.23978518E+03</rscale>
<asrwt>0</asrwt>
<pdfrwt beam="1">  1        2 0.65184997E-01 0.23978518E+03</pdfrwt>
<pdfrwt beam="2">  1       -2 0.73790751E-01 0.23978518E+03</pdfrwt>
<totfact> 0.12917725E+02</totfact>
</mgrwt>
</event>
<event>
 4    1  0.3889096E-001  0.1863102E+03  0.7546771E-02  0.1161832E+00
         -1   -1    0    0    0  501 -0.00000000000E+00  0.00000000000E+00  0.26613501457E+02  0.26613501457E+02  0.00000000000E+00 0. -1.
          1   -1    0    0  502    0  0.00000000000E+00 -0.00000000000E+00 -0.13606844137E+04  0.13606844137E+04  0.00000000000E+00 0.  1.
          6    1    1    2  502    0  0.62734243621E+02  0.34523916062E+02 -0.80826106830E+03  0.82945611133E+03  0.17200000000E+03 0.  1.
         -6    1    1    2    0  501 -0.62734243621E+02 -0.34523916062E+02 -0.52580984395E+03  0.55784180383E+03  0.17200000000E+03 0. -1.
<mgrwt>
<rscale>  2 0.18631019E+03</rscale>
<asrwt>0</asrwt>
<pdfrwt beam="1">  1        1 0.34017108E+00 0.18631019E+03</pdfrwt>
<pdfrwt beam="2">  1       -1 0.66533759E-02 0.18631019E+03</pdfrwt>
<totfact> 0.28661422E+02</totfact>
</mgrwt>
</event>
<event>
 4    1  0.3889096E-001  0.1725670E+03  0.7546771E-02  0.1175197E+00
         -2   -1    0    0    0  501 -0.00000000000E+00  0.00000000000E+00  0.52847630106E+03  0.52847630106E+03  0.00000000000E+00 0.  1.
          2   -1    0    0  502    0  0.00000000000E+00 -0.00000000000E+00 -0.66798704041E+02  0.66798704041E+02  0.00000000000E+00 0. -1.
          6    1    1    2  502    0 -0.76475526029E+01 -0.11699307119E+02  0.34855761473E+03  0.38893671675E+03  0.17200000000E+03 0.  1.
         -6    1    1    2    0  501  0.76475526029E+01  0.11699307119E+02  0.11311998229E+03  0.20633828835E+03  0.17200000000E+03 0. -1.
<mgrwt>
<rscale>  2 0.17256697E+03</rscale>
<asrwt>0</asrwt>
<pdfrwt beam="1">  1        2 0.16699678E-01 0.17256697E+03</pdfrwt>
<pdfrwt beam="2">  1       -2 0.13211906E+00 0.17256697E+03</pdfrwt>
<totfact> 0.15124123E+02</totfact>
</mgrwt>
</event>
<event>
 4    1  0.3889096E-001  0.3188198E+03  0.7546771E-02  0.1076194E+00
          2   -1    0    0  502    0  0.00000000000E+00  0.00000000000E+00  0.75397166946E+03  0.75397166946E+03  0.00000000000E+00 0. -1.
         -2   -1    0    0    0  501 -0.00000000000E+00 -0.00000000000E+00 -0.14907652875E+03  0.14907652875E+03  0.00000000000E+00 0.  1.
          6    1    1    2  502    0  0.16736035911E+03 -0.20988705632E+03  0.44210754185E+03  0.54507352235E+03  0.17200000000E+03 0. -1.
         -6    1    1    2    0  501 -0.16736035911E+03  0.20988705632E+03  0.16278759885E+03  0.35797467586E+03  0.17200000000E+03 0.  1.
<mgrwt>
<rscale>  2 0.31881980E+03</rscale>
<asrwt>0</asrwt>
<pdfrwt beam="1">  1        2 0.18849291E+00 0.31881980E+03</pdfrwt>
<pdfrwt beam="2">  1       -2 0.37269134E-01 0.31881980E+03</pdfrwt>
<totfact> 0.13221490E+02</totfact>
</mgrwt>
</event>
<event>
 4    1  0.3889096E-001  0.2021964E+03  0.7546771E-02  0.1147899E+00
          2   -1    0    0  502    0  0.00000000000E+00  0.00000000000E+00  0.87586881687E+03  0.87586881687E+03  0.00000000000E+00 0.  1.
         -2   -1    0    0    0  501 -0.00000000000E+00 -0.00000000000E+00 -0.68064541801E+02  0.68064541801E+02  0.00000000000E+00 0. -1.
          6    1    1    2  502    0  0.19410014089E+02  0.10451150785E+03  0.13934114956E+03  0.24555927977E+03  0.17200000000E+03 0. -1.
         -6    1    1    2    0  501 -0.19410014089E+02 -0.10451150785E+03  0.66846312551E+03  0.69837407890E+03  0.17200000000E+03 0.  1.
<mgrwt>
<rscale>  2 0.20219645E+03</rscale>
<asrwt>0</asrwt>
<pdfrwt beam="1">  1        2 0.21896717E+00 0.20219645E+03</pdfrwt>
<pdfrwt beam="2">  1       -2 0.17016138E-01 0.20219645E+03</pdfrwt>
<totfact> 0.42268441E+02</totfact>
</mgrwt>
</event>
<event>
 4    1  0.3889096E-001  0.2348658E+03  0.7546771E-02  0.1123261E+00
         -2   -1    0    0    0  501 -0.00000000000E+00  0.00000000000E+00  0.15069447763E+03  0.15069447763E+03  0.00000000000E+00 0. -1.
          2   -1    0    0  502    0  0.00000000000E+00 -0.00000000000E+00 -0.10923715778E+04  0.10923715778E+04  0.00000000000E+00 0.  1.
          6    1    1    2  502    0  0.85432206651E+02  0.13520095798E+03 -0.97764600912E+03  0.10054619238E+04  0.17200000000E+03 0.  1.
         -6    1    1    2    0  501 -0.85432206651E+02 -0.13520095798E+03  0.35968908958E+02  0.23760413166E+03  0.17200000000E+03 0. -1.
<mgrwt>
<rscale>  2 0.23486584E+03</rscale>
<asrwt>0</asrwt>
<pdfrwt beam="1">  1        2 0.27309289E+00 0.23486584E+03</pdfrwt>
<pdfrwt beam="2">  1       -2 0.37673620E-01 0.23486584E+03</pdfrwt>
<totfact> 0.66805655E+01</totfact>
</mgrwt>
</event>
<event>
 4    1  0.3889096E-001  0.2469591E+03  0.7546771E-02  0.1115242E+00
          1   -1    0    0  502    0  0.00000000000E+00  0.00000000000E+00  0.59376463853E+03  0.59376463853E+03  0.00000000000E+00 0.  1.
         -1   -1    0    0    0  501 -0.00000000000E+00 -0.00000000000E+00 -0.10534453537E+03  0.10534453537E+03  0.00000000000E+00 0. -1.
          6    1    1    2  502    0 -0.14628433120E+03  0.10002852586E+03  0.18898831977E+03  0.31097491306E+03  0.17200000000E+03 0. -1.
         -6    1    1    2    0  501  0.14628433120E+03 -0.10002852586E+03  0.29943178338E+03  0.38813426084E+03  0.17200000000E+03 0.  1.
<mgrwt>
<rscale>  2 0.24695913E+03</rscale>
<asrwt>0</asrwt>
<pdfrwt beam="1">  1        1 0.14844115E+00 0.24695913E+03</pdfrwt>
<pdfrwt beam="2">  1       -1 0.26336136E-01 0.24695913E+03</pdfrwt>
<totfact> 0.21976020E+02</totfact>
</mgrwt>
</event>
<event>
 4    1  0.3889096E-001  0.2375412E+03  0.7546771E-02  0.1121442E+00
          1   -1    0    0  502    0  0.00000000000E+00  0.00000000000E+00  0.12159244230E+03  0.12159244230E+03  0.00000000000E+00 0.  1.
         -1   -1    0    0    0  501 -0.00000000000E+00 -0.00000000000E+00 -0.49281352796E+03  0.49281352796E+03  0.00000000000E+00 0. -1.
          6    1    1    2  502    0  0.16302446588E+03  0.16274014075E+02 -0.11140222400E+03  0.26236668142E+03  0.17200000000E+03 0.  1.
         -6    1    1    2    0  501 -0.16302446588E+03 -0.16274014075E+02 -0.25981886166E+03  0.35203928883E+03  0.17200000000E+03 0. -1.
<mgrwt>
<rscale>  2 0.23754120E+03</rscale>
<asrwt>0</asrwt>
<pdfrwt beam="1">  1        1 0.30398111E-01 0.23754120E+03</pdfrwt>
<pdfrwt beam="2">  1       -1 0.12320338E+00 0.23754120E+03</pdfrwt>
<totfact> 0.93702185E+01</totfact>
</mgrwt>
</event>
<event>
 4    1  0.3889096E-001  0.1900040E+03  0.7546771E-02  0.1158458E+00
         -4   -1    0    0    0  501 -0.00000000000E+00  0.00000000000E+00  0.21525107232E+03  0.21525107232E+03  0.00000000000E+00 0.  1.
          4   -1    0    0  502    0  0.00000000000E+00 -0.00000000000E+00 -0.17053401036E+03  0.17053401036E+03  0.00000000000E+00 0. -1.
          6    1    1    2  502    0 -0.42206009846E+02 -0.68819868451E+02  0.47144844184E+02  0.19576556871E+03  0.17200000000E+03 0.  1.
         -6    1    1    2    0  501  0.42206009846E+02  0.68819868451E+02 -0.24277822247E+01  0.19001951396E+03  0.17200000000E+03 0. -1.
<mgrwt>
<rscale>  2 0.19000400E+03</rscale>
<asrwt>0</asrwt>
<pdfrwt beam="1">  1        4 0.42633503E-01 0.19000400E+03</pdfrwt>
<pdfrwt beam="2">  1       -4 0.53812768E-01 0.19000400E+03</pdfrwt>
<totfact> 0.31514414E+01</totfact>
</mgrwt>
</event>
<event>
 4    1  0.3889096E-001  0.2434845E+03  0.7546771E-02  0.1117493E+00
         -1   -1    0    0    0  501 -0.00000000000E+00  0.00000000000E+00  0.54840998087E+02  0.54840998087E+02  0.00000000000E+00 0.  1.
          1   -1    0    0  502    0  0.00000000000E+00 -0.00000000000E+00 -0.16365891692E+04  0.16365891692E+04  0.00000000000E+00 0. -1.
          6    1    1    2  502    0  0.15149729101E+03  0.82153885340E+02 -0.12836164783E+04  0.13065052443E+04  0.17200000000E+03 0. -1.
         -6    1    1    2    0  501 -0.15149729101E+03 -0.82153885340E+02 -0.29813169277E+03  0.38492492293E+03  0.17200000000E+03 0. -1.
<mgrwt>
<rscale>  2 0.24348448E+03</rscale>
<asrwt>0</asrwt>
<pdfrwt beam="1">  1        1 0.40914728E+00 0.24348448E+03</pdfrwt>
<pdfrwt beam="2">  1       -1 0.13710250E-01 0.24348448E+03</pdfrwt>
<totfact> 0.46704112E+01</totfact>
</mgrwt>
</event>
<event>
 4    1  0.3889096E-001  0.1854275E+03  0.7546771E-02  0.1162651E+00
         -2   -1    0    0    0  501 -0.00000000000E+00  0.00000000000E+00  0.36753862723E+02  0.36753862723E+02  0.00000000000E+00 0. -1.
          2   -1    0    0  502    0  0.00000000000E+00 -0.00000000000E+00 -0.14525624935E+04  0.14525624935E+04  0.00000000000E+00 0.  1.
          6    1    1    2  502    0  0.50863555275E+02 -0.47034745586E+02 -0.11521872004E+04  0.11670127306E+04  0.17200000000E+03 0.  1.
         -6    1    1    2    0  501 -0.50863555275E+02  0.47034745586E+02 -0.26362143031E+03  0.32230362559E+03  0.17200000000E+03 0. -1.
<mgrwt>
<rscale>  2 0.18542753E+03</rscale>
<asrwt>0</asrwt>
<pdfrwt beam="1">  1        2 0.36314062E+00 0.18542753E+03</pdfrwt>
<pdfrwt beam="2">  1       -2 0.91884659E-02 0.18542753E+03</pdfrwt>
<totfact> 0.37192884E+02</totfact>
</mgrwt>
</event>
<event>
 4    1  0.3889096E-001  0.1975443E+03  0.7546771E-02  0.1151828E+00
          1   -1    0    0  502    0  0.00000000000E+00  0.00000000000E+00  0.25677481637E+03  0.25677481637E+03  0.00000000000E+00 0.  1.
         -1   -1    0    0    0  501 -0.00000000000E+00 -0.00000000000E+00 -0.18099316439E+03  0.18099316439E+03  0.00000000000E+00 0. -1.
          6    1    1    2  502    0  0.82803762062E+02 -0.50825861054E+02 -0.49750078320E+02  0.20371254614E+03  0.17200000000E+03 0. -1.
         -6    1    1    2    0  501 -0.82803762062E+02  0.50825861054E+02  0.12553173029E+03  0.23405543462E+03  0.17200000000E+03 0.  1.
<mgrwt>
<rscale>  2 0.19754425E+03</rscale>
<asrwt>0</asrwt>
<pdfrwt beam="1">  1        1 0.64193704E-01 0.19754425E+03</pdfrwt>
<pdfrwt beam="2">  1       -1 0.45248291E-01 0.19754425E+03</pdfrwt>
<totfact> 0.28759967E+02</totfact>
</mgrwt>
</event>
<event>
 4    1  0.3889096E-001  0.2061279E+03  0.7546771E-02  0.1144669E+00
         -2   -1    0    0    0  501 -0.00000000000E+00  0.00000000000E+00  0.12923842391E+03  0.12923842391E+03  0.00000000000E+00 0.  1.
          2   -1    0    0  502    0  0.00000000000E+00 -0.00000000000E+00 -0.70968273914E+03  0.70968273914E+03  0.00000000000E+00 0. -1.
          6    1    1    2  502    0  0.11342253424E+03 -0.63290257582E+01 -0.59753176909E+03  0.63208618313E+03  0.17200000000E+03 0. -1.
         -6    1    1    2    0  501 -0.11342253424E+03  0.63290257582E+01  0.17087453858E+02  0.20683497992E+03  0.17200000000E+03 0.  1.
<mgrwt>
<rscale>  2 0.20612794E+03</rscale>
<asrwt>0</asrwt>
<pdfrwt beam="1">  1        2 0.17742068E+00 0.20612794E+03</pdfrwt>
<pdfrwt beam="2">  1       -2 0.32309607E-01 0.20612794E+03</pdfrwt>
<totfact> 0.19398181E+02</totfact>
</mgrwt>
</event>
<event>
 4    1  0.3889096E-001  0.1753233E+03  0.7546771E-02  0.1172408E+00
         -2   -1    0    0    0  501 -0.00000000000E+00  0.00000000000E+00  0.46279663160E+02  0.46279663160E+02  0.00000000000E+00 0. -1.
          2   -1    0    0  502    0  0.00000000000E+00 -0.00000000000E+00 -0.66475992546E+03  0.66475992546E+03  0.00000000000E+00 0.  1.
          6    1    1    2  502    0 -0.33750713108E+02  0.38907579644E+01 -0.29878296058E+03  0.34642388221E+03  0.17200000000E+03 0. -1.
         -6    1    1    2    0  501  0.33750713108E+02 -0.38907579644E+01 -0.31969730173E+03  0.36461570641E+03  0.17200000000E+03 0.  1.
<mgrwt>
<rscale>  2 0.17532327E+03</rscale>
<asrwt>0</asrwt>
<pdfrwt beam="1">  1        2 0.16618998E+00 0.17532327E+03</pdfrwt>
<pdfrwt beam="2">  1       -2 0.11569916E-01 0.17532327E+03</pdfrwt>
<totfact> 0.12351898E+03</totfact>
</mgrwt>
</event>
<event>
 4    1  0.3889096E-001  0.1931026E+03  0.7546771E-02  0.1155692E+00
         -2   -1    0    0    0  501 -0.00000000000E+00  0.00000000000E+00  0.54012250690E+02  0.54012250690E+02  0.00000000000E+00 0.  1.
          2   -1    0    0  502    0  0.00000000000E+00 -0.00000000000E+00 -0.80583735035E+03  0.80583735035E+03  0.00000000000E+00 0. -1.
          6    1    1    2  502    0  0.85003549540E+01  0.87363413190E+02 -0.21317342417E+03  0.28763089328E+03  0.17200000000E+03 0.  1.
         -6    1    1    2    0  501 -0.85003549540E+01 -0.87363413190E+02 -0.53865167548E+03  0.57221870775E+03  0.17200000000E+03 0. -1.
<mgrwt>
<rscale>  2 0.19310262E+03</rscale>
<asrwt>0</asrwt>
<pdfrwt beam="1">  1        2 0.20145933E+00 0.19310262E+03</pdfrwt>
<pdfrwt beam="2">  1       -2 0.13503063E-01 0.19310262E+03</pdfrwt>
<totfact> 0.71427234E+02</totfact>
</mgrwt>
</event>
<event>
 4    1  0.3889096E-001  0.1840761E+03  0.7546771E-02  0.1163916E+00
         -2   -1    0    0    0  501 -0.00000000000E+00  0.00000000000E+00  0.16320542942E+03  0.16320542942E+03  0.00000000000E+00 0. -1.
          2   -1    0    0  502    0  0.00000000000E+00 -0.00000000000E+00 -0.22053183673E+03  0.22053183673E+03  0.00000000000E+00 0.  1.
          6    1    1    2  502    0  0.65433630828E+02  0.42936024060E+01  0.17770800448E+02  0.18493186965E+03  0.17200000000E+03 0. -1.
         -6    1    1    2    0  501 -0.65433630828E+02 -0.42936024060E+01 -0.75097207757E+02  0.19880539650E+03  0.17200000000E+03 0.  1.
<mgrwt>
<rscale>  2 0.18407606E+03</rscale>
<asrwt>0</asrwt>
<pdfrwt beam="1">  1        2 0.55132959E-01 0.18407606E+03</pdfrwt>
<pdfrwt beam="2">  1       -2 0.40801358E-01 0.18407606E+03</pdfrwt>
<totfact> 0.51897582E+02</totfact>
</mgrwt>
</event>
<event>
 4    1  0.3889096E-001  0.1736392E+03  0.7546771E-02  0.1174105E+00
         -2   -1    0    0    0  501 -0.00000000000E+00  0.00000000000E+00  0.29706496961E+03  0.29706496961E+03  0.00000000000E+00 0.  1.
          2   -1    0    0  502    0  0.00000000000E+00 -0.00000000000E+00 -0.12259779349E+03  0.12259779349E+03  0.00000000000E+00 0. -1.
          6    1    1    2  502    0  0.22652267155E+02 -0.73097148512E+01  0.17715134772E+00  0.17363924822E+03  0.17200000000E+03 0. -1.
         -6    1    1    2    0  501 -0.22652267155E+02  0.73097148512E+01  0.17429002477E+03  0.24602351488E+03  0.17200000000E+03 0.  1.
<mgrwt>
<rscale>  2 0.17363916E+03</rscale>
<asrwt>0</asrwt>
<pdfrwt beam="1">  1        2 0.30649449E-01 0.17363916E+03</pdfrwt>
<pdfrwt beam="2">  1       -2 0.74266241E-01 0.17363916E+03</pdfrwt>
<totfact> 0.28914134E+02</totfact>
</mgrwt>
</event>
<event>
 4    1  0.3889096E-001  0.1858613E+03  0.7546771E-02  0.1162248E+00
         -2   -1    0    0    0  501 -0.00000000000E+00  0.00000000000E+00  0.95463324855E+02  0.95463324855E+02  0.00000000000E+00 0. -1.
          2   -1    0    0  502    0  0.00000000000E+00 -0.00000000000E+00 -0.38465032339E+03  0.38465032339E+03  0.00000000000E+00 0.  1.
          6    1    1    2  502    0 -0.36204922488E+02  0.60412127407E+02 -0.86161603165E+02  0.20486152252E+03  0.17200000000E+03 0. -1.
         -6    1    1    2    0  501  0.36204922488E+02 -0.60412127407E+02 -0.20302539537E+03  0.27525212572E+03  0.17200000000E+03 0.  1.
<mgrwt>
<rscale>  2 0.18586130E+03</rscale>
<asrwt>0</asrwt>
<pdfrwt beam="1">  1        2 0.96162580E-01 0.18586130E+03</pdfrwt>
<pdfrwt beam="2">  1       -2 0.23865831E-01 0.18586130E+03</pdfrwt>
<totfact> 0.74558571E+02</totfact>
</mgrwt>
</event>
<event>
 4    1  0.3889096E-001  0.2208658E+03  0.7546771E-02  0.1133239E+00
          2   -1    0    0  502    0  0.00000000000E+00  0.00000000000E+00  0.64132559866E+02  0.64132559866E+02  0.00000000000E+00 0.  1.
         -2   -1    0    0    0  501 -0.00000000000E+00 -0.00000000000E+00 -0.80072185174E+03  0.80072185174E+03  0.00000000000E+00 0. -1.
          6    1    1    2  502    0  0.13401448843E+03  0.35182949564E+02 -0.46504481703E+03  0.51482851989E+03  0.17200000000E+03 0. -1.
         -6    1    1    2    0  501 -0.13401448843E+03 -0.35182949564E+02 -0.27154447484E+03  0.35002589171E+03  0.17200000000E+03 0.  1.
<mgrwt>
<rscale>  2 0.22086585E+03</rscale>
<asrwt>0</asrwt>
<pdfrwt beam="1">  1        2 0.16033140E-01 0.22086585E+03</pdfrwt>
<pdfrwt beam="2">  1       -2 0.20018046E+00 0.22086585E+03</pdfrwt>
<totfact> 0.52249403E+01</totfact>
</mgrwt>
</event>
<event>
 4    1  0.3889096E-001  0.1824799E+03  0.7546771E-02  0.1165424E+00
         -2   -1    0    0    0  501 -0.00000000000E+00  0.00000000000E+00  0.14537329418E+03  0.14537329418E+03  0.00000000000E+00 0.  1.
          2   -1    0    0  502    0  0.00000000000E+00 -0.00000000000E+00 -0.23027339043E+03  0.23027339043E+03  0.00000000000E+00 0. -1.
          6    1    1    2  502    0 -0.53822837003E+02  0.28600789264E+02 -0.28804164010E+02  0.18473922917E+03  0.17200000000E+03 0.  1.
         -6    1    1    2    0  501  0.53822837003E+02 -0.28600789264E+02 -0.56095932235E+02  0.19090745544E+03  0.17200000000E+03 0. -1.
<mgrwt>
<rscale>  2 0.18247987E+03</rscale>
<asrwt>0</asrwt>
<pdfrwt beam="1">  1        2 0.57568347E-01 0.18247987E+03</pdfrwt>
<pdfrwt beam="2">  1       -2 0.36343324E-01 0.18247987E+03</pdfrwt>
<totfact> 0.61649649E+02</totfact>
</mgrwt>
</event>
<event>
 4    1  0.3889096E-001  0.4833820E+03  0.7546771E-02  0.1018210E+00
         -2   -1    0    0    0  501 -0.00000000000E+00  0.00000000000E+00  0.11329514636E+04  0.11329514636E+04  0.00000000000E+00 0. -1.
          2   -1    0    0  502    0  0.00000000000E+00 -0.00000000000E+00 -0.20767368685E+03  0.20767368685E+03  0.00000000000E+00 0.  1.
          6    1    1    2  502    0  0.39595363972E+03 -0.21747375151E+03  0.51836429908E+03  0.70877335162E+03  0.17200000000E+03 0.  1.
         -6    1    1    2    0  501 -0.39595363972E+03  0.21747375151E+03  0.40691347772E+03  0.63185179888E+03  0.17200000000E+03 0.  1.
<mgrwt>
<rscale>  2 0.48338196E+03</rscale>
<asrwt>0</asrwt>
<pdfrwt beam="1">  1        2 0.51918425E-01 0.48338196E+03</pdfrwt>
<pdfrwt beam="2">  1       -2 0.28323785E+00 0.48338196E+03</pdfrwt>
<totfact> 0.41933138E+00</totfact>
</mgrwt>
</event>
<event>
 4    1  0.3889096E-001  0.1962382E+03  0.7546771E-02  0.1152952E+00
          1   -1    0    0  502    0  0.00000000000E+00  0.00000000000E+00  0.63764178945E+03  0.63764178945E+03  0.00000000000E+00 0. -1.
         -1   -1    0    0    0  501 -0.00000000000E+00 -0.00000000000E+00 -0.89867935712E+02  0.89867935712E+02  0.00000000000E+00 0.  1.
          6    1    1    2  502    0 -0.81409256281E+02  0.47936996809E+02  0.65567804828E+02  0.20690229506E+03  0.17200000000E+03 0.  1.
         -6    1    1    2    0  501  0.81409256281E+02 -0.47936996809E+02  0.48220604891E+03  0.52060743010E+03  0.17200000000E+03 0. -1.
<mgrwt>
<rscale>  2 0.19623818E+03</rscale>
<asrwt>0</asrwt>
<pdfrwt beam="1">  1        1 0.15941043E+00 0.19623818E+03</pdfrwt>
<pdfrwt beam="2">  1       -1 0.22466986E-01 0.19623818E+03</pdfrwt>
<totfact> 0.25541975E+02</totfact>
</mgrwt>
</event>
<event>
 4    1  0.3889096E-001  0.1790448E+03  0.7546771E-02  0.1168731E+00
          2   -1    0    0  502    0  0.00000000000E+00  0.00000000000E+00  0.77061265779E+03  0.77061265779E+03  0.00000000000E+00 0.  1.
         -2   -1    0    0    0  501 -0.00000000000E+00 -0.00000000000E+00 -0.47602133120E+02  0.47602133120E+02  0.00000000000E+00 0. -1.
          6    1    1    2  502    0 -0.42433777082E+01 -0.49548195528E+02  0.50678276689E+03  0.53748097896E+03  0.17200000000E+03 0.  1.
         -6    1    1    2    0  501  0.42433777082E+01  0.49548195528E+02  0.21622775778E+03  0.28073381195E+03  0.17200000000E+03 0. -1.
<mgrwt>
<rscale>  2 0.17904477E+03</rscale>
<asrwt>0</asrwt>
<pdfrwt beam="1">  1        2 0.19265312E+00 0.17904477E+03</pdfrwt>
<pdfrwt beam="2">  1       -2 0.11900536E-01 0.17904477E+03</pdfrwt>
<totfact> 0.94319574E+02</totfact>
</mgrwt>
</event>
<event>
 4    1  0.3889096E-001  0.1835480E+03  0.7546771E-02  0.1164413E+00
         -2   -1    0    0    0  501 -0.00000000000E+00  0.00000000000E+00  0.23490395693E+02  0.23490395693E+02  0.00000000000E+00 0. -1.
          2   -1    0    0  502    0  0.00000000000E+00 -0.00000000000E+00 -0.14955697757E+04  0.14955697757E+04  0.00000000000E+00 0.  1.
          6    1    1    2  502    0  0.42386379957E+02  0.48054635335E+02 -0.88990113347E+03  0.90863297351E+03  0.17200000000E+03 0.  1.
         -6    1    1    2    0  501 -0.42386379957E+02 -0.48054635335E+02 -0.58217824651E+03  0.61042719787E+03  0.17200000000E+03 0. -1.
<mgrwt>
<rscale>  2 0.18354796E+03</rscale>
<asrwt>0</asrwt>
<pdfrwt beam="1">  1        2 0.37389243E+00 0.18354796E+03</pdfrwt>
<pdfrwt beam="2">  1       -2 0.58725992E-02 0.18354796E+03</pdfrwt>
<totfact> 0.68270381E+02</totfact>
</mgrwt>
</event>
<event>
 4    1  0.3889096E-001  0.1766615E+03  0.7546771E-02  0.1171074E+00
          4   -1    0    0  502    0  0.00000000000E+00  0.00000000000E+00  0.85925327118E+03  0.85925327118E+03  0.00000000000E+00 0. -1.
         -4   -1    0    0    0  501 -0.00000000000E+00 -0.00000000000E+00 -0.36783009977E+02  0.36783009977E+02  0.00000000000E+00 0.  1.
          6    1    1    2  502    0 -0.26880220182E+02 -0.30045485699E+02  0.46142452128E+03  0.49408690155E+03  0.17200000000E+03 0.  1.
         -6    1    1    2    0  501  0.26880220182E+02  0.30045485699E+02  0.36104573992E+03  0.40194937961E+03  0.17200000000E+03 0.  1.
<mgrwt>
<rscale>  2 0.17666148E+03</rscale>
<asrwt>0</asrwt>
<pdfrwt beam="1">  1        4 0.21481325E+00 0.17666148E+03</pdfrwt>
<pdfrwt beam="2">  1       -4 0.91957553E-02 0.17666148E+03</pdfrwt>
<totfact> 0.18055166E+01</totfact>
</mgrwt>
</event>
<event>
 4    1  0.3889096E-001  0.2282530E+03  0.7546771E-02  0.1127875E+00
         -2   -1    0    0    0  501 -0.00000000000E+00  0.00000000000E+00  0.52622774765E+02  0.52622774765E+02  0.00000000000E+00 0.  1.
          2   -1    0    0  502    0  0.00000000000E+00 -0.00000000000E+00 -0.99084419780E+03  0.99084419780E+03  0.00000000000E+00 0. -1.
          6    1    1    2  502    0  0.13526424055E+03  0.64954073192E+02 -0.45438717452E+03  0.50849498598E+03  0.17200000000E+03 0.  1.
         -6    1    1    2    0  501 -0.13526424055E+03 -0.64954073192E+02 -0.48383424851E+03  0.53497198658E+03  0.17200000000E+03 0. -1.
<mgrwt>
<rscale>  2 0.22825303E+03</rscale>
<asrwt>0</asrwt>
<pdfrwt beam="1">  1        2 0.24771105E+00 0.22825303E+03</pdfrwt>
<pdfrwt beam="2">  1       -2 0.13155694E-01 0.22825303E+03</pdfrwt>
<totfact> 0.51216038E+02</totfact>
</mgrwt>
</event>
<event>
 4    1  0.3889096E-001  0.2090402E+03  0.7546771E-02  0.1142328E+00
         -2   -1    0    0    0  501 -0.00000000000E+00  0.00000000000E+00  0.10732845110E+03  0.10732845110E+03  0.00000000000E+00 0. -1.
          2   -1    0    0  502    0  0.00000000000E+00 -0.00000000000E+00 -0.51401759657E+03  0.51401759657E+03  0.00000000000E+00 0.  1.
          6    1    1    2  502    0 -0.58934928602E+02 -0.10315267049E+03 -0.34500746935E+03  0.40339552941E+03  0.17200000000E+03 0.  1.
         -6    1    1    2    0  501  0.58934928602E+02  0.10315267049E+03 -0.61681676116E+02  0.21795051826E+03  0.17200000000E+03 0. -1.
<mgrwt>
<rscale>  2 0.20904019E+03</rscale>
<asrwt>0</asrwt>
<pdfrwt beam="1">  1        2 0.12850440E+00 0.20904019E+03</pdfrwt>
<pdfrwt beam="2">  1       -2 0.26832113E-01 0.20904019E+03</pdfrwt>
<totfact> 0.42517307E+02</totfact>
</mgrwt>
</event>
<event>
 4    1  0.3889096E-001  0.1773657E+03  0.7546771E-02  0.1170377E+00
         -1   -1    0    0    0  501 -0.00000000000E+00  0.00000000000E+00  0.13713334419E+03  0.13713334419E+03  0.00000000000E+00 0. -1.
          1   -1    0    0  502    0  0.00000000000E+00 -0.00000000000E+00 -0.24362052044E+03  0.24362052044E+03  0.00000000000E+00 0.  1.
          6    1    1    2  502    0 -0.16289922332E+02  0.40115418329E+02 -0.72506952197E+01  0.17751388942E+03  0.17200000000E+03 0. -1.
         -6    1    1    2    0  501  0.16289922332E+02 -0.40115418329E+02 -0.99236481026E+02  0.20323997521E+03  0.17200000000E+03 0.  1.
<mgrwt>
<rscale>  2 0.17736575E+03</rscale>
<asrwt>0</asrwt>
<pdfrwt beam="1">  1        1 0.60905130E-01 0.17736575E+03</pdfrwt>
<pdfrwt beam="2">  1       -1 0.34283336E-01 0.17736575E+03</pdfrwt>
<totfact> 0.50241732E+02</totfact>
</mgrwt>
</event>
<event>
 4    1  0.3889096E-001  0.1833382E+03  0.7546771E-02  0.1164611E+00
          1   -1    0    0  502    0  0.00000000000E+00  0.00000000000E+00  0.70700519283E+03  0.70700519283E+03  0.00000000000E+00 0.  1.
         -1   -1    0    0    0  501 -0.00000000000E+00 -0.00000000000E+00 -0.70035228608E+02  0.70035228608E+02  0.00000000000E+00 0. -1.
          6    1    1    2  502    0  0.37214172157E+02  0.51419863303E+02  0.98306430100E+02  0.20803137059E+03  0.17200000000E+03 0. -1.
         -6    1    1    2    0  501 -0.37214172157E+02 -0.51419863303E+02  0.53866353412E+03  0.56900905085E+03  0.17200000000E+03 0.  1.
<mgrwt>
<rscale>  2 0.18333820E+03</rscale>
<asrwt>0</asrwt>
<pdfrwt beam="1">  1        1 0.17675128E+00 0.18333820E+03</pdfrwt>
<pdfrwt beam="2">  1       -1 0.17508809E-01 0.18333820E+03</pdfrwt>
<totfact> 0.31834930E+02</totfact>
</mgrwt>
</event>
<event>
 4    1  0.3889096E-001  0.1957555E+03  0.7546771E-02  0.1153370E+00
         -3   -1    0    0    0  501 -0.00000000000E+00  0.00000000000E+00  0.11063918698E+03  0.11063918698E+03  0.00000000000E+00 0.  1.
          3   -1    0    0  502    0  0.00000000000E+00 -0.00000000000E+00 -0.41708022946E+03  0.41708022946E+03  0.00000000000E+00 0. -1.
          6    1    1    2  502    0 -0.24268818738E+02 -0.90262004625E+02 -0.44563734731E+02  0.20076386999E+03  0.17200000000E+03 0.  1.
         -6    1    1    2    0  501  0.24268818738E+02  0.90262004625E+02 -0.26187730775E+03  0.32695554645E+03  0.17200000000E+03 0. -1.
<mgrwt>
<rscale>  2 0.19575547E+03</rscale>
<asrwt>0</asrwt>
<pdfrwt beam="1">  1        3 0.10427006E+00 0.19575547E+03</pdfrwt>
<pdfrwt beam="2">  1       -3 0.27659797E-01 0.19575547E+03</pdfrwt>
<totfact> 0.25079123E+01</totfact>
</mgrwt>
</event>
<event>
 4    1  0.3889096E-001  0.1898266E+03  0.7546771E-02  0.1158618E+00
         -1   -1    0    0    0  501 -0.00000000000E+00  0.00000000000E+00  0.43359558241E+02  0.43359558241E+02  0.00000000000E+00 0. -1.
          1   -1    0    0  502    0  0.00000000000E+00 -0.00000000000E+00 -0.91140572633E+03  0.91140572633E+03  0.00000000000E+00 0.  1.
          6    1    1    2  502    0 -0.63320547212E+02 -0.49403029498E+02 -0.29227822642E+03  0.34851214134E+03  0.17200000000E+03 0.  1.
         -6    1    1    2    0  501  0.63320547212E+02  0.49403029498E+02 -0.57576794167E+03  0.60625314323E+03  0.17200000000E+03 0. -1.
<mgrwt>
<rscale>  2 0.18982663E+03</rscale>
<asrwt>0</asrwt>
<pdfrwt beam="1">  1        1 0.22785144E+00 0.18982663E+03</pdfrwt>
<pdfrwt beam="2">  1       -1 0.10839889E-01 0.18982663E+03</pdfrwt>
<totfact> 0.40256174E+02</totfact>
</mgrwt>
</event>
<event>
 4    1  0.3889096E-001  0.3793982E+03  0.7546771E-02  0.1051156E+00
         -1   -1    0    0    0  501 -0.00000000000E+00  0.00000000000E+00  0.27515527474E+03  0.27515527474E+03  0.00000000000E+00 0. -1.
          1   -1    0    0  502    0  0.00000000000E+00 -0.00000000000E+00 -0.53654620336E+03  0.53654620336E+03  0.00000000000E+00 0.  1.
          6    1    1    2  502    0 -0.10185440092E+03  0.32246649938E+03 -0.19486364764E+03  0.42651471648E+03  0.17200000000E+03 0.  1.
         -6    1    1    2    0  501  0.10185440092E+03 -0.32246649938E+03 -0.66527280980E+02  0.38518676161E+03  0.17200000000E+03 0. -1.
<mgrwt>
<rscale>  2 0.37939816E+03</rscale>
<asrwt>0</asrwt>
<pdfrwt beam="1">  1        1 0.13413655E+00 0.37939816E+03</pdfrwt>
<pdfrwt beam="2">  1       -1 0.68788819E-01 0.37939816E+03</pdfrwt>
<totfact> 0.44247565E+01</totfact>
</mgrwt>
</event>
<event>
 4    1  0.3889096E-001  0.1789421E+03  0.7546771E-02  0.1168831E+00
          2   -1    0    0  502    0  0.00000000000E+00  0.00000000000E+00  0.51364561950E+03  0.51364561950E+03  0.00000000000E+00 0.  1.
         -2   -1    0    0    0  501 -0.00000000000E+00 -0.00000000000E+00 -0.89243788022E+02  0.89243788022E+02  0.00000000000E+00 0. -1.
          6    1    1    2  502    0  0.49207913971E+02  0.38563921037E+01  0.46688222420E+02  0.18493263820E+03  0.17200000000E+03 0. -1.
         -6    1    1    2    0  501 -0.49207913971E+02 -0.38563921037E+01  0.37771360906E+03  0.41795676932E+03  0.17200000000E+03 0.  1.
<mgrwt>
<rscale>  2 0.17894214E+03</rscale>
<asrwt>0</asrwt>
<pdfrwt beam="1">  1        2 0.12841140E+00 0.17894214E+03</pdfrwt>
<pdfrwt beam="2">  1       -2 0.22310948E-01 0.17894214E+03</pdfrwt>
<totfact> 0.58972001E+02</totfact>
</mgrwt>
</event>
<event>
 4    1  0.3889096E-001  0.2550309E+03  0.7546771E-02  0.1110166E+00
          2   -1    0    0  502    0  0.00000000000E+00  0.00000000000E+00  0.69814154928E+03  0.69814154928E+03  0.00000000000E+00 0. -1.
         -2   -1    0    0    0  501 -0.00000000000E+00 -0.00000000000E+00 -0.11966407764E+03  0.11966407764E+03  0.00000000000E+00 0.  1.
          6    1    1    2  502    0 -0.18022731411E+03  0.54542518429E+02  0.48166847806E+03  0.54501861787E+03  0.17200000000E+03 0. -1.
         -6    1    1    2    0  501  0.18022731411E+03 -0.54542518429E+02  0.96808993589E+02  0.27278700905E+03  0.17200000000E+03 0.  1.
<mgrwt>
<rscale>  2 0.25503092E+03</rscale>
<asrwt>0</asrwt>
<pdfrwt beam="1">  1        2 0.17453538E+00 0.25503092E+03</pdfrwt>
<pdfrwt beam="2">  1       -2 0.29916021E-01 0.25503092E+03</pdfrwt>
<totfact> 0.22678069E+02</totfact>
</mgrwt>
</event>
<event>
 4    1  0.3889096E-001  0.1929647E+03  0.7546771E-02  0.1155814E+00
          3   -1    0    0  502    0  0.00000000000E+00  0.00000000000E+00  0.21945037216E+03  0.21945037216E+03  0.00000000000E+00 0.  1.
         -3   -1    0    0    0  501 -0.00000000000E+00 -0.00000000000E+00 -0.19610599301E+03  0.19610599301E+03  0.00000000000E+00 0. -1.
          6    1    1    2  502    0 -0.84303843728E+02 -0.23329048853E+02  0.87951363824E+02  0.21206325704E+03  0.17200000000E+03 0. -1.
         -6    1    1    2    0  501  0.84303843728E+02  0.23329048853E+02 -0.64606984680E+02  0.20349310813E+03  0.17200000000E+03 0. -1.
<mgrwt>
<rscale>  2 0.19296472E+03</rscale>
<asrwt>0</asrwt>
<pdfrwt beam="1">  1        3 0.54862593E-01 0.19296472E+03</pdfrwt>
<pdfrwt beam="2">  1       -3 0.49026498E-01 0.19296472E+03</pdfrwt>
<totfact> 0.33548251E+01</totfact>
</mgrwt>
</event>
<event>
 4    1  0.3889096E-001  0.2193053E+03  0.7546771E-02  0.1134402E+00
          2   -1    0    0  502    0  0.00000000000E+00  0.00000000000E+00  0.30152194097E+03  0.30152194097E+03  0.00000000000E+00 0.  1.
         -2   -1    0    0    0  501 -0.00000000000E+00 -0.00000000000E+00 -0.19214344134E+03  0.19214344134E+03  0.00000000000E+00 0. -1.
          6    1    1    2  502    0 -0.58504524290E+02  0.12283334212E+03  0.15641769778E+03  0.26937205771E+03  0.17200000000E+03 0.  1.
         -6    1    1    2    0  501  0.58504524290E+02 -0.12283334212E+03 -0.47039198154E+02  0.22429332460E+03  0.17200000000E+03 0. -1.
<mgrwt>
<rscale>  2 0.21930529E+03</rscale>
<asrwt>0</asrwt>
<pdfrwt beam="1">  1        2 0.75380485E-01 0.21930529E+03</pdfrwt>
<pdfrwt beam="2">  1       -2 0.48035861E-01 0.21930529E+03</pdfrwt>
<totfact> 0.26828177E+02</totfact>
</mgrwt>
</event>
<event>
 4    1  0.3889096E-001  0.1946080E+03  0.7546771E-02  0.1154370E+00
         -2   -1    0    0    0  501 -0.00000000000E+00  0.00000000000E+00  0.53661327169E+02  0.53661327169E+02  0.00000000000E+00 0. -1.
          2   -1    0    0  502    0  0.00000000000E+00 -0.00000000000E+00 -0.15061994008E+04  0.15061994008E+04  0.00000000000E+00 0.  1.
          6    1    1    2  502    0 -0.50559197354E+02 -0.75710235428E+02 -0.12948306551E+04  0.13093733989E+04  0.17200000000E+03 0.  1.
         -6    1    1    2    0  501  0.50559197354E+02  0.75710235428E+02 -0.15770741846E+03  0.25048732907E+03  0.17200000000E+03 0. -1.
<mgrwt>
<rscale>  2 0.19460800E+03</rscale>
<asrwt>0</asrwt>
<pdfrwt beam="1">  1        2 0.37654986E+00 0.19460800E+03</pdfrwt>
<pdfrwt beam="2">  1       -2 0.13415332E-01 0.19460800E+03</pdfrwt>
<totfact> 0.18180375E+02</totfact>
</mgrwt>
</event>
<event>
 4    1  0.3889096E-001  0.1739974E+03  0.7546771E-02  0.1173742E+00
          2   -1    0    0  502    0  0.00000000000E+00  0.00000000000E+00  0.72864954450E+03  0.72864954450E+03  0.00000000000E+00 0. -1.
         -2   -1    0    0    0  501 -0.00000000000E+00 -0.00000000000E+00 -0.41597192886E+02  0.41597192886E+02  0.00000000000E+00 0.  1.
          6    1    1    2  502    0 -0.26260363344E+02 -0.12174520902E+01  0.33049779396E+03  0.37350218298E+03  0.17200000000E+03 0.  1.
         -6    1    1    2    0  501  0.26260363344E+02  0.12174520902E+01  0.35655455765E+03  0.39674455441E+03  0.17200000000E+03 0.  1.
<mgrwt>
<rscale>  2 0.17399738E+03</rscale>
<asrwt>0</asrwt>
<pdfrwt beam="1">  1        2 0.18216234E+00 0.17399738E+03</pdfrwt>
<pdfrwt beam="2">  1       -2 0.10399301E-01 0.17399738E+03</pdfrwt>
<totfact> 0.12768534E+03</totfact>
</mgrwt>
</event>
<event>
 4    1  0.3889096E-001  0.1794084E+03  0.7546771E-02  0.1168377E+00
          1   -1    0    0  502    0  0.00000000000E+00  0.00000000000E+00  0.70663292382E+03  0.70663292382E+03  0.00000000000E+00 0.  1.
         -1   -1    0    0    0  501 -0.00000000000E+00 -0.00000000000E+00 -0.18501021319E+03  0.18501021319E+03  0.00000000000E+00 0. -1.
          6    1    1    2  502    0 -0.25092508380E+02  0.44426879188E+02  0.64787985671E+03  0.67226162341E+03  0.17200000000E+03 0.  1.
         -6    1    1    2    0  501  0.25092508380E+02 -0.44426879188E+02 -0.12625714609E+03  0.21938151360E+03  0.17200000000E+03 0. -1.
<mgrwt>
<rscale>  2 0.17940842E+03</rscale>
<asrwt>0</asrwt>
<pdfrwt beam="1">  1        1 0.17665822E+00 0.17940842E+03</pdfrwt>
<pdfrwt beam="2">  1       -1 0.46252555E-01 0.17940842E+03</pdfrwt>
<totfact> 0.61885308E+01</totfact>
</mgrwt>
</event>
<event>
 4    1  0.3889096E-001  0.2462361E+03  0.7546771E-02  0.1115707E+00
          2   -1    0    0  502    0  0.00000000000E+00  0.00000000000E+00  0.31318445233E+03  0.31318445233E+03  0.00000000000E+00 0.  1.
         -2   -1    0    0    0  501 -0.00000000000E+00 -0.00000000000E+00 -0.19558812868E+03  0.19558812868E+03  0.00000000000E+00 0. -1.
          6    1    1    2  502    0  0.12231364249E+03 -0.12683685150E+03  0.84451736129E+02  0.26031578855E+03  0.17200000000E+03 0.  1.
         -6    1    1    2    0  501 -0.12231364249E+03  0.12683685150E+03  0.33144587513E+02  0.24845679246E+03  0.17200000000E+03 0. -1.
<mgrwt>
<rscale>  2 0.24623609E+03</rscale>
<asrwt>0</asrwt>
<pdfrwt beam="1">  1        2 0.78296112E-01 0.24623609E+03</pdfrwt>
<pdfrwt beam="2">  1       -2 0.48897033E-01 0.24623609E+03</pdfrwt>
<totfact> 0.24765720E+02</totfact>
</mgrwt>
</event>
<event>
 4    1  0.3889096E-001  0.1746764E+03  0.7546771E-02  0.1173057E+00
         -2   -1    0    0    0  501 -0.00000000000E+00  0.00000000000E+00  0.13949558929E+03  0.13949558929E+03  0.00000000000E+00 0.  1.
          2   -1    0    0  502    0  0.00000000000E+00 -0.00000000000E+00 -0.23557885050E+03  0.23557885050E+03  0.00000000000E+00 0. -1.
          6    1    1    2  502    0 -0.46628044999E+01 -0.30101809263E+02 -0.98195604316E+02  0.20038522244E+03  0.17200000000E+03 0. -1.
         -6    1    1    2    0  501  0.46628044999E+01  0.30101809263E+02  0.21123431070E+01  0.17468921736E+03  0.17200000000E+03 0.  1.
<mgrwt>
<rscale>  2 0.17467645E+03</rscale>
<asrwt>0</asrwt>
<pdfrwt beam="1">  1        2 0.58894712E-01 0.17467645E+03</pdfrwt>
<pdfrwt beam="2">  1       -2 0.34873897E-01 0.17467645E+03</pdfrwt>
<totfact> 0.64951543E+02</totfact>
</mgrwt>
</event>
<event>
 4    1  0.3889096E-001  0.1850823E+03  0.7546771E-02  0.1162973E+00
          1   -1    0    0  502    0  0.00000000000E+00  0.00000000000E+00  0.18878148795E+03  0.18878148795E+03  0.00000000000E+00 0. -1.
         -1   -1    0    0    0  501 -0.00000000000E+00 -0.00000000000E+00 -0.24070005249E+03  0.24070005249E+03  0.00000000000E+00 0.  1.
          6    1    1    2  502    0 -0.34018011320E+02 -0.59280972302E+02 -0.13249622932E+03  0.22761965986E+03  0.17200000000E+03 0.  1.
         -6    1    1    2    0  501  0.34018011320E+02  0.59280972302E+02  0.80577664777E+02  0.20186188058E+03  0.17200000000E+03 0. -1.
<mgrwt>
<rscale>  2 0.18508230E+03</rscale>
<asrwt>0</asrwt>
<pdfrwt beam="1">  1        1 0.47195372E-01 0.18508230E+03</pdfrwt>
<pdfrwt beam="2">  1       -1 0.60175013E-01 0.18508230E+03</pdfrwt>
<totfact> 0.25015603E+02</totfact>
</mgrwt>
</event>
<event>
 4    1  0.3889096E-001  0.1879450E+03  0.7546771E-02  0.1160328E+00
          1   -1    0    0  502    0  0.00000000000E+00  0.00000000000E+00  0.47622660624E+03  0.47622660624E+03  0.00000000000E+00 0.  1.
         -1   -1    0    0    0  501 -0.00000000000E+00 -0.00000000000E+00 -0.80917207484E+02  0.80917207484E+02  0.00000000000E+00 0. -1.
          6    1    1    2  502    0  0.72430198625E+02  0.22207701905E+02  0.27807608327E+03  0.33563316848E+03  0.17200000000E+03 0.  1.
         -6    1    1    2    0  501 -0.72430198625E+02 -0.22207701905E+02  0.11723331548E+03  0.22151064524E+03  0.17200000000E+03 0. -1.
<mgrwt>
<rscale>  2 0.18794498E+03</rscale>
<asrwt>0</asrwt>
<pdfrwt beam="1">  1        1 0.11905664E+00 0.18794498E+03</pdfrwt>
<pdfrwt beam="2">  1       -1 0.20229303E-01 0.18794498E+03</pdfrwt>
<totfact> 0.48603121E+02</totfact>
</mgrwt>
</event>
<event>
 4    1  0.3889096E-001  0.3323681E+03  0.7546771E-02  0.1070094E+00
          2   -1    0    0  502    0  0.00000000000E+00  0.00000000000E+00  0.66891313824E+03  0.66891313824E+03  0.00000000000E+00 0. -1.
         -2   -1    0    0    0  501 -0.00000000000E+00 -0.00000000000E+00 -0.33243575604E+03  0.33243575604E+03  0.00000000000E+00 0.  1.
          6    1    1    2  502    0  0.24140066214E+03 -0.15036706166E+03  0.52340833571E+03  0.62002001484E+03  0.17200000000E+03 0. -1.
         -6    1    1    2    0  501 -0.24140066214E+03  0.15036706166E+03 -0.18693095351E+03  0.38132887944E+03  0.17200000000E+03 0.  1.
<mgrwt>
<rscale>  2 0.33236807E+03</rscale>
<asrwt>0</asrwt>
<pdfrwt beam="1">  1        2 0.16722828E+00 0.33236807E+03</pdfrwt>
<pdfrwt beam="2">  1       -2 0.83108940E-01 0.33236807E+03</pdfrwt>
<totfact> 0.30455272E+01</totfact>
</mgrwt>
</event>
<event>
 4    1  0.3889096E-001  0.3008971E+03  0.7546771E-02  0.1084793E+00
         -2   -1    0    0    0  501 -0.00000000000E+00  0.00000000000E+00  0.66446254644E+02  0.66446254644E+02  0.00000000000E+00 0. -1.
          2   -1    0    0  502    0  0.00000000000E+00 -0.00000000000E+00 -0.13891713900E+04  0.13891713900E+04  0.00000000000E+00 0.  1.
          6    1    1    2  502    0 -0.18904993199E+03 -0.15879294401E+03 -0.76203699759E+03  0.81929204900E+03  0.17200000000E+03 0. -1.
         -6    1    1    2    0  501  0.18904993199E+03  0.15879294401E+03 -0.56068813779E+03  0.63632559567E+03  0.17200000000E+03 0.  1.
<mgrwt>
<rscale>  2 0.30089712E+03</rscale>
<asrwt>0</asrwt>
<pdfrwt beam="1">  1        2 0.34729283E+00 0.30089712E+03</pdfrwt>
<pdfrwt beam="2">  1       -2 0.16611564E-01 0.30089712E+03</pdfrwt>
<totfact> 0.15613317E+02</totfact>
</mgrwt>
</event>
<event>
 4    1  0.3889096E-001  0.2302065E+03  0.7546771E-02  0.1126494E+00
         -2   -1    0    0    0  501 -0.00000000000E+00  0.00000000000E+00  0.65582168410E+03  0.65582168410E+03  0.00000000000E+00 0.  1.
          2   -1    0    0  502    0  0.00000000000E+00 -0.00000000000E+00 -0.88450788617E+02  0.88450788617E+02  0.00000000000E+00 0. -1.
          6    1    1    2  502    0 -0.63345661321E+02  0.13927801881E+03  0.39308183828E+03  0.45553086714E+03  0.17200000000E+03 0.  1.
         -6    1    1    2    0  501  0.63345661321E+02 -0.13927801881E+03  0.17428905720E+03  0.28874160558E+03  0.17200000000E+03 0. -1.
<mgrwt>
<rscale>  2 0.23020651E+03</rscale>
<asrwt>0</asrwt>
<pdfrwt beam="1">  1        2 0.22112699E-01 0.23020651E+03</pdfrwt>
<pdfrwt beam="2">  1       -2 0.16395541E+00 0.23020651E+03</pdfrwt>
<totfact> 0.62664883E+01</totfact>
</mgrwt>
</event>
<event>
 4    1  0.3889096E-001  0.1793984E+03  0.7546771E-02  0.1168387E+00
         -2   -1    0    0    0  501 -0.00000000000E+00  0.00000000000E+00  0.27007607060E+02  0.27007607060E+02  0.00000000000E+00 0.  1.
          2   -1    0    0  502    0  0.00000000000E+00 -0.00000000000E+00 -0.12912932937E+04  0.12912932937E+04  0.00000000000E+00 0. -1.
          6    1    1    2  502    0  0.12959488309E+02 -0.49313582440E+02 -0.81524059284E+03  0.83474607035E+03  0.17200000000E+03 0. -1.
         -6    1    1    2    0  501 -0.12959488309E+02  0.49313582440E+02 -0.44904509384E+03  0.48355483045E+03  0.17200000000E+03 0.  1.
<mgrwt>
<rscale>  2 0.17939838E+03</rscale>
<asrwt>0</asrwt>
<pdfrwt beam="1">  1        2 0.32282332E+00 0.17939838E+03</pdfrwt>
<pdfrwt beam="2">  1       -2 0.67519019E-02 0.17939838E+03</pdfrwt>
<totfact> 0.82574222E+02</totfact>
</mgrwt>
</event>
<event>
 4    1  0.3889096E-001  0.4353691E+03  0.7546771E-02  0.1032177E+00
          2   -1    0    0  502    0  0.00000000000E+00  0.00000000000E+00  0.57259268590E+03  0.57259268590E+03  0.00000000000E+00 0.  1.
         -2   -1    0    0    0  501 -0.00000000000E+00 -0.00000000000E+00 -0.37426237549E+03  0.37426237549E+03  0.00000000000E+00 0. -1.
          6    1    1    2  502    0  0.24551500662E+03  0.31572873862E+03  0.26006739747E+03  0.50713046259E+03  0.17200000000E+03 0.  1.
         -6    1    1    2    0  501 -0.24551500662E+03 -0.31572873862E+03 -0.61737087065E+02  0.43972459879E+03  0.17200000000E+03 0.  1.
<mgrwt>
<rscale>  2 0.43536910E+03</rscale>
<asrwt>0</asrwt>
<pdfrwt beam="1">  1        2 0.14314817E+00 0.43536910E+03</pdfrwt>
<pdfrwt beam="2">  1       -2 0.93565594E-01 0.43536910E+03</pdfrwt>
<totfact> 0.28525353E+01</totfact>
</mgrwt>
</event>
<event>
 4    1  0.3889096E-001  0.2065984E+03  0.7546771E-02  0.1144288E+00
          2   -1    0    0  502    0  0.00000000000E+00  0.00000000000E+00  0.12624054712E+04  0.12624054712E+04  0.00000000000E+00 0. -1.
         -2   -1    0    0    0  501 -0.00000000000E+00 -0.00000000000E+00 -0.37265089603E+02  0.37265089603E+02  0.00000000000E+00 0.  1.
          6    1    1    2  502    0 -0.10554851954E+03 -0.44254143807E+02  0.41472178550E+03  0.46333257881E+03  0.17200000000E+03 0.  1.
         -6    1    1    2    0  501  0.10554851954E+03  0.44254143807E+02  0.81041859614E+03  0.83633798203E+03  0.17200000000E+03 0. -1.
<mgrwt>
<rscale>  2 0.20659845E+03</rscale>
<asrwt>0</asrwt>
<pdfrwt beam="1">  1        2 0.31560123E+00 0.20659845E+03</pdfrwt>
<pdfrwt beam="2">  1       -2 0.93162766E-02 0.20659845E+03</pdfrwt>
<totfact> 0.52615858E+02</totfact>
</mgrwt>
</event>
<event>
 4    1  0.3889096E-001  0.2241553E+03  0.7546771E-02  0.1130822E+00
         -2   -1    0    0    0  501 -0.00000000000E+00  0.00000000000E+00  0.12221313236E+03  0.12221313236E+03  0.00000000000E+00 0. -1.
          2   -1    0    0  502    0  0.00000000000E+00 -0.00000000000E+00 -0.83397744909E+03  0.83397744909E+03  0.00000000000E+00 0.  1.
          6    1    1    2  502    0  0.14251076886E+03 -0.18768945991E+02 -0.69631285859E+03  0.73150337635E+03  0.17200000000E+03 0.  1.
         -6    1    1    2    0  501 -0.14251076886E+03  0.18768945991E+02 -0.15451458144E+02  0.22468720510E+03  0.17200000000E+03 0. -1.
<mgrwt>
<rscale>  2 0.22415529E+03</rscale>
<asrwt>0</asrwt>
<pdfrwt beam="1">  1        2 0.20849436E+00 0.22415529E+03</pdfrwt>
<pdfrwt beam="2">  1       -2 0.30553284E-01 0.22415529E+03</pdfrwt>
<totfact> 0.16514174E+02</totfact>
</mgrwt>
</event>
<event>
 4    1  0.3889096E-001  0.2078372E+03  0.7546771E-02  0.1143290E+00
         -2   -1    0    0    0  501 -0.00000000000E+00  0.00000000000E+00  0.39833630150E+02  0.39833630150E+02  0.00000000000E+00 0. -1.
          2   -1    0    0  502    0  0.00000000000E+00 -0.00000000000E+00 -0.12231842035E+04  0.12231842035E+04  0.00000000000E+00 0.  1.
          6    1    1    2  502    0  0.41232463874E+02  0.10914297269E+03 -0.37897138967E+03  0.43222172406E+03  0.17200000000E+03 0.  1.
         -6    1    1    2    0  501 -0.41232463874E+02 -0.10914297269E+03 -0.80437918368E+03  0.83079610959E+03  0.17200000000E+03 0. -1.
<mgrwt>
<rscale>  2 0.20783721E+03</rscale>
<asrwt>0</asrwt>
<pdfrwt beam="1">  1        2 0.30579602E+00 0.20783721E+03</pdfrwt>
<pdfrwt beam="2">  1       -2 0.99584085E-02 0.20783721E+03</pdfrwt>
<totfact> 0.51100738E+02</totfact>
</mgrwt>
</event>
<event>
 4    1  0.3889096E-001  0.1806134E+03  0.7546771E-02  0.1167211E+00
         -2   -1    0    0    0  501 -0.00000000000E+00  0.00000000000E+00  0.13465373747E+03  0.13465373747E+03  0.00000000000E+00 0.  1.
          2   -1    0    0  502    0  0.00000000000E+00 -0.00000000000E+00 -0.24226557818E+03  0.24226557818E+03  0.00000000000E+00 0. -1.
          6    1    1    2  502    0  0.52306922681E+02 -0.17354622977E+02 -0.52891227809E+02  0.18819850977E+03  0.17200000000E+03 0. -1.
         -6    1    1    2    0  501 -0.52306922681E+02  0.17354622977E+02 -0.54720612900E+02  0.18872080589E+03  0.17200000000E+03 0.  1.
<mgrwt>
<rscale>  2 0.18061339E+03</rscale>
<asrwt>0</asrwt>
<pdfrwt beam="1">  1        2 0.60566394E-01 0.18061339E+03</pdfrwt>
<pdfrwt beam="2">  1       -2 0.33663435E-01 0.18061339E+03</pdfrwt>
<totfact> 0.67291238E+02</totfact>
</mgrwt>
</event>
<event>
 4    1  0.3889096E-001  0.2170581E+03  0.7546771E-02  0.1136096E+00
         -2   -1    0    0    0  501 -0.00000000000E+00  0.00000000000E+00  0.64894429811E+03  0.64894429811E+03  0.00000000000E+00 0. -1.
          2   -1    0    0  502    0  0.00000000000E+00 -0.00000000000E+00 -0.11543159506E+03  0.11543159506E+03  0.00000000000E+00 0.  1.
          6    1    1    2  502    0  0.80053735267E+02 -0.10545899900E+03  0.33952500303E+02  0.21969745852E+03  0.17200000000E+03 0.  1.
         -6    1    1    2    0  501 -0.80053735267E+02  0.10545899900E+03  0.49956020275E+03  0.54467843465E+03  0.17200000000E+03 0. -1.
<mgrwt>
<rscale>  2 0.21705806E+03</rscale>
<asrwt>0</asrwt>
<pdfrwt beam="1">  1        2 0.28857901E-01 0.21705806E+03</pdfrwt>
<pdfrwt beam="2">  1       -2 0.16223606E+00 0.21705806E+03</pdfrwt>
<totfact> 0.47950420E+01</totfact>
</mgrwt>
</event>
<event>
 4    1  0.3889096E-001  0.2273117E+03  0.7546771E-02  0.1128546E+00
         -2   -1    0    0    0  501 -0.00000000000E+00  0.00000000000E+00  0.30019597251E+02  0.30019597251E+02  0.00000000000E+00 0.  1.
          2   -1    0    0  502    0  0.00000000000E+00 -0.00000000000E+00 -0.17693828996E+04  0.17693828996E+04  0.00000000000E+00 0. -1.
          6    1    1    2  502    0  0.91931802434E+02 -0.11676963651E+03 -0.72125814110E+03  0.75623006447E+03  0.17200000000E+03 0.  1.
         -6    1    1    2    0  501 -0.91931802434E+02  0.11676963651E+03 -0.10181051612E+04  0.10431724323E+04  0.17200000000E+03 0. -1.
<mgrwt>
<rscale>  2 0.22731169E+03</rscale>
<asrwt>0</asrwt>
<pdfrwt beam="1">  1        2 0.44234569E+00 0.22731169E+03</pdfrwt>
<pdfrwt beam="2">  1       -2 0.75049000E-02 0.22731169E+03</pdfrwt>
<totfact> 0.26157114E+02</totfact>
</mgrwt>
</event>
<event>
 4    1  0.3889096E-001  0.1959347E+03  0.7546771E-02  0.1153215E+00
         -1   -1    0    0    0  501 -0.00000000000E+00  0.00000000000E+00  0.66937700058E+02  0.66937700058E+02  0.00000000000E+00 0. -1.
          1   -1    0    0  502    0  0.00000000000E+00 -0.00000000000E+00 -0.10641388944E+04  0.10641388944E+04  0.00000000000E+00 0.  1.
          6    1    1    2  502    0 -0.21331346410E+02 -0.91385805355E+02 -0.11459891102E+03  0.22698744936E+03  0.17200000000E+03 0. -1.
         -6    1    1    2    0  501  0.21331346410E+02  0.91385805355E+02 -0.88260228333E+03  0.90408914511E+03  0.17200000000E+03 0.  1.
<mgrwt>
<rscale>  2 0.19593466E+03</rscale>
<asrwt>0</asrwt>
<pdfrwt beam="1">  1        1 0.26603472E+00 0.19593466E+03</pdfrwt>
<pdfrwt beam="2">  1       -1 0.16734425E-01 0.19593466E+03</pdfrwt>
<totfact> 0.14020402E+02</totfact>
</mgrwt>
</event>
<event>
 4    1  0.3889096E-001  0.1929100E+03  0.7546771E-02  0.1155863E+00
         -1   -1    0    0    0  501 -0.00000000000E+00  0.00000000000E+00  0.28325924634E+02  0.28325924634E+02  0.00000000000E+00 0. -1.
          1   -1    0    0  502    0  0.00000000000E+00 -0.00000000000E+00 -0.14083920899E+04  0.14083920899E+04  0.00000000000E+00 0.  1.
          6    1    1    2  502    0 -0.87108383368E+02 -0.65102084881E+01 -0.87621403362E+03  0.89719857667E+03  0.17200000000E+03 0.  1.
         -6    1    1    2    0  501  0.87108383368E+02  0.65102084881E+01 -0.50385213164E+03  0.53951943786E+03  0.17200000000E+03 0. -1.
<mgrwt>
<rscale>  2 0.19290996E+03</rscale>
<asrwt>0</asrwt>
<pdfrwt beam="1">  1        1 0.35209799E+00 0.19290996E+03</pdfrwt>
<pdfrwt beam="2">  1       -1 0.70814818E-02 0.19290996E+03</pdfrwt>
<totfact> 0.23187812E+02</totfact>
</mgrwt>
</event>
<event>
 4    1  0.3889096E-001  0.1874128E+03  0.7546771E-02  0.1160816E+00
          2   -1    0    0  502    0  0.00000000000E+00  0.00000000000E+00  0.12946123277E+04  0.12946123277E+04  0.00000000000E+00 0.  1.
         -2   -1    0    0    0  501 -0.00000000000E+00 -0.00000000000E+00 -0.31085203217E+02  0.31085203217E+02  0.00000000000E+00 0. -1.
          6    1    1    2  502    0  0.61033240114E+02  0.42596903854E+02  0.39533962001E+03  0.43751224871E+03  0.17200000000E+03 0. -1.
         -6    1    1    2    0  501 -0.61033240114E+02 -0.42596903854E+02  0.86818750451E+03  0.88818528225E+03  0.17200000000E+03 0.  1.
<mgrwt>
<rscale>  2 0.18741279E+03</rscale>
<asrwt>0</asrwt>
<pdfrwt beam="1">  1        2 0.32365290E+00 0.18741279E+03</pdfrwt>
<pdfrwt beam="2">  1       -2 0.77713051E-02 0.18741279E+03</pdfrwt>
<totfact> 0.65906434E+02</totfact>
</mgrwt>
</event>
<event>
 4    1  0.3889096E-001  0.1878876E+03  0.7546771E-02  0.1160380E+00
         -2   -1    0    0    0  501 -0.00000000000E+00  0.00000000000E+00  0.82233286194E+02  0.82233286194E+02  0.00000000000E+00 0. -1.
          2   -1    0    0  502    0  0.00000000000E+00 -0.00000000000E+00 -0.46206636840E+03  0.46206636840E+03  0.00000000000E+00 0.  1.
          6    1    1    2  502    0  0.72596258205E+02 -0.21155076384E+02 -0.26240189681E+03  0.32273287625E+03  0.17200000000E+03 0.  1.
         -6    1    1    2    0  501 -0.72596258205E+02  0.21155076384E+02 -0.11743118539E+03  0.22156677834E+03  0.17200000000E+03 0. -1.
<mgrwt>
<rscale>  2 0.18788761E+03</rscale>
<asrwt>0</asrwt>
<pdfrwt beam="1">  1        2 0.11551659E+00 0.18788761E+03</pdfrwt>
<pdfrwt beam="2">  1       -2 0.20558322E-01 0.18788761E+03</pdfrwt>
<totfact> 0.77487792E+02</totfact>
</mgrwt>
</event>
<event>
 4    1  0.3889096E-001  0.2121297E+03  0.7546771E-02  0.1139891E+00
          2   -1    0    0  502    0  0.00000000000E+00  0.00000000000E+00  0.95596034078E+02  0.95596034078E+02  0.00000000000E+00 0. -1.
         -2   -1    0    0    0  501 -0.00000000000E+00 -0.00000000000E+00 -0.47078236318E+03  0.47078236318E+03  0.00000000000E+00 0.  1.
          6    1    1    2  502    0 -0.12285641559E+03 -0.17925067353E+02 -0.19084108522E+03  0.28534072037E+03  0.17200000000E+03 0. -1.
         -6    1    1    2    0  501  0.12285641559E+03  0.17925067353E+02 -0.18434524388E+03  0.28103767689E+03  0.17200000000E+03 0.  1.
<mgrwt>
<rscale>  2 0.21212969E+03</rscale>
<asrwt>0</asrwt>
<pdfrwt beam="1">  1        2 0.23899009E-01 0.21212969E+03</pdfrwt>
<pdfrwt beam="2">  1       -2 0.11769559E+00 0.21212969E+03</pdfrwt>
<totfact> 0.13296141E+02</totfact>
</mgrwt>
</event>
<event>
 4    1  0.3889096E-001  0.1770018E+03  0.7546771E-02  0.1170737E+00
         -2   -1    0    0    0  501 -0.00000000000E+00  0.00000000000E+00  0.11221121909E+03  0.11221121909E+03  0.00000000000E+00 0.  1.
          2   -1    0    0  502    0  0.00000000000E+00 -0.00000000000E+00 -0.33296921982E+03  0.33296921982E+03  0.00000000000E+00 0. -1.
          6    1    1    2  502    0 -0.29185392117E+02  0.29897600752E+02 -0.19982497024E+03  0.26694507370E+03  0.17200000000E+03 0. -1.
         -6    1    1    2    0  501  0.29185392117E+02 -0.29897600752E+02 -0.20933030490E+02  0.17823536520E+03  0.17200000000E+03 0.  1.
<mgrwt>
<rscale>  2 0.17700185E+03</rscale>
<asrwt>0</asrwt>
<pdfrwt beam="1">  1        2 0.83242304E-01 0.17700185E+03</pdfrwt>
<pdfrwt beam="2">  1       -2 0.28052805E-01 0.17700185E+03</pdfrwt>
<totfact> 0.66085080E+02</totfact>
</mgrwt>
</event>
<event>
 4    1  0.3889096E-001  0.2569726E+03  0.7546771E-02  0.1108976E+00
          1   -1    0    0  502    0  0.00000000000E+00  0.00000000000E+00  0.12167869317E+04  0.12167869317E+04  0.00000000000E+00 0.  1.
         -1   -1    0    0    0  501 -0.00000000000E+00 -0.00000000000E+00 -0.11311811556E+03  0.11311811556E+03  0.00000000000E+00 0. -1.
          6    1    1    2  502    0 -0.13198378349E+03  0.13795352203E+03  0.10314477354E+04  0.10629766339E+04  0.17200000000E+03 0.  1.
         -6    1    1    2    0  501  0.13198378349E+03 -0.13795352203E+03  0.72221080710E+02  0.26692841333E+03  0.17200000000E+03 0. -1.
<mgrwt>
<rscale>  2 0.25697255E+03</rscale>
<asrwt>0</asrwt>
<pdfrwt beam="1">  1        1 0.30419669E+00 0.25697255E+03</pdfrwt>
<pdfrwt beam="2">  1       -1 0.28279533E-01 0.25697255E+03</pdfrwt>
<totfact> 0.40088039E+01</totfact>
</mgrwt>
</event>
<event>
 4    1  0.3889096E-001  0.2938361E+03  0.7546771E-02  0.1088363E+00
         -2   -1    0    0    0  501 -0.00000000000E+00  0.00000000000E+00  0.10168134871E+03  0.10168134871E+03  0.00000000000E+00 0.  1.
          2   -1    0    0  502    0  0.00000000000E+00 -0.00000000000E+00 -0.94217759150E+03  0.94217759150E+03  0.00000000000E+00 0. -1.
          6    1    1    2  502    0 -0.23576236999E+03  0.34230619585E+02 -0.25621854121E+03  0.38985583397E+03  0.17200000000E+03 0. -1.
         -6    1    1    2    0  501  0.23576236999E+03 -0.34230619585E+02 -0.58427770158E+03  0.65400310625E+03  0.17200000000E+03 0.  1.
<mgrwt>
<rscale>  2 0.29383606E+03</rscale>
<asrwt>0</asrwt>
<pdfrwt beam="1">  1        2 0.23554440E+00 0.29383606E+03</pdfrwt>
<pdfrwt beam="2">  1       -2 0.25420337E-01 0.29383606E+03</pdfrwt>
<totfact> 0.18201743E+02</totfact>
</mgrwt>
</event>
<event>
 4    1  0.3889096E-001  0.1941836E+03  0.7546771E-02  0.1154741E+00
         -1   -1    0    0    0  501 -0.00000000000E+00  0.00000000000E+00  0.12596813246E+03  0.12596813246E+03  0.00000000000E+00 0.  1.
          1   -1    0    0  502    0  0.00000000000E+00 -0.00000000000E+00 -0.42860480802E+03  0.42860480802E+03  0.00000000000E+00 0. -1.
          6    1    1    2  502    0 -0.64573351384E+01 -0.89897643542E+02  0.96084703287E+00  0.19418601061E+03  0.17200000000E+03 0.  1.
         -6    1    1    2    0  501  0.64573351384E+01  0.89897643542E+02 -0.30359752260E+03  0.36038692987E+03  0.17200000000E+03 0.  1.
<mgrwt>
<rscale>  2 0.19418363E+03</rscale>
<asrwt>0</asrwt>
<pdfrwt beam="1">  1        1 0.10715120E+00 0.19418363E+03</pdfrwt>
<pdfrwt beam="2">  1       -1 0.31492033E-01 0.19418363E+03</pdfrwt>
<totfact> 0.27205938E+02</totfact>
</mgrwt>
</event>
<event>
 4    1  0.3889096E-001  0.2152970E+03  0.7546771E-02  0.1137439E+00
          1   -1    0    0  502    0  0.00000000000E+00  0.00000000000E+00  0.37242683004E+03  0.37242683004E+03  0.00000000000E+00 0. -1.
         -1   -1    0    0    0  501 -0.00000000000E+00 -0.00000000000E+00 -0.12455897670E+03  0.12455897670E+03  0.00000000000E+00 0.  1.
          6    1    1    2  502    0 -0.56440766347E+02 -0.11654722683E+03  0.11698382044E+03  0.24502659127E+03  0.17200000000E+03 0.  1.
         -6    1    1    2    0  501  0.56440766347E+02  0.11654722683E+03  0.13088403290E+03  0.25195921546E+03  0.17200000000E+03 0. -1.
<mgrwt>
<rscale>  2 0.21529704E+03</rscale>
<asrwt>0</asrwt>
<pdfrwt beam="1">  1        1 0.93106705E-01 0.21529704E+03</pdfrwt>
<pdfrwt beam="2">  1       -1 0.31139745E-01 0.21529704E+03</pdfrwt>
<totfact> 0.33740863E+02</totfact>
</mgrwt>
</event>
<event>
 4    1  0.3889096E-001  0.1732622E+03  0.7546771E-02  0.1174488E+00
         -2   -1    0    0    0  501 -0.00000000000E+00  0.00000000000E+00  0.15886839230E+03  0.15886839230E+03  0.00000000000E+00 0.  1.
          2   -1    0    0  502    0  0.00000000000E+00 -0.00000000000E+00 -0.19195908319E+03  0.19195908319E+03  0.00000000000E+00 0. -1.
          6    1    1    2  502    0  0.20831998927E+02 -0.13510473622E+01 -0.38470447808E+02  0.17748175361E+03  0.17200000000E+03 0. -1.
         -6    1    1    2    0  501 -0.20831998927E+02  0.13510473622E+01  0.53797569182E+01  0.17334572188E+03  0.17200000000E+03 0.  1.
<mgrwt>
<rscale>  2 0.17326222E+03</rscale>
<asrwt>0</asrwt>
<pdfrwt beam="1">  1        2 0.47989771E-01 0.17326222E+03</pdfrwt>
<pdfrwt beam="2">  1       -2 0.39717098E-01 0.17326222E+03</pdfrwt>
<totfact> 0.63363010E+02</totfact>
</mgrwt>
</event>
<event>
 4    1  0.3889096E-001  0.1824330E+03  0.7546771E-02  0.1165469E+00
          1   -1    0    0  502    0  0.00000000000E+00  0.00000000000E+00  0.33617538912E+03  0.33617538912E+03  0.00000000000E+00 0.  1.
         -1   -1    0    0    0  501 -0.00000000000E+00 -0.00000000000E+00 -0.99078162601E+02  0.99078162601E+02  0.00000000000E+00 0. -1.
          6    1    1    2  502    0 -0.26218017374E+01  0.60752963963E+02  0.12461060230E+03  0.22092894487E+03  0.17200000000E+03 0. -1.
         -6    1    1    2    0  501  0.26218017374E+01 -0.60752963963E+02  0.11248662422E+03  0.21432460686E+03  0.17200000000E+03 0.  1.
<mgrwt>
<rscale>  2 0.18243299E+03</rscale>
<asrwt>0</asrwt>
<pdfrwt beam="1">  1        1 0.84043845E-01 0.18243299E+03</pdfrwt>
<pdfrwt beam="2">  1       -1 0.24769541E-01 0.18243299E+03</pdfrwt>
<totfact> 0.57132728E+02</totfact>
</mgrwt>
</event>
<event>
 4    1  0.3889096E-001  0.1770597E+03  0.7546771E-02  0.1170679E+00
         -2   -1    0    0    0  501 -0.00000000000E+00  0.00000000000E+00  0.52533325430E+03  0.52533325430E+03  0.00000000000E+00 0. -1.
          2   -1    0    0  502    0  0.00000000000E+00 -0.00000000000E+00 -0.16209207826E+03  0.16209207826E+03  0.00000000000E+00 0.  1.
          6    1    1    2  502    0  0.37591773426E+02  0.18788576461E+02 -0.91589820189E+02  0.19934604886E+03  0.17200000000E+03 0.  1.
         -6    1    1    2    0  501 -0.37591773426E+02 -0.18788576461E+02  0.45483099623E+03  0.48807928369E+03  0.17200000000E+03 0. -1.
<mgrwt>
<rscale>  2 0.17705974E+03</rscale>
<asrwt>0</asrwt>
<pdfrwt beam="1">  1        2 0.40523021E-01 0.17705974E+03</pdfrwt>
<pdfrwt beam="2">  1       -2 0.13133331E+00 0.17705974E+03</pdfrwt>
<totfact> 0.57340813E+01</totfact>
</mgrwt>
</event>
<event>
 4    1  0.3889096E-001  0.1763177E+03  0.7546771E-02  0.1171415E+00
          2   -1    0    0  502    0  0.00000000000E+00  0.00000000000E+00  0.56046235279E+03  0.56046235279E+03  0.00000000000E+00 0. -1.
         -2   -1    0    0    0  501 -0.00000000000E+00 -0.00000000000E+00 -0.72379168212E+02  0.72379168212E+02  0.00000000000E+00 0.  1.
          6    1    1    2  502    0  0.29011050585E+02  0.25735159066E+02  0.39698828317E+03  0.43438190160E+03  0.17200000000E+03 0. -1.
         -6    1    1    2    0  501 -0.29011050585E+02 -0.25735159066E+02  0.91094901406E+02  0.19845961939E+03  0.17200000000E+03 0.  1.
<mgrwt>
<rscale>  2 0.17631772E+03</rscale>
<asrwt>0</asrwt>
<pdfrwt beam="1">  1        2 0.14011558E+00 0.17631772E+03</pdfrwt>
<pdfrwt beam="2">  1       -2 0.18094794E-01 0.17631772E+03</pdfrwt>
<totfact> 0.75215061E+02</totfact>
</mgrwt>
</event>
<event>
 4    1  0.3889096E-001  0.1730178E+03  0.7546771E-02  0.1174737E+00
         -2   -1    0    0    0  501 -0.00000000000E+00  0.00000000000E+00  0.32757336085E+02  0.32757336085E+02  0.00000000000E+00 0. -1.
          2   -1    0    0  502    0  0.00000000000E+00 -0.00000000000E+00 -0.11099499112E+04  0.11099499112E+04  0.00000000000E+00 0.  1.
          6    1    1    2  502    0  0.49040682919E+01 -0.18085718561E+02 -0.77875426273E+03  0.79774265576E+03  0.17200000000E+03 0.  1.
         -6    1    1    2    0  501 -0.49040682919E+01  0.18085718561E+02 -0.29843831234E+03  0.34496459148E+03  0.17200000000E+03 0. -1.
<mgrwt>
<rscale>  2 0.17301775E+03</rscale>
<asrwt>0</asrwt>
<pdfrwt beam="1">  1        2 0.27748746E+00 0.17301775E+03</pdfrwt>
<pdfrwt beam="2">  1       -2 0.81893347E-02 0.17301775E+03</pdfrwt>
<totfact> 0.87128007E+02</totfact>
</mgrwt>
</event>
<event>
 4    1  0.3889096E-001  0.1857546E+03  0.7546771E-02  0.1162347E+00
          2   -1    0    0  502    0  0.00000000000E+00  0.00000000000E+00  0.63361002535E+03  0.63361002535E+03  0.00000000000E+00 0. -1.
         -2   -1    0    0    0  501 -0.00000000000E+00 -0.00000000000E+00 -0.12954965416E+03  0.12954965416E+03  0.00000000000E+00 0.  1.
          6    1    1    2  502    0  0.56744164999E+02 -0.41241485673E+02 -0.38482322980E+02  0.18969883917E+03  0.17200000000E+03 0.  1.
         -6    1    1    2    0  501 -0.56744164999E+02  0.41241485673E+02  0.54254269417E+03  0.57346084033E+03  0.17200000000E+03 0. -1.
<mgrwt>
<rscale>  2 0.18575457E+03</rscale>
<asrwt>0</asrwt>
<pdfrwt beam="1">  1        2 0.15840250E+00 0.18575457E+03</pdfrwt>
<pdfrwt beam="2">  1       -2 0.32387415E-01 0.18575457E+03</pdfrwt>
<totfact> 0.22903820E+02</totfact>
</mgrwt>
</event>
<event>
 4    1  0.3889096E-001  0.2350802E+03  0.7546771E-02  0.1123114E+00
         -2   -1    0    0    0  501 -0.00000000000E+00  0.00000000000E+00  0.24314705798E+02  0.24314705798E+02  0.00000000000E+00 0. -1.
          2   -1    0    0  502    0  0.00000000000E+00 -0.00000000000E+00 -0.23164888452E+04  0.23164888452E+04  0.00000000000E+00 0.  1.
          6    1    1    2  502    0 -0.14418957975E+03 -0.69914845834E+02 -0.13068006432E+04  0.13277765782E+04  0.17200000000E+03 0.  1.
         -6    1    1    2    0  501  0.14418957975E+03  0.69914845834E+02 -0.98537349617E+03  0.10130269728E+04  0.17200000000E+03 0. -1.
<mgrwt>
<rscale>  2 0.23508024E+03</rscale>
<asrwt>0</asrwt>
<pdfrwt beam="1">  1        2 0.57912222E+00 0.23508024E+03</pdfrwt>
<pdfrwt beam="2">  1       -2 0.60786764E-02 0.23508024E+03</pdfrwt>
<totfact> 0.98532995E+01</totfact>
</mgrwt>
</event>
<event>
 4    1  0.3889096E-001  0.1904939E+03  0.7546771E-02  0.1158017E+00
          2   -1    0    0  502    0  0.00000000000E+00  0.00000000000E+00  0.32342649343E+03  0.32342649343E+03  0.00000000000E+00 0.  1.
         -2   -1    0    0    0  501 -0.00000000000E+00 -0.00000000000E+00 -0.11221087771E+03  0.11221087771E+03  0.00000000000E+00 0. -1.
          6    1    1    2  502    0 -0.32159822487E+02 -0.75297309404E+02  0.10790361207E+03  0.21893178957E+03  0.17200000000E+03 0.  1.
         -6    1    1    2    0  501  0.32159822487E+02  0.75297309404E+02  0.10331200365E+03  0.21670558157E+03  0.17200000000E+03 0. -1.
<mgrwt>
<rscale>  2 0.19049393E+03</rscale>
<asrwt>0</asrwt>
<pdfrwt beam="1">  1        2 0.80856621E-01 0.19049393E+03</pdfrwt>
<pdfrwt beam="2">  1       -2 0.28052720E-01 0.19049393E+03</pdfrwt>
<totfact> 0.68280875E+02</totfact>
</mgrwt>
</event>
<event>
 4    1  0.3889096E-001  0.1729648E+03  0.7546771E-02  0.1174791E+00
         -2   -1    0    0    0  501 -0.00000000000E+00  0.00000000000E+00  0.13214371280E+02  0.13214371280E+02  0.00000000000E+00 0.  1.
          2   -1    0    0  502    0  0.00000000000E+00 -0.00000000000E+00 -0.23666760696E+04  0.23666760696E+04  0.00000000000E+00 0. -1.
          6    1    1    2  502    0 -0.10520476272E+02  0.14904152411E+02 -0.92883128259E+03  0.94479858472E+03  0.17200000000E+03 0.  1.
         -6    1    1    2    0  501  0.10520476272E+02 -0.14904152411E+02 -0.14246304157E+04  0.14350918562E+04  0.17200000000E+03 0. -1.
<mgrwt>
<rscale>  2 0.17296478E+03</rscale>
<asrwt>0</asrwt>
<pdfrwt beam="1">  1        2 0.59166906E+00 0.17296478E+03</pdfrwt>
<pdfrwt beam="2">  1       -2 0.33035926E-02 0.17296478E+03</pdfrwt>
<totfact> 0.22332639E+02</totfact>
</mgrwt>
</event>
<event>
 4    1  0.3889096E-001  0.1821082E+03  0.7546771E-02  0.1165778E+00
          1   -1    0    0  502    0  0.00000000000E+00  0.00000000000E+00  0.29437238025E+03  0.29437238025E+03  0.00000000000E+00 0. -1.
         -1   -1    0    0    0  501 -0.00000000000E+00 -0.00000000000E+00 -0.11725477483E+03  0.11725477483E+03  0.00000000000E+00 0.  1.
          6    1    1    2  502    0  0.22690234836E+02 -0.55358516782E+02  0.12930940209E+03  0.22334801008E+03  0.17200000000E+03 0. -1.
         -6    1    1    2    0  501 -0.22690234836E+02  0.55358516782E+02  0.47808203329E+02  0.18827914500E+03  0.17200000000E+03 0. -1.
<mgrwt>
<rscale>  2 0.18210824E+03</rscale>
<asrwt>0</asrwt>
<pdfrwt beam="1">  1        1 0.73593094E-01 0.18210824E+03</pdfrwt>
<pdfrwt beam="2">  1       -1 0.29313694E-01 0.18210824E+03</pdfrwt>
<totfact> 0.51417210E+02</totfact>
</mgrwt>
</event>
<event>
 4    1  0.3889096E-001  0.1738424E+03  0.7546771E-02  0.1173899E+00
         -1   -1    0    0    0  501 -0.00000000000E+00  0.00000000000E+00  0.47053354266E+02  0.47053354266E+02  0.00000000000E+00 0. -1.
          1   -1    0    0  502    0  0.00000000000E+00 -0.00000000000E+00 -0.78683616702E+03  0.78683616702E+03  0.00000000000E+00 0.  1.
          6    1    1    2  502    0  0.17313837067E+02 -0.18369034703E+02 -0.19117588460E+03  0.25839777330E+03  0.17200000000E+03 0. -1.
         -6    1    1    2    0  501 -0.17313837067E+02  0.18369034703E+02 -0.54860692815E+03  0.57549174799E+03  0.17200000000E+03 0.  1.
<mgrwt>
<rscale>  2 0.17384243E+03</rscale>
<asrwt>0</asrwt>
<pdfrwt beam="1">  1        1 0.19670904E+00 0.17384243E+03</pdfrwt>
<pdfrwt beam="2">  1       -1 0.11763339E-01 0.17384243E+03</pdfrwt>
<totfact> 0.48529850E+02</totfact>
</mgrwt>
</event>
<event>
 4    1  0.3889096E-001  0.2175657E+03  0.7546771E-02  0.1135711E+00
          1   -1    0    0  502    0  0.00000000000E+00  0.00000000000E+00  0.22199050811E+03  0.22199050811E+03  0.00000000000E+00 0.  1.
         -1   -1    0    0    0  501 -0.00000000000E+00 -0.00000000000E+00 -0.25140250836E+03  0.25140250836E+03  0.00000000000E+00 0. -1.
          6    1    1    2  502    0  0.13103496323E+03 -0.24097122681E+02 -0.10693926938E+03  0.24242697920E+03  0.17200000000E+03 0. -1.
         -6    1    1    2    0  501 -0.13103496323E+03  0.24097122681E+02  0.77527269126E+02  0.23096603726E+03  0.17200000000E+03 0.  1.
<mgrwt>
<rscale>  2 0.21756570E+03</rscale>
<asrwt>0</asrwt>
<pdfrwt beam="1">  1        1 0.55497627E-01 0.21756570E+03</pdfrwt>
<pdfrwt beam="2">  1       -1 0.62850627E-01 0.21756570E+03</pdfrwt>
<totfact> 0.18677876E+02</totfact>
</mgrwt>
</event>
<event>
 4    1  0.3889096E-001  0.1821401E+03  0.7546771E-02  0.1165748E+00
          4   -1    0    0  502    0  0.00000000000E+00  0.00000000000E+00  0.24802488781E+03  0.24802488781E+03  0.00000000000E+00 0. -1.
         -4   -1    0    0    0  501 -0.00000000000E+00 -0.00000000000E+00 -0.16342319612E+03  0.16342319612E+03  0.00000000000E+00 0.  1.
          6    1    1    2  502    0 -0.58069618185E+02 -0.14796790433E+02  0.12995253539E+03  0.22374692627E+03  0.17200000000E+03 0. -1.
         -6    1    1    2    0  501  0.58069618185E+02  0.14796790433E+02 -0.45350843694E+02  0.18770115766E+03  0.17200000000E+03 0.  1.
<mgrwt>
<rscale>  2 0.18214013E+03</rscale>
<asrwt>0</asrwt>
<pdfrwt beam="1">  1        4 0.62006222E-01 0.18214013E+03</pdfrwt>
<pdfrwt beam="2">  1       -4 0.40855799E-01 0.18214013E+03</pdfrwt>
<totfact> 0.25348897E+01</totfact>
</mgrwt>
</event>
<event>
 4    1  0.3889096E-001  0.2456063E+03  0.7546771E-02  0.1116113E+00
         -2   -1    0    0    0  501 -0.00000000000E+00  0.00000000000E+00  0.38419825035E+02  0.38419825035E+02  0.00000000000E+00 0. -1.
          2   -1    0    0  502    0  0.00000000000E+00 -0.00000000000E+00 -0.15802393233E+04  0.15802393233E+04  0.00000000000E+00 0.  1.
          6    1    1    2  502    0  0.66741484569E+02  0.16212352081E+03 -0.70603882645E+03  0.74753815034E+03  0.17200000000E+03 0. -1.
         -6    1    1    2    0  501 -0.66741484569E+02 -0.16212352081E+03 -0.83578067177E+03  0.87112099795E+03  0.17200000000E+03 0.  1.
<mgrwt>
<rscale>  2 0.24560631E+03</rscale>
<asrwt>0</asrwt>
<pdfrwt beam="1">  1        2 0.39505982E+00 0.24560631E+03</pdfrwt>
<pdfrwt beam="2">  1       -2 0.96049564E-02 0.24560631E+03</pdfrwt>
<totfact> 0.26282661E+02</totfact>
</mgrwt>
</event>
<event>
 4    1  0.3889096E-001  0.3072065E+03  0.7546771E-02  0.1081693E+00
         -1   -1    0    0    0  501 -0.00000000000E+00  0.00000000000E+00  0.19000437398E+03  0.19000437398E+03  0.00000000000E+00 0.  1.
          1   -1    0    0  502    0  0.00000000000E+00 -0.00000000000E+00 -0.52511675213E+03  0.52511675213E+03  0.00000000000E+00 0. -1.
          6    1    1    2  502    0  0.90214454106E+02 -0.23801926595E+03 -0.84383085420E+02  0.31858487691E+03  0.17200000000E+03 0. -1.
         -6    1    1    2    0  501 -0.90214454106E+02  0.23801926595E+03 -0.25072929273E+03  0.39653624919E+03  0.17200000000E+03 0.  1.
<mgrwt>
<rscale>  2 0.30720648E+03</rscale>
<asrwt>0</asrwt>
<pdfrwt beam="1">  1        1 0.13127919E+00 0.30720648E+03</pdfrwt>
<pdfrwt beam="2">  1       -1 0.47501094E-01 0.30720648E+03</pdfrwt>
<totfact> 0.94629413E+01</totfact>
</mgrwt>
</event>
<event>
 4    1  0.3889096E-001  0.2013341E+03  0.7546771E-02  0.1148618E+00
          1   -1    0    0  502    0  0.00000000000E+00  0.00000000000E+00  0.91673528640E+03  0.91673528640E+03  0.00000000000E+00 0. -1.
         -1   -1    0    0    0  501 -0.00000000000E+00 -0.00000000000E+00 -0.47593707111E+02  0.47593707111E+02  0.00000000000E+00 0.  1.
          6    1    1    2  502    0 -0.96621419621E+02  0.40196006882E+02  0.56299821920E+03  0.59791505461E+03  0.17200000000E+03 0. -1.
         -6    1    1    2    0  501  0.96621419621E+02 -0.40196006882E+02  0.30614336008E+03  0.36641393890E+03  0.17200000000E+03 0. -1.
<mgrwt>
<rscale>  2 0.20133409E+03</rscale>
<asrwt>0</asrwt>
<pdfrwt beam="1">  1        1 0.22918376E+00 0.20133409E+03</pdfrwt>
<pdfrwt beam="2">  1       -1 0.11898430E-01 0.20133409E+03</pdfrwt>
<totfact> 0.34305248E+02</totfact>
</mgrwt>
</event>
<event>
 4    1  0.3889096E-001  0.1808308E+03  0.7546771E-02  0.1167001E+00
          2   -1    0    0  502    0  0.00000000000E+00  0.00000000000E+00  0.21588785581E+04  0.21588785581E+04  0.00000000000E+00 0.  1.
         -2   -1    0    0    0  501 -0.00000000000E+00 -0.00000000000E+00 -0.23823773207E+02  0.23823773207E+02  0.00000000000E+00 0. -1.
          6    1    1    2  502    0 -0.49328679392E+02 -0.26124028069E+02  0.40888897122E+03  0.44709056604E+03  0.17200000000E+03 0. -1.
         -6    1    1    2    0  501  0.49328679392E+02  0.26124028069E+02  0.17261658137E+04  0.17356117653E+04  0.17200000000E+03 0.  1.
<mgrwt>
<rscale>  2 0.18083081E+03</rscale>
<asrwt>0</asrwt>
<pdfrwt beam="1">  1        2 0.53971897E+00 0.18083081E+03</pdfrwt>
<pdfrwt beam="2">  1       -2 0.59559506E-02 0.18083081E+03</pdfrwt>
<totfact> 0.15623975E+02</totfact>
</mgrwt>
</event>
<event>
 4    1  0.3889096E-001  0.1885321E+03  0.7546771E-02  0.1159792E+00
          2   -1    0    0  502    0  0.00000000000E+00  0.00000000000E+00  0.60228462435E+03  0.60228462435E+03  0.00000000000E+00 0.  1.
         -2   -1    0    0    0  501 -0.00000000000E+00 -0.00000000000E+00 -0.59126455262E+02  0.59126455262E+02  0.00000000000E+00 0. -1.
          6    1    1    2  502    0 -0.11183336006E+02 -0.76388935624E+02  0.28588273143E+03  0.34245185446E+03  0.17200000000E+03 0.  1.
         -6    1    1    2    0  501  0.11183336006E+02  0.76388935624E+02  0.25727543765E+03  0.31895922515E+03  0.17200000000E+03 0.  1.
<mgrwt>
<rscale>  2 0.18853206E+03</rscale>
<asrwt>0</asrwt>
<pdfrwt beam="1">  1        2 0.15057114E+00 0.18853206E+03</pdfrwt>
<pdfrwt beam="2">  1       -2 0.14781616E-01 0.18853206E+03</pdfrwt>
<totfact> 0.95430527E+02</totfact>
</mgrwt>
</event>
<event>
 4    1  0.3889096E-001  0.2295365E+03  0.7546771E-02  0.1126966E+00
          2   -1    0    0  502    0  0.00000000000E+00  0.00000000000E+00  0.86991490633E+03  0.86991490633E+03  0.00000000000E+00 0. -1.
         -2   -1    0    0    0  501 -0.00000000000E+00 -0.00000000000E+00 -0.14248038356E+03  0.14248038356E+03  0.00000000000E+00 0.  1.
          6    1    1    2  502    0 -0.13087770959E+03  0.77291708361E+02 -0.20099139861E+02  0.23041475316E+03  0.17200000000E+03 0.  1.
         -6    1    1    2    0  501  0.13087770959E+03 -0.77291708361E+02  0.74753366263E+03  0.78198053673E+03  0.17200000000E+03 0. -1.
<mgrwt>
<rscale>  2 0.22953645E+03</rscale>
<asrwt>0</asrwt>
<pdfrwt beam="1">  1        2 0.21747871E+00 0.22953645E+03</pdfrwt>
<pdfrwt beam="2">  1       -2 0.35620098E-01 0.22953645E+03</pdfrwt>
<totfact> 0.11549286E+02</totfact>
</mgrwt>
</event>
<event>
 4    1  0.3889096E-001  0.5252661E+03  0.7546771E-02  0.1007387E+00
         -2   -1    0    0    0  501 -0.00000000000E+00  0.00000000000E+00  0.11942850082E+04  0.11942850082E+04  0.00000000000E+00 0. -1.
          2   -1    0    0  502    0  0.00000000000E+00 -0.00000000000E+00 -0.24138356945E+03  0.24138356945E+03  0.00000000000E+00 0.  1.
          6    1    1    2  502    0 -0.43982661993E+03 -0.22994144119E+03  0.32771646429E+03  0.61911436984E+03  0.17200000000E+03 0. -1.
         -6    1    1    2    0  501  0.43982661993E+03  0.22994144119E+03  0.62518497443E+03  0.81655420777E+03  0.17200000000E+03 0.  1.
<mgrwt>
<rscale>  2 0.52526614E+03</rscale>
<asrwt>0</asrwt>
<pdfrwt beam="1">  1        2 0.60345896E-01 0.52526614E+03</pdfrwt>
<pdfrwt beam="2">  1       -2 0.29857124E+00 0.52526614E+03</pdfrwt>
<totfact> 0.28524630E+00</totfact>
</mgrwt>
</event>
<event>
 4    1  0.3889096E-001  0.2714112E+03  0.7546771E-02  0.1100475E+00
         -2   -1    0    0    0  501 -0.00000000000E+00  0.00000000000E+00  0.40413847286E+02  0.40413847286E+02  0.00000000000E+00 0.  1.
          2   -1    0    0  502    0  0.00000000000E+00 -0.00000000000E+00 -0.18251114225E+04  0.18251114225E+04  0.00000000000E+00 0. -1.
          6    1    1    2  502    0  0.51505638492E+01 -0.20988934277E+03 -0.92594880737E+03  0.96490686514E+03  0.17200000000E+03 0.  1.
         -6    1    1    2    0  501 -0.51505638492E+01  0.20988934277E+03 -0.85874876781E+03  0.90061840461E+03  0.17200000000E+03 0. -1.
<mgrwt>
<rscale>  2 0.27141125E+03</rscale>
<asrwt>0</asrwt>
<pdfrwt beam="1">  1        2 0.45627786E+00 0.27141125E+03</pdfrwt>
<pdfrwt beam="2">  1       -2 0.10103462E-01 0.27141125E+03</pdfrwt>
<totfact> 0.14280785E+02</totfact>
</mgrwt>
</event>
<event>
 4    1  0.3889096E-001  0.1814174E+03  0.7546771E-02  0.1166438E+00
          2   -1    0    0  502    0  0.00000000000E+00  0.00000000000E+00  0.20181626794E+04  0.20181626794E+04  0.00000000000E+00 0.  1.
         -2   -1    0    0    0  501 -0.00000000000E+00 -0.00000000000E+00 -0.18143268839E+02  0.18143268839E+02  0.00000000000E+00 0. -1.
          6    1    1    2  502    0 -0.33867736939E+02  0.46703961029E+02  0.13238269955E+04  0.13361999093E+04  0.17200000000E+03 0.  1.
         -6    1    1    2    0  501  0.33867736939E+02 -0.46703961029E+02  0.67619241502E+03  0.70010603890E+03  0.17200000000E+03 0. -1.
<mgrwt>
<rscale>  2 0.18141743E+03</rscale>
<asrwt>0</asrwt>
<pdfrwt beam="1">  1        2 0.50453991E+00 0.18141743E+03</pdfrwt>
<pdfrwt beam="2">  1       -2 0.45358241E-02 0.18141743E+03</pdfrwt>
<totfact> 0.33002328E+02</totfact>
</mgrwt>
</event>
<event>
 4    1  0.3889096E-001  0.1954980E+03  0.7546771E-02  0.1153594E+00
          1   -1    0    0  502    0  0.00000000000E+00  0.00000000000E+00  0.46417521635E+03  0.46417521635E+03  0.00000000000E+00 0. -1.
         -1   -1    0    0    0  501 -0.00000000000E+00 -0.00000000000E+00 -0.82504682835E+02  0.82504682835E+02  0.00000000000E+00 0.  1.
          6    1    1    2  502    0 -0.54794476003E+02  0.75053578692E+02  0.20310412401E+03  0.28190558608E+03  0.17200000000E+03 0. -1.
         -6    1    1    2    0  501  0.54794476003E+02 -0.75053578692E+02  0.17856640951E+03  0.26477431310E+03  0.17200000000E+03 0. -1.
<mgrwt>
<rscale>  2 0.19549802E+03</rscale>
<asrwt>0</asrwt>
<pdfrwt beam="1">  1        1 0.11604380E+00 0.19549802E+03</pdfrwt>
<pdfrwt beam="2">  1       -1 0.20626172E-01 0.19549802E+03</pdfrwt>
<totfact> 0.48902649E+02</totfact>
</mgrwt>
</event>
<event>
 4    1  0.3889096E-001  0.2171377E+03  0.7546771E-02  0.1136035E+00
         -2   -1    0    0    0  501 -0.00000000000E+00  0.00000000000E+00  0.13002302769E+03  0.13002302769E+03  0.00000000000E+00 0. -1.
          2   -1    0    0  502    0  0.00000000000E+00 -0.00000000000E+00 -0.41968865601E+03  0.41968865601E+03  0.00000000000E+00 0.  1.
          6    1    1    2  502    0 -0.32698071064E+01 -0.13249181172E+03 -0.24618786654E+03  0.32826397525E+03  0.17200000000E+03 0.  1.
         -6    1    1    2    0  501  0.32698071064E+01  0.13249181172E+03 -0.43477761774E+02  0.22144770846E+03  0.17200000000E+03 0. -1.
<mgrwt>
<rscale>  2 0.21713768E+03</rscale>
<asrwt>0</asrwt>
<pdfrwt beam="1">  1        2 0.10492216E+00 0.21713768E+03</pdfrwt>
<pdfrwt beam="2">  1       -2 0.32505757E-01 0.21713768E+03</pdfrwt>
<totfact> 0.38611252E+02</totfact>
</mgrwt>
</event>
<event>
 4    1  0.3889096E-001  0.1760164E+03  0.7546771E-02  0.1171715E+00
          1   -1    0    0  502    0  0.00000000000E+00  0.00000000000E+00  0.77321521348E+03  0.77321521348E+03  0.00000000000E+00 0. -1.
         -1   -1    0    0    0  501 -0.00000000000E+00 -0.00000000000E+00 -0.53366740408E+02  0.53366740408E+02  0.00000000000E+00 0.  1.
          6    1    1    2  502    0 -0.36696686115E+02  0.71513017656E+01  0.15361762150E+03  0.23362397464E+03  0.17200000000E+03 0.  1.
         -6    1    1    2    0  501  0.36696686115E+02 -0.71513017656E+01  0.56623085157E+03  0.59295797925E+03  0.17200000000E+03 0. -1.
<mgrwt>
<rscale>  2 0.17601644E+03</rscale>
<asrwt>0</asrwt>
<pdfrwt beam="1">  1        1 0.19330377E+00 0.17601644E+03</pdfrwt>
<pdfrwt beam="2">  1       -1 0.13341688E-01 0.17601644E+03</pdfrwt>
<totfact> 0.41280306E+02</totfact>
</mgrwt>
</event>
<event>
 4    1  0.3889096E-001  0.1811491E+03  0.7546771E-02  0.1166696E+00
          2   -1    0    0  502    0  0.00000000000E+00  0.00000000000E+00  0.72266272206E+03  0.72266272206E+03  0.00000000000E+00 0.  1.
         -2   -1    0    0    0  501 -0.00000000000E+00 -0.00000000000E+00 -0.49027576703E+02  0.49027576703E+02  0.00000000000E+00 0. -1.
          6    1    1    2  502    0 -0.27012701821E+02  0.50013030385E+02  0.44164987516E+03  0.47735689112E+03  0.17200000000E+03 0. -1.
         -6    1    1    2    0  501  0.27012701821E+02 -0.50013030385E+02  0.23198527019E+03  0.29433340764E+03  0.17200000000E+03 0. -1.
<mgrwt>
<rscale>  2 0.18114908E+03</rscale>
<asrwt>0</asrwt>
<pdfrwt beam="1">  1        2 0.18066565E+00 0.18114908E+03</pdfrwt>
<pdfrwt beam="2">  1       -2 0.12256896E-01 0.18114908E+03</pdfrwt>
<totfact> 0.99411997E+02</totfact>
</mgrwt>
</event>
<event>
 4    1  0.3889096E-001  0.2459590E+03  0.7546771E-02  0.1115886E+00
         -1   -1    0    0    0  501 -0.00000000000E+00  0.00000000000E+00  0.11067004927E+03  0.11067004927E+03  0.00000000000E+00 0. -1.
          1   -1    0    0  502    0  0.00000000000E+00 -0.00000000000E+00 -0.74448619781E+03  0.74448619781E+03  0.00000000000E+00 0.  1.
          6    1    1    2  502    0  0.74745807886E+01 -0.17565861793E+03 -0.96483760120E+02  0.26420623645E+03  0.17200000000E+03 0. -1.
         -6    1    1    2    0  501 -0.74745807886E+01  0.17565861793E+03 -0.53733238843E+03  0.59095001063E+03  0.17200000000E+03 0.  1.
<mgrwt>
<rscale>  2 0.24595898E+03</rscale>
<asrwt>0</asrwt>
<pdfrwt beam="1">  1        1 0.18612155E+00 0.24595898E+03</pdfrwt>
<pdfrwt beam="2">  1       -1 0.27667513E-01 0.24595898E+03</pdfrwt>
<totfact> 0.13440972E+02</totfact>
</mgrwt>
</event>
<event>
 4    1  0.3889096E-001  0.1781862E+03  0.7546771E-02  0.1169570E+00
         -2   -1    0    0    0  501 -0.00000000000E+00  0.00000000000E+00  0.34647737870E+02  0.34647737870E+02  0.00000000000E+00 0.  1.
          2   -1    0    0  502    0  0.00000000000E+00 -0.00000000000E+00 -0.10000495072E+04  0.10000495072E+04  0.00000000000E+00 0. -1.
          6    1    1    2  502    0  0.17820546184E+02  0.42997196076E+02 -0.63234801171E+03  0.65697362097E+03  0.17200000000E+03 0. -1.
         -6    1    1    2    0  501 -0.17820546184E+02 -0.42997196076E+02 -0.33305375760E+03  0.37772362408E+03  0.17200000000E+03 0.  1.
<mgrwt>
<rscale>  2 0.17818622E+03</rscale>
<asrwt>0</asrwt>
<pdfrwt beam="1">  1        2 0.25001238E+00 0.17818622E+03</pdfrwt>
<pdfrwt beam="2">  1       -2 0.86619343E-02 0.17818622E+03</pdfrwt>
<totfact> 0.98705276E+02</totfact>
</mgrwt>
</event>
<event>
 4    1  0.3889096E-001  0.2163721E+03  0.7546771E-02  0.1136617E+00
         -2   -1    0    0    0  501 -0.00000000000E+00  0.00000000000E+00  0.83587287855E+02  0.83587287855E+02  0.00000000000E+00 0.  1.
          2   -1    0    0  502    0  0.00000000000E+00 -0.00000000000E+00 -0.92966345519E+03  0.92966345519E+03  0.00000000000E+00 0. -1.
          6    1    1    2  502    0 -0.12947193216E+03 -0.21677618871E+02 -0.10361157706E+03  0.23990051954E+03  0.17200000000E+03 0.  1.
         -6    1    1    2    0  501  0.12947193216E+03  0.21677618871E+02 -0.74246459028E+03  0.77335022351E+03  0.17200000000E+03 0. -1.
<mgrwt>
<rscale>  2 0.21637213E+03</rscale>
<asrwt>0</asrwt>
<pdfrwt beam="1">  1        2 0.23241586E+00 0.21637213E+03</pdfrwt>
<pdfrwt beam="2">  1       -2 0.20896822E-01 0.21637213E+03</pdfrwt>
<totfact> 0.26723125E+02</totfact>
</mgrwt>
</event>
<event>
 4    1  0.3889096E-001  0.2643455E+03  0.7546771E-02  0.1104560E+00
          1   -1    0    0  502    0  0.00000000000E+00  0.00000000000E+00  0.22141381593E+03  0.22141381593E+03  0.00000000000E+00 0. -1.
         -1   -1    0    0    0  501 -0.00000000000E+00 -0.00000000000E+00 -0.43793889947E+03  0.43793889947E+03  0.00000000000E+00 0.  1.
          6    1    1    2  502    0  0.15420065259E+03  0.12851727826E+03  0.65982595597E+02  0.27245593220E+03  0.17200000000E+03 0. -1.
         -6    1    1    2    0  501 -0.15420065259E+03 -0.12851727826E+03 -0.28250767915E+03  0.38689678320E+03  0.17200000000E+03 0.  1.
<mgrwt>
<rscale>  2 0.26434548E+03</rscale>
<asrwt>0</asrwt>
<pdfrwt beam="1">  1        1 0.55353455E-01 0.26434548E+03</pdfrwt>
<pdfrwt beam="2">  1       -1 0.10948472E+00 0.26434548E+03</pdfrwt>
<totfact> 0.57743350E+01</totfact>
</mgrwt>
</event>
<event>
 4    1  0.3889096E-001  0.2061661E+03  0.7546771E-02  0.1144638E+00
         -2   -1    0    0    0  501 -0.00000000000E+00  0.00000000000E+00  0.64793258988E+02  0.64793258988E+02  0.00000000000E+00 0. -1.
          2   -1    0    0  502    0  0.00000000000E+00 -0.00000000000E+00 -0.12953494073E+04  0.12953494073E+04  0.00000000000E+00 0.  1.
          6    1    1    2  502    0  0.11207230248E+03  0.18980870761E+02 -0.10930599053E+04  0.11123328778E+04  0.17200000000E+03 0.  1.
         -6    1    1    2    0  501 -0.11207230248E+03 -0.18980870761E+02 -0.13749624303E+03  0.24780978852E+03  0.17200000000E+03 0. -1.
<mgrwt>
<rscale>  2 0.20616613E+03</rscale>
<asrwt>0</asrwt>
<pdfrwt beam="1">  1        2 0.32383735E+00 0.20616613E+03</pdfrwt>
<pdfrwt beam="2">  1       -2 0.16198315E-01 0.20616613E+03</pdfrwt>
<totfact> 0.20164599E+02</totfact>
</mgrwt>
</event>
<event>
 4    1  0.3889096E-001  0.1960365E+03  0.7546771E-02  0.1153127E+00
         -1   -1    0    0    0  501 -0.00000000000E+00  0.00000000000E+00  0.14512439572E+04  0.14512439572E+04  0.00000000000E+00 0.  1.
          1   -1    0    0  502    0  0.00000000000E+00 -0.00000000000E+00 -0.35196766191E+02  0.35196766191E+02  0.00000000000E+00 0. -1.
          6    1    1    2  502    0  0.94022390680E+02 -0.24668793693E+01  0.10778693586E+04  0.10955512994E+04  0.17200000000E+03 0.  1.
         -6    1    1    2    0  501 -0.94022390680E+02  0.24668793693E+01  0.33817783240E+03  0.39088942397E+03  0.17200000000E+03 0. -1.
<mgrwt>
<rscale>  2 0.19603646E+03</rscale>
<asrwt>0</asrwt>
<pdfrwt beam="1">  1        1 0.87991964E-02 0.19603646E+03</pdfrwt>
<pdfrwt beam="2">  1       -1 0.36281079E+00 0.19603646E+03</pdfrwt>
<totfact> 0.12119968E+01</totfact>
</mgrwt>
</event>
<event>
 4    1  0.3889096E-001  0.1816143E+03  0.7546771E-02  0.1166250E+00
         -2   -1    0    0    0  501 -0.00000000000E+00  0.00000000000E+00  0.65341818859E+02  0.65341818859E+02  0.00000000000E+00 0. -1.
          2   -1    0    0  502    0  0.00000000000E+00 -0.00000000000E+00 -0.52510835117E+03  0.52510835117E+03  0.00000000000E+00 0.  1.
          6    1    1    2  502    0  0.13177551176E+02 -0.56798736894E+02 -0.28795943317E+03  0.34044732268E+03  0.17200000000E+03 0.  1.
         -6    1    1    2    0  501 -0.13177551176E+02  0.56798736894E+02 -0.17180709914E+03  0.25000284735E+03  0.17200000000E+03 0.  1.
<mgrwt>
<rscale>  2 0.18161427E+03</rscale>
<asrwt>0</asrwt>
<pdfrwt beam="1">  1        2 0.13127709E+00 0.18161427E+03</pdfrwt>
<pdfrwt beam="2">  1       -2 0.16335455E-01 0.18161427E+03</pdfrwt>
<totfact> 0.97161651E+02</totfact>
</mgrwt>
</event>
<event>
 4    1  0.3889096E-001  0.2170895E+03  0.7546771E-02  0.1136072E+00
          2   -1    0    0  502    0  0.00000000000E+00  0.00000000000E+00  0.67906994664E+03  0.67906994664E+03  0.00000000000E+00 0.  1.
         -2   -1    0    0    0  501 -0.00000000000E+00 -0.00000000000E+00 -0.10668324931E+03  0.10668324931E+03  0.00000000000E+00 0. -1.
          6    1    1    2  502    0 -0.12071152926E+02  0.13190195474E+03  0.53940191590E+02  0.22369037231E+03  0.17200000000E+03 0. -1.
         -6    1    1    2    0  501  0.12071152926E+02 -0.13190195474E+03  0.51844650574E+03  0.56206282363E+03  0.17200000000E+03 0.  1.
<mgrwt>
<rscale>  2 0.21708947E+03</rscale>
<asrwt>0</asrwt>
<pdfrwt beam="1">  1        2 0.16976747E+00 0.21708947E+03</pdfrwt>
<pdfrwt beam="2">  1       -2 0.26670814E-01 0.21708947E+03</pdfrwt>
<totfact> 0.29255420E+02</totfact>
</mgrwt>
</event>
<event>
 4    1  0.3889096E-001  0.2924173E+03  0.7546771E-02  0.1089094E+00
          1   -1    0    0  502    0  0.00000000000E+00  0.00000000000E+00  0.65780391563E+03  0.65780391563E+03  0.00000000000E+00 0.  1.
         -1   -1    0    0    0  501 -0.00000000000E+00 -0.00000000000E+00 -0.30601815109E+03  0.30601815109E+03  0.00000000000E+00 0. -1.
          6    1    1    2  502    0  0.31764299158E+02  0.23433935774E+03  0.54139036317E+03  0.61531409104E+03  0.17200000000E+03 0.  1.
         -6    1    1    2    0  501 -0.31764299158E+02 -0.23433935774E+03 -0.18960459863E+03  0.34850797568E+03  0.17200000000E+03 0. -1.
<mgrwt>
<rscale>  2 0.29241735E+03</rscale>
<asrwt>0</asrwt>
<pdfrwt beam="1">  1        1 0.16445098E+00 0.29241735E+03</pdfrwt>
<pdfrwt beam="2">  1       -1 0.76504539E-01 0.29241735E+03</pdfrwt>
<totfact> 0.25716173E+01</totfact>
</mgrwt>
</event>
<event>
 4    1  0.3889096E-001  0.1750924E+03  0.7546771E-02  0.1172639E+00
         -1   -1    0    0    0  501 -0.00000000000E+00  0.00000000000E+00  0.42936344963E+03  0.42936344963E+03  0.00000000000E+00 0. -1.
          1   -1    0    0  502    0  0.00000000000E+00 -0.00000000000E+00 -0.91117278622E+02  0.91117278622E+02  0.00000000000E+00 0.  1.
          6    1    1    2  502    0  0.12457576466E+02 -0.30301116184E+02  0.29017656887E+03  0.33890970770E+03  0.17200000000E+03 0. -1.
         -6    1    1    2    0  501 -0.12457576466E+02  0.30301116184E+02  0.48069602137E+02  0.18157102055E+03  0.17200000000E+03 0.  1.
<mgrwt>
<rscale>  2 0.17509240E+03</rscale>
<asrwt>0</asrwt>
<pdfrwt beam="1">  1        1 0.22779321E-01 0.17509240E+03</pdfrwt>
<pdfrwt beam="2">  1       -1 0.10734086E+00 0.17509240E+03</pdfrwt>
<totfact> 0.18809636E+02</totfact>
</mgrwt>
</event>
<event>
 4    1  0.3889096E-001  0.2317347E+03  0.7546771E-02  0.1125425E+00
         -2   -1    0    0    0  501 -0.00000000000E+00  0.00000000000E+00  0.10153742895E+04  0.10153742895E+04  0.00000000000E+00 0. -1.
          2   -1    0    0  502    0  0.00000000000E+00 -0.00000000000E+00 -0.53978418795E+02  0.53978418795E+02  0.00000000000E+00 0.  1.
          6    1    1    2  502    0  0.78130344021E+02  0.13421118369E+03  0.40470002110E+03  0.46635083313E+03  0.17200000000E+03 0. -1.
         -6    1    1    2    0  501 -0.78130344021E+02 -0.13421118369E+03  0.55669584963E+03  0.60300187518E+03  0.17200000000E+03 0. -1.
<mgrwt>
<rscale>  2 0.23173475E+03</rscale>
<asrwt>0</asrwt>
<pdfrwt beam="1">  1        2 0.13494608E-01 0.23173475E+03</pdfrwt>
<pdfrwt beam="2">  1       -2 0.25384351E+00 0.23173475E+03</pdfrwt>
<totfact> 0.30403177E+01</totfact>
</mgrwt>
</event>
<event>
 4    1  0.3889096E-001  0.2225751E+03  0.7546771E-02  0.1131978E+00
         -1   -1    0    0    0  501 -0.00000000000E+00  0.00000000000E+00  0.37558078441E+02  0.37558078441E+02  0.00000000000E+00 0.  1.
          1   -1    0    0  502    0  0.00000000000E+00 -0.00000000000E+00 -0.13198790350E+04  0.13198790350E+04  0.00000000000E+00 0. -1.
          6    1    1    2  502    0  0.10722079106E+03 -0.91974837919E+02 -0.62379494044E+03  0.66231397129E+03  0.17200000000E+03 0. -1.
         -6    1    1    2    0  501 -0.10722079106E+03  0.91974837919E+02 -0.65852601607E+03  0.69512314211E+03  0.17200000000E+03 0.  1.
<mgrwt>
<rscale>  2 0.22257509E+03</rscale>
<asrwt>0</asrwt>
<pdfrwt beam="1">  1        1 0.32996973E+00 0.22257509E+03</pdfrwt>
<pdfrwt beam="2">  1       -1 0.93895204E-02 0.22257509E+03</pdfrwt>
<totfact> 0.18525513E+02</totfact>
</mgrwt>
</event>
<event>
 4    1  0.3889096E-001  0.1795611E+03  0.7546771E-02  0.1168228E+00
          3   -1    0    0  502    0  0.00000000000E+00  0.00000000000E+00  0.59509990552E+02  0.59509990552E+02  0.00000000000E+00 0.  1.
         -3   -1    0    0    0  501 -0.00000000000E+00 -0.00000000000E+00 -0.61538982756E+03  0.61538982756E+03  0.00000000000E+00 0. -1.
          6    1    1    2  502    0  0.15854415200E+02 -0.49059418458E+02 -0.39463676209E+03  0.43356702251E+03  0.17200000000E+03 0. -1.
         -6    1    1    2    0  501 -0.15854415200E+02  0.49059418458E+02 -0.16124307492E+03  0.24133279559E+03  0.17200000000E+03 0.  1.
<mgrwt>
<rscale>  2 0.17956110E+03</rscale>
<asrwt>0</asrwt>
<pdfrwt beam="1">  1        3 0.14877498E-01 0.17956110E+03</pdfrwt>
<pdfrwt beam="2">  1       -3 0.15384745E+00 0.17956110E+03</pdfrwt>
<totfact> 0.29344997E+01</totfact>
</mgrwt>
</event>
<event>
 4    1  0.3889096E-001  0.2024149E+03  0.7546771E-02  0.1147717E+00
         -1   -1    0    0    0  501 -0.00000000000E+00  0.00000000000E+00  0.69573511947E+02  0.69573511947E+02  0.00000000000E+00 0. -1.
          1   -1    0    0  502    0  0.00000000000E+00 -0.00000000000E+00 -0.69188163821E+03  0.69188163821E+03  0.00000000000E+00 0.  1.
          6    1    1    2  502    0 -0.62571251568E+02  0.86444429498E+02 -0.45803977381E+03  0.50077163988E+03  0.17200000000E+03 0.  1.
         -6    1    1    2    0  501  0.62571251568E+02 -0.86444429498E+02 -0.16426835245E+03  0.26068351028E+03  0.17200000000E+03 0. -1.
<mgrwt>
<rscale>  2 0.20241492E+03</rscale>
<asrwt>0</asrwt>
<pdfrwt beam="1">  1        1 0.17297041E+00 0.20241492E+03</pdfrwt>
<pdfrwt beam="2">  1       -1 0.17393378E-01 0.20241492E+03</pdfrwt>
<totfact> 0.33366413E+02</totfact>
</mgrwt>
</event>
<event>
 4    1  0.3889096E-001  0.1901949E+03  0.7546771E-02  0.1158286E+00
         -1   -1    0    0    0  501 -0.00000000000E+00  0.00000000000E+00  0.60084366453E+02  0.60084366453E+02  0.00000000000E+00 0.  1.
          1   -1    0    0  502    0  0.00000000000E+00 -0.00000000000E+00 -0.62209430602E+03  0.62209430602E+03  0.00000000000E+00 0. -1.
          6    1    1    2  502    0  0.81178729684E+02 -0.31829209928E+00 -0.21978650840E+03  0.29065477243E+03  0.17200000000E+03 0.  1.
         -6    1    1    2    0  501 -0.81178729684E+02  0.31829209928E+00 -0.34222343117E+03  0.39152390004E+03  0.17200000000E+03 0. -1.
<mgrwt>
<rscale>  2 0.19019487E+03</rscale>
<asrwt>0</asrwt>
<pdfrwt beam="1">  1        1 0.15552357E+00 0.19019487E+03</pdfrwt>
<pdfrwt beam="2">  1       -1 0.15021092E-01 0.19019487E+03</pdfrwt>
<totfact> 0.50975584E+02</totfact>
</mgrwt>
</event>
<event>
 4    1  0.3889096E-001  0.1763189E+03  0.7546771E-02  0.1171414E+00
         -1   -1    0    0    0  501 -0.00000000000E+00  0.00000000000E+00  0.38268611774E+02  0.38268611774E+02  0.00000000000E+00 0.  1.
          1   -1    0    0  502    0  0.00000000000E+00 -0.00000000000E+00 -0.81375772203E+03  0.81375772203E+03  0.00000000000E+00 0. -1.
          6    1    1    2  502    0  0.38649384646E+02 -0.32530212200E+01 -0.40532294673E+03  0.44201249782E+03  0.17200000000E+03 0.  1.
         -6    1    1    2    0  501 -0.38649384646E+02  0.32530212200E+01 -0.37016616353E+03  0.41001383599E+03  0.17200000000E+03 0. -1.
<mgrwt>
<rscale>  2 0.17631891E+03</rscale>
<asrwt>0</asrwt>
<pdfrwt beam="1">  1        1 0.20343943E+00 0.17631891E+03</pdfrwt>
<pdfrwt beam="2">  1       -1 0.95671529E-02 0.17631891E+03</pdfrwt>
<totfact> 0.62324939E+02</totfact>
</mgrwt>
</event>
<event>
 4    1  0.3889096E-001  0.1935133E+03  0.7546771E-02  0.1155330E+00
         -2   -1    0    0    0  501 -0.00000000000E+00  0.00000000000E+00  0.10906008516E+03  0.10906008516E+03  0.00000000000E+00 0.  1.
          2   -1    0    0  502    0  0.00000000000E+00 -0.00000000000E+00 -0.34403872311E+03  0.34403872311E+03  0.00000000000E+00 0. -1.
          6    1    1    2  502    0 -0.88224594552E+02 -0.89339188180E+01 -0.10746244761E+03  0.22134943333E+03  0.17200000000E+03 0.  1.
         -6    1    1    2    0  501  0.88224594552E+02  0.89339188180E+01 -0.12751619034E+03  0.23174937494E+03  0.17200000000E+03 0. -1.
<mgrwt>
<rscale>  2 0.19351329E+03</rscale>
<asrwt>0</asrwt>
<pdfrwt beam="1">  1        2 0.86009680E-01 0.19351329E+03</pdfrwt>
<pdfrwt beam="2">  1       -2 0.27265021E-01 0.19351329E+03</pdfrwt>
<totfact> 0.67009826E+02</totfact>
</mgrwt>
</event>
<event>
 4    1  0.3889096E-001  0.1892826E+03  0.7546771E-02  0.1159110E+00
          2   -1    0    0  502    0  0.00000000000E+00  0.00000000000E+00  0.86740842565E+03  0.86740842565E+03  0.00000000000E+00 0. -1.
         -2   -1    0    0    0  501 -0.00000000000E+00 -0.00000000000E+00 -0.43214887405E+02  0.43214887405E+02  0.00000000000E+00 0.  1.
          6    1    1    2  502    0  0.68754119703E+01 -0.78718774076E+02  0.50782650361E+03  0.54195541740E+03  0.17200000000E+03 0. -1.
         -6    1    1    2    0  501 -0.68754119703E+01  0.78718774076E+02  0.31636703463E+03  0.36866789565E+03  0.17200000000E+03 0.  1.
<mgrwt>
<rscale>  2 0.18928264E+03</rscale>
<asrwt>0</asrwt>
<pdfrwt beam="1">  1        2 0.21685205E+00 0.18928264E+03</pdfrwt>
<pdfrwt beam="2">  1       -2 0.10803725E-01 0.18928264E+03</pdfrwt>
<totfact> 0.90358412E+02</totfact>
</mgrwt>
</event>
<event>
 4    1  0.3889096E-001  0.4016948E+03  0.7546771E-02  0.1043194E+00
          2   -1    0    0  502    0  0.00000000000E+00  0.00000000000E+00  0.51140169228E+03  0.51140169228E+03  0.00000000000E+00 0. -1.
         -2   -1    0    0    0  501 -0.00000000000E+00 -0.00000000000E+00 -0.48637906229E+03  0.48637906229E+03  0.00000000000E+00 0.  1.
          6    1    1    2  502    0  0.29289257279E+03  0.21444956906E+03 -0.28317667268E+03  0.49147502970E+03  0.17200000000E+03 0.  1.
         -6    1    1    2    0  501 -0.29289257279E+03 -0.21444956906E+03  0.30819930267E+03  0.50630572487E+03  0.17200000000E+03 0. -1.
<mgrwt>
<rscale>  2 0.40169476E+03</rscale>
<asrwt>0</asrwt>
<pdfrwt beam="1">  1        2 0.12785042E+00 0.40169476E+03</pdfrwt>
<pdfrwt beam="2">  1       -2 0.12159477E+00 0.40169476E+03</pdfrwt>
<totfact> 0.17905800E+01</totfact>
</mgrwt>
</event>
<event>
 4    1  0.3889096E-001  0.2761485E+03  0.7546771E-02  0.1097811E+00
          2   -1    0    0  502    0  0.00000000000E+00  0.00000000000E+00  0.47605956890E+03  0.47605956890E+03  0.00000000000E+00 0. -1.
         -2   -1    0    0    0  501 -0.00000000000E+00 -0.00000000000E+00 -0.17962730934E+03  0.17962730934E+03  0.00000000000E+00 0.  1.
          6    1    1    2  502    0  0.20900826511E+03  0.54676788799E+02  0.40360018260E+02  0.27908231258E+03  0.17200000000E+03 0.  1.
         -6    1    1    2    0  501 -0.20900826511E+03 -0.54676788799E+02  0.25607224130E+03  0.37660456567E+03  0.17200000000E+03 0. -1.
<mgrwt>
<rscale>  2 0.27614852E+03</rscale>
<asrwt>0</asrwt>
<pdfrwt beam="1">  1        2 0.11901489E+00 0.27614852E+03</pdfrwt>
<pdfrwt beam="2">  1       -2 0.44906828E-01 0.27614852E+03</pdfrwt>
<totfact> 0.17784742E+02</totfact>
</mgrwt>
</event>
<event>
 4    1  0.3889096E-001  0.1730397E+03  0.7546771E-02  0.1174715E+00
         -2   -1    0    0    0  501 -0.00000000000E+00  0.00000000000E+00  0.78424587827E+03  0.78424587827E+03  0.00000000000E+00 0. -1.
          2   -1    0    0  502    0  0.00000000000E+00 -0.00000000000E+00 -0.39336292961E+02  0.39336292961E+02  0.00000000000E+00 0.  1.
          6    1    1    2  502    0  0.82016910231E+01  0.17072030310E+02  0.44304798779E+03  0.47564087444E+03  0.17200000000E+03 0.  1.
         -6    1    1    2    0  501 -0.82016910231E+01 -0.17072030310E+02  0.30186159752E+03  0.34794129679E+03  0.17200000000E+03 0.  1.
<mgrwt>
<rscale>  2 0.17303965E+03</rscale>
<asrwt>0</asrwt>
<pdfrwt beam="1">  1        2 0.98340758E-02 0.17303965E+03</pdfrwt>
<pdfrwt beam="2">  1       -2 0.19606142E+00 0.17303965E+03</pdfrwt>
<totfact> 0.10067278E+02</totfact>
</mgrwt>
</event>
<event>
 4    1  0.3889096E-001  0.1814156E+03  0.7546771E-02  0.1166440E+00
          1   -1    0    0  502    0  0.00000000000E+00  0.00000000000E+00  0.88964689821E+02  0.88964689821E+02  0.00000000000E+00 0.  1.
         -1   -1    0    0    0  501 -0.00000000000E+00 -0.00000000000E+00 -0.41503071532E+03  0.41503071532E+03  0.00000000000E+00 0. -1.
          6    1    1    2  502    0 -0.25307188725E+02 -0.51837768958E+02 -0.24609445029E+03  0.30573532108E+03  0.17200000000E+03 0. -1.
         -6    1    1    2    0  501  0.25307188725E+02  0.51837768958E+02 -0.79971575212E+02  0.19826008407E+03  0.17200000000E+03 0.  1.
<mgrwt>
<rscale>  2 0.18141557E+03</rscale>
<asrwt>0</asrwt>
<pdfrwt beam="1">  1        1 0.22241173E-01 0.18141557E+03</pdfrwt>
<pdfrwt beam="2">  1       -1 0.10375768E+00 0.18141557E+03</pdfrwt>
<totfact> 0.20919138E+02</totfact>
</mgrwt>
</event>
<event>
 4    1  0.3889096E-001  0.1742220E+03  0.7546771E-02  0.1173515E+00
          3   -1    0    0  502    0  0.00000000000E+00  0.00000000000E+00  0.98220013189E+02  0.98220013189E+02  0.00000000000E+00 0.  1.
         -3   -1    0    0    0  501 -0.00000000000E+00 -0.00000000000E+00 -0.30903387729E+03  0.30903387729E+03  0.00000000000E+00 0. -1.
          6    1    1    2  502    0 -0.15202364802E+02  0.23198840174E+02 -0.10527152526E+03  0.20355685228E+03  0.17200000000E+03 0. -1.
         -6    1    1    2    0  501  0.15202364802E+02 -0.23198840174E+02 -0.10554233884E+03  0.20369703819E+03  0.17200000000E+03 0.  1.
<mgrwt>
<rscale>  2 0.17422198E+03</rscale>
<asrwt>0</asrwt>
<pdfrwt beam="1">  1        3 0.24555004E-01 0.17422198E+03</pdfrwt>
<pdfrwt beam="2">  1       -3 0.77258469E-01 0.17422198E+03</pdfrwt>
<totfact> 0.60303818E+01</totfact>
</mgrwt>
</event>
<event>
 4    1  0.3889096E-001  0.3270922E+03  0.7546771E-02  0.1072431E+00
          2   -1    0    0  502    0  0.00000000000E+00  0.00000000000E+00  0.19174947089E+04  0.19174947089E+04  0.00000000000E+00 0.  1.
         -2   -1    0    0    0  501 -0.00000000000E+00 -0.00000000000E+00 -0.56083789805E+02  0.56083789805E+02  0.00000000000E+00 0. -1.
          6    1    1    2  502    0 -0.53164197008E+02 -0.27309136889E+03  0.86006862432E+03  0.92016703165E+03  0.17200000000E+03 0. -1.
         -6    1    1    2    0  501  0.53164197008E+02  0.27309136889E+03  0.10013422948E+04  0.10534114671E+04  0.17200000000E+03 0. -1.
<mgrwt>
<rscale>  2 0.32709223E+03</rscale>
<asrwt>0</asrwt>
<pdfrwt beam="1">  1        2 0.47937346E+00 0.32709223E+03</pdfrwt>
<pdfrwt beam="2">  1       -2 0.14020954E-01 0.32709223E+03</pdfrwt>
<totfact> 0.66894365E+01</totfact>
</mgrwt>
</event>
<event>
 4    1  0.3889096E-001  0.1756244E+03  0.7546771E-02  0.1172106E+00
          2   -1    0    0  502    0  0.00000000000E+00  0.00000000000E+00  0.44691489020E+03  0.44691489020E+03  0.00000000000E+00 0.  1.
         -2   -1    0    0    0  501 -0.00000000000E+00 -0.00000000000E+00 -0.69759021453E+02  0.69759021453E+02  0.00000000000E+00 0. -1.
          6    1    1    2  502    0 -0.31823845325E+02 -0.15722025362E+02  0.21525318408E+03  0.27780905758E+03  0.17200000000E+03 0. -1.
         -6    1    1    2    0  501  0.31823845325E+02  0.15722025362E+02  0.16190268467E+03  0.23886485408E+03  0.17200000000E+03 0.  1.
<mgrwt>
<rscale>  2 0.17562443E+03</rscale>
<asrwt>0</asrwt>
<pdfrwt beam="1">  1        2 0.11172871E+00 0.17562443E+03</pdfrwt>
<pdfrwt beam="2">  1       -2 0.17439757E-01 0.17562443E+03</pdfrwt>
<totfact> 0.10659946E+03</totfact>
</mgrwt>
</event>
<event>
 4    1  0.3889096E-001  0.3789705E+03  0.7546771E-02  0.1051315E+00
         -2   -1    0    0    0  501 -0.00000000000E+00  0.00000000000E+00  0.16517721551E+03  0.16517721551E+03  0.00000000000E+00 0. -1.
          2   -1    0    0  502    0  0.00000000000E+00 -0.00000000000E+00 -0.10190427475E+04  0.10190427475E+04  0.00000000000E+00 0.  1.
          6    1    1    2  502    0  0.73364272522E+02 -0.32962449335E+03 -0.20009522566E+03  0.42855189001E+03  0.17200000000E+03 0. -1.
         -6    1    1    2    0  501 -0.73364272522E+02  0.32962449335E+03 -0.65377030631E+03  0.75566807297E+03  0.17200000000E+03 0.  1.
<mgrwt>
<rscale>  2 0.37897048E+03</rscale>
<asrwt>0</asrwt>
<pdfrwt beam="1">  1        2 0.25476068E+00 0.37897048E+03</pdfrwt>
<pdfrwt beam="2">  1       -2 0.41294304E-01 0.37897048E+03</pdfrwt>
<totfact> 0.62304347E+01</totfact>
</mgrwt>
</event>
<event>
 4    1  0.3889096E-001  0.2056133E+03  0.7546771E-02  0.1145088E+00
          2   -1    0    0  502    0  0.00000000000E+00  0.00000000000E+00  0.13396218414E+04  0.13396218414E+04  0.00000000000E+00 0. -1.
         -2   -1    0    0    0  501 -0.00000000000E+00 -0.00000000000E+00 -0.42267938817E+02  0.42267938817E+02  0.00000000000E+00 0.  1.
          6    1    1    2  502    0 -0.10698923492E+03 -0.35300476941E+02  0.99646585301E+03  0.10174581152E+04  0.17200000000E+03 0. -1.
         -6    1    1    2    0  501  0.10698923492E+03  0.35300476941E+02  0.30088804958E+03  0.36443166498E+03  0.17200000000E+03 0.  1.
<mgrwt>
<rscale>  2 0.20561328E+03</rscale>
<asrwt>0</asrwt>
<pdfrwt beam="1">  1        2 0.33490532E+00 0.20561328E+03</pdfrwt>
<pdfrwt beam="2">  1       -2 0.10566989E-01 0.20561328E+03</pdfrwt>
<totfact> 0.37046758E+02</totfact>
</mgrwt>
</event>
<event>
 4    1  0.3889096E-001  0.1999717E+03  0.7546771E-02  0.1149763E+00
          2   -1    0    0  502    0  0.00000000000E+00  0.00000000000E+00  0.25444609834E+03  0.25444609834E+03  0.00000000000E+00 0. -1.
         -2   -1    0    0    0  501 -0.00000000000E+00 -0.00000000000E+00 -0.15938835910E+03  0.15938835910E+03  0.00000000000E+00 0.  1.
          6    1    1    2  502    0  0.77449845142E+02  0.66379127824E+02  0.23061221478E+02  0.20129701205E+03  0.17200000000E+03 0.  1.
         -6    1    1    2    0  501 -0.77449845142E+02 -0.66379127824E+02  0.71996517765E+02  0.21253744539E+03  0.17200000000E+03 0. -1.
<mgrwt>
<rscale>  2 0.19997167E+03</rscale>
<asrwt>0</asrwt>
<pdfrwt beam="1">  1        2 0.63611524E-01 0.19997167E+03</pdfrwt>
<pdfrwt beam="2">  1       -2 0.39847090E-01 0.19997167E+03</pdfrwt>
<totfact> 0.46522230E+02</totfact>
</mgrwt>
</event>
<event>
 4    1  0.3889096E-001  0.2354951E+03  0.7546771E-02  0.1122831E+00
          2   -1    0    0  502    0  0.00000000000E+00  0.00000000000E+00  0.18647725616E+04  0.18647725616E+04  0.00000000000E+00 0. -1.
         -2   -1    0    0    0  501 -0.00000000000E+00 -0.00000000000E+00 -0.42517081417E+02  0.42517081417E+02  0.00000000000E+00 0.  1.
          6    1    1    2  502    0 -0.28434670047E+02 -0.15832055939E+03  0.38834112039E+03  0.45416600024E+03  0.17200000000E+03 0.  1.
         -6    1    1    2    0  501  0.28434670047E+02  0.15832055939E+03  0.14339143598E+04  0.14531236427E+04  0.17200000000E+03 0. -1.
<mgrwt>
<rscale>  2 0.23549507E+03</rscale>
<asrwt>0</asrwt>
<pdfrwt beam="1">  1        2 0.46619287E+00 0.23549507E+03</pdfrwt>
<pdfrwt beam="2">  1       -2 0.10629277E-01 0.23549507E+03</pdfrwt>
<totfact> 0.12224820E+02</totfact>
</mgrwt>
</event>
<event>
 4    1  0.3889096E-001  0.1790326E+03  0.7546771E-02  0.1168743E+00
          1   -1    0    0  502    0  0.00000000000E+00  0.00000000000E+00  0.35408935000E+03  0.35408935000E+03  0.00000000000E+00 0. -1.
         -1   -1    0    0    0  501 -0.00000000000E+00 -0.00000000000E+00 -0.94354878007E+02  0.94354878007E+02  0.00000000000E+00 0.  1.
          6    1    1    2  502    0  0.30247247551E+02  0.39417885033E+02  0.17506244915E+03  0.25039873552E+03  0.17200000000E+03 0. -1.
         -6    1    1    2    0  501 -0.30247247551E+02 -0.39417885033E+02  0.84672022843E+02  0.19804549249E+03  0.17200000000E+03 0.  1.
<mgrwt>
<rscale>  2 0.17903258E+03</rscale>
<asrwt>0</asrwt>
<pdfrwt beam="1">  1        1 0.88522334E-01 0.17903258E+03</pdfrwt>
<pdfrwt beam="2">  1       -1 0.23588720E-01 0.17903258E+03</pdfrwt>
<totfact> 0.57735773E+02</totfact>
</mgrwt>
</event>
<event>
 4    1  0.3889096E-001  0.4607245E+03  0.7546771E-02  0.1024571E+00
         -2   -1    0    0    0  501 -0.00000000000E+00  0.00000000000E+00  0.37967776559E+03  0.37967776559E+03  0.00000000000E+00 0. -1.
          2   -1    0    0  502    0  0.00000000000E+00 -0.00000000000E+00 -0.56103806357E+03  0.56103806357E+03  0.00000000000E+00 0.  1.
          6    1    1    2  502    0 -0.26202157319E+03 -0.33768001157E+03 -0.62834082150E+02  0.46498948043E+03  0.17200000000E+03 0. -1.
         -6    1    1    2    0  501  0.26202157319E+03  0.33768001157E+03 -0.11852621583E+03  0.47572634872E+03  0.17200000000E+03 0.  1.
<mgrwt>
<rscale>  2 0.46072453E+03</rscale>
<asrwt>0</asrwt>
<pdfrwt beam="1">  1        2 0.14025951E+00 0.46072453E+03</pdfrwt>
<pdfrwt beam="2">  1       -2 0.94919442E-01 0.46072453E+03</pdfrwt>
<totfact> 0.28267544E+01</totfact>
</mgrwt>
</event>
<event>
 4    1  0.3889096E-001  0.1721337E+03  0.7546771E-02  0.1175641E+00
          2   -1    0    0  502    0  0.00000000000E+00  0.00000000000E+00  0.29863358064E+03  0.29863358064E+03  0.00000000000E+00 0.  1.
         -2   -1    0    0    0  501 -0.00000000000E+00 -0.00000000000E+00 -0.10113768877E+03  0.10113768877E+03  0.00000000000E+00 0. -1.
          6    1    1    2  502    0 -0.67472609135E+01  0.68513163656E+00  0.71213476390E+02  0.18628299481E+03  0.17200000000E+03 0. -1.
         -6    1    1    2    0  501  0.67472609135E+01 -0.68513163656E+00  0.12628241548E+03  0.21348827461E+03  0.17200000000E+03 0.  1.
<mgrwt>
<rscale>  2 0.17213365E+03</rscale>
<asrwt>0</asrwt>
<pdfrwt beam="1">  1        2 0.74658393E-01 0.17213365E+03</pdfrwt>
<pdfrwt beam="2">  1       -2 0.25284423E-01 0.17213365E+03</pdfrwt>
<totfact> 0.89675663E+02</totfact>
</mgrwt>
</event>
<event>
 4    1  0.3889096E-001  0.1744315E+03  0.7546771E-02  0.1173304E+00
         -2   -1    0    0    0  501 -0.00000000000E+00  0.00000000000E+00  0.48088806271E+03  0.48088806271E+03  0.00000000000E+00 0.  1.
          2   -1    0    0  502    0  0.00000000000E+00 -0.00000000000E+00 -0.65603286959E+02  0.65603286959E+02  0.00000000000E+00 0. -1.
          6    1    1    2  502    0  0.28582124285E+02  0.50402427085E+01  0.15612340216E+03  0.23409583204E+03  0.17200000000E+03 0. -1.
         -6    1    1    2    0  501 -0.28582124285E+02 -0.50402427085E+01  0.25916137358E+03  0.31239551762E+03  0.17200000000E+03 0. -1.
<mgrwt>
<rscale>  2 0.17443148E+03</rscale>
<asrwt>0</asrwt>
<pdfrwt beam="1">  1        2 0.16400823E-01 0.17443148E+03</pdfrwt>
<pdfrwt beam="2">  1       -2 0.12022201E+00 0.17443148E+03</pdfrwt>
<totfact> 0.19455993E+02</totfact>
</mgrwt>
</event>
<event>
 4    1  0.3889096E-001  0.3816519E+03  0.7546771E-02  0.1050325E+00
          2   -1    0    0  502    0  0.00000000000E+00  0.00000000000E+00  0.14453126904E+04  0.14453126904E+04  0.00000000000E+00 0. -1.
         -2   -1    0    0    0  501 -0.00000000000E+00 -0.00000000000E+00 -0.10188215856E+03  0.10188215856E+03  0.00000000000E+00 0.  1.
          6    1    1    2  502    0  0.28901595690E+03  0.18039939851E+03  0.75218801886E+03  0.84347198059E+03  0.17200000000E+03 0. -1.
         -6    1    1    2    0  501 -0.28901595690E+03 -0.18039939851E+03  0.59124251300E+03  0.70372286840E+03  0.17200000000E+03 0.  1.
<mgrwt>
<rscale>  2 0.38165189E+03</rscale>
<asrwt>0</asrwt>
<pdfrwt beam="1">  1        2 0.36132811E+00 0.38165189E+03</pdfrwt>
<pdfrwt beam="2">  1       -2 0.25470544E-01 0.38165189E+03</pdfrwt>
<totfact> 0.65102907E+01</totfact>
</mgrwt>
</event>
<event>
 4    1  0.3889096E-001  0.1806238E+03  0.7546771E-02  0.1167201E+00
          2   -1    0    0  502    0  0.00000000000E+00  0.00000000000E+00  0.14968578529E+04  0.14968578529E+04  0.00000000000E+00 0.  1.
         -2   -1    0    0    0  501 -0.00000000000E+00 -0.00000000000E+00 -0.27878199173E+02  0.27878199173E+02  0.00000000000E+00 0. -1.
          6    1    1    2  502    0 -0.25472330806E+02  0.48909163535E+02  0.10905932739E+04  0.11054495172E+04  0.17200000000E+03 0.  1.
         -6    1    1    2    0  501  0.25472330806E+02 -0.48909163535E+02  0.37838637976E+03  0.41928653484E+03  0.17200000000E+03 0. -1.
<mgrwt>
<rscale>  2 0.18062377E+03</rscale>
<asrwt>0</asrwt>
<pdfrwt beam="1">  1        2 0.37421419E+00 0.18062377E+03</pdfrwt>
<pdfrwt beam="2">  1       -2 0.69695548E-02 0.18062377E+03</pdfrwt>
<totfact> 0.52413903E+02</totfact>
</mgrwt>
</event>
<event>
 4    1  0.3889096E-001  0.1744413E+03  0.7546771E-02  0.1173294E+00
          2   -1    0    0  502    0  0.00000000000E+00  0.00000000000E+00  0.14678251712E+03  0.14678251712E+03  0.00000000000E+00 0.  1.
         -2   -1    0    0    0  501 -0.00000000000E+00 -0.00000000000E+00 -0.28766813973E+03  0.28766813973E+03  0.00000000000E+00 0. -1.
          6    1    1    2  502    0 -0.26352919685E+02  0.12299589928E+02 -0.18525143151E+03  0.25445598669E+03  0.17200000000E+03 0. -1.
         -6    1    1    2    0  501  0.26352919685E+02 -0.12299589928E+02  0.44365808900E+02  0.17999467016E+03  0.17200000000E+03 0.  1.
<mgrwt>
<rscale>  2 0.17444127E+03</rscale>
<asrwt>0</asrwt>
<pdfrwt beam="1">  1        2 0.36695630E-01 0.17444127E+03</pdfrwt>
<pdfrwt beam="2">  1       -2 0.71917034E-01 0.17444127E+03</pdfrwt>
<totfact> 0.25499838E+02</totfact>
</mgrwt>
</event>
<event>
 4    1  0.3889096E-001  0.2003940E+03  0.7546771E-02  0.1149407E+00
          1   -1    0    0  502    0  0.00000000000E+00  0.00000000000E+00  0.42221343328E+03  0.42221343328E+03  0.00000000000E+00 0.  1.
         -1   -1    0    0    0  501 -0.00000000000E+00 -0.00000000000E+00 -0.10351177308E+03  0.10351177308E+03  0.00000000000E+00 0. -1.
          6    1    1    2  502    0  0.25792992244E+02 -0.99541258027E+02  0.23422929020E+03  0.30825492841E+03  0.17200000000E+03 0.  1.
         -6    1    1    2    0  501 -0.25792992244E+02  0.99541258027E+02  0.84472370001E+02  0.21747027795E+03  0.17200000000E+03 0. -1.
<mgrwt>
<rscale>  2 0.20039396E+03</rscale>
<asrwt>0</asrwt>
<pdfrwt beam="1">  1        1 0.10555335E+00 0.20039396E+03</pdfrwt>
<pdfrwt beam="2">  1       -1 0.25877944E-01 0.20039396E+03</pdfrwt>
<totfact> 0.38670977E+02</totfact>
</mgrwt>
</event>
<event>
 4    1  0.3889096E-001  0.2273004E+03  0.7546771E-02  0.1128554E+00
         -1   -1    0    0    0  501 -0.00000000000E+00  0.00000000000E+00  0.66895619591E+02  0.66895619591E+02  0.00000000000E+00 0. -1.
          1   -1    0    0  502    0  0.00000000000E+00 -0.00000000000E+00 -0.90049157351E+03  0.90049157351E+03  0.00000000000E+00 0.  1.
          6    1    1    2  502    0 -0.90714200993E+02  0.11769623813E+03 -0.59927576717E+03  0.64093440838E+03  0.17200000000E+03 0. -1.
         -6    1    1    2    0  501  0.90714200993E+02 -0.11769623813E+03 -0.23432018674E+03  0.32645278471E+03  0.17200000000E+03 0.  1.
<mgrwt>
<rscale>  2 0.22730040E+03</rscale>
<asrwt>0</asrwt>
<pdfrwt beam="1">  1        1 0.22512289E+00 0.22730040E+03</pdfrwt>
<pdfrwt beam="2">  1       -1 0.16723905E-01 0.22730040E+03</pdfrwt>
<totfact> 0.20750816E+02</totfact>
</mgrwt>
</event>
<event>
 4    1  0.3889096E-001  0.2585227E+03  0.7546771E-02  0.1108034E+00
          2   -1    0    0  502    0  0.00000000000E+00  0.00000000000E+00  0.16208611354E+03  0.16208611354E+03  0.00000000000E+00 0. -1.
         -2   -1    0    0    0  501 -0.00000000000E+00 -0.00000000000E+00 -0.52124841636E+03  0.52124841636E+03  0.00000000000E+00 0.  1.
          6    1    1    2  502    0  0.17347964766E+03 -0.84585956363E+02 -0.23403353699E+02  0.25957983190E+03  0.17200000000E+03 0. -1.
         -6    1    1    2    0  501 -0.17347964766E+03  0.84585956363E+02 -0.33575894912E+03  0.42375469800E+03  0.17200000000E+03 0.  1.
<mgrwt>
<rscale>  2 0.25852267E+03</rscale>
<asrwt>0</asrwt>
<pdfrwt beam="1">  1        2 0.40521529E-01 0.25852267E+03</pdfrwt>
<pdfrwt beam="2">  1       -2 0.13031210E+00 0.25852267E+03</pdfrwt>
<totfact> 0.57698281E+01</totfact>
</mgrwt>
</event>
<event>
 4    1  0.3889096E-001  0.2041565E+03  0.7546771E-02  0.1146279E+00
         -1   -1    0    0    0  501 -0.00000000000E+00  0.00000000000E+00  0.26086315423E+02  0.26086315423E+02  0.00000000000E+00 0.  1.
          1   -1    0    0  502    0  0.00000000000E+00 -0.00000000000E+00 -0.17153845379E+04  0.17153845379E+04  0.00000000000E+00 0. -1.
          6    1    1    2  502    0  0.61322059375E+02  0.91298948404E+02 -0.10726511603E+04  0.10919067747E+04  0.17200000000E+03 0. -1.
         -6    1    1    2    0  501 -0.61322059375E+02 -0.91298948404E+02 -0.61664706219E+03  0.64956407864E+03  0.17200000000E+03 0.  1.
<mgrwt>
<rscale>  2 0.20415654E+03</rscale>
<asrwt>0</asrwt>
<pdfrwt beam="1">  1        1 0.42884613E+00 0.20415654E+03</pdfrwt>
<pdfrwt beam="2">  1       -1 0.65215789E-02 0.20415654E+03</pdfrwt>
<totfact> 0.12224100E+02</totfact>
</mgrwt>
</event>
<event>
 4    1  0.3889096E-001  0.2114498E+03  0.7546771E-02  0.1140423E+00
         -2   -1    0    0    0  501 -0.00000000000E+00  0.00000000000E+00  0.58079690823E+02  0.58079690823E+02  0.00000000000E+00 0.  1.
          2   -1    0    0  502    0  0.00000000000E+00 -0.00000000000E+00 -0.90641383227E+03  0.90641383227E+03  0.00000000000E+00 0. -1.
          6    1    1    2  502    0 -0.24102495123E+02  0.12060717234E+03 -0.61137253354E+03  0.64690601717E+03  0.17200000000E+03 0. -1.
         -6    1    1    2    0  501  0.24102495123E+02 -0.12060717234E+03 -0.23696160791E+03  0.31758750592E+03  0.17200000000E+03 0.  1.
<mgrwt>
<rscale>  2 0.21144981E+03</rscale>
<asrwt>0</asrwt>
<pdfrwt beam="1">  1        2 0.22660346E+00 0.21144981E+03</pdfrwt>
<pdfrwt beam="2">  1       -2 0.14519922E-01 0.21144981E+03</pdfrwt>
<totfact> 0.51649039E+02</totfact>
</mgrwt>
</event>
<event>
 4    1  0.3889096E-001  0.1822901E+03  0.7546771E-02  0.1165605E+00
         -1   -1    0    0    0  501 -0.00000000000E+00  0.00000000000E+00  0.21713797699E+03  0.21713797699E+03  0.00000000000E+00 0. -1.
          1   -1    0    0  502    0  0.00000000000E+00 -0.00000000000E+00 -0.24887994827E+03  0.24887994827E+03  0.00000000000E+00 0.  1.
          6    1    1    2  502    0 -0.54219817698E+02 -0.26568679941E+02 -0.16046907919E+03  0.24285800123E+03  0.17200000000E+03 0.  1.
         -6    1    1    2    0  501  0.54219817698E+02  0.26568679941E+02  0.12872710791E+03  0.22315992404E+03  0.17200000000E+03 0. -1.
<mgrwt>
<rscale>  2 0.18229011E+03</rscale>
<asrwt>0</asrwt>
<pdfrwt beam="1">  1        1 0.62219987E-01 0.18229011E+03</pdfrwt>
<pdfrwt beam="2">  1       -1 0.54284495E-01 0.18229011E+03</pdfrwt>
<totfact> 0.21462259E+02</totfact>
</mgrwt>
</event>
<event>
 4    1  0.3889096E-001  0.2207918E+03  0.7546771E-02  0.1133294E+00
         -2   -1    0    0    0  501 -0.00000000000E+00  0.00000000000E+00  0.14144574772E+03  0.14144574772E+03  0.00000000000E+00 0. -1.
          2   -1    0    0  502    0  0.00000000000E+00 -0.00000000000E+00 -0.62812970612E+03  0.62812970612E+03  0.00000000000E+00 0.  1.
          6    1    1    2  502    0  0.13137051075E+03 -0.43667212301E+02  0.15157000900E+02  0.22131148005E+03  0.17200000000E+03 0. -1.
         -6    1    1    2    0  501 -0.13137051075E+03  0.43667212301E+02 -0.50184095930E+03  0.54826397379E+03  0.17200000000E+03 0.  1.
<mgrwt>
<rscale>  2 0.22079184E+03</rscale>
<asrwt>0</asrwt>
<pdfrwt beam="1">  1        2 0.15703243E+00 0.22079184E+03</pdfrwt>
<pdfrwt beam="2">  1       -2 0.35361437E-01 0.22079184E+03</pdfrwt>
<totfact> 0.19573427E+02</totfact>
</mgrwt>
</event>
<event>
 4    1  0.3889096E-001  0.3132073E+03  0.7546771E-02  0.1078819E+00
          1   -1    0    0  502    0  0.00000000000E+00  0.00000000000E+00  0.68081917755E+03  0.68081917755E+03  0.00000000000E+00 0.  1.
         -1   -1    0    0    0  501 -0.00000000000E+00 -0.00000000000E+00 -0.14558383075E+03  0.14558383075E+03  0.00000000000E+00 0. -1.
          6    1    1    2  502    0 -0.26148493963E+03  0.11851102784E+02  0.30948200705E+03  0.44031572193E+03  0.17200000000E+03 0. -1.
         -6    1    1    2    0  501  0.26148493963E+03 -0.11851102784E+02  0.22575333975E+03  0.38608728637E+03  0.17200000000E+03 0. -1.
<mgrwt>
<rscale>  2 0.31320732E+03</rscale>
<asrwt>0</asrwt>
<pdfrwt beam="1">  1        1 0.17020479E+00 0.31320732E+03</pdfrwt>
<pdfrwt beam="2">  1       -1 0.36395960E-01 0.31320732E+03</pdfrwt>
<totfact> 0.97824717E+01</totfact>
</mgrwt>
</event>
<event>
 4    1  0.3889096E-001  0.1805588E+03  0.7546771E-02  0.1167263E+00
         -2   -1    0    0    0  501 -0.00000000000E+00  0.00000000000E+00  0.23568770622E+02  0.23568770622E+02  0.00000000000E+00 0.  1.
          2   -1    0    0  502    0  0.00000000000E+00 -0.00000000000E+00 -0.19279090612E+04  0.19279090612E+04  0.00000000000E+00 0. -1.
          6    1    1    2  502    0  0.35007502710E+02  0.42331603625E+02 -0.14707945206E+04  0.14818360273E+04  0.17200000000E+03 0. -1.
         -6    1    1    2    0  501 -0.35007502710E+02 -0.42331603625E+02 -0.43354577000E+03  0.46964180456E+03  0.17200000000E+03 0.  1.
<mgrwt>
<rscale>  2 0.18055883E+03</rscale>
<asrwt>0</asrwt>
<pdfrwt beam="1">  1        2 0.48197725E+00 0.18055883E+03</pdfrwt>
<pdfrwt beam="2">  1       -2 0.58921929E-02 0.18055883E+03</pdfrwt>
<totfact> 0.27291483E+02</totfact>
</mgrwt>
</event>
<event>
 4    1  0.3889096E-001  0.2240014E+03  0.7546771E-02  0.1130935E+00
         -2   -1    0    0    0  501 -0.00000000000E+00  0.00000000000E+00  0.98320246411E+02  0.98320246411E+02  0.00000000000E+00 0.  1.
          2   -1    0    0  502    0  0.00000000000E+00 -0.00000000000E+00 -0.65503236955E+03  0.65503236955E+03  0.00000000000E+00 0. -1.
          6    1    1    2  502    0 -0.10368409072E+03  0.99207985513E+02 -0.10131994773E+03  0.24585025293E+03  0.17200000000E+03 0.  1.
         -6    1    1    2    0  501  0.10368409072E+03 -0.99207985513E+02 -0.45539217540E+03  0.50750236302E+03  0.17200000000E+03 0. -1.
<mgrwt>
<rscale>  2 0.22400137E+03</rscale>
<asrwt>0</asrwt>
<pdfrwt beam="1">  1        2 0.16375809E+00 0.22400137E+03</pdfrwt>
<pdfrwt beam="2">  1       -2 0.24580062E-01 0.22400137E+03</pdfrwt>
<totfact> 0.35603728E+02</totfact>
</mgrwt>
</event>
<event>
 4    1  0.3889096E-001  0.1939442E+03  0.7546771E-02  0.1154951E+00
          1   -1    0    0  502    0  0.00000000000E+00  0.00000000000E+00  0.78103612218E+03  0.78103612218E+03  0.00000000000E+00 0.  1.
         -1   -1    0    0    0  501 -0.00000000000E+00 -0.00000000000E+00 -0.57444574763E+02  0.57444574763E+02  0.00000000000E+00 0. -1.
          6    1    1    2  502    0  0.65587482347E+02 -0.61062499090E+02  0.19324523567E+03  0.27378471058E+03  0.17200000000E+03 0. -1.
         -6    1    1    2    0  501 -0.65587482347E+02  0.61062499090E+02  0.53034631174E+03  0.56469598636E+03  0.17200000000E+03 0.  1.
<mgrwt>
<rscale>  2 0.19394418E+03</rscale>
<asrwt>0</asrwt>
<pdfrwt beam="1">  1        1 0.19525900E+00 0.19394418E+03</pdfrwt>
<pdfrwt beam="2">  1       -1 0.14361146E-01 0.19394418E+03</pdfrwt>
<totfact> 0.35929632E+02</totfact>
</mgrwt>
</event>
<event>
 4    1  0.3889096E-001  0.1750904E+03  0.7546771E-02  0.1172641E+00
          4   -1    0    0  502    0  0.00000000000E+00  0.00000000000E+00  0.29484924485E+03  0.29484924485E+03  0.00000000000E+00 0.  1.
         -4   -1    0    0    0  501 -0.00000000000E+00 -0.00000000000E+00 -0.10517426900E+03  0.10517426900E+03  0.00000000000E+00 0. -1.
          6    1    1    2  502    0  0.25330818865E+02 -0.20760283781E+02  0.73470187774E+02  0.18988024715E+03  0.17200000000E+03 0. -1.
         -6    1    1    2    0  501 -0.25330818865E+02  0.20760283781E+02  0.11620478808E+03  0.21014326670E+03  0.17200000000E+03 0.  1.
<mgrwt>
<rscale>  2 0.17509038E+03</rscale>
<asrwt>0</asrwt>
<pdfrwt beam="1">  1        4 0.73712310E-01 0.17509038E+03</pdfrwt>
<pdfrwt beam="2">  1       -4 0.26293568E-01 0.17509038E+03</pdfrwt>
<totfact> 0.40573537E+01</totfact>
</mgrwt>
</event>
<event>
 4    1  0.3889096E-001  0.2056627E+03  0.7546771E-02  0.1145047E+00
          2   -1    0    0  502    0  0.00000000000E+00  0.00000000000E+00  0.30663886199E+03  0.30663886199E+03  0.00000000000E+00 0. -1.
         -2   -1    0    0    0  501 -0.00000000000E+00 -0.00000000000E+00 -0.14827111523E+03  0.14827111523E+03  0.00000000000E+00 0.  1.
          6    1    1    2  502    0 -0.37544802528E+02  0.10631817178E+03  0.13922956226E+03  0.24835868589E+03  0.17200000000E+03 0. -1.
         -6    1    1    2    0  501  0.37544802528E+02 -0.10631817178E+03  0.19138184499E+02  0.20655129134E+03  0.17200000000E+03 0.  1.
<mgrwt>
<rscale>  2 0.20566275E+03</rscale>
<asrwt>0</asrwt>
<pdfrwt beam="1">  1        2 0.76659714E-01 0.20566275E+03</pdfrwt>
<pdfrwt beam="2">  1       -2 0.37067779E-01 0.20566275E+03</pdfrwt>
<totfact> 0.43446682E+02</totfact>
</mgrwt>
</event>
<event>
 4    1  0.3889096E-001  0.1849884E+03  0.7546771E-02  0.1163061E+00
         -2   -1    0    0    0  501 -0.00000000000E+00  0.00000000000E+00  0.64531848123E+02  0.64531848123E+02  0.00000000000E+00 0. -1.
          2   -1    0    0  502    0  0.00000000000E+00 -0.00000000000E+00 -0.64918099767E+03  0.64918099767E+03  0.00000000000E+00 0.  1.
          6    1    1    2  502    0 -0.53219900670E+02 -0.42477644239E+02 -0.44503963497E+03  0.48195537634E+03  0.17200000000E+03 0.  1.
         -6    1    1    2    0  501  0.53219900670E+02  0.42477644239E+02 -0.13960951458E+03  0.23175746945E+03  0.17200000000E+03 0. -1.
<mgrwt>
<rscale>  2 0.18498840E+03</rscale>
<asrwt>0</asrwt>
<pdfrwt beam="1">  1        2 0.16229525E+00 0.18498840E+03</pdfrwt>
<pdfrwt beam="2">  1       -2 0.16132962E-01 0.18498840E+03</pdfrwt>
<totfact> 0.74340885E+02</totfact>
</mgrwt>
</event>
<event>
 4    1  0.3889096E-001  0.2807817E+03  0.7546771E-02  0.1095263E+00
         -2   -1    0    0    0  501 -0.00000000000E+00  0.00000000000E+00  0.63479933844E+02  0.63479933844E+02  0.00000000000E+00 0. -1.
          2   -1    0    0  502    0  0.00000000000E+00 -0.00000000000E+00 -0.12576064460E+04  0.12576064460E+04  0.00000000000E+00 0.  1.
          6    1    1    2  502    0  0.22191473065E+03  0.28707411397E+01 -0.52334281476E+03  0.59390747646E+03  0.17200000000E+03 0. -1.
         -6    1    1    2    0  501 -0.22191473065E+03 -0.28707411397E+01 -0.67078369742E+03  0.72717890341E+03  0.17200000000E+03 0.  1.
<mgrwt>
<rscale>  2 0.28078175E+03</rscale>
<asrwt>0</asrwt>
<pdfrwt beam="1">  1        2 0.31440160E+00 0.28078175E+03</pdfrwt>
<pdfrwt beam="2">  1       -2 0.15869984E-01 0.28078175E+03</pdfrwt>
<totfact> 0.22009471E+02</totfact>
</mgrwt>
</event>
<event>
 4    1  0.3889096E-001  0.1838904E+03  0.7546771E-02  0.1164090E+00
         -2   -1    0    0    0  501 -0.00000000000E+00  0.00000000000E+00  0.44981757134E+03  0.44981757134E+03  0.00000000000E+00 0.  1.
          2   -1    0    0  502    0  0.00000000000E+00 -0.00000000000E+00 -0.15414906375E+03  0.15414906375E+03  0.00000000000E+00 0. -1.
          6    1    1    2  502    0 -0.24772588420E+02  0.60149683802E+02  0.36398209393E+03  0.40779729070E+03  0.17200000000E+03 0.  1.
         -6    1    1    2    0  501  0.24772588420E+02 -0.60149683802E+02 -0.68313586347E+02  0.19616934439E+03  0.17200000000E+03 0. -1.
<mgrwt>
<rscale>  2 0.18389036E+03</rscale>
<asrwt>0</asrwt>
<pdfrwt beam="1">  1        2 0.38537267E-01 0.18389036E+03</pdfrwt>
<pdfrwt beam="2">  1       -2 0.11245439E+00 0.18389036E+03</pdfrwt>
<totfact> 0.88055709E+01</totfact>
</mgrwt>
</event>
<event>
 4    1  0.3889096E-001  0.1828407E+03  0.7546771E-02  0.1165082E+00
         -2   -1    0    0    0  501 -0.00000000000E+00  0.00000000000E+00  0.50887609375E+02  0.50887609375E+02  0.00000000000E+00 0.  1.
          2   -1    0    0  502    0  0.00000000000E+00 -0.00000000000E+00 -0.67633900792E+03  0.67633900792E+03  0.00000000000E+00 0. -1.
          6    1    1    2  502    0  0.20416118985E+02 -0.58565513816E+02 -0.25116430902E+03  0.31066742257E+03  0.17200000000E+03 0.  1.
         -6    1    1    2    0  501 -0.20416118985E+02  0.58565513816E+02 -0.37428708953E+03  0.41655919473E+03  0.17200000000E+03 0.  1.
<mgrwt>
<rscale>  2 0.18284074E+03</rscale>
<asrwt>0</asrwt>
<pdfrwt beam="1">  1        2 0.16908475E+00 0.18284074E+03</pdfrwt>
<pdfrwt beam="2">  1       -2 0.12721902E-01 0.18284074E+03</pdfrwt>
<totfact> 0.10336739E+03</totfact>
</mgrwt>
</event>
<event>
 4    1  0.3889096E-001  0.1906319E+03  0.7546771E-02  0.1157893E+00
         -1   -1    0    0    0  501 -0.00000000000E+00  0.00000000000E+00  0.34287964679E+02  0.34287964679E+02  0.00000000000E+00 0. -1.
          1   -1    0    0  502    0  0.00000000000E+00 -0.00000000000E+00 -0.11065508853E+04  0.11065508853E+04  0.00000000000E+00 0.  1.
          6    1    1    2  502    0 -0.81919465118E+02  0.67629627869E+01 -0.65330023546E+03  0.68054517417E+03  0.17200000000E+03 0. -1.
         -6    1    1    2    0  501  0.81919465118E+02 -0.67629627869E+01 -0.41896268511E+03  0.46029367576E+03  0.17200000000E+03 0. -1.
<mgrwt>
<rscale>  2 0.19063194E+03</rscale>
<asrwt>0</asrwt>
<pdfrwt beam="1">  1        1 0.27663772E+00 0.19063194E+03</pdfrwt>
<pdfrwt beam="2">  1       -1 0.85719913E-02 0.19063194E+03</pdfrwt>
<totfact> 0.35940393E+02</totfact>
</mgrwt>
</event>
<event>
 4    1  0.3889096E-001  0.2361201E+03  0.7546771E-02  0.1122405E+00
         -1   -1    0    0    0  501 -0.00000000000E+00  0.00000000000E+00  0.56108938701E+02  0.56108938701E+02  0.00000000000E+00 0. -1.
          1   -1    0    0  502    0  0.00000000000E+00 -0.00000000000E+00 -0.10017218461E+04  0.10017218461E+04  0.00000000000E+00 0.  1.
          6    1    1    2  502    0  0.11110772113E+03  0.11757459063E+03 -0.42533103476E+03  0.48647630897E+03  0.17200000000E+03 0. -1.
         -6    1    1    2    0  501 -0.11110772113E+03 -0.11757459063E+03 -0.52028187262E+03  0.57135447581E+03  0.17200000000E+03 0. -1.
<mgrwt>
<rscale>  2 0.23612012E+03</rscale>
<asrwt>0</asrwt>
<pdfrwt beam="1">  1        1 0.25043045E+00 0.23612012E+03</pdfrwt>
<pdfrwt beam="2">  1       -1 0.14027235E-01 0.23612012E+03</pdfrwt>
<totfact> 0.21349611E+02</totfact>
</mgrwt>
</event>
<event>
 4    1  0.3889096E-001  0.2781977E+03  0.7546771E-02  0.1096677E+00
          4   -1    0    0  502    0  0.00000000000E+00  0.00000000000E+00  0.76080894051E+02  0.76080894051E+02  0.00000000000E+00 0. -1.
         -4   -1    0    0    0  501 -0.00000000000E+00 -0.00000000000E+00 -0.10606951157E+04  0.10606951157E+04  0.00000000000E+00 0.  1.
          6    1    1    2  502    0  0.12589404732E+03  0.17877545961E+03 -0.60732754031E+03  0.66801251286E+03  0.17200000000E+03 0.  1.
         -6    1    1    2    0  501 -0.12589404732E+03 -0.17877545961E+03 -0.37728668134E+03  0.46876349690E+03  0.17200000000E+03 0. -1.
<mgrwt>
<rscale>  2 0.27819773E+03</rscale>
<asrwt>0</asrwt>
<pdfrwt beam="1">  1        4 0.19020224E-01 0.27819773E+03</pdfrwt>
<pdfrwt beam="2">  1       -4 0.26517378E+00 0.27819773E+03</pdfrwt>
<totfact> 0.26077863E+00</totfact>
</mgrwt>
</event>
<event>
 4    1  0.3889096E-001  0.1764231E+03  0.7546771E-02  0.1171310E+00
         -1   -1    0    0    0  501 -0.00000000000E+00  0.00000000000E+00  0.39642462370E+02  0.39642462370E+02  0.00000000000E+00 0.  1.
          1   -1    0    0  502    0  0.00000000000E+00 -0.00000000000E+00 -0.85037403816E+03  0.85037403816E+03  0.00000000000E+00 0. -1.
          6    1    1    2  502    0 -0.38702984641E+02  0.65723862354E+01 -0.28211760733E+03  0.33273932988E+03  0.17200000000E+03 0.  1.
         -6    1    1    2    0  501  0.38702984641E+02 -0.65723862354E+01 -0.52861396845E+03  0.55727717065E+03  0.17200000000E+03 0. -1.
<mgrwt>
<rscale>  2 0.17642312E+03</rscale>
<asrwt>0</asrwt>
<pdfrwt beam="1">  1        1 0.21259351E+00 0.17642312E+03</pdfrwt>
<pdfrwt beam="2">  1       -1 0.99106154E-02 0.17642312E+03</pdfrwt>
<totfact> 0.53875309E+02</totfact>
</mgrwt>
</event>
<event>
 4    1  0.3889096E-001  0.1769410E+03  0.7546771E-02  0.1170797E+00
         -4   -1    0    0    0  501 -0.00000000000E+00  0.00000000000E+00  0.63996063418E+03  0.63996063418E+03  0.00000000000E+00 0.  1.
          4   -1    0    0  502    0  0.00000000000E+00 -0.00000000000E+00 -0.51198275529E+02  0.51198275529E+02  0.00000000000E+00 0. -1.
          6    1    1    2  502    0 -0.11306229615E+02  0.39953629224E+02  0.36724924797E+03  0.40765197590E+03  0.17200000000E+03 0.  1.
         -6    1    1    2    0  501  0.11306229615E+02 -0.39953629224E+02  0.22151311068E+03  0.28350693381E+03  0.17200000000E+03 0. -1.
<mgrwt>
<rscale>  2 0.17694102E+03</rscale>
<asrwt>0</asrwt>
<pdfrwt beam="1">  1        4 0.12799571E-01 0.17694102E+03</pdfrwt>
<pdfrwt beam="2">  1       -4 0.15999013E+00 0.17694102E+03</pdfrwt>
<totfact> 0.23404323E+01</totfact>
</mgrwt>
</event>
<event>
 4    1  0.3889096E-001  0.2214347E+03  0.7546771E-02  0.1132818E+00
         -2   -1    0    0    0  501 -0.00000000000E+00  0.00000000000E+00  0.81110168506E+02  0.81110168506E+02  0.00000000000E+00 0.  1.
          2   -1    0    0  502    0  0.00000000000E+00 -0.00000000000E+00 -0.66572409648E+03  0.66572409648E+03  0.00000000000E+00 0. -1.
          6    1    1    2  502    0  0.13914682173E+03  0.93539805827E+01 -0.17909028669E+03  0.28479232036E+03  0.17200000000E+03 0.  1.
         -6    1    1    2    0  501 -0.13914682173E+03 -0.93539805827E+01 -0.40552364129E+03  0.46204194463E+03  0.17200000000E+03 0. -1.
<mgrwt>
<rscale>  2 0.22143472E+03</rscale>
<asrwt>0</asrwt>
<pdfrwt beam="1">  1        2 0.16643102E+00 0.22143472E+03</pdfrwt>
<pdfrwt beam="2">  1       -2 0.20277543E-01 0.22143472E+03</pdfrwt>
<totfact> 0.48582774E+02</totfact>
</mgrwt>
</event>
<event>
 4    1  0.3889096E-001  0.2209516E+03  0.7546771E-02  0.1133176E+00
          1   -1    0    0  502    0  0.00000000000E+00  0.00000000000E+00  0.98568756948E+02  0.98568756948E+02  0.00000000000E+00 0.  1.
         -1   -1    0    0    0  501 -0.00000000000E+00 -0.00000000000E+00 -0.61153229720E+03  0.61153229720E+03  0.00000000000E+00 0. -1.
          6    1    1    2  502    0  0.13840438743E+03 -0.89339130834E+01 -0.10168118229E+03  0.24322551695E+03  0.17200000000E+03 0.  1.
         -6    1    1    2    0  501 -0.13840438743E+03  0.89339130834E+01 -0.41128235797E+03  0.46687553720E+03  0.17200000000E+03 0. -1.
<mgrwt>
<rscale>  2 0.22095155E+03</rscale>
<asrwt>0</asrwt>
<pdfrwt beam="1">  1        1 0.24642190E-01 0.22095155E+03</pdfrwt>
<pdfrwt beam="2">  1       -1 0.15288307E+00 0.22095155E+03</pdfrwt>
<totfact> 0.71228370E+01</totfact>
</mgrwt>
</event>
<event>
 4    1  0.3889096E-001  0.1758559E+03  0.7546771E-02  0.1171875E+00
         -1   -1    0    0    0  501 -0.00000000000E+00  0.00000000000E+00  0.46216086905E+03  0.46216086905E+03  0.00000000000E+00 0.  1.
          1   -1    0    0  502    0  0.00000000000E+00 -0.00000000000E+00 -0.81005926500E+02  0.81005926500E+02  0.00000000000E+00 0. -1.
          6    1    1    2  502    0 -0.75837863006E+01 -0.35829948707E+02  0.77305850538E+02  0.19209761468E+03  0.17200000000E+03 0. -1.
         -6    1    1    2    0  501  0.75837863006E+01  0.35829948707E+02  0.30384909202E+03  0.35106918087E+03  0.17200000000E+03 0.  1.
<mgrwt>
<rscale>  2 0.17585590E+03</rscale>
<asrwt>0</asrwt>
<pdfrwt beam="1">  1        1 0.20251483E-01 0.17585590E+03</pdfrwt>
<pdfrwt beam="2">  1       -1 0.11554021E+00 0.17585590E+03</pdfrwt>
<totfact> 0.18452493E+02</totfact>
</mgrwt>
</event>
<event>
 4    1  0.3889096E-001  0.2308620E+03  0.7546771E-02  0.1126034E+00
          2   -1    0    0  502    0  0.00000000000E+00  0.00000000000E+00  0.20338338833E+04  0.20338338833E+04  0.00000000000E+00 0.  1.
         -2   -1    0    0    0  501 -0.00000000000E+00 -0.00000000000E+00 -0.42367720174E+02  0.42367720174E+02  0.00000000000E+00 0. -1.
          6    1    1    2  502    0  0.72577549954E+02  0.13581524576E+03  0.16369054739E+04  0.16531052030E+04  0.17200000000E+03 0.  1.
         -6    1    1    2    0  501 -0.72577549954E+02 -0.13581524576E+03  0.35456068921E+03  0.42309640045E+03  0.17200000000E+03 0. -1.
<mgrwt>
<rscale>  2 0.23086204E+03</rscale>
<asrwt>0</asrwt>
<pdfrwt beam="1">  1        2 0.50845814E+00 0.23086204E+03</pdfrwt>
<pdfrwt beam="2">  1       -2 0.10591937E-01 0.23086204E+03</pdfrwt>
<totfact> 0.83735970E+01</totfact>
</mgrwt>
</event>
<event>
 4    1  0.3889096E-001  0.3681817E+03  0.7546771E-02  0.1055390E+00
          2   -1    0    0  502    0  0.00000000000E+00  0.00000000000E+00  0.30729556827E+03  0.30729556827E+03  0.00000000000E+00 0.  1.
         -2   -1    0    0    0  501 -0.00000000000E+00 -0.00000000000E+00 -0.47349974153E+03  0.47349974153E+03  0.00000000000E+00 0. -1.
          6    1    1    2  502    0  0.34594663707E+01 -0.32551775326E+03 -0.18517404094E+03  0.41212522494E+03  0.17200000000E+03 0.  1.
         -6    1    1    2    0  501 -0.34594663707E+01  0.32551775326E+03  0.18969867680E+02  0.36867008486E+03  0.17200000000E+03 0. -1.
<mgrwt>
<rscale>  2 0.36818172E+03</rscale>
<asrwt>0</asrwt>
<pdfrwt beam="1">  1        2 0.76823893E-01 0.36818172E+03</pdfrwt>
<pdfrwt beam="2">  1       -2 0.11837493E+00 0.36818172E+03</pdfrwt>
<totfact> 0.35660285E+01</totfact>
</mgrwt>
</event>
<event>
 4    1  0.3889096E-001  0.1732249E+03  0.7546771E-02  0.1174526E+00
         -2   -1    0    0    0  501 -0.00000000000E+00  0.00000000000E+00  0.22277518068E+02  0.22277518068E+02  0.00000000000E+00 0. -1.
          2   -1    0    0  502    0  0.00000000000E+00 -0.00000000000E+00 -0.13548453244E+04  0.13548453244E+04  0.00000000000E+00 0.  1.
          6    1    1    2  502    0 -0.16654440354E+01  0.20496508168E+02 -0.71882068402E+03  0.73939844220E+03  0.17200000000E+03 0.  1.
         -6    1    1    2    0  501  0.16654440354E+01 -0.20496508168E+02 -0.61374712229E+03  0.63772440025E+03  0.17200000000E+03 0. -1.
<mgrwt>
<rscale>  2 0.17322494E+03</rscale>
<asrwt>0</asrwt>
<pdfrwt beam="1">  1        2 0.33871134E+00 0.17322494E+03</pdfrwt>
<pdfrwt beam="2">  1       -2 0.55693794E-02 0.17322494E+03</pdfrwt>
<totfact> 0.98012437E+02</totfact>
</mgrwt>
</event>
<event>
 4    1  0.3889096E-001  0.2215323E+03  0.7546771E-02  0.1132746E+00
         -1   -1    0    0    0  501 -0.00000000000E+00  0.00000000000E+00  0.33623453157E+02  0.33623453157E+02  0.00000000000E+00 0.  1.
          1   -1    0    0  502    0  0.00000000000E+00 -0.00000000000E+00 -0.18679740260E+04  0.18679740260E+04  0.00000000000E+00 0. -1.
          6    1    1    2  502    0  0.44229741812E+02 -0.13242466531E+03 -0.47260966350E+03  0.52195445786E+03  0.17200000000E+03 0.  1.
         -6    1    1    2    0  501 -0.44229741812E+02  0.13242466531E+03 -0.13617409094E+04  0.13796430213E+04  0.17200000000E+03 0. -1.
<mgrwt>
<rscale>  2 0.22153230E+03</rscale>
<asrwt>0</asrwt>
<pdfrwt beam="1">  1        1 0.46699349E+00 0.22153230E+03</pdfrwt>
<pdfrwt beam="2">  1       -1 0.84058636E-02 0.22153230E+03</pdfrwt>
<totfact> 0.55692884E+01</totfact>
</mgrwt>
</event>
<event>
 4    1  0.3889096E-001  0.2749839E+03  0.7546771E-02  0.1098461E+00
          2   -1    0    0  502    0  0.00000000000E+00  0.00000000000E+00  0.93161389213E+03  0.93161389213E+03  0.00000000000E+00 0. -1.
         -2   -1    0    0    0  501 -0.00000000000E+00 -0.00000000000E+00 -0.10894948504E+03  0.10894948504E+03  0.00000000000E+00 0.  1.
          6    1    1    2  502    0 -0.21196431317E+03 -0.33215248064E+02  0.67406423379E+03  0.72799636952E+03  0.17200000000E+03 0. -1.
         -6    1    1    2    0  501  0.21196431317E+03  0.33215248064E+02  0.14860017331E+03  0.31256700765E+03  0.17200000000E+03 0. -1.
<mgrwt>
<rscale>  2 0.27498386E+03</rscale>
<asrwt>0</asrwt>
<pdfrwt beam="1">  1        2 0.23290345E+00 0.27498386E+03</pdfrwt>
<pdfrwt beam="2">  1       -2 0.27237374E-01 0.27498386E+03</pdfrwt>
<totfact> 0.16497734E+02</totfact>
</mgrwt>
</event>
<event>
 4    1  0.3889096E-001  0.2837197E+03  0.7546771E-02  0.1093674E+00
         -1   -1    0    0    0  501 -0.00000000000E+00  0.00000000000E+00  0.12994795336E+03  0.12994795336E+03  0.00000000000E+00 0.  1.
          1   -1    0    0  502    0  0.00000000000E+00 -0.00000000000E+00 -0.79191419660E+03  0.79191419660E+03  0.00000000000E+00 0. -1.
          6    1    1    2  502    0  0.14695317585E+03  0.17122392254E+03 -0.54608317066E+03  0.61538906134E+03  0.17200000000E+03 0. -1.
         -6    1    1    2    0  501 -0.14695317585E+03 -0.17122392254E+03 -0.11588307258E+03  0.30647308862E+03  0.17200000000E+03 0.  1.
<mgrwt>
<rscale>  2 0.28371970E+03</rscale>
<asrwt>0</asrwt>
<pdfrwt beam="1">  1        1 0.19797855E+00 0.28371970E+03</pdfrwt>
<pdfrwt beam="2">  1       -1 0.32486988E-01 0.28371970E+03</pdfrwt>
<totfact> 0.89551567E+01</totfact>
</mgrwt>
</event>
<event>
 4    1  0.3889096E-001  0.1787052E+03  0.7546771E-02  0.1169062E+00
          3   -1    0    0  502    0  0.00000000000E+00  0.00000000000E+00  0.24365238524E+03  0.24365238524E+03  0.00000000000E+00 0.  1.
         -3   -1    0    0    0  501 -0.00000000000E+00 -0.00000000000E+00 -0.13171210431E+03  0.13171210431E+03  0.00000000000E+00 0. -1.
          6    1    1    2  502    0  0.81014920006E+01 -0.47811054348E+02  0.42866403939E+02  0.18377448048E+03  0.17200000000E+03 0. -1.
         -6    1    1    2    0  501 -0.81014920006E+01  0.47811054348E+02  0.69073876992E+02  0.19159000906E+03  0.17200000000E+03 0.  1.
<mgrwt>
<rscale>  2 0.17870515E+03</rscale>
<asrwt>0</asrwt>
<pdfrwt beam="1">  1        3 0.60913096E-01 0.17870515E+03</pdfrwt>
<pdfrwt beam="2">  1       -3 0.32928026E-01 0.17870515E+03</pdfrwt>
<totfact> 0.58243286E+01</totfact>
</mgrwt>
</event>
<event>
 4    1  0.3889096E-001  0.2051261E+03  0.7546771E-02  0.1145485E+00
         -2   -1    0    0    0  501 -0.00000000000E+00  0.00000000000E+00  0.39275041988E+02  0.39275041988E+02  0.00000000000E+00 0.  1.
          2   -1    0    0  502    0  0.00000000000E+00 -0.00000000000E+00 -0.29041827666E+04  0.29041827666E+04  0.00000000000E+00 0. -1.
          6    1    1    2  502    0  0.93745859737E+02  0.60864085145E+02 -0.26328011033E+03  0.33375610792E+03  0.17200000000E+03 0.  1.
         -6    1    1    2    0  501 -0.93745859737E+02 -0.60864085145E+02 -0.26016276142E+04  0.26097017006E+04  0.17200000000E+03 0. -1.
<mgrwt>
<rscale>  2 0.20512612E+03</rscale>
<asrwt>0</asrwt>
<pdfrwt beam="1">  1        2 0.72604561E+00 0.20512612E+03</pdfrwt>
<pdfrwt beam="2">  1       -2 0.98187615E-02 0.20512612E+03</pdfrwt>
<totfact> 0.74858107E+00</totfact>
</mgrwt>
</event>
<event>
 4    1  0.3889096E-001  0.1757148E+03  0.7546771E-02  0.1172016E+00
          2   -1    0    0  502    0  0.00000000000E+00  0.00000000000E+00  0.11284699243E+04  0.11284699243E+04  0.00000000000E+00 0. -1.
         -2   -1    0    0    0  501 -0.00000000000E+00 -0.00000000000E+00 -0.27392099066E+02  0.27392099066E+02  0.00000000000E+00 0.  1.
          6    1    1    2  502    0 -0.33758541571E+02 -0.12331521682E+02  0.57011173398E+03  0.59657614332E+03  0.17200000000E+03 0.  1.
         -6    1    1    2    0  501  0.33758541571E+02  0.12331521682E+02  0.53096609122E+03  0.55928588001E+03  0.17200000000E+03 0.  1.
<mgrwt>
<rscale>  2 0.17571484E+03</rscale>
<asrwt>0</asrwt>
<pdfrwt beam="1">  1        2 0.28211733E+00 0.17571484E+03</pdfrwt>
<pdfrwt beam="2">  1       -2 0.68480285E-02 0.17571484E+03</pdfrwt>
<totfact> 0.11081806E+03</totfact>
</mgrwt>
</event>
<event>
 4    1  0.3889096E-001  0.2272423E+03  0.7546771E-02  0.1128596E+00
          1   -1    0    0  502    0  0.00000000000E+00  0.00000000000E+00  0.18503100652E+03  0.18503100652E+03  0.00000000000E+00 0.  1.
         -1   -1    0    0    0  501 -0.00000000000E+00 -0.00000000000E+00 -0.49515627270E+03  0.49515627270E+03  0.00000000000E+00 0. -1.
          6    1    1    2  502    0  0.40524784471E+02 -0.14287331902E+03  0.69598374287E+02  0.23766147594E+03  0.17200000000E+03 0.  1.
         -6    1    1    2    0  501 -0.40524784471E+02  0.14287331902E+03 -0.37972364046E+03  0.44252580328E+03  0.17200000000E+03 0. -1.
<mgrwt>
<rscale>  2 0.22724226E+03</rscale>
<asrwt>0</asrwt>
<pdfrwt beam="1">  1        1 0.46257752E-01 0.22724226E+03</pdfrwt>
<pdfrwt beam="2">  1       -1 0.12378907E+00 0.22724226E+03</pdfrwt>
<totfact> 0.54750707E+01</totfact>
</mgrwt>
</event>
<event>
 4    1  0.3889096E-001  0.2392508E+03  0.7546771E-02  0.1120293E+00
          2   -1    0    0  502    0  0.00000000000E+00  0.00000000000E+00  0.93252000457E+03  0.93252000457E+03  0.00000000000E+00 0.  1.
         -2   -1    0    0    0  501 -0.00000000000E+00 -0.00000000000E+00 -0.63063170485E+02  0.63063170485E+02  0.00000000000E+00 0. -1.
          6    1    1    2  502    0 -0.14122075704E+02 -0.16570307651E+03  0.35347773381E+03  0.42683421944E+03  0.17200000000E+03 0. -1.
         -6    1    1    2    0  501  0.14122075704E+02  0.16570307651E+03  0.51597910027E+03  0.56874895561E+03  0.17200000000E+03 0.  1.
<mgrwt>
<rscale>  2 0.23925079E+03</rscale>
<asrwt>0</asrwt>
<pdfrwt beam="1">  1        2 0.23312996E+00 0.23925079E+03</pdfrwt>
<pdfrwt beam="2">  1       -2 0.15765796E-01 0.23925079E+03</pdfrwt>
<totfact> 0.42593990E+02</totfact>
</mgrwt>
</event>
<event>
 4    1  0.3889096E-001  0.2243816E+03  0.7546771E-02  0.1130658E+00
          2   -1    0    0  502    0  0.00000000000E+00  0.00000000000E+00  0.12519263546E+03  0.12519263546E+03  0.00000000000E+00 0. -1.
         -2   -1    0    0    0  501 -0.00000000000E+00 -0.00000000000E+00 -0.60935326185E+03  0.60935326185E+03  0.00000000000E+00 0.  1.
          6    1    1    2  502    0  0.12934450555E+02  0.14351232301E+03 -0.45624378328E+03  0.50843433858E+03  0.17200000000E+03 0.  1.
         -6    1    1    2    0  501 -0.12934450555E+02 -0.14351232301E+03 -0.27916843118E+02  0.22611155874E+03  0.17200000000E+03 0. -1.
<mgrwt>
<rscale>  2 0.22438157E+03</rscale>
<asrwt>0</asrwt>
<pdfrwt beam="1">  1        2 0.31298159E-01 0.22438157E+03</pdfrwt>
<pdfrwt beam="2">  1       -2 0.15233831E+00 0.22438157E+03</pdfrwt>
<totfact> 0.51679386E+01</totfact>
</mgrwt>
</event>
<event>
 4    1  0.3889096E-001  0.2701061E+03  0.7546771E-02  0.1101219E+00
         -1   -1    0    0    0  501 -0.00000000000E+00  0.00000000000E+00  0.47162616714E+03  0.47162616714E+03  0.00000000000E+00 0. -1.
          1   -1    0    0  502    0  0.00000000000E+00 -0.00000000000E+00 -0.16135996384E+03  0.16135996384E+03  0.00000000000E+00 0.  1.
          6    1    1    2  502    0 -0.20826226377E+03  0.39944907352E+00  0.90801261144E+02  0.28495999561E+03  0.17200000000E+03 0.  1.
         -6    1    1    2    0  501  0.20826226377E+03 -0.39944907352E+00  0.21946494216E+03  0.34802613538E+03  0.17200000000E+03 0. -1.
<mgrwt>
<rscale>  2 0.27010615E+03</rscale>
<asrwt>0</asrwt>
<pdfrwt beam="1">  1        1 0.40339992E-01 0.27010615E+03</pdfrwt>
<pdfrwt beam="2">  1       -1 0.11790654E+00 0.27010615E+03</pdfrwt>
<totfact> 0.72416430E+01</totfact>
</mgrwt>
</event>
<event>
 4    1  0.3889096E-001  0.1747884E+03  0.7546771E-02  0.1172944E+00
         -1   -1    0    0    0  501 -0.00000000000E+00  0.00000000000E+00  0.11174973621E+04  0.11174973621E+04  0.00000000000E+00 0. -1.
          1   -1    0    0  502    0  0.00000000000E+00 -0.00000000000E+00 -0.53633474701E+02  0.53633474701E+02  0.00000000000E+00 0.  1.
          6    1    1    2  502    0  0.26497584430E+02  0.16275126880E+02  0.94193926778E+03  0.95801909475E+03  0.17200000000E+03 0. -1.
         -6    1    1    2    0  501 -0.26497584430E+02 -0.16275126880E+02  0.12192461967E+03  0.21311174209E+03  0.17200000000E+03 0.  1.
<mgrwt>
<rscale>  2 0.17478845E+03</rscale>
<asrwt>0</asrwt>
<pdfrwt beam="1">  1        1 0.13408372E-01 0.17478845E+03</pdfrwt>
<pdfrwt beam="2">  1       -1 0.27937426E+00 0.17478845E+03</pdfrwt>
<totfact> 0.23252624E+01</totfact>
</mgrwt>
</event>
<event>
 4    1  0.3889096E-001  0.1888098E+03  0.7546771E-02  0.1159539E+00
          2   -1    0    0  502    0  0.00000000000E+00  0.00000000000E+00  0.18174850598E+04  0.18174850598E+04  0.00000000000E+00 0. -1.
         -2   -1    0    0    0  501 -0.00000000000E+00 -0.00000000000E+00 -0.19620912922E+02  0.19620912922E+02  0.00000000000E+00 0.  1.
          6    1    1    2  502    0 -0.48703964009E+02 -0.60770597367E+02  0.91548062348E+03  0.93474804819E+03  0.17200000000E+03 0.  1.
         -6    1    1    2    0  501  0.48703964009E+02  0.60770597367E+02  0.88238352343E+03  0.90235792457E+03  0.17200000000E+03 0.  1.
<mgrwt>
<rscale>  2 0.18880980E+03</rscale>
<asrwt>0</asrwt>
<pdfrwt beam="1">  1        2 0.45437069E+00 0.18880980E+03</pdfrwt>
<pdfrwt beam="2">  1       -2 0.49052344E-02 0.18880980E+03</pdfrwt>
<totfact> 0.45851709E+02</totfact>
</mgrwt>
</event>
<event>
 4    1  0.3889096E-001  0.1819132E+03  0.7546771E-02  0.1165964E+00
          3   -1    0    0  502    0  0.00000000000E+00  0.00000000000E+00  0.54801360030E+03  0.54801360030E+03  0.00000000000E+00 0. -1.
         -3   -1    0    0    0  501 -0.00000000000E+00 -0.00000000000E+00 -0.76076375099E+02  0.76076375099E+02  0.00000000000E+00 0.  1.
          6    1    1    2  502    0 -0.50348397827E+02 -0.31200256749E+02  0.37768081687E+03  0.41920784417E+03  0.17200000000E+03 0. -1.
         -6    1    1    2    0  501  0.50348397827E+02  0.31200256749E+02  0.94256408336E+02  0.20488213123E+03  0.17200000000E+03 0.  1.
<mgrwt>
<rscale>  2 0.18191321E+03</rscale>
<asrwt>0</asrwt>
<pdfrwt beam="1">  1        3 0.13700339E+00 0.18191321E+03</pdfrwt>
<pdfrwt beam="2">  1       -3 0.19019095E-01 0.18191321E+03</pdfrwt>
<totfact> 0.25657057E+01</totfact>
</mgrwt>
</event>
<event>
 4    1  0.3889096E-001  0.2503755E+03  0.7546771E-02  0.1113068E+00
          2   -1    0    0  502    0  0.00000000000E+00  0.00000000000E+00  0.27244837564E+03  0.27244837564E+03  0.00000000000E+00 0.  1.
         -2   -1    0    0    0  501 -0.00000000000E+00 -0.00000000000E+00 -0.31495762979E+03  0.31495762979E+03  0.00000000000E+00 0. -1.
          6    1    1    2  502    0  0.40390702931E+02  0.17740489640E+03  0.13120361941E+03  0.28266994162E+03  0.17200000000E+03 0.  1.
         -6    1    1    2    0  501 -0.40390702931E+02 -0.17740489640E+03 -0.17371287355E+03  0.30473606381E+03  0.17200000000E+03 0. -1.
<mgrwt>
<rscale>  2 0.25037553E+03</rscale>
<asrwt>0</asrwt>
<pdfrwt beam="1">  1        2 0.68112094E-01 0.25037553E+03</pdfrwt>
<pdfrwt beam="2">  1       -2 0.78739407E-01 0.25037553E+03</pdfrwt>
<totfact> 0.10665867E+02</totfact>
</mgrwt>
</event>
<event>
 4    1  0.3889096E-001  0.2346123E+03  0.7546771E-02  0.1123435E+00
          2   -1    0    0  502    0  0.00000000000E+00  0.00000000000E+00  0.28215040238E+03  0.28215040238E+03  0.00000000000E+00 0.  1.
         -2   -1    0    0    0  501 -0.00000000000E+00 -0.00000000000E+00 -0.19525123881E+03  0.19525123881E+03  0.00000000000E+00 0. -1.
          6    1    1    2  502    0 -0.15911217763E+03  0.11926211403E+02  0.36455528836E+02  0.23742772620E+03  0.17200000000E+03 0.  1.
         -6    1    1    2    0  501  0.15911217763E+03 -0.11926211403E+02  0.50443634735E+02  0.23997391498E+03  0.17200000000E+03 0.  1.
<mgrwt>
<rscale>  2 0.23461228E+03</rscale>
<asrwt>0</asrwt>
<pdfrwt beam="1">  1        2 0.70537600E-01 0.23461228E+03</pdfrwt>
<pdfrwt beam="2">  1       -2 0.48812810E-01 0.23461228E+03</pdfrwt>
<totfact> 0.27942884E+02</totfact>
</mgrwt>
</event>
<event>
 4    1  0.3889096E-001  0.1781626E+03  0.7546771E-02  0.1169593E+00
         -2   -1    0    0    0  501 -0.00000000000E+00  0.00000000000E+00  0.19617168914E+03  0.19617168914E+03  0.00000000000E+00 0.  1.
          2   -1    0    0  502    0  0.00000000000E+00 -0.00000000000E+00 -0.18512240745E+03  0.18512240745E+03  0.00000000000E+00 0. -1.
          6    1    1    2  502    0  0.46398048002E+02  0.22652627677E+01  0.73183411197E+02  0.19260768922E+03  0.17200000000E+03 0.  1.
         -6    1    1    2    0  501 -0.46398048002E+02 -0.22652627677E+01 -0.62134129517E+02  0.18868640737E+03  0.17200000000E+03 0. -1.
<mgrwt>
<rscale>  2 0.17816260E+03</rscale>
<asrwt>0</asrwt>
<pdfrwt beam="1">  1        2 0.46280602E-01 0.17816260E+03</pdfrwt>
<pdfrwt beam="2">  1       -2 0.49042922E-01 0.17816260E+03</pdfrwt>
<totfact> 0.43765516E+02</totfact>
</mgrwt>
</event>
<event>
 4    1  0.3889096E-001  0.2110748E+03  0.7546771E-02  0.1140718E+00
          1   -1    0    0  502    0  0.00000000000E+00  0.00000000000E+00  0.99473159692E+02  0.99473159692E+02  0.00000000000E+00 0. -1.
         -1   -1    0    0    0  501 -0.00000000000E+00 -0.00000000000E+00 -0.46949634311E+03  0.46949634311E+03  0.00000000000E+00 0.  1.
          6    1    1    2  502    0 -0.11968272031E+03 -0.25389381234E+02 -0.12397645561E+03  0.24479120852E+03  0.17200000000E+03 0.  1.
         -6    1    1    2    0  501  0.11968272031E+03  0.25389381234E+02 -0.24604672780E+03  0.32417829428E+03  0.17200000000E+03 0. -1.
<mgrwt>
<rscale>  2 0.21107481E+03</rscale>
<asrwt>0</asrwt>
<pdfrwt beam="1">  1        1 0.24868290E-01 0.21107481E+03</pdfrwt>
<pdfrwt beam="2">  1       -1 0.11737408E+00 0.21107481E+03</pdfrwt>
<totfact> 0.13621545E+02</totfact>
</mgrwt>
</event>
<event>
 4    1  0.3889096E-001  0.1854074E+03  0.7546771E-02  0.1162670E+00
          1   -1    0    0  502    0  0.00000000000E+00  0.00000000000E+00  0.59359119164E+03  0.59359119164E+03  0.00000000000E+00 0.  1.
         -1   -1    0    0    0  501 -0.00000000000E+00 -0.00000000000E+00 -0.90071354603E+02  0.90071354603E+02  0.00000000000E+00 0. -1.
          6    1    1    2  502    0 -0.54919086858E+02 -0.42140308312E+02  0.47504438994E+02  0.19139640386E+03  0.17200000000E+03 0. -1.
         -6    1    1    2    0  501  0.54919086858E+02  0.42140308312E+02  0.45601539804E+03  0.49226614238E+03  0.17200000000E+03 0.  1.
<mgrwt>
<rscale>  2 0.18540742E+03</rscale>
<asrwt>0</asrwt>
<pdfrwt beam="1">  1        1 0.14839779E+00 0.18540742E+03</pdfrwt>
<pdfrwt beam="2">  1       -1 0.22517840E-01 0.18540742E+03</pdfrwt>
<totfact> 0.28815886E+02</totfact>
</mgrwt>
</event>
<event>
 4    1  0.3889096E-001  0.2463376E+03  0.7546771E-02  0.1115641E+00
          2   -1    0    0  502    0  0.00000000000E+00  0.00000000000E+00  0.10618357242E+04  0.10618357242E+04  0.00000000000E+00 0. -1.
         -2   -1    0    0    0  501 -0.00000000000E+00 -0.00000000000E+00 -0.58254588137E+02  0.58254588137E+02  0.00000000000E+00 0.  1.
          6    1    1    2  502    0 -0.54817566222E+01 -0.17626166481E+03  0.42461668333E+03  0.49089871857E+03  0.17200000000E+03 0. -1.
         -6    1    1    2    0  501  0.54817566222E+01  0.17626166481E+03  0.57896445278E+03  0.62919159381E+03  0.17200000000E+03 0.  1.
<mgrwt>
<rscale>  2 0.24633762E+03</rscale>
<asrwt>0</asrwt>
<pdfrwt beam="1">  1        2 0.26545887E+00 0.24633762E+03</pdfrwt>
<pdfrwt beam="2">  1       -2 0.14563650E-01 0.24633762E+03</pdfrwt>
<totfact> 0.37576716E+02</totfact>
</mgrwt>
</event>
<event>
 4    1  0.3889096E-001  0.1811170E+03  0.7546771E-02  0.1166726E+00
         -1   -1    0    0    0  501 -0.00000000000E+00  0.00000000000E+00  0.49805419782E+02  0.49805419782E+02  0.00000000000E+00 0.  1.
          1   -1    0    0  502    0  0.00000000000E+00 -0.00000000000E+00 -0.74593789961E+03  0.74593789961E+03  0.00000000000E+00 0. -1.
          6    1    1    2  502    0 -0.55594908621E+02 -0.11339577638E+02 -0.21194790477E+03  0.27879256486E+03  0.17200000000E+03 0.  1.
         -6    1    1    2    0  501  0.55594908621E+02  0.11339577638E+02 -0.48418457505E+03  0.51695075452E+03  0.17200000000E+03 0. -1.
<mgrwt>
<rscale>  2 0.18111703E+03</rscale>
<asrwt>0</asrwt>
<pdfrwt beam="1">  1        1 0.18648447E+00 0.18111703E+03</pdfrwt>
<pdfrwt beam="2">  1       -1 0.12451355E-01 0.18111703E+03</pdfrwt>
<totfact> 0.49267894E+02</totfact>
</mgrwt>
</event>
<event>
 4    1  0.3889096E-001  0.2041125E+03  0.7546771E-02  0.1146315E+00
          1   -1    0    0  502    0  0.00000000000E+00  0.00000000000E+00  0.14248300080E+03  0.14248300080E+03  0.00000000000E+00 0.  1.
         -1   -1    0    0    0  501 -0.00000000000E+00 -0.00000000000E+00 -0.38323553972E+03  0.38323553972E+03  0.00000000000E+00 0. -1.
          6    1    1    2  502    0 -0.94224396685E+02 -0.56565646065E+02  0.75973126351E+01  0.20425383327E+03  0.17200000000E+03 0.  1.
         -6    1    1    2    0  501  0.94224396685E+02  0.56565646065E+02 -0.24834985155E+03  0.32146470726E+03  0.17200000000E+03 0. -1.
<mgrwt>
<rscale>  2 0.20411249E+03</rscale>
<asrwt>0</asrwt>
<pdfrwt beam="1">  1        1 0.35620750E-01 0.20411249E+03</pdfrwt>
<pdfrwt beam="2">  1       -1 0.95808884E-01 0.20411249E+03</pdfrwt>
<totfact> 0.13736940E+02</totfact>
</mgrwt>
</event>
<event>
 4    1  0.3889096E-001  0.1728231E+03  0.7546771E-02  0.1174935E+00
         -2   -1    0    0    0  501 -0.00000000000E+00  0.00000000000E+00  0.21825738469E+03  0.21825738469E+03  0.00000000000E+00 0.  1.
          2   -1    0    0  502    0  0.00000000000E+00 -0.00000000000E+00 -0.14351024766E+03  0.14351024766E+03  0.00000000000E+00 0. -1.
          6    1    1    2  502    0 -0.81574671587E+01 -0.14740317938E+02 -0.16034183111E+01  0.17283053027E+03  0.17200000000E+03 0. -1.
         -6    1    1    2    0  501  0.81574671587E+01  0.14740317938E+02  0.76350555344E+02  0.18893710209E+03  0.17200000000E+03 0.  1.
<mgrwt>
<rscale>  2 0.17282309E+03</rscale>
<asrwt>0</asrwt>
<pdfrwt beam="1">  1        2 0.35877562E-01 0.17282309E+03</pdfrwt>
<pdfrwt beam="2">  1       -2 0.54564346E-01 0.17282309E+03</pdfrwt>
<totfact> 0.46436761E+02</totfact>
</mgrwt>
</event>
<event>
 4    1  0.3889096E-001  0.3813026E+03  0.7546771E-02  0.1050453E+00
         -2   -1    0    0    0  501 -0.00000000000E+00  0.00000000000E+00  0.10241022680E+03  0.10241022680E+03  0.00000000000E+00 0. -1.
          2   -1    0    0  502    0  0.00000000000E+00 -0.00000000000E+00 -0.25060254275E+04  0.25060254275E+04  0.00000000000E+00 0.  1.
          6    1    1    2  502    0 -0.23881372137E+02 -0.33946623943E+03 -0.34311511252E+03  0.51295187697E+03  0.17200000000E+03 0.  1.
         -6    1    1    2    0  501  0.23881372137E+02  0.33946623943E+03 -0.20605000881E+04  0.20954837773E+04  0.17200000000E+03 0. -1.
<mgrwt>
<rscale>  2 0.38130257E+03</rscale>
<asrwt>0</asrwt>
<pdfrwt beam="1">  1        2 0.62650634E+00 0.38130257E+03</pdfrwt>
<pdfrwt beam="2">  1       -2 0.25602557E-01 0.38130257E+03</pdfrwt>
<totfact> 0.50945350E+00</totfact>
</mgrwt>
</event>
<event>
 4    1  0.3889096E-001  0.1938352E+03  0.7546771E-02  0.1155047E+00
          2   -1    0    0  502    0  0.00000000000E+00  0.00000000000E+00  0.67965830609E+03  0.67965830609E+03  0.00000000000E+00 0. -1.
         -2   -1    0    0    0  501 -0.00000000000E+00 -0.00000000000E+00 -0.55563752189E+02  0.55563752189E+02  0.00000000000E+00 0.  1.
          6    1    1    2  502    0 -0.88207101482E+01  0.88939716536E+02  0.33827877302E+03  0.38987768131E+03  0.17200000000E+03 0.  1.
         -6    1    1    2    0  501  0.88207101482E+01 -0.88939716536E+02  0.28581578088E+03  0.34534437697E+03  0.17200000000E+03 0.  1.
<mgrwt>
<rscale>  2 0.19383518E+03</rscale>
<asrwt>0</asrwt>
<pdfrwt beam="1">  1        2 0.16991455E+00 0.19383518E+03</pdfrwt>
<pdfrwt beam="2">  1       -2 0.13890940E-01 0.19383518E+03</pdfrwt>
<totfact> 0.88911184E+02</totfact>
</mgrwt>
</event>
<event>
 4    1  0.3889096E-001  0.1883030E+03  0.7546771E-02  0.1160001E+00
         -1   -1    0    0    0  501 -0.00000000000E+00  0.00000000000E+00  0.16212938439E+03  0.16212938439E+03  0.00000000000E+00 0.  1.
          1   -1    0    0  502    0  0.00000000000E+00 -0.00000000000E+00 -0.22827370714E+03  0.22827370714E+03  0.00000000000E+00 0. -1.
          6    1    1    2  502    0  0.26654571154E+02  0.71857931774E+02  0.68991965488E+01  0.18842936988E+03  0.17200000000E+03 0.  1.
         -6    1    1    2    0  501 -0.26654571154E+02 -0.71857931774E+02 -0.73043519294E+02  0.20197372164E+03  0.17200000000E+03 0. -1.
<mgrwt>
<rscale>  2 0.18830302E+03</rscale>
<asrwt>0</asrwt>
<pdfrwt beam="1">  1        1 0.57068426E-01 0.18830302E+03</pdfrwt>
<pdfrwt beam="2">  1       -1 0.40532347E-01 0.18830302E+03</pdfrwt>
<totfact> 0.40712006E+02</totfact>
</mgrwt>
</event>
<event>
 4    1  0.3889096E-001  0.1970991E+03  0.7546771E-02  0.1152210E+00
          2   -1    0    0  502    0  0.00000000000E+00  0.00000000000E+00  0.72080032250E+03  0.72080032250E+03  0.00000000000E+00 0.  1.
         -2   -1    0    0    0  501 -0.00000000000E+00 -0.00000000000E+00 -0.75210993445E+02  0.75210993445E+02  0.00000000000E+00 0. -1.
          6    1    1    2  502    0 -0.37028457124E+01  0.96178763034E+02  0.53467656098E+03  0.56984830472E+03  0.17200000000E+03 0.  1.
         -6    1    1    2    0  501  0.37028457124E+01 -0.96178763034E+02  0.11091276807E+03  0.22616301122E+03  0.17200000000E+03 0. -1.
<mgrwt>
<rscale>  2 0.19709913E+03</rscale>
<asrwt>0</asrwt>
<pdfrwt beam="1">  1        2 0.18020006E+00 0.19709913E+03</pdfrwt>
<pdfrwt beam="2">  1       -2 0.18802751E-01 0.19709913E+03</pdfrwt>
<totfact> 0.49197478E+02</totfact>
</mgrwt>
</event>
<event>
 4    1  0.3889096E-001  0.1872411E+03  0.7546771E-02  0.1160973E+00
         -1   -1    0    0    0  501 -0.00000000000E+00  0.00000000000E+00  0.66285630367E+02  0.66285630367E+02  0.00000000000E+00 0. -1.
          1   -1    0    0  502    0  0.00000000000E+00 -0.00000000000E+00 -0.54459144136E+03  0.54459144136E+03  0.00000000000E+00 0.  1.
          6    1    1    2  502    0 -0.38480434684E+02  0.63202090804E+02 -0.18732575779E+03  0.26485880704E+03  0.17200000000E+03 0. -1.
         -6    1    1    2    0  501  0.38480434684E+02 -0.63202090804E+02 -0.29098005321E+03  0.34601826469E+03  0.17200000000E+03 0.  1.
<mgrwt>
<rscale>  2 0.18724115E+03</rscale>
<asrwt>0</asrwt>
<pdfrwt beam="1">  1        1 0.13614786E+00 0.18724115E+03</pdfrwt>
<pdfrwt beam="2">  1       -1 0.16571408E-01 0.18724115E+03</pdfrwt>
<totfact> 0.54389873E+02</totfact>
</mgrwt>
</event>
<event>
 4    1  0.3889096E-001  0.2689892E+03  0.7546771E-02  0.1101859E+00
          1   -1    0    0  502    0  0.00000000000E+00  0.00000000000E+00  0.78042335858E+03  0.78042335858E+03  0.00000000000E+00 0.  1.
         -1   -1    0    0    0  501 -0.00000000000E+00 -0.00000000000E+00 -0.11032327818E+03  0.11032327818E+03  0.00000000000E+00 0. -1.
          6    1    1    2  502    0  0.37618569808E+02 -0.20336185957E+03  0.15710876567E+03  0.31150981842E+03  0.17200000000E+03 0. -1.
         -6    1    1    2    0  501 -0.37618569808E+02  0.20336185957E+03  0.51299131473E+03  0.57923681833E+03  0.17200000000E+03 0.  1.
<mgrwt>
<rscale>  2 0.26898922E+03</rscale>
<asrwt>0</asrwt>
<pdfrwt beam="1">  1        1 0.19510582E+00 0.26898922E+03</pdfrwt>
<pdfrwt beam="2">  1       -1 0.27580822E-01 0.26898922E+03</pdfrwt>
<totfact> 0.12243646E+02</totfact>
</mgrwt>
</event>
<event>
 4    1  0.3889096E-001  0.3160531E+03  0.7546771E-02  0.1077480E+00
         -2   -1    0    0    0  501 -0.00000000000E+00  0.00000000000E+00  0.97323451827E+02  0.97323451827E+02  0.00000000000E+00 0. -1.
          2   -1    0    0  502    0  0.00000000000E+00 -0.00000000000E+00 -0.10728605835E+04  0.10728605835E+04  0.00000000000E+00 0.  1.
          6    1    1    2  502    0  0.26287636095E+03  0.34664192017E+02 -0.36596818364E+03  0.48355175399E+03  0.17200000000E+03 0.  1.
         -6    1    1    2    0  501 -0.26287636095E+03 -0.34664192017E+02 -0.60956894799E+03  0.68663228129E+03  0.17200000000E+03 0. -1.
<mgrwt>
<rscale>  2 0.31605314E+03</rscale>
<asrwt>0</asrwt>
<pdfrwt beam="1">  1        2 0.26821514E+00 0.31605314E+03</pdfrwt>
<pdfrwt beam="2">  1       -2 0.24330863E-01 0.31605314E+03</pdfrwt>
<totfact> 0.15096597E+02</totfact>
</mgrwt>
</event>
<event>
 4    1  0.3889096E-001  0.1850400E+03  0.7546771E-02  0.1163013E+00
         -2   -1    0    0    0  501 -0.00000000000E+00  0.00000000000E+00  0.24574566693E+02  0.24574566693E+02  0.00000000000E+00 0. -1.
          2   -1    0    0  502    0  0.00000000000E+00 -0.00000000000E+00 -0.13935295611E+04  0.13935295611E+04  0.00000000000E+00 0.  1.
          6    1    1    2  502    0  0.48147574708E+02  0.48348990996E+02 -0.69352135429E+03  0.71778247592E+03  0.17200000000E+03 0. -1.
         -6    1    1    2    0  501 -0.48147574708E+02 -0.48348990996E+02 -0.67543364011E+03  0.70032165187E+03  0.17200000000E+03 0. -1.
<mgrwt>
<rscale>  2 0.18504003E+03</rscale>
<asrwt>0</asrwt>
<pdfrwt beam="1">  1        2 0.34838238E+00 0.18504003E+03</pdfrwt>
<pdfrwt beam="2">  1       -2 0.61436418E-02 0.18504003E+03</pdfrwt>
<totfact> 0.78025747E+02</totfact>
</mgrwt>
</event>
<event>
 4    1  0.3889096E-001  0.1795092E+03  0.7546771E-02  0.1168279E+00
         -2   -1    0    0    0  501 -0.00000000000E+00  0.00000000000E+00  0.34202118094E+02  0.34202118094E+02  0.00000000000E+00 0.  1.
          2   -1    0    0  502    0  0.00000000000E+00 -0.00000000000E+00 -0.14605777020E+04  0.14605777020E+04  0.00000000000E+00 0. -1.
          6    1    1    2  502    0  0.19310281966E+02 -0.47609643811E+02 -0.11584629969E+04  0.11722883947E+04  0.17200000000E+03 0. -1.
         -6    1    1    2    0  501 -0.19310281966E+02  0.47609643811E+02 -0.26791258701E+03  0.32249142539E+03  0.17200000000E+03 0.  1.
<mgrwt>
<rscale>  2 0.17950923E+03</rscale>
<asrwt>0</asrwt>
<pdfrwt beam="1">  1        2 0.36514443E+00 0.17950923E+03</pdfrwt>
<pdfrwt beam="2">  1       -2 0.85505295E-02 0.17950923E+03</pdfrwt>
<totfact> 0.41052753E+02</totfact>
</mgrwt>
</event>
<event>
 4    1  0.3889096E-001  0.1821331E+03  0.7546771E-02  0.1165754E+00
         -2   -1    0    0    0  501 -0.00000000000E+00  0.00000000000E+00  0.56075566520E+03  0.56075566520E+03  0.00000000000E+00 0. -1.
          2   -1    0    0  502    0  0.00000000000E+00 -0.00000000000E+00 -0.69726927569E+02  0.69726927569E+02  0.00000000000E+00 0.  1.
          6    1    1    2  502    0 -0.56180207393E+02 -0.20790458495E+02  0.36825401157E+03  0.41083266168E+03  0.17200000000E+03 0. -1.
         -6    1    1    2    0  501  0.56180207393E+02  0.20790458495E+02  0.12277472606E+03  0.21964993109E+03  0.17200000000E+03 0.  1.
<mgrwt>
<rscale>  2 0.18213308E+03</rscale>
<asrwt>0</asrwt>
<pdfrwt beam="1">  1        2 0.17431734E-01 0.18213308E+03</pdfrwt>
<pdfrwt beam="2">  1       -2 0.14018890E+00 0.18213308E+03</pdfrwt>
<totfact> 0.12404854E+02</totfact>
</mgrwt>
</event>
<event>
 4    1  0.3889096E-001  0.2171682E+03  0.7546771E-02  0.1136012E+00
          1   -1    0    0  502    0  0.00000000000E+00  0.00000000000E+00  0.72334773903E+03  0.72334773903E+03  0.00000000000E+00 0. -1.
         -1   -1    0    0    0  501 -0.00000000000E+00 -0.00000000000E+00 -0.11159560626E+03  0.11159560626E+03  0.00000000000E+00 0.  1.
          6    1    1    2  502    0 -0.73357963824E+02  0.11043846359E+03  0.36695710499E+02  0.22024672589E+03  0.17200000000E+03 0.  1.
         -6    1    1    2    0  501  0.73357963824E+02 -0.11043846359E+03  0.57505642227E+03  0.61469661939E+03  0.17200000000E+03 0. -1.
<mgrwt>
<rscale>  2 0.21716824E+03</rscale>
<asrwt>0</asrwt>
<pdfrwt beam="1">  1        1 0.18083692E+00 0.21716824E+03</pdfrwt>
<pdfrwt beam="2">  1       -1 0.27898904E-01 0.21716824E+03</pdfrwt>
<totfact> 0.14107412E+02</totfact>
</mgrwt>
</event>
<event>
 4    1  0.3889096E-001  0.2219094E+03  0.7546771E-02  0.1132467E+00
          1   -1    0    0  502    0  0.00000000000E+00  0.00000000000E+00  0.83400491266E+02  0.83400491266E+02  0.00000000000E+00 0. -1.
         -1   -1    0    0    0  501 -0.00000000000E+00 -0.00000000000E+00 -0.65779293491E+03  0.65779293491E+03  0.00000000000E+00 0.  1.
          6    1    1    2  502    0 -0.52546175330E+02  0.12999488170E+03 -0.16861800263E+03  0.27870378652E+03  0.17200000000E+03 0. -1.
         -6    1    1    2    0  501  0.52546175330E+02 -0.12999488170E+03 -0.40577444102E+03  0.46248963966E+03  0.17200000000E+03 0.  1.
<mgrwt>
<rscale>  2 0.22190937E+03</rscale>
<asrwt>0</asrwt>
<pdfrwt beam="1">  1        1 0.20850123E-01 0.22190937E+03</pdfrwt>
<pdfrwt beam="2">  1       -1 0.16444823E+00 0.22190937E+03</pdfrwt>
<totfact> 0.72468814E+01</totfact>
</mgrwt>
</event>
<event>
 4    1  0.3889096E-001  0.2313166E+03  0.7546771E-02  0.1125717E+00
         -2   -1    0    0    0  501 -0.00000000000E+00  0.00000000000E+00  0.48486034863E+02  0.48486034863E+02  0.00000000000E+00 0.  1.
          2   -1    0    0  502    0  0.00000000000E+00 -0.00000000000E+00 -0.11035687817E+04  0.11035687817E+04  0.00000000000E+00 0. -1.
          6    1    1    2  502    0 -0.40304644043E+02  0.14932813740E+03 -0.52613827634E+03  0.57474241428E+03  0.17200000000E+03 0.  1.
         -6    1    1    2    0  501  0.40304644043E+02 -0.14932813740E+03 -0.52894447051E+03  0.57731240229E+03  0.17200000000E+03 0. -1.
<mgrwt>
<rscale>  2 0.23131657E+03</rscale>
<asrwt>0</asrwt>
<pdfrwt beam="1">  1        2 0.27589219E+00 0.23131657E+03</pdfrwt>
<pdfrwt beam="2">  1       -2 0.12121509E-01 0.23131657E+03</pdfrwt>
<totfact> 0.46871207E+02</totfact>
</mgrwt>
</event>
<event>
 4    1  0.3889096E-001  0.1762425E+03  0.7546771E-02  0.1171490E+00
          2   -1    0    0  502    0  0.00000000000E+00  0.00000000000E+00  0.53385568663E+03  0.53385568663E+03  0.00000000000E+00 0.  1.
         -2   -1    0    0    0  501 -0.00000000000E+00 -0.00000000000E+00 -0.67671694174E+02  0.67671694174E+02  0.00000000000E+00 0. -1.
          6    1    1    2  502    0  0.37190802748E+02  0.97093286577E+01  0.34571335319E+03  0.38804529304E+03  0.17200000000E+03 0. -1.
         -6    1    1    2    0  501 -0.37190802748E+02 -0.97093286577E+01  0.12047063926E+03  0.21348208776E+03  0.17200000000E+03 0. -1.
<mgrwt>
<rscale>  2 0.17624252E+03</rscale>
<asrwt>0</asrwt>
<pdfrwt beam="1">  1        2 0.13346391E+00 0.17624252E+03</pdfrwt>
<pdfrwt beam="2">  1       -2 0.16917925E-01 0.17624252E+03</pdfrwt>
<totfact> 0.89726819E+02</totfact>
</mgrwt>
</event>
<event>
 4    1  0.3889096E-001  0.2051557E+03  0.7546771E-02  0.1145461E+00
          2   -1    0    0  502    0  0.00000000000E+00  0.00000000000E+00  0.11372205970E+04  0.11372205970E+04  0.00000000000E+00 0.  1.
         -2   -1    0    0    0  501 -0.00000000000E+00 -0.00000000000E+00 -0.41625777845E+02  0.41625777845E+02  0.00000000000E+00 0. -1.
          6    1    1    2  502    0  0.87771711110E+01 -0.11148005784E+03  0.35152658184E+03  0.40701324275E+03  0.17200000000E+03 0. -1.
         -6    1    1    2    0  501 -0.87771711110E+01  0.11148005784E+03  0.74406823730E+03  0.77183313209E+03  0.17200000000E+03 0.  1.
<mgrwt>
<rscale>  2 0.20515565E+03</rscale>
<asrwt>0</asrwt>
<pdfrwt beam="1">  1        2 0.28430505E+00 0.20515565E+03</pdfrwt>
<pdfrwt beam="2">  1       -2 0.10406448E-01 0.20515565E+03</pdfrwt>
<totfact> 0.56355360E+02</totfact>
</mgrwt>
</event>
<event>
 4    1  0.3889096E-001  0.1738065E+03  0.7546771E-02  0.1173935E+00
          2   -1    0    0  502    0  0.00000000000E+00  0.00000000000E+00  0.12675245630E+04  0.12675245630E+04  0.00000000000E+00 0. -1.
         -2   -1    0    0    0  501 -0.00000000000E+00 -0.00000000000E+00 -0.25836999361E+02  0.25836999361E+02  0.00000000000E+00 0.  1.
          6    1    1    2  502    0  0.12680520677E+02 -0.21538240467E+02  0.80095329032E+03  0.81959432934E+03  0.17200000000E+03 0. -1.
         -6    1    1    2    0  501 -0.12680520677E+02  0.21538240467E+02  0.44073427330E+03  0.47376723300E+03  0.17200000000E+03 0.  1.
<mgrwt>
<rscale>  2 0.17380648E+03</rscale>
<asrwt>0</asrwt>
<pdfrwt beam="1">  1        2 0.31688093E+00 0.17380648E+03</pdfrwt>
<pdfrwt beam="2">  1       -2 0.64592541E-02 0.17380648E+03</pdfrwt>
<totfact> 0.92664511E+02</totfact>
</mgrwt>
</event>
<event>
 4    1  0.3889096E-001  0.1826560E+03  0.7546771E-02  0.1165257E+00
          1   -1    0    0  502    0  0.00000000000E+00  0.00000000000E+00  0.18518926959E+04  0.18518926959E+04  0.00000000000E+00 0.  1.
         -1   -1    0    0    0  501 -0.00000000000E+00 -0.00000000000E+00 -0.18136066969E+02  0.18136066969E+02  0.00000000000E+00 0. -1.
          6    1    1    2  502    0  0.16226396573E+01 -0.61453871404E+02  0.84071705523E+03  0.86033038900E+03  0.17200000000E+03 0.  1.
         -6    1    1    2    0  501 -0.16226396573E+01  0.61453871404E+02  0.99303957369E+03  0.10096983739E+04  0.17200000000E+03 0.  1.
<mgrwt>
<rscale>  2 0.18265599E+03</rscale>
<asrwt>0</asrwt>
<pdfrwt beam="1">  1        1 0.46297253E+00 0.18265599E+03</pdfrwt>
<pdfrwt beam="2">  1       -1 0.45340230E-02 0.18265599E+03</pdfrwt>
<totfact> 0.14970308E+02</totfact>
</mgrwt>
</event>
<event>
 4    1  0.3889096E-001  0.2824155E+03  0.7546771E-02  0.1094377E+00
         -1   -1    0    0    0  501 -0.00000000000E+00  0.00000000000E+00  0.25662411537E+03  0.25662411537E+03  0.00000000000E+00 0. -1.
          1   -1    0    0  502    0  0.00000000000E+00 -0.00000000000E+00 -0.32862539692E+03  0.32862539692E+03  0.00000000000E+00 0.  1.
          6    1    1    2  502    0  0.21984806456E+03 -0.42910897033E+02 -0.10415480200E+03  0.30100953366E+03  0.17200000000E+03 0.  1.
         -6    1    1    2    0  501 -0.21984806456E+03  0.42910897033E+02  0.32153520451E+02  0.28423997863E+03  0.17200000000E+03 0. -1.
<mgrwt>
<rscale>  2 0.28241550E+03</rscale>
<asrwt>0</asrwt>
<pdfrwt beam="1">  1        1 0.82156349E-01 0.28241550E+03</pdfrwt>
<pdfrwt beam="2">  1       -1 0.64156029E-01 0.28241550E+03</pdfrwt>
<totfact> 0.10644426E+02</totfact>
</mgrwt>
</event>
<event>
 4    1  0.3889096E-001  0.2448312E+03  0.7546771E-02  0.1116616E+00
          2   -1    0    0  502    0  0.00000000000E+00  0.00000000000E+00  0.74895403565E+03  0.74895403565E+03  0.00000000000E+00 0.  1.
         -2   -1    0    0    0  501 -0.00000000000E+00 -0.00000000000E+00 -0.91263472466E+02  0.91263472466E+02  0.00000000000E+00 0. -1.
          6    1    1    2  502    0  0.90947735547E+02  0.14861636638E+03  0.47620517195E+03  0.53545651621E+03  0.17200000000E+03 0.  1.
         -6    1    1    2    0  501 -0.90947735547E+02 -0.14861636638E+03  0.18148539124E+03  0.30476099191E+03  0.17200000000E+03 0. -1.
<mgrwt>
<rscale>  2 0.24483120E+03</rscale>
<asrwt>0</asrwt>
<pdfrwt beam="1">  1        2 0.18723849E+00 0.24483120E+03</pdfrwt>
<pdfrwt beam="2">  1       -2 0.22815870E-01 0.24483120E+03</pdfrwt>
<totfact> 0.33010305E+02</totfact>
</mgrwt>
</event>
<event>
 4    1  0.3889096E-001  0.1961002E+03  0.7546771E-02  0.1153072E+00
          2   -1    0    0  502    0  0.00000000000E+00  0.00000000000E+00  0.59617755883E+03  0.59617755883E+03  0.00000000000E+00 0.  1.
         -2   -1    0    0    0  501 -0.00000000000E+00 -0.00000000000E+00 -0.74508710142E+02  0.74508710142E+02  0.00000000000E+00 0. -1.
          6    1    1    2  502    0  0.87079041049E+02 -0.35896009126E+02  0.38372210132E+03  0.43092683126E+03  0.17200000000E+03 0.  1.
         -6    1    1    2    0  501 -0.87079041049E+02  0.35896009126E+02  0.13794674737E+03  0.23975943771E+03  0.17200000000E+03 0. -1.
<mgrwt>
<rscale>  2 0.19610019E+03</rscale>
<asrwt>0</asrwt>
<pdfrwt beam="1">  1        2 0.14904438E+00 0.19610019E+03</pdfrwt>
<pdfrwt beam="2">  1       -2 0.18627179E-01 0.19610019E+03</pdfrwt>
<totfact> 0.65810327E+02</totfact>
</mgrwt>
</event>
<event>
 4    1  0.3889096E-001  0.1722080E+03  0.7546771E-02  0.1175565E+00
         -2   -1    0    0    0  501 -0.00000000000E+00  0.00000000000E+00  0.30299969456E+03  0.30299969456E+03  0.00000000000E+00 0. -1.
          2   -1    0    0  502    0  0.00000000000E+00 -0.00000000000E+00 -0.99296102478E+02  0.99296102478E+02  0.00000000000E+00 0.  1.
          6    1    1    2  502    0  0.26014687443E+01  0.80523009458E+01  0.12592910866E+03  0.21333951251E+03  0.17200000000E+03 0. -1.
         -6    1    1    2    0  501 -0.26014687443E+01 -0.80523009458E+01  0.77774483420E+02  0.18895628452E+03  0.17200000000E+03 0.  1.
<mgrwt>
<rscale>  2 0.17220803E+03</rscale>
<asrwt>0</asrwt>
<pdfrwt beam="1">  1        2 0.24824026E-01 0.17220803E+03</pdfrwt>
<pdfrwt beam="2">  1       -2 0.75749922E-01 0.17220803E+03</pdfrwt>
<totfact> 0.34928664E+02</totfact>
</mgrwt>
</event>
<event>
 4    1  0.3889096E-001  0.1740313E+03  0.7546771E-02  0.1173708E+00
          2   -1    0    0  502    0  0.00000000000E+00  0.00000000000E+00  0.98466790789E+02  0.98466790789E+02  0.00000000000E+00 0.  1.
         -2   -1    0    0    0  501 -0.00000000000E+00 -0.00000000000E+00 -0.39547493065E+03  0.39547493065E+03  0.00000000000E+00 0. -1.
          6    1    1    2  502    0 -0.23826132230E+02  0.11627524596E+02 -0.26493179122E+03  0.31697908118E+03  0.17200000000E+03 0. -1.
         -6    1    1    2    0  501  0.23826132230E+02 -0.11627524596E+02 -0.32076348639E+02  0.17696264026E+03  0.17200000000E+03 0.  1.
<mgrwt>
<rscale>  2 0.17403127E+03</rscale>
<asrwt>0</asrwt>
<pdfrwt beam="1">  1        2 0.24616698E-01 0.17403127E+03</pdfrwt>
<pdfrwt beam="2">  1       -2 0.98868732E-01 0.17403127E+03</pdfrwt>
<totfact> 0.19436684E+02</totfact>
</mgrwt>
</event>
<event>
 4    1  0.3889096E-001  0.1877483E+03  0.7546771E-02  0.1160508E+00
          2   -1    0    0  502    0  0.00000000000E+00  0.00000000000E+00  0.45365845395E+02  0.45365845395E+02  0.00000000000E+00 0. -1.
         -2   -1    0    0    0  501 -0.00000000000E+00 -0.00000000000E+00 -0.84250565496E+03  0.84250565496E+03  0.00000000000E+00 0.  1.
          6    1    1    2  502    0 -0.53808752116E+02  0.52631227745E+02 -0.52235289495E+03  0.55506934234E+03  0.17200000000E+03 0.  1.
         -6    1    1    2    0  501  0.53808752116E+02 -0.52631227745E+02 -0.27478691461E+03  0.33280215802E+03  0.17200000000E+03 0. -1.
<mgrwt>
<rscale>  2 0.18774831E+03</rscale>
<asrwt>0</asrwt>
<pdfrwt beam="1">  1        2 0.11341461E-01 0.18774831E+03</pdfrwt>
<pdfrwt beam="2">  1       -2 0.21062642E+00 0.18774831E+03</pdfrwt>
<totfact> 0.68460616E+01</totfact>
</mgrwt>
</event>
<event>
 4    1  0.3889096E-001  0.1872714E+03  0.7546771E-02  0.1160946E+00
         -2   -1    0    0    0  501 -0.00000000000E+00  0.00000000000E+00  0.15796003760E+03  0.15796003760E+03  0.00000000000E+00 0.  1.
          2   -1    0    0  502    0  0.00000000000E+00 -0.00000000000E+00 -0.27051811465E+03  0.27051811465E+03  0.00000000000E+00 0. -1.
          6    1    1    2  502    0  0.58717008682E+02 -0.45154201813E+02  0.34430799691E+02  0.19041026500E+03  0.17200000000E+03 0.  1.
         -6    1    1    2    0  501 -0.58717008682E+02  0.45154201813E+02 -0.14698887674E+03  0.23806788724E+03  0.17200000000E+03 0. -1.
<mgrwt>
<rscale>  2 0.18727143E+03</rscale>
<asrwt>0</asrwt>
<pdfrwt beam="1">  1        2 0.67629528E-01 0.18727143E+03</pdfrwt>
<pdfrwt beam="2">  1       -2 0.39490010E-01 0.18727143E+03</pdfrwt>
<totfact> 0.44286569E+02</totfact>
</mgrwt>
</event>
<event>
 4    1  0.3889096E-001  0.1808279E+03  0.7546771E-02  0.1167004E+00
          2   -1    0    0  502    0  0.00000000000E+00  0.00000000000E+00  0.68184088739E+03  0.68184088739E+03  0.00000000000E+00 0.  1.
         -2   -1    0    0    0  501 -0.00000000000E+00 -0.00000000000E+00 -0.56037748756E+02  0.56037748756E+02  0.00000000000E+00 0. -1.
          6    1    1    2  502    0  0.50962429901E+02  0.22750078827E+02  0.17279692089E+03  0.25011499599E+03  0.17200000000E+03 0. -1.
         -6    1    1    2    0  501 -0.50962429901E+02 -0.22750078827E+02  0.45300621775E+03  0.48776364016E+03  0.17200000000E+03 0.  1.
<mgrwt>
<rscale>  2 0.18082792E+03</rscale>
<asrwt>0</asrwt>
<pdfrwt beam="1">  1        2 0.17046020E+00 0.18082792E+03</pdfrwt>
<pdfrwt beam="2">  1       -2 0.14009439E-01 0.18082792E+03</pdfrwt>
<totfact> 0.87340816E+02</totfact>
</mgrwt>
</event>
<event>
 4    1  0.3889096E-001  0.2462867E+03  0.7546771E-02  0.1115674E+00
          2   -1    0    0  502    0  0.00000000000E+00  0.00000000000E+00  0.75574043001E+03  0.75574043001E+03  0.00000000000E+00 0.  1.
         -2   -1    0    0    0  501 -0.00000000000E+00 -0.00000000000E+00 -0.88214910245E+02  0.88214910245E+02  0.00000000000E+00 0. -1.
          6    1    1    2  502    0 -0.17595775535E+03 -0.10582398085E+02  0.46046544900E+03  0.52219301847E+03  0.17200000000E+03 0.  1.
         -6    1    1    2    0  501  0.17595775535E+03  0.10582398085E+02  0.20706007077E+03  0.32176232179E+03  0.17200000000E+03 0. -1.
<mgrwt>
<rscale>  2 0.24628666E+03</rscale>
<asrwt>0</asrwt>
<pdfrwt beam="1">  1        2 0.18893509E+00 0.24628666E+03</pdfrwt>
<pdfrwt beam="2">  1       -2 0.22053730E-01 0.24628666E+03</pdfrwt>
<totfact> 0.34515870E+02</totfact>
</mgrwt>
</event>
<event>
 4    1  0.3889096E-001  0.1721766E+03  0.7546771E-02  0.1175597E+00
          2   -1    0    0  502    0  0.00000000000E+00  0.00000000000E+00  0.28475478076E+03  0.28475478076E+03  0.00000000000E+00 0.  1.
         -2   -1    0    0    0  501 -0.00000000000E+00 -0.00000000000E+00 -0.15179183822E+03  0.15179183822E+03  0.00000000000E+00 0. -1.
          6    1    1    2  502    0 -0.56774513357E+01 -0.53414553863E+01  0.18882184421E+03  0.25553562070E+03  0.17200000000E+03 0.  1.
         -6    1    1    2    0  501  0.56774513357E+01  0.53414553863E+01 -0.55858901672E+02  0.18101099827E+03  0.17200000000E+03 0. -1.
<mgrwt>
<rscale>  2 0.17217655E+03</rscale>
<asrwt>0</asrwt>
<pdfrwt beam="1">  1        2 0.71188694E-01 0.17217655E+03</pdfrwt>
<pdfrwt beam="2">  1       -2 0.37947960E-01 0.17217655E+03</pdfrwt>
<totfact> 0.45166412E+02</totfact>
</mgrwt>
</event>
<event>
 4    1  0.3889096E-001  0.1907678E+03  0.7546771E-02  0.1157771E+00
          2   -1    0    0  502    0  0.00000000000E+00  0.00000000000E+00  0.38497928593E+03  0.38497928593E+03  0.00000000000E+00 0. -1.
         -2   -1    0    0    0  501 -0.00000000000E+00 -0.00000000000E+00 -0.15179193830E+03  0.15179193830E+03  0.00000000000E+00 0.  1.
          6    1    1    2  502    0 -0.59168042240E+01 -0.82300277424E+02 -0.48247391814E+02  0.19677437601E+03  0.17200000000E+03 0.  1.
         -6    1    1    2    0  501  0.59168042240E+01  0.82300277424E+02  0.28143473944E+03  0.33999684822E+03  0.17200000000E+03 0. -1.
<mgrwt>
<rscale>  2 0.19076778E+03</rscale>
<asrwt>0</asrwt>
<pdfrwt beam="1">  1        2 0.96244819E-01 0.19076778E+03</pdfrwt>
<pdfrwt beam="2">  1       -2 0.37947985E-01 0.19076778E+03</pdfrwt>
<totfact> 0.32123786E+02</totfact>
</mgrwt>
</event>
<event>
 4    1  0.3889096E-001  0.2427033E+03  0.7546771E-02  0.1118005E+00
          2   -1    0    0  502    0  0.00000000000E+00  0.00000000000E+00  0.53204843944E+03  0.53204843944E+03  0.00000000000E+00 0.  1.
         -2   -1    0    0    0  501 -0.00000000000E+00 -0.00000000000E+00 -0.11074392756E+03  0.11074392756E+03  0.00000000000E+00 0. -1.
          6    1    1    2  502    0  0.13153985285E+03  0.10962742829E+03  0.21598605369E+03  0.32489210718E+03  0.17200000000E+03 0.  1.
         -6    1    1    2    0  501 -0.13153985285E+03 -0.10962742829E+03  0.20531845819E+03  0.31790025982E+03  0.17200000000E+03 0. -1.
<mgrwt>
<rscale>  2 0.24270333E+03</rscale>
<asrwt>0</asrwt>
<pdfrwt beam="1">  1        2 0.13301210E+00 0.24270333E+03</pdfrwt>
<pdfrwt beam="2">  1       -2 0.27685983E-01 0.24270333E+03</pdfrwt>
<totfact> 0.38308151E+02</totfact>
</mgrwt>
</event>
<event>
 4    1  0.3889096E-001  0.2100988E+03  0.7546771E-02  0.1141488E+00
          2   -1    0    0  502    0  0.00000000000E+00  0.00000000000E+00  0.26759392872E+03  0.26759392872E+03  0.00000000000E+00 0.  1.
         -2   -1    0    0    0  501 -0.00000000000E+00 -0.00000000000E+00 -0.16515403721E+03  0.16515403721E+03  0.00000000000E+00 0. -1.
          6    1    1    2  502    0  0.11549512469E+02 -0.12010048945E+03  0.43748185808E+02  0.21460527153E+03  0.17200000000E+03 0.  1.
         -6    1    1    2    0  501 -0.11549512469E+02  0.12010048945E+03  0.58691705699E+02  0.21814269441E+03  0.17200000000E+03 0.  1.
<mgrwt>
<rscale>  2 0.21009883E+03</rscale>
<asrwt>0</asrwt>
<pdfrwt beam="1">  1        2 0.66898482E-01 0.21009883E+03</pdfrwt>
<pdfrwt beam="2">  1       -2 0.41288510E-01 0.21009883E+03</pdfrwt>
<totfact> 0.41129887E+02</totfact>
</mgrwt>
</event>
<event>
 4    1  0.3889096E-001  0.1939494E+03  0.7546771E-02  0.1154947E+00
          2   -1    0    0  502    0  0.00000000000E+00  0.00000000000E+00  0.10034551238E+04  0.10034551238E+04  0.00000000000E+00 0.  1.
         -2   -1    0    0    0  501 -0.00000000000E+00 -0.00000000000E+00 -0.40861872976E+02  0.40861872976E+02  0.00000000000E+00 0. -1.
          6    1    1    2  502    0 -0.91212133786E+01  0.89158156614E+02  0.33123091353E+03  0.38383628216E+03  0.17200000000E+03 0.  1.
         -6    1    1    2    0  501  0.91212133786E+01 -0.89158156614E+02  0.63136233725E+03  0.66048071457E+03  0.17200000000E+03 0.  1.
<mgrwt>
<rscale>  2 0.19394941E+03</rscale>
<asrwt>0</asrwt>
<pdfrwt beam="1">  1        2 0.25086370E+00 0.19394941E+03</pdfrwt>
<pdfrwt beam="2">  1       -2 0.10215472E-01 0.19394941E+03</pdfrwt>
<totfact> 0.75451852E+02</totfact>
</mgrwt>
</event>
<event>
 4    1  0.3889096E-001  0.2315295E+03  0.7546771E-02  0.1125568E+00
          2   -1    0    0  502    0  0.00000000000E+00  0.00000000000E+00  0.48831179957E+03  0.48831179957E+03  0.00000000000E+00 0.  1.
         -2   -1    0    0    0  501 -0.00000000000E+00 -0.00000000000E+00 -0.11076529657E+03  0.11076529657E+03  0.00000000000E+00 0. -1.
          6    1    1    2  502    0  0.15479015369E+03  0.78702459334E+01  0.21705177878E+03  0.31736005911E+03  0.17200000000E+03 0.  1.
         -6    1    1    2    0  501 -0.15479015369E+03 -0.78702459334E+01  0.16049472421E+03  0.28171703702E+03  0.17200000000E+03 0. -1.
<mgrwt>
<rscale>  2 0.23152955E+03</rscale>
<asrwt>0</asrwt>
<pdfrwt beam="1">  1        2 0.12207794E+00 0.23152955E+03</pdfrwt>
<pdfrwt beam="2">  1       -2 0.27691325E-01 0.23152955E+03</pdfrwt>
<totfact> 0.42822622E+02</totfact>
</mgrwt>
</event>
<event>
 4    1  0.3889096E-001  0.1912509E+03  0.7546771E-02  0.1157338E+00
         -2   -1    0    0    0  501 -0.00000000000E+00  0.00000000000E+00  0.87320294335E+02  0.87320294335E+02  0.00000000000E+00 0. -1.
          2   -1    0    0  502    0  0.00000000000E+00 -0.00000000000E+00 -0.43830673244E+03  0.43830673244E+03  0.00000000000E+00 0.  1.
          6    1    1    2  502    0 -0.78304190813E+02  0.29349123999E+02 -0.12016663472E+03  0.22586929291E+03  0.17200000000E+03 0. -1.
         -6    1    1    2    0  501  0.78304190813E+02 -0.29349123999E+02 -0.23081980339E+03  0.29975773387E+03  0.17200000000E+03 0. -1.
<mgrwt>
<rscale>  2 0.19125093E+03</rscale>
<asrwt>0</asrwt>
<pdfrwt beam="1">  1        2 0.10957668E+00 0.19125093E+03</pdfrwt>
<pdfrwt beam="2">  1       -2 0.21830074E-01 0.19125093E+03</pdfrwt>
<totfact> 0.74542978E+02</totfact>
</mgrwt>
</event>
<event>
 4    1  0.3889096E-001  0.1723205E+03  0.7546771E-02  0.1175449E+00
         -2   -1    0    0    0  501 -0.00000000000E+00  0.00000000000E+00  0.21879174522E+02  0.21879174522E+02  0.00000000000E+00 0.  1.
          2   -1    0    0  502    0  0.00000000000E+00 -0.00000000000E+00 -0.13740887981E+04  0.13740887981E+04  0.00000000000E+00 0. -1.
          6    1    1    2  502    0 -0.50055072767E+01 -0.92352790973E+01 -0.75349371080E+03  0.77294703421E+03  0.17200000000E+03 0. -1.
         -6    1    1    2    0  501  0.50055072767E+01  0.92352790973E+01 -0.59871591276E+03  0.62302093839E+03  0.17200000000E+03 0.  1.
<mgrwt>
<rscale>  2 0.17232047E+03</rscale>
<asrwt>0</asrwt>
<pdfrwt beam="1">  1        2 0.34352215E+00 0.17232047E+03</pdfrwt>
<pdfrwt beam="2">  1       -2 0.54697944E-02 0.17232047E+03</pdfrwt>
<totfact> 0.97024140E+02</totfact>
</mgrwt>
</event>
<event>
 4    1  0.3889096E-001  0.1967432E+03  0.7546771E-02  0.1152516E+00
          2   -1    0    0  502    0  0.00000000000E+00  0.00000000000E+00  0.61168293461E+03  0.61168293461E+03  0.00000000000E+00 0. -1.
         -2   -1    0    0    0  501 -0.00000000000E+00 -0.00000000000E+00 -0.68220903796E+02  0.68220903796E+02  0.00000000000E+00 0.  1.
          6    1    1    2  502    0 -0.89512852378E+02 -0.33336952353E+02  0.36320936968E+03  0.41307257154E+03  0.17200000000E+03 0. -1.
         -6    1    1    2    0  501  0.89512852378E+02  0.33336952353E+02  0.18025266113E+03  0.26683126687E+03  0.17200000000E+03 0. -1.
<mgrwt>
<rscale>  2 0.19674324E+03</rscale>
<asrwt>0</asrwt>
<pdfrwt beam="1">  1        2 0.15292072E+00 0.19674324E+03</pdfrwt>
<pdfrwt beam="2">  1       -2 0.17055228E-01 0.19674324E+03</pdfrwt>
<totfact> 0.73653625E+02</totfact>
</mgrwt>
</event>
<event>
 4    1  0.3889096E-001  0.2984713E+03  0.7546771E-02  0.1086007E+00
          1   -1    0    0  502    0  0.00000000000E+00  0.00000000000E+00  0.59247043971E+03  0.59247043971E+03  0.00000000000E+00 0.  1.
         -1   -1    0    0    0  501 -0.00000000000E+00 -0.00000000000E+00 -0.17585357935E+03  0.17585357935E+03  0.00000000000E+00 0. -1.
          6    1    1    2  502    0  0.19428578171E+03 -0.14749291604E+03  0.62044931450E+02  0.30485192926E+03  0.17200000000E+03 0. -1.
         -6    1    1    2    0  501 -0.19428578171E+03  0.14749291604E+03  0.35457192891E+03  0.46347208980E+03  0.17200000000E+03 0.  1.
<mgrwt>
<rscale>  2 0.29847131E+03</rscale>
<asrwt>0</asrwt>
<pdfrwt beam="1">  1        1 0.14811761E+00 0.29847131E+03</pdfrwt>
<pdfrwt beam="2">  1       -1 0.43963396E-01 0.29847131E+03</pdfrwt>
<totfact> 0.89529763E+01</totfact>
</mgrwt>
</event>
<event>
 4    1  0.3889096E-001  0.2874865E+03  0.7546771E-02  0.1091669E+00
         -1   -1    0    0    0  501 -0.00000000000E+00  0.00000000000E+00  0.52208499924E+03  0.52208499924E+03  0.00000000000E+00 0.  1.
          1   -1    0    0  502    0  0.00000000000E+00 -0.00000000000E+00 -0.19702488172E+03  0.19702488172E+03  0.00000000000E+00 0. -1.
          6    1    1    2  502    0  0.18933843885E+03  0.13120761362E+03  0.31354217497E+01  0.28750358809E+03  0.17200000000E+03 0. -1.
         -6    1    1    2    0  501 -0.18933843885E+03 -0.13120761362E+03  0.32192469577E+03  0.43160629287E+03  0.17200000000E+03 0.  1.
<mgrwt>
<rscale>  2 0.28748649E+03</rscale>
<asrwt>0</asrwt>
<pdfrwt beam="1">  1        1 0.49256221E-01 0.28748649E+03</pdfrwt>
<pdfrwt beam="2">  1       -1 0.13052125E+00 0.28748649E+03</pdfrwt>
<totfact> 0.43825724E+01</totfact>
</mgrwt>
</event>
<event>
 4    1  0.3889096E-001  0.2560340E+03  0.7546771E-02  0.1109550E+00
         -2   -1    0    0    0  501 -0.00000000000E+00  0.00000000000E+00  0.57502724948E+02  0.57502724948E+02  0.00000000000E+00 0. -1.
          2   -1    0    0  502    0  0.00000000000E+00 -0.00000000000E+00 -0.11670278176E+04  0.11670278176E+04  0.00000000000E+00 0.  1.
          6    1    1    2  502    0 -0.11530114074E+03 -0.15058243312E+03 -0.64792917641E+03  0.69668187853E+03  0.17200000000E+03 0.  1.
         -6    1    1    2    0  501  0.11530114074E+03  0.15058243312E+03 -0.46159591625E+03  0.52784866403E+03  0.17200000000E+03 0.  1.
<mgrwt>
<rscale>  2 0.25603403E+03</rscale>
<asrwt>0</asrwt>
<pdfrwt beam="1">  1        2 0.29175696E+00 0.25603403E+03</pdfrwt>
<pdfrwt beam="2">  1       -2 0.14375681E-01 0.25603403E+03</pdfrwt>
<totfact> 0.31172325E+02</totfact>
</mgrwt>
</event>
<event>
 4    1  0.3889096E-001  0.1740948E+03  0.7546771E-02  0.1173644E+00
         -2   -1    0    0    0  501 -0.00000000000E+00  0.00000000000E+00  0.42378290108E+02  0.42378290108E+02  0.00000000000E+00 0.  1.
          2   -1    0    0  502    0  0.00000000000E+00 -0.00000000000E+00 -0.86004502327E+03  0.86004502327E+03  0.00000000000E+00 0. -1.
          6    1    1    2  502    0  0.21140750254E+02  0.16675594940E+02 -0.59400293160E+03  0.61898989454E+03  0.17200000000E+03 0. -1.
         -6    1    1    2    0  501 -0.21140750254E+02 -0.16675594940E+02 -0.22366380156E+03  0.28343341884E+03  0.17200000000E+03 0.  1.
<mgrwt>
<rscale>  2 0.17409482E+03</rscale>
<asrwt>0</asrwt>
<pdfrwt beam="1">  1        2 0.21501125E+00 0.17409482E+03</pdfrwt>
<pdfrwt beam="2">  1       -2 0.10594573E-01 0.17409482E+03</pdfrwt>
<totfact> 0.94738117E+02</totfact>
</mgrwt>
</event>
<event>
 4    1  0.3889096E-001  0.3439856E+03  0.7546771E-02  0.1065111E+00
          1   -1    0    0  502    0  0.00000000000E+00  0.00000000000E+00  0.41165871188E+03  0.41165871188E+03  0.00000000000E+00 0.  1.
         -1   -1    0    0    0  501 -0.00000000000E+00 -0.00000000000E+00 -0.33868741074E+03  0.33868741074E+03  0.00000000000E+00 0. -1.
          6    1    1    2  502    0  0.22998291296E+03  0.18934084989E+03  0.18242729161E+03  0.38936591327E+03  0.17200000000E+03 0.  1.
         -6    1    1    2    0  501 -0.22998291296E+03 -0.18934084989E+03 -0.10945599047E+03  0.36098020935E+03  0.17200000000E+03 0. -1.
<mgrwt>
<rscale>  2 0.34398561E+03</rscale>
<asrwt>0</asrwt>
<pdfrwt beam="1">  1        1 0.10291468E+00 0.34398561E+03</pdfrwt>
<pdfrwt beam="2">  1       -1 0.84671853E-01 0.34398561E+03</pdfrwt>
<totfact> 0.43553266E+01</totfact>
</mgrwt>
</event>
<event>
 4    1  0.3889096E-001  0.2142645E+03  0.7546771E-02  0.1138233E+00
         -3   -1    0    0    0  501 -0.00000000000E+00  0.00000000000E+00  0.23510598319E+03  0.23510598319E+03  0.00000000000E+00 0. -1.
          3   -1    0    0  502    0  0.00000000000E+00 -0.00000000000E+00 -0.25410343032E+03  0.25410343032E+03  0.00000000000E+00 0.  1.
          6    1    1    2  502    0 -0.61130414678E+02  0.11219787312E+03  0.10819935008E+03  0.24003414276E+03  0.17200000000E+03 0.  1.
         -6    1    1    2    0  501  0.61130414678E+02 -0.11219787312E+03 -0.12719679722E+03  0.24917527075E+03  0.17200000000E+03 0.  1.
<mgrwt>
<rscale>  2 0.21426453E+03</rscale>
<asrwt>0</asrwt>
<pdfrwt beam="1">  1        3 0.63525857E-01 0.21426453E+03</pdfrwt>
<pdfrwt beam="2">  1       -3 0.58776496E-01 0.21426453E+03</pdfrwt>
<totfact> 0.17222702E+01</totfact>
</mgrwt>
</event>
<event>
 4    1  0.3889096E-001  0.2219120E+03  0.7546771E-02  0.1132466E+00
          2   -1    0    0  502    0  0.00000000000E+00  0.00000000000E+00  0.20795629627E+04  0.20795629627E+04  0.00000000000E+00 0.  1.
         -2   -1    0    0    0  501 -0.00000000000E+00 -0.00000000000E+00 -0.23734452950E+02  0.23734452950E+02  0.00000000000E+00 0. -1.
          6    1    1    2  502    0  0.12287323301E+03  0.67550804657E+02  0.10780878466E+04  0.11006899417E+04  0.17200000000E+03 0. -1.
         -6    1    1    2    0  501 -0.12287323301E+03 -0.67550804657E+02  0.97774066310E+03  0.10026074740E+04  0.17200000000E+03 0.  1.
<mgrwt>
<rscale>  2 0.22191202E+03</rscale>
<asrwt>0</asrwt>
<pdfrwt beam="1">  1        2 0.51989012E+00 0.22191202E+03</pdfrwt>
<pdfrwt beam="2">  1       -2 0.59336203E-02 0.22191202E+03</pdfrwt>
<totfact> 0.18665974E+02</totfact>
</mgrwt>
</event>
<event>
 4    1  0.3889096E-001  0.2291382E+03  0.7546771E-02  0.1127248E+00
          2   -1    0    0  502    0  0.00000000000E+00  0.00000000000E+00  0.21984440788E+04  0.21984440788E+04  0.00000000000E+00 0. -1.
         -2   -1    0    0    0  501 -0.00000000000E+00 -0.00000000000E+00 -0.51429383774E+02  0.51429383774E+02  0.00000000000E+00 0.  1.
          6    1    1    2  502    0 -0.90808026761E+02 -0.12113711551E+03  0.25020599860E+03  0.33927472675E+03  0.17200000000E+03 0.  1.
         -6    1    1    2    0  501  0.90808026761E+02  0.12113711551E+03  0.18968086964E+04  0.19105987358E+04  0.17200000000E+03 0. -1.
<mgrwt>
<rscale>  2 0.22913816E+03</rscale>
<asrwt>0</asrwt>
<pdfrwt beam="1">  1        2 0.54961070E+00 0.22913816E+03</pdfrwt>
<pdfrwt beam="2">  1       -2 0.12857353E-01 0.22913816E+03</pdfrwt>
<totfact> 0.41110904E+01</totfact>
</mgrwt>
</event>
<event>
 4    1  0.3889096E-001  0.1760166E+03  0.7546771E-02  0.1171715E+00
          2   -1    0    0  502    0  0.00000000000E+00  0.00000000000E+00  0.45173761116E+03  0.45173761116E+03  0.00000000000E+00 0.  1.
         -2   -1    0    0    0  501 -0.00000000000E+00 -0.00000000000E+00 -0.14044558068E+03  0.14044558068E+03  0.00000000000E+00 0. -1.
          6    1    1    2  502    0 -0.34021149511E+02 -0.15504549522E+02 -0.56151752690E+02  0.18475618799E+03  0.17200000000E+03 0. -1.
         -6    1    1    2    0  501  0.34021149511E+02  0.15504549522E+02  0.36744378317E+03  0.40742700385E+03  0.17200000000E+03 0.  1.
<mgrwt>
<rscale>  2 0.17601656E+03</rscale>
<asrwt>0</asrwt>
<pdfrwt beam="1">  1        2 0.11293440E+00 0.17601656E+03</pdfrwt>
<pdfrwt beam="2">  1       -2 0.35111396E-01 0.17601656E+03</pdfrwt>
<totfact> 0.30760642E+02</totfact>
</mgrwt>
</event>
<event>
 4    1  0.3889096E-001  0.2678118E+03  0.7546771E-02  0.1102539E+00
         -2   -1    0    0    0  501 -0.00000000000E+00  0.00000000000E+00  0.18035330592E+03  0.18035330592E+03  0.00000000000E+00 0.  1.
          2   -1    0    0  502    0  0.00000000000E+00 -0.00000000000E+00 -0.56038908061E+03  0.56038908061E+03  0.00000000000E+00 0. -1.
          6    1    1    2  502    0 -0.95033393119E+02 -0.18195548661E+03 -0.38958844543E+03  0.47276030050E+03  0.17200000000E+03 0. -1.
         -6    1    1    2    0  501  0.95033393119E+02  0.18195548661E+03  0.95526707270E+01  0.26798208603E+03  0.17200000000E+03 0.  1.
<mgrwt>
<rscale>  2 0.26781177E+03</rscale>
<asrwt>0</asrwt>
<pdfrwt beam="1">  1        2 0.14009727E+00 0.26781177E+03</pdfrwt>
<pdfrwt beam="2">  1       -2 0.45088327E-01 0.26781177E+03</pdfrwt>
<totfact> 0.14279232E+02</totfact>
</mgrwt>
</event>
<event>
 4    1  0.3889096E-001  0.1790490E+03  0.7546771E-02  0.1168727E+00
         -2   -1    0    0    0  501 -0.00000000000E+00  0.00000000000E+00  0.28666175563E+03  0.28666175563E+03  0.00000000000E+00 0. -1.
          2   -1    0    0  502    0  0.00000000000E+00 -0.00000000000E+00 -0.13464873084E+03  0.13464873084E+03  0.00000000000E+00 0.  1.
          6    1    1    2  502    0 -0.17313932505E+02 -0.46634334904E+02  0.16271841733E+03  0.24194176322E+03  0.17200000000E+03 0. -1.
         -6    1    1    2    0  501  0.17313932505E+02  0.46634334904E+02 -0.10705392538E+02  0.17936872325E+03  0.17200000000E+03 0.  1.
<mgrwt>
<rscale>  2 0.17904897E+03</rscale>
<asrwt>0</asrwt>
<pdfrwt beam="1">  1        2 0.33662183E-01 0.17904897E+03</pdfrwt>
<pdfrwt beam="2">  1       -2 0.71665438E-01 0.17904897E+03</pdfrwt>
<totfact> 0.28197605E+02</totfact>
</mgrwt>
</event>
<event>
 4    1  0.3889096E-001  0.1919922E+03  0.7546771E-02  0.1156677E+00
          1   -1    0    0  502    0  0.00000000000E+00  0.00000000000E+00  0.30230166898E+03  0.30230166898E+03  0.00000000000E+00 0.  1.
         -1   -1    0    0    0  501 -0.00000000000E+00 -0.00000000000E+00 -0.12194090460E+03  0.12194090460E+03  0.00000000000E+00 0. -1.
          6    1    1    2  502    0  0.34564198574E+02  0.77989123129E+02  0.91723893995E+02  0.21277748913E+03  0.17200000000E+03 0.  1.
         -6    1    1    2    0  501 -0.34564198574E+02 -0.77989123129E+02  0.88636870383E+02  0.21146508445E+03  0.17200000000E+03 0.  1.
<mgrwt>
<rscale>  2 0.19199215E+03</rscale>
<asrwt>0</asrwt>
<pdfrwt beam="1">  1        1 0.75575416E-01 0.19199215E+03</pdfrwt>
<pdfrwt beam="2">  1       -1 0.30485227E-01 0.19199215E+03</pdfrwt>
<totfact> 0.46446254E+02</totfact>
</mgrwt>
</event>
<event>
 4    1  0.3889096E-001  0.1963755E+03  0.7546771E-02  0.1152834E+00
          2   -1    0    0  502    0  0.00000000000E+00  0.00000000000E+00  0.49924370246E+03  0.49924370246E+03  0.00000000000E+00 0. -1.
         -2   -1    0    0    0  501 -0.00000000000E+00 -0.00000000000E+00 -0.77297238139E+02  0.77297238139E+02  0.00000000000E+00 0.  1.
          6    1    1    2  502    0 -0.63963930424E+02  0.69913946677E+02  0.21857213620E+03  0.29383179382E+03  0.17200000000E+03 0. -1.
         -6    1    1    2    0  501  0.63963930424E+02 -0.69913946677E+02  0.20337432812E+03  0.28270914678E+03  0.17200000000E+03 0.  1.
<mgrwt>
<rscale>  2 0.19637552E+03</rscale>
<asrwt>0</asrwt>
<pdfrwt beam="1">  1        2 0.12481092E+00 0.19637552E+03</pdfrwt>
<pdfrwt beam="2">  1       -2 0.19324311E-01 0.19637552E+03</pdfrwt>
<totfact> 0.78152645E+02</totfact>
</mgrwt>
</event>
<event>
 4    1  0.3889096E-001  0.2720817E+03  0.7546771E-02  0.1100094E+00
         -2   -1    0    0    0  501 -0.00000000000E+00  0.00000000000E+00  0.52041283041E+02  0.52041283041E+02  0.00000000000E+00 0.  1.
          2   -1    0    0  502    0  0.00000000000E+00 -0.00000000000E+00 -0.18344972243E+04  0.18344972243E+04  0.00000000000E+00 0. -1.
          6    1    1    2  502    0  0.24712899935E+02 -0.20936508742E+03 -0.13382479208E+04  0.13656265832E+04  0.17200000000E+03 0. -1.
         -6    1    1    2    0  501 -0.24712899935E+02  0.20936508742E+03 -0.44420802043E+03  0.52091192410E+03  0.17200000000E+03 0. -1.
<mgrwt>
<rscale>  2 0.27208173E+03</rscale>
<asrwt>0</asrwt>
<pdfrwt beam="1">  1        2 0.45862430E+00 0.27208173E+03</pdfrwt>
<pdfrwt beam="2">  1       -2 0.13010321E-01 0.27208173E+03</pdfrwt>
<totfact> 0.92947349E+01</totfact>
</mgrwt>
</event>
<event>
 4    1  0.3889096E-001  0.2333749E+03  0.7546771E-02  0.1124287E+00
         -2   -1    0    0    0  501 -0.00000000000E+00  0.00000000000E+00  0.30064898075E+03  0.30064898075E+03  0.00000000000E+00 0. -1.
          2   -1    0    0  502    0  0.00000000000E+00 -0.00000000000E+00 -0.18305104465E+03  0.18305104465E+03  0.00000000000E+00 0.  1.
          6    1    1    2  502    0  0.15701184489E+03  0.15071238111E+02  0.34180435746E+02  0.23586471512E+03  0.17200000000E+03 0.  1.
         -6    1    1    2    0  501 -0.15701184489E+03 -0.15071238111E+02  0.83417500353E+02  0.24783531027E+03  0.17200000000E+03 0. -1.
<mgrwt>
<rscale>  2 0.23337494E+03</rscale>
<asrwt>0</asrwt>
<pdfrwt beam="1">  1        2 0.45762762E-01 0.23337494E+03</pdfrwt>
<pdfrwt beam="2">  1       -2 0.75162245E-01 0.23337494E+03</pdfrwt>
<totfact> 0.18219598E+02</totfact>
</mgrwt>
</event>
<event>
 4    1  0.3889096E-001  0.2291402E+03  0.7546771E-02  0.1127246E+00
          2   -1    0    0  502    0  0.00000000000E+00  0.00000000000E+00  0.38415870895E+03  0.38415870895E+03  0.00000000000E+00 0. -1.
         -2   -1    0    0    0  501 -0.00000000000E+00 -0.00000000000E+00 -0.16606334307E+03  0.16606334307E+03  0.00000000000E+00 0.  1.
          6    1    1    2  502    0 -0.63073111414E+02 -0.13763362796E+03  0.22477931897E+03  0.32098438461E+03  0.17200000000E+03 0. -1.
         -6    1    1    2    0  501  0.63073111414E+02  0.13763362796E+03 -0.66839530903E+01  0.22923766741E+03  0.17200000000E+03 0.  1.
<mgrwt>
<rscale>  2 0.22914020E+03</rscale>
<asrwt>0</asrwt>
<pdfrwt beam="1">  1        2 0.96039676E-01 0.22914020E+03</pdfrwt>
<pdfrwt beam="2">  1       -2 0.41515836E-01 0.22914020E+03</pdfrwt>
<totfact> 0.27033071E+02</totfact>
</mgrwt>
</event>
<event>
 4    1  0.3889096E-001  0.1984821E+03  0.7546771E-02  0.1151026E+00
         -2   -1    0    0    0  501 -0.00000000000E+00  0.00000000000E+00  0.53890955969E+03  0.53890955969E+03  0.00000000000E+00 0.  1.
          2   -1    0    0  502    0  0.00000000000E+00 -0.00000000000E+00 -0.12979600738E+03  0.12979600738E+03  0.00000000000E+00 0. -1.
          6    1    1    2  502    0 -0.49585891569E+02 -0.85745945469E+02  0.42553249315E+03  0.46954555746E+03  0.17200000000E+03 0.  1.
         -6    1    1    2    0  501  0.49585891569E+02  0.85745945469E+02 -0.16418940837E+02  0.19916000960E+03  0.17200000000E+03 0. -1.
<mgrwt>
<rscale>  2 0.19848206E+03</rscale>
<asrwt>0</asrwt>
<pdfrwt beam="1">  1        2 0.32449003E-01 0.19848206E+03</pdfrwt>
<pdfrwt beam="2">  1       -2 0.13472738E+00 0.19848206E+03</pdfrwt>
<totfact> 0.68179291E+01</totfact>
</mgrwt>
</event>
<event>
 4    1  0.3889096E-001  0.1945142E+03  0.7546771E-02  0.1154452E+00
          1   -1    0    0  502    0  0.00000000000E+00  0.00000000000E+00  0.57719656164E+03  0.57719656164E+03  0.00000000000E+00 0. -1.
         -1   -1    0    0    0  501 -0.00000000000E+00 -0.00000000000E+00 -0.69236188939E+02  0.69236188939E+02  0.00000000000E+00 0.  1.
          6    1    1    2  502    0 -0.88674077518E+02 -0.19714591321E+02  0.17941051318E+03  0.26462027393E+03  0.17200000000E+03 0.  1.
         -6    1    1    2    0  501  0.88674077518E+02  0.19714591321E+02  0.32854985953E+03  0.38181247666E+03  0.17200000000E+03 0. -1.
<mgrwt>
<rscale>  2 0.19451416E+03</rscale>
<asrwt>0</asrwt>
<pdfrwt beam="1">  1        1 0.14429913E+00 0.19451416E+03</pdfrwt>
<pdfrwt beam="2">  1       -1 0.17309049E-01 0.19451416E+03</pdfrwt>
<totfact> 0.46133043E+02</totfact>
</mgrwt>
</event>
<event>
 4    1  0.3889096E-001  0.2566224E+03  0.7546771E-02  0.1109190E+00
          3   -1    0    0  502    0  0.00000000000E+00  0.00000000000E+00  0.72428865097E+03  0.72428865097E+03  0.00000000000E+00 0. -1.
         -3   -1    0    0    0  501 -0.00000000000E+00 -0.00000000000E+00 -0.90929062424E+02  0.90929062424E+02  0.00000000000E+00 0.  1.
          6    1    1    2  502    0  0.36769478974E+02 -0.18686637285E+03  0.31979713013E+03  0.41003077973E+03  0.17200000000E+03 0.  1.
         -6    1    1    2    0  501 -0.36769478974E+02  0.18686637285E+03  0.31356245841E+03  0.40518693366E+03  0.17200000000E+03 0. -1.
<mgrwt>
<rscale>  2 0.25662236E+03</rscale>
<asrwt>0</asrwt>
<pdfrwt beam="1">  1        3 0.18107215E+00 0.25662236E+03</pdfrwt>
<pdfrwt beam="2">  1       -3 0.22732268E-01 0.25662236E+03</pdfrwt>
<totfact> 0.92760935E+00</totfact>
</mgrwt>
</event>
<event>
 4    1  0.3889096E-001  0.2164399E+03  0.7546771E-02  0.1136565E+00
          1   -1    0    0  502    0  0.00000000000E+00  0.00000000000E+00  0.22308483675E+03  0.22308483675E+03  0.00000000000E+00 0.  1.
         -1   -1    0    0    0  501 -0.00000000000E+00 -0.00000000000E+00 -0.23711932247E+03  0.23711932247E+03  0.00000000000E+00 0. -1.
          6    1    1    2  502    0 -0.27405377062E+02 -0.12849575580E+03 -0.84844902828E+02  0.23247552879E+03  0.17200000000E+03 0. -1.
         -6    1    1    2    0  501  0.27405377062E+02  0.12849575580E+03  0.70810417109E+02  0.22772863044E+03  0.17200000000E+03 0.  1.
<mgrwt>
<rscale>  2 0.21643986E+03</rscale>
<asrwt>0</asrwt>
<pdfrwt beam="1">  1        1 0.55771209E-01 0.21643986E+03</pdfrwt>
<pdfrwt beam="2">  1       -1 0.59279831E-01 0.21643986E+03</pdfrwt>
<totfact> 0.20781656E+02</totfact>
</mgrwt>
</event>
<event>
 4    1  0.3889096E-001  0.2432381E+03  0.7546771E-02  0.1117654E+00
          1   -1    0    0  502    0  0.00000000000E+00  0.00000000000E+00  0.16722773972E+03  0.16722773972E+03  0.00000000000E+00 0. -1.
         -1   -1    0    0    0  501 -0.00000000000E+00 -0.00000000000E+00 -0.37142158823E+03  0.37142158823E+03  0.00000000000E+00 0.  1.
          6    1    1    2  502    0 -0.12825624516E+03  0.11459095937E+03 -0.16076423329E+03  0.29156455734E+03  0.17200000000E+03 0.  1.
         -6    1    1    2    0  501  0.12825624516E+03 -0.11459095937E+03 -0.43429615223E+02  0.24708477062E+03  0.17200000000E+03 0. -1.
<mgrwt>
<rscale>  2 0.24323806E+03</rscale>
<asrwt>0</asrwt>
<pdfrwt beam="1">  1        1 0.41806936E-01 0.24323806E+03</pdfrwt>
<pdfrwt beam="2">  1       -1 0.92855396E-01 0.24323806E+03</pdfrwt>
<totfact> 0.11953938E+02</totfact>
</mgrwt>
</event>
<event>
 4    1  0.3889096E-001  0.2129637E+03  0.7546771E-02  0.1139240E+00
         -1   -1    0    0    0  501 -0.00000000000E+00  0.00000000000E+00  0.33531051800E+03  0.33531051800E+03  0.00000000000E+00 0.  1.
          1   -1    0    0  502    0  0.00000000000E+00 -0.00000000000E+00 -0.16360113989E+03  0.16360113989E+03  0.00000000000E+00 0. -1.
          6    1    1    2  502    0 -0.19514188369E+02  0.12405137838E+03  0.18968443184E+03  0.28519069358E+03  0.17200000000E+03 0. -1.
         -6    1    1    2    0  501  0.19514188369E+02 -0.12405137838E+03 -0.17975053725E+02  0.21372096430E+03  0.17200000000E+03 0. -1.
<mgrwt>
<rscale>  2 0.21296372E+03</rscale>
<asrwt>0</asrwt>
<pdfrwt beam="1">  1        1 0.40900286E-01 0.21296372E+03</pdfrwt>
<pdfrwt beam="2">  1       -1 0.83827628E-01 0.21296372E+03</pdfrwt>
<totfact> 0.15356343E+02</totfact>
</mgrwt>
</event>
<event>
 4    1  0.3889096E-001  0.2103106E+03  0.7546771E-02  0.1141320E+00
          1   -1    0    0  502    0  0.00000000000E+00  0.00000000000E+00  0.44851700670E+03  0.44851700670E+03  0.00000000000E+00 0. -1.
         -1   -1    0    0    0  501 -0.00000000000E+00 -0.00000000000E+00 -0.11429680743E+03  0.11429680743E+03  0.00000000000E+00 0.  1.
          6    1    1    2  502    0 -0.23499109365E+02  0.11871964461E+03  0.62875000276E+02  0.21950814978E+03  0.17200000000E+03 0.  1.
         -6    1    1    2    0  501  0.23499109365E+02 -0.11871964461E+03  0.27134519899E+03  0.34330566435E+03  0.17200000000E+03 0. -1.
<mgrwt>
<rscale>  2 0.21031063E+03</rscale>
<asrwt>0</asrwt>
<pdfrwt beam="1">  1        1 0.11212925E+00 0.21031063E+03</pdfrwt>
<pdfrwt beam="2">  1       -1 0.28574203E-01 0.21031063E+03</pdfrwt>
<totfact> 0.29955756E+02</totfact>
</mgrwt>
</event>
<event>
 4    1  0.3889096E-001  0.1782195E+03  0.7546771E-02  0.1169537E+00
         -1   -1    0    0    0  501 -0.00000000000E+00  0.00000000000E+00  0.77179254178E+02  0.77179254178E+02  0.00000000000E+00 0. -1.
          1   -1    0    0  502    0  0.00000000000E+00 -0.00000000000E+00 -0.41235238231E+03  0.41235238231E+03  0.00000000000E+00 0.  1.
          6    1    1    2  502    0 -0.43735656510E+02 -0.16290489575E+02 -0.15670831436E+03  0.23731768474E+03  0.17200000000E+03 0. -1.
         -6    1    1    2    0  501  0.43735656510E+02  0.16290489575E+02 -0.17846481377E+03  0.25221395174E+03  0.17200000000E+03 0. -1.
<mgrwt>
<rscale>  2 0.17821949E+03</rscale>
<asrwt>0</asrwt>
<pdfrwt beam="1">  1        1 0.10308809E+00 0.17821949E+03</pdfrwt>
<pdfrwt beam="2">  1       -1 0.19294814E-01 0.17821949E+03</pdfrwt>
<totfact> 0.64791116E+02</totfact>
</mgrwt>
</event>
<event>
 4    1  0.3889096E-001  0.1878934E+03  0.7546771E-02  0.1160375E+00
          2   -1    0    0  502    0  0.00000000000E+00  0.00000000000E+00  0.16647537568E+03  0.16647537568E+03  0.00000000000E+00 0. -1.
         -2   -1    0    0    0  501 -0.00000000000E+00 -0.00000000000E+00 -0.21413205003E+03  0.21413205003E+03  0.00000000000E+00 0.  1.
          6    1    1    2  502    0  0.71035313688E+02 -0.25959954557E+02 -0.42516677870E+02  0.19264372019E+03  0.17200000000E+03 0. -1.
         -6    1    1    2    0  501 -0.71035313688E+02  0.25959954557E+02 -0.51399964819E+01  0.18796370553E+03  0.17200000000E+03 0.  1.
<mgrwt>
<rscale>  2 0.18789341E+03</rscale>
<asrwt>0</asrwt>
<pdfrwt beam="1">  1        2 0.41618844E-01 0.18789341E+03</pdfrwt>
<pdfrwt beam="2">  1       -2 0.53533012E-01 0.18789341E+03</pdfrwt>
<totfact> 0.41158061E+02</totfact>
</mgrwt>
</event>
<event>
 4    1  0.3889096E-001  0.1805222E+03  0.7546771E-02  0.1167299E+00
         -2   -1    0    0    0  501 -0.00000000000E+00  0.00000000000E+00  0.75062826699E+02  0.75062826699E+02  0.00000000000E+00 0.  1.
          2   -1    0    0  502    0  0.00000000000E+00 -0.00000000000E+00 -0.43913662475E+03  0.43913662475E+03  0.00000000000E+00 0. -1.
          6    1    1    2  502    0  0.29857422528E+02 -0.45965070619E+02 -0.20944401496E+03  0.27650506107E+03  0.17200000000E+03 0.  1.
         -6    1    1    2    0  501 -0.29857422528E+02  0.45965070619E+02 -0.15462978309E+03  0.23769439037E+03  0.17200000000E+03 0. -1.
<mgrwt>
<rscale>  2 0.18052217E+03</rscale>
<asrwt>0</asrwt>
<pdfrwt beam="1">  1        2 0.10978415E+00 0.18052217E+03</pdfrwt>
<pdfrwt beam="2">  1       -2 0.18765707E-01 0.18052217E+03</pdfrwt>
<totfact> 0.96284975E+02</totfact>
</mgrwt>
</event>
<event>
 4    1  0.3889096E-001  0.1957415E+03  0.7546771E-02  0.1153382E+00
         -1   -1    0    0    0  501 -0.00000000000E+00  0.00000000000E+00  0.58275742405E+02  0.58275742405E+02  0.00000000000E+00 0.  1.
          1   -1    0    0  502    0  0.00000000000E+00 -0.00000000000E+00 -0.66779726683E+03  0.66779726683E+03  0.00000000000E+00 0. -1.
          6    1    1    2  502    0  0.38323210396E+02 -0.85217855471E+02 -0.25962208077E+03  0.32514362391E+03  0.17200000000E+03 0. -1.
         -6    1    1    2    0  501 -0.38323210396E+02  0.85217855471E+02 -0.34989944366E+03  0.40092938533E+03  0.17200000000E+03 0. -1.
<mgrwt>
<rscale>  2 0.19574154E+03</rscale>
<asrwt>0</asrwt>
<pdfrwt beam="1">  1        1 0.16694931E+00 0.19574154E+03</pdfrwt>
<pdfrwt beam="2">  1       -1 0.14568936E-01 0.19574154E+03</pdfrwt>
<totfact> 0.47204822E+02</totfact>
</mgrwt>
</event>
<event>
 4    1  0.3889096E-001  0.2324207E+03  0.7546771E-02  0.1124947E+00
         -2   -1    0    0    0  501 -0.00000000000E+00  0.00000000000E+00  0.10204761705E+03  0.10204761705E+03  0.00000000000E+00 0.  1.
          2   -1    0    0  502    0  0.00000000000E+00 -0.00000000000E+00 -0.54607093065E+03  0.54607093065E+03  0.00000000000E+00 0. -1.
          6    1    1    2  502    0 -0.13694781465E+03 -0.75370375425E+02 -0.16531367358E+03  0.28521572204E+03  0.17200000000E+03 0.  1.
         -6    1    1    2    0  501  0.13694781465E+03  0.75370375425E+02 -0.27870964002E+03  0.36290282566E+03  0.17200000000E+03 0. -1.
<mgrwt>
<rscale>  2 0.23242073E+03</rscale>
<asrwt>0</asrwt>
<pdfrwt beam="1">  1        2 0.13651773E+00 0.23242073E+03</pdfrwt>
<pdfrwt beam="2">  1       -2 0.25511905E-01 0.23242073E+03</pdfrwt>
<totfact> 0.42870345E+02</totfact>
</mgrwt>
</event>
<event>
 4    1  0.3889096E-001  0.1973612E+03  0.7546771E-02  0.1151985E+00
         -1   -1    0    0    0  501 -0.00000000000E+00  0.00000000000E+00  0.31804079327E+02  0.31804079327E+02  0.00000000000E+00 0.  1.
          1   -1    0    0  502    0  0.00000000000E+00 -0.00000000000E+00 -0.17316396669E+04  0.17316396669E+04  0.00000000000E+00 0. -1.
          6    1    1    2  502    0 -0.16745859502E+02 -0.95325773669E+02 -0.37286338774E+03  0.42187502042E+03  0.17200000000E+03 0.  1.
         -6    1    1    2    0  501  0.16745859502E+02  0.95325773669E+02 -0.13269721998E+04  0.13415687258E+04  0.17200000000E+03 0. -1.
<mgrwt>
<rscale>  2 0.19736116E+03</rscale>
<asrwt>0</asrwt>
<pdfrwt beam="1">  1        1 0.43290992E+00 0.19736116E+03</pdfrwt>
<pdfrwt beam="2">  1       -1 0.79510198E-02 0.19736116E+03</pdfrwt>
<totfact> 0.87100074E+01</totfact>
</mgrwt>
</event>
<event>
 4    1  0.3889096E-001  0.1753685E+03  0.7546771E-02  0.1172362E+00
          2   -1    0    0  502    0  0.00000000000E+00  0.00000000000E+00  0.79900788343E+02  0.79900788343E+02  0.00000000000E+00 0.  1.
         -2   -1    0    0    0  501 -0.00000000000E+00 -0.00000000000E+00 -0.38662502057E+03  0.38662502057E+03  0.00000000000E+00 0. -1.
          6    1    1    2  502    0 -0.10446925070E+02  0.32572395151E+02 -0.13779718491E+03  0.22302951226E+03  0.17200000000E+03 0.  1.
         -6    1    1    2    0  501  0.10446925070E+02 -0.32572395151E+02 -0.16892704732E+03  0.24349629665E+03  0.17200000000E+03 0.  1.
<mgrwt>
<rscale>  2 0.17536847E+03</rscale>
<asrwt>0</asrwt>
<pdfrwt beam="1">  1        2 0.19975197E-01 0.17536847E+03</pdfrwt>
<pdfrwt beam="2">  1       -2 0.96656254E-01 0.17536847E+03</pdfrwt>
<totfact> 0.25903045E+02</totfact>
</mgrwt>
</event>
<event>
 4    1  0.3889096E-001  0.1803661E+03  0.7546771E-02  0.1167449E+00
          2   -1    0    0  502    0  0.00000000000E+00  0.00000000000E+00  0.57259872424E+03  0.57259872424E+03  0.00000000000E+00 0.  1.
         -2   -1    0    0    0  501 -0.00000000000E+00 -0.00000000000E+00 -0.58002777433E+02  0.58002777433E+02  0.00000000000E+00 0. -1.
          6    1    1    2  502    0  0.23946747293E+02  0.48728671890E+02  0.21216923768E+03  0.27847390468E+03  0.17200000000E+03 0. -1.
         -6    1    1    2    0  501 -0.23946747293E+02 -0.48728671890E+02  0.30242670913E+03  0.35212759700E+03  0.17200000000E+03 0. -1.
<mgrwt>
<rscale>  2 0.18036610E+03</rscale>
<asrwt>0</asrwt>
<pdfrwt beam="1">  1        2 0.14314966E+00 0.18036610E+03</pdfrwt>
<pdfrwt beam="2">  1       -2 0.14500696E-01 0.18036610E+03</pdfrwt>
<totfact> 0.10551686E+03</totfact>
</mgrwt>
</event>
<event>
 4    1  0.3889096E-001  0.1991066E+03  0.7546771E-02  0.1150495E+00
          1   -1    0    0  502    0  0.00000000000E+00  0.00000000000E+00  0.37149781826E+03  0.37149781826E+03  0.00000000000E+00 0. -1.
         -1   -1    0    0    0  501 -0.00000000000E+00 -0.00000000000E+00 -0.14210780539E+03  0.14210780539E+03  0.00000000000E+00 0.  1.
          6    1    1    2  502    0 -0.97448915255E+02 -0.23731063087E+02  0.24285832597E+03  0.31404397930E+03  0.17200000000E+03 0. -1.
         -6    1    1    2    0  501  0.97448915255E+02  0.23731063087E+02 -0.13468313109E+02  0.19956164435E+03  0.17200000000E+03 0. -1.
<mgrwt>
<rscale>  2 0.19910664E+03</rscale>
<asrwt>0</asrwt>
<pdfrwt beam="1">  1        1 0.92874453E-01 0.19910664E+03</pdfrwt>
<pdfrwt beam="2">  1       -1 0.35526952E-01 0.19910664E+03</pdfrwt>
<totfact> 0.27039800E+02</totfact>
</mgrwt>
</event>
<event>
 4    1  0.3889096E-001  0.1827220E+03  0.7546771E-02  0.1165194E+00
         -2   -1    0    0    0  501 -0.00000000000E+00  0.00000000000E+00  0.42168588709E+02  0.42168588709E+02  0.00000000000E+00 0.  1.
          2   -1    0    0  502    0  0.00000000000E+00 -0.00000000000E+00 -0.12067515566E+04  0.12067515566E+04  0.00000000000E+00 0. -1.
          6    1    1    2  502    0  0.44515626777E+02 -0.42681257020E+02 -0.21609324319E+03  0.28299049539E+03  0.17200000000E+03 0.  1.
         -6    1    1    2    0  501 -0.44515626777E+02  0.42681257020E+02 -0.94848972467E+03  0.96592964989E+03  0.17200000000E+03 0. -1.
<mgrwt>
<rscale>  2 0.18272200E+03</rscale>
<asrwt>0</asrwt>
<pdfrwt beam="1">  1        2 0.30168787E+00 0.18272200E+03</pdfrwt>
<pdfrwt beam="2">  1       -2 0.10542148E-01 0.18272200E+03</pdfrwt>
<totfact> 0.48480263E+02</totfact>
</mgrwt>
</event>
<event>
 4    1  0.3889096E-001  0.3147820E+03  0.7546771E-02  0.1078076E+00
          1   -1    0    0  502    0  0.00000000000E+00  0.00000000000E+00  0.61935665103E+03  0.61935665103E+03  0.00000000000E+00 0. -1.
         -1   -1    0    0    0  501 -0.00000000000E+00 -0.00000000000E+00 -0.16061384286E+03  0.16061384286E+03  0.00000000000E+00 0.  1.
          6    1    1    2  502    0  0.10717713789E+03  0.24086674725E+03  0.25377494501E+03  0.40433828848E+03  0.17200000000E+03 0. -1.
         -6    1    1    2    0  501 -0.10717713789E+03 -0.24086674725E+03  0.20496786316E+03  0.37563220542E+03  0.17200000000E+03 0.  1.
<mgrwt>
<rscale>  2 0.31478203E+03</rscale>
<asrwt>0</asrwt>
<pdfrwt beam="1">  1        1 0.15483916E+00 0.31478203E+03</pdfrwt>
<pdfrwt beam="2">  1       -1 0.40153462E-01 0.31478203E+03</pdfrwt>
<totfact> 0.97344926E+01</totfact>
</mgrwt>
</event>
<event>
 4    1  0.3889096E-001  0.1769698E+03  0.7546771E-02  0.1170768E+00
          1   -1    0    0  502    0  0.00000000000E+00  0.00000000000E+00  0.68081269138E+03  0.68081269138E+03  0.00000000000E+00 0. -1.
         -1   -1    0    0    0  501 -0.00000000000E+00 -0.00000000000E+00 -0.48120550574E+02  0.48120550574E+02  0.00000000000E+00 0.  1.
          6    1    1    2  502    0 -0.36101315924E+02  0.20761055499E+02  0.39283083874E+03  0.43085310060E+03  0.17200000000E+03 0. -1.
         -6    1    1    2    0  501  0.36101315924E+02 -0.20761055499E+02  0.23986130206E+03  0.29808014135E+03  0.17200000000E+03 0. -1.
<mgrwt>
<rscale>  2 0.17696985E+03</rscale>
<asrwt>0</asrwt>
<pdfrwt beam="1">  1        1 0.17020314E+00 0.17696985E+03</pdfrwt>
<pdfrwt beam="2">  1       -1 0.12030140E-01 0.17696985E+03</pdfrwt>
<totfact> 0.61664490E+02</totfact>
</mgrwt>
</event>
<event>
 4    1  0.3889096E-001  0.1828976E+03  0.7546771E-02  0.1165028E+00
          2   -1    0    0  502    0  0.00000000000E+00  0.00000000000E+00  0.25363945753E+04  0.25363945753E+04  0.00000000000E+00 0.  1.
         -2   -1    0    0    0  501 -0.00000000000E+00 -0.00000000000E+00 -0.13411922192E+02  0.13411922192E+02  0.00000000000E+00 0. -1.
          6    1    1    2  502    0 -0.55112924618E+02 -0.28811473390E+02  0.10969853923E+04  0.11121279092E+04  0.17200000000E+03 0.  1.
         -6    1    1    2    0  501  0.55112924618E+02  0.28811473390E+02  0.14259972608E+04  0.14376785883E+04  0.17200000000E+03 0. -1.
<mgrwt>
<rscale>  2 0.18289761E+03</rscale>
<asrwt>0</asrwt>
<pdfrwt beam="1">  1        2 0.63409701E+00 0.18289761E+03</pdfrwt>
<pdfrwt beam="2">  1       -2 0.33529892E-02 0.18289761E+03</pdfrwt>
<totfact> 0.13461656E+02</totfact>
</mgrwt>
</event>
<event>
 4    1  0.3889096E-001  0.1902734E+03  0.7546771E-02  0.1158215E+00
         -2   -1    0    0    0  501 -0.00000000000E+00  0.00000000000E+00  0.13913653596E+03  0.13913653596E+03  0.00000000000E+00 0.  1.
          2   -1    0    0  502    0  0.00000000000E+00 -0.00000000000E+00 -0.26943115972E+03  0.26943115972E+03  0.00000000000E+00 0. -1.
          6    1    1    2  502    0  0.22485269959E+02  0.78194582388E+02 -0.10295044123E+03  0.21633948652E+03  0.17200000000E+03 0. -1.
         -6    1    1    2    0  501 -0.22485269959E+02 -0.78194582388E+02 -0.27344182527E+02  0.19222820916E+03  0.17200000000E+03 0.  1.
<mgrwt>
<rscale>  2 0.19027344E+03</rscale>
<asrwt>0</asrwt>
<pdfrwt beam="1">  1        2 0.67357789E-01 0.19027344E+03</pdfrwt>
<pdfrwt beam="2">  1       -2 0.34784134E-01 0.19027344E+03</pdfrwt>
<totfact> 0.56448717E+02</totfact>
</mgrwt>
</event>
<event>
 4    1  0.3889096E-001  0.1911129E+03  0.7546771E-02  0.1157461E+00
         -1   -1    0    0    0  501 -0.00000000000E+00  0.00000000000E+00  0.58338030573E+02  0.58338030573E+02  0.00000000000E+00 0. -1.
          1   -1    0    0  502    0  0.00000000000E+00 -0.00000000000E+00 -0.68131525010E+03  0.68131525010E+03  0.00000000000E+00 0.  1.
          6    1    1    2  502    0  0.75065830190E+02  0.36128482887E+02 -0.41679165439E+03  0.45851873387E+03  0.17200000000E+03 0. -1.
         -6    1    1    2    0  501 -0.75065830190E+02 -0.36128482887E+02 -0.20618556514E+03  0.28113454681E+03  0.17200000000E+03 0. -1.
<mgrwt>
<rscale>  2 0.19111291E+03</rscale>
<asrwt>0</asrwt>
<pdfrwt beam="1">  1        1 0.17032881E+00 0.19111291E+03</pdfrwt>
<pdfrwt beam="2">  1       -1 0.14584508E-01 0.19111291E+03</pdfrwt>
<totfact> 0.45480285E+02</totfact>
</mgrwt>
</event>
<event>
 4    1  0.3889096E-001  0.2683514E+03  0.7546771E-02  0.1102227E+00
         -2   -1    0    0    0  501 -0.00000000000E+00  0.00000000000E+00  0.90751736291E+02  0.90751736291E+02  0.00000000000E+00 0. -1.
          2   -1    0    0  502    0  0.00000000000E+00 -0.00000000000E+00 -0.10139042206E+04  0.10139042206E+04  0.00000000000E+00 0.  1.
          6    1    1    2  502    0 -0.13427220731E+03  0.15620320123E+03 -0.20406388366E+03  0.33712688167E+03  0.17200000000E+03 0. -1.
         -6    1    1    2    0  501  0.13427220731E+03 -0.15620320123E+03 -0.71908860067E+03  0.76752907524E+03  0.17200000000E+03 0.  1.
<mgrwt>
<rscale>  2 0.26835138E+03</rscale>
<asrwt>0</asrwt>
<pdfrwt beam="1">  1        2 0.25347606E+00 0.26835138E+03</pdfrwt>
<pdfrwt beam="2">  1       -2 0.22687934E-01 0.26835138E+03</pdfrwt>
<totfact> 0.19383592E+02</totfact>
</mgrwt>
</event>
<event>
 4    1  0.3889096E-001  0.2401209E+03  0.7546771E-02  0.1119712E+00
         -2   -1    0    0    0  501 -0.00000000000E+00  0.00000000000E+00  0.16543618576E+03  0.16543618576E+03  0.00000000000E+00 0. -1.
          2   -1    0    0  502    0  0.00000000000E+00 -0.00000000000E+00 -0.51003753092E+03  0.51003753092E+03  0.00000000000E+00 0.  1.
          6    1    1    2  502    0  0.16442159760E+03 -0.32242392376E+02 -0.36235837944E+03  0.43469716904E+03  0.17200000000E+03 0.  1.
         -6    1    1    2    0  501 -0.16442159760E+03  0.32242392376E+02  0.17757034276E+02  0.24077654764E+03  0.17200000000E+03 0. -1.
<mgrwt>
<rscale>  2 0.24012087E+03</rscale>
<asrwt>0</asrwt>
<pdfrwt beam="1">  1        2 0.12750938E+00 0.24012087E+03</pdfrwt>
<pdfrwt beam="2">  1       -2 0.41359047E-01 0.24012087E+03</pdfrwt>
<totfact> 0.19207601E+02</totfact>
</mgrwt>
</event>
<event>
 4    1  0.3889096E-001  0.3582737E+03  0.7546771E-02  0.1059269E+00
         -1   -1    0    0    0  501 -0.00000000000E+00  0.00000000000E+00  0.55227968358E+03  0.55227968358E+03  0.00000000000E+00 0.  1.
          1   -1    0    0  502    0  0.00000000000E+00 -0.00000000000E+00 -0.32134045947E+03  0.32134045947E+03  0.00000000000E+00 0. -1.
          6    1    1    2  502    0 -0.35957600724E+02  0.31222288352E+03  0.34525064337E+03  0.49755209254E+03  0.17200000000E+03 0.  1.
         -6    1    1    2    0  501  0.35957600724E+02 -0.31222288352E+03 -0.11431141926E+03  0.37606805051E+03  0.17200000000E+03 0. -1.
<mgrwt>
<rscale>  2 0.35827375E+03</rscale>
<asrwt>0</asrwt>
<pdfrwt beam="1">  1        1 0.80335115E-01 0.35827375E+03</pdfrwt>
<pdfrwt beam="2">  1       -1 0.13806992E+00 0.35827375E+03</pdfrwt>
<totfact> 0.19791407E+01</totfact>
</mgrwt>
</event>
<event>
 4    1  0.3889096E-001  0.2017267E+03  0.7546771E-02  0.1148290E+00
          1   -1    0    0  502    0  0.00000000000E+00  0.00000000000E+00  0.17145557371E+03  0.17145557371E+03  0.00000000000E+00 0.  1.
         -1   -1    0    0    0  501 -0.00000000000E+00 -0.00000000000E+00 -0.98850266369E+03  0.98850266369E+03  0.00000000000E+00 0. -1.
          6    1    1    2  502    0  0.88414955819E+02 -0.57379781508E+02  0.97056349920E+02  0.22386062360E+03  0.17200000000E+03 0.  1.
         -6    1    1    2    0  501 -0.88414955819E+02  0.57379781508E+02 -0.91410343990E+03  0.93609761381E+03  0.17200000000E+03 0. -1.
<mgrwt>
<rscale>  2 0.20172666E+03</rscale>
<asrwt>0</asrwt>
<pdfrwt beam="1">  1        1 0.42863894E-01 0.20172666E+03</pdfrwt>
<pdfrwt beam="2">  1       -1 0.24712566E+00 0.20172666E+03</pdfrwt>
<totfact> 0.82936904E+00</totfact>
</mgrwt>
</event>
<event>
 4    1  0.3889096E-001  0.1907396E+03  0.7546771E-02  0.1157796E+00
         -1   -1    0    0    0  501 -0.00000000000E+00  0.00000000000E+00  0.65401013471E+02  0.65401013471E+02  0.00000000000E+00 0.  1.
          1   -1    0    0  502    0  0.00000000000E+00 -0.00000000000E+00 -0.10434044668E+04  0.10434044668E+04  0.00000000000E+00 0. -1.
          6    1    1    2  502    0 -0.76209014187E+02 -0.31460494810E+02 -0.11019564428E+03  0.22028312826E+03  0.17200000000E+03 0.  1.
         -6    1    1    2    0  501  0.76209014187E+02  0.31460494810E+02 -0.86780780900E+03  0.88852235197E+03  0.17200000000E+03 0. -1.
<mgrwt>
<rscale>  2 0.19073955E+03</rscale>
<asrwt>0</asrwt>
<pdfrwt beam="1">  1        1 0.26085112E+00 0.19073955E+03</pdfrwt>
<pdfrwt beam="2">  1       -1 0.16350253E-01 0.19073955E+03</pdfrwt>
<totfact> 0.15322838E+02</totfact>
</mgrwt>
</event>
<event>
 4    1  0.3889096E-001  0.1906729E+03  0.7546771E-02  0.1157856E+00
         -2   -1    0    0    0  501 -0.00000000000E+00  0.00000000000E+00  0.40675766559E+02  0.40675766559E+02  0.00000000000E+00 0. -1.
          2   -1    0    0  502    0  0.00000000000E+00 -0.00000000000E+00 -0.11239913363E+04  0.11239913363E+04  0.00000000000E+00 0.  1.
          6    1    1    2  502    0  0.42911383976E+02  0.70219525599E+02 -0.27812727014E+03  0.33721053816E+03  0.17200000000E+03 0. -1.
         -6    1    1    2    0  501 -0.42911383976E+02 -0.70219525599E+02 -0.80518829961E+03  0.82745656470E+03  0.17200000000E+03 0.  1.
<mgrwt>
<rscale>  2 0.19067294E+03</rscale>
<asrwt>0</asrwt>
<pdfrwt beam="1">  1        2 0.28099785E+00 0.19067294E+03</pdfrwt>
<pdfrwt beam="2">  1       -2 0.10168941E-01 0.19067294E+03</pdfrwt>
<totfact> 0.60153844E+02</totfact>
</mgrwt>
</event>
<event>
 4    1  0.3889096E-001  0.1821423E+03  0.7546771E-02  0.1165746E+00
          1   -1    0    0  502    0  0.00000000000E+00  0.00000000000E+00  0.24261694600E+03  0.24261694600E+03  0.00000000000E+00 0. -1.
         -1   -1    0    0    0  501 -0.00000000000E+00 -0.00000000000E+00 -0.65760721530E+03  0.65760721530E+03  0.00000000000E+00 0.  1.
          6    1    1    2  502    0 -0.44150270665E+02  0.40528613784E+02 -0.60808527282E+03  0.63477831875E+03  0.17200000000E+03 0.  1.
         -6    1    1    2    0  501  0.44150270665E+02 -0.40528613784E+02  0.19309500352E+03  0.26544584254E+03  0.17200000000E+03 0. -1.
<mgrwt>
<rscale>  2 0.18214229E+03</rscale>
<asrwt>0</asrwt>
<pdfrwt beam="1">  1        1 0.60654237E-01 0.18214229E+03</pdfrwt>
<pdfrwt beam="2">  1       -1 0.16440180E+00 0.18214229E+03</pdfrwt>
<totfact> 0.19107952E+01</totfact>
</mgrwt>
</event>
<event>
 4    1  0.3889096E-001  0.2402366E+03  0.7546771E-02  0.1119635E+00
         -3   -1    0    0    0  501 -0.00000000000E+00  0.00000000000E+00  0.16339490102E+03  0.16339490102E+03  0.00000000000E+00 0. -1.
          3   -1    0    0  502    0  0.00000000000E+00 -0.00000000000E+00 -0.36512346965E+03  0.36512346965E+03  0.00000000000E+00 0.  1.
          6    1    1    2  502    0  0.11021841384E+03  0.12641801674E+03 -0.14858740645E+03  0.28247447860E+03  0.17200000000E+03 0.  1.
         -6    1    1    2    0  501 -0.11021841384E+03 -0.12641801674E+03 -0.53141162187E+02  0.24604389207E+03  0.17200000000E+03 0. -1.
<mgrwt>
<rscale>  2 0.24023658E+03</rscale>
<asrwt>0</asrwt>
<pdfrwt beam="1">  1        3 0.91280867E-01 0.24023658E+03</pdfrwt>
<pdfrwt beam="2">  1       -3 0.40848725E-01 0.24023658E+03</pdfrwt>
<totfact> 0.16382775E+01</totfact>
</mgrwt>
</event>
<event>
 4    1  0.3889096E-001  0.2300085E+03  0.7546771E-02  0.1126634E+00
          3   -1    0    0  502    0  0.00000000000E+00  0.00000000000E+00  0.57189211908E+03  0.57189211908E+03  0.00000000000E+00 0.  1.
         -3   -1    0    0    0  501 -0.00000000000E+00 -0.00000000000E+00 -0.11070178777E+03  0.11070178777E+03  0.00000000000E+00 0. -1.
          6    1    1    2  502    0  0.14900472334E+03 -0.33429406083E+02  0.92228810556E+02  0.24781058546E+03  0.17200000000E+03 0. -1.
         -6    1    1    2    0  501 -0.14900472334E+03  0.33429406083E+02  0.36896152075E+03  0.43478332140E+03  0.17200000000E+03 0.  1.
<mgrwt>
<rscale>  2 0.23000855E+03</rscale>
<asrwt>0</asrwt>
<pdfrwt beam="1">  1        3 0.14297302E+00 0.23000855E+03</pdfrwt>
<pdfrwt beam="2">  1       -3 0.27675449E-01 0.23000855E+03</pdfrwt>
<totfact> 0.11873339E+01</totfact>
</mgrwt>
</event>
<event>
 4    1  0.3889096E-001  0.1772828E+03  0.7546771E-02  0.1170459E+00
          1   -1    0    0  502    0  0.00000000000E+00  0.00000000000E+00  0.61963070943E+02  0.61963070943E+02  0.00000000000E+00 0. -1.
         -1   -1    0    0    0  501 -0.00000000000E+00 -0.00000000000E+00 -0.57916238883E+03  0.57916238883E+03  0.00000000000E+00 0.  1.
          6    1    1    2  502    0 -0.29601815178E+02 -0.31127432233E+02 -0.37157713064E+03  0.41170225712E+03  0.17200000000E+03 0.  1.
         -6    1    1    2    0  501  0.29601815178E+02  0.31127432233E+02 -0.14562218725E+03  0.22942320266E+03  0.17200000000E+03 0. -1.
<mgrwt>
<rscale>  2 0.17728278E+03</rscale>
<asrwt>0</asrwt>
<pdfrwt beam="1">  1        1 0.15490768E-01 0.17728278E+03</pdfrwt>
<pdfrwt beam="2">  1       -1 0.14479060E+00 0.17728278E+03</pdfrwt>
<totfact> 0.15029375E+02</totfact>
</mgrwt>
</event>
<event>
 4    1  0.3889096E-001  0.1732021E+03  0.7546771E-02  0.1174549E+00
         -2   -1    0    0    0  501 -0.00000000000E+00  0.00000000000E+00  0.24372701977E+02  0.24372701977E+02  0.00000000000E+00 0. -1.
          2   -1    0    0  502    0  0.00000000000E+00 -0.00000000000E+00 -0.13864970993E+04  0.13864970993E+04  0.00000000000E+00 0.  1.
          6    1    1    2  502    0  0.15443023270E+02  0.13285058894E+02 -0.44470046838E+03  0.47723944340E+03  0.17200000000E+03 0. -1.
         -6    1    1    2    0  501 -0.15443023270E+02 -0.13285058894E+02 -0.91742392896E+03  0.93363035789E+03  0.17200000000E+03 0.  1.
<mgrwt>
<rscale>  2 0.17320214E+03</rscale>
<asrwt>0</asrwt>
<pdfrwt beam="1">  1        2 0.34662429E+00 0.17320214E+03</pdfrwt>
<pdfrwt beam="2">  1       -2 0.60931752E-02 0.17320214E+03</pdfrwt>
<totfact> 0.80331408E+02</totfact>
</mgrwt>
</event>
<event>
 4    1  0.3889096E-001  0.2147322E+03  0.7546771E-02  0.1137872E+00
          1   -1    0    0  502    0  0.00000000000E+00  0.00000000000E+00  0.10996580994E+04  0.10996580994E+04  0.00000000000E+00 0. -1.
         -1   -1    0    0    0  501 -0.00000000000E+00 -0.00000000000E+00 -0.43010945916E+02  0.43010945916E+02  0.00000000000E+00 0.  1.
          6    1    1    2  502    0  0.32744457452E+02  0.12431300250E+03  0.43779764093E+03  0.48762351921E+03  0.17200000000E+03 0.  1.
         -6    1    1    2    0  501 -0.32744457452E+02 -0.12431300250E+03  0.61884951255E+03  0.65504552611E+03  0.17200000000E+03 0. -1.
<mgrwt>
<rscale>  2 0.21473221E+03</rscale>
<asrwt>0</asrwt>
<pdfrwt beam="1">  1        1 0.27491443E+00 0.21473221E+03</pdfrwt>
<pdfrwt beam="2">  1       -1 0.10752740E-01 0.21473221E+03</pdfrwt>
<totfact> 0.25639879E+02</totfact>
</mgrwt>
</event>
<event>
 4    1  0.3889096E-001  0.2142508E+03  0.7546771E-02  0.1138243E+00
          2   -1    0    0  502    0  0.00000000000E+00  0.00000000000E+00  0.91081647055E+02  0.91081647055E+02  0.00000000000E+00 0.  1.
         -2   -1    0    0    0  501 -0.00000000000E+00 -0.00000000000E+00 -0.50409701924E+03  0.50409701924E+03  0.00000000000E+00 0. -1.
          6    1    1    2  502    0 -0.11649406782E+03 -0.52426644721E+02 -0.20199331161E+03  0.29445665020E+03  0.17200000000E+03 0.  1.
         -6    1    1    2    0  501  0.11649406782E+03  0.52426644721E+02 -0.21102206057E+03  0.30072201609E+03  0.17200000000E+03 0. -1.
<mgrwt>
<rscale>  2 0.21425084E+03</rscale>
<asrwt>0</asrwt>
<pdfrwt beam="1">  1        2 0.22770412E-01 0.21425084E+03</pdfrwt>
<pdfrwt beam="2">  1       -2 0.12602425E+00 0.21425084E+03</pdfrwt>
<totfact> 0.11883930E+02</totfact>
</mgrwt>
</event>
<event>
 4    1  0.3889096E-001  0.1960132E+03  0.7546771E-02  0.1153147E+00
          1   -1    0    0  502    0  0.00000000000E+00  0.00000000000E+00  0.37812112031E+03  0.37812112031E+03  0.00000000000E+00 0. -1.
         -1   -1    0    0    0  501 -0.00000000000E+00 -0.00000000000E+00 -0.15566609336E+03  0.15566609336E+03  0.00000000000E+00 0.  1.
          6    1    1    2  502    0 -0.89677735791E+01  0.93577552456E+02 -0.46047735286E+02  0.20134938096E+03  0.17200000000E+03 0.  1.
         -6    1    1    2    0  501  0.89677735791E+01 -0.93577552456E+02  0.26850276224E+03  0.33243783271E+03  0.17200000000E+03 0. -1.
<mgrwt>
<rscale>  2 0.19601321E+03</rscale>
<asrwt>0</asrwt>
<pdfrwt beam="1">  1        1 0.94530278E-01 0.19601321E+03</pdfrwt>
<pdfrwt beam="2">  1       -1 0.38916524E-01 0.19601321E+03</pdfrwt>
<totfact> 0.22511688E+02</totfact>
</mgrwt>
</event>
<event>
 4    1  0.3889096E-001  0.1734709E+03  0.7546771E-02  0.1174276E+00
         -2   -1    0    0    0  501 -0.00000000000E+00  0.00000000000E+00  0.10566043478E+03  0.10566043478E+03  0.00000000000E+00 0.  1.
          2   -1    0    0  502    0  0.00000000000E+00 -0.00000000000E+00 -0.37550063073E+03  0.37550063073E+03  0.00000000000E+00 0. -1.
          6    1    1    2  502    0  0.17548190051E+02 -0.14149109562E+02 -0.16681494038E+02  0.17427107769E+03  0.17200000000E+03 0.  1.
         -6    1    1    2    0  501 -0.17548190051E+02  0.14149109562E+02 -0.25315870190E+03  0.30688998782E+03  0.17200000000E+03 0. -1.
<mgrwt>
<rscale>  2 0.17347085E+03</rscale>
<asrwt>0</asrwt>
<pdfrwt beam="1">  1        2 0.93875157E-01 0.17347085E+03</pdfrwt>
<pdfrwt beam="2">  1       -2 0.26415109E-01 0.17347085E+03</pdfrwt>
<totfact> 0.64148182E+02</totfact>
</mgrwt>
</event>
<event>
 4    1  0.3889096E-001  0.1928344E+03  0.7546771E-02  0.1155929E+00
         -1   -1    0    0    0  501 -0.00000000000E+00  0.00000000000E+00  0.59075156005E+02  0.59075156005E+02  0.00000000000E+00 0. -1.
          1   -1    0    0  502    0  0.00000000000E+00 -0.00000000000E+00 -0.70090619740E+03  0.70090619740E+03  0.00000000000E+00 0.  1.
          6    1    1    2  502    0  0.85273093867E+02 -0.18155486947E+02 -0.19959080171E+03  0.27752767496E+03  0.17200000000E+03 0. -1.
         -6    1    1    2    0  501 -0.85273093867E+02  0.18155486947E+02 -0.44224023969E+03  0.48245367844E+03  0.17200000000E+03 0.  1.
<mgrwt>
<rscale>  2 0.19283444E+03</rscale>
<asrwt>0</asrwt>
<pdfrwt beam="1">  1        1 0.17522655E+00 0.19283444E+03</pdfrwt>
<pdfrwt beam="2">  1       -1 0.14768789E-01 0.19283444E+03</pdfrwt>
<totfact> 0.42320753E+02</totfact>
</mgrwt>
</event>
<event>
 4    1  0.3889096E-001  0.2709844E+03  0.7546771E-02  0.1100718E+00
          2   -1    0    0  502    0  0.00000000000E+00  0.00000000000E+00  0.39891725490E+03  0.39891725490E+03  0.00000000000E+00 0. -1.
         -2   -1    0    0    0  501 -0.00000000000E+00 -0.00000000000E+00 -0.30269073571E+03  0.30269073571E+03  0.00000000000E+00 0.  1.
          6    1    1    2  502    0  0.20704924511E+03 -0.31291399757E+02 -0.17148436573E+03  0.32068587323E+03  0.17200000000E+03 0.  1.
         -6    1    1    2    0  501 -0.20704924511E+03  0.31291399757E+02  0.26771088492E+03  0.38092211738E+03  0.17200000000E+03 0. -1.
<mgrwt>
<rscale>  2 0.27098439E+03</rscale>
<asrwt>0</asrwt>
<pdfrwt beam="1">  1        2 0.99729313E-01 0.27098439E+03</pdfrwt>
<pdfrwt beam="2">  1       -2 0.75672684E-01 0.27098439E+03</pdfrwt>
<totfact> 0.75086464E+01</totfact>
</mgrwt>
</event>
<event>
 4    1  0.3889096E-001  0.1766285E+03  0.7546771E-02  0.1171106E+00
          1   -1    0    0  502    0  0.00000000000E+00  0.00000000000E+00  0.82317639374E+03  0.82317639374E+03  0.00000000000E+00 0. -1.
         -1   -1    0    0    0  501 -0.00000000000E+00 -0.00000000000E+00 -0.41264426348E+02  0.41264426348E+02  0.00000000000E+00 0.  1.
          6    1    1    2  502    0  0.36736894724E+02  0.16248772492E+02  0.26752257699E+03  0.32057128886E+03  0.17200000000E+03 0.  1.
         -6    1    1    2    0  501 -0.36736894724E+02 -0.16248772492E+02  0.51438939040E+03  0.54386953123E+03  0.17200000000E+03 0. -1.
<mgrwt>
<rscale>  2 0.17662849E+03</rscale>
<asrwt>0</asrwt>
<pdfrwt beam="1">  1        1 0.20579404E+00 0.17662849E+03</pdfrwt>
<pdfrwt beam="2">  1       -1 0.10316109E-01 0.17662849E+03</pdfrwt>
<totfact> 0.54213003E+02</totfact>
</mgrwt>
</event>
<event>
 4    1  0.3889096E-001  0.1878843E+03  0.7546771E-02  0.1160384E+00
         -2   -1    0    0    0  501 -0.00000000000E+00  0.00000000000E+00  0.79723108061E+02  0.79723108061E+02  0.00000000000E+00 0. -1.
          2   -1    0    0  502    0  0.00000000000E+00 -0.00000000000E+00 -0.44694864189E+03  0.44694864189E+03  0.00000000000E+00 0.  1.
          6    1    1    2  502    0  0.74463756631E+02  0.13101572639E+02 -0.20901768074E+03  0.28104962750E+03  0.17200000000E+03 0. -1.
         -6    1    1    2    0  501 -0.74463756631E+02 -0.13101572639E+02 -0.15820785309E+03  0.24562212245E+03  0.17200000000E+03 0. -1.
<mgrwt>
<rscale>  2 0.18788428E+03</rscale>
<asrwt>0</asrwt>
<pdfrwt beam="1">  1        2 0.11173716E+00 0.18788428E+03</pdfrwt>
<pdfrwt beam="2">  1       -2 0.19930777E-01 0.18788428E+03</pdfrwt>
<totfact> 0.85095125E+02</totfact>
</mgrwt>
</event>
<event>
 4    1  0.3889096E-001  0.2374181E+03  0.7546771E-02  0.1121525E+00
          2   -1    0    0  502    0  0.00000000000E+00  0.00000000000E+00  0.95794451925E+03  0.95794451925E+03  0.00000000000E+00 0.  1.
         -2   -1    0    0    0  501 -0.00000000000E+00 -0.00000000000E+00 -0.59264062404E+02  0.59264062404E+02  0.00000000000E+00 0. -1.
          6    1    1    2  502    0 -0.10754614832E+03  0.12335795763E+03  0.49226212602E+03  0.54652480314E+03  0.17200000000E+03 0.  1.
         -6    1    1    2    0  501  0.10754614832E+03 -0.12335795763E+03  0.40641833082E+03  0.47068377851E+03  0.17200000000E+03 0.  1.
<mgrwt>
<rscale>  2 0.23741811E+03</rscale>
<asrwt>0</asrwt>
<pdfrwt beam="1">  1        2 0.23948608E+00 0.23741811E+03</pdfrwt>
<pdfrwt beam="2">  1       -2 0.14816019E-01 0.23741811E+03</pdfrwt>
<totfact> 0.44902227E+02</totfact>
</mgrwt>
</event>
<event>
 4    1  0.3889096E-001  0.1816030E+03  0.7546771E-02  0.1166261E+00
         -3   -1    0    0    0  501 -0.00000000000E+00  0.00000000000E+00  0.72496587226E+02  0.72496587226E+02  0.00000000000E+00 0. -1.
          3   -1    0    0  502    0  0.00000000000E+00 -0.00000000000E+00 -0.45867886176E+03  0.45867886176E+03  0.00000000000E+00 0.  1.
          6    1    1    2  502    0  0.55491336658E+02 -0.17786614639E+02 -0.16902667388E+03  0.24809205668E+03  0.17200000000E+03 0. -1.
         -6    1    1    2    0  501 -0.55491336658E+02  0.17786614639E+02 -0.21715560065E+03  0.28308339231E+03  0.17200000000E+03 0. -1.
<mgrwt>
<rscale>  2 0.18160301E+03</rscale>
<asrwt>0</asrwt>
<pdfrwt beam="1">  1        3 0.11466971E+00 0.18160301E+03</pdfrwt>
<pdfrwt beam="2">  1       -3 0.18124147E-01 0.18160301E+03</pdfrwt>
<totfact> 0.42748932E+01</totfact>
</mgrwt>
</event>
<event>
 4    1  0.3889096E-001  0.2500714E+03  0.7546771E-02  0.1113260E+00
          2   -1    0    0  502    0  0.00000000000E+00  0.00000000000E+00  0.16410567912E+04  0.16410567912E+04  0.00000000000E+00 0.  1.
         -2   -1    0    0    0  501 -0.00000000000E+00 -0.00000000000E+00 -0.39779636165E+02  0.39779636165E+02  0.00000000000E+00 0. -1.
          6    1    1    2  502    0 -0.17973801756E+03 -0.25415758699E+02  0.62830551970E+03  0.67624222127E+03  0.17200000000E+03 0.  1.
         -6    1    1    2    0  501  0.17973801756E+03  0.25415758699E+02  0.97297163538E+03  0.10045942061E+04  0.17200000000E+03 0. -1.
<mgrwt>
<rscale>  2 0.25007142E+03</rscale>
<asrwt>0</asrwt>
<pdfrwt beam="1">  1        2 0.41026397E+00 0.25007142E+03</pdfrwt>
<pdfrwt beam="2">  1       -2 0.99449146E-02 0.25007142E+03</pdfrwt>
<totfact> 0.21888955E+02</totfact>
</mgrwt>
</event>
<event>
 4    1  0.3889096E-001  0.1923334E+03  0.7546771E-02  0.1156373E+00
          2   -1    0    0  502    0  0.00000000000E+00  0.00000000000E+00  0.95492714884E+02  0.95492714884E+02  0.00000000000E+00 0. -1.
         -2   -1    0    0    0  501 -0.00000000000E+00 -0.00000000000E+00 -0.38777652081E+03  0.38777652081E+03  0.00000000000E+00 0.  1.
          6    1    1    2  502    0 -0.30262999699E+02  0.80574671621E+02 -0.15385249698E+03  0.24629802615E+03  0.17200000000E+03 0. -1.
         -6    1    1    2    0  501  0.30262999699E+02 -0.80574671621E+02 -0.13843130894E+03  0.23697120955E+03  0.17200000000E+03 0. -1.
<mgrwt>
<rscale>  2 0.19233337E+03</rscale>
<asrwt>0</asrwt>
<pdfrwt beam="1">  1        2 0.23873179E-01 0.19233337E+03</pdfrwt>
<pdfrwt beam="2">  1       -2 0.96944130E-01 0.19233337E+03</pdfrwt>
<totfact> 0.21035651E+02</totfact>
</mgrwt>
</event>
<event>
 4    1  0.3889096E-001  0.2159938E+03  0.7546771E-02  0.1136906E+00
         -1   -1    0    0    0  501 -0.00000000000E+00  0.00000000000E+00  0.54300916020E+02  0.54300916020E+02  0.00000000000E+00 0. -1.
          1   -1    0    0  502    0  0.00000000000E+00 -0.00000000000E+00 -0.88308029165E+03  0.88308029165E+03  0.00000000000E+00 0.  1.
          6    1    1    2  502    0  0.15738076955E+02  0.12969819451E+03 -0.33725547883E+03  0.40049290471E+03  0.17200000000E+03 0. -1.
         -6    1    1    2    0  501 -0.15738076955E+02 -0.12969819451E+03 -0.49152389680E+03  0.53688830295E+03  0.17200000000E+03 0. -1.
<mgrwt>
<rscale>  2 0.21599377E+03</rscale>
<asrwt>0</asrwt>
<pdfrwt beam="1">  1        1 0.22077008E+00 0.21599377E+03</pdfrwt>
<pdfrwt beam="2">  1       -1 0.13575229E-01 0.21599377E+03</pdfrwt>
<totfact> 0.30242471E+02</totfact>
</mgrwt>
</event>
<event>
 4    1  0.3889096E-001  0.3197099E+03  0.7546771E-02  0.1075783E+00
         -2   -1    0    0    0  501 -0.00000000000E+00  0.00000000000E+00  0.41434600240E+03  0.41434600240E+03  0.00000000000E+00 0. -1.
          2   -1    0    0  502    0  0.00000000000E+00 -0.00000000000E+00 -0.32070858012E+03  0.32070858012E+03  0.00000000000E+00 0.  1.
          6    1    1    2  502    0  0.88101341360E+02 -0.25469305947E+03 -0.12974808211E+03  0.34503473115E+03  0.17200000000E+03 0.  1.
         -6    1    1    2    0  501 -0.88101341360E+02  0.25469305947E+03  0.22338550439E+03  0.39001985137E+03  0.17200000000E+03 0. -1.
<mgrwt>
<rscale>  2 0.31970987E+03</rscale>
<asrwt>0</asrwt>
<pdfrwt beam="1">  1        2 0.80177145E-01 0.31970987E+03</pdfrwt>
<pdfrwt beam="2">  1       -2 0.10358650E+00 0.31970987E+03</pdfrwt>
<totfact> 0.47100331E+01</totfact>
</mgrwt>
</event>
<event>
 4    1  0.3889096E-001  0.1733462E+03  0.7546771E-02  0.1174403E+00
          1   -1    0    0  502    0  0.00000000000E+00  0.00000000000E+00  0.16984121981E+04  0.16984121981E+04  0.00000000000E+00 0. -1.
         -1   -1    0    0    0  501 -0.00000000000E+00 -0.00000000000E+00 -0.20503022839E+02  0.20503022839E+02  0.00000000000E+00 0.  1.
          6    1    1    2  502    0 -0.15119723055E+02 -0.15372122709E+02  0.11571694275E+04  0.11700811904E+04  0.17200000000E+03 0. -1.
         -6    1    1    2    0  501  0.15119723055E+02  0.15372122709E+02  0.52073974774E+03  0.54883403052E+03  0.17200000000E+03 0.  1.
<mgrwt>
<rscale>  2 0.17334621E+03</rscale>
<asrwt>0</asrwt>
<pdfrwt beam="1">  1        1 0.42460257E+00 0.17334621E+03</pdfrwt>
<pdfrwt beam="2">  1       -1 0.51257615E-02 0.17334621E+03</pdfrwt>
<totfact> 0.18534231E+02</totfact>
</mgrwt>
</event>
<event>
 4    1  0.3889096E-001  0.2629252E+03  0.7546771E-02  0.1105398E+00
          1   -1    0    0  502    0  0.00000000000E+00  0.00000000000E+00  0.36853070245E+03  0.36853070245E+03  0.00000000000E+00 0. -1.
         -1   -1    0    0    0  501 -0.00000000000E+00 -0.00000000000E+00 -0.48499955993E+03  0.48499955993E+03  0.00000000000E+00 0.  1.
          6    1    1    2  502    0  0.13785903750E+03 -0.14331978378E+03 -0.39243074714E+03  0.47236804077E+03  0.17200000000E+03 0.  1.
         -6    1    1    2    0  501 -0.13785903750E+03  0.14331978378E+03  0.27596188965E+03  0.38116222161E+03  0.17200000000E+03 0. -1.
<mgrwt>
<rscale>  2 0.26292523E+03</rscale>
<asrwt>0</asrwt>
<pdfrwt beam="1">  1        1 0.92132676E-01 0.26292523E+03</pdfrwt>
<pdfrwt beam="2">  1       -1 0.12124989E+00 0.26292523E+03</pdfrwt>
<totfact> 0.23183075E+01</totfact>
</mgrwt>
</event>
<event>
 4    1  0.3889096E-001  0.2544080E+03  0.7546771E-02  0.1110550E+00
         -2   -1    0    0    0  501 -0.00000000000E+00  0.00000000000E+00  0.85469619533E+02  0.85469619533E+02  0.00000000000E+00 0.  1.
          2   -1    0    0  502    0  0.00000000000E+00 -0.00000000000E+00 -0.79186743036E+03  0.79186743036E+03  0.00000000000E+00 0. -1.
          6    1    1    2  502    0 -0.18459709623E+03 -0.32609253703E+02 -0.44489303083E+03  0.51249708316E+03  0.17200000000E+03 0.  1.
         -6    1    1    2    0  501  0.18459709623E+03  0.32609253703E+02 -0.26150477999E+03  0.36483996673E+03  0.17200000000E+03 0.  1.
<mgrwt>
<rscale>  2 0.25440804E+03</rscale>
<asrwt>0</asrwt>
<pdfrwt beam="1">  1        2 0.19796685E+00 0.25440804E+03</pdfrwt>
<pdfrwt beam="2">  1       -2 0.21367405E-01 0.25440804E+03</pdfrwt>
<totfact> 0.33763839E+02</totfact>
</mgrwt>
</event>
<event>
 4    1  0.3889096E-001  0.1987736E+03  0.7546771E-02  0.1150778E+00
         -1   -1    0    0    0  501 -0.00000000000E+00  0.00000000000E+00  0.48996944577E+02  0.48996944577E+02  0.00000000000E+00 0.  1.
          1   -1    0    0  502    0  0.00000000000E+00 -0.00000000000E+00 -0.10311200235E+04  0.10311200235E+04  0.00000000000E+00 0. -1.
          6    1    1    2  502    0  0.37521456575E+02  0.92298835227E+02 -0.23893936692E+03  0.31081016031E+03  0.17200000000E+03 0.  1.
         -6    1    1    2    0  501 -0.37521456575E+02 -0.92298835227E+02 -0.74318371200E+03  0.76930680776E+03  0.17200000000E+03 0. -1.
<mgrwt>
<rscale>  2 0.19877358E+03</rscale>
<asrwt>0</asrwt>
<pdfrwt beam="1">  1        1 0.25777999E+00 0.19877358E+03</pdfrwt>
<pdfrwt beam="2">  1       -1 0.12249237E-01 0.19877358E+03</pdfrwt>
<totfact> 0.24814785E+02</totfact>
</mgrwt>
</event>
<event>
 4    1  0.3889096E-001  0.1826341E+03  0.7546771E-02  0.1165278E+00
          1   -1    0    0  502    0  0.00000000000E+00  0.00000000000E+00  0.20026388769E+03  0.20026388769E+03  0.00000000000E+00 0.  1.
         -1   -1    0    0    0  501 -0.00000000000E+00 -0.00000000000E+00 -0.18911439571E+03  0.18911439571E+03  0.00000000000E+00 0. -1.
          6    1    1    2  502    0  0.60509008330E+02  0.10482421147E+02 -0.61665642918E+02  0.19276377450E+03  0.17200000000E+03 0. -1.
         -6    1    1    2    0  501 -0.60509008330E+02 -0.10482421147E+02  0.72815134902E+02  0.19661450891E+03  0.17200000000E+03 0.  1.
<mgrwt>
<rscale>  2 0.18263412E+03</rscale>
<asrwt>0</asrwt>
<pdfrwt beam="1">  1        1 0.50065972E-01 0.18263412E+03</pdfrwt>
<pdfrwt beam="2">  1       -1 0.47278599E-01 0.18263412E+03</pdfrwt>
<totfact> 0.36434128E+02</totfact>
</mgrwt>
</event>
<event>
 4    1  0.3889096E-001  0.1736404E+03  0.7546771E-02  0.1174104E+00
         -1   -1    0    0    0  501 -0.00000000000E+00  0.00000000000E+00  0.11775896641E+03  0.11775896641E+03  0.00000000000E+00 0. -1.
          1   -1    0    0  502    0  0.00000000000E+00 -0.00000000000E+00 -0.25747888988E+03  0.25747888988E+03  0.00000000000E+00 0.  1.
          6    1    1    2  502    0  0.23326214532E+02 -0.47811759467E+01 -0.83886902704E+02  0.19284186364E+03  0.17200000000E+03 0.  1.
         -6    1    1    2    0  501 -0.23326214532E+02  0.47811759467E+01 -0.55833020769E+02  0.18239599265E+03  0.17200000000E+03 0. -1.
<mgrwt>
<rscale>  2 0.17364035E+03</rscale>
<asrwt>0</asrwt>
<pdfrwt beam="1">  1        1 0.64369722E-01 0.17364035E+03</pdfrwt>
<pdfrwt beam="2">  1       -1 0.29439742E-01 0.17364035E+03</pdfrwt>
<totfact> 0.60699675E+02</totfact>
</mgrwt>
</event>
<event>
 4    1  0.3889096E-001  0.1945060E+03  0.7546771E-02  0.1154459E+00
         -1   -1    0    0    0  501 -0.00000000000E+00  0.00000000000E+00  0.19333791037E+03  0.19333791037E+03  0.00000000000E+00 0. -1.
          1   -1    0    0  502    0  0.00000000000E+00 -0.00000000000E+00 -0.20963921949E+03  0.20963921949E+03  0.00000000000E+00 0.  1.
          6    1    1    2  502    0  0.41682767781E+02 -0.80691568018E+02 -0.60141514960E+02  0.20359170931E+03  0.17200000000E+03 0.  1.
         -6    1    1    2    0  501 -0.41682767781E+02  0.80691568018E+02  0.43840205837E+02  0.19938542055E+03  0.17200000000E+03 0. -1.
<mgrwt>
<rscale>  2 0.19450600E+03</rscale>
<asrwt>0</asrwt>
<pdfrwt beam="1">  1        1 0.52409805E-01 0.19450600E+03</pdfrwt>
<pdfrwt beam="2">  1       -1 0.48334478E-01 0.19450600E+03</pdfrwt>
<totfact> 0.33011090E+02</totfact>
</mgrwt>
</event>
<event>
 4    1  0.3889096E-001  0.2388242E+03  0.7546771E-02  0.1120579E+00
         -2   -1    0    0    0  501 -0.00000000000E+00  0.00000000000E+00  0.13425740981E+03  0.13425740981E+03  0.00000000000E+00 0. -1.
          2   -1    0    0  502    0  0.00000000000E+00 -0.00000000000E+00 -0.52337648342E+03  0.52337648342E+03  0.00000000000E+00 0.  1.
          6    1    1    2  502    0 -0.12178869691E+03 -0.11234114312E+03 -0.51880433046E+02  0.24439435032E+03  0.17200000000E+03 0. -1.
         -6    1    1    2    0  501  0.12178869691E+03  0.11234114312E+03 -0.33723864057E+03  0.41323954291E+03  0.17200000000E+03 0.  1.
<mgrwt>
<rscale>  2 0.23882424E+03</rscale>
<asrwt>0</asrwt>
<pdfrwt beam="1">  1        2 0.13084412E+00 0.23882424E+03</pdfrwt>
<pdfrwt beam="2">  1       -2 0.33564353E-01 0.23882424E+03</pdfrwt>
<totfact> 0.27560285E+02</totfact>
</mgrwt>
</event>
<event>
 4    1  0.3889096E-001  0.2181535E+03  0.7546771E-02  0.1135267E+00
         -2   -1    0    0    0  501 -0.00000000000E+00  0.00000000000E+00  0.29043609252E+02  0.29043609252E+02  0.00000000000E+00 0.  1.
          2   -1    0    0  502    0  0.00000000000E+00 -0.00000000000E+00 -0.16875558865E+04  0.16875558865E+04  0.00000000000E+00 0. -1.
          6    1    1    2  502    0  0.10633162876E+03 -0.81856714617E+02 -0.68307197911E+03  0.71706224670E+03  0.17200000000E+03 0.  1.
         -6    1    1    2    0  501 -0.10633162876E+03  0.81856714617E+02 -0.97544029811E+03  0.99953724902E+03  0.17200000000E+03 0. -1.
<mgrwt>
<rscale>  2 0.21815347E+03</rscale>
<asrwt>0</asrwt>
<pdfrwt beam="1">  1        2 0.42188894E+00 0.21815347E+03</pdfrwt>
<pdfrwt beam="2">  1       -2 0.72609028E-02 0.21815347E+03</pdfrwt>
<totfact> 0.32879157E+02</totfact>
</mgrwt>
</event>
<event>
 4    1  0.3889096E-001  0.3113713E+03  0.7546771E-02  0.1079690E+00
          1   -1    0    0  502    0  0.00000000000E+00  0.00000000000E+00  0.96021381547E+03  0.96021381547E+03  0.00000000000E+00 0.  1.
         -1   -1    0    0    0  501 -0.00000000000E+00 -0.00000000000E+00 -0.15152273315E+03  0.15152273315E+03  0.00000000000E+00 0. -1.
          6    1    1    2  502    0 -0.16360601672E+01  0.25954846222E+03  0.72542200975E+03  0.78942331684E+03  0.17200000000E+03 0.  1.
         -6    1    1    2    0  501  0.16360601672E+01 -0.25954846222E+03  0.83269072561E+02  0.32231323178E+03  0.17200000000E+03 0. -1.
<mgrwt>
<rscale>  2 0.31137129E+03</rscale>
<asrwt>0</asrwt>
<pdfrwt beam="1">  1        1 0.24005344E+00 0.31137129E+03</pdfrwt>
<pdfrwt beam="2">  1       -1 0.37880686E-01 0.31137129E+03</pdfrwt>
<totfact> 0.44465728E+01</totfact>
</mgrwt>
</event>
<event>
 4    1  0.3889096E-001  0.1794648E+03  0.7546771E-02  0.1168322E+00
          2   -1    0    0  502    0  0.00000000000E+00  0.00000000000E+00  0.79163001217E+03  0.79163001217E+03  0.00000000000E+00 0. -1.
         -2   -1    0    0    0  501 -0.00000000000E+00 -0.00000000000E+00 -0.40716029492E+02  0.40716029492E+02  0.00000000000E+00 0.  1.
          6    1    1    2  502    0  0.12819485232E+02  0.49590914796E+02  0.36399876194E+03  0.40583580020E+03  0.17200000000E+03 0.  1.
         -6    1    1    2    0  501 -0.12819485232E+02 -0.49590914796E+02  0.38691522074E+03  0.42651024146E+03  0.17200000000E+03 0. -1.
<mgrwt>
<rscale>  2 0.17946475E+03</rscale>
<asrwt>0</asrwt>
<pdfrwt beam="1">  1        2 0.19790745E+00 0.17946475E+03</pdfrwt>
<pdfrwt beam="2">  1       -2 0.10179010E-01 0.17946475E+03</pdfrwt>
<totfact> 0.11588615E+03</totfact>
</mgrwt>
</event>
<event>
 4    1  0.3889096E-001  0.1945892E+03  0.7546771E-02  0.1154386E+00
         -1   -1    0    0    0  501 -0.00000000000E+00  0.00000000000E+00  0.32962422519E+03  0.32962422519E+03  0.00000000000E+00 0. -1.
          1   -1    0    0  502    0  0.00000000000E+00 -0.00000000000E+00 -0.16899404978E+03  0.16899404978E+03  0.00000000000E+00 0.  1.
          6    1    1    2  502    0  0.10659345968E+02 -0.90373393549E+02  0.22140144077E+03  0.29476019048E+03  0.17200000000E+03 0. -1.
         -6    1    1    2    0  501 -0.10659345968E+02  0.90373393549E+02 -0.60771265362E+02  0.20385808449E+03  0.17200000000E+03 0.  1.
<mgrwt>
<rscale>  2 0.19458924E+03</rscale>
<asrwt>0</asrwt>
<pdfrwt beam="1">  1        1 0.42248513E-01 0.19458924E+03</pdfrwt>
<pdfrwt beam="2">  1       -1 0.82406055E-01 0.19458924E+03</pdfrwt>
<totfact> 0.15327010E+02</totfact>
</mgrwt>
</event>
<event>
 4    1  0.3889096E-001  0.2032723E+03  0.7546771E-02  0.1147007E+00
         -2   -1    0    0    0  501 -0.00000000000E+00  0.00000000000E+00  0.30022022500E+02  0.30022022500E+02  0.00000000000E+00 0.  1.
          2   -1    0    0  502    0  0.00000000000E+00 -0.00000000000E+00 -0.18054991727E+04  0.18054991727E+04  0.00000000000E+00 0. -1.
          6    1    1    2  502    0 -0.14540806639E+02 -0.10735085815E+03 -0.44027818148E+03  0.48493764433E+03  0.17200000000E+03 0.  1.
         -6    1    1    2    0  501  0.14540806639E+02  0.10735085815E+03 -0.13351989687E+04  0.13505835509E+04  0.17200000000E+03 0. -1.
<mgrwt>
<rscale>  2 0.20327233E+03</rscale>
<asrwt>0</asrwt>
<pdfrwt beam="1">  1        2 0.45137478E+00 0.20327233E+03</pdfrwt>
<pdfrwt beam="2">  1       -2 0.75055059E-02 0.20327233E+03</pdfrwt>
<totfact> 0.24404248E+02</totfact>
</mgrwt>
</event>
<event>
 4    1  0.3889096E-001  0.2034056E+03  0.7546771E-02  0.1146897E+00
          2   -1    0    0  502    0  0.00000000000E+00  0.00000000000E+00  0.97347223407E+02  0.97347223407E+02  0.00000000000E+00 0. -1.
         -2   -1    0    0    0  501 -0.00000000000E+00 -0.00000000000E+00 -0.50678380804E+03  0.50678380804E+03  0.00000000000E+00 0.  1.
          6    1    1    2  502    0  0.77998652937E+02  0.75538433270E+02 -0.32605401302E+03  0.38429814490E+03  0.17200000000E+03 0.  1.
         -6    1    1    2    0  501 -0.77998652937E+02 -0.75538433270E+02 -0.83382571608E+02  0.21983288655E+03  0.17200000000E+03 0. -1.
<mgrwt>
<rscale>  2 0.20340562E+03</rscale>
<asrwt>0</asrwt>
<pdfrwt beam="1">  1        2 0.24336806E-01 0.20340562E+03</pdfrwt>
<pdfrwt beam="2">  1       -2 0.12669595E+00 0.20340562E+03</pdfrwt>
<totfact> 0.10893954E+02</totfact>
</mgrwt>
</event>
<event>
 4    1  0.3889096E-001  0.3054842E+03  0.7546771E-02  0.1082531E+00
          2   -1    0    0  502    0  0.00000000000E+00  0.00000000000E+00  0.28376305505E+03  0.28376305505E+03  0.00000000000E+00 0.  1.
         -2   -1    0    0    0  501 -0.00000000000E+00 -0.00000000000E+00 -0.33449654816E+03  0.33449654816E+03  0.00000000000E+00 0. -1.
          6    1    1    2  502    0 -0.22056246743E+03  0.12283636986E+03  0.14733307639E+02  0.30583924888E+03  0.17200000000E+03 0.  1.
         -6    1    1    2    0  501  0.22056246743E+03 -0.12283636986E+03 -0.65466800749E+02  0.31242035433E+03  0.17200000000E+03 0. -1.
<mgrwt>
<rscale>  2 0.30548417E+03</rscale>
<asrwt>0</asrwt>
<pdfrwt beam="1">  1        2 0.70940764E-01 0.30548417E+03</pdfrwt>
<pdfrwt beam="2">  1       -2 0.83624137E-01 0.30548417E+03</pdfrwt>
<totfact> 0.88572667E+01</totfact>
</mgrwt>
</event>
<event>
 4    1  0.3889096E-001  0.2191854E+03  0.7546771E-02  0.1134492E+00
         -2   -1    0    0    0  501 -0.00000000000E+00  0.00000000000E+00  0.42055025045E+02  0.42055025045E+02  0.00000000000E+00 0.  1.
          2   -1    0    0  502    0  0.00000000000E+00 -0.00000000000E+00 -0.11831326834E+04  0.11831326834E+04  0.00000000000E+00 0. -1.
          6    1    1    2  502    0  0.13221350460E+03 -0.31270147353E+02 -0.45682629853E+03  0.50668777362E+03  0.17200000000E+03 0.  1.
         -6    1    1    2    0  501 -0.13221350460E+03  0.31270147353E+02 -0.68425135983E+03  0.71849993483E+03  0.17200000000E+03 0. -1.
<mgrwt>
<rscale>  2 0.21918538E+03</rscale>
<asrwt>0</asrwt>
<pdfrwt beam="1">  1        2 0.29578318E+00 0.21918538E+03</pdfrwt>
<pdfrwt beam="2">  1       -2 0.10513756E-01 0.21918538E+03</pdfrwt>
<totfact> 0.50558116E+02</totfact>
</mgrwt>
</event>
<event>
 4    1  0.3889096E-001  0.1767319E+03  0.7546771E-02  0.1171004E+00
          2   -1    0    0  502    0  0.00000000000E+00  0.00000000000E+00  0.97775057913E+03  0.97775057913E+03  0.00000000000E+00 0.  1.
         -2   -1    0    0    0  501 -0.00000000000E+00 -0.00000000000E+00 -0.57375369892E+02  0.57375369892E+02  0.00000000000E+00 0. -1.
          6    1    1    2  502    0 -0.29517751826E+02  0.27908390512E+02  0.11561767936E+03  0.21119096504E+03  0.17200000000E+03 0. -1.
         -6    1    1    2    0  501  0.29517751826E+02 -0.27908390512E+02  0.80475752988E+03  0.82393498399E+03  0.17200000000E+03 0.  1.
<mgrwt>
<rscale>  2 0.17673193E+03</rscale>
<asrwt>0</asrwt>
<pdfrwt beam="1">  1        2 0.24443759E+00 0.17673193E+03</pdfrwt>
<pdfrwt beam="2">  1       -2 0.14343846E-01 0.17673193E+03</pdfrwt>
<totfact> 0.46072727E+02</totfact>
</mgrwt>
</event>
<event>
 4    1  0.3889096E-001  0.1802018E+03  0.7546771E-02  0.1167608E+00
          1   -1    0    0  502    0  0.00000000000E+00  0.00000000000E+00  0.51234034965E+03  0.51234034965E+03  0.00000000000E+00 0. -1.
         -1   -1    0    0    0  501 -0.00000000000E+00 -0.00000000000E+00 -0.65966709934E+02  0.65966709934E+02  0.00000000000E+00 0.  1.
          6    1    1    2  502    0 -0.77277308736E+01  0.53188227873E+02  0.28043291566E+03  0.33333965500E+03  0.17200000000E+03 0. -1.
         -6    1    1    2    0  501  0.77277308736E+01 -0.53188227873E+02  0.16594072405E+03  0.24496740458E+03  0.17200000000E+03 0. -1.
<mgrwt>
<rscale>  2 0.18020185E+03</rscale>
<asrwt>0</asrwt>
<pdfrwt beam="1">  1        1 0.12808508E+00 0.18020185E+03</pdfrwt>
<pdfrwt beam="2">  1       -1 0.16491679E-01 0.18020185E+03</pdfrwt>
<totfact> 0.60371064E+02</totfact>
</mgrwt>
</event>
<event>
 4    1  0.3889096E-001  0.2329727E+03  0.7546771E-02  0.1124565E+00
         -2   -1    0    0    0  501 -0.00000000000E+00  0.00000000000E+00  0.21044122604E+03  0.21044122604E+03  0.00000000000E+00 0. -1.
          2   -1    0    0  502    0  0.00000000000E+00 -0.00000000000E+00 -0.27116547108E+03  0.27116547108E+03  0.00000000000E+00 0.  1.
          6    1    1    2  502    0  0.12985868786E+03 -0.88481569239E+02 -0.83589640433E+02  0.24751463572E+03  0.17200000000E+03 0.  1.
         -6    1    1    2    0  501 -0.12985868786E+03  0.88481569239E+02  0.22865395395E+02  0.23409206141E+03  0.17200000000E+03 0. -1.
<mgrwt>
<rscale>  2 0.23297267E+03</rscale>
<asrwt>0</asrwt>
<pdfrwt beam="1">  1        2 0.67791368E-01 0.23297267E+03</pdfrwt>
<pdfrwt beam="2">  1       -2 0.52610307E-01 0.23297267E+03</pdfrwt>
<totfact> 0.25128596E+02</totfact>
</mgrwt>
</event>
<event>
 4    1  0.3889096E-001  0.1992844E+03  0.7546771E-02  0.1150344E+00
          4   -1    0    0  502    0  0.00000000000E+00  0.00000000000E+00  0.23054459359E+03  0.23054459359E+03  0.00000000000E+00 0. -1.
         -4   -1    0    0    0  501 -0.00000000000E+00 -0.00000000000E+00 -0.20071941282E+03  0.20071941282E+03  0.00000000000E+00 0.  1.
          6    1    1    2  502    0  0.44727006750E+02 -0.90165261996E+02 -0.66278689955E+02  0.21001700966E+03  0.17200000000E+03 0.  1.
         -6    1    1    2    0  501 -0.44727006750E+02  0.90165261996E+02  0.96103870718E+02  0.22124699675E+03  0.17200000000E+03 0. -1.
<mgrwt>
<rscale>  2 0.19928442E+03</rscale>
<asrwt>0</asrwt>
<pdfrwt beam="1">  1        4 0.57636148E-01 0.19928442E+03</pdfrwt>
<pdfrwt beam="2">  1       -4 0.50179853E-01 0.19928442E+03</pdfrwt>
<totfact> 0.19725020E+01</totfact>
</mgrwt>
</event>
<event>
 4    1  0.3889096E-001  0.2951160E+03  0.7546771E-02  0.1087708E+00
          2   -1    0    0  502    0  0.00000000000E+00  0.00000000000E+00  0.28081699922E+03  0.28081699922E+03  0.00000000000E+00 0.  1.
         -2   -1    0    0    0  501 -0.00000000000E+00 -0.00000000000E+00 -0.55696291490E+03  0.55696291490E+03  0.00000000000E+00 0. -1.
          6    1    1    2  502    0  0.22678837858E+03  0.77951810632E+02 -0.41692692266E+03  0.51080476924E+03  0.17200000000E+03 0. -1.
         -6    1    1    2    0  501 -0.22678837858E+03 -0.77951810632E+02  0.14078100698E+03  0.32697514488E+03  0.17200000000E+03 0.  1.
<mgrwt>
<rscale>  2 0.29511600E+03</rscale>
<asrwt>0</asrwt>
<pdfrwt beam="1">  1        2 0.70204251E-01 0.29511600E+03</pdfrwt>
<pdfrwt beam="2">  1       -2 0.13924073E+00 0.29511600E+03</pdfrwt>
<totfact> 0.26676595E+01</totfact>
</mgrwt>
</event>
<event>
 4    1  0.3889096E-001  0.2899566E+03  0.7546771E-02  0.1090372E+00
         -2   -1    0    0    0  501 -0.00000000000E+00  0.00000000000E+00  0.25170441893E+03  0.25170441893E+03  0.00000000000E+00 0.  1.
          2   -1    0    0  502    0  0.00000000000E+00 -0.00000000000E+00 -0.81848848840E+03  0.81848848840E+03  0.00000000000E+00 0. -1.
          6    1    1    2  502    0  0.13349236853E+03 -0.19149574014E+03  0.12828593240E+03  0.31706799176E+03  0.17200000000E+03 0.  1.
         -6    1    1    2    0  501 -0.13349236853E+03  0.19149574014E+03 -0.69507000187E+03  0.75312491557E+03  0.17200000000E+03 0. -1.
<mgrwt>
<rscale>  2 0.28995660E+03</rscale>
<asrwt>0</asrwt>
<pdfrwt beam="1">  1        2 0.20462212E+00 0.28995660E+03</pdfrwt>
<pdfrwt beam="2">  1       -2 0.62926105E-01 0.28995660E+03</pdfrwt>
<totfact> 0.40852725E+01</totfact>
</mgrwt>
</event>
<event>
 4    1  0.3889096E-001  0.2663109E+03  0.7546771E-02  0.1103410E+00
         -2   -1    0    0    0  501 -0.00000000000E+00  0.00000000000E+00  0.12107887738E+03  0.12107887738E+03  0.00000000000E+00 0. -1.
          2   -1    0    0  502    0  0.00000000000E+00 -0.00000000000E+00 -0.68198642668E+03  0.68198642668E+03  0.00000000000E+00 0.  1.
          6    1    1    2  502    0 -0.17514989165E+03  0.10324735099E+03 -0.43129191752E+03  0.50688679027E+03  0.17200000000E+03 0.  1.
         -6    1    1    2    0  501  0.17514989165E+03 -0.10324735099E+03 -0.12961563178E+03  0.29617851379E+03  0.17200000000E+03 0. -1.
<mgrwt>
<rscale>  2 0.26631091E+03</rscale>
<asrwt>0</asrwt>
<pdfrwt beam="1">  1        2 0.17049660E+00 0.26631091E+03</pdfrwt>
<pdfrwt beam="2">  1       -2 0.30269720E-01 0.26631091E+03</pdfrwt>
<totfact> 0.22952650E+02</totfact>
</mgrwt>
</event>
<event>
 4    1  0.3889096E-001  0.1923923E+03  0.7546771E-02  0.1156321E+00
         -2   -1    0    0    0  501 -0.00000000000E+00  0.00000000000E+00  0.26946269058E+02  0.26946269058E+02  0.00000000000E+00 0. -1.
          2   -1    0    0  502    0  0.00000000000E+00 -0.00000000000E+00 -0.13788329060E+04  0.13788329060E+04  0.00000000000E+00 0.  1.
          6    1    1    2  502    0 -0.80787428808E+02  0.30069753011E+02 -0.63285787732E+03  0.66145588786E+03  0.17200000000E+03 0.  1.
         -6    1    1    2    0  501  0.80787428808E+02 -0.30069753011E+02 -0.71902875961E+03  0.74432328718E+03  0.17200000000E+03 0.  1.
<mgrwt>
<rscale>  2 0.19239230E+03</rscale>
<asrwt>0</asrwt>
<pdfrwt beam="1">  1        2 0.34470820E+00 0.19239230E+03</pdfrwt>
<pdfrwt beam="2">  1       -2 0.67365678E-02 0.19239230E+03</pdfrwt>
<totfact> 0.69611984E+02</totfact>
</mgrwt>
</event>
<event>
 4    1  0.3889096E-001  0.2761086E+03  0.7546771E-02  0.1097834E+00
          2   -1    0    0  502    0  0.00000000000E+00  0.00000000000E+00  0.31571315633E+04  0.31571315633E+04  0.00000000000E+00 0.  1.
         -2   -1    0    0    0  501 -0.00000000000E+00 -0.00000000000E+00 -0.27063926213E+02  0.27063926213E+02  0.00000000000E+00 0. -1.
          6    1    1    2  502    0  0.19571615100E+03  0.91362736859E+02  0.10423724392E+04  0.10783210391E+04  0.17200000000E+03 0.  1.
         -6    1    1    2    0  501 -0.19571615100E+03 -0.91362736859E+02  0.20876951979E+04  0.21058744504E+04  0.17200000000E+03 0. -1.
<mgrwt>
<rscale>  2 0.27610860E+03</rscale>
<asrwt>0</asrwt>
<pdfrwt beam="1">  1        2 0.78928164E+00 0.27610860E+03</pdfrwt>
<pdfrwt beam="2">  1       -2 0.67659923E-02 0.27610860E+03</pdfrwt>
<totfact> 0.42682858E+00</totfact>
</mgrwt>
</event>
<event>
 4    1  0.3889096E-001  0.2156291E+03  0.7546771E-02  0.1137184E+00
          1   -1    0    0  502    0  0.00000000000E+00  0.00000000000E+00  0.30827360411E+03  0.30827360411E+03  0.00000000000E+00 0.  1.
         -1   -1    0    0    0  501 -0.00000000000E+00 -0.00000000000E+00 -0.15295438925E+03  0.15295438925E+03  0.00000000000E+00 0. -1.
          6    1    1    2  502    0  0.12949558275E+03 -0.11949395081E+02  0.10485889960E+03  0.23977339890E+03  0.17200000000E+03 0.  1.
         -6    1    1    2    0  501 -0.12949558275E+03  0.11949395081E+02  0.50460315256E+02  0.22145459447E+03  0.17200000000E+03 0. -1.
<mgrwt>
<rscale>  2 0.21562907E+03</rscale>
<asrwt>0</asrwt>
<pdfrwt beam="1">  1        1 0.77068400E-01 0.21562907E+03</pdfrwt>
<pdfrwt beam="2">  1       -1 0.38238598E-01 0.21562907E+03</pdfrwt>
<totfact> 0.30539265E+02</totfact>
</mgrwt>
</event>
<event>
 4    1  0.3889096E-001  0.1881527E+03  0.7546771E-02  0.1160138E+00
          1   -1    0    0  502    0  0.00000000000E+00  0.00000000000E+00  0.24081429914E+03  0.24081429914E+03  0.00000000000E+00 0. -1.
         -1   -1    0    0    0  501 -0.00000000000E+00 -0.00000000000E+00 -0.18566770606E+03  0.18566770606E+03  0.00000000000E+00 0.  1.
          6    1    1    2  502    0 -0.71195816843E+02  0.27360136396E+02 -0.69732034380E+02  0.20065885981E+03  0.17200000000E+03 0.  1.
         -6    1    1    2    0  501  0.71195816843E+02 -0.27360136396E+02  0.12487862747E+03  0.22582314540E+03  0.17200000000E+03 0. -1.
<mgrwt>
<rscale>  2 0.18815265E+03</rscale>
<asrwt>0</asrwt>
<pdfrwt beam="1">  1        1 0.60203575E-01 0.18815265E+03</pdfrwt>
<pdfrwt beam="2">  1       -1 0.46416927E-01 0.18815265E+03</pdfrwt>
<totfact> 0.29837439E+02</totfact>
</mgrwt>
</event>
<event>
 4    1  0.3889096E-001  0.1904572E+03  0.7546771E-02  0.1158050E+00
          1   -1    0    0  502    0  0.00000000000E+00  0.00000000000E+00  0.12347361395E+03  0.12347361395E+03  0.00000000000E+00 0. -1.
         -1   -1    0    0    0  501 -0.00000000000E+00 -0.00000000000E+00 -0.29576499266E+03  0.29576499266E+03  0.00000000000E+00 0.  1.
          6    1    1    2  502    0 -0.57396024518E+02 -0.58272089165E+02 -0.68968194092E+02  0.20255999556E+03  0.17200000000E+03 0. -1.
         -6    1    1    2    0  501  0.57396024518E+02  0.58272089165E+02 -0.10332318461E+03  0.21667861105E+03  0.17200000000E+03 0. -1.
<mgrwt>
<rscale>  2 0.19045719E+03</rscale>
<asrwt>0</asrwt>
<pdfrwt beam="1">  1        1 0.30868404E-01 0.19045719E+03</pdfrwt>
<pdfrwt beam="2">  1       -1 0.73941248E-01 0.19045719E+03</pdfrwt>
<totfact> 0.28357361E+02</totfact>
</mgrwt>
</event>
<event>
 4    1  0.3889096E-001  0.3165130E+03  0.7546771E-02  0.1077265E+00
         -2   -1    0    0    0  501 -0.00000000000E+00  0.00000000000E+00  0.58209196522E+03  0.58209196522E+03  0.00000000000E+00 0. -1.
          2   -1    0    0  502    0  0.00000000000E+00 -0.00000000000E+00 -0.43425192319E+03  0.43425192319E+03  0.00000000000E+00 0.  1.
          6    1    1    2  502    0 -0.14297393611E+03 -0.22395303241E+03 -0.32091239753E+03  0.45073858723E+03  0.17200000000E+03 0.  1.
         -6    1    1    2    0  501  0.14297393611E+03  0.22395303241E+03  0.46875243955E+03  0.56560530118E+03  0.17200000000E+03 0. -1.
<mgrwt>
<rscale>  2 0.31651304E+03</rscale>
<asrwt>0</asrwt>
<pdfrwt beam="1">  1        2 0.10856298E+00 0.31651304E+03</pdfrwt>
<pdfrwt beam="2">  1       -2 0.14552299E+00 0.31651304E+03</pdfrwt>
<totfact> 0.14286833E+01</totfact>
</mgrwt>
</event>
<event>
 4    1  0.3889096E-001  0.2032752E+03  0.7546771E-02  0.1147005E+00
         -2   -1    0    0    0  501 -0.00000000000E+00  0.00000000000E+00  0.52429642946E+02  0.52429642946E+02  0.00000000000E+00 0. -1.
          2   -1    0    0  502    0  0.00000000000E+00 -0.00000000000E+00 -0.87936976157E+03  0.87936976157E+03  0.00000000000E+00 0.  1.
          6    1    1    2  502    0  0.38987692813E+02  0.10107798801E+03 -0.56355075127E+03  0.59909118597E+03  0.17200000000E+03 0.  1.
         -6    1    1    2    0  501 -0.38987692813E+02 -0.10107798801E+03 -0.26338936735E+03  0.33270821854E+03  0.17200000000E+03 0. -1.
<mgrwt>
<rscale>  2 0.20327518E+03</rscale>
<asrwt>0</asrwt>
<pdfrwt beam="1">  1        2 0.21984243E+00 0.20327518E+03</pdfrwt>
<pdfrwt beam="2">  1       -2 0.13107411E-01 0.20327518E+03</pdfrwt>
<totfact> 0.64527179E+02</totfact>
</mgrwt>
</event>
<event>
 4    1  0.3889096E-001  0.1952589E+03  0.7546771E-02  0.1153802E+00
         -2   -1    0    0    0  501 -0.00000000000E+00  0.00000000000E+00  0.12249215104E+03  0.12249215104E+03  0.00000000000E+00 0. -1.
          2   -1    0    0  502    0  0.00000000000E+00 -0.00000000000E+00 -0.32780565341E+03  0.32780565341E+03  0.00000000000E+00 0.  1.
          6    1    1    2  502    0 -0.48803678975E+02  0.78487073294E+02 -0.52062798656E+02  0.20208056502E+03  0.17200000000E+03 0.  1.
         -6    1    1    2    0  501  0.48803678975E+02 -0.78487073294E+02 -0.15325070371E+03  0.24821723942E+03  0.17200000000E+03 0. -1.
<mgrwt>
<rscale>  2 0.19525885E+03</rscale>
<asrwt>0</asrwt>
<pdfrwt beam="1">  1        2 0.81951413E-01 0.19525885E+03</pdfrwt>
<pdfrwt beam="2">  1       -2 0.30623038E-01 0.19525885E+03</pdfrwt>
<totfact> 0.57413359E+02</totfact>
</mgrwt>
</event>
<event>
 4    1  0.3889096E-001  0.2389183E+03  0.7546771E-02  0.1120516E+00
         -2   -1    0    0    0  501 -0.00000000000E+00  0.00000000000E+00  0.26566452779E+03  0.26566452779E+03  0.00000000000E+00 0.  1.
          2   -1    0    0  502    0  0.00000000000E+00 -0.00000000000E+00 -0.22694641750E+03  0.22694641750E+03  0.00000000000E+00 0. -1.
          6    1    1    2  502    0 -0.16423198056E+03 -0.22930198196E+02 -0.37470750167E+02  0.24183877800E+03  0.17200000000E+03 0. -1.
         -6    1    1    2    0  501  0.16423198056E+03  0.22930198196E+02  0.76188860459E+02  0.25077216729E+03  0.17200000000E+03 0. -1.
<mgrwt>
<rscale>  2 0.23891827E+03</rscale>
<asrwt>0</asrwt>
<pdfrwt beam="1">  1        2 0.56736605E-01 0.23891827E+03</pdfrwt>
<pdfrwt beam="2">  1       -2 0.66416132E-01 0.23891827E+03</pdfrwt>
<totfact> 0.18834689E+02</totfact>
</mgrwt>
</event>
<event>
 4    1  0.3889096E-001  0.1724633E+03  0.7546771E-02  0.1175303E+00
          2   -1    0    0  502    0  0.00000000000E+00  0.00000000000E+00  0.11218065555E+04  0.11218065555E+04  0.00000000000E+00 0.  1.
         -2   -1    0    0    0  501 -0.00000000000E+00 -0.00000000000E+00 -0.36790220403E+02  0.36790220403E+02  0.00000000000E+00 0. -1.
          6    1    1    2  502    0  0.25415103644E+01  0.12374934995E+02  0.84867100009E+03  0.86601735819E+03  0.17200000000E+03 0.  1.
         -6    1    1    2    0  501 -0.25415103644E+01 -0.12374934995E+02  0.23634533501E+03  0.29257941772E+03  0.17200000000E+03 0. -1.
<mgrwt>
<rscale>  2 0.17246332E+03</rscale>
<asrwt>0</asrwt>
<pdfrwt beam="1">  1        2 0.28045153E+00 0.17246332E+03</pdfrwt>
<pdfrwt beam="2">  1       -2 0.91975588E-02 0.17246332E+03</pdfrwt>
<totfact> 0.71033824E+02</totfact>
</mgrwt>
</event>
<event>
 4    1  0.3889096E-001  0.2140683E+03  0.7546771E-02  0.1138384E+00
         -2   -1    0    0    0  501 -0.00000000000E+00  0.00000000000E+00  0.35346213958E+03  0.35346213958E+03  0.00000000000E+00 0. -1.
          2   -1    0    0  502    0  0.00000000000E+00 -0.00000000000E+00 -0.17144076536E+03  0.17144076536E+03  0.00000000000E+00 0.  1.
          6    1    1    2  502    0  0.12735809751E+03 -0.45998360189E+01 -0.38572483289E+02  0.21751570049E+03  0.17200000000E+03 0.  1.
         -6    1    1    2    0  501 -0.12735809751E+03  0.45998360189E+01  0.22059385751E+03  0.30738720446E+03  0.17200000000E+03 0. -1.
<mgrwt>
<rscale>  2 0.21406832E+03</rscale>
<asrwt>0</asrwt>
<pdfrwt beam="1">  1        2 0.42860192E-01 0.21406832E+03</pdfrwt>
<pdfrwt beam="2">  1       -2 0.88365534E-01 0.21406832E+03</pdfrwt>
<totfact> 0.13681993E+02</totfact>
</mgrwt>
</event>
<event>
 4    1  0.3889096E-001  0.1793768E+03  0.7546771E-02  0.1168408E+00
          2   -1    0    0  502    0  0.00000000000E+00  0.00000000000E+00  0.57456515078E+03  0.57456515078E+03  0.00000000000E+00 0.  1.
         -2   -1    0    0    0  501 -0.00000000000E+00 -0.00000000000E+00 -0.56211762234E+02  0.56211762234E+02  0.00000000000E+00 0. -1.
          6    1    1    2  502    0 -0.69403375169E+01 -0.50436874493E+02  0.27850281570E+03  0.33127007856E+03  0.17200000000E+03 0.  1.
         -6    1    1    2    0  501  0.69403375169E+01  0.50436874493E+02  0.23985057285E+03  0.29950683446E+03  0.17200000000E+03 0. -1.
<mgrwt>
<rscale>  2 0.17937683E+03</rscale>
<asrwt>0</asrwt>
<pdfrwt beam="1">  1        2 0.14364127E+00 0.17937683E+03</pdfrwt>
<pdfrwt beam="2">  1       -2 0.14052942E-01 0.17937683E+03</pdfrwt>
<totfact> 0.11056235E+03</totfact>
</mgrwt>
</event>
<event>
 4    1  0.3889096E-001  0.1760399E+03  0.7546771E-02  0.1171692E+00
         -1   -1    0    0    0  501 -0.00000000000E+00  0.00000000000E+00  0.44508576316E+02  0.44508576316E+02  0.00000000000E+00 0.  1.
          1   -1    0    0  502    0  0.00000000000E+00 -0.00000000000E+00 -0.74298438988E+03  0.74298438988E+03  0.00000000000E+00 0. -1.
          6    1    1    2  502    0  0.12292071516E+02  0.35425363232E+02 -0.25050875629E+03  0.30617754385E+03  0.17200000000E+03 0.  1.
         -6    1    1    2    0  501 -0.12292071516E+02 -0.35425363232E+02 -0.44796705727E+03  0.48131542234E+03  0.17200000000E+03 0. -1.
<mgrwt>
<rscale>  2 0.17603991E+03</rscale>
<asrwt>0</asrwt>
<pdfrwt beam="1">  1        1 0.18574609E+00 0.17603991E+03</pdfrwt>
<pdfrwt beam="2">  1       -1 0.11127144E-01 0.17603991E+03</pdfrwt>
<totfact> 0.59148148E+02</totfact>
</mgrwt>
</event>
<event>
 4    1  0.3889096E-001  0.2499244E+03  0.7546771E-02  0.1113353E+00
          2   -1    0    0  502    0  0.00000000000E+00  0.00000000000E+00  0.26935238425E+03  0.26935238425E+03  0.00000000000E+00 0.  1.
         -2   -1    0    0    0  501 -0.00000000000E+00 -0.00000000000E+00 -0.24949244244E+03  0.24949244244E+03  0.00000000000E+00 0. -1.
          6    1    1    2  502    0 -0.14046708591E+03 -0.11466116121E+03  0.78822306609E+02  0.26205942099E+03  0.17200000000E+03 0.  1.
         -6    1    1    2    0  501  0.14046708591E+03  0.11466116121E+03 -0.58962364801E+02  0.25678540569E+03  0.17200000000E+03 0. -1.
<mgrwt>
<rscale>  2 0.24992436E+03</rscale>
<asrwt>0</asrwt>
<pdfrwt beam="1">  1        2 0.67338096E-01 0.24992436E+03</pdfrwt>
<pdfrwt beam="2">  1       -2 0.62373111E-01 0.24992436E+03</pdfrwt>
<totfact> 0.17815313E+02</totfact>
</mgrwt>
</event>
<event>
 4    1  0.3889096E-001  0.1901132E+03  0.7546771E-02  0.1158359E+00
          1   -1    0    0  502    0  0.00000000000E+00  0.00000000000E+00  0.44063917782E+03  0.44063917782E+03  0.00000000000E+00 0. -1.
         -1   -1    0    0    0  501 -0.00000000000E+00 -0.00000000000E+00 -0.33383960152E+03  0.33383960152E+03  0.00000000000E+00 0.  1.
          6    1    1    2  502    0 -0.60285222434E+02 -0.54080684274E+02  0.38971912490E+03  0.43361737138E+03  0.17200000000E+03 0. -1.
         -6    1    1    2    0  501  0.60285222434E+02  0.54080684274E+02 -0.28291954859E+03  0.34086140795E+03  0.17200000000E+03 0.  1.
<mgrwt>
<rscale>  2 0.19011320E+03</rscale>
<asrwt>0</asrwt>
<pdfrwt beam="1">  1        1 0.11015979E+00 0.19011320E+03</pdfrwt>
<pdfrwt beam="2">  1       -1 0.83459901E-01 0.19011320E+03</pdfrwt>
<totfact> 0.42447486E+01</totfact>
</mgrwt>
</event>
<event>
 4    1  0.3889096E-001  0.1823124E+03  0.7546771E-02  0.1165584E+00
          2   -1    0    0  502    0  0.00000000000E+00  0.00000000000E+00  0.20359297619E+03  0.20359297619E+03  0.00000000000E+00 0. -1.
         -2   -1    0    0    0  501 -0.00000000000E+00 -0.00000000000E+00 -0.19014323508E+03  0.19014323508E+03  0.00000000000E+00 0.  1.
          6    1    1    2  502    0 -0.54022504696E+02  0.27117665109E+02 -0.67305010034E+02  0.19433929904E+03  0.17200000000E+03 0.  1.
         -6    1    1    2    0  501  0.54022504696E+02 -0.27117665109E+02  0.80754751151E+02  0.19939691223E+03  0.17200000000E+03 0.  1.
<mgrwt>
<rscale>  2 0.18231237E+03</rscale>
<asrwt>0</asrwt>
<pdfrwt beam="1">  1        2 0.50898244E-01 0.18231237E+03</pdfrwt>
<pdfrwt beam="2">  1       -2 0.47535809E-01 0.18231237E+03</pdfrwt>
<totfact> 0.42044840E+02</totfact>
</mgrwt>
</event>
<event>
 4    1  0.3889096E-001  0.2371757E+03  0.7546771E-02  0.1121689E+00
          2   -1    0    0  502    0  0.00000000000E+00  0.00000000000E+00  0.76023138649E+03  0.76023138649E+03  0.00000000000E+00 0.  1.
         -2   -1    0    0    0  501 -0.00000000000E+00 -0.00000000000E+00 -0.83488088511E+02  0.83488088511E+02  0.00000000000E+00 0. -1.
          6    1    1    2  502    0 -0.21679963909E+02  0.16185892278E+03  0.19610950106E+03  0.30775195877E+03  0.17200000000E+03 0. -1.
         -6    1    1    2    0  501  0.21679963909E+02 -0.16185892278E+03  0.48063379692E+03  0.53596751624E+03  0.17200000000E+03 0.  1.
<mgrwt>
<rscale>  2 0.23717574E+03</rscale>
<asrwt>0</asrwt>
<pdfrwt beam="1">  1        2 0.19005783E+00 0.23717574E+03</pdfrwt>
<pdfrwt beam="2">  1       -2 0.20872024E-01 0.23717574E+03</pdfrwt>
<totfact> 0.37659648E+02</totfact>
</mgrwt>
</event>
<event>
 4    1  0.3889096E-001  0.3160234E+03  0.7546771E-02  0.1077494E+00
          2   -1    0    0  502    0  0.00000000000E+00  0.00000000000E+00  0.62127275846E+03  0.62127275846E+03  0.00000000000E+00 0. -1.
         -2   -1    0    0    0  501 -0.00000000000E+00 -0.00000000000E+00 -0.17105191595E+03  0.17105191595E+03  0.00000000000E+00 0.  1.
          6    1    1    2  502    0  0.56125122691E+01 -0.26505711188E+03  0.12789654046E+03  0.34092271546E+03  0.17200000000E+03 0.  1.
         -6    1    1    2    0  501 -0.56125122691E+01  0.26505711188E+03  0.32232430205E+03  0.45140195895E+03  0.17200000000E+03 0. -1.
<mgrwt>
<rscale>  2 0.31602337E+03</rscale>
<asrwt>0</asrwt>
<pdfrwt beam="1">  1        2 0.15531818E+00 0.31602337E+03</pdfrwt>
<pdfrwt beam="2">  1       -2 0.42762980E-01 0.31602337E+03</pdfrwt>
<totfact> 0.13614383E+02</totfact>
</mgrwt>
</event>
<event>
 4    1  0.3889096E-001  0.2554770E+03  0.7546771E-02  0.1109892E+00
         -2   -1    0    0    0  501 -0.00000000000E+00  0.00000000000E+00  0.10331752158E+03  0.10331752158E+03  0.00000000000E+00 0.  1.
          2   -1    0    0  502    0  0.00000000000E+00 -0.00000000000E+00 -0.63285306497E+03  0.63285306497E+03  0.00000000000E+00 0. -1.
          6    1    1    2  502    0  0.14371946029E+03  0.12259360932E+03 -0.28029389901E+03  0.37925340623E+03  0.17200000000E+03 0. -1.
         -6    1    1    2    0  501 -0.14371946029E+03 -0.12259360932E+03 -0.24924164438E+03  0.35691718032E+03  0.17200000000E+03 0.  1.
<mgrwt>
<rscale>  2 0.25547696E+03</rscale>
<asrwt>0</asrwt>
<pdfrwt beam="1">  1        2 0.15821326E+00 0.25547696E+03</pdfrwt>
<pdfrwt beam="2">  1       -2 0.25829381E-01 0.25547696E+03</pdfrwt>
<totfact> 0.34134727E+02</totfact>
</mgrwt>
</event>
<event>
 4    1  0.3889096E-001  0.1796173E+03  0.7546771E-02  0.1168174E+00
         -1   -1    0    0    0  501 -0.00000000000E+00  0.00000000000E+00  0.68128723807E+03  0.68128723807E+03  0.00000000000E+00 0.  1.
          1   -1    0    0  502    0  0.00000000000E+00 -0.00000000000E+00 -0.10131578484E+03  0.10131578484E+03  0.00000000000E+00 0. -1.
          6    1    1    2  502    0 -0.48381906097E+02 -0.18372906452E+02  0.57555534881E+03  0.60293144890E+03  0.17200000000E+03 0.  1.
         -6    1    1    2    0  501  0.48381906097E+02  0.18372906452E+02  0.44161044254E+01  0.17967157401E+03  0.17200000000E+03 0. -1.
<mgrwt>
<rscale>  2 0.17961729E+03</rscale>
<asrwt>0</asrwt>
<pdfrwt beam="1">  1        1 0.25328948E-01 0.17961729E+03</pdfrwt>
<pdfrwt beam="2">  1       -1 0.17032180E+00 0.17961729E+03</pdfrwt>
<totfact> 0.51860310E+01</totfact>
</mgrwt>
</event>
<event>
 4    1  0.3889096E-001  0.1839332E+03  0.7546771E-02  0.1164050E+00
         -1   -1    0    0    0  501 -0.00000000000E+00  0.00000000000E+00  0.82039454695E+02  0.82039454695E+02  0.00000000000E+00 0.  1.
          1   -1    0    0  502    0  0.00000000000E+00 -0.00000000000E+00 -0.78229776326E+03  0.78229776326E+03  0.00000000000E+00 0. -1.
          6    1    1    2  502    0  0.62018084066E+02  0.20029825447E+02 -0.64730925250E+03  0.67293439875E+03  0.17200000000E+03 0. -1.
         -6    1    1    2    0  501 -0.62018084066E+02 -0.20029825447E+02 -0.52949056066E+02  0.19140281920E+03  0.17200000000E+03 0.  1.
<mgrwt>
<rscale>  2 0.18393324E+03</rscale>
<asrwt>0</asrwt>
<pdfrwt beam="1">  1        1 0.19557444E+00 0.18393324E+03</pdfrwt>
<pdfrwt beam="2">  1       -1 0.20509864E-01 0.18393324E+03</pdfrwt>
<totfact> 0.20314008E+02</totfact>
</mgrwt>
</event>
<event>
 4    1  0.3889096E-001  0.2007371E+03  0.7546771E-02  0.1149119E+00
          1   -1    0    0  502    0  0.00000000000E+00  0.00000000000E+00  0.18290787847E+03  0.18290787847E+03  0.00000000000E+00 0.  1.
         -1   -1    0    0    0  501 -0.00000000000E+00 -0.00000000000E+00 -0.22201077782E+03  0.22201077782E+03  0.00000000000E+00 0. -1.
          6    1    1    2  502    0 -0.69727619023E+02 -0.76481521273E+02 -0.18005369314E+01  0.20074512668E+03  0.17200000000E+03 0.  1.
         -6    1    1    2    0  501  0.69727619023E+02  0.76481521273E+02 -0.37302362423E+02  0.20417352961E+03  0.17200000000E+03 0. -1.
<mgrwt>
<rscale>  2 0.20073705E+03</rscale>
<asrwt>0</asrwt>
<pdfrwt beam="1">  1        1 0.45726970E-01 0.20073705E+03</pdfrwt>
<pdfrwt beam="2">  1       -1 0.55502694E-01 0.20073705E+03</pdfrwt>
<totfact> 0.30295579E+02</totfact>
</mgrwt>
</event>
<event>
 4    1  0.3889096E-001  0.1722205E+03  0.7546771E-02  0.1175552E+00
          1   -1    0    0  502    0  0.00000000000E+00  0.00000000000E+00  0.11569293913E+04  0.11569293913E+04  0.00000000000E+00 0.  1.
         -1   -1    0    0    0  501 -0.00000000000E+00 -0.00000000000E+00 -0.54192147639E+02  0.54192147639E+02  0.00000000000E+00 0. -1.
          6    1    1    2  502    0 -0.63047853799E+01 -0.60128359530E+01  0.99094433588E+03  0.10057984795E+04  0.17200000000E+03 0.  1.
         -6    1    1    2    0  501  0.63047853799E+01  0.60128359530E+01  0.11179290778E+03  0.20532305946E+03  0.17200000000E+03 0. -1.
<mgrwt>
<rscale>  2 0.17222051E+03</rscale>
<asrwt>0</asrwt>
<pdfrwt beam="1">  1        1 0.28923227E+00 0.17222051E+03</pdfrwt>
<pdfrwt beam="2">  1       -1 0.13548041E-01 0.17222051E+03</pdfrwt>
<totfact> 0.15791582E+02</totfact>
</mgrwt>
</event>
<event>
 4    1  0.3889096E-001  0.2511202E+03  0.7546771E-02  0.1112599E+00
         -2   -1    0    0    0  501 -0.00000000000E+00  0.00000000000E+00  0.37998713548E+02  0.37998713548E+02  0.00000000000E+00 0.  1.
          2   -1    0    0  502    0  0.00000000000E+00 -0.00000000000E+00 -0.19285108276E+04  0.19285108276E+04  0.00000000000E+00 0. -1.
          6    1    1    2  502    0  0.18126658866E+03  0.24894902539E+02 -0.57806889837E+03  0.63025787072E+03  0.17200000000E+03 0.  1.
         -6    1    1    2    0  501 -0.18126658866E+03 -0.24894902539E+02 -0.13124432156E+04  0.13362516704E+04  0.17200000000E+03 0. -1.
<mgrwt>
<rscale>  2 0.25112016E+03</rscale>
<asrwt>0</asrwt>
<pdfrwt beam="1">  1        2 0.48212769E+00 0.25112016E+03</pdfrwt>
<pdfrwt beam="2">  1       -2 0.94996787E-02 0.25112016E+03</pdfrwt>
<totfact> 0.12593224E+02</totfact>
</mgrwt>
</event>
<event>
 4    1  0.3889096E-001  0.2677031E+03  0.7546771E-02  0.1102601E+00
         -2   -1    0    0    0  501 -0.00000000000E+00  0.00000000000E+00  0.38767660360E+02  0.38767660360E+02  0.00000000000E+00 0. -1.
          2   -1    0    0  502    0  0.00000000000E+00 -0.00000000000E+00 -0.18730250100E+04  0.18730250100E+04  0.00000000000E+00 0.  1.
          6    1    1    2  502    0 -0.85179457135E+02 -0.18661564161E+03 -0.10263421609E+04  0.10606805215E+04  0.17200000000E+03 0.  1.
         -6    1    1    2    0  501  0.85179457135E+02  0.18661564161E+03 -0.80791518877E+03  0.85111214881E+03  0.17200000000E+03 0. -1.
<mgrwt>
<rscale>  2 0.26770308E+03</rscale>
<asrwt>0</asrwt>
<pdfrwt beam="1">  1        2 0.46825623E+00 0.26770308E+03</pdfrwt>
<pdfrwt beam="2">  1       -2 0.96919156E-02 0.26770308E+03</pdfrwt>
<totfact> 0.13738236E+02</totfact>
</mgrwt>
</event>
<event>
 4    1  0.3889096E-001  0.1840165E+03  0.7546771E-02  0.1163971E+00
          2   -1    0    0  502    0  0.00000000000E+00  0.00000000000E+00  0.12236335540E+04  0.12236335540E+04  0.00000000000E+00 0.  1.
         -2   -1    0    0    0  501 -0.00000000000E+00 -0.00000000000E+00 -0.31522425856E+02  0.31522425856E+02  0.00000000000E+00 0. -1.
          6    1    1    2  502    0  0.53123136693E+02  0.38157805169E+02  0.37675790497E+03  0.41929536690E+03  0.17200000000E+03 0. -1.
         -6    1    1    2    0  501 -0.53123136693E+02 -0.38157805169E+02  0.81535322318E+03  0.83586061296E+03  0.17200000000E+03 0.  1.
<mgrwt>
<rscale>  2 0.18401654E+03</rscale>
<asrwt>0</asrwt>
<pdfrwt beam="1">  1        2 0.30590823E+00 0.18401654E+03</pdfrwt>
<pdfrwt beam="2">  1       -2 0.78806105E-02 0.18401654E+03</pdfrwt>
<totfact> 0.74090342E+02</totfact>
</mgrwt>
</event>
<event>
 4    1  0.3889096E-001  0.1852025E+03  0.7546771E-02  0.1162861E+00
          2   -1    0    0  502    0  0.00000000000E+00  0.00000000000E+00  0.57502720009E+03  0.57502720009E+03  0.00000000000E+00 0. -1.
         -2   -1    0    0    0  501 -0.00000000000E+00 -0.00000000000E+00 -0.64401392607E+02  0.64401392607E+02  0.00000000000E+00 0.  1.
          6    1    1    2  502    0 -0.66367367769E+02  0.17645238483E+02  0.16846568335E+03  0.25036107607E+03  0.17200000000E+03 0. -1.
         -6    1    1    2    0  501  0.66367367769E+02 -0.17645238483E+02  0.34216012413E+03  0.38906751662E+03  0.17200000000E+03 0.  1.
<mgrwt>
<rscale>  2 0.18520254E+03</rscale>
<asrwt>0</asrwt>
<pdfrwt beam="1">  1        2 0.14375678E+00 0.18520254E+03</pdfrwt>
<pdfrwt beam="2">  1       -2 0.16100350E-01 0.18520254E+03</pdfrwt>
<totfact> 0.88284029E+02</totfact>
</mgrwt>
</event>
<event>
 4    1  0.3889096E-001  0.1976126E+03  0.7546771E-02  0.1151769E+00
         -2   -1    0    0    0  501 -0.00000000000E+00  0.00000000000E+00  0.32286499278E+03  0.32286499278E+03  0.00000000000E+00 0. -1.
          2   -1    0    0  502    0  0.00000000000E+00 -0.00000000000E+00 -0.15690012193E+03  0.15690012193E+03  0.00000000000E+00 0.  1.
          6    1    1    2  502    0 -0.84450202208E+02 -0.48320812316E+02  0.19780656441E+03  0.27960360241E+03  0.17200000000E+03 0. -1.
         -6    1    1    2    0  501  0.84450202208E+02  0.48320812316E+02 -0.31841693565E+02  0.20016151230E+03  0.17200000000E+03 0.  1.
<mgrwt>
<rscale>  2 0.19761259E+03</rscale>
<asrwt>0</asrwt>
<pdfrwt beam="1">  1        2 0.39225031E-01 0.19761259E+03</pdfrwt>
<pdfrwt beam="2">  1       -2 0.80716247E-01 0.19761259E+03</pdfrwt>
<totfact> 0.18440648E+02</totfact>
</mgrwt>
</event>
<event>
 4    1  0.3889096E-001  0.1753312E+03  0.7546771E-02  0.1172400E+00
          2   -1    0    0  502    0  0.00000000000E+00  0.00000000000E+00  0.49369908126E+03  0.49369908126E+03  0.00000000000E+00 0. -1.
         -2   -1    0    0    0  501 -0.00000000000E+00 -0.00000000000E+00 -0.63677107931E+02  0.63677107931E+02  0.00000000000E+00 0.  1.
          6    1    1    2  502    0  0.17861707421E+02  0.28947837942E+02  0.25648704336E+03  0.31068733692E+03  0.17200000000E+03 0.  1.
         -6    1    1    2    0  501 -0.17861707421E+02 -0.28947837942E+02  0.17353492997E+03  0.24668885227E+03  0.17200000000E+03 0.  1.
<mgrwt>
<rscale>  2 0.17533117E+03</rscale>
<asrwt>0</asrwt>
<pdfrwt beam="1">  1        2 0.12342476E+00 0.17533117E+03</pdfrwt>
<pdfrwt beam="2">  1       -2 0.15919278E-01 0.17533117E+03</pdfrwt>
<totfact> 0.10970369E+03</totfact>
</mgrwt>
</event>
<event>
 4    1  0.3889096E-001  0.1989203E+03  0.7546771E-02  0.1150653E+00
          2   -1    0    0  502    0  0.00000000000E+00  0.00000000000E+00  0.33901836035E+03  0.33901836035E+03  0.00000000000E+00 0.  1.
         -2   -1    0    0    0  501 -0.00000000000E+00 -0.00000000000E+00 -0.16728697915E+03  0.16728697915E+03  0.00000000000E+00 0. -1.
          6    1    1    2  502    0 -0.81192473579E+02  0.58250140779E+02 -0.53320670547E+02  0.20594268760E+03  0.17200000000E+03 0. -1.
         -6    1    1    2    0  501  0.81192473579E+02 -0.58250140779E+02  0.22505205174E+03  0.30036265191E+03  0.17200000000E+03 0.  1.
<mgrwt>
<rscale>  2 0.19892033E+03</rscale>
<asrwt>0</asrwt>
<pdfrwt beam="1">  1        2 0.84754589E-01 0.19892033E+03</pdfrwt>
<pdfrwt beam="2">  1       -2 0.41821745E-01 0.19892033E+03</pdfrwt>
<totfact> 0.30868639E+02</totfact>
</mgrwt>
</event>
<event>
 4    1  0.3889096E-001  0.2316089E+03  0.7546771E-02  0.1125512E+00
         -2   -1    0    0    0  501 -0.00000000000E+00  0.00000000000E+00  0.80664275081E+02  0.80664275081E+02  0.00000000000E+00 0.  1.
          2   -1    0    0  502    0  0.00000000000E+00 -0.00000000000E+00 -0.67121966547E+03  0.67121966547E+03  0.00000000000E+00 0. -1.
          6    1    1    2  502    0 -0.14303610914E+03 -0.59994513028E+02 -0.33143285764E+03  0.40433947276E+03  0.17200000000E+03 0. -1.
         -6    1    1    2    0  501  0.14303610914E+03  0.59994513028E+02 -0.25912253276E+03  0.34754446779E+03  0.17200000000E+03 0.  1.
<mgrwt>
<rscale>  2 0.23160887E+03</rscale>
<asrwt>0</asrwt>
<pdfrwt beam="1">  1        2 0.16780491E+00 0.23160887E+03</pdfrwt>
<pdfrwt beam="2">  1       -2 0.20166069E-01 0.23160887E+03</pdfrwt>
<totfact> 0.48399279E+02</totfact>
</mgrwt>
</event>
<event>
 4    1  0.3889096E-001  0.2222843E+03  0.7546771E-02  0.1132191E+00
          1   -1    0    0  502    0  0.00000000000E+00  0.00000000000E+00  0.80533699872E+03  0.80533699872E+03  0.00000000000E+00 0. -1.
         -1   -1    0    0    0  501 -0.00000000000E+00 -0.00000000000E+00 -0.61425339683E+02  0.61425339683E+02  0.00000000000E+00 0.  1.
          6    1    1    2  502    0 -0.73159696559E+02 -0.12030783646E+03  0.35714417144E+03  0.42066884352E+03  0.17200000000E+03 0.  1.
         -6    1    1    2    0  501  0.73159696559E+02  0.12030783646E+03  0.38676748759E+03  0.44609349488E+03  0.17200000000E+03 0. -1.
<mgrwt>
<rscale>  2 0.22228432E+03</rscale>
<asrwt>0</asrwt>
<pdfrwt beam="1">  1        1 0.20133422E+00 0.22228432E+03</pdfrwt>
<pdfrwt beam="2">  1       -1 0.15356337E-01 0.22228432E+03</pdfrwt>
<totfact> 0.30217125E+02</totfact>
</mgrwt>
</event>
<event>
 4    1  0.3889096E-001  0.2948131E+03  0.7546771E-02  0.1087863E+00
          1   -1    0    0  502    0  0.00000000000E+00  0.00000000000E+00  0.46258586295E+03  0.46258586295E+03  0.00000000000E+00 0.  1.
         -1   -1    0    0    0  501 -0.00000000000E+00 -0.00000000000E+00 -0.19203537694E+03  0.19203537694E+03  0.00000000000E+00 0. -1.
          6    1    1    2  502    0  0.15070532670E+03 -0.18606095347E+03  0.87179539923E+02  0.30743299446E+03  0.17200000000E+03 0. -1.
         -6    1    1    2    0  501 -0.15070532670E+03  0.18606095347E+03  0.18337094609E+03  0.34718824544E+03  0.17200000000E+03 0.  1.
<mgrwt>
<rscale>  2 0.29481312E+03</rscale>
<asrwt>0</asrwt>
<pdfrwt beam="1">  1        1 0.11564646E+00 0.29481312E+03</pdfrwt>
<pdfrwt beam="2">  1       -1 0.48008845E-01 0.29481312E+03</pdfrwt>
<totfact> 0.11323484E+02</totfact>
</mgrwt>
</event>
<event>
 4    1  0.3889096E-001  0.1762609E+03  0.7546771E-02  0.1171472E+00
         -1   -1    0    0    0  501 -0.00000000000E+00  0.00000000000E+00  0.37089340984E+02  0.37089340984E+02  0.00000000000E+00 0.  1.
          1   -1    0    0  502    0  0.00000000000E+00 -0.00000000000E+00 -0.84345878327E+03  0.84345878327E+03  0.00000000000E+00 0. -1.
          6    1    1    2  502    0  0.11622323032E+01 -0.38503768050E+02 -0.36664802644E+03  0.40681527286E+03  0.17200000000E+03 0.  1.
         -6    1    1    2    0  501 -0.11622323032E+01  0.38503768050E+02 -0.43972141585E+03  0.47373285140E+03  0.17200000000E+03 0. -1.
<mgrwt>
<rscale>  2 0.17626086E+03</rscale>
<asrwt>0</asrwt>
<pdfrwt beam="1">  1        1 0.21086470E+00 0.17626086E+03</pdfrwt>
<pdfrwt beam="2">  1       -1 0.92723350E-02 0.17626086E+03</pdfrwt>
<totfact> 0.60700483E+02</totfact>
</mgrwt>
</event>
<event>
 4    1  0.3889096E-001  0.1793054E+03  0.7546771E-02  0.1168477E+00
          2   -1    0    0  502    0  0.00000000000E+00  0.00000000000E+00  0.25710446886E+03  0.25710446886E+03  0.00000000000E+00 0. -1.
         -2   -1    0    0    0  501 -0.00000000000E+00 -0.00000000000E+00 -0.12745098057E+03  0.12745098057E+03  0.00000000000E+00 0.  1.
          6    1    1    2  502    0  0.16332388542E+02  0.47954805640E+02  0.91228253752E+02  0.20117903614E+03  0.17200000000E+03 0. -1.
         -6    1    1    2    0  501 -0.16332388542E+02 -0.47954805640E+02  0.38425234537E+02  0.18337641328E+03  0.17200000000E+03 0.  1.
<mgrwt>
<rscale>  2 0.17930535E+03</rscale>
<asrwt>0</asrwt>
<pdfrwt beam="1">  1        2 0.64276116E-01 0.17930535E+03</pdfrwt>
<pdfrwt beam="2">  1       -2 0.31862746E-01 0.17930535E+03</pdfrwt>
<totfact> 0.69801969E+02</totfact>
</mgrwt>
</event>
<event>
 4    1  0.3889096E-001  0.2374924E+03  0.7546771E-02  0.1121475E+00
          2   -1    0    0  502    0  0.00000000000E+00  0.00000000000E+00  0.17913878781E+04  0.17913878781E+04  0.00000000000E+00 0.  1.
         -2   -1    0    0    0  501 -0.00000000000E+00 -0.00000000000E+00 -0.71899203998E+02  0.71899203998E+02  0.00000000000E+00 0. -1.
          6    1    1    2  502    0  0.14739057780E+03  0.71376735978E+02  0.15582218532E+04  0.15762163445E+04  0.17200000000E+03 0.  1.
         -6    1    1    2    0  501 -0.14739057780E+03 -0.71376735978E+02  0.16126682090E+03  0.28707073760E+03  0.17200000000E+03 0. -1.
<mgrwt>
<rscale>  2 0.23749236E+03</rscale>
<asrwt>0</asrwt>
<pdfrwt beam="1">  1        2 0.44784682E+00 0.23749236E+03</pdfrwt>
<pdfrwt beam="2">  1       -2 0.17974807E-01 0.23749236E+03</pdfrwt>
<totfact> 0.60580737E+01</totfact>
</mgrwt>
</event>
<event>
 4    1  0.3889096E-001  0.2102894E+03  0.7546771E-02  0.1141337E+00
         -4   -1    0    0    0  501 -0.00000000000E+00  0.00000000000E+00  0.41950864638E+03  0.41950864638E+03  0.00000000000E+00 0. -1.
          4   -1    0    0  502    0  0.00000000000E+00 -0.00000000000E+00 -0.10764027900E+03  0.10764027900E+03  0.00000000000E+00 0.  1.
          6    1    1    2  502    0  0.12109578284E+01  0.12097998288E+03  0.11801900950E+03  0.24114333763E+03  0.17200000000E+03 0.  1.
         -6    1    1    2    0  501 -0.12109578284E+01 -0.12097998288E+03  0.19384935788E+03  0.28600558775E+03  0.17200000000E+03 0. -1.
<mgrwt>
<rscale>  2 0.21028938E+03</rscale>
<asrwt>0</asrwt>
<pdfrwt beam="1">  1        4 0.26910071E-01 0.21028938E+03</pdfrwt>
<pdfrwt beam="2">  1       -4 0.10487716E+00 0.21028938E+03</pdfrwt>
<totfact> 0.17801731E+01</totfact>
</mgrwt>
</event>
<event>
 4    1  0.3889096E-001  0.1808431E+03  0.7546771E-02  0.1166990E+00
         -2   -1    0    0    0  501 -0.00000000000E+00  0.00000000000E+00  0.92962478350E+02  0.92962478350E+02  0.00000000000E+00 0. -1.
          2   -1    0    0  502    0  0.00000000000E+00 -0.00000000000E+00 -0.62271726823E+03  0.62271726823E+03  0.00000000000E+00 0.  1.
          6    1    1    2  502    0 -0.41058049031E+02 -0.37874189351E+02 -0.28850513662E+02  0.18312992587E+03  0.17200000000E+03 0. -1.
         -6    1    1    2    0  501  0.41058049031E+02  0.37874189351E+02 -0.50090427621E+03  0.53254982071E+03  0.17200000000E+03 0.  1.
<mgrwt>
<rscale>  2 0.18084307E+03</rscale>
<asrwt>0</asrwt>
<pdfrwt beam="1">  1        2 0.15567932E+00 0.18084307E+03</pdfrwt>
<pdfrwt beam="2">  1       -2 0.23240620E-01 0.18084307E+03</pdfrwt>
<totfact> 0.42463785E+02</totfact>
</mgrwt>
</event>
<event>
 4    1  0.3889096E-001  0.2221875E+03  0.7546771E-02  0.1132263E+00
          2   -1    0    0  502    0  0.00000000000E+00  0.00000000000E+00  0.29514539110E+04  0.29514539110E+04  0.00000000000E+00 0.  1.
         -2   -1    0    0    0  501 -0.00000000000E+00 -0.00000000000E+00 -0.20393523874E+02  0.20393523874E+02  0.00000000000E+00 0. -1.
          6    1    1    2  502    0  0.31914690574E+02 -0.13698440033E+03  0.83542701817E+03  0.86446837773E+03  0.17200000000E+03 0. -1.
         -6    1    1    2    0  501 -0.31914690574E+02  0.13698440033E+03  0.20956333690E+04  0.21073790571E+04  0.17200000000E+03 0.  1.
<mgrwt>
<rscale>  2 0.22218747E+03</rscale>
<asrwt>0</asrwt>
<pdfrwt beam="1">  1        2 0.73786202E+00 0.22218747E+03</pdfrwt>
<pdfrwt beam="2">  1       -2 0.50983910E-02 0.22218747E+03</pdfrwt>
<totfact> 0.16946645E+01</totfact>
</mgrwt>
</event>
<event>
 4    1  0.3889096E-001  0.1778236E+03  0.7546771E-02  0.1169926E+00
         -2   -1    0    0    0  501 -0.00000000000E+00  0.00000000000E+00  0.10591563314E+03  0.10591563314E+03  0.00000000000E+00 0. -1.
          2   -1    0    0  502    0  0.00000000000E+00 -0.00000000000E+00 -0.29855205904E+03  0.29855205904E+03  0.00000000000E+00 0.  1.
          6    1    1    2  502    0 -0.49179226652E+01  0.44866921326E+02 -0.96684560205E+02  0.20240832684E+03  0.17200000000E+03 0. -1.
         -6    1    1    2    0  501  0.49179226652E+01 -0.44866921326E+02 -0.95951865691E+02  0.20205936534E+03  0.17200000000E+03 0.  1.
<mgrwt>
<rscale>  2 0.17782358E+03</rscale>
<asrwt>0</asrwt>
<pdfrwt beam="1">  1        2 0.74638014E-01 0.17782358E+03</pdfrwt>
<pdfrwt beam="2">  1       -2 0.26478909E-01 0.17782358E+03</pdfrwt>
<totfact> 0.82703793E+02</totfact>
</mgrwt>
</event>
<event>
 4    1  0.3889096E-001  0.1821471E+03  0.7546771E-02  0.1165741E+00
         -2   -1    0    0    0  501 -0.00000000000E+00  0.00000000000E+00  0.31056174847E+02  0.31056174847E+02  0.00000000000E+00 0.  1.
          2   -1    0    0  502    0  0.00000000000E+00 -0.00000000000E+00 -0.11177037651E+04  0.11177037651E+04  0.00000000000E+00 0. -1.
          6    1    1    2  502    0 -0.45887613013E+02 -0.38573142299E+02 -0.66407201757E+03  0.68859945168E+03  0.17200000000E+03 0.  1.
         -6    1    1    2    0  501  0.45887613013E+02  0.38573142299E+02 -0.42257557269E+03  0.46016048827E+03  0.17200000000E+03 0.  1.
<mgrwt>
<rscale>  2 0.18214708E+03</rscale>
<asrwt>0</asrwt>
<pdfrwt beam="1">  1        2 0.27942592E+00 0.18214708E+03</pdfrwt>
<pdfrwt beam="2">  1       -2 0.77640444E-02 0.18214708E+03</pdfrwt>
<totfact> 0.93114576E+02</totfact>
</mgrwt>
</event>
<event>
 4    1  0.3889096E-001  0.2088348E+03  0.7546771E-02  0.1142492E+00
         -1   -1    0    0    0  501 -0.00000000000E+00  0.00000000000E+00  0.74408195071E+02  0.74408195071E+02  0.00000000000E+00 0.  1.
          1   -1    0    0  502    0  0.00000000000E+00 -0.00000000000E+00 -0.58710724520E+03  0.58710724520E+03  0.00000000000E+00 0. -1.
          6    1    1    2  502    0 -0.69644086769E+02  0.95800088417E+02 -0.26992897085E+03  0.34128229527E+03  0.17200000000E+03 0. -1.
         -6    1    1    2    0  501  0.69644086769E+02 -0.95800088417E+02 -0.24277007928E+03  0.32023314500E+03  0.17200000000E+03 0.  1.
<mgrwt>
<rscale>  2 0.20883476E+03</rscale>
<asrwt>0</asrwt>
<pdfrwt beam="1">  1        1 0.14677681E+00 0.20883476E+03</pdfrwt>
<pdfrwt beam="2">  1       -1 0.18602049E-01 0.20883476E+03</pdfrwt>
<totfact> 0.39878516E+02</totfact>
</mgrwt>
</event>
<event>
 4    1  0.3889096E-001  0.1982305E+03  0.7546771E-02  0.1151241E+00
          1   -1    0    0  502    0  0.00000000000E+00  0.00000000000E+00  0.17244241636E+03  0.17244241636E+03  0.00000000000E+00 0.  1.
         -1   -1    0    0    0  501 -0.00000000000E+00 -0.00000000000E+00 -0.22893123491E+03  0.22893123491E+03  0.00000000000E+00 0. -1.
          6    1    1    2  502    0  0.16005988315E+02  0.97237454704E+02 -0.41876053033E+02  0.20260532588E+03  0.17200000000E+03 0.  1.
         -6    1    1    2    0  501 -0.16005988315E+02 -0.97237454704E+02 -0.14612765524E+02  0.19876832538E+03  0.17200000000E+03 0.  1.
<mgrwt>
<rscale>  2 0.19823046E+03</rscale>
<asrwt>0</asrwt>
<pdfrwt beam="1">  1        1 0.43110604E-01 0.19823046E+03</pdfrwt>
<pdfrwt beam="2">  1       -1 0.57232808E-01 0.19823046E+03</pdfrwt>
<totfact> 0.30783275E+02</totfact>
</mgrwt>
</event>
<event>
 4    1  0.3889096E-001  0.1840517E+03  0.7546771E-02  0.1163938E+00
         -1   -1    0    0    0  501 -0.00000000000E+00  0.00000000000E+00  0.13612948286E+03  0.13612948286E+03  0.00000000000E+00 0.  1.
          1   -1    0    0  502    0  0.00000000000E+00 -0.00000000000E+00 -0.24890282785E+03  0.24890282785E+03  0.00000000000E+00 0. -1.
          6    1    1    2  502    0 -0.55225896464E+02  0.35229913968E+02 -0.59338676925E+02  0.19338077737E+03  0.17200000000E+03 0. -1.
         -6    1    1    2    0  501  0.55225896464E+02 -0.35229913968E+02 -0.53434668059E+02  0.19165153333E+03  0.17200000000E+03 0. -1.
<mgrwt>
<rscale>  2 0.18405175E+03</rscale>
<asrwt>0</asrwt>
<pdfrwt beam="1">  1        1 0.62225706E-01 0.18405175E+03</pdfrwt>
<pdfrwt beam="2">  1       -1 0.34032371E-01 0.18405175E+03</pdfrwt>
<totfact> 0.49498245E+02</totfact>
</mgrwt>
</event>
<event>
 4    1  0.3889096E-001  0.1965458E+03  0.7546771E-02  0.1152686E+00
         -2   -1    0    0    0  501 -0.00000000000E+00  0.00000000000E+00  0.20283632569E+02  0.20283632569E+02  0.00000000000E+00 0. -1.
          2   -1    0    0  502    0  0.00000000000E+00 -0.00000000000E+00 -0.20379880356E+04  0.20379880356E+04  0.00000000000E+00 0.  1.
          6    1    1    2  502    0 -0.78415624026E+02 -0.53825918054E+02 -0.74546895970E+03  0.77094371353E+03  0.17200000000E+03 0. -1.
         -6    1    1    2    0  501  0.78415624026E+02  0.53825918054E+02 -0.12722354433E+04  0.12873279547E+04  0.17200000000E+03 0.  1.
<mgrwt>
<rscale>  2 0.19654577E+03</rscale>
<asrwt>0</asrwt>
<pdfrwt beam="1">  1        2 0.50949700E+00 0.19654577E+03</pdfrwt>
<pdfrwt beam="2">  1       -2 0.50709082E-02 0.19654577E+03</pdfrwt>
<totfact> 0.26451271E+02</totfact>
</mgrwt>
</event>
<event>
 4    1  0.3889096E-001  0.1867589E+03  0.7546771E-02  0.1161418E+00
          1   -1    0    0  502    0  0.00000000000E+00  0.00000000000E+00  0.18679842209E+04  0.18679842209E+04  0.00000000000E+00 0. -1.
         -1   -1    0    0    0  501 -0.00000000000E+00 -0.00000000000E+00 -0.18698621270E+02  0.18698621270E+02  0.00000000000E+00 0.  1.
          6    1    1    2  502    0  0.38707130775E+02 -0.61616883603E+02  0.88900607793E+03  0.90841107926E+03  0.17200000000E+03 0. -1.
         -6    1    1    2    0  501 -0.38707130775E+02  0.61616883603E+02  0.96027952170E+03  0.97827176291E+03  0.17200000000E+03 0. -1.
<mgrwt>
<rscale>  2 0.18675889E+03</rscale>
<asrwt>0</asrwt>
<pdfrwt beam="1">  1        1 0.46699542E+00 0.18675889E+03</pdfrwt>
<pdfrwt beam="2">  1       -1 0.46746617E-02 0.18675889E+03</pdfrwt>
<totfact> 0.13695469E+02</totfact>
</mgrwt>
</event>
<event>
 4    1  0.3889096E-001  0.2498982E+03  0.7546771E-02  0.1113369E+00
         -1   -1    0    0    0  501 -0.00000000000E+00  0.00000000000E+00  0.54062102670E+02  0.54062102670E+02  0.00000000000E+00 0. -1.
          1   -1    0    0  502    0  0.00000000000E+00 -0.00000000000E+00 -0.11557275702E+04  0.11557275702E+04  0.00000000000E+00 0.  1.
          6    1    1    2  502    0  0.18065271271E+03  0.15155416374E+02 -0.56451630468E+03  0.61735544664E+03  0.17200000000E+03 0. -1.
         -6    1    1    2    0  501 -0.18065271271E+03 -0.15155416374E+02 -0.53714916288E+03  0.59243422626E+03  0.17200000000E+03 0. -1.
<mgrwt>
<rscale>  2 0.24989816E+03</rscale>
<asrwt>0</asrwt>
<pdfrwt beam="1">  1        1 0.28893189E+00 0.24989816E+03</pdfrwt>
<pdfrwt beam="2">  1       -1 0.13515526E-01 0.24989816E+03</pdfrwt>
<totfact> 0.15515311E+02</totfact>
</mgrwt>
</event>
<event>
 4    1  0.3889096E-001  0.1831674E+03  0.7546771E-02  0.1164772E+00
          1   -1    0    0  502    0  0.00000000000E+00  0.00000000000E+00  0.61953319980E+03  0.61953319980E+03  0.00000000000E+00 0.  1.
         -1   -1    0    0    0  501 -0.00000000000E+00 -0.00000000000E+00 -0.54199498813E+02  0.54199498813E+02  0.00000000000E+00 0. -1.
          6    1    1    2  502    0  0.62189554251E+02  0.99379025754E+01  0.27292423768E+03  0.32869125647E+03  0.17200000000E+03 0. -1.
         -6    1    1    2    0  501 -0.62189554251E+02 -0.99379025754E+01  0.29240946331E+03  0.34504144215E+03  0.17200000000E+03 0.  1.
<mgrwt>
<rscale>  2 0.18316742E+03</rscale>
<asrwt>0</asrwt>
<pdfrwt beam="1">  1        1 0.15488328E+00 0.18316742E+03</pdfrwt>
<pdfrwt beam="2">  1       -1 0.13549877E-01 0.18316742E+03</pdfrwt>
<totfact> 0.60423596E+02</totfact>
</mgrwt>
</event>
<event>
 4    1  0.3889096E-001  0.2168328E+03  0.7546771E-02  0.1136267E+00
         -2   -1    0    0    0  501 -0.00000000000E+00  0.00000000000E+00  0.25668439709E+02  0.25668439709E+02  0.00000000000E+00 0. -1.
          2   -1    0    0  502    0  0.00000000000E+00 -0.00000000000E+00 -0.22061834547E+04  0.22061834547E+04  0.00000000000E+00 0.  1.
          6    1    1    2  502    0 -0.80720518431E+02 -0.10448273384E+03 -0.15500276437E+04  0.15651204874E+04  0.17200000000E+03 0.  1.
         -6    1    1    2    0  501  0.80720518431E+02  0.10448273384E+03 -0.63048737127E+03  0.66673140701E+03  0.17200000000E+03 0. -1.
<mgrwt>
<rscale>  2 0.21683276E+03</rscale>
<asrwt>0</asrwt>
<pdfrwt beam="1">  1        2 0.55154578E+00 0.21683276E+03</pdfrwt>
<pdfrwt beam="2">  1       -2 0.64171109E-02 0.21683276E+03</pdfrwt>
<totfact> 0.12162066E+02</totfact>
</mgrwt>
</event>
<event>
 4    1  0.3889096E-001  0.2364109E+03  0.7546771E-02  0.1122207E+00
          2   -1    0    0  502    0  0.00000000000E+00  0.00000000000E+00  0.15426165484E+04  0.15426165484E+04  0.00000000000E+00 0.  1.
         -2   -1    0    0    0  501 -0.00000000000E+00 -0.00000000000E+00 -0.44003388655E+02  0.44003388655E+02  0.00000000000E+00 0. -1.
          6    1    1    2  502    0 -0.15230609320E+03  0.55758123059E+02  0.41589182319E+03  0.47838909154E+03  0.17200000000E+03 0. -1.
         -6    1    1    2    0  501  0.15230609320E+03 -0.55758123059E+02  0.10827213366E+04  0.11082308455E+04  0.17200000000E+03 0.  1.
<mgrwt>
<rscale>  2 0.23641090E+03</rscale>
<asrwt>0</asrwt>
<pdfrwt beam="1">  1        2 0.38565396E+00 0.23641090E+03</pdfrwt>
<pdfrwt beam="2">  1       -2 0.11000852E-01 0.23641090E+03</pdfrwt>
<totfact> 0.22926748E+02</totfact>
</mgrwt>
</event>
<event>
 4    1  0.3889096E-001  0.2053412E+03  0.7546771E-02  0.1145309E+00
         -2   -1    0    0    0  501 -0.00000000000E+00  0.00000000000E+00  0.25766673137E+03  0.25766673137E+03  0.00000000000E+00 0. -1.
          2   -1    0    0  502    0  0.00000000000E+00 -0.00000000000E+00 -0.16421093166E+03  0.16421093166E+03  0.00000000000E+00 0.  1.
          6    1    1    2  502    0 -0.53449285946E+02 -0.98611251760E+02  0.34307804874E+02  0.20818748910E+03  0.17200000000E+03 0.  1.
         -6    1    1    2    0  501  0.53449285946E+02  0.98611251760E+02  0.59147994830E+02  0.21369017393E+03  0.17200000000E+03 0. -1.
<mgrwt>
<rscale>  2 0.20534119E+03</rscale>
<asrwt>0</asrwt>
<pdfrwt beam="1">  1        2 0.41052733E-01 0.20534119E+03</pdfrwt>
<pdfrwt beam="2">  1       -2 0.64416682E-01 0.20534119E+03</pdfrwt>
<totfact> 0.28527056E+02</totfact>
</mgrwt>
</event>
<event>
 4    1  0.3889096E-001  0.2362284E+03  0.7546771E-02  0.1122331E+00
          1   -1    0    0  502    0  0.00000000000E+00  0.00000000000E+00  0.12369051356E+04  0.12369051356E+04  0.00000000000E+00 0.  1.
         -1   -1    0    0    0  501 -0.00000000000E+00 -0.00000000000E+00 -0.54160792907E+02  0.54160792907E+02  0.00000000000E+00 0. -1.
          6    1    1    2  502    0 -0.22735885706E+02 -0.16032140821E+03  0.32756792294E+03  0.40386212817E+03  0.17200000000E+03 0. -1.
         -6    1    1    2    0  501  0.22735885706E+02  0.16032140821E+03  0.85517641972E+03  0.88720380030E+03  0.17200000000E+03 0.  1.
<mgrwt>
<rscale>  2 0.23622844E+03</rscale>
<asrwt>0</asrwt>
<pdfrwt beam="1">  1        1 0.30922619E+00 0.23622844E+03</pdfrwt>
<pdfrwt beam="2">  1       -1 0.13540202E-01 0.23622844E+03</pdfrwt>
<totfact> 0.12757274E+02</totfact>
</mgrwt>
</event>
<event>
 4    1  0.3889096E-001  0.1973018E+03  0.7546771E-02  0.1152036E+00
          2   -1    0    0  502    0  0.00000000000E+00  0.00000000000E+00  0.49577665350E+03  0.49577665350E+03  0.00000000000E+00 0. -1.
         -2   -1    0    0    0  501 -0.00000000000E+00 -0.00000000000E+00 -0.82190136316E+02  0.82190136316E+02  0.00000000000E+00 0.  1.
          6    1    1    2  502    0  0.15550901706E+02 -0.95405247339E+02  0.14572004099E+03  0.24528008910E+03  0.17200000000E+03 0.  1.
         -6    1    1    2    0  501 -0.15550901706E+02  0.95405247339E+02  0.26786647619E+03  0.33268670071E+03  0.17200000000E+03 0. -1.
<mgrwt>
<rscale>  2 0.19730178E+03</rscale>
<asrwt>0</asrwt>
<pdfrwt beam="1">  1        2 0.12394416E+00 0.19730178E+03</pdfrwt>
<pdfrwt beam="2">  1       -2 0.20547535E-01 0.19730178E+03</pdfrwt>
<totfact> 0.71007748E+02</totfact>
</mgrwt>
</event>
<event>
 4    1  0.3889096E-001  0.2264307E+03  0.7546771E-02  0.1129177E+00
          2   -1    0    0  502    0  0.00000000000E+00  0.00000000000E+00  0.43403445335E+03  0.43403445335E+03  0.00000000000E+00 0.  1.
         -2   -1    0    0    0  501 -0.00000000000E+00 -0.00000000000E+00 -0.11938906902E+03  0.11938906902E+03  0.00000000000E+00 0. -1.
          6    1    1    2  502    0  0.12921364716E+03 -0.70644919921E+02  0.12886417049E+03  0.26053185172E+03  0.17200000000E+03 0. -1.
         -6    1    1    2    0  501 -0.12921364716E+03  0.70644919921E+02  0.18578121383E+03  0.29289167065E+03  0.17200000000E+03 0. -1.
<mgrwt>
<rscale>  2 0.22643072E+03</rscale>
<asrwt>0</asrwt>
<pdfrwt beam="1">  1        2 0.10850861E+00 0.22643072E+03</pdfrwt>
<pdfrwt beam="2">  1       -2 0.29847268E-01 0.22643072E+03</pdfrwt>
<totfact> 0.43302613E+02</totfact>
</mgrwt>
</event>
<event>
 4    1  0.3889096E-001  0.1725274E+03  0.7546771E-02  0.1175237E+00
          2   -1    0    0  502    0  0.00000000000E+00  0.00000000000E+00  0.10386249351E+03  0.10386249351E+03  0.00000000000E+00 0. -1.
         -2   -1    0    0    0  501 -0.00000000000E+00 -0.00000000000E+00 -0.39749570117E+03  0.39749570117E+03  0.00000000000E+00 0.  1.
          6    1    1    2  502    0 -0.11204973050E+02  0.74944638139E+01 -0.27923040221E+03  0.32823061394E+03  0.17200000000E+03 0.  1.
         -6    1    1    2    0  501  0.11204973050E+02 -0.74944638139E+01 -0.14402805448E+02  0.17312758074E+03  0.17200000000E+03 0. -1.
<mgrwt>
<rscale>  2 0.17252744E+03</rscale>
<asrwt>0</asrwt>
<pdfrwt beam="1">  1        2 0.25965624E-01 0.17252744E+03</pdfrwt>
<pdfrwt beam="2">  1       -2 0.99373925E-01 0.17252744E+03</pdfrwt>
<totfact> 0.18106257E+02</totfact>
</mgrwt>
</event>
<event>
 4    1  0.3889096E-001  0.1805424E+03  0.7546771E-02  0.1167279E+00
          1   -1    0    0  502    0  0.00000000000E+00  0.00000000000E+00  0.62789015084E+03  0.62789015084E+03  0.00000000000E+00 0. -1.
         -1   -1    0    0    0  501 -0.00000000000E+00 -0.00000000000E+00 -0.55042251358E+02  0.55042251358E+02  0.00000000000E+00 0.  1.
          6    1    1    2  502    0 -0.48696067905E+02  0.25303014626E+02  0.36784415838E+03  0.40976197290E+03  0.17200000000E+03 0. -1.
         -6    1    1    2    0  501  0.48696067905E+02 -0.25303014626E+02  0.20500374111E+03  0.27317042930E+03  0.17200000000E+03 0.  1.
<mgrwt>
<rscale>  2 0.18054238E+03</rscale>
<asrwt>0</asrwt>
<pdfrwt beam="1">  1        1 0.15697252E+00 0.18054238E+03</pdfrwt>
<pdfrwt beam="2">  1       -1 0.13760565E-01 0.18054238E+03</pdfrwt>
<totfact> 0.57652945E+02</totfact>
</mgrwt>
</event>
<event>
 4    1  0.3889096E-001  0.2215055E+03  0.7546771E-02  0.1132766E+00
          2   -1    0    0  502    0  0.00000000000E+00  0.00000000000E+00  0.12855876057E+04  0.12855876057E+04  0.00000000000E+00 0. -1.
         -2   -1    0    0    0  501 -0.00000000000E+00 -0.00000000000E+00 -0.45838362264E+02  0.45838362264E+02  0.00000000000E+00 0.  1.
          6    1    1    2  502    0 -0.13916048715E+03  0.10726457020E+02  0.89224501191E+03  0.91932902670E+03  0.17200000000E+03 0. -1.
         -6    1    1    2    0  501  0.13916048715E+03 -0.10726457020E+02  0.34750423150E+03  0.41209694124E+03  0.17200000000E+03 0.  1.
<mgrwt>
<rscale>  2 0.22150553E+03</rscale>
<asrwt>0</asrwt>
<pdfrwt beam="1">  1        2 0.32139678E+00 0.22150553E+03</pdfrwt>
<pdfrwt beam="2">  1       -2 0.11459595E-01 0.22150553E+03</pdfrwt>
<totfact> 0.36028093E+02</totfact>
</mgrwt>
</event>
<event>
 4    1  0.3889096E-001  0.2241171E+03  0.7546771E-02  0.1130850E+00
          1   -1    0    0  502    0  0.00000000000E+00  0.00000000000E+00  0.93623509214E+03  0.93623509214E+03  0.00000000000E+00 0. -1.
         -1   -1    0    0    0  501 -0.00000000000E+00 -0.00000000000E+00 -0.56011998343E+02  0.56011998343E+02  0.00000000000E+00 0.  1.
          6    1    1    2  502    0  0.64598842238E+02 -0.12834112964E+03  0.54200440847E+03  0.58651277460E+03  0.17200000000E+03 0. -1.
         -6    1    1    2    0  501 -0.64598842238E+02  0.12834112964E+03  0.33821868533E+03  0.40573431588E+03  0.17200000000E+03 0.  1.
<mgrwt>
<rscale>  2 0.22411706E+03</rscale>
<asrwt>0</asrwt>
<pdfrwt beam="1">  1        1 0.23405872E+00 0.22411706E+03</pdfrwt>
<pdfrwt beam="2">  1       -1 0.14003003E-01 0.22411706E+03</pdfrwt>
<totfact> 0.25207321E+02</totfact>
</mgrwt>
</event>
<event>
 4    1  0.3889096E-001  0.2722682E+03  0.7546771E-02  0.1099988E+00
          2   -1    0    0  502    0  0.00000000000E+00  0.00000000000E+00  0.23977339181E+04  0.23977339181E+04  0.00000000000E+00 0. -1.
         -2   -1    0    0    0  501 -0.00000000000E+00 -0.00000000000E+00 -0.36856484653E+02  0.36856484653E+02  0.00000000000E+00 0.  1.
          6    1    1    2  502    0 -0.14412399614E+03 -0.15418893165E+03  0.16691195787E+04  0.16911800971E+04  0.17200000000E+03 0.  1.
         -6    1    1    2    0  501  0.14412399614E+03  0.15418893165E+03  0.69175785473E+03  0.74341030561E+03  0.17200000000E+03 0.  1.
<mgrwt>
<rscale>  2 0.27226816E+03</rscale>
<asrwt>0</asrwt>
<pdfrwt beam="1">  1        2 0.59943295E+00 0.27226816E+03</pdfrwt>
<pdfrwt beam="2">  1       -2 0.92141293E-02 0.27226816E+03</pdfrwt>
<totfact> 0.40565506E+01</totfact>
</mgrwt>
</event>
<event>
 4    1  0.3889096E-001  0.1730927E+03  0.7546771E-02  0.1174661E+00
         -2   -1    0    0    0  501 -0.00000000000E+00  0.00000000000E+00  0.10914833827E+03  0.10914833827E+03  0.00000000000E+00 0.  1.
          2   -1    0    0  502    0  0.00000000000E+00 -0.00000000000E+00 -0.40552628870E+03  0.40552628870E+03  0.00000000000E+00 0. -1.
          6    1    1    2  502    0 -0.18158601400E+02 -0.68809570169E+01 -0.19124792167E+01  0.17310326384E+03  0.17200000000E+03 0.  1.
         -6    1    1    2    0  501  0.18158601400E+02  0.68809570169E+01 -0.29446547121E+03  0.34157136313E+03  0.17200000000E+03 0. -1.
<mgrwt>
<rscale>  2 0.17309270E+03</rscale>
<asrwt>0</asrwt>
<pdfrwt beam="1">  1        2 0.10138157E+00 0.17309270E+03</pdfrwt>
<pdfrwt beam="2">  1       -2 0.27287085E-01 0.17309270E+03</pdfrwt>
<totfact> 0.55363938E+02</totfact>
</mgrwt>
</event>
<event>
 4    1  0.3889096E-001  0.1724037E+03  0.7546771E-02  0.1175364E+00
         -2   -1    0    0    0  501 -0.00000000000E+00  0.00000000000E+00  0.37702192993E+02  0.37702192993E+02  0.00000000000E+00 0.  1.
          2   -1    0    0  502    0  0.00000000000E+00 -0.00000000000E+00 -0.79184566392E+03  0.79184566392E+03  0.00000000000E+00 0. -1.
          6    1    1    2  502    0 -0.79786124920E+01 -0.86827839979E+01 -0.40457530349E+03  0.43977747236E+03  0.17200000000E+03 0. -1.
         -6    1    1    2    0  501  0.79786124920E+01  0.86827839979E+01 -0.34956816744E+03  0.38977038456E+03  0.17200000000E+03 0. -1.
<mgrwt>
<rscale>  2 0.17240374E+03</rscale>
<asrwt>0</asrwt>
<pdfrwt beam="1">  1        2 0.19796141E+00 0.17240374E+03</pdfrwt>
<pdfrwt beam="2">  1       -2 0.94255485E-02 0.17240374E+03</pdfrwt>
<totfact> 0.13082607E+03</totfact>
</mgrwt>
</event>
<event>
 4    1  0.3889096E-001  0.2114991E+03  0.7546771E-02  0.1140384E+00
          1   -1    0    0  502    0  0.00000000000E+00  0.00000000000E+00  0.13755283706E+03  0.13755283706E+03  0.00000000000E+00 0. -1.
         -1   -1    0    0    0  501 -0.00000000000E+00 -0.00000000000E+00 -0.32856711091E+03  0.32856711091E+03  0.00000000000E+00 0.  1.
          6    1    1    2  502    0  0.86760955672E+02  0.87294887578E+02 -0.71905877690E+02  0.22338826306E+03  0.17200000000E+03 0. -1.
         -6    1    1    2    0  501 -0.86760955672E+02 -0.87294887578E+02 -0.11910839616E+03  0.24273168491E+03  0.17200000000E+03 0.  1.
<mgrwt>
<rscale>  2 0.21149908E+03</rscale>
<asrwt>0</asrwt>
<pdfrwt beam="1">  1        1 0.34388209E-01 0.21149908E+03</pdfrwt>
<pdfrwt beam="2">  1       -1 0.82141777E-01 0.21149908E+03</pdfrwt>
<totfact> 0.19917550E+02</totfact>
</mgrwt>
</event>
<event>
 4    1  0.3889096E-001  0.2707813E+03  0.7546771E-02  0.1100833E+00
         -2   -1    0    0    0  501 -0.00000000000E+00  0.00000000000E+00  0.26509446169E+03  0.26509446169E+03  0.00000000000E+00 0. -1.
          2   -1    0    0  502    0  0.00000000000E+00 -0.00000000000E+00 -0.39984142526E+03  0.39984142526E+03  0.00000000000E+00 0.  1.
          6    1    1    2  502    0 -0.78531507041E+02  0.19383323977E+03 -0.25196067144E+03  0.36987390066E+03  0.17200000000E+03 0.  1.
         -6    1    1    2    0  501  0.78531507041E+02 -0.19383323977E+03  0.11721370787E+03  0.29506198629E+03  0.17200000000E+03 0. -1.
<mgrwt>
<rscale>  2 0.27078132E+03</rscale>
<asrwt>0</asrwt>
<pdfrwt beam="1">  1        2 0.99960355E-01 0.27078132E+03</pdfrwt>
<pdfrwt beam="2">  1       -2 0.66273616E-01 0.27078132E+03</pdfrwt>
<totfact> 0.99654579E+01</totfact>
</mgrwt>
</event>
<event>
 4    1  0.3889096E-001  0.5853815E+03  0.7546771E-02  0.9936208E-01
         -2   -1    0    0    0  501 -0.00000000000E+00  0.00000000000E+00  0.52066455920E+03  0.52066455920E+03  0.00000000000E+00 0.  1.
          2   -1    0    0  502    0  0.00000000000E+00 -0.00000000000E+00 -0.68037379781E+03  0.68037379781E+03  0.00000000000E+00 0. -1.
          6    1    1    2  502    0 -0.35936386544E+03  0.42888824020E+03 -0.18840586962E+03  0.61495388613E+03  0.17200000000E+03 0.  1.
         -6    1    1    2    0  501  0.35936386544E+03 -0.42888824020E+03  0.28696631009E+02  0.58608447087E+03  0.17200000000E+03 0. -1.
<mgrwt>
<rscale>  2 0.58538151E+03</rscale>
<asrwt>0</asrwt>
<pdfrwt beam="1">  1        2 0.17009345E+00 0.58538151E+03</pdfrwt>
<pdfrwt beam="2">  1       -2 0.13016614E+00 0.58538151E+03</pdfrwt>
<totfact> 0.97547678E+00</totfact>
</mgrwt>
</event>
<event>
 4    1  0.3889096E-001  0.2201705E+03  0.7546771E-02  0.1133756E+00
         -1   -1    0    0    0  501 -0.00000000000E+00  0.00000000000E+00  0.17175969314E+03  0.17175969314E+03  0.00000000000E+00 0.  1.
          1   -1    0    0  502    0  0.00000000000E+00 -0.00000000000E+00 -0.12258143102E+04  0.12258143102E+04  0.00000000000E+00 0. -1.
          6    1    1    2  502    0 -0.76454409832E+02  0.11421818417E+03 -0.11401165916E+04  0.11611808269E+04  0.17200000000E+03 0. -1.
         -6    1    1    2    0  501  0.76454409832E+02 -0.11421818417E+03  0.86061974569E+02  0.23639317639E+03  0.17200000000E+03 0.  1.
<mgrwt>
<rscale>  2 0.22017055E+03</rscale>
<asrwt>0</asrwt>
<pdfrwt beam="1">  1        1 0.30645358E+00 0.22017055E+03</pdfrwt>
<pdfrwt beam="2">  1       -1 0.42939923E-01 0.22017055E+03</pdfrwt>
<totfact> 0.19275270E+01</totfact>
</mgrwt>
</event>
<event>
 4    1  0.3889096E-001  0.2981204E+03  0.7546771E-02  0.1086184E+00
         -2   -1    0    0    0  501 -0.00000000000E+00  0.00000000000E+00  0.36379061513E+03  0.36379061513E+03  0.00000000000E+00 0. -1.
          2   -1    0    0  502    0  0.00000000000E+00 -0.00000000000E+00 -0.32966379369E+03  0.32966379369E+03  0.00000000000E+00 0.  1.
          6    1    1    2  502    0 -0.24127135059E+03  0.32861724412E+02 -0.15936851987E+03  0.33804449807E+03  0.17200000000E+03 0.  1.
         -6    1    1    2    0  501  0.24127135059E+03 -0.32861724412E+02  0.19349534132E+03  0.35540991075E+03  0.17200000000E+03 0.  1.
<mgrwt>
<rscale>  2 0.29812037E+03</rscale>
<asrwt>0</asrwt>
<pdfrwt beam="1">  1        2 0.82415949E-01 0.29812037E+03</pdfrwt>
<pdfrwt beam="2">  1       -2 0.90947654E-01 0.29812037E+03</pdfrwt>
<totfact> 0.61927463E+01</totfact>
</mgrwt>
</event>
<event>
 4    1  0.3889096E-001  0.1748102E+03  0.7546771E-02  0.1172922E+00
         -1   -1    0    0    0  501 -0.00000000000E+00  0.00000000000E+00  0.17158463624E+03  0.17158463624E+03  0.00000000000E+00 0.  1.
          1   -1    0    0  502    0  0.00000000000E+00 -0.00000000000E+00 -0.17818234385E+03  0.17818234385E+03  0.00000000000E+00 0. -1.
          6    1    1    2  502    0 -0.31215866996E+02  0.42403688874E+00 -0.71391326046E+01  0.17495592980E+03  0.17200000000E+03 0. -1.
         -6    1    1    2    0  501  0.31215866996E+02 -0.42403688874E+00  0.54142499858E+00  0.17481105028E+03  0.17200000000E+03 0.  1.
<mgrwt>
<rscale>  2 0.17481021E+03</rscale>
<asrwt>0</asrwt>
<pdfrwt beam="1">  1        1 0.44545586E-01 0.17481021E+03</pdfrwt>
<pdfrwt beam="2">  1       -1 0.42896159E-01 0.17481021E+03</pdfrwt>
<totfact> 0.50256445E+02</totfact>
</mgrwt>
</event>
<event>
 4    1  0.3889096E-001  0.1768866E+03  0.7546771E-02  0.1170851E+00
          2   -1    0    0  502    0  0.00000000000E+00  0.00000000000E+00  0.10391415864E+04  0.10391415864E+04  0.00000000000E+00 0.  1.
         -2   -1    0    0    0  501 -0.00000000000E+00 -0.00000000000E+00 -0.34767473236E+02  0.34767473236E+02  0.00000000000E+00 0. -1.
          6    1    1    2  502    0 -0.41280630213E+02  0.88860073639E+00  0.69870918701E+03  0.72075197402E+03  0.17200000000E+03 0.  1.
         -6    1    1    2    0  501  0.41280630213E+02 -0.88860073639E+00  0.30566492618E+03  0.35315708564E+03  0.17200000000E+03 0. -1.
<mgrwt>
<rscale>  2 0.17688663E+03</rscale>
<asrwt>0</asrwt>
<pdfrwt beam="1">  1        2 0.25978529E+00 0.17688663E+03</pdfrwt>
<pdfrwt beam="2">  1       -2 0.86918718E-02 0.17688663E+03</pdfrwt>
<totfact> 0.91005300E+02</totfact>
</mgrwt>
</event>
<event>
 4    1  0.3889096E-001  0.1919376E+03  0.7546771E-02  0.1156725E+00
          2   -1    0    0  502    0  0.00000000000E+00  0.00000000000E+00  0.24454707870E+03  0.24454707870E+03  0.00000000000E+00 0.  1.
         -2   -1    0    0    0  501 -0.00000000000E+00 -0.00000000000E+00 -0.15208287308E+03  0.15208287308E+03  0.00000000000E+00 0. -1.
          6    1    1    2  502    0 -0.72372345232E+02  0.44925444009E+02  0.65508094966E+02  0.20280868418E+03  0.17200000000E+03 0.  1.
         -6    1    1    2    0  501  0.72372345232E+02 -0.44925444009E+02  0.26956110656E+02  0.19382126760E+03  0.17200000000E+03 0. -1.
<mgrwt>
<rscale>  2 0.19193762E+03</rscale>
<asrwt>0</asrwt>
<pdfrwt beam="1">  1        2 0.61136769E-01 0.19193762E+03</pdfrwt>
<pdfrwt beam="2">  1       -2 0.38020719E-01 0.19193762E+03</pdfrwt>
<totfact> 0.53091313E+02</totfact>
</mgrwt>
</event>
<event>
 4    1  0.3889096E-001  0.2124168E+03  0.7546771E-02  0.1139666E+00
          1   -1    0    0  502    0  0.00000000000E+00  0.00000000000E+00  0.29362727478E+03  0.29362727478E+03  0.00000000000E+00 0. -1.
         -1   -1    0    0    0  501 -0.00000000000E+00 -0.00000000000E+00 -0.17681973150E+03  0.17681973150E+03  0.00000000000E+00 0.  1.
          6    1    1    2  502    0  0.79083407122E+01  0.12439589024E+03 -0.26712903251E+02  0.21408983760E+03  0.17200000000E+03 0.  1.
         -6    1    1    2    0  501 -0.79083407122E+01 -0.12439589024E+03  0.14352044653E+03  0.25635716868E+03  0.17200000000E+03 0. -1.
<mgrwt>
<rscale>  2 0.21241676E+03</rscale>
<asrwt>0</asrwt>
<pdfrwt beam="1">  1        1 0.73406818E-01 0.21241676E+03</pdfrwt>
<pdfrwt beam="2">  1       -1 0.44204933E-01 0.21241676E+03</pdfrwt>
<totfact> 0.25163390E+02</totfact>
</mgrwt>
</event>
<event>
 4    1  0.3889096E-001  0.1732290E+03  0.7546771E-02  0.1174522E+00
         -1   -1    0    0    0  501 -0.00000000000E+00  0.00000000000E+00  0.13697144462E+02  0.13697144462E+02  0.00000000000E+00 0.  1.
          1   -1    0    0  502    0  0.00000000000E+00 -0.00000000000E+00 -0.22436363556E+04  0.22436363556E+04  0.00000000000E+00 0. -1.
          6    1    1    2  502    0  0.87448816574E+01 -0.18649822874E+02 -0.12881028216E+04  0.12996988758E+04  0.17200000000E+03 0. -1.
         -6    1    1    2    0  501 -0.87448816574E+01  0.18649822874E+02 -0.94183638956E+03  0.95763462424E+03  0.17200000000E+03 0.  1.
<mgrwt>
<rscale>  2 0.17322901E+03</rscale>
<asrwt>0</asrwt>
<pdfrwt beam="1">  1        1 0.56090928E+00 0.17322901E+03</pdfrwt>
<pdfrwt beam="2">  1       -1 0.34242850E-02 0.17322901E+03</pdfrwt>
<totfact> 0.78333837E+01</totfact>
</mgrwt>
</event>
<event>
 4    1  0.3889096E-001  0.2124834E+03  0.7546771E-02  0.1139614E+00
          3   -1    0    0  502    0  0.00000000000E+00  0.00000000000E+00  0.42505671940E+03  0.42505671940E+03  0.00000000000E+00 0. -1.
         -3   -1    0    0    0  501 -0.00000000000E+00 -0.00000000000E+00 -0.11937618237E+03  0.11937618237E+03  0.00000000000E+00 0.  1.
          6    1    1    2  502    0  0.94857736429E+02 -0.81038262506E+02  0.24321217801E+03  0.32295720101E+03  0.17200000000E+03 0.  1.
         -6    1    1    2    0  501 -0.94857736429E+02  0.81038262506E+02  0.62468359020E+02  0.22147570076E+03  0.17200000000E+03 0.  1.
<mgrwt>
<rscale>  2 0.21248339E+03</rscale>
<asrwt>0</asrwt>
<pdfrwt beam="1">  1        3 0.10626418E+00 0.21248339E+03</pdfrwt>
<pdfrwt beam="2">  1       -3 0.29844047E-01 0.21248339E+03</pdfrwt>
<totfact> 0.20943181E+01</totfact>
</mgrwt>
</event>
<event>
 4    1  0.3889096E-001  0.2628661E+03  0.7546771E-02  0.1105433E+00
          2   -1    0    0  502    0  0.00000000000E+00  0.00000000000E+00  0.17280312006E+04  0.17280312006E+04  0.00000000000E+00 0. -1.
         -2   -1    0    0    0  501 -0.00000000000E+00 -0.00000000000E+00 -0.40831924385E+02  0.40831924385E+02  0.00000000000E+00 0.  1.
          6    1    1    2  502    0 -0.14966972585E+03  0.13081871467E+03  0.97083447821E+03  0.10057922982E+04  0.17200000000E+03 0. -1.
         -6    1    1    2    0  501  0.14966972585E+03 -0.13081871467E+03  0.71636479805E+03  0.76307082688E+03  0.17200000000E+03 0.  1.
<mgrwt>
<rscale>  2 0.26286606E+03</rscale>
<asrwt>0</asrwt>
<pdfrwt beam="1">  1        2 0.43200756E+00 0.26286606E+03</pdfrwt>
<pdfrwt beam="2">  1       -2 0.10207987E-01 0.26286606E+03</pdfrwt>
<totfact> 0.17395471E+02</totfact>
</mgrwt>
</event>
<event>
 4    1  0.3889096E-001  0.1783047E+03  0.7546771E-02  0.1169454E+00
          1   -1    0    0  502    0  0.00000000000E+00  0.00000000000E+00  0.57088248001E+03  0.57088248001E+03  0.00000000000E+00 0.  1.
         -1   -1    0    0    0  501 -0.00000000000E+00 -0.00000000000E+00 -0.68977910234E+02  0.68977910234E+02  0.00000000000E+00 0. -1.
          6    1    1    2  502    0 -0.22348395539E+02  0.41341301807E+02  0.39137114574E+03  0.43007432816E+03  0.17200000000E+03 0.  1.
         -6    1    1    2    0  501  0.22348395539E+02 -0.41341301807E+02  0.11053342403E+03  0.20978606209E+03  0.17200000000E+03 0. -1.
<mgrwt>
<rscale>  2 0.17830467E+03</rscale>
<asrwt>0</asrwt>
<pdfrwt beam="1">  1        1 0.14272061E+00 0.17830467E+03</pdfrwt>
<pdfrwt beam="2">  1       -1 0.17244479E-01 0.17830467E+03</pdfrwt>
<totfact> 0.47346302E+02</totfact>
</mgrwt>
</event>
<event>
 4    1  0.3889096E-001  0.1804508E+03  0.7546771E-02  0.1167368E+00
         -2   -1    0    0    0  501 -0.00000000000E+00  0.00000000000E+00  0.29285702539E+03  0.29285702539E+03  0.00000000000E+00 0. -1.
          2   -1    0    0  502    0  0.00000000000E+00 -0.00000000000E+00 -0.17472150177E+03  0.17472150177E+03  0.00000000000E+00 0.  1.
          6    1    1    2  502    0 -0.17554923854E+02 -0.51674988927E+02 -0.81909595164E+02  0.19817078900E+03  0.17200000000E+03 0.  1.
         -6    1    1    2    0  501  0.17554923854E+02  0.51674988927E+02  0.20004511878E+03  0.26940773816E+03  0.17200000000E+03 0. -1.
<mgrwt>
<rscale>  2 0.18045077E+03</rscale>
<asrwt>0</asrwt>
<pdfrwt beam="1">  1        2 0.43680376E-01 0.18045077E+03</pdfrwt>
<pdfrwt beam="2">  1       -2 0.73214256E-01 0.18045077E+03</pdfrwt>
<totfact> 0.20350234E+02</totfact>
</mgrwt>
</event>
<event>
 4    1  0.3889096E-001  0.1796934E+03  0.7546771E-02  0.1168100E+00
         -3   -1    0    0    0  501 -0.00000000000E+00  0.00000000000E+00  0.46377704632E+03  0.46377704632E+03  0.00000000000E+00 0. -1.
          3   -1    0    0  502    0  0.00000000000E+00 -0.00000000000E+00 -0.75383356916E+02  0.75383356916E+02  0.00000000000E+00 0.  1.
          6    1    1    2  502    0 -0.49975087912E+02  0.14429549589E+02  0.26871480716E+03  0.32326052790E+03  0.17200000000E+03 0. -1.
         -6    1    1    2    0  501  0.49975087912E+02 -0.14429549589E+02  0.11967888224E+03  0.21589987533E+03  0.17200000000E+03 0.  1.
<mgrwt>
<rscale>  2 0.17969341E+03</rscale>
<asrwt>0</asrwt>
<pdfrwt beam="1">  1        3 0.18845841E-01 0.17969341E+03</pdfrwt>
<pdfrwt beam="2">  1       -3 0.11594425E+00 0.17969341E+03</pdfrwt>
<totfact> 0.38761774E+01</totfact>
</mgrwt>
</event>
<event>
 4    1  0.3889096E-001  0.1778315E+03  0.7546771E-02  0.1169918E+00
         -1   -1    0    0    0  501 -0.00000000000E+00  0.00000000000E+00  0.11507524699E+03  0.11507524699E+03  0.00000000000E+00 0. -1.
          1   -1    0    0  502    0  0.00000000000E+00 -0.00000000000E+00 -0.27891695535E+03  0.27891695535E+03  0.00000000000E+00 0.  1.
          6    1    1    2  502    0  0.17097059907E+02 -0.41806018704E+02 -0.10581971524E+03  0.20693444564E+03  0.17200000000E+03 0.  1.
         -6    1    1    2    0  501 -0.17097059907E+02  0.41806018704E+02 -0.58021993123E+02  0.18705775670E+03  0.17200000000E+03 0.  1.
<mgrwt>
<rscale>  2 0.17783153E+03</rscale>
<asrwt>0</asrwt>
<pdfrwt beam="1">  1        1 0.69729239E-01 0.17783153E+03</pdfrwt>
<pdfrwt beam="2">  1       -1 0.28768812E-01 0.17783153E+03</pdfrwt>
<totfact> 0.56931634E+02</totfact>
</mgrwt>
</event>
<event>
 4    1  0.3889096E-001  0.1940371E+03  0.7546771E-02  0.1154870E+00
          1   -1    0    0  502    0  0.00000000000E+00  0.00000000000E+00  0.47874579766E+03  0.47874579766E+03  0.00000000000E+00 0.  1.
         -1   -1    0    0    0  501 -0.00000000000E+00 -0.00000000000E+00 -0.89978558400E+02  0.89978558400E+02  0.00000000000E+00 0. -1.
          6    1    1    2  502    0  0.77994511651E+02 -0.44533637649E+02  0.93456366928E+02  0.21537056728E+03  0.17200000000E+03 0. -1.
         -6    1    1    2    0  501 -0.77994511651E+02  0.44533637649E+02  0.29531087233E+03  0.35335378878E+03  0.17200000000E+03 0. -1.
<mgrwt>
<rscale>  2 0.19403708E+03</rscale>
<asrwt>0</asrwt>
<pdfrwt beam="1">  1        1 0.11968644E+00 0.19403708E+03</pdfrwt>
<pdfrwt beam="2">  1       -1 0.22494641E-01 0.19403708E+03</pdfrwt>
<totfact> 0.40534672E+02</totfact>
</mgrwt>
</event>
<event>
 4    1  0.3889096E-001  0.2113290E+03  0.7546771E-02  0.1140518E+00
          2   -1    0    0  502    0  0.00000000000E+00  0.00000000000E+00  0.53349215073E+03  0.53349215073E+03  0.00000000000E+00 0.  1.
         -2   -1    0    0    0  501 -0.00000000000E+00 -0.00000000000E+00 -0.84096206528E+02  0.84096206528E+02  0.00000000000E+00 0. -1.
          6    1    1    2  502    0 -0.54350123553E+02  0.11009998731E+03  0.20383865182E+03  0.29361563159E+03  0.17200000000E+03 0.  1.
         -6    1    1    2    0  501  0.54350123553E+02 -0.11009998731E+03  0.24555729239E+03  0.32397272568E+03  0.17200000000E+03 0.  1.
<mgrwt>
<rscale>  2 0.21132899E+03</rscale>
<asrwt>0</asrwt>
<pdfrwt beam="1">  1        2 0.13337303E+00 0.21132899E+03</pdfrwt>
<pdfrwt beam="2">  1       -2 0.21024053E-01 0.21132899E+03</pdfrwt>
<totfact> 0.62070634E+02</totfact>
</mgrwt>
</event>
<event>
 4    1  0.3889096E-001  0.1943325E+03  0.7546771E-02  0.1154611E+00
         -1   -1    0    0    0  501 -0.00000000000E+00  0.00000000000E+00  0.27970277177E+02  0.27970277177E+02  0.00000000000E+00 0.  1.
          1   -1    0    0  502    0  0.00000000000E+00 -0.00000000000E+00 -0.18338745536E+04  0.18338745536E+04  0.00000000000E+00 0. -1.
          6    1    1    2  502    0 -0.17589164769E+02  0.88722936212E+02 -0.13810431664E+04  0.13946488324E+04  0.17200000000E+03 0. -1.
         -6    1    1    2    0  501  0.17589164769E+02 -0.88722936212E+02 -0.42486110996E+03  0.46719599836E+03  0.17200000000E+03 0.  1.
<mgrwt>
<rscale>  2 0.19433255E+03</rscale>
<asrwt>0</asrwt>
<pdfrwt beam="1">  1        1 0.45846866E+00 0.19433255E+03</pdfrwt>
<pdfrwt beam="2">  1       -1 0.69925690E-02 0.19433255E+03</pdfrwt>
<totfact> 0.81531897E+01</totfact>
</mgrwt>
</event>
<event>
 4    1  0.3889096E-001  0.2170058E+03  0.7546771E-02  0.1136135E+00
          2   -1    0    0  502    0  0.00000000000E+00  0.00000000000E+00  0.52118585865E+03  0.52118585865E+03  0.00000000000E+00 0. -1.
         -2   -1    0    0    0  501 -0.00000000000E+00 -0.00000000000E+00 -0.92685807891E+02  0.92685807891E+02  0.00000000000E+00 0.  1.
          6    1    1    2  502    0 -0.11896120559E+03 -0.57928732610E+02  0.26292855200E+03  0.34091484267E+03  0.17200000000E+03 0.  1.
         -6    1    1    2    0  501  0.11896120559E+03  0.57928732610E+02  0.16557149876E+03  0.27295682387E+03  0.17200000000E+03 0.  1.
<mgrwt>
<rscale>  2 0.21700578E+03</rscale>
<asrwt>0</asrwt>
<pdfrwt beam="1">  1        2 0.13029646E+00 0.21700578E+03</pdfrwt>
<pdfrwt beam="2">  1       -2 0.23171453E-01 0.21700578E+03</pdfrwt>
<totfact> 0.54046291E+02</totfact>
</mgrwt>
</event>
<event>
 4    1  0.3889096E-001  0.1865276E+03  0.7546771E-02  0.1161631E+00
         -1   -1    0    0    0  501 -0.00000000000E+00  0.00000000000E+00  0.15049518582E+03  0.15049518582E+03  0.00000000000E+00 0.  1.
          1   -1    0    0  502    0  0.00000000000E+00 -0.00000000000E+00 -0.23857719725E+03  0.23857719725E+03  0.00000000000E+00 0. -1.
          6    1    1    2  502    0 -0.46270007915E+02  0.55386317693E+02 -0.78279024714E+02  0.20228732914E+03  0.17200000000E+03 0.  1.
         -6    1    1    2    0  501  0.46270007915E+02 -0.55386317693E+02 -0.98029867157E+01  0.18678505392E+03  0.17200000000E+03 0.  1.
<mgrwt>
<rscale>  2 0.18652763E+03</rscale>
<asrwt>0</asrwt>
<pdfrwt beam="1">  1        1 0.59644299E-01 0.18652763E+03</pdfrwt>
<pdfrwt beam="2">  1       -1 0.37623797E-01 0.18652763E+03</pdfrwt>
<totfact> 0.43889889E+02</totfact>
</mgrwt>
</event>
<event>
 4    1  0.3889096E-001  0.1943149E+03  0.7546771E-02  0.1154626E+00
          1   -1    0    0  502    0  0.00000000000E+00  0.00000000000E+00  0.80908598030E+02  0.80908598030E+02  0.00000000000E+00 0. -1.
         -1   -1    0    0    0  501 -0.00000000000E+00 -0.00000000000E+00 -0.53352081037E+03  0.53352081037E+03  0.00000000000E+00 0.  1.
          6    1    1    2  502    0 -0.77943508369E+02 -0.45815728587E+02 -0.11756510808E+03  0.22711192422E+03  0.17200000000E+03 0. -1.
         -6    1    1    2    0  501  0.77943508369E+02  0.45815728587E+02 -0.33504710426E+03  0.38731748419E+03  0.17200000000E+03 0.  1.
<mgrwt>
<rscale>  2 0.19431488E+03</rscale>
<asrwt>0</asrwt>
<pdfrwt beam="1">  1        1 0.20227149E-01 0.19431488E+03</pdfrwt>
<pdfrwt beam="2">  1       -1 0.13338020E+00 0.19431488E+03</pdfrwt>
<totfact> 0.13058406E+02</totfact>
</mgrwt>
</event>
<event>
 4    1  0.3889096E-001  0.1850393E+03  0.7546771E-02  0.1163013E+00
         -2   -1    0    0    0  501 -0.00000000000E+00  0.00000000000E+00  0.18857593030E+03  0.18857593030E+03  0.00000000000E+00 0.  1.
          2   -1    0    0  502    0  0.00000000000E+00 -0.00000000000E+00 -0.18993701471E+03  0.18993701471E+03  0.00000000000E+00 0. -1.
          6    1    1    2  502    0 -0.14355253572E+02  0.66704474544E+02 -0.40404708933E+02  0.18939931556E+03  0.17200000000E+03 0. -1.
         -6    1    1    2    0  501  0.14355253572E+02 -0.66704474544E+02  0.39043624521E+02  0.18911362945E+03  0.17200000000E+03 0.  1.
<mgrwt>
<rscale>  2 0.18503935E+03</rscale>
<asrwt>0</asrwt>
<pdfrwt beam="1">  1        2 0.47484254E-01 0.18503935E+03</pdfrwt>
<pdfrwt beam="2">  1       -2 0.47143983E-01 0.18503935E+03</pdfrwt>
<totfact> 0.46032115E+02</totfact>
</mgrwt>
</event>
<event>
 4    1  0.3889096E-001  0.1989066E+03  0.7546771E-02  0.1150665E+00
         -2   -1    0    0    0  501 -0.00000000000E+00  0.00000000000E+00  0.45850291490E+03  0.45850291490E+03  0.00000000000E+00 0. -1.
          2   -1    0    0  502    0  0.00000000000E+00 -0.00000000000E+00 -0.97024318472E+02  0.97024318472E+02  0.00000000000E+00 0.  1.
          6    1    1    2  502    0 -0.37700204340E+02 -0.92512333192E+02  0.88346306201E+02  0.21764399146E+03  0.17200000000E+03 0.  1.
         -6    1    1    2    0  501  0.37700204340E+02  0.92512333192E+02  0.27313229023E+03  0.33788324191E+03  0.17200000000E+03 0. -1.
<mgrwt>
<rscale>  2 0.19890660E+03</rscale>
<asrwt>0</asrwt>
<pdfrwt beam="1">  1        2 0.24256081E-01 0.19890660E+03</pdfrwt>
<pdfrwt beam="2">  1       -2 0.11462572E+00 0.19890660E+03</pdfrwt>
<totfact> 0.13942869E+02</totfact>
</mgrwt>
</event>
<event>
 4    1  0.3889096E-001  0.1739863E+03  0.7546771E-02  0.1173753E+00
          2   -1    0    0  502    0  0.00000000000E+00  0.00000000000E+00  0.14835657130E+04  0.14835657130E+04  0.00000000000E+00 0. -1.
         -2   -1    0    0    0  501 -0.00000000000E+00 -0.00000000000E+00 -0.23944471330E+02  0.23944471330E+02  0.00000000000E+00 0.  1.
          6    1    1    2  502    0  0.19514397681E+02  0.17504465075E+02  0.10196355347E+04  0.10343731637E+04  0.17200000000E+03 0. -1.
         -6    1    1    2    0  501 -0.19514397681E+02 -0.17504465075E+02  0.43998570689E+03  0.47313702062E+03  0.17200000000E+03 0.  1.
<mgrwt>
<rscale>  2 0.17398626E+03</rscale>
<asrwt>0</asrwt>
<pdfrwt beam="1">  1        2 0.37089112E+00 0.17398626E+03</pdfrwt>
<pdfrwt beam="2">  1       -2 0.59861228E-02 0.17398626E+03</pdfrwt>
<totfact> 0.68088528E+02</totfact>
</mgrwt>
</event>
<event>
 4    1  0.3889096E-001  0.1867804E+03  0.7546771E-02  0.1161398E+00
          2   -1    0    0  502    0  0.00000000000E+00  0.00000000000E+00  0.68896226791E+03  0.68896226791E+03  0.00000000000E+00 0. -1.
         -2   -1    0    0    0  501 -0.00000000000E+00 -0.00000000000E+00 -0.96149576318E+02  0.96149576318E+02  0.00000000000E+00 0.  1.
          6    1    1    2  502    0 -0.66598993064E+02 -0.29452955032E+02  0.26325298096E+02  0.18862641320E+03  0.17200000000E+03 0.  1.
         -6    1    1    2    0  501  0.66598993064E+02  0.29452955032E+02  0.56648739350E+03  0.59648543103E+03  0.17200000000E+03 0. -1.
<mgrwt>
<rscale>  2 0.18678036E+03</rscale>
<asrwt>0</asrwt>
<pdfrwt beam="1">  1        2 0.17224055E+00 0.18678036E+03</pdfrwt>
<pdfrwt beam="2">  1       -2 0.24037396E-01 0.18678036E+03</pdfrwt>
<totfact> 0.34576611E+02</totfact>
</mgrwt>
</event>
<event>
 4    1  0.3889096E-001  0.1856605E+03  0.7546771E-02  0.1162435E+00
         -1   -1    0    0    0  501 -0.00000000000E+00  0.00000000000E+00  0.47288241106E+03  0.47288241106E+03  0.00000000000E+00 0.  1.
          1   -1    0    0  502    0  0.00000000000E+00 -0.00000000000E+00 -0.20437610615E+03  0.20437610615E+03  0.00000000000E+00 0. -1.
          6    1    1    2  502    0  0.68564896417E+02  0.13589956303E+02 -0.13735596666E+03  0.23094694956E+03  0.17200000000E+03 0. -1.
         -6    1    1    2    0  501 -0.68564896417E+02 -0.13589956303E+02  0.40586227158E+03  0.44631156765E+03  0.17200000000E+03 0.  1.
<mgrwt>
<rscale>  2 0.18566053E+03</rscale>
<asrwt>0</asrwt>
<pdfrwt beam="1">  1        1 0.51094027E-01 0.18566053E+03</pdfrwt>
<pdfrwt beam="2">  1       -1 0.11822060E+00 0.18566053E+03</pdfrwt>
<totfact> 0.54545746E+01</totfact>
</mgrwt>
</event>
<event>
 4    1  0.3889096E-001  0.1743409E+03  0.7546771E-02  0.1173395E+00
         -2   -1    0    0    0  501 -0.00000000000E+00  0.00000000000E+00  0.28634166440E+02  0.28634166440E+02  0.00000000000E+00 0. -1.
          2   -1    0    0  502    0  0.00000000000E+00 -0.00000000000E+00 -0.11206612886E+04  0.11206612886E+04  0.00000000000E+00 0.  1.
          6    1    1    2  502    0 -0.21440560263E+02 -0.18736394966E+02 -0.67806308447E+03  0.70011734491E+03  0.17200000000E+03 0.  1.
         -6    1    1    2    0  501  0.21440560263E+02  0.18736394966E+02 -0.41396403770E+03  0.44917811014E+03  0.17200000000E+03 0. -1.
<mgrwt>
<rscale>  2 0.17434090E+03</rscale>
<asrwt>0</asrwt>
<pdfrwt beam="1">  1        2 0.28016532E+00 0.17434090E+03</pdfrwt>
<pdfrwt beam="2">  1       -2 0.71585418E-02 0.17434090E+03</pdfrwt>
<totfact> 0.10509461E+03</totfact>
</mgrwt>
</event>
<event>
 4    1  0.3889096E-001  0.2101975E+03  0.7546771E-02  0.1141410E+00
         -2   -1    0    0    0  501 -0.00000000000E+00  0.00000000000E+00  0.44909435233E+02  0.44909435233E+02  0.00000000000E+00 0. -1.
          2   -1    0    0  502    0  0.00000000000E+00 -0.00000000000E+00 -0.18849457713E+04  0.18849457713E+04  0.00000000000E+00 0.  1.
          6    1    1    2  502    0  0.10569820371E+03 -0.58539441213E+02 -0.15871890160E+04  0.16010471414E+04  0.17200000000E+03 0.  1.
         -6    1    1    2    0  501 -0.10569820371E+03  0.58539441213E+02 -0.25284732012E+03  0.32880806519E+03  0.17200000000E+03 0. -1.
<mgrwt>
<rscale>  2 0.21019747E+03</rscale>
<asrwt>0</asrwt>
<pdfrwt beam="1">  1        2 0.47123643E+00 0.21019747E+03</pdfrwt>
<pdfrwt beam="2">  1       -2 0.11227359E-01 0.21019747E+03</pdfrwt>
<totfact> 0.10829629E+02</totfact>
</mgrwt>
</event>
<event>
 4    1  0.3889096E-001  0.2532177E+03  0.7546771E-02  0.1111288E+00
         -1   -1    0    0    0  501 -0.00000000000E+00  0.00000000000E+00  0.86573228434E+02  0.86573228434E+02  0.00000000000E+00 0.  1.
          1   -1    0    0  502    0  0.00000000000E+00 -0.00000000000E+00 -0.74194611558E+03  0.74194611558E+03  0.00000000000E+00 0. -1.
          6    1    1    2  502    0  0.23643456921E+02 -0.18432631676E+03 -0.34509763110E+03  0.42803221735E+03  0.17200000000E+03 0.  1.
         -6    1    1    2    0  501 -0.23643456921E+02  0.18432631676E+03 -0.31027525605E+03  0.40048712666E+03  0.17200000000E+03 0. -1.
<mgrwt>
<rscale>  2 0.25321770E+03</rscale>
<asrwt>0</asrwt>
<pdfrwt beam="1">  1        1 0.18548653E+00 0.25321770E+03</pdfrwt>
<pdfrwt beam="2">  1       -1 0.21643307E-01 0.25321770E+03</pdfrwt>
<totfact> 0.20325024E+02</totfact>
</mgrwt>
</event>
<event>
 4    1  0.3889096E-001  0.2177642E+03  0.7546771E-02  0.1135561E+00
         -1   -1    0    0    0  501 -0.00000000000E+00  0.00000000000E+00  0.40114226906E+02  0.40114226906E+02  0.00000000000E+00 0. -1.
          1   -1    0    0  502    0  0.00000000000E+00 -0.00000000000E+00 -0.14815124832E+04  0.14815124832E+04  0.00000000000E+00 0.  1.
          6    1    1    2  502    0  0.20019002312E+02 -0.13204732486E+03 -0.10626944155E+04  0.10847767868E+04  0.17200000000E+03 0.  1.
         -6    1    1    2    0  501 -0.20019002312E+02  0.13204732486E+03 -0.37870384080E+03  0.43684992331E+03  0.17200000000E+03 0. -1.
<mgrwt>
<rscale>  2 0.21776422E+03</rscale>
<asrwt>0</asrwt>
<pdfrwt beam="1">  1        1 0.37037810E+00 0.21776422E+03</pdfrwt>
<pdfrwt beam="2">  1       -1 0.10028557E-01 0.21776422E+03</pdfrwt>
<totfact> 0.11300429E+02</totfact>
</mgrwt>
</event>
<event>
 4    1  0.3889096E-001  0.3133721E+03  0.7546771E-02  0.1078741E+00
          2   -1    0    0  502    0  0.00000000000E+00  0.00000000000E+00  0.39835603426E+03  0.39835603426E+03  0.00000000000E+00 0.  1.
         -2   -1    0    0    0  501 -0.00000000000E+00 -0.00000000000E+00 -0.28099833412E+03  0.28099833412E+03  0.00000000000E+00 0. -1.
          6    1    1    2  502    0  0.89369151896E+02  0.24623407038E+03 -0.60307785203E+02  0.31912237728E+03  0.17200000000E+03 0. -1.
         -6    1    1    2    0  501 -0.89369151896E+02 -0.24623407038E+03  0.17766548534E+03  0.36023199109E+03  0.17200000000E+03 0. -1.
<mgrwt>
<rscale>  2 0.31337208E+03</rscale>
<asrwt>0</asrwt>
<pdfrwt beam="1">  1        2 0.99589008E-01 0.31337208E+03</pdfrwt>
<pdfrwt beam="2">  1       -2 0.70249584E-01 0.31337208E+03</pdfrwt>
<totfact> 0.87808373E+01</totfact>
</mgrwt>
</event>
<event>
 4    1  0.3889096E-001  0.2646116E+03  0.7546771E-02  0.1104404E+00
         -1   -1    0    0    0  501 -0.00000000000E+00  0.00000000000E+00  0.45171169476E+02  0.45171169476E+02  0.00000000000E+00 0.  1.
          1   -1    0    0  502    0  0.00000000000E+00 -0.00000000000E+00 -0.15556365522E+04  0.15556365522E+04  0.00000000000E+00 0. -1.
          6    1    1    2  502    0 -0.17059921786E+03 -0.10644806346E+03 -0.80303498709E+03  0.84550841146E+03  0.17200000000E+03 0. -1.
         -6    1    1    2    0  501  0.17059921786E+03  0.10644806346E+03 -0.70743039560E+03  0.75529931019E+03  0.17200000000E+03 0.  1.
<mgrwt>
<rscale>  2 0.26461157E+03</rscale>
<asrwt>0</asrwt>
<pdfrwt beam="1">  1        1 0.38890910E+00 0.26461157E+03</pdfrwt>
<pdfrwt beam="2">  1       -1 0.11292793E-01 0.26461157E+03</pdfrwt>
<totfact> 0.76965478E+01</totfact>
</mgrwt>
</event>
<event>
 4    1  0.3889096E-001  0.2436124E+03  0.7546771E-02  0.1117410E+00
          2   -1    0    0  502    0  0.00000000000E+00  0.00000000000E+00  0.38462336261E+03  0.38462336261E+03  0.00000000000E+00 0. -1.
         -2   -1    0    0    0  501 -0.00000000000E+00 -0.00000000000E+00 -0.18096177715E+03  0.18096177715E+03  0.00000000000E+00 0.  1.
          6    1    1    2  502    0 -0.17052723792E+03 -0.26142724636E+02 -0.67186675385E+01  0.24370498849E+03  0.17200000000E+03 0.  1.
         -6    1    1    2    0  501  0.17052723792E+03  0.26142724636E+02  0.21038025300E+03  0.32188015126E+03  0.17200000000E+03 0. -1.
<mgrwt>
<rscale>  2 0.24361236E+03</rscale>
<asrwt>0</asrwt>
<pdfrwt beam="1">  1        2 0.96155839E-01 0.24361236E+03</pdfrwt>
<pdfrwt beam="2">  1       -2 0.45240445E-01 0.24361236E+03</pdfrwt>
<totfact> 0.22811259E+02</totfact>
</mgrwt>
</event>
<event>
 4    1  0.3889096E-001  0.2021295E+03  0.7546771E-02  0.1147955E+00
         -2   -1    0    0    0  501 -0.00000000000E+00  0.00000000000E+00  0.33558845318E+03  0.33558845318E+03  0.00000000000E+00 0. -1.
          2   -1    0    0  502    0  0.00000000000E+00 -0.00000000000E+00 -0.23141672937E+03  0.23141672937E+03  0.00000000000E+00 0.  1.
          6    1    1    2  502    0  0.32285332160E+02 -0.10114350695E+03  0.24725277986E+03  0.31935918465E+03  0.17200000000E+03 0.  1.
         -6    1    1    2    0  501 -0.32285332160E+02  0.10114350695E+03 -0.14308105605E+03  0.24764599789E+03  0.17200000000E+03 0.  1.
<mgrwt>
<rscale>  2 0.20212954E+03</rscale>
<asrwt>0</asrwt>
<pdfrwt beam="1">  1        2 0.57854183E-01 0.20212954E+03</pdfrwt>
<pdfrwt beam="2">  1       -2 0.83897113E-01 0.20212954E+03</pdfrwt>
<totfact> 0.11143768E+02</totfact>
</mgrwt>
</event>
<event>
 4    1  0.3889096E-001  0.2170287E+03  0.7546771E-02  0.1136118E+00
         -2   -1    0    0    0  501 -0.00000000000E+00  0.00000000000E+00  0.35731941856E+03  0.35731941856E+03  0.00000000000E+00 0. -1.
          2   -1    0    0  502    0  0.00000000000E+00 -0.00000000000E+00 -0.18626847212E+03  0.18626847212E+03  0.00000000000E+00 0.  1.
          6    1    1    2  502    0  0.13136832820E+03 -0.16119349550E+02  0.23247464147E+03  0.31803447928E+03  0.17200000000E+03 0. -1.
         -6    1    1    2    0  501 -0.13136832820E+03  0.16119349550E+02 -0.61423695028E+02  0.22555341140E+03  0.17200000000E+03 0.  1.
<mgrwt>
<rscale>  2 0.21702873E+03</rscale>
<asrwt>0</asrwt>
<pdfrwt beam="1">  1        2 0.46567119E-01 0.21702873E+03</pdfrwt>
<pdfrwt beam="2">  1       -2 0.89329854E-01 0.21702873E+03</pdfrwt>
<totfact> 0.12208271E+02</totfact>
</mgrwt>
</event>
<event>
 4    1  0.3889096E-001  0.1767227E+03  0.7546771E-02  0.1171013E+00
         -1   -1    0    0    0  501 -0.00000000000E+00  0.00000000000E+00  0.93008475545E+02  0.93008475545E+02  0.00000000000E+00 0.  1.
          1   -1    0    0  502    0  0.00000000000E+00 -0.00000000000E+00 -0.40448190148E+03  0.40448190148E+03  0.00000000000E+00 0. -1.
          6    1    1    2  502    0  0.34799894864E+02 -0.20877880886E+02 -0.53225489239E+02  0.18456400326E+03  0.17200000000E+03 0.  1.
         -6    1    1    2    0  501 -0.34799894864E+02  0.20877880886E+02 -0.25824793670E+03  0.31292637377E+03  0.17200000000E+03 0. -1.
<mgrwt>
<rscale>  2 0.17672272E+03</rscale>
<asrwt>0</asrwt>
<pdfrwt beam="1">  1        1 0.10112047E+00 0.17672272E+03</pdfrwt>
<pdfrwt beam="2">  1       -1 0.23252119E-01 0.17672272E+03</pdfrwt>
<totfact> 0.49172568E+02</totfact>
</mgrwt>
</event>
<event>
 4    1  0.3889096E-001  0.3679336E+03  0.7546771E-02  0.1055486E+00
          2   -1    0    0  502    0  0.00000000000E+00  0.00000000000E+00  0.16246654837E+04  0.16246654837E+04  0.00000000000E+00 0. -1.
         -2   -1    0    0    0  501 -0.00000000000E+00 -0.00000000000E+00 -0.93374488831E+02  0.93374488831E+02  0.00000000000E+00 0.  1.
          6    1    1    2  502    0 -0.16150085280E+03  0.28232709712E+03  0.10474597460E+04  0.11102013487E+04  0.17200000000E+03 0.  1.
         -6    1    1    2    0  501  0.16150085280E+03 -0.28232709712E+03  0.48383124894E+03  0.60783862387E+03  0.17200000000E+03 0. -1.
<mgrwt>
<rscale>  2 0.36793357E+03</rscale>
<asrwt>0</asrwt>
<pdfrwt beam="1">  1        2 0.40616628E+00 0.36793357E+03</pdfrwt>
<pdfrwt beam="2">  1       -2 0.23343627E-01 0.36793357E+03</pdfrwt>
<totfact> 0.52589083E+01</totfact>
</mgrwt>
</event>
<event>
 4    1  0.3889096E-001  0.2733115E+03  0.7546771E-02  0.1099399E+00
         -2   -1    0    0    0  501 -0.00000000000E+00  0.00000000000E+00  0.40790128721E+03  0.40790128721E+03  0.00000000000E+00 0. -1.
          2   -1    0    0  502    0  0.00000000000E+00 -0.00000000000E+00 -0.20007604215E+03  0.20007604215E+03  0.00000000000E+00 0.  1.
          6    1    1    2  502    0 -0.20446400105E+03 -0.57529579667E+02  0.19238081480E+03  0.33422979844E+03  0.17200000000E+03 0. -1.
         -6    1    1    2    0  501  0.20446400105E+03  0.57529579667E+02  0.15444430268E+02  0.27374753092E+03  0.17200000000E+03 0.  1.
<mgrwt>
<rscale>  2 0.27331151E+03</rscale>
<asrwt>0</asrwt>
<pdfrwt beam="1">  1        2 0.50019011E-01 0.27331151E+03</pdfrwt>
<pdfrwt beam="2">  1       -2 0.10197532E+00 0.27331151E+03</pdfrwt>
<totfact> 0.82813611E+01</totfact>
</mgrwt>
</event>
<event>
 4    1  0.3889096E-001  0.1970224E+03  0.7546771E-02  0.1152276E+00
         -2   -1    0    0    0  501 -0.00000000000E+00  0.00000000000E+00  0.30745457484E+02  0.30745457484E+02  0.00000000000E+00 0. -1.
          2   -1    0    0  502    0  0.00000000000E+00 -0.00000000000E+00 -0.14122938469E+04  0.14122938469E+04  0.00000000000E+00 0.  1.
          6    1    1    2  502    0  0.39767176125E+02 -0.87477928523E+02 -0.92571235909E+03  0.94644661130E+03  0.17200000000E+03 0.  1.
         -6    1    1    2    0  501 -0.39767176125E+02  0.87477928523E+02 -0.45583603031E+03  0.49659269306E+03  0.17200000000E+03 0.  1.
<mgrwt>
<rscale>  2 0.19702238E+03</rscale>
<asrwt>0</asrwt>
<pdfrwt beam="1">  1        2 0.35307343E+00 0.19702238E+03</pdfrwt>
<pdfrwt beam="2">  1       -2 0.76863650E-02 0.19702238E+03</pdfrwt>
<totfact> 0.53073009E+02</totfact>
</mgrwt>
</event>
<event>
 4    1  0.3889096E-001  0.1898926E+03  0.7546771E-02  0.1158558E+00
         -2   -1    0    0    0  501 -0.00000000000E+00  0.00000000000E+00  0.18610324439E+03  0.18610324439E+03  0.00000000000E+00 0.  1.
          2   -1    0    0  502    0  0.00000000000E+00 -0.00000000000E+00 -0.33707880420E+03  0.33707880420E+03  0.00000000000E+00 0. -1.
          6    1    1    2  502    0 -0.72975032557E+02 -0.33909103438E+02 -0.24606073972E+03  0.31081356197E+03  0.17200000000E+03 0. -1.
         -6    1    1    2    0  501  0.72975032557E+02  0.33909103438E+02  0.95085179910E+02  0.21236848662E+03  0.17200000000E+03 0.  1.
<mgrwt>
<rscale>  2 0.18989256E+03</rscale>
<asrwt>0</asrwt>
<pdfrwt beam="1">  1        2 0.84269701E-01 0.18989256E+03</pdfrwt>
<pdfrwt beam="2">  1       -2 0.46525811E-01 0.18989256E+03</pdfrwt>
<totfact> 0.25282378E+02</totfact>
</mgrwt>
</event>
<event>
 4    1  0.3889096E-001  0.1825123E+03  0.7546771E-02  0.1165394E+00
          4   -1    0    0  502    0  0.00000000000E+00  0.00000000000E+00  0.28107501009E+03  0.28107501009E+03  0.00000000000E+00 0.  1.
         -4   -1    0    0    0  501 -0.00000000000E+00 -0.00000000000E+00 -0.13346501863E+03  0.13346501863E+03  0.00000000000E+00 0. -1.
          6    1    1    2  502    0 -0.32929525385E+02 -0.51404099265E+02  0.14318248194E+03  0.23197404639E+03  0.17200000000E+03 0.  1.
         -6    1    1    2    0  501  0.32929525385E+02  0.51404099265E+02  0.44275095243E+01  0.18256598233E+03  0.17200000000E+03 0. -1.
<mgrwt>
<rscale>  2 0.18251229E+03</rscale>
<asrwt>0</asrwt>
<pdfrwt beam="1">  1        4 0.70268752E-01 0.18251229E+03</pdfrwt>
<pdfrwt beam="2">  1       -4 0.33366255E-01 0.18251229E+03</pdfrwt>
<totfact> 0.28802164E+01</totfact>
</mgrwt>
</event>
<event>
 4    1  0.3889096E-001  0.1974833E+03  0.7546771E-02  0.1151880E+00
          1   -1    0    0  502    0  0.00000000000E+00  0.00000000000E+00  0.47495979491E+03  0.47495979491E+03  0.00000000000E+00 0. -1.
         -1   -1    0    0    0  501 -0.00000000000E+00 -0.00000000000E+00 -0.86023942068E+02  0.86023942068E+02  0.00000000000E+00 0.  1.
          6    1    1    2  502    0  0.96271523459E+02 -0.12142772122E+02  0.25428642480E+03  0.32196465486E+03  0.17200000000E+03 0.  1.
         -6    1    1    2    0  501 -0.96271523459E+02  0.12142772122E+02  0.13464942805E+03  0.23901908212E+03  0.17200000000E+03 0.  1.
<mgrwt>
<rscale>  2 0.19748330E+03</rscale>
<asrwt>0</asrwt>
<pdfrwt beam="1">  1        1 0.11873994E+00 0.19748330E+03</pdfrwt>
<pdfrwt beam="2">  1       -1 0.21505987E-01 0.19748330E+03</pdfrwt>
<totfact> 0.44134280E+02</totfact>
</mgrwt>
</event>
<event>
 4    1  0.3889096E-001  0.1844467E+03  0.7546771E-02  0.1163568E+00
          2   -1    0    0  502    0  0.00000000000E+00  0.00000000000E+00  0.12088134492E+04  0.12088134492E+04  0.00000000000E+00 0.  1.
         -2   -1    0    0    0  501 -0.00000000000E+00 -0.00000000000E+00 -0.33034780531E+02  0.33034780531E+02  0.00000000000E+00 0. -1.
          6    1    1    2  502    0  0.21713220790E+02 -0.62969300217E+02  0.34897013739E+03  0.39471604163E+03  0.17200000000E+03 0. -1.
         -6    1    1    2    0  501 -0.21713220790E+02  0.62969300217E+02  0.82680853126E+03  0.84713218808E+03  0.17200000000E+03 0.  1.
<mgrwt>
<rscale>  2 0.18444673E+03</rscale>
<asrwt>0</asrwt>
<pdfrwt beam="1">  1        2 0.30220322E+00 0.18444673E+03</pdfrwt>
<pdfrwt beam="2">  1       -2 0.82586992E-02 0.18444673E+03</pdfrwt>
<totfact> 0.70879825E+02</totfact>
</mgrwt>
</event>
<event>
 4    1  0.3889096E-001  0.1942387E+03  0.7546771E-02  0.1154693E+00
         -1   -1    0    0    0  501 -0.00000000000E+00  0.00000000000E+00  0.61355988796E+02  0.61355988796E+02  0.00000000000E+00 0.  1.
          1   -1    0    0  502    0  0.00000000000E+00 -0.00000000000E+00 -0.63369824756E+03  0.63369824756E+03  0.00000000000E+00 0. -1.
          6    1    1    2  502    0  0.16393009664E+02  0.88746505147E+02 -0.34600419414E+03  0.39679664226E+03  0.17200000000E+03 0. -1.
         -6    1    1    2    0  501 -0.16393009664E+02 -0.88746505147E+02 -0.22633806462E+03  0.29825759410E+03  0.17200000000E+03 0.  1.
<mgrwt>
<rscale>  2 0.19423870E+03</rscale>
<asrwt>0</asrwt>
<pdfrwt beam="1">  1        1 0.15842456E+00 0.19423870E+03</pdfrwt>
<pdfrwt beam="2">  1       -1 0.15338997E-01 0.19423870E+03</pdfrwt>
<totfact> 0.47741430E+02</totfact>
</mgrwt>
</event>
<event>
 4    1  0.3889096E-001  0.2111726E+03  0.7546771E-02  0.1140641E+00
         -2   -1    0    0    0  501 -0.00000000000E+00  0.00000000000E+00  0.11453108862E+03  0.11453108862E+03  0.00000000000E+00 0. -1.
          2   -1    0    0  502    0  0.00000000000E+00 -0.00000000000E+00 -0.41201124846E+03  0.41201124846E+03  0.00000000000E+00 0.  1.
          6    1    1    2  502    0 -0.69984706170E+02  0.10055852070E+03 -0.21046927411E+03  0.29814625694E+03  0.17200000000E+03 0.  1.
         -6    1    1    2    0  501  0.69984706170E+02 -0.10055852070E+03 -0.87010885733E+02  0.22839608013E+03  0.17200000000E+03 0. -1.
<mgrwt>
<rscale>  2 0.21117262E+03</rscale>
<asrwt>0</asrwt>
<pdfrwt beam="1">  1        2 0.10300281E+00 0.21117262E+03</pdfrwt>
<pdfrwt beam="2">  1       -2 0.28632772E-01 0.21117262E+03</pdfrwt>
<totfact> 0.49747782E+02</totfact>
</mgrwt>
</event>
<event>
 4    1  0.3889096E-001  0.2379586E+03  0.7546771E-02  0.1121160E+00
          2   -1    0    0  502    0  0.00000000000E+00  0.00000000000E+00  0.16610461543E+04  0.16610461543E+04  0.00000000000E+00 0. -1.
         -2   -1    0    0    0  501 -0.00000000000E+00 -0.00000000000E+00 -0.37635649045E+02  0.37635649045E+02  0.00000000000E+00 0.  1.
          6    1    1    2  502    0  0.12186817950E+03  0.11040126436E+03  0.55099468566E+03  0.60018283545E+03  0.17200000000E+03 0.  1.
         -6    1    1    2    0  501 -0.12186817950E+03 -0.11040126436E+03  0.10724158196E+04  0.10984989679E+04  0.17200000000E+03 0.  1.
<mgrwt>
<rscale>  2 0.23795859E+03</rscale>
<asrwt>0</asrwt>
<pdfrwt beam="1">  1        2 0.41526129E+00 0.23795859E+03</pdfrwt>
<pdfrwt beam="2">  1       -2 0.94089178E-02 0.23795859E+03</pdfrwt>
<totfact> 0.23010220E+02</totfact>
</mgrwt>
</event>
<event>
 4    1  0.3889096E-001  0.2926026E+03  0.7546771E-02  0.1088998E+00
         -1   -1    0    0    0  501 -0.00000000000E+00  0.00000000000E+00  0.28088434313E+03  0.28088434313E+03  0.00000000000E+00 0.  1.
          1   -1    0    0  502    0  0.00000000000E+00 -0.00000000000E+00 -0.31216773132E+03  0.31216773132E+03  0.00000000000E+00 0. -1.
          6    1    1    2  502    0 -0.75529369024E+02  0.22433817189E+03  0.29882958650E+02  0.29412462014E+03  0.17200000000E+03 0.  1.
         -6    1    1    2    0  501  0.75529369024E+02 -0.22433817189E+03 -0.61166346849E+02  0.29892745431E+03  0.17200000000E+03 0. -1.
<mgrwt>
<rscale>  2 0.29260263E+03</rscale>
<asrwt>0</asrwt>
<pdfrwt beam="1">  1        1 0.78041932E-01 0.29260263E+03</pdfrwt>
<pdfrwt beam="2">  1       -1 0.70221086E-01 0.29260263E+03</pdfrwt>
<totfact> 0.95176897E+01</totfact>
</mgrwt>
</event>
<event>
 4    1  0.3889096E-001  0.1746770E+03  0.7546771E-02  0.1173056E+00
          2   -1    0    0  502    0  0.00000000000E+00  0.00000000000E+00  0.57674910921E+03  0.57674910921E+03  0.00000000000E+00 0. -1.
         -2   -1    0    0    0  501 -0.00000000000E+00 -0.00000000000E+00 -0.53646900141E+02  0.53646900141E+02  0.00000000000E+00 0.  1.
          6    1    1    2  502    0 -0.18806736038E+02 -0.23966041332E+02  0.29865447542E+03  0.34598635832E+03  0.17200000000E+03 0. -1.
         -6    1    1    2    0  501  0.18806736038E+02  0.23966041332E+02  0.22444773365E+03  0.28440965103E+03  0.17200000000E+03 0.  1.
<mgrwt>
<rscale>  2 0.17467703E+03</rscale>
<asrwt>0</asrwt>
<pdfrwt beam="1">  1        2 0.14418726E+00 0.17467703E+03</pdfrwt>
<pdfrwt beam="2">  1       -2 0.13411727E-01 0.17467703E+03</pdfrwt>
<totfact> 0.11869352E+03</totfact>
</mgrwt>
</event>
<event>
 4    1  0.3889096E-001  0.1771208E+03  0.7546771E-02  0.1170619E+00
         -2   -1    0    0    0  501 -0.00000000000E+00  0.00000000000E+00  0.51638250623E+02  0.51638250623E+02  0.00000000000E+00 0. -1.
          2   -1    0    0  502    0  0.00000000000E+00 -0.00000000000E+00 -0.66258497841E+03  0.66258497841E+03  0.00000000000E+00 0.  1.
          6    1    1    2  502    0  0.37466738608E+02 -0.19596070967E+02 -0.40841316062E+03  0.44516634225E+03  0.17200000000E+03 0.  1.
         -6    1    1    2    0  501 -0.37466738608E+02  0.19596070967E+02 -0.20253356717E+03  0.26905688679E+03  0.17200000000E+03 0. -1.
<mgrwt>
<rscale>  2 0.17712076E+03</rscale>
<asrwt>0</asrwt>
<pdfrwt beam="1">  1        2 0.16564625E+00 0.17712076E+03</pdfrwt>
<pdfrwt beam="2">  1       -2 0.12909563E-01 0.17712076E+03</pdfrwt>
<totfact> 0.10404109E+03</totfact>
</mgrwt>
</event>
<event>
 4    1  0.3889096E-001  0.1781729E+03  0.7546771E-02  0.1169583E+00
          2   -1    0    0  502    0  0.00000000000E+00  0.00000000000E+00  0.54229752634E+03  0.54229752634E+03  0.00000000000E+00 0.  1.
         -2   -1    0    0    0  501 -0.00000000000E+00 -0.00000000000E+00 -0.59957653502E+02  0.59957653502E+02  0.00000000000E+00 0. -1.
          6    1    1    2  502    0 -0.37401516087E+02 -0.27617473994E+02  0.28748840125E+03  0.33822356383E+03  0.17200000000E+03 0.  1.
         -6    1    1    2    0  501  0.37401516087E+02  0.27617473994E+02  0.19485147159E+03  0.26403161602E+03  0.17200000000E+03 0. -1.
<mgrwt>
<rscale>  2 0.17817294E+03</rscale>
<asrwt>0</asrwt>
<pdfrwt beam="1">  1        2 0.13557437E+00 0.17817294E+03</pdfrwt>
<pdfrwt beam="2">  1       -2 0.14989415E-01 0.17817294E+03</pdfrwt>
<totfact> 0.10740204E+03</totfact>
</mgrwt>
</event>
<event>
 4    1  0.3889096E-001  0.2797863E+03  0.7546771E-02  0.1095806E+00
          1   -1    0    0  502    0  0.00000000000E+00  0.00000000000E+00  0.11567644494E+04  0.11567644494E+04  0.00000000000E+00 0.  1.
         -1   -1    0    0    0  501 -0.00000000000E+00 -0.00000000000E+00 -0.71532767087E+02  0.71532767087E+02  0.00000000000E+00 0. -1.
          6    1    1    2  502    0 -0.18907064522E+03 -0.11379222114E+03  0.68529704740E+03  0.74021106561E+03  0.17200000000E+03 0.  1.
         -6    1    1    2    0  501  0.18907064522E+03  0.11379222114E+03  0.39993463493E+03  0.48808615089E+03  0.17200000000E+03 0. -1.
<mgrwt>
<rscale>  2 0.27978631E+03</rscale>
<asrwt>0</asrwt>
<pdfrwt beam="1">  1        1 0.28919105E+00 0.27978631E+03</pdfrwt>
<pdfrwt beam="2">  1       -1 0.17883195E-01 0.27978631E+03</pdfrwt>
<totfact> 0.98166451E+01</totfact>
</mgrwt>
</event>
<event>
 4    1  0.3889096E-001  0.1727324E+03  0.7546771E-02  0.1175028E+00
         -2   -1    0    0    0  501 -0.00000000000E+00  0.00000000000E+00  0.55775790456E+02  0.55775790456E+02  0.00000000000E+00 0.  1.
          2   -1    0    0  502    0  0.00000000000E+00 -0.00000000000E+00 -0.53505653592E+03  0.53505653592E+03  0.00000000000E+00 0. -1.
          6    1    1    2  502    0 -0.14316144488E+02  0.68934441908E+01 -0.24407654312E+03  0.29901476630E+03  0.17200000000E+03 0.  1.
         -6    1    1    2    0  501  0.14316144488E+02 -0.68934441908E+01 -0.23520420234E+03  0.29181756007E+03  0.17200000000E+03 0. -1.
<mgrwt>
<rscale>  2 0.17273237E+03</rscale>
<asrwt>0</asrwt>
<pdfrwt beam="1">  1        2 0.13376413E+00 0.17273237E+03</pdfrwt>
<pdfrwt beam="2">  1       -2 0.13943948E-01 0.17273237E+03</pdfrwt>
<totfact> 0.12303083E+03</totfact>
</mgrwt>
</event>
<event>
 4    1  0.3889096E-001  0.1986229E+03  0.7546771E-02  0.1150906E+00
         -2   -1    0    0    0  501 -0.00000000000E+00  0.00000000000E+00  0.10518683894E+03  0.10518683894E+03  0.00000000000E+00 0. -1.
          2   -1    0    0  502    0  0.00000000000E+00 -0.00000000000E+00 -0.67275309900E+03  0.67275309900E+03  0.00000000000E+00 0.  1.
          6    1    1    2  502    0 -0.73868316824E+02 -0.66411687069E+02 -0.25036365330E+02  0.20019455537E+03  0.17200000000E+03 0.  1.
         -6    1    1    2    0  501  0.73868316824E+02  0.66411687069E+02 -0.54252989473E+03  0.57774538258E+03  0.17200000000E+03 0.  1.
<mgrwt>
<rscale>  2 0.19862286E+03</rscale>
<asrwt>0</asrwt>
<pdfrwt beam="1">  1        2 0.16818827E+00 0.19862286E+03</pdfrwt>
<pdfrwt beam="2">  1       -2 0.26296710E-01 0.19862286E+03</pdfrwt>
<totfact> 0.30511568E+02</totfact>
</mgrwt>
</event>
<event>
 4    1  0.3889096E-001  0.2041519E+03  0.7546771E-02  0.1146283E+00
         -1   -1    0    0    0  501 -0.00000000000E+00  0.00000000000E+00  0.19757555267E+03  0.19757555267E+03  0.00000000000E+00 0.  1.
          1   -1    0    0  502    0  0.00000000000E+00 -0.00000000000E+00 -0.24487200122E+03  0.24487200122E+03  0.00000000000E+00 0. -1.
          6    1    1    2  502    0 -0.93932038581E+02 -0.57190776639E+02  0.58693657971E+02  0.21242165212E+03  0.17200000000E+03 0. -1.
         -6    1    1    2    0  501  0.93932038581E+02  0.57190776639E+02 -0.10599010652E+03  0.23002590177E+03  0.17200000000E+03 0.  1.
<mgrwt>
<rscale>  2 0.20415194E+03</rscale>
<asrwt>0</asrwt>
<pdfrwt beam="1">  1        1 0.61218000E-01 0.20415194E+03</pdfrwt>
<pdfrwt beam="2">  1       -1 0.49393888E-01 0.20415194E+03</pdfrwt>
<totfact> 0.26027969E+02</totfact>
</mgrwt>
</event>
<event>
 4    1  0.3889096E-001  0.1859618E+03  0.7546771E-02  0.1162155E+00
         -1   -1    0    0    0  501 -0.00000000000E+00  0.00000000000E+00  0.16921469889E+03  0.16921469889E+03  0.00000000000E+00 0. -1.
          1   -1    0    0  502    0  0.00000000000E+00 -0.00000000000E+00 -0.53141527316E+03  0.53141527316E+03  0.00000000000E+00 0.  1.
          6    1    1    2  502    0 -0.77634334328E+00  0.70690864394E+02 -0.45592008777E+03  0.49238696921E+03  0.17200000000E+03 0.  1.
         -6    1    1    2    0  501  0.77634334328E+00 -0.70690864394E+02  0.93719513503E+02  0.20824300283E+03  0.17200000000E+03 0. -1.
<mgrwt>
<rscale>  2 0.18596183E+03</rscale>
<asrwt>0</asrwt>
<pdfrwt beam="1">  1        1 0.13285382E+00 0.18596183E+03</pdfrwt>
<pdfrwt beam="2">  1       -1 0.42303675E-01 0.18596183E+03</pdfrwt>
<totfact> 0.11784736E+02</totfact>
</mgrwt>
</event>
<event>
 4    1  0.3889096E-001  0.1788641E+03  0.7546771E-02  0.1168907E+00
         -2   -1    0    0    0  501 -0.00000000000E+00  0.00000000000E+00  0.33926958398E+03  0.33926958398E+03  0.00000000000E+00 0.  1.
          2   -1    0    0  502    0  0.00000000000E+00 -0.00000000000E+00 -0.23963654679E+03  0.23963654679E+03  0.00000000000E+00 0. -1.
          6    1    1    2  502    0  0.48767991458E+02  0.54825737061E+01 -0.17560342222E+03  0.25065701167E+03  0.17200000000E+03 0. -1.
         -6    1    1    2    0  501 -0.48767991458E+02 -0.54825737061E+01  0.27523645941E+03  0.32824911910E+03  0.17200000000E+03 0.  1.
<mgrwt>
<rscale>  2 0.17886413E+03</rscale>
<asrwt>0</asrwt>
<pdfrwt beam="1">  1        2 0.59909137E-01 0.17886413E+03</pdfrwt>
<pdfrwt beam="2">  1       -2 0.84817396E-01 0.17886413E+03</pdfrwt>
<totfact> 0.10510943E+02</totfact>
</mgrwt>
</event>
<event>
 4    1  0.3889096E-001  0.1766537E+03  0.7546771E-02  0.1171081E+00
         -2   -1    0    0    0  501 -0.00000000000E+00  0.00000000000E+00  0.63943223434E+02  0.63943223434E+02  0.00000000000E+00 0.  1.
          2   -1    0    0  502    0  0.00000000000E+00 -0.00000000000E+00 -0.96580109654E+03  0.96580109654E+03  0.00000000000E+00 0. -1.
          6    1    1    2  502    0  0.67391191841E+01 -0.39713081703E+02 -0.81305779039E+03  0.83202735237E+03  0.17200000000E+03 0. -1.
         -6    1    1    2    0  501 -0.67391191841E+01  0.39713081703E+02 -0.88800082714E+02  0.19771696760E+03  0.17200000000E+03 0.  1.
<mgrwt>
<rscale>  2 0.17665374E+03</rscale>
<asrwt>0</asrwt>
<pdfrwt beam="1">  1        2 0.24145027E+00 0.17665374E+03</pdfrwt>
<pdfrwt beam="2">  1       -2 0.15985806E-01 0.17665374E+03</pdfrwt>
<totfact> 0.39458400E+02</totfact>
</mgrwt>
</event>
<event>
 4    1  0.3889096E-001  0.1962853E+03  0.7546771E-02  0.1152912E+00
          1   -1    0    0  502    0  0.00000000000E+00  0.00000000000E+00  0.81775407943E+02  0.81775407943E+02  0.00000000000E+00 0. -1.
         -1   -1    0    0    0  501 -0.00000000000E+00 -0.00000000000E+00 -0.47511992509E+03  0.47511992509E+03  0.00000000000E+00 0.  1.
          6    1    1    2  502    0 -0.87399981313E+01  0.94167524358E+02 -0.22214737685E+03  0.29644116997E+03  0.17200000000E+03 0. -1.
         -6    1    1    2    0  501  0.87399981313E+01 -0.94167524358E+02 -0.17119714030E+03  0.26045416306E+03  0.17200000000E+03 0.  1.
<mgrwt>
<rscale>  2 0.19628528E+03</rscale>
<asrwt>0</asrwt>
<pdfrwt beam="1">  1        1 0.20443852E-01 0.19628528E+03</pdfrwt>
<pdfrwt beam="2">  1       -1 0.11877998E+00 0.19628528E+03</pdfrwt>
<totfact> 0.17044157E+02</totfact>
</mgrwt>
</event>
<event>
 4    1  0.3889096E-001  0.1874602E+03  0.7546771E-02  0.1160772E+00
         -2   -1    0    0    0  501 -0.00000000000E+00  0.00000000000E+00  0.22720895531E+03  0.22720895531E+03  0.00000000000E+00 0.  1.
          2   -1    0    0  502    0  0.00000000000E+00 -0.00000000000E+00 -0.15467615718E+03  0.15467615718E+03  0.00000000000E+00 0. -1.
          6    1    1    2  502    0 -0.74222538255E+02 -0.69526838271E+01  0.37871396345E+02  0.19124739909E+03  0.17200000000E+03 0.  1.
         -6    1    1    2    0  501  0.74222538255E+02  0.69526838271E+01  0.34661401777E+02  0.19063771340E+03  0.17200000000E+03 0. -1.
<mgrwt>
<rscale>  2 0.18746020E+03</rscale>
<asrwt>0</asrwt>
<pdfrwt beam="1">  1        2 0.38669039E-01 0.18746020E+03</pdfrwt>
<pdfrwt beam="2">  1       -2 0.56802239E-01 0.18746020E+03</pdfrwt>
<totfact> 0.39487550E+02</totfact>
</mgrwt>
</event>
<event>
 4    1  0.3889096E-001  0.1767638E+03  0.7546771E-02  0.1170972E+00
          2   -1    0    0  502    0  0.00000000000E+00  0.00000000000E+00  0.23542426038E+03  0.23542426038E+03  0.00000000000E+00 0. -1.
         -2   -1    0    0    0  501 -0.00000000000E+00 -0.00000000000E+00 -0.13993157933E+03  0.13993157933E+03  0.00000000000E+00 0.  1.
          6    1    1    2  502    0  0.40549712244E+02  0.41426602306E+01  0.51395245618E+01  0.17683850121E+03  0.17200000000E+03 0.  1.
         -6    1    1    2    0  501 -0.40549712244E+02 -0.41426602306E+01  0.90353156496E+02  0.19851733850E+03  0.17200000000E+03 0. -1.
<mgrwt>
<rscale>  2 0.17676380E+03</rscale>
<asrwt>0</asrwt>
<pdfrwt beam="1">  1        2 0.58856065E-01 0.17676380E+03</pdfrwt>
<pdfrwt beam="2">  1       -2 0.34982895E-01 0.17676380E+03</pdfrwt>
<totfact> 0.64626027E+02</totfact>
</mgrwt>
</event>
<event>
 4    1  0.3889096E-001  0.2648808E+03  0.7546771E-02  0.1104246E+00
         -1   -1    0    0    0  501 -0.00000000000E+00  0.00000000000E+00  0.41745846755E+03  0.41745846755E+03  0.00000000000E+00 0.  1.
          1   -1    0    0  502    0  0.00000000000E+00 -0.00000000000E+00 -0.17488405724E+03  0.17488405724E+03  0.00000000000E+00 0. -1.
          6    1    1    2  502    0  0.11073279907E+03 -0.16827388471E+03  0.62821581776E+02  0.27222858814E+03  0.17200000000E+03 0. -1.
         -6    1    1    2    0  501 -0.11073279907E+03  0.16827388471E+03  0.17975282853E+03  0.32011393664E+03  0.17200000000E+03 0.  1.
<mgrwt>
<rscale>  2 0.26488083E+03</rscale>
<asrwt>0</asrwt>
<pdfrwt beam="1">  1        1 0.43721015E-01 0.26488083E+03</pdfrwt>
<pdfrwt beam="2">  1       -1 0.10436462E+00 0.26488083E+03</pdfrwt>
<totfact> 0.86866965E+01</totfact>
</mgrwt>
</event>
<event>
 4    1  0.3889096E-001  0.2314244E+03  0.7546771E-02  0.1125641E+00
         -1   -1    0    0    0  501 -0.00000000000E+00  0.00000000000E+00  0.23721771211E+03  0.23721771211E+03  0.00000000000E+00 0.  1.
          1   -1    0    0  502    0  0.00000000000E+00 -0.00000000000E+00 -0.22631232147E+03  0.22631232147E+03  0.00000000000E+00 0. -1.
          6    1    1    2  502    0  0.12933733069E+03 -0.85118103645E+02  0.16771942722E+02  0.23203132276E+03  0.17200000000E+03 0. -1.
         -6    1    1    2    0  501 -0.12933733069E+03  0.85118103645E+02 -0.58665520874E+01  0.23149871082E+03  0.17200000000E+03 0.  1.
<mgrwt>
<rscale>  2 0.23142436E+03</rscale>
<asrwt>0</asrwt>
<pdfrwt beam="1">  1        1 0.56578080E-01 0.23142436E+03</pdfrwt>
<pdfrwt beam="2">  1       -1 0.59304428E-01 0.23142436E+03</pdfrwt>
<totfact> 0.20350779E+02</totfact>
</mgrwt>
</event>
<event>
 4    1  0.3889096E-001  0.2696480E+03  0.7546771E-02  0.1101481E+00
          1   -1    0    0  502    0  0.00000000000E+00  0.00000000000E+00  0.81006314322E+03  0.81006314322E+03  0.00000000000E+00 0.  1.
         -1   -1    0    0    0  501 -0.00000000000E+00 -0.00000000000E+00 -0.92969288058E+02  0.92969288058E+02  0.00000000000E+00 0. -1.
          6    1    1    2  502    0 -0.20650228468E+03 -0.21974443971E+02  0.27463803503E+03  0.38488455418E+03  0.17200000000E+03 0. -1.
         -6    1    1    2    0  501  0.20650228468E+03  0.21974443971E+02  0.44245582013E+03  0.51814787709E+03  0.17200000000E+03 0.  1.
<mgrwt>
<rscale>  2 0.26964805E+03</rscale>
<asrwt>0</asrwt>
<pdfrwt beam="1">  1        1 0.20251576E+00 0.26964805E+03</pdfrwt>
<pdfrwt beam="2">  1       -1 0.23242324E-01 0.26964805E+03</pdfrwt>
<totfact> 0.15104447E+02</totfact>
</mgrwt>
</event>
<event>
 4    1  0.3889096E-001  0.1842085E+03  0.7546771E-02  0.1163791E+00
         -2   -1    0    0    0  501 -0.00000000000E+00  0.00000000000E+00  0.35181193483E+02  0.35181193483E+02  0.00000000000E+00 0.  1.
          2   -1    0    0  502    0  0.00000000000E+00 -0.00000000000E+00 -0.10660835318E+04  0.10660835318E+04  0.00000000000E+00 0. -1.
          6    1    1    2  502    0  0.43891817504E+02 -0.49216838128E+02 -0.68541077098E+03  0.70973284676E+03  0.17200000000E+03 0. -1.
         -6    1    1    2    0  501 -0.43891817504E+02  0.49216838128E+02 -0.34549156736E+03  0.39153187854E+03  0.17200000000E+03 0.  1.
<mgrwt>
<rscale>  2 0.18420855E+03</rscale>
<asrwt>0</asrwt>
<pdfrwt beam="1">  1        2 0.26652089E+00 0.18420855E+03</pdfrwt>
<pdfrwt beam="2">  1       -2 0.87952983E-02 0.18420855E+03</pdfrwt>
<totfact> 0.84696227E+02</totfact>
</mgrwt>
</event>
<event>
 4    1  0.3889096E-001  0.2364238E+03  0.7546771E-02  0.1122198E+00
         -1   -1    0    0    0  501 -0.00000000000E+00  0.00000000000E+00  0.21307404483E+03  0.21307404483E+03  0.00000000000E+00 0.  1.
          1   -1    0    0  502    0  0.00000000000E+00 -0.00000000000E+00 -0.33024293573E+03  0.33024293573E+03  0.00000000000E+00 0. -1.
          6    1    1    2  502    0 -0.15985680751E+03  0.27532196341E+02 -0.18177436318E+03  0.29822498193E+03  0.17200000000E+03 0. -1.
         -6    1    1    2    0  501  0.15985680751E+03 -0.27532196341E+02  0.64605472270E+02  0.24509199862E+03  0.17200000000E+03 0.  1.
<mgrwt>
<rscale>  2 0.23642382E+03</rscale>
<asrwt>0</asrwt>
<pdfrwt beam="1">  1        1 0.82560733E-01 0.23642382E+03</pdfrwt>
<pdfrwt beam="2">  1       -1 0.53268512E-01 0.23642382E+03</pdfrwt>
<totfact> 0.15223624E+02</totfact>
</mgrwt>
</event>
<event>
 4    1  0.3889096E-001  0.2665276E+03  0.7546771E-02  0.1103284E+00
         -1   -1    0    0    0  501 -0.00000000000E+00  0.00000000000E+00  0.19589292644E+03  0.19589292644E+03  0.00000000000E+00 0. -1.
          1   -1    0    0  502    0  0.00000000000E+00 -0.00000000000E+00 -0.37420771248E+03  0.37420771248E+03  0.00000000000E+00 0.  1.
          6    1    1    2  502    0 -0.20359889450E+03 -0.68614361411E+00 -0.39021925423E+02  0.26936906151E+03  0.17200000000E+03 0. -1.
         -6    1    1    2    0  501  0.20359889450E+03  0.68614361411E+00 -0.13929286061E+03  0.30073157741E+03  0.17200000000E+03 0.  1.
<mgrwt>
<rscale>  2 0.26652764E+03</rscale>
<asrwt>0</asrwt>
<pdfrwt beam="1">  1        1 0.93551927E-01 0.26652764E+03</pdfrwt>
<pdfrwt beam="2">  1       -1 0.48973232E-01 0.26652764E+03</pdfrwt>
<totfact> 0.14918285E+02</totfact>
</mgrwt>
</event>
<event>
 4    1  0.3889096E-001  0.1846760E+03  0.7546771E-02  0.1163353E+00
          1   -1    0    0  502    0  0.00000000000E+00  0.00000000000E+00  0.74930610548E+03  0.74930610548E+03  0.00000000000E+00 0. -1.
         -1   -1    0    0    0  501 -0.00000000000E+00 -0.00000000000E+00 -0.62456755655E+02  0.62456755655E+02  0.00000000000E+00 0.  1.
          6    1    1    2  502    0 -0.36595392530E+02 -0.56409102678E+02  0.55481222408E+03  0.58474080891E+03  0.17200000000E+03 0. -1.
         -6    1    1    2    0  501  0.36595392530E+02  0.56409102678E+02  0.13203712574E+03  0.22702205222E+03  0.17200000000E+03 0.  1.
<mgrwt>
<rscale>  2 0.18467596E+03</rscale>
<asrwt>0</asrwt>
<pdfrwt beam="1">  1        1 0.18732650E+00 0.18467596E+03</pdfrwt>
<pdfrwt beam="2">  1       -1 0.15614191E-01 0.18467596E+03</pdfrwt>
<totfact> 0.34209382E+02</totfact>
</mgrwt>
</event>
<event>
 4    1  0.3889096E-001  0.1746666E+03  0.7546771E-02  0.1173067E+00
          1   -1    0    0  502    0  0.00000000000E+00  0.00000000000E+00  0.70637743246E+02  0.70637743246E+02  0.00000000000E+00 0. -1.
         -1   -1    0    0    0  501 -0.00000000000E+00 -0.00000000000E+00 -0.43891721944E+03  0.43891721944E+03  0.00000000000E+00 0.  1.
          6    1    1    2  502    0 -0.10829225885E+02 -0.28410370272E+02 -0.21635495325E+03  0.27806094129E+03  0.17200000000E+03 0.  1.
         -6    1    1    2    0  501  0.10829225885E+02  0.28410370272E+02 -0.15192452294E+03  0.23149402140E+03  0.17200000000E+03 0. -1.
<mgrwt>
<rscale>  2 0.17466660E+03</rscale>
<asrwt>0</asrwt>
<pdfrwt beam="1">  1        1 0.17659436E-01 0.17466660E+03</pdfrwt>
<pdfrwt beam="2">  1       -1 0.10972930E+00 0.17466660E+03</pdfrwt>
<totfact> 0.24785103E+02</totfact>
</mgrwt>
</event>
<event>
 4    1  0.3889096E-001  0.1796144E+03  0.7546771E-02  0.1168177E+00
          1   -1    0    0  502    0  0.00000000000E+00  0.00000000000E+00  0.80225196871E+03  0.80225196871E+03  0.00000000000E+00 0.  1.
         -1   -1    0    0    0  501 -0.00000000000E+00 -0.00000000000E+00 -0.51031601298E+02  0.51031601298E+02  0.00000000000E+00 0. -1.
          6    1    1    2  502    0 -0.36885842699E+02 -0.36287085037E+02  0.17917451363E+03  0.25370223544E+03  0.17200000000E+03 0. -1.
         -6    1    1    2    0  501  0.36885842699E+02  0.36287085037E+02  0.57204585378E+03  0.59958133457E+03  0.17200000000E+03 0.  1.
<mgrwt>
<rscale>  2 0.17961436E+03</rscale>
<asrwt>0</asrwt>
<pdfrwt beam="1">  1        1 0.20056295E+00 0.17961436E+03</pdfrwt>
<pdfrwt beam="2">  1       -1 0.12757903E-01 0.17961436E+03</pdfrwt>
<totfact> 0.41098234E+02</totfact>
</mgrwt>
</event>
<event>
 4    1  0.3889096E-001  0.2033046E+03  0.7546771E-02  0.1146980E+00
         -2   -1    0    0    0  501 -0.00000000000E+00  0.00000000000E+00  0.21861169312E+03  0.21861169312E+03  0.00000000000E+00 0. -1.
          2   -1    0    0  502    0  0.00000000000E+00 -0.00000000000E+00 -0.28022896218E+03  0.28022896218E+03  0.00000000000E+00 0.  1.
          6    1    1    2  502    0 -0.10815135051E+03 -0.72140684111E+01  0.11144937107E+03  0.23184848439E+03  0.17200000000E+03 0. -1.
         -6    1    1    2    0  501  0.10815135051E+03  0.72140684111E+01 -0.17306664013E+03  0.26699217091E+03  0.17200000000E+03 0.  1.
<mgrwt>
<rscale>  2 0.20330459E+03</rscale>
<asrwt>0</asrwt>
<pdfrwt beam="1">  1        2 0.70057240E-01 0.20330459E+03</pdfrwt>
<pdfrwt beam="2">  1       -2 0.54652924E-01 0.20330459E+03</pdfrwt>
<totfact> 0.22494015E+02</totfact>
</mgrwt>
</event>
<event>
 4    1  0.3889096E-001  0.1778230E+03  0.7546771E-02  0.1169927E+00
          2   -1    0    0  502    0  0.00000000000E+00  0.00000000000E+00  0.17937947353E+04  0.17937947353E+04  0.00000000000E+00 0.  1.
         -2   -1    0    0    0  501 -0.00000000000E+00 -0.00000000000E+00 -0.19231463985E+02  0.19231463985E+02  0.00000000000E+00 0. -1.
          6    1    1    2  502    0  0.41056563040E+02 -0.18745471081E+02  0.11490372295E+04  0.11627156096E+04  0.17200000000E+03 0.  1.
         -6    1    1    2    0  501 -0.41056563040E+02  0.18745471081E+02  0.62552604181E+03  0.65031058967E+03  0.17200000000E+03 0. -1.
<mgrwt>
<rscale>  2 0.17782304E+03</rscale>
<asrwt>0</asrwt>
<pdfrwt beam="1">  1        2 0.44844812E+00 0.17782304E+03</pdfrwt>
<pdfrwt beam="2">  1       -2 0.48078721E-02 0.17782304E+03</pdfrwt>
<totfact> 0.49939523E+02</totfact>
</mgrwt>
</event>
<event>
 4    1  0.3889096E-001  0.2088908E+03  0.7546771E-02  0.1142447E+00
          1   -1    0    0  502    0  0.00000000000E+00  0.00000000000E+00  0.58704613106E+03  0.58704613106E+03  0.00000000000E+00 0.  1.
         -1   -1    0    0    0  501 -0.00000000000E+00 -0.00000000000E+00 -0.77580348938E+02  0.77580348938E+02  0.00000000000E+00 0. -1.
          6    1    1    2  502    0  0.11621214813E+03  0.23368434856E+02  0.18671657920E+03  0.28017570928E+03  0.17200000000E+03 0.  1.
         -6    1    1    2    0  501 -0.11621214813E+03 -0.23368434856E+02  0.32274920293E+03  0.38445077072E+03  0.17200000000E+03 0.  1.
<mgrwt>
<rscale>  2 0.20889075E+03</rscale>
<asrwt>0</asrwt>
<pdfrwt beam="1">  1        1 0.14676152E+00 0.20889075E+03</pdfrwt>
<pdfrwt beam="2">  1       -1 0.19395089E-01 0.20889075E+03</pdfrwt>
<totfact> 0.37284664E+02</totfact>
</mgrwt>
</event>
<event>
 4    1  0.3889096E-001  0.3034960E+03  0.7546771E-02  0.1083506E+00
         -2   -1    0    0    0  501 -0.00000000000E+00  0.00000000000E+00  0.17077805350E+03  0.17077805350E+03  0.00000000000E+00 0. -1.
          2   -1    0    0  502    0  0.00000000000E+00 -0.00000000000E+00 -0.64181254761E+03  0.64181254761E+03  0.00000000000E+00 0.  1.
          6    1    1    2  502    0 -0.24284878844E+03  0.59584498217E+02 -0.39785201489E+03  0.50039591548E+03  0.17200000000E+03 0.  1.
         -6    1    1    2    0  501  0.24284878844E+03 -0.59584498217E+02 -0.73182479224E+02  0.31219468563E+03  0.17200000000E+03 0. -1.
<mgrwt>
<rscale>  2 0.30349604E+03</rscale>
<asrwt>0</asrwt>
<pdfrwt beam="1">  1        2 0.16045314E+00 0.30349604E+03</pdfrwt>
<pdfrwt beam="2">  1       -2 0.42694514E-01 0.30349604E+03</pdfrwt>
<totfact> 0.13057074E+02</totfact>
</mgrwt>
</event>
<event>
 4    1  0.3889096E-001  0.1764406E+03  0.7546771E-02  0.1171293E+00
         -3   -1    0    0    0  501 -0.00000000000E+00  0.00000000000E+00  0.26140800032E+03  0.26140800032E+03  0.00000000000E+00 0. -1.
          3   -1    0    0  502    0  0.00000000000E+00 -0.00000000000E+00 -0.11952303922E+03  0.11952303922E+03  0.00000000000E+00 0.  1.
          6    1    1    2  502    0  0.30141941076E+02  0.25273415406E+02  0.59488309040E+02  0.18619919723E+03  0.17200000000E+03 0.  1.
         -6    1    1    2    0  501 -0.30141941076E+02 -0.25273415406E+02  0.82396652062E+02  0.19473184231E+03  0.17200000000E+03 0.  1.
<mgrwt>
<rscale>  2 0.17644059E+03</rscale>
<asrwt>0</asrwt>
<pdfrwt beam="1">  1        3 0.29880760E-01 0.17644059E+03</pdfrwt>
<pdfrwt beam="2">  1       -3 0.65351999E-01 0.17644059E+03</pdfrwt>
<totfact> 0.60197142E+01</totfact>
</mgrwt>
</event>
<event>
 4    1  0.3889096E-001  0.1730019E+03  0.7546771E-02  0.1174753E+00
          2   -1    0    0  502    0  0.00000000000E+00  0.00000000000E+00  0.83884477486E+03  0.83884477486E+03  0.00000000000E+00 0. -1.
         -2   -1    0    0    0  501 -0.00000000000E+00 -0.00000000000E+00 -0.44239367389E+02  0.44239367389E+02  0.00000000000E+00 0.  1.
          6    1    1    2  502    0 -0.16041018760E+01 -0.18522419477E+02  0.59152469484E+03  0.61630440350E+03  0.17200000000E+03 0. -1.
         -6    1    1    2    0  501  0.16041018760E+01  0.18522419477E+02  0.20308071264E+03  0.26677973876E+03  0.17200000000E+03 0.  1.
<mgrwt>
<rscale>  2 0.17300189E+03</rscale>
<asrwt>0</asrwt>
<pdfrwt beam="1">  1        2 0.20971114E+00 0.17300189E+03</pdfrwt>
<pdfrwt beam="2">  1       -2 0.11059845E-01 0.17300189E+03</pdfrwt>
<totfact> 0.92329794E+02</totfact>
</mgrwt>
</event>
<event>
 4    1  0.3889096E-001  0.2749735E+03  0.7546771E-02  0.1098466E+00
          1   -1    0    0  502    0  0.00000000000E+00  0.00000000000E+00  0.14402822555E+04  0.14402822555E+04  0.00000000000E+00 0. -1.
         -1   -1    0    0    0  501 -0.00000000000E+00 -0.00000000000E+00 -0.53092627295E+02  0.53092627295E+02  0.00000000000E+00 0.  1.
          6    1    1    2  502    0  0.17204372941E+03  0.12816942388E+03  0.61450472311E+03  0.67322098955E+03  0.17200000000E+03 0.  1.
         -6    1    1    2    0  501 -0.17204372941E+03 -0.12816942388E+03  0.77268490510E+03  0.82015389325E+03  0.17200000000E+03 0. -1.
<mgrwt>
<rscale>  2 0.27497354E+03</rscale>
<asrwt>0</asrwt>
<pdfrwt beam="1">  1        1 0.36007043E+00 0.27497354E+03</pdfrwt>
<pdfrwt beam="2">  1       -1 0.13273162E-01 0.27497354E+03</pdfrwt>
<totfact> 0.79203362E+01</totfact>
</mgrwt>
</event>
<event>
 4    1  0.3889096E-001  0.2040404E+03  0.7546771E-02  0.1146374E+00
         -1   -1    0    0    0  501 -0.00000000000E+00  0.00000000000E+00  0.36801108306E+02  0.36801108306E+02  0.00000000000E+00 0. -1.
          1   -1    0    0  502    0  0.00000000000E+00 -0.00000000000E+00 -0.12711989766E+04  0.12711989766E+04  0.00000000000E+00 0.  1.
          6    1    1    2  502    0  0.32514687314E+02 -0.10483934875E+03 -0.40022699110E+03  0.44923728512E+03  0.17200000000E+03 0. -1.
         -6    1    1    2    0  501 -0.32514687314E+02  0.10483934875E+03 -0.83417087716E+03  0.85876279976E+03  0.17200000000E+03 0.  1.
<mgrwt>
<rscale>  2 0.20404042E+03</rscale>
<asrwt>0</asrwt>
<pdfrwt beam="1">  1        1 0.31779975E+00 0.20404042E+03</pdfrwt>
<pdfrwt beam="2">  1       -1 0.92002770E-02 0.20404042E+03</pdfrwt>
<totfact> 0.21620133E+02</totfact>
</mgrwt>
</event>
<event>
 4    1  0.3889096E-001  0.3695718E+03  0.7546771E-02  0.1054857E+00
          2   -1    0    0  502    0  0.00000000000E+00  0.00000000000E+00  0.15187588919E+04  0.15187588919E+04  0.00000000000E+00 0.  1.
         -2   -1    0    0    0  501 -0.00000000000E+00 -0.00000000000E+00 -0.90313167282E+02  0.90313167282E+02  0.00000000000E+00 0. -1.
          6    1    1    2  502    0  0.22033805852E+03  0.24176530165E+03  0.66187899130E+03  0.75806801821E+03  0.17200000000E+03 0.  1.
         -6    1    1    2    0  501 -0.22033805852E+03 -0.24176530165E+03  0.76656673330E+03  0.85100404095E+03  0.17200000000E+03 0. -1.
<mgrwt>
<rscale>  2 0.36957181E+03</rscale>
<asrwt>0</asrwt>
<pdfrwt beam="1">  1        2 0.37968964E+00 0.36957181E+03</pdfrwt>
<pdfrwt beam="2">  1       -2 0.22578297E-01 0.36957181E+03</pdfrwt>
<totfact> 0.69535475E+01</totfact>
</mgrwt>
</event>
<event>
 4    1  0.3889096E-001  0.2254092E+03  0.7546771E-02  0.1129913E+00
         -2   -1    0    0    0  501 -0.00000000000E+00  0.00000000000E+00  0.72221144754E+02  0.72221144754E+02  0.00000000000E+00 0. -1.
          2   -1    0    0  502    0  0.00000000000E+00 -0.00000000000E+00 -0.77180507528E+03  0.77180507528E+03  0.00000000000E+00 0.  1.
          6    1    1    2  502    0 -0.13175899694E+03 -0.62168193069E+02 -0.47531456148E+03  0.52605441720E+03  0.17200000000E+03 0.  1.
         -6    1    1    2    0  501  0.13175899694E+03  0.62168193069E+02 -0.22426936905E+03  0.31797180283E+03  0.17200000000E+03 0. -1.
<mgrwt>
<rscale>  2 0.22540922E+03</rscale>
<asrwt>0</asrwt>
<pdfrwt beam="1">  1        2 0.19295127E+00 0.22540922E+03</pdfrwt>
<pdfrwt beam="2">  1       -2 0.18055286E-01 0.22540922E+03</pdfrwt>
<totfact> 0.47146851E+02</totfact>
</mgrwt>
</event>
<event>
 4    1  0.3889096E-001  0.2278288E+03  0.7546771E-02  0.1128177E+00
          2   -1    0    0  502    0  0.00000000000E+00  0.00000000000E+00  0.95189383269E+02  0.95189383269E+02  0.00000000000E+00 0.  1.
         -2   -1    0    0    0  501 -0.00000000000E+00 -0.00000000000E+00 -0.72524854498E+03  0.72524854498E+03  0.00000000000E+00 0. -1.
          6    1    1    2  502    0  0.59157564373E+02 -0.13719449606E+03 -0.11068792428E+03  0.25329382889E+03  0.17200000000E+03 0.  1.
         -6    1    1    2    0  501 -0.59157564373E+02  0.13719449606E+03 -0.51937123742E+03  0.56714409936E+03  0.17200000000E+03 0. -1.
<mgrwt>
<rscale>  2 0.22782877E+03</rscale>
<asrwt>0</asrwt>
<pdfrwt beam="1">  1        2 0.23797346E-01 0.22782877E+03</pdfrwt>
<pdfrwt beam="2">  1       -2 0.18131213E+00 0.22782877E+03</pdfrwt>
<totfact> 0.43888813E+01</totfact>
</mgrwt>
</event>
<event>
 4    1  0.3889096E-001  0.2116678E+03  0.7546771E-02  0.1140252E+00
          3   -1    0    0  502    0  0.00000000000E+00  0.00000000000E+00  0.77498410967E+02  0.77498410967E+02  0.00000000000E+00 0.  1.
         -3   -1    0    0    0  501 -0.00000000000E+00 -0.00000000000E+00 -0.74847233163E+03  0.74847233163E+03  0.00000000000E+00 0. -1.
          6    1    1    2  502    0  0.11573820708E+03 -0.42707378114E+02 -0.53251269239E+03  0.57303841082E+03  0.17200000000E+03 0. -1.
         -6    1    1    2    0  501 -0.11573820708E+03  0.42707378114E+02 -0.13846122828E+03  0.25293233178E+03  0.17200000000E+03 0.  1.
<mgrwt>
<rscale>  2 0.21166779E+03</rscale>
<asrwt>0</asrwt>
<pdfrwt beam="1">  1        3 0.19374603E-01 0.21166779E+03</pdfrwt>
<pdfrwt beam="2">  1       -3 0.18711808E+00 0.21166779E+03</pdfrwt>
<totfact> 0.11172751E+01</totfact>
</mgrwt>
</event>
<event>
 4    1  0.3889096E-001  0.2547007E+03  0.7546771E-02  0.1110370E+00
         -1   -1    0    0    0  501 -0.00000000000E+00  0.00000000000E+00  0.72203263360E+02  0.72203263360E+02  0.00000000000E+00 0. -1.
          1   -1    0    0  502    0  0.00000000000E+00 -0.00000000000E+00 -0.93247333191E+03  0.93247333191E+03  0.00000000000E+00 0.  1.
          6    1    1    2  502    0 -0.26737107019E+02 -0.18593966441E+03 -0.52606225323E+03  0.58447748114E+03  0.17200000000E+03 0.  1.
         -6    1    1    2    0  501  0.26737107019E+02  0.18593966441E+03 -0.33420781532E+03  0.42019911413E+03  0.17200000000E+03 0. -1.
<mgrwt>
<rscale>  2 0.25470067E+03</rscale>
<asrwt>0</asrwt>
<pdfrwt beam="1">  1        1 0.23311834E+00 0.25470067E+03</pdfrwt>
<pdfrwt beam="2">  1       -1 0.18050815E-01 0.25470067E+03</pdfrwt>
<totfact> 0.16848642E+02</totfact>
</mgrwt>
</event>
<event>
 4    1  0.3889096E-001  0.1979392E+03  0.7546771E-02  0.1151489E+00
          2   -1    0    0  502    0  0.00000000000E+00  0.00000000000E+00  0.81667189241E+03  0.81667189241E+03  0.00000000000E+00 0. -1.
         -2   -1    0    0    0  501 -0.00000000000E+00 -0.00000000000E+00 -0.51001212315E+02  0.51001212315E+02  0.00000000000E+00 0.  1.
          6    1    1    2  502    0 -0.97897244049E+02  0.34699330865E+01  0.48851194210E+03  0.52708996235E+03  0.17200000000E+03 0.  1.
         -6    1    1    2    0  501  0.97897244049E+02 -0.34699330865E+01  0.27715873799E+03  0.34058314238E+03  0.17200000000E+03 0.  1.
<mgrwt>
<rscale>  2 0.19793916E+03</rscale>
<asrwt>0</asrwt>
<pdfrwt beam="1">  1        2 0.20416793E+00 0.19793916E+03</pdfrwt>
<pdfrwt beam="2">  1       -2 0.12750306E-01 0.19793916E+03</pdfrwt>
<totfact> 0.76647727E+02</totfact>
</mgrwt>
</event>
<event>
 4    1  0.3889096E-001  0.2703688E+03  0.7546771E-02  0.1101069E+00
          1   -1    0    0  502    0  0.00000000000E+00  0.00000000000E+00  0.20462658019E+03  0.20462658019E+03  0.00000000000E+00 0. -1.
         -1   -1    0    0    0  501 -0.00000000000E+00 -0.00000000000E+00 -0.52604328273E+03  0.52604328273E+03  0.00000000000E+00 0.  1.
          6    1    1    2  502    0 -0.14875572988E+03  0.14624301775E+03 -0.36766548897E+03  0.45637396857E+03  0.17200000000E+03 0. -1.
         -6    1    1    2    0  501  0.14875572988E+03 -0.14624301775E+03  0.46248786423E+02  0.27429589435E+03  0.17200000000E+03 0. -1.
<mgrwt>
<rscale>  2 0.27036880E+03</rscale>
<asrwt>0</asrwt>
<pdfrwt beam="1">  1        1 0.51156645E-01 0.27036880E+03</pdfrwt>
<pdfrwt beam="2">  1       -1 0.13151082E+00 0.27036880E+03</pdfrwt>
<totfact> 0.41153897E+01</totfact>
</mgrwt>
</event>
<event>
 4    1  0.3889096E-001  0.2125765E+03  0.7546771E-02  0.1139542E+00
          4   -1    0    0  502    0  0.00000000000E+00  0.00000000000E+00  0.17359128620E+03  0.17359128620E+03  0.00000000000E+00 0. -1.
         -4   -1    0    0    0  501 -0.00000000000E+00 -0.00000000000E+00 -0.26483977405E+03  0.26483977405E+03  0.00000000000E+00 0.  1.
          6    1    1    2  502    0 -0.11144452247E+03  0.56434870308E+02 -0.16977288376E+02  0.21325338097E+03  0.17200000000E+03 0. -1.
         -6    1    1    2    0  501  0.11144452247E+03 -0.56434870308E+02 -0.74271199476E+02  0.22517767928E+03  0.17200000000E+03 0.  1.
<mgrwt>
<rscale>  2 0.21257652E+03</rscale>
<asrwt>0</asrwt>
<pdfrwt beam="1">  1        4 0.43397822E-01 0.21257652E+03</pdfrwt>
<pdfrwt beam="2">  1       -4 0.66209943E-01 0.21257652E+03</pdfrwt>
<totfact> 0.19849639E+01</totfact>
</mgrwt>
</event>
<event>
 4    1  0.3889096E-001  0.2227311E+03  0.7546771E-02  0.1131863E+00
         -1   -1    0    0    0  501 -0.00000000000E+00  0.00000000000E+00  0.55327030378E+03  0.55327030378E+03  0.00000000000E+00 0. -1.
          1   -1    0    0  502    0  0.00000000000E+00 -0.00000000000E+00 -0.96418691492E+02  0.96418691492E+02  0.00000000000E+00 0.  1.
          6    1    1    2  502    0  0.11945577937E+03 -0.75864847279E+02  0.31439745392E+03  0.38529847821E+03  0.17200000000E+03 0.  1.
         -6    1    1    2    0  501 -0.11945577937E+03  0.75864847279E+02  0.14245415837E+03  0.26439051706E+03  0.17200000000E+03 0.  1.
<mgrwt>
<rscale>  2 0.22273113E+03</rscale>
<asrwt>0</asrwt>
<pdfrwt beam="1">  1        1 0.24104674E-01 0.22273113E+03</pdfrwt>
<pdfrwt beam="2">  1       -1 0.13831757E+00 0.22273113E+03</pdfrwt>
<totfact> 0.94835446E+01</totfact>
</mgrwt>
</event>
<event>
 4    1  0.3889096E-001  0.2235674E+03  0.7546771E-02  0.1131251E+00
         -1   -1    0    0    0  501 -0.00000000000E+00  0.00000000000E+00  0.31349616101E+03  0.31349616101E+03  0.00000000000E+00 0.  1.
          1   -1    0    0  502    0  0.00000000000E+00 -0.00000000000E+00 -0.24869922813E+03  0.24869922813E+03  0.00000000000E+00 0. -1.
          6    1    1    2  502    0 -0.13918593736E+03  0.32026061064E+02 -0.13600760994E+03  0.26168772174E+03  0.17200000000E+03 0. -1.
         -6    1    1    2    0  501  0.13918593736E+03 -0.32026061064E+02  0.20080454282E+03  0.30050766740E+03  0.17200000000E+03 0. -1.
<mgrwt>
<rscale>  2 0.22356743E+03</rscale>
<asrwt>0</asrwt>
<pdfrwt beam="1">  1        1 0.62174807E-01 0.22356743E+03</pdfrwt>
<pdfrwt beam="2">  1       -1 0.78374040E-01 0.22356743E+03</pdfrwt>
<totfact> 0.10385211E+02</totfact>
</mgrwt>
</event>
<event>
 4    1  0.3889096E-001  0.1969735E+03  0.7546771E-02  0.1152318E+00
          1   -1    0    0  502    0  0.00000000000E+00  0.00000000000E+00  0.86689465097E+03  0.86689465097E+03  0.00000000000E+00 0. -1.
         -1   -1    0    0    0  501 -0.00000000000E+00 -0.00000000000E+00 -0.48254629902E+02  0.48254629902E+02  0.00000000000E+00 0.  1.
          6    1    1    2  502    0  0.88152086476E+02  0.37997103219E+02  0.53253212086E+03  0.56779312249E+03  0.17200000000E+03 0. -1.
         -6    1    1    2    0  501 -0.88152086476E+02 -0.37997103219E+02  0.28610790022E+03  0.34735615839E+03  0.17200000000E+03 0. -1.
<mgrwt>
<rscale>  2 0.19697353E+03</rscale>
<asrwt>0</asrwt>
<pdfrwt beam="1">  1        1 0.21672361E+00 0.19697353E+03</pdfrwt>
<pdfrwt beam="2">  1       -1 0.12063660E-01 0.19697353E+03</pdfrwt>
<totfact> 0.38015940E+02</totfact>
</mgrwt>
</event>
<event>
 4    1  0.3889096E-001  0.1859439E+03  0.7546771E-02  0.1162171E+00
          2   -1    0    0  502    0  0.00000000000E+00  0.00000000000E+00  0.75571970593E+03  0.75571970593E+03  0.00000000000E+00 0.  1.
         -2   -1    0    0    0  501 -0.00000000000E+00 -0.00000000000E+00 -0.74937260890E+02  0.74937260890E+02  0.00000000000E+00 0. -1.
          6    1    1    2  502    0  0.39668236391E+02  0.58459814927E+02  0.81194084906E+02  0.20289799990E+03  0.17200000000E+03 0. -1.
         -6    1    1    2    0  501 -0.39668236391E+02 -0.58459814927E+02  0.59958836013E+03  0.62775896692E+03  0.17200000000E+03 0.  1.
<mgrwt>
<rscale>  2 0.18594386E+03</rscale>
<asrwt>0</asrwt>
<pdfrwt beam="1">  1        2 0.18892990E+00 0.18594386E+03</pdfrwt>
<pdfrwt beam="2">  1       -2 0.18734318E-01 0.18594386E+03</pdfrwt>
<totfact> 0.46071815E+02</totfact>
</mgrwt>
</event>
<event>
 4    1  0.3889096E-001  0.2156400E+03  0.7546771E-02  0.1137176E+00
          2   -1    0    0  502    0  0.00000000000E+00  0.00000000000E+00  0.64525104640E+03  0.64525104640E+03  0.00000000000E+00 0. -1.
         -2   -1    0    0    0  501 -0.00000000000E+00 -0.00000000000E+00 -0.78282664714E+02  0.78282664714E+02  0.00000000000E+00 0.  1.
          6    1    1    2  502    0 -0.13005876909E+03 -0.11517264909E+01  0.38543190984E+03  0.44165412600E+03  0.17200000000E+03 0.  1.
         -6    1    1    2    0  501  0.13005876909E+03  0.11517264909E+01  0.18153647184E+03  0.28187958511E+03  0.17200000000E+03 0. -1.
<mgrwt>
<rscale>  2 0.21564000E+03</rscale>
<asrwt>0</asrwt>
<pdfrwt beam="1">  1        2 0.16131275E+00 0.21564000E+03</pdfrwt>
<pdfrwt beam="2">  1       -2 0.19570668E-01 0.21564000E+03</pdfrwt>
<totfact> 0.54049954E+02</totfact>
</mgrwt>
</event>
<event>
 4    1  0.3889096E-001  0.1757225E+03  0.7546771E-02  0.1172008E+00
          2   -1    0    0  502    0  0.00000000000E+00  0.00000000000E+00  0.20293877375E+03  0.20293877375E+03  0.00000000000E+00 0.  1.
         -2   -1    0    0    0  501 -0.00000000000E+00 -0.00000000000E+00 -0.15573980745E+03  0.15573980745E+03  0.00000000000E+00 0. -1.
          6    1    1    2  502    0  0.13252292695E+02 -0.33448187615E+02 -0.36044877474E+01  0.17575948580E+03  0.17200000000E+03 0. -1.
         -6    1    1    2    0  501 -0.13252292695E+02  0.33448187615E+02  0.50803454047E+02  0.18291909539E+03  0.17200000000E+03 0.  1.
<mgrwt>
<rscale>  2 0.17572252E+03</rscale>
<asrwt>0</asrwt>
<pdfrwt beam="1">  1        2 0.50734693E-01 0.17572252E+03</pdfrwt>
<pdfrwt beam="2">  1       -2 0.38934952E-01 0.17572252E+03</pdfrwt>
<totfact> 0.62006324E+02</totfact>
</mgrwt>
</event>
<event>
 4    1  0.3889096E-001  0.1724161E+03  0.7546771E-02  0.1175351E+00
         -1   -1    0    0    0  501 -0.00000000000E+00  0.00000000000E+00  0.20909211879E+02  0.20909211879E+02  0.00000000000E+00 0.  1.
          1   -1    0    0  502    0  0.00000000000E+00 -0.00000000000E+00 -0.15729502445E+04  0.15729502445E+04  0.00000000000E+00 0. -1.
          6    1    1    2  502    0  0.11137070673E+02 -0.43916424259E+01 -0.10231149133E+04  0.10375410578E+04  0.17200000000E+03 0. -1.
         -6    1    1    2    0  501 -0.11137070673E+02  0.43916424259E+01 -0.52892611939E+03  0.55631839861E+03  0.17200000000E+03 0.  1.
<mgrwt>
<rscale>  2 0.17241613E+03</rscale>
<asrwt>0</asrwt>
<pdfrwt beam="1">  1        1 0.39323761E+00 0.17241613E+03</pdfrwt>
<pdfrwt beam="2">  1       -1 0.52273023E-02 0.17241613E+03</pdfrwt>
<totfact> 0.24617661E+02</totfact>
</mgrwt>
</event>
<event>
 4    1  0.3889096E-001  0.1960850E+03  0.7546771E-02  0.1153085E+00
          1   -1    0    0  502    0  0.00000000000E+00  0.00000000000E+00  0.46245839918E+03  0.46245839918E+03  0.00000000000E+00 0. -1.
         -1   -1    0    0    0  501 -0.00000000000E+00 -0.00000000000E+00 -0.86054140923E+02  0.86054140923E+02  0.00000000000E+00 0.  1.
          6    1    1    2  502    0 -0.85831974954E+02 -0.38706695395E+02  0.23866107104E+03  0.30888257157E+03  0.17200000000E+03 0. -1.
         -6    1    1    2    0  501  0.85831974954E+02  0.38706695395E+02  0.13774318722E+03  0.23962996853E+03  0.17200000000E+03 0.  1.
<mgrwt>
<rscale>  2 0.19608502E+03</rscale>
<asrwt>0</asrwt>
<pdfrwt beam="1">  1        1 0.11561459E+00 0.19608502E+03</pdfrwt>
<pdfrwt beam="2">  1       -1 0.21513537E-01 0.19608502E+03</pdfrwt>
<totfact> 0.45911064E+02</totfact>
</mgrwt>
</event>
<event>
 4    1  0.3889096E-001  0.3832430E+03  0.7546771E-02  0.1049742E+00
          2   -1    0    0  502    0  0.00000000000E+00  0.00000000000E+00  0.11839466638E+04  0.11839466638E+04  0.00000000000E+00 0.  1.
         -2   -1    0    0    0  501 -0.00000000000E+00 -0.00000000000E+00 -0.14056686195E+03  0.14056686195E+03  0.00000000000E+00 0. -1.
          6    1    1    2  502    0 -0.27299872458E+03 -0.20679198739E+03  0.74866325942E+03  0.84105404445E+03  0.17200000000E+03 0.  1.
         -6    1    1    2    0  501  0.27299872458E+03  0.20679198739E+03  0.29471654243E+03  0.48345948130E+03  0.17200000000E+03 0. -1.
<mgrwt>
<rscale>  2 0.38324304E+03</rscale>
<asrwt>0</asrwt>
<pdfrwt beam="1">  1        2 0.29598664E+00 0.38324304E+03</pdfrwt>
<pdfrwt beam="2">  1       -2 0.35141719E-01 0.38324304E+03</pdfrwt>
<totfact> 0.60983929E+01</totfact>
</mgrwt>
</event>
<event>
 4    1  0.3889096E-001  0.1998505E+03  0.7546771E-02  0.1149865E+00
         -1   -1    0    0    0  501 -0.00000000000E+00  0.00000000000E+00  0.28352805972E+03  0.28352805972E+03  0.00000000000E+00 0.  1.
          1   -1    0    0  502    0  0.00000000000E+00 -0.00000000000E+00 -0.15158805779E+03  0.15158805779E+03  0.00000000000E+00 0. -1.
          6    1    1    2  502    0 -0.39274676755E+02 -0.93881447630E+02  0.81168177055E+01  0.20001527235E+03  0.17200000000E+03 0.  1.
         -6    1    1    2    0  501  0.39274676755E+02  0.93881447630E+02  0.12382318423E+03  0.23510084516E+03  0.17200000000E+03 0.  1.
<mgrwt>
<rscale>  2 0.19985051E+03</rscale>
<asrwt>0</asrwt>
<pdfrwt beam="1">  1        1 0.37897015E-01 0.19985051E+03</pdfrwt>
<pdfrwt beam="2">  1       -1 0.70882014E-01 0.19985051E+03</pdfrwt>
<totfact> 0.23852180E+02</totfact>
</mgrwt>
</event>
<event>
 4    1  0.3889096E-001  0.2281701E+03  0.7546771E-02  0.1127934E+00
          1   -1    0    0  502    0  0.00000000000E+00  0.00000000000E+00  0.11930140046E+04  0.11930140046E+04  0.00000000000E+00 0. -1.
         -1   -1    0    0    0  501 -0.00000000000E+00 -0.00000000000E+00 -0.58205797523E+02  0.58205797523E+02  0.00000000000E+00 0.  1.
          6    1    1    2  502    0 -0.10547752042E+03  0.10654627123E+03  0.25443132322E+03  0.34175563414E+03  0.17200000000E+03 0.  1.
         -6    1    1    2    0  501  0.10547752042E+03 -0.10654627123E+03  0.88037688384E+03  0.90946416797E+03  0.17200000000E+03 0. -1.
<mgrwt>
<rscale>  2 0.22817015E+03</rscale>
<asrwt>0</asrwt>
<pdfrwt beam="1">  1        1 0.29825342E+00 0.22817015E+03</pdfrwt>
<pdfrwt beam="2">  1       -1 0.14551453E-01 0.22817015E+03</pdfrwt>
<totfact> 0.12692076E+02</totfact>
</mgrwt>
</event>
<event>
 4    1  0.3889096E-001  0.1759184E+03  0.7546771E-02  0.1171813E+00
          2   -1    0    0  502    0  0.00000000000E+00  0.00000000000E+00  0.39054858180E+03  0.39054858180E+03  0.00000000000E+00 0. -1.
         -2   -1    0    0    0  501 -0.00000000000E+00 -0.00000000000E+00 -0.23922853011E+03  0.23922853011E+03  0.00000000000E+00 0.  1.
          6    1    1    2  502    0 -0.36908469930E+02 -0.10237967055E+01 -0.18184995876E+03  0.25301519878E+03  0.17200000000E+03 0.  1.
         -6    1    1    2    0  501  0.36908469930E+02  0.10237967055E+01  0.33317001046E+03  0.37676191312E+03  0.17200000000E+03 0. -1.
<mgrwt>
<rscale>  2 0.17591840E+03</rscale>
<asrwt>0</asrwt>
<pdfrwt beam="1">  1        2 0.97637144E-01 0.17591840E+03</pdfrwt>
<pdfrwt beam="2">  1       -2 0.59807133E-01 0.17591840E+03</pdfrwt>
<totfact> 0.12914380E+02</totfact>
</mgrwt>
</event>
<event>
 4    1  0.3889096E-001  0.2660924E+03  0.7546771E-02  0.1103537E+00
          1   -1    0    0  502    0  0.00000000000E+00  0.00000000000E+00  0.41541647923E+03  0.41541647923E+03  0.00000000000E+00 0.  1.
         -1   -1    0    0    0  501 -0.00000000000E+00 -0.00000000000E+00 -0.17276099698E+03  0.17276099698E+03  0.00000000000E+00 0. -1.
          6    1    1    2  502    0  0.14831419471E+03  0.13865086243E+03  0.15538716618E+03  0.30814011978E+03  0.17200000000E+03 0. -1.
         -6    1    1    2    0  501 -0.14831419471E+03 -0.13865086243E+03  0.87268316070E+02  0.28003735643E+03  0.17200000000E+03 0. -1.
<mgrwt>
<rscale>  2 0.26609239E+03</rscale>
<asrwt>0</asrwt>
<pdfrwt beam="1">  1        1 0.10385412E+00 0.26609239E+03</pdfrwt>
<pdfrwt beam="2">  1       -1 0.43190250E-01 0.26609239E+03</pdfrwt>
<totfact> 0.16175772E+02</totfact>
</mgrwt>
</event>
<event>
 4    1  0.3889096E-001  0.2162330E+03  0.7546771E-02  0.1136723E+00
         -1   -1    0    0    0  501 -0.00000000000E+00  0.00000000000E+00  0.10358409534E+03  0.10358409534E+03  0.00000000000E+00 0. -1.
          1   -1    0    0  502    0  0.00000000000E+00 -0.00000000000E+00 -0.52345298655E+03  0.52345298655E+03  0.00000000000E+00 0.  1.
          6    1    1    2  502    0 -0.11162987280E+03 -0.68640355112E+02 -0.32626220575E+03  0.39141251098E+03  0.17200000000E+03 0.  1.
         -6    1    1    2    0  501  0.11162987280E+03  0.68640355112E+02 -0.93606685465E+02  0.23562457091E+03  0.17200000000E+03 0.  1.
<mgrwt>
<rscale>  2 0.21623304E+03</rscale>
<asrwt>0</asrwt>
<pdfrwt beam="1">  1        1 0.13086324E+00 0.21623304E+03</pdfrwt>
<pdfrwt beam="2">  1       -1 0.25896024E-01 0.21623304E+03</pdfrwt>
<totfact> 0.27901497E+02</totfact>
</mgrwt>
</event>
<event>
 4    1  0.3889096E-001  0.2567416E+03  0.7546771E-02  0.1109117E+00
         -2   -1    0    0    0  501 -0.00000000000E+00  0.00000000000E+00  0.19065449298E+03  0.19065449298E+03  0.00000000000E+00 0.  1.
          2   -1    0    0  502    0  0.00000000000E+00 -0.00000000000E+00 -0.62991098906E+03  0.62991098906E+03  0.00000000000E+00 0. -1.
          6    1    1    2  502    0  0.35561526787E+02 -0.18726359001E+03 -0.49520080786E+03  0.55779934962E+03  0.17200000000E+03 0. -1.
         -6    1    1    2    0  501 -0.35561526787E+02  0.18726359001E+03  0.55944311780E+02  0.26276613242E+03  0.17200000000E+03 0.  1.
<mgrwt>
<rscale>  2 0.25674165E+03</rscale>
<asrwt>0</asrwt>
<pdfrwt beam="1">  1        2 0.15747775E+00 0.25674165E+03</pdfrwt>
<pdfrwt beam="2">  1       -2 0.47663624E-01 0.25674165E+03</pdfrwt>
<totfact> 0.10901139E+02</totfact>
</mgrwt>
</event>
<event>
 4    1  0.3889096E-001  0.1891204E+03  0.7546771E-02  0.1159257E+00
          3   -1    0    0  502    0  0.00000000000E+00  0.00000000000E+00  0.12456815717E+03  0.12456815717E+03  0.00000000000E+00 0. -1.
         -3   -1    0    0    0  501 -0.00000000000E+00 -0.00000000000E+00 -0.41014418149E+03  0.41014418149E+03  0.00000000000E+00 0.  1.
          6    1    1    2  502    0  0.75474274159E+02  0.22049179346E+02  0.36351436340E+01  0.18915535054E+03  0.17200000000E+03 0. -1.
         -6    1    1    2    0  501 -0.75474274159E+02 -0.22049179346E+02 -0.28921116796E+03  0.34555698812E+03  0.17200000000E+03 0.  1.
<mgrwt>
<rscale>  2 0.18912042E+03</rscale>
<asrwt>0</asrwt>
<pdfrwt beam="1">  1        3 0.31142039E-01 0.18912042E+03</pdfrwt>
<pdfrwt beam="2">  1       -3 0.10253604E+00 0.18912042E+03</pdfrwt>
<totfact> 0.20828061E+01</totfact>
</mgrwt>
</event>
<event>
 4    1  0.3889096E-001  0.1799355E+03  0.7546771E-02  0.1167865E+00
          1   -1    0    0  502    0  0.00000000000E+00  0.00000000000E+00  0.54829785437E+03  0.54829785437E+03  0.00000000000E+00 0. -1.
         -1   -1    0    0    0  501 -0.00000000000E+00 -0.00000000000E+00 -0.73282713774E+02  0.73282713774E+02  0.00000000000E+00 0.  1.
          6    1    1    2  502    0 -0.39339221854E+02 -0.35287500541E+02  0.10054047113E+03  0.20611930624E+03  0.17200000000E+03 0.  1.
         -6    1    1    2    0  501  0.39339221854E+02  0.35287500541E+02  0.37447466947E+03  0.41546126190E+03  0.17200000000E+03 0. -1.
<mgrwt>
<rscale>  2 0.17993549E+03</rscale>
<asrwt>0</asrwt>
<pdfrwt beam="1">  1        1 0.13707445E+00 0.17993549E+03</pdfrwt>
<pdfrwt beam="2">  1       -1 0.18320680E-01 0.17993549E+03</pdfrwt>
<totfact> 0.45868110E+02</totfact>
</mgrwt>
</event>
<event>
 4    1  0.3889096E-001  0.2081582E+03  0.7546771E-02  0.1143033E+00
         -1   -1    0    0    0  501 -0.00000000000E+00  0.00000000000E+00  0.57832863176E+03  0.57832863176E+03  0.00000000000E+00 0.  1.
          1   -1    0    0  502    0  0.00000000000E+00 -0.00000000000E+00 -0.75355968759E+02  0.75355968759E+02  0.00000000000E+00 0. -1.
          6    1    1    2  502    0  0.46828672034E+01  0.11714913955E+03  0.27627414429E+03  0.34591509500E+03  0.17200000000E+03 0. -1.
         -6    1    1    2    0  501 -0.46828672034E+01 -0.11714913955E+03  0.22669851871E+03  0.30776950552E+03  0.17200000000E+03 0. -1.
<mgrwt>
<rscale>  2 0.20815823E+03</rscale>
<asrwt>0</asrwt>
<pdfrwt beam="1">  1        1 0.18838994E-01 0.20815823E+03</pdfrwt>
<pdfrwt beam="2">  1       -1 0.14458214E+00 0.20815823E+03</pdfrwt>
<totfact> 0.11650162E+02</totfact>
</mgrwt>
</event>
<event>
 4    1  0.3889096E-001  0.2179259E+03  0.7546771E-02  0.1135439E+00
          1   -1    0    0  502    0  0.00000000000E+00  0.00000000000E+00  0.57882092333E+03  0.57882092333E+03  0.00000000000E+00 0.  1.
         -1   -1    0    0    0  501 -0.00000000000E+00 -0.00000000000E+00 -0.86756120851E+02  0.86756120851E+02  0.00000000000E+00 0. -1.
          6    1    1    2  502    0 -0.13058395568E+03 -0.29249468267E+02  0.16851590706E+03  0.27548014776E+03  0.17200000000E+03 0.  1.
         -6    1    1    2    0  501  0.13058395568E+03  0.29249468267E+02  0.32354889542E+03  0.39009689642E+03  0.17200000000E+03 0. -1.
<mgrwt>
<rscale>  2 0.21792591E+03</rscale>
<asrwt>0</asrwt>
<pdfrwt beam="1">  1        1 0.14470522E+00 0.21792591E+03</pdfrwt>
<pdfrwt beam="2">  1       -1 0.21689032E-01 0.21792591E+03</pdfrwt>
<totfact> 0.31779513E+02</totfact>
</mgrwt>
</event>
<event>
 4    1  0.3889096E-001  0.2346443E+03  0.7546771E-02  0.1123413E+00
         -2   -1    0    0    0  501 -0.00000000000E+00  0.00000000000E+00  0.25998066172E+03  0.25998066172E+03  0.00000000000E+00 0.  1.
          2   -1    0    0  502    0  0.00000000000E+00 -0.00000000000E+00 -0.21178313729E+03  0.21178313729E+03  0.00000000000E+00 0. -1.
          6    1    1    2  502    0  0.32066521436E+02 -0.15635118158E+03  0.25356903182E+02  0.23601043688E+03  0.17200000000E+03 0. -1.
         -6    1    1    2    0  501 -0.32066521436E+02  0.15635118158E+03  0.22840621243E+02  0.23575336213E+03  0.17200000000E+03 0.  1.
<mgrwt>
<rscale>  2 0.23464431E+03</rscale>
<asrwt>0</asrwt>
<pdfrwt beam="1">  1        2 0.52945784E-01 0.23464431E+03</pdfrwt>
<pdfrwt beam="2">  1       -2 0.64995165E-01 0.23464431E+03</pdfrwt>
<totfact> 0.21256454E+02</totfact>
</mgrwt>
</event>
<event>
 4    1  0.3889096E-001  0.2595156E+03  0.7546771E-02  0.1107435E+00
         -2   -1    0    0    0  501 -0.00000000000E+00  0.00000000000E+00  0.14548744882E+03  0.14548744882E+03  0.00000000000E+00 0. -1.
          2   -1    0    0  502    0  0.00000000000E+00 -0.00000000000E+00 -0.46751328372E+03  0.46751328372E+03  0.00000000000E+00 0.  1.
          6    1    1    2  502    0  0.12287708180E+02  0.19394161961E+03 -0.19140960878E+03  0.32246856889E+03  0.17200000000E+03 0.  1.
         -6    1    1    2    0  501 -0.12287708180E+02 -0.19394161961E+03 -0.13061622611E+03  0.29053216365E+03  0.17200000000E+03 0. -1.
<mgrwt>
<rscale>  2 0.25951559E+03</rscale>
<asrwt>0</asrwt>
<pdfrwt beam="1">  1        2 0.11687832E+00 0.25951559E+03</pdfrwt>
<pdfrwt beam="2">  1       -2 0.36371863E-01 0.25951559E+03</pdfrwt>
<totfact> 0.27332567E+02</totfact>
</mgrwt>
</event>
<event>
 4    1  0.3889096E-001  0.2105667E+03  0.7546771E-02  0.1141118E+00
         -1   -1    0    0    0  501 -0.00000000000E+00  0.00000000000E+00  0.30223340867E+03  0.30223340867E+03  0.00000000000E+00 0. -1.
          1   -1    0    0  502    0  0.00000000000E+00 -0.00000000000E+00 -0.15347448103E+03  0.15347448103E+03  0.00000000000E+00 0.  1.
          6    1    1    2  502    0 -0.94575319403E+02  0.76222246674E+02  0.26515985363E+02  0.21222963838E+03  0.17200000000E+03 0.  1.
         -6    1    1    2    0  501  0.94575319403E+02 -0.76222246674E+02  0.12224294228E+03  0.24347825132E+03  0.17200000000E+03 0.  1.
<mgrwt>
<rscale>  2 0.21056667E+03</rscale>
<asrwt>0</asrwt>
<pdfrwt beam="1">  1        1 0.38368621E-01 0.21056667E+03</pdfrwt>
<pdfrwt beam="2">  1       -1 0.75558351E-01 0.21056667E+03</pdfrwt>
<totfact> 0.20622387E+02</totfact>
</mgrwt>
</event>
<event>
 4    1  0.3889096E-001  0.2318316E+03  0.7546771E-02  0.1125357E+00
         -2   -1    0    0    0  501 -0.00000000000E+00  0.00000000000E+00  0.45904781869E+02  0.45904781869E+02  0.00000000000E+00 0.  1.
          2   -1    0    0  502    0  0.00000000000E+00 -0.00000000000E+00 -0.11928467959E+04  0.11928467959E+04  0.00000000000E+00 0. -1.
          6    1    1    2  502    0  0.81560319809E+02  0.13232470238E+03 -0.48929135200E+03  0.54143507438E+03  0.17200000000E+03 0. -1.
         -6    1    1    2    0  501 -0.81560319809E+02 -0.13232470238E+03 -0.65765066203E+03  0.69731650338E+03  0.17200000000E+03 0.  1.
<mgrwt>
<rscale>  2 0.23183165E+03</rscale>
<asrwt>0</asrwt>
<pdfrwt beam="1">  1        2 0.29821169E+00 0.23183165E+03</pdfrwt>
<pdfrwt beam="2">  1       -2 0.11476196E-01 0.23183165E+03</pdfrwt>
<totfact> 0.42996847E+02</totfact>
</mgrwt>
</event>
<event>
 4    1  0.3889096E-001  0.1888952E+03  0.7546771E-02  0.1159462E+00
         -1   -1    0    0    0  501 -0.00000000000E+00  0.00000000000E+00  0.62269592151E+02  0.62269592151E+02  0.00000000000E+00 0. -1.
          1   -1    0    0  502    0  0.00000000000E+00 -0.00000000000E+00 -0.57618927856E+03  0.57618927856E+03  0.00000000000E+00 0.  1.
          6    1    1    2  502    0  0.44096730006E+02 -0.64442900713E+02 -0.28065416520E+03  0.33830189106E+03  0.17200000000E+03 0. -1.
         -6    1    1    2    0  501 -0.44096730006E+02  0.64442900713E+02 -0.23326552121E+03  0.30015697965E+03  0.17200000000E+03 0.  1.
<mgrwt>
<rscale>  2 0.18889523E+03</rscale>
<asrwt>0</asrwt>
<pdfrwt beam="1">  1        1 0.14404732E+00 0.18889523E+03</pdfrwt>
<pdfrwt beam="2">  1       -1 0.15567398E-01 0.18889523E+03</pdfrwt>
<totfact> 0.54806245E+02</totfact>
</mgrwt>
</event>
<event>
 4    1  0.3889096E-001  0.3316642E+03  0.7546771E-02  0.1070403E+00
         -1   -1    0    0    0  501 -0.00000000000E+00  0.00000000000E+00  0.34002172205E+03  0.34002172205E+03  0.00000000000E+00 0. -1.
          1   -1    0    0  502    0  0.00000000000E+00 -0.00000000000E+00 -0.52069141335E+03  0.52069141335E+03  0.00000000000E+00 0.  1.
          6    1    1    2  502    0  0.27545829493E+03 -0.67378755946E+02 -0.35516584089E+03  0.48594644101E+03  0.17200000000E+03 0.  1.
         -6    1    1    2    0  501 -0.27545829493E+03  0.67378755946E+02  0.17449614958E+03  0.37476669438E+03  0.17200000000E+03 0. -1.
<mgrwt>
<rscale>  2 0.33166424E+03</rscale>
<asrwt>0</asrwt>
<pdfrwt beam="1">  1        1 0.13017285E+00 0.33166424E+03</pdfrwt>
<pdfrwt beam="2">  1       -1 0.85005431E-01 0.33166424E+03</pdfrwt>
<totfact> 0.30307950E+01</totfact>
</mgrwt>
</event>
<event>
 4    1  0.3889096E-001  0.1767182E+03  0.7546771E-02  0.1171018E+00
          3   -1    0    0  502    0  0.00000000000E+00  0.00000000000E+00  0.21666319507E+03  0.21666319507E+03  0.00000000000E+00 0.  1.
         -3   -1    0    0    0  501 -0.00000000000E+00 -0.00000000000E+00 -0.21579584738E+03  0.21579584738E+03  0.00000000000E+00 0. -1.
          6    1    1    2  502    0 -0.28289828379E+02 -0.29068966318E+02 -0.12416873799E+03  0.21597961637E+03  0.17200000000E+03 0. -1.
         -6    1    1    2    0  501  0.28289828379E+02  0.29068966318E+02  0.12503608569E+03  0.21647942608E+03  0.17200000000E+03 0.  1.
<mgrwt>
<rscale>  2 0.17671819E+03</rscale>
<asrwt>0</asrwt>
<pdfrwt beam="1">  1        3 0.54165799E-01 0.17671819E+03</pdfrwt>
<pdfrwt beam="2">  1       -3 0.53948962E-01 0.17671819E+03</pdfrwt>
<totfact> 0.28212611E+01</totfact>
</mgrwt>
</event>
<event>
 4    1  0.3889096E-001  0.2127855E+03  0.7546771E-02  0.1139379E+00
         -2   -1    0    0    0  501 -0.00000000000E+00  0.00000000000E+00  0.45824452207E+02  0.45824452207E+02  0.00000000000E+00 0.  1.
          2   -1    0    0  502    0  0.00000000000E+00 -0.00000000000E+00 -0.10258293567E+04  0.10258293567E+04  0.00000000000E+00 0. -1.
          6    1    1    2  502    0 -0.11152989740E+03 -0.57050532382E+02 -0.38719846856E+03  0.44181482016E+03  0.17200000000E+03 0.  1.
         -6    1    1    2    0  501  0.11152989740E+03  0.57050532382E+02 -0.59280643591E+03  0.62983898872E+03  0.17200000000E+03 0. -1.
<mgrwt>
<rscale>  2 0.21278553E+03</rscale>
<asrwt>0</asrwt>
<pdfrwt beam="1">  1        2 0.25645733E+00 0.21278553E+03</pdfrwt>
<pdfrwt beam="2">  1       -2 0.11456114E-01 0.21278553E+03</pdfrwt>
<totfact> 0.59964514E+02</totfact>
</mgrwt>
</event>
<event>
 4    1  0.3889096E-001  0.1834243E+03  0.7546771E-02  0.1164529E+00
          1   -1    0    0  502    0  0.00000000000E+00  0.00000000000E+00  0.46636923653E+03  0.46636923653E+03  0.00000000000E+00 0.  1.
         -1   -1    0    0    0  501 -0.00000000000E+00 -0.00000000000E+00 -0.81782859204E+02  0.81782859204E+02  0.00000000000E+00 0. -1.
          6    1    1    2  502    0 -0.56129569784E+02 -0.30165583724E+02  0.98188083122E+02  0.20805141363E+03  0.17200000000E+03 0. -1.
         -6    1    1    2    0  501  0.56129569784E+02  0.30165583724E+02  0.28639829421E+03  0.34010068211E+03  0.17200000000E+03 0.  1.
<mgrwt>
<rscale>  2 0.18342435E+03</rscale>
<asrwt>0</asrwt>
<pdfrwt beam="1">  1        1 0.11659230E+00 0.18342435E+03</pdfrwt>
<pdfrwt beam="2">  1       -1 0.20445716E-01 0.18342435E+03</pdfrwt>
<totfact> 0.49311155E+02</totfact>
</mgrwt>
</event>
<event>
 4    1  0.3889096E-001  0.2839824E+03  0.7546771E-02  0.1093534E+00
          2   -1    0    0  502    0  0.00000000000E+00  0.00000000000E+00  0.53680251624E+03  0.53680251624E+03  0.00000000000E+00 0.  1.
         -2   -1    0    0    0  501 -0.00000000000E+00 -0.00000000000E+00 -0.46021514712E+03  0.46021514712E+03  0.00000000000E+00 0. -1.
          6    1    1    2  502    0 -0.21432072641E+03  0.71614292973E+02  0.44742248649E+03  0.52993665861E+03  0.17200000000E+03 0.  1.
         -6    1    1    2    0  501  0.21432072641E+03 -0.71614292973E+02 -0.37083511736E+03  0.46708100475E+03  0.17200000000E+03 0. -1.
<mgrwt>
<rscale>  2 0.28398236E+03</rscale>
<asrwt>0</asrwt>
<pdfrwt beam="1">  1        2 0.13420063E+00 0.28398236E+03</pdfrwt>
<pdfrwt beam="2">  1       -2 0.11505379E+00 0.28398236E+03</pdfrwt>
<totfact> 0.19729930E+01</totfact>
</mgrwt>
</event>
<event>
 4    1  0.3889096E-001  0.2079855E+03  0.7546771E-02  0.1143171E+00
          2   -1    0    0  502    0  0.00000000000E+00  0.00000000000E+00  0.14816035501E+04  0.14816035501E+04  0.00000000000E+00 0.  1.
         -2   -1    0    0    0  501 -0.00000000000E+00 -0.00000000000E+00 -0.33282365140E+02  0.33282365140E+02  0.00000000000E+00 0. -1.
          6    1    1    2  502    0 -0.81675307770E+02 -0.83684637667E+02  0.45877778306E+03  0.50372118152E+03  0.17200000000E+03 0.  1.
         -6    1    1    2    0  501  0.81675307770E+02  0.83684637667E+02  0.98954340192E+03  0.10111647337E+04  0.17200000000E+03 0.  1.
<mgrwt>
<rscale>  2 0.20798552E+03</rscale>
<asrwt>0</asrwt>
<pdfrwt beam="1">  1        2 0.37040067E+00 0.20798552E+03</pdfrwt>
<pdfrwt beam="2">  1       -2 0.83205963E-02 0.20798552E+03</pdfrwt>
<totfact> 0.40722808E+02</totfact>
</mgrwt>
</event>
<event>
 4    1  0.3889096E-001  0.2224373E+03  0.7546771E-02  0.1132079E+00
          2   -1    0    0  502    0  0.00000000000E+00  0.00000000000E+00  0.14820303844E+04  0.14820303844E+04  0.00000000000E+00 0.  1.
         -2   -1    0    0    0  501 -0.00000000000E+00 -0.00000000000E+00 -0.42592904704E+02  0.42592904704E+02  0.00000000000E+00 0. -1.
          6    1    1    2  502    0  0.78287826921E+02 -0.11732584849E+03  0.36528722474E+03  0.42768340525E+03  0.17200000000E+03 0. -1.
         -6    1    1    2    0  501 -0.78287826921E+02  0.11732584849E+03  0.10741502550E+04  0.10969398839E+04  0.17200000000E+03 0.  1.
<mgrwt>
<rscale>  2 0.22243727E+03</rscale>
<asrwt>0</asrwt>
<pdfrwt beam="1">  1        2 0.37050742E+00 0.22243727E+03</pdfrwt>
<pdfrwt beam="2">  1       -2 0.10648231E-01 0.22243727E+03</pdfrwt>
<totfact> 0.27432603E+02</totfact>
</mgrwt>
</event>
<event>
 4    1  0.3889096E-001  0.1761942E+03  0.7546771E-02  0.1171538E+00
          1   -1    0    0  502    0  0.00000000000E+00  0.00000000000E+00  0.69283841001E+03  0.69283841001E+03  0.00000000000E+00 0.  1.
         -1   -1    0    0    0  501 -0.00000000000E+00 -0.00000000000E+00 -0.65176199233E+02  0.65176199233E+02  0.00000000000E+00 0. -1.
          6    1    1    2  502    0 -0.31367684998E+02  0.21828390049E+02  0.10195406707E+03  0.20356581753E+03  0.17200000000E+03 0. -1.
         -6    1    1    2    0  501  0.31367684998E+02 -0.21828390049E+02  0.52570814370E+03  0.55444879171E+03  0.17200000000E+03 0.  1.
<mgrwt>
<rscale>  2 0.17619424E+03</rscale>
<asrwt>0</asrwt>
<pdfrwt beam="1">  1        1 0.17320958E+00 0.17619424E+03</pdfrwt>
<pdfrwt beam="2">  1       -1 0.16294052E-01 0.17619424E+03</pdfrwt>
<totfact> 0.37104355E+02</totfact>
</mgrwt>
</event>
<event>
 4    1  0.3889096E-001  0.1927564E+03  0.7546771E-02  0.1155998E+00
          2   -1    0    0  502    0  0.00000000000E+00  0.00000000000E+00  0.26947686091E+03  0.26947686091E+03  0.00000000000E+00 0.  1.
         -2   -1    0    0    0  501 -0.00000000000E+00 -0.00000000000E+00 -0.17718238755E+03  0.17718238755E+03  0.00000000000E+00 0. -1.
          6    1    1    2  502    0  0.83378928711E+02 -0.24879503213E+02  0.15133238615E+03  0.24506433141E+03  0.17200000000E+03 0.  1.
         -6    1    1    2    0  501 -0.83378928711E+02  0.24879503213E+02 -0.59037912783E+02  0.20159491705E+03  0.17200000000E+03 0. -1.
<mgrwt>
<rscale>  2 0.19275641E+03</rscale>
<asrwt>0</asrwt>
<pdfrwt beam="1">  1        2 0.67369215E-01 0.19275641E+03</pdfrwt>
<pdfrwt beam="2">  1       -2 0.44295597E-01 0.19275641E+03</pdfrwt>
<totfact> 0.35661413E+02</totfact>
</mgrwt>
</event>
<event>
 4    1  0.3889096E-001  0.2261052E+03  0.7546771E-02  0.1129412E+00
          1   -1    0    0  502    0  0.00000000000E+00  0.00000000000E+00  0.34521440978E+03  0.34521440978E+03  0.00000000000E+00 0.  1.
         -1   -1    0    0    0  501 -0.00000000000E+00 -0.00000000000E+00 -0.17617485764E+03  0.17617485764E+03  0.00000000000E+00 0. -1.
          6    1    1    2  502    0  0.13143558155E+03 -0.65301047643E+02 -0.19563207636E+02  0.22694990199E+03  0.17200000000E+03 0. -1.
         -6    1    1    2    0  501 -0.13143558155E+03  0.65301047643E+02  0.18860275978E+03  0.29443936543E+03  0.17200000000E+03 0.  1.
<mgrwt>
<rscale>  2 0.22610515E+03</rscale>
<asrwt>0</asrwt>
<pdfrwt beam="1">  1        1 0.86303602E-01 0.22610515E+03</pdfrwt>
<pdfrwt beam="2">  1       -1 0.44043715E-01 0.22610515E+03</pdfrwt>
<totfact> 0.20366541E+02</totfact>
</mgrwt>
</event>
<event>
 4    1  0.3889096E-001  0.1739169E+03  0.7546771E-02  0.1173824E+00
          2   -1    0    0  502    0  0.00000000000E+00  0.00000000000E+00  0.30410389718E+03  0.30410389718E+03  0.00000000000E+00 0. -1.
         -2   -1    0    0    0  501 -0.00000000000E+00 -0.00000000000E+00 -0.99872251566E+02  0.99872251566E+02  0.00000000000E+00 0.  1.
          6    1    1    2  502    0  0.74737036754E+01  0.24642378881E+02  0.89186715376E+02  0.19545171599E+03  0.17200000000E+03 0.  1.
         -6    1    1    2    0  501 -0.74737036754E+01 -0.24642378881E+02  0.11504493024E+03  0.20852443276E+03  0.17200000000E+03 0. -1.
<mgrwt>
<rscale>  2 0.17391694E+03</rscale>
<asrwt>0</asrwt>
<pdfrwt beam="1">  1        2 0.76025972E-01 0.17391694E+03</pdfrwt>
<pdfrwt beam="2">  1       -2 0.24968064E-01 0.17391694E+03</pdfrwt>
<totfact> 0.89869051E+02</totfact>
</mgrwt>
</event>
<event>
 4    1  0.3889096E-001  0.1901048E+03  0.7546771E-02  0.1158367E+00
         -1   -1    0    0    0  501 -0.00000000000E+00  0.00000000000E+00  0.22960566419E+03  0.22960566419E+03  0.00000000000E+00 0. -1.
          1   -1    0    0  502    0  0.00000000000E+00 -0.00000000000E+00 -0.17048033321E+03  0.17048033321E+03  0.00000000000E+00 0.  1.
          6    1    1    2  502    0 -0.80702256844E+02 -0.65565029605E+01  0.84974444278E+02  0.20823183755E+03  0.17200000000E+03 0.  1.
         -6    1    1    2    0  501  0.80702256844E+02  0.65565029605E+01 -0.25849113297E+02  0.19185415984E+03  0.17200000000E+03 0.  1.
<mgrwt>
<rscale>  2 0.19010482E+03</rscale>
<asrwt>0</asrwt>
<pdfrwt beam="1">  1        1 0.42620083E-01 0.19010482E+03</pdfrwt>
<pdfrwt beam="2">  1       -1 0.57401416E-01 0.19010482E+03</pdfrwt>
<totfact> 0.31073638E+02</totfact>
</mgrwt>
</event>
<event>
 4    1  0.3889096E-001  0.2840300E+03  0.7546771E-02  0.1093508E+00
          2   -1    0    0  502    0  0.00000000000E+00  0.00000000000E+00  0.21979830170E+03  0.21979830170E+03  0.00000000000E+00 0.  1.
         -2   -1    0    0    0  501 -0.00000000000E+00 -0.00000000000E+00 -0.44068683381E+03  0.44068683381E+03  0.00000000000E+00 0. -1.
          6    1    1    2  502    0  0.19735417587E+03 -0.11018333990E+03  0.24566454343E+02  0.28509042391E+03  0.17200000000E+03 0.  1.
         -6    1    1    2    0  501 -0.19735417587E+03  0.11018333990E+03 -0.24545498646E+03  0.37539471160E+03  0.17200000000E+03 0. -1.
<mgrwt>
<rscale>  2 0.28403000E+03</rscale>
<asrwt>0</asrwt>
<pdfrwt beam="1">  1        2 0.54949576E-01 0.28403000E+03</pdfrwt>
<pdfrwt beam="2">  1       -2 0.11017171E+00 0.28403000E+03</pdfrwt>
<totfact> 0.62189876E+01</totfact>
</mgrwt>
</event>
<event>
 4    1  0.3889096E-001  0.2052258E+03  0.7546771E-02  0.1145403E+00
          2   -1    0    0  502    0  0.00000000000E+00  0.00000000000E+00  0.14609743489E+04  0.14609743489E+04  0.00000000000E+00 0. -1.
         -2   -1    0    0    0  501 -0.00000000000E+00 -0.00000000000E+00 -0.28997887646E+02  0.28997887646E+02  0.00000000000E+00 0.  1.
          6    1    1    2  502    0 -0.14159304068E+02  0.11105477609E+03  0.65904401852E+03  0.69025840635E+03  0.17200000000E+03 0.  1.
         -6    1    1    2    0  501  0.14159304068E+02 -0.11105477609E+03  0.77293244275E+03  0.79971383022E+03  0.17200000000E+03 0. -1.
<mgrwt>
<rscale>  2 0.20522585E+03</rscale>
<asrwt>0</asrwt>
<pdfrwt beam="1">  1        2 0.36524334E+00 0.20522585E+03</pdfrwt>
<pdfrwt beam="2">  1       -2 0.72494768E-02 0.20522585E+03</pdfrwt>
<totfact> 0.52636923E+02</totfact>
</mgrwt>
</event>
<event>
 4    1  0.3889096E-001  0.1899542E+03  0.7546771E-02  0.1158503E+00
         -1   -1    0    0    0  501 -0.00000000000E+00  0.00000000000E+00  0.73787940183E+03  0.73787940183E+03  0.00000000000E+00 0. -1.
          1   -1    0    0  502    0  0.00000000000E+00 -0.00000000000E+00 -0.14168207038E+03  0.14168207038E+03  0.00000000000E+00 0.  1.
          6    1    1    2  502    0  0.69901435542E+01  0.80310244859E+02 -0.57786470064E+02  0.19854942372E+03  0.17200000000E+03 0.  1.
         -6    1    1    2    0  501 -0.69901435542E+01 -0.80310244859E+02  0.65398380151E+03  0.68101204848E+03  0.17200000000E+03 0. -1.
<mgrwt>
<rscale>  2 0.18995420E+03</rscale>
<asrwt>0</asrwt>
<pdfrwt beam="1">  1        1 0.35420520E-01 0.18995420E+03</pdfrwt>
<pdfrwt beam="2">  1       -1 0.18446984E+00 0.18995420E+03</pdfrwt>
<totfact> 0.27031602E+01</totfact>
</mgrwt>
</event>
<event>
 4    1  0.3889096E-001  0.1725321E+03  0.7546771E-02  0.1175233E+00
          2   -1    0    0  502    0  0.00000000000E+00  0.00000000000E+00  0.36176966707E+03  0.36176966707E+03  0.00000000000E+00 0. -1.
         -2   -1    0    0    0  501 -0.00000000000E+00 -0.00000000000E+00 -0.16269776773E+03  0.16269776773E+03  0.00000000000E+00 0.  1.
          6    1    1    2  502    0  0.42086603380E+01  0.12868423930E+02  0.28389608422E+03  0.33221122165E+03  0.17200000000E+03 0. -1.
         -6    1    1    2    0  501 -0.42086603380E+01 -0.12868423930E+02 -0.84824184868E+02  0.19225621315E+03  0.17200000000E+03 0.  1.
<mgrwt>
<rscale>  2 0.17253205E+03</rscale>
<asrwt>0</asrwt>
<pdfrwt beam="1">  1        2 0.90442415E-01 0.17253205E+03</pdfrwt>
<pdfrwt beam="2">  1       -2 0.40674443E-01 0.17253205E+03</pdfrwt>
<totfact> 0.30311149E+02</totfact>
</mgrwt>
</event>
<event>
 4    1  0.3889096E-001  0.2026287E+03  0.7546771E-02  0.1147540E+00
         -2   -1    0    0    0  501 -0.00000000000E+00  0.00000000000E+00  0.13395997122E+03  0.13395997122E+03  0.00000000000E+00 0.  1.
          2   -1    0    0  502    0  0.00000000000E+00 -0.00000000000E+00 -0.34532566097E+03  0.34532566097E+03  0.00000000000E+00 0. -1.
          6    1    1    2  502    0  0.91518972851E+01 -0.10672697400E+03 -0.25325964450E+02  0.20420531012E+03  0.17200000000E+03 0.  1.
         -6    1    1    2    0  501 -0.91518972851E+01  0.10672697400E+03 -0.18603972530E+03  0.27508032207E+03  0.17200000000E+03 0. -1.
<mgrwt>
<rscale>  2 0.20262873E+03</rscale>
<asrwt>0</asrwt>
<pdfrwt beam="1">  1        2 0.86331414E-01 0.20262873E+03</pdfrwt>
<pdfrwt beam="2">  1       -2 0.33489993E-01 0.20262873E+03</pdfrwt>
<totfact> 0.45929536E+02</totfact>
</mgrwt>
</event>
<event>
 4    1  0.3889096E-001  0.1764809E+03  0.7546771E-02  0.1171253E+00
         -2   -1    0    0    0  501 -0.00000000000E+00  0.00000000000E+00  0.26349430700E+02  0.26349430700E+02  0.00000000000E+00 0.  1.
          2   -1    0    0  502    0  0.00000000000E+00 -0.00000000000E+00 -0.12102369929E+04  0.12102369929E+04  0.00000000000E+00 0. -1.
          6    1    1    2  502    0  0.13307097044E+02  0.37207864367E+02 -0.49753133385E+03  0.52790428315E+03  0.17200000000E+03 0.  1.
         -6    1    1    2    0  501 -0.13307097044E+02 -0.37207864367E+02 -0.68635622832E+03  0.70868214043E+03  0.17200000000E+03 0. -1.
<mgrwt>
<rscale>  2 0.17648089E+03</rscale>
<asrwt>0</asrwt>
<pdfrwt beam="1">  1        2 0.30255924E+00 0.17648089E+03</pdfrwt>
<pdfrwt beam="2">  1       -2 0.65873579E-02 0.17648089E+03</pdfrwt>
<totfact> 0.10042216E+03</totfact>
</mgrwt>
</event>
<event>
 4    1  0.3889096E-001  0.1771687E+03  0.7546771E-02  0.1170572E+00
         -2   -1    0    0    0  501 -0.00000000000E+00  0.00000000000E+00  0.15923815511E+02  0.15923815511E+02  0.00000000000E+00 0.  1.
          2   -1    0    0  502    0  0.00000000000E+00 -0.00000000000E+00 -0.21428595706E+04  0.21428595706E+04  0.00000000000E+00 0. -1.
          6    1    1    2  502    0 -0.39225225028E+02 -0.16313726913E+02 -0.75794931028E+03  0.77838031381E+03  0.17200000000E+03 0.  1.
         -6    1    1    2    0  501  0.39225225028E+02  0.16313726913E+02 -0.13689864448E+04  0.13804030723E+04  0.17200000000E+03 0. -1.
<mgrwt>
<rscale>  2 0.17716872E+03</rscale>
<asrwt>0</asrwt>
<pdfrwt beam="1">  1        2 0.53571494E+00 0.17716872E+03</pdfrwt>
<pdfrwt beam="2">  1       -2 0.39809535E-02 0.17716872E+03</pdfrwt>
<totfact> 0.29909947E+02</totfact>
</mgrwt>
</event>
<event>
 4    1  0.3889096E-001  0.2291914E+03  0.7546771E-02  0.1127210E+00
          2   -1    0    0  502    0  0.00000000000E+00  0.00000000000E+00  0.32115220135E+03  0.32115220135E+03  0.00000000000E+00 0.  1.
         -2   -1    0    0    0  501 -0.00000000000E+00 -0.00000000000E+00 -0.19081970179E+03  0.19081970179E+03  0.00000000000E+00 0. -1.
          6    1    1    2  502    0  0.15102071660E+03 -0.11723807347E+02  0.16191358660E+03  0.28061488561E+03  0.17200000000E+03 0.  1.
         -6    1    1    2    0  501 -0.15102071660E+03  0.11723807347E+02 -0.31581087033E+02  0.23135701753E+03  0.17200000000E+03 0. -1.
<mgrwt>
<rscale>  2 0.22919141E+03</rscale>
<asrwt>0</asrwt>
<pdfrwt beam="1">  1        2 0.80288050E-01 0.22919141E+03</pdfrwt>
<pdfrwt beam="2">  1       -2 0.47704926E-01 0.22919141E+03</pdfrwt>
<totfact> 0.25321027E+02</totfact>
</mgrwt>
</event>
<event>
 4    1  0.3889096E-001  0.2765616E+03  0.7546771E-02  0.1097582E+00
         -2   -1    0    0    0  501 -0.00000000000E+00  0.00000000000E+00  0.13019359976E+03  0.13019359976E+03  0.00000000000E+00 0. -1.
          2   -1    0    0  502    0  0.00000000000E+00 -0.00000000000E+00 -0.10876817144E+04  0.10876817144E+04  0.00000000000E+00 0.  1.
          6    1    1    2  502    0  0.20626721657E+03 -0.66001040811E+02 -0.65797402328E+02  0.28428084735E+03  0.17200000000E+03 0. -1.
         -6    1    1    2    0  501 -0.20626721657E+03  0.66001040811E+02 -0.89169071236E+03  0.93359446685E+03  0.17200000000E+03 0.  1.
<mgrwt>
<rscale>  2 0.27656157E+03</rscale>
<asrwt>0</asrwt>
<pdfrwt beam="1">  1        2 0.27192042E+00 0.27656157E+03</pdfrwt>
<pdfrwt beam="2">  1       -2 0.32548401E-01 0.27656157E+03</pdfrwt>
<totfact> 0.87467888E+01</totfact>
</mgrwt>
</event>
<event>
 4    1  0.3889096E-001  0.2928452E+03  0.7546771E-02  0.1088873E+00
         -2   -1    0    0    0  501 -0.00000000000E+00  0.00000000000E+00  0.84445386694E+02  0.84445386694E+02  0.00000000000E+00 0. -1.
          2   -1    0    0  502    0  0.00000000000E+00 -0.00000000000E+00 -0.10499942310E+04  0.10499942310E+04  0.00000000000E+00 0.  1.
          6    1    1    2  502    0  0.20477108142E+01  0.23700241929E+03 -0.58551193874E+03  0.65466218027E+03  0.17200000000E+03 0.  1.
         -6    1    1    2    0  501 -0.20477108142E+01 -0.23700241929E+03 -0.38003690555E+03  0.47977743741E+03  0.17200000000E+03 0. -1.
<mgrwt>
<rscale>  2 0.29284525E+03</rscale>
<asrwt>0</asrwt>
<pdfrwt beam="1">  1        2 0.26249855E+00 0.29284525E+03</pdfrwt>
<pdfrwt beam="2">  1       -2 0.21111347E-01 0.29284525E+03</pdfrwt>
<totfact> 0.20350142E+02</totfact>
</mgrwt>
</event>
<event>
 4    1  0.3889096E-001  0.1995165E+03  0.7546771E-02  0.1150148E+00
         -2   -1    0    0    0  501 -0.00000000000E+00  0.00000000000E+00  0.32814150840E+02  0.32814150840E+02  0.00000000000E+00 0.  1.
          2   -1    0    0  502    0  0.00000000000E+00 -0.00000000000E+00 -0.13117272952E+04  0.13117272952E+04  0.00000000000E+00 0. -1.
          6    1    1    2  502    0 -0.63310993733E+02  0.78832306476E+02 -0.82379807477E+03  0.84761434772E+03  0.17200000000E+03 0. -1.
         -6    1    1    2    0  501  0.63310993733E+02 -0.78832306476E+02 -0.45511506957E+03  0.49692709830E+03  0.17200000000E+03 0.  1.
<mgrwt>
<rscale>  2 0.19951645E+03</rscale>
<asrwt>0</asrwt>
<pdfrwt beam="1">  1        2 0.32793179E+00 0.19951645E+03</pdfrwt>
<pdfrwt beam="2">  1       -2 0.82035386E-02 0.19951645E+03</pdfrwt>
<totfact> 0.58426156E+02</totfact>
</mgrwt>
</event>
<event>
 4    1  0.3889096E-001  0.1774784E+03  0.7546771E-02  0.1170266E+00
          2   -1    0    0  502    0  0.00000000000E+00  0.00000000000E+00  0.13150681936E+04  0.13150681936E+04  0.00000000000E+00 0. -1.
         -2   -1    0    0    0  501 -0.00000000000E+00 -0.00000000000E+00 -0.24048420882E+02  0.24048420882E+02  0.00000000000E+00 0.  1.
          6    1    1    2  502    0  0.39822146019E+02  0.18132262065E+02  0.60312483613E+03  0.62869559423E+03  0.17200000000E+03 0.  1.
         -6    1    1    2    0  501 -0.39822146019E+02 -0.18132262065E+02  0.68789493662E+03  0.71042102029E+03  0.17200000000E+03 0.  1.
<mgrwt>
<rscale>  2 0.17747840E+03</rscale>
<asrwt>0</asrwt>
<pdfrwt beam="1">  1        2 0.32876681E+00 0.17747840E+03</pdfrwt>
<pdfrwt beam="2">  1       -2 0.60121097E-02 0.17747840E+03</pdfrwt>
<totfact> 0.94210192E+02</totfact>
</mgrwt>
</event>
<event>
 4    1  0.3889096E-001  0.2893051E+03  0.7546771E-02  0.1090713E+00
         -2   -1    0    0    0  501 -0.00000000000E+00  0.00000000000E+00  0.43185940431E+02  0.43185940431E+02  0.00000000000E+00 0. -1.
          2   -1    0    0  502    0  0.00000000000E+00 -0.00000000000E+00 -0.19462067733E+04  0.19462067733E+04  0.00000000000E+00 0.  1.
          6    1    1    2  502    0  0.23095783679E+03 -0.27783186379E+02 -0.88719873628E+03  0.93317684576E+03  0.17200000000E+03 0. -1.
         -6    1    1    2    0  501 -0.23095783679E+03  0.27783186379E+02 -0.10158220965E+04  0.10562158679E+04  0.17200000000E+03 0. -1.
<mgrwt>
<rscale>  2 0.28930508E+03</rscale>
<asrwt>0</asrwt>
<pdfrwt beam="1">  1        2 0.48655168E+00 0.28930508E+03</pdfrwt>
<pdfrwt beam="2">  1       -2 0.10796485E-01 0.28930508E+03</pdfrwt>
<totfact> 0.97177960E+01</totfact>
</mgrwt>
</event>
<event>
 4    1  0.3889096E-001  0.3140183E+03  0.7546771E-02  0.1078436E+00
          3   -1    0    0  502    0  0.00000000000E+00  0.00000000000E+00  0.25500084481E+03  0.25500084481E+03  0.00000000000E+00 0. -1.
         -3   -1    0    0    0  501 -0.00000000000E+00 -0.00000000000E+00 -0.56131595127E+03  0.56131595127E+03  0.00000000000E+00 0.  1.
          6    1    1    2  502    0  0.94059818499E+02  0.24530852219E+03 -0.38081054999E+03  0.49358301784E+03  0.17200000000E+03 0.  1.
         -6    1    1    2    0  501 -0.94059818499E+02 -0.24530852219E+03  0.74495443529E+02  0.32273377825E+03  0.17200000000E+03 0. -1.
<mgrwt>
<rscale>  2 0.31401834E+03</rscale>
<asrwt>0</asrwt>
<pdfrwt beam="1">  1        3 0.63750212E-01 0.31401834E+03</pdfrwt>
<pdfrwt beam="2">  1       -3 0.14032899E+00 0.31401834E+03</pdfrwt>
<totfact> 0.24040337E+00</totfact>
</mgrwt>
</event>
<event>
 4    1  0.3889096E-001  0.2161589E+03  0.7546771E-02  0.1136780E+00
          1   -1    0    0  502    0  0.00000000000E+00  0.00000000000E+00  0.79220165497E+03  0.79220165497E+03  0.00000000000E+00 0.  1.
         -1   -1    0    0    0  501 -0.00000000000E+00 -0.00000000000E+00 -0.75728857637E+02  0.75728857637E+02  0.00000000000E+00 0. -1.
          6    1    1    2  502    0 -0.13077712040E+03 -0.61645614421E+01  0.15415332904E+03  0.26549558545E+03  0.17200000000E+03 0. -1.
         -6    1    1    2    0  501  0.13077712040E+03  0.61645614421E+01  0.56231946829E+03  0.60243492716E+03  0.17200000000E+03 0.  1.
<mgrwt>
<rscale>  2 0.21615887E+03</rscale>
<asrwt>0</asrwt>
<pdfrwt beam="1">  1        1 0.19805039E+00 0.21615887E+03</pdfrwt>
<pdfrwt beam="2">  1       -1 0.18932217E-01 0.21615887E+03</pdfrwt>
<totfact> 0.22371769E+02</totfact>
</mgrwt>
</event>
<event>
 4    1  0.3889096E-001  0.1779251E+03  0.7546771E-02  0.1169826E+00
          2   -1    0    0  502    0  0.00000000000E+00  0.00000000000E+00  0.57146549275E+03  0.57146549275E+03  0.00000000000E+00 0. -1.
         -2   -1    0    0    0  501 -0.00000000000E+00 -0.00000000000E+00 -0.56140327524E+02  0.56140327524E+02  0.00000000000E+00 0.  1.
          6    1    1    2  502    0 -0.18540667309E+02 -0.41588158051E+02  0.22154800656E+03  0.28414934532E+03  0.17200000000E+03 0.  1.
         -6    1    1    2    0  501  0.18540667309E+02  0.41588158051E+02  0.29377715866E+03  0.34345647495E+03  0.17200000000E+03 0. -1.
<mgrwt>
<rscale>  2 0.17792507E+03</rscale>
<asrwt>0</asrwt>
<pdfrwt beam="1">  1        2 0.14286636E+00 0.17792507E+03</pdfrwt>
<pdfrwt beam="2">  1       -2 0.14035084E-01 0.17792507E+03</pdfrwt>
<totfact> 0.11160095E+03</totfact>
</mgrwt>
</event>
<event>
 4    1  0.3889096E-001  0.2053076E+03  0.7546771E-02  0.1145337E+00
          2   -1    0    0  502    0  0.00000000000E+00  0.00000000000E+00  0.33444930481E+03  0.33444930481E+03  0.00000000000E+00 0.  1.
         -2   -1    0    0    0  501 -0.00000000000E+00 -0.00000000000E+00 -0.13681713464E+03  0.13681713464E+03  0.00000000000E+00 0. -1.
          6    1    1    2  502    0 -0.10635886511E+03  0.35426248219E+02  0.32657786608E+02  0.20788881229E+03  0.17200000000E+03 0. -1.
         -6    1    1    2    0  501  0.10635886511E+03 -0.35426248219E+02  0.16497438356E+03  0.26337762715E+03  0.17200000000E+03 0.  1.
<mgrwt>
<rscale>  2 0.20530764E+03</rscale>
<asrwt>0</asrwt>
<pdfrwt beam="1">  1        2 0.83612325E-01 0.20530764E+03</pdfrwt>
<pdfrwt beam="2">  1       -2 0.34204284E-01 0.20530764E+03</pdfrwt>
<totfact> 0.45797534E+02</totfact>
</mgrwt>
</event>
<event>
 4    1  0.3889096E-001  0.1741252E+03  0.7546771E-02  0.1173613E+00
          2   -1    0    0  502    0  0.00000000000E+00  0.00000000000E+00  0.99565463481E+03  0.99565463481E+03  0.00000000000E+00 0.  1.
         -2   -1    0    0    0  501 -0.00000000000E+00 -0.00000000000E+00 -0.30510784187E+02  0.30510784187E+02  0.00000000000E+00 0. -1.
          6    1    1    2  502    0 -0.24439238046E+02 -0.11760505872E+02  0.46003362229E+03  0.49188466076E+03  0.17200000000E+03 0. -1.
         -6    1    1    2    0  501  0.24439238046E+02  0.11760505872E+02  0.50511022834E+03  0.53428075824E+03  0.17200000000E+03 0.  1.
<mgrwt>
<rscale>  2 0.17412520E+03</rscale>
<asrwt>0</asrwt>
<pdfrwt beam="1">  1        2 0.24891355E+00 0.17412520E+03</pdfrwt>
<pdfrwt beam="2">  1       -2 0.76276994E-02 0.17412520E+03</pdfrwt>
<totfact> 0.12138404E+03</totfact>
</mgrwt>
</event>
<event>
 4    1  0.3889096E-001  0.1835911E+03  0.7546771E-02  0.1164372E+00
          2   -1    0    0  502    0  0.00000000000E+00  0.00000000000E+00  0.59298864456E+03  0.59298864456E+03  0.00000000000E+00 0.  1.
         -2   -1    0    0    0  501 -0.00000000000E+00 -0.00000000000E+00 -0.88189586515E+02  0.88189586515E+02  0.00000000000E+00 0. -1.
          6    1    1    2  502    0 -0.18788969891E+01  0.64172901021E+02  0.45546472110E+03  0.49107413253E+03  0.17200000000E+03 0.  1.
         -6    1    1    2    0  501  0.18788969891E+01 -0.64172901021E+02  0.49334336946E+02  0.19010409854E+03  0.17200000000E+03 0. -1.
<mgrwt>
<rscale>  2 0.18359110E+03</rscale>
<asrwt>0</asrwt>
<pdfrwt beam="1">  1        2 0.14824715E+00 0.18359110E+03</pdfrwt>
<pdfrwt beam="2">  1       -2 0.22047398E-01 0.18359110E+03</pdfrwt>
<totfact> 0.49766022E+02</totfact>
</mgrwt>
</event>
<event>
 4    1  0.3889096E-001  0.2007812E+03  0.7546771E-02  0.1149082E+00
         -2   -1    0    0    0  501 -0.00000000000E+00  0.00000000000E+00  0.33814247372E+02  0.33814247372E+02  0.00000000000E+00 0. -1.
          2   -1    0    0  502    0  0.00000000000E+00 -0.00000000000E+00 -0.11993703453E+04  0.11993703453E+04  0.00000000000E+00 0.  1.
          6    1    1    2  502    0 -0.70525057183E+02  0.75863769244E+02 -0.53507833800E+03  0.57150846273E+03  0.17200000000E+03 0. -1.
         -6    1    1    2    0  501  0.70525057183E+02 -0.75863769244E+02 -0.63047775998E+03  0.66167612999E+03  0.17200000000E+03 0.  1.
<mgrwt>
<rscale>  2 0.20078121E+03</rscale>
<asrwt>0</asrwt>
<pdfrwt beam="1">  1        2 0.29984258E+00 0.20078121E+03</pdfrwt>
<pdfrwt beam="2">  1       -2 0.84535620E-02 0.20078121E+03</pdfrwt>
<totfact> 0.69387892E+02</totfact>
</mgrwt>
</event>
<event>
 4    1  0.3889096E-001  0.1770796E+03  0.7546771E-02  0.1170660E+00
         -1   -1    0    0    0  501 -0.00000000000E+00  0.00000000000E+00  0.73554055352E+03  0.73554055352E+03  0.00000000000E+00 0.  1.
          1   -1    0    0  502    0  0.00000000000E+00 -0.00000000000E+00 -0.10795840922E+03  0.10795840922E+03  0.00000000000E+00 0. -1.
          6    1    1    2  502    0  0.66749904860E+01 -0.41576654333E+02  0.64186557571E+03  0.66584426931E+03  0.17200000000E+03 0.  1.
         -6    1    1    2    0  501 -0.66749904860E+01  0.41576654333E+02 -0.14283431414E+02  0.17765469343E+03  0.17200000000E+03 0. -1.
<mgrwt>
<rscale>  2 0.17707957E+03</rscale>
<asrwt>0</asrwt>
<pdfrwt beam="1">  1        1 0.26989604E-01 0.17707957E+03</pdfrwt>
<pdfrwt beam="2">  1       -1 0.18388512E+00 0.17707957E+03</pdfrwt>
<totfact> 0.38539992E+01</totfact>
</mgrwt>
</event>
<event>
 4    1  0.3889096E-001  0.1955787E+03  0.7546771E-02  0.1153524E+00
          1   -1    0    0  502    0  0.00000000000E+00  0.00000000000E+00  0.11589764811E+03  0.11589764811E+03  0.00000000000E+00 0.  1.
         -1   -1    0    0    0  501 -0.00000000000E+00 -0.00000000000E+00 -0.33026208089E+03  0.33026208089E+03  0.00000000000E+00 0. -1.
          6    1    1    2  502    0 -0.92954303479E+02 -0.51500637894E+01 -0.11294831902E+03  0.22585027886E+03  0.17200000000E+03 0. -1.
         -6    1    1    2    0  501  0.92954303479E+02  0.51500637894E+01 -0.10141611376E+03  0.22030945014E+03  0.17200000000E+03 0. -1.
<mgrwt>
<rscale>  2 0.19557869E+03</rscale>
<asrwt>0</asrwt>
<pdfrwt beam="1">  1        1 0.28974412E-01 0.19557869E+03</pdfrwt>
<pdfrwt beam="2">  1       -1 0.82565520E-01 0.19557869E+03</pdfrwt>
<totfact> 0.24479870E+02</totfact>
</mgrwt>
</event>
<event>
 4    1  0.3889096E-001  0.2259311E+03  0.7546771E-02  0.1129537E+00
          1   -1    0    0  502    0  0.00000000000E+00  0.00000000000E+00  0.89457533342E+03  0.89457533342E+03  0.00000000000E+00 0. -1.
         -1   -1    0    0    0  501 -0.00000000000E+00 -0.00000000000E+00 -0.57122288182E+02  0.57122288182E+02  0.00000000000E+00 0.  1.
          6    1    1    2  502    0  0.12800638921E+03 -0.71240734571E+02  0.43438204724E+03  0.48962500029E+03  0.17200000000E+03 0. -1.
         -6    1    1    2    0  501 -0.12800638921E+03  0.71240734571E+02  0.40307099800E+03  0.46207262131E+03  0.17200000000E+03 0. -1.
<mgrwt>
<rscale>  2 0.22593114E+03</rscale>
<asrwt>0</asrwt>
<pdfrwt beam="1">  1        1 0.22364379E+00 0.22593114E+03</pdfrwt>
<pdfrwt beam="2">  1       -1 0.14280575E-01 0.22593114E+03</pdfrwt>
<totfact> 0.27079109E+02</totfact>
</mgrwt>
</event>
<event>
 4    1  0.3889096E-001  0.2310627E+03  0.7546771E-02  0.1125894E+00
         -3   -1    0    0    0  501 -0.00000000000E+00  0.00000000000E+00  0.31237150502E+03  0.31237150502E+03  0.00000000000E+00 0.  1.
          3   -1    0    0  502    0  0.00000000000E+00 -0.00000000000E+00 -0.21273573899E+03  0.21273573899E+03  0.00000000000E+00 0. -1.
          6    1    1    2  502    0  0.74549883612E+02 -0.13508620936E+03 -0.66588588484E+02  0.24046623302E+03  0.17200000000E+03 0. -1.
         -6    1    1    2    0  501 -0.74549883612E+02  0.13508620936E+03  0.16622435451E+03  0.28464101099E+03  0.17200000000E+03 0.  1.
<mgrwt>
<rscale>  2 0.23106270E+03</rscale>
<asrwt>0</asrwt>
<pdfrwt beam="1">  1        3 0.53183935E-01 0.23106270E+03</pdfrwt>
<pdfrwt beam="2">  1       -3 0.78092876E-01 0.23106270E+03</pdfrwt>
<totfact> 0.13638082E+01</totfact>
</mgrwt>
</event>
<event>
 4    1  0.3889096E-001  0.2406932E+03  0.7546771E-02  0.1119332E+00
         -2   -1    0    0    0  501 -0.00000000000E+00  0.00000000000E+00  0.12613538271E+03  0.12613538271E+03  0.00000000000E+00 0.  1.
          2   -1    0    0  502    0  0.00000000000E+00 -0.00000000000E+00 -0.46013353896E+03  0.46013353896E+03  0.00000000000E+00 0. -1.
          6    1    1    2  502    0 -0.14225309121E+03  0.90073794926E+02 -0.15447825133E+03  0.28600132976E+03  0.17200000000E+03 0.  1.
         -6    1    1    2    0  501  0.14225309121E+03 -0.90073794926E+02 -0.17951990492E+03  0.30026759191E+03  0.17200000000E+03 0.  1.
<mgrwt>
<rscale>  2 0.24069323E+03</rscale>
<asrwt>0</asrwt>
<pdfrwt beam="1">  1        2 0.11503338E+00 0.24069323E+03</pdfrwt>
<pdfrwt beam="2">  1       -2 0.31533846E-01 0.24069323E+03</pdfrwt>
<totfact> 0.36417078E+02</totfact>
</mgrwt>
</event>
<event>
 4    1  0.3889096E-001  0.2432370E+03  0.7546771E-02  0.1117655E+00
         -2   -1    0    0    0  501 -0.00000000000E+00  0.00000000000E+00  0.29931860400E+03  0.29931860400E+03  0.00000000000E+00 0.  1.
          2   -1    0    0  502    0  0.00000000000E+00 -0.00000000000E+00 -0.33833303930E+03  0.33833303930E+03  0.00000000000E+00 0. -1.
          6    1    1    2  502    0 -0.17179124567E+03 -0.82455649409E+01  0.18607334228E+03  0.30624746552E+03  0.17200000000E+03 0.  1.
         -6    1    1    2    0  501  0.17179124567E+03  0.82455649409E+01 -0.22508777758E+03  0.33140417778E+03  0.17200000000E+03 0. -1.
<mgrwt>
<rscale>  2 0.24323697E+03</rscale>
<asrwt>0</asrwt>
<pdfrwt beam="1">  1        2 0.84583259E-01 0.24323697E+03</pdfrwt>
<pdfrwt beam="2">  1       -2 0.74829651E-01 0.24323697E+03</pdfrwt>
<totfact> 0.93653091E+01</totfact>
</mgrwt>
</event>
<event>
 4    1  0.3889096E-001  0.1897553E+03  0.7546771E-02  0.1158682E+00
         -2   -1    0    0    0  501 -0.00000000000E+00  0.00000000000E+00  0.24764469885E+02  0.24764469885E+02  0.00000000000E+00 0. -1.
          2   -1    0    0  502    0  0.00000000000E+00 -0.00000000000E+00 -0.14856407770E+04  0.14856407770E+04  0.00000000000E+00 0.  1.
          6    1    1    2  502    0 -0.77756132955E+02  0.19417683120E+02 -0.84068398790E+03  0.86183329603E+03  0.17200000000E+03 0.  1.
         -6    1    1    2    0  501  0.77756132955E+02 -0.19417683120E+02 -0.62019231926E+03  0.64857195090E+03  0.17200000000E+03 0. -1.
<mgrwt>
<rscale>  2 0.18975527E+03</rscale>
<asrwt>0</asrwt>
<pdfrwt beam="1">  1        2 0.37141015E+00 0.18975527E+03</pdfrwt>
<pdfrwt beam="2">  1       -2 0.61911183E-02 0.18975527E+03</pdfrwt>
<totfact> 0.64137855E+02</totfact>
</mgrwt>
</event>
<event>
 4    1  0.3889096E-001  0.1934652E+03  0.7546771E-02  0.1155373E+00
         -1   -1    0    0    0  501 -0.00000000000E+00  0.00000000000E+00  0.46002238824E+02  0.46002238824E+02  0.00000000000E+00 0. -1.
          1   -1    0    0  502    0  0.00000000000E+00 -0.00000000000E+00 -0.92185731676E+03  0.92185731676E+03  0.00000000000E+00 0.  1.
          6    1    1    2  502    0 -0.80748971919E+02 -0.36392136660E+02 -0.60374096844E+03  0.63398102578E+03  0.17200000000E+03 0.  1.
         -6    1    1    2    0  501  0.80748971919E+02  0.36392136660E+02 -0.27211410949E+03  0.33387852980E+03  0.17200000000E+03 0. -1.
<mgrwt>
<rscale>  2 0.19346520E+03</rscale>
<asrwt>0</asrwt>
<pdfrwt beam="1">  1        1 0.23046432E+00 0.19346520E+03</pdfrwt>
<pdfrwt beam="2">  1       -1 0.11500560E-01 0.19346520E+03</pdfrwt>
<totfact> 0.35772445E+02</totfact>
</mgrwt>
</event>
<event>
 4    1  0.3889096E-001  0.2016180E+03  0.7546771E-02  0.1148381E+00
          2   -1    0    0  502    0  0.00000000000E+00  0.00000000000E+00  0.47888090432E+03  0.47888090432E+03  0.00000000000E+00 0. -1.
         -2   -1    0    0    0  501 -0.00000000000E+00 -0.00000000000E+00 -0.11365810932E+03  0.11365810932E+03  0.00000000000E+00 0.  1.
          6    1    1    2  502    0 -0.43175108030E+02 -0.95925609348E+02  0.33167788896E+03  0.38814950020E+03  0.17200000000E+03 0. -1.
         -6    1    1    2    0  501  0.43175108030E+02  0.95925609348E+02  0.33544906049E+02  0.20438951344E+03  0.17200000000E+03 0.  1.
<mgrwt>
<rscale>  2 0.20161799E+03</rscale>
<asrwt>0</asrwt>
<pdfrwt beam="1">  1        2 0.11972022E+00 0.20161799E+03</pdfrwt>
<pdfrwt beam="2">  1       -2 0.28414529E-01 0.20161799E+03</pdfrwt>
<totfact> 0.42012074E+02</totfact>
</mgrwt>
</event>
<event>
 4    1  0.3889096E-001  0.1822472E+03  0.7546771E-02  0.1165646E+00
          2   -1    0    0  502    0  0.00000000000E+00  0.00000000000E+00  0.42699582168E+03  0.42699582168E+03  0.00000000000E+00 0. -1.
         -2   -1    0    0    0  501 -0.00000000000E+00 -0.00000000000E+00 -0.79588200876E+02  0.79588200876E+02  0.00000000000E+00 0.  1.
          6    1    1    2  502    0 -0.59400489846E+02 -0.10080126285E+02  0.13558188047E+03  0.22714857132E+03  0.17200000000E+03 0.  1.
         -6    1    1    2    0  501  0.59400489846E+02  0.10080126285E+02  0.21182574033E+03  0.27943545124E+03  0.17200000000E+03 0.  1.
<mgrwt>
<rscale>  2 0.18224716E+03</rscale>
<asrwt>0</asrwt>
<pdfrwt beam="1">  1        2 0.10674895E+00 0.18224716E+03</pdfrwt>
<pdfrwt beam="2">  1       -2 0.19897051E-01 0.18224716E+03</pdfrwt>
<totfact> 0.90179085E+02</totfact>
</mgrwt>
</event>
<event>
 4    1  0.3889096E-001  0.2036070E+03  0.7546771E-02  0.1146731E+00
         -1   -1    0    0    0  501 -0.00000000000E+00  0.00000000000E+00  0.16916853510E+03  0.16916853510E+03  0.00000000000E+00 0.  1.
          1   -1    0    0  502    0  0.00000000000E+00 -0.00000000000E+00 -0.24617752579E+03  0.24617752579E+03  0.00000000000E+00 0. -1.
          6    1    1    2  502    0  0.96610351539E+02  0.50380954119E+02 -0.52520340665E+02  0.21027169744E+03  0.17200000000E+03 0.  1.
         -6    1    1    2    0  501 -0.96610351539E+02 -0.50380954119E+02 -0.24488650020E+02  0.20507436344E+03  0.17200000000E+03 0. -1.
<mgrwt>
<rscale>  2 0.20360698E+03</rscale>
<asrwt>0</asrwt>
<pdfrwt beam="1">  1        1 0.61544381E-01 0.20360698E+03</pdfrwt>
<pdfrwt beam="2">  1       -1 0.42292134E-01 0.20360698E+03</pdfrwt>
<totfact> 0.34253286E+02</totfact>
</mgrwt>
</event>
<event>
 4    1  0.3889096E-001  0.3161161E+03  0.7546771E-02  0.1077451E+00
         -2   -1    0    0    0  501 -0.00000000000E+00  0.00000000000E+00  0.20322889824E+03  0.20322889824E+03  0.00000000000E+00 0.  1.
          2   -1    0    0  502    0  0.00000000000E+00 -0.00000000000E+00 -0.72009323415E+03  0.72009323415E+03  0.00000000000E+00 0. -1.
          6    1    1    2  502    0  0.14398610832E+03  0.22274057510E+03  0.15613281122E+01  0.31611991542E+03  0.17200000000E+03 0.  1.
         -6    1    1    2    0  501 -0.14398610832E+03 -0.22274057510E+03 -0.51842566402E+03  0.60720221697E+03  0.17200000000E+03 0. -1.
<mgrwt>
<rscale>  2 0.31611606E+03</rscale>
<asrwt>0</asrwt>
<pdfrwt beam="1">  1        2 0.18002331E+00 0.31611606E+03</pdfrwt>
<pdfrwt beam="2">  1       -2 0.50807225E-01 0.31611606E+03</pdfrwt>
<totfact> 0.77635990E+01</totfact>
</mgrwt>
</event>
<event>
 4    1  0.3889096E-001  0.2135399E+03  0.7546771E-02  0.1138793E+00
          2   -1    0    0  502    0  0.00000000000E+00  0.00000000000E+00  0.84610398434E+03  0.84610398434E+03  0.00000000000E+00 0.  1.
         -2   -1    0    0    0  501 -0.00000000000E+00 -0.00000000000E+00 -0.54616015311E+02  0.54616015311E+02  0.00000000000E+00 0. -1.
          6    1    1    2  502    0  0.11865989995E+03  0.43989936146E+02  0.44755248432E+03  0.49588558414E+03  0.17200000000E+03 0. -1.
         -6    1    1    2    0  501 -0.11865989995E+03 -0.43989936146E+02  0.34393548471E+03  0.40483441551E+03  0.17200000000E+03 0. -1.
<mgrwt>
<rscale>  2 0.21353989E+03</rscale>
<asrwt>0</asrwt>
<pdfrwt beam="1">  1        2 0.21152595E+00 0.21353989E+03</pdfrwt>
<pdfrwt beam="2">  1       -2 0.13654007E-01 0.21353989E+03</pdfrwt>
<totfact> 0.64466899E+02</totfact>
</mgrwt>
</event>
<event>
 4    1  0.3889096E-001  0.2375569E+03  0.7546771E-02  0.1121431E+00
         -1   -1    0    0    0  501 -0.00000000000E+00  0.00000000000E+00  0.31853138253E+02  0.31853138253E+02  0.00000000000E+00 0. -1.
          1   -1    0    0  502    0  0.00000000000E+00 -0.00000000000E+00 -0.20278681655E+04  0.20278681655E+04  0.00000000000E+00 0.  1.
          6    1    1    2  502    0  0.13502226331E+03  0.92834754476E+02 -0.63195349128E+03  0.67512851989E+03  0.17200000000E+03 0. -1.
         -6    1    1    2    0  501 -0.13502226331E+03 -0.92834754476E+02 -0.13640615360E+04  0.13845927839E+04  0.17200000000E+03 0.  1.
<mgrwt>
<rscale>  2 0.23755695E+03</rscale>
<asrwt>0</asrwt>
<pdfrwt beam="1">  1        1 0.50696703E+00 0.23755695E+03</pdfrwt>
<pdfrwt beam="2">  1       -1 0.79632848E-02 0.23755695E+03</pdfrwt>
<totfact> 0.39196379E+01</totfact>
</mgrwt>
</event>
<event>
 4    1  0.3889096E-001  0.1811009E+03  0.7546771E-02  0.1166742E+00
          1   -1    0    0  502    0  0.00000000000E+00  0.00000000000E+00  0.43791288098E+03  0.43791288098E+03  0.00000000000E+00 0.  1.
         -1   -1    0    0    0  501 -0.00000000000E+00 -0.00000000000E+00 -0.74943521088E+02  0.74943521088E+02  0.00000000000E+00 0. -1.
          6    1    1    2  502    0 -0.38960239208E+02 -0.41177893145E+02  0.17496513530E+03  0.25181405380E+03  0.17200000000E+03 0.  1.
         -6    1    1    2    0  501  0.38960239208E+02  0.41177893145E+02  0.18800422460E+03  0.26104234827E+03  0.17200000000E+03 0. -1.
<mgrwt>
<rscale>  2 0.18110085E+03</rscale>
<asrwt>0</asrwt>
<pdfrwt beam="1">  1        1 0.10947821E+00 0.18110085E+03</pdfrwt>
<pdfrwt beam="2">  1       -1 0.18735882E-01 0.18110085E+03</pdfrwt>
<totfact> 0.62294997E+02</totfact>
</mgrwt>
</event>
<event>
 4    1  0.3889096E-001  0.1750459E+03  0.7546771E-02  0.1172686E+00
          2   -1    0    0  502    0  0.00000000000E+00  0.00000000000E+00  0.14386077447E+04  0.14386077447E+04  0.00000000000E+00 0. -1.
         -2   -1    0    0    0  501 -0.00000000000E+00 -0.00000000000E+00 -0.33267068382E+02  0.33267068382E+02  0.00000000000E+00 0.  1.
          6    1    1    2  502    0  0.27692287302E+02 -0.17035230140E+02  0.11440818777E+04  0.11573955265E+04  0.17200000000E+03 0. -1.
         -6    1    1    2    0  501 -0.27692287302E+02  0.17035230140E+02  0.26125879860E+03  0.31447928658E+03  0.17200000000E+03 0.  1.
<mgrwt>
<rscale>  2 0.17504588E+03</rscale>
<asrwt>0</asrwt>
<pdfrwt beam="1">  1        2 0.35965173E+00 0.17504588E+03</pdfrwt>
<pdfrwt beam="2">  1       -2 0.83167719E-02 0.17504588E+03</pdfrwt>
<totfact> 0.44842810E+02</totfact>
</mgrwt>
</event>
<event>
 4    1  0.3889096E-001  0.2385096E+03  0.7546771E-02  0.1120790E+00
          2   -1    0    0  502    0  0.00000000000E+00  0.00000000000E+00  0.32506664649E+03  0.32506664649E+03  0.00000000000E+00 0.  1.
         -2   -1    0    0    0  501 -0.00000000000E+00 -0.00000000000E+00 -0.17509968844E+03  0.17509968844E+03  0.00000000000E+00 0. -1.
          6    1    1    2  502    0  0.16001143054E+03  0.41221037329E+02  0.80935039796E+02  0.25186764875E+03  0.17200000000E+03 0. -1.
         -6    1    1    2    0  501 -0.16001143054E+03 -0.41221037329E+02  0.69031918256E+02  0.24829868618E+03  0.17200000000E+03 0.  1.
<mgrwt>
<rscale>  2 0.23850961E+03</rscale>
<asrwt>0</asrwt>
<pdfrwt beam="1">  1        2 0.81266661E-01 0.23850961E+03</pdfrwt>
<pdfrwt beam="2">  1       -2 0.43774923E-01 0.23850961E+03</pdfrwt>
<totfact> 0.29543073E+02</totfact>
</mgrwt>
</event>
<event>
 4    1  0.3889096E-001  0.3503915E+03  0.7546771E-02  0.1062454E+00
         -1   -1    0    0    0  501 -0.00000000000E+00  0.00000000000E+00  0.38536335377E+03  0.38536335377E+03  0.00000000000E+00 0.  1.
          1   -1    0    0  502    0  0.00000000000E+00 -0.00000000000E+00 -0.34728090036E+03  0.34728090036E+03  0.00000000000E+00 0. -1.
          6    1    1    2  502    0  0.10031580477E+03  0.28831747809E+03 -0.86244355957E+02  0.36084943923E+03  0.17200000000E+03 0. -1.
         -6    1    1    2    0  501 -0.10031580477E+03 -0.28831747809E+03  0.12432680937E+03  0.37179481490E+03  0.17200000000E+03 0.  1.
<mgrwt>
<rscale>  2 0.35039154E+03</rscale>
<asrwt>0</asrwt>
<pdfrwt beam="1">  1        1 0.86820225E-01 0.35039154E+03</pdfrwt>
<pdfrwt beam="2">  1       -1 0.96340838E-01 0.35039154E+03</pdfrwt>
<totfact> 0.41824639E+01</totfact>
</mgrwt>
</event>
<event>
 4    1  0.3889096E-001  0.1756220E+03  0.7546771E-02  0.1172109E+00
         -1   -1    0    0    0  501 -0.00000000000E+00  0.00000000000E+00  0.25332251874E+03  0.25332251874E+03  0.00000000000E+00 0.  1.
          1   -1    0    0  502    0  0.00000000000E+00 -0.00000000000E+00 -0.13191006308E+03  0.13191006308E+03  0.00000000000E+00 0. -1.
          6    1    1    2  502    0 -0.33369830591E+02 -0.12063709849E+02  0.72605447154E+01  0.17577199492E+03  0.17200000000E+03 0. -1.
         -6    1    1    2    0  501  0.33369830591E+02  0.12063709849E+02  0.11415191095E+03  0.20946058689E+03  0.17200000000E+03 0.  1.
<mgrwt>
<rscale>  2 0.17562198E+03</rscale>
<asrwt>0</asrwt>
<pdfrwt beam="1">  1        1 0.32977516E-01 0.17562198E+03</pdfrwt>
<pdfrwt beam="2">  1       -1 0.63330629E-01 0.17562198E+03</pdfrwt>
<totfact> 0.35488430E+02</totfact>
</mgrwt>
</event>
