<event>
 3    1  0.1595726E-001  0.1250000E+03  0.7546771E-02  0.1235069E+00
         21   -1    0    0  502  501  0.00000000000E+00  0.00000000000E+00  0.20609961528E+02  0.20609961528E+02  0.00000000000E+00 0.  1.
         21   -1    0    0  501  502 -0.00000000000E+00 -0.00000000000E+00 -0.18953213448E+03  0.18953213448E+03  0.00000000000E+00 0.  1.
         25    1    1    2    0    0  0.00000000000E+00  0.00000000000E+00 -0.16892217295E+03  0.21014209601E+03  0.12500000000E+03 0.  0.
<mgrwt>
<rscale>  0 0.12500000E+03</rscale>
<asrwt>0</asrwt>
<pdfrwt beam="1">  1       21 0.31707632E-02 0.12500000E+03</pdfrwt>
<pdfrwt beam="2">  1       21 0.29158791E-01 0.12500000E+03</pdfrwt>
<totfact> 0.63844588E+06</totfact>
</mgrwt>
</event>
<event>
 3    1  0.1595726E-001  0.1250000E+03  0.7546771E-02  0.1235069E+00
         21   -1    0    0  502  501  0.00000000000E+00  0.00000000000E+00  0.14923958835E+03  0.14923958835E+03  0.00000000000E+00 0. -1.
         21   -1    0    0  501  502 -0.00000000000E+00 -0.00000000000E+00 -0.26174355230E+02  0.26174355230E+02  0.00000000000E+00 0. -1.
         25    1    1    2    0    0  0.00000000000E+00  0.00000000000E+00  0.12306523312E+03  0.17541394358E+03  0.12500000000E+03 0.  0.
<mgrwt>
<rscale>  0 0.12500000E+03</rscale>
<asrwt>0</asrwt>
<pdfrwt beam="1">  1       21 0.22959936E-01 0.12500000E+03</pdfrwt>
<pdfrwt beam="2">  1       21 0.40268240E-02 0.12500000E+03</pdfrwt>
<totfact> 0.67681569E+06</totfact>
</mgrwt>
</event>
<event>
 3    1  0.1595726E-001  0.1250000E+03  0.7546771E-02  0.1235069E+00
         21   -1    0    0  502  501  0.00000000000E+00  0.00000000000E+00  0.21352145353E+02  0.21352145353E+02  0.00000000000E+00 0. -1.
         21   -1    0    0  501  502 -0.00000000000E+00 -0.00000000000E+00 -0.18294414615E+03  0.18294414615E+03  0.00000000000E+00 0. -1.
         25    1    1    2    0    0  0.00000000000E+00  0.00000000000E+00 -0.16159200079E+03  0.20429629150E+03  0.12500000000E+03 0.  0.
<mgrwt>
<rscale>  0 0.12500000E+03</rscale>
<asrwt>0</asrwt>
<pdfrwt beam="1">  1       21 0.32849455E-02 0.12500000E+03</pdfrwt>
<pdfrwt beam="2">  1       21 0.28145253E-01 0.12500000E+03</pdfrwt>
<totfact> 0.64464672E+06</totfact>
</mgrwt>
</event>
<event>
 3    1  0.1595726E-001  0.1250000E+03  0.7546771E-02  0.1235069E+00
         21   -1    0    0  502  501  0.00000000000E+00  0.00000000000E+00  0.25445636099E+02  0.25445636099E+02  0.00000000000E+00 0. -1.
         21   -1    0    0  501  502 -0.00000000000E+00 -0.00000000000E+00 -0.15351355277E+03  0.15351355277E+03  0.00000000000E+00 0. -1.
         25    1    1    2    0    0  0.00000000000E+00  0.00000000000E+00 -0.12806791667E+03  0.17895918887E+03  0.12500000000E+03 0.  0.
<mgrwt>
<rscale>  0 0.12500000E+03</rscale>
<asrwt>0</asrwt>
<pdfrwt beam="1">  1       21 0.39147133E-02 0.12500000E+03</pdfrwt>
<pdfrwt beam="2">  1       21 0.23617469E-01 0.12500000E+03</pdfrwt>
<totfact> 0.67271136E+06</totfact>
</mgrwt>
</event>
<event>
 3    1  0.1595726E-001  0.1250000E+03  0.7546771E-02  0.1235069E+00
         21   -1    0    0  502  501  0.00000000000E+00  0.00000000000E+00  0.89483788912E+02  0.89483788912E+02  0.00000000000E+00 0. -1.
         21   -1    0    0  501  502 -0.00000000000E+00 -0.00000000000E+00 -0.43653158270E+02  0.43653158270E+02  0.00000000000E+00 0. -1.
         25    1    1    2    0    0  0.00000000000E+00  0.00000000000E+00  0.45830630642E+02  0.13313694718E+03  0.12500000000E+03 0.  0.
<mgrwt>
<rscale>  0 0.12500000E+03</rscale>
<asrwt>0</asrwt>
<pdfrwt beam="1">  1       21 0.13766737E-01 0.12500000E+03</pdfrwt>
<pdfrwt beam="2">  1       21 0.67158705E-02 0.12500000E+03</pdfrwt>
<totfact> 0.72944117E+06</totfact>
</mgrwt>
</event>
<event>
 3    1  0.1595726E-001  0.1250000E+03  0.7546771E-02  0.1235069E+00
         21   -1    0    0  502  501  0.00000000000E+00  0.00000000000E+00  0.85713999193E+02  0.85713999193E+02  0.00000000000E+00 0. -1.
         21   -1    0    0  501  502 -0.00000000000E+00 -0.00000000000E+00 -0.45573069006E+02  0.45573069006E+02  0.00000000000E+00 0. -1.
         25    1    1    2    0    0  0.00000000000E+00  0.00000000000E+00  0.40140930187E+02  0.13128706820E+03  0.12500000000E+03 0.  0.
<mgrwt>
<rscale>  0 0.12500000E+03</rscale>
<asrwt>0</asrwt>
<pdfrwt beam="1">  1       21 0.13186769E-01 0.12500000E+03</pdfrwt>
<pdfrwt beam="2">  1       21 0.70112414E-02 0.12500000E+03</pdfrwt>
<totfact> 0.73192013E+06</totfact>
</mgrwt>
</event>
<event>
 3    1  0.1595726E-001  0.1250000E+03  0.7546771E-02  0.1235069E+00
         21   -1    0    0  502  501  0.00000000000E+00  0.00000000000E+00  0.24033414617E+03  0.24033414617E+03  0.00000000000E+00 0. -1.
         21   -1    0    0  501  502 -0.00000000000E+00 -0.00000000000E+00 -0.16253412435E+02  0.16253412435E+02  0.00000000000E+00 0. -1.
         25    1    1    2    0    0  0.00000000000E+00  0.00000000000E+00  0.22408073374E+03  0.25658755861E+03  0.12500000000E+03 0.  0.
<mgrwt>
<rscale>  0 0.12500000E+03</rscale>
<asrwt>0</asrwt>
<pdfrwt beam="1">  1       21 0.36974481E-01 0.12500000E+03</pdfrwt>
<pdfrwt beam="2">  1       21 0.25005252E-02 0.12500000E+03</pdfrwt>
<totfact> 0.59263466E+06</totfact>
</mgrwt>
</event>
<event>
 3    1  0.1595726E-001  0.1250000E+03  0.7546771E-02  0.1235069E+00
         21   -1    0    0  502  501  0.00000000000E+00  0.00000000000E+00  0.36529763530E+02  0.36529763530E+02  0.00000000000E+00 0. -1.
         21   -1    0    0  501  502 -0.00000000000E+00 -0.00000000000E+00 -0.10693335030E+03  0.10693335030E+03  0.00000000000E+00 0. -1.
         25    1    1    2    0    0  0.00000000000E+00  0.00000000000E+00 -0.70403586771E+02  0.14346311383E+03  0.12500000000E+03 0.  0.
<mgrwt>
<rscale>  0 0.12500000E+03</rscale>
<asrwt>0</asrwt>
<pdfrwt beam="1">  1       21 0.56199637E-02 0.12500000E+03</pdfrwt>
<pdfrwt beam="2">  1       21 0.16451285E-01 0.12500000E+03</pdfrwt>
<totfact> 0.71590368E+06</totfact>
</mgrwt>
</event>
<event>
 3    1  0.1595726E-001  0.1250000E+03  0.7546771E-02  0.1235069E+00
         21   -1    0    0  502  501  0.00000000000E+00  0.00000000000E+00  0.76667492250E+02  0.76667492250E+02  0.00000000000E+00 0. -1.
         21   -1    0    0  501  502 -0.00000000000E+00 -0.00000000000E+00 -0.50950538297E+02  0.50950538297E+02  0.00000000000E+00 0. -1.
         25    1    1    2    0    0  0.00000000000E+00  0.00000000000E+00  0.25716953954E+02  0.12761803055E+03  0.12500000000E+03 0.  0.
<mgrwt>
<rscale>  0 0.12500000E+03</rscale>
<asrwt>0</asrwt>
<pdfrwt beam="1">  1       21 0.11794999E-01 0.12500000E+03</pdfrwt>
<pdfrwt beam="2">  1       21 0.78385444E-02 0.12500000E+03</pdfrwt>
<totfact> 0.73685225E+06</totfact>
</mgrwt>
</event>
<event>
 3    1  0.1595726E-001  0.1250000E+03  0.7546771E-02  0.1235069E+00
         21   -1    0    0  502  501  0.00000000000E+00  0.00000000000E+00  0.42855584121E+02  0.42855584121E+02  0.00000000000E+00 0.  1.
         21   -1    0    0  501  502 -0.00000000000E+00 -0.00000000000E+00 -0.91149148475E+02  0.91149148475E+02  0.00000000000E+00 0.  1.
         25    1    1    2    0    0  0.00000000000E+00  0.00000000000E+00 -0.48293564355E+02  0.13400473260E+03  0.12500000000E+03 0.  0.
<mgrwt>
<rscale>  0 0.12500000E+03</rscale>
<asrwt>0</asrwt>
<pdfrwt beam="1">  1       21 0.65931669E-02 0.12500000E+03</pdfrwt>
<pdfrwt beam="2">  1       21 0.14022946E-01 0.12500000E+03</pdfrwt>
<totfact> 0.72828524E+06</totfact>
</mgrwt>
</event>
<event>
 3    1  0.1595726E-001  0.1250000E+03  0.7546771E-02  0.1235069E+00
         21   -1    0    0  502  501  0.00000000000E+00  0.00000000000E+00  0.10293347589E+02  0.10293347589E+02  0.00000000000E+00 0. -1.
         21   -1    0    0  501  502 -0.00000000000E+00 -0.00000000000E+00 -0.37949267389E+03  0.37949267389E+03  0.00000000000E+00 0. -1.
         25    1    1    2    0    0  0.00000000000E+00  0.00000000000E+00 -0.36919932630E+03  0.38978602148E+03  0.12500000000E+03 0.  0.
<mgrwt>
<rscale>  0 0.12500000E+03</rscale>
<asrwt>0</asrwt>
<pdfrwt beam="1">  1       21 0.15835916E-02 0.12500000E+03</pdfrwt>
<pdfrwt beam="2">  1       21 0.58383500E-01 0.12500000E+03</pdfrwt>
<totfact> 0.48726289E+06</totfact>
</mgrwt>
</event>
<event>
 3    1  0.1595726E-001  0.1250000E+03  0.7546771E-02  0.1235069E+00
         21   -1    0    0  502  501  0.00000000000E+00  0.00000000000E+00  0.14067698294E+02  0.14067698294E+02  0.00000000000E+00 0. -1.
         21   -1    0    0  501  502 -0.00000000000E+00 -0.00000000000E+00 -0.27767513338E+03  0.27767513338E+03  0.00000000000E+00 0. -1.
         25    1    1    2    0    0  0.00000000000E+00  0.00000000000E+00 -0.26360743509E+03  0.29174283167E+03  0.12500000000E+03 0.  0.
<mgrwt>
<rscale>  0 0.12500000E+03</rscale>
<asrwt>0</asrwt>
<pdfrwt beam="1">  1       21 0.21642614E-02 0.12500000E+03</pdfrwt>
<pdfrwt beam="2">  1       21 0.42719249E-01 0.12500000E+03</pdfrwt>
<totfact> 0.56149435E+06</totfact>
</mgrwt>
</event>
<event>
 3    1  0.1595726E-001  0.1250000E+03  0.7546771E-02  0.1235069E+00
         21   -1    0    0  502  501  0.00000000000E+00  0.00000000000E+00  0.45393816912E+02  0.45393816912E+02  0.00000000000E+00 0. -1.
         21   -1    0    0  501  502 -0.00000000000E+00 -0.00000000000E+00 -0.86052468502E+02  0.86052468502E+02  0.00000000000E+00 0. -1.
         25    1    1    2    0    0  0.00000000000E+00  0.00000000000E+00 -0.40658651590E+02  0.13144628541E+03  0.12500000000E+03 0.  0.
<mgrwt>
<rscale>  0 0.12500000E+03</rscale>
<asrwt>0</asrwt>
<pdfrwt beam="1">  1       21 0.69836642E-02 0.12500000E+03</pdfrwt>
<pdfrwt beam="2">  1       21 0.13238841E-01 0.12500000E+03</pdfrwt>
<totfact> 0.73170594E+06</totfact>
</mgrwt>
</event>
<event>
 3    1  0.1595726E-001  0.1250000E+03  0.7546771E-02  0.1235069E+00
         21   -1    0    0  502  501  0.00000000000E+00  0.00000000000E+00  0.41243082844E+01  0.41243082844E+01  0.00000000000E+00 0. -1.
         21   -1    0    0  501  502 -0.00000000000E+00 -0.00000000000E+00 -0.94712851964E+03  0.94712851964E+03  0.00000000000E+00 0. -1.
         25    1    1    2    0    0  0.00000000000E+00  0.00000000000E+00 -0.94300421136E+03  0.95125282793E+03  0.12500000000E+03 0.  0.
<mgrwt>
<rscale>  0 0.12500000E+03</rscale>
<asrwt>0</asrwt>
<pdfrwt beam="1">  1       21 0.63450937E-03 0.12500000E+03</pdfrwt>
<pdfrwt beam="2">  1       21 0.14571199E+00 0.12500000E+03</pdfrwt>
<totfact> 0.24877906E+06</totfact>
</mgrwt>
</event>
<event>
 3    1  0.1595726E-001  0.1250000E+03  0.7546771E-02  0.1235069E+00
         21   -1    0    0  502  501  0.00000000000E+00  0.00000000000E+00  0.85842014708E+03  0.85842014708E+03  0.00000000000E+00 0.  1.
         21   -1    0    0  501  502 -0.00000000000E+00 -0.00000000000E+00 -0.45505106250E+01  0.45505106250E+01  0.00000000000E+00 0.  1.
         25    1    1    2    0    0  0.00000000000E+00  0.00000000000E+00  0.85386963645E+03  0.86297065770E+03  0.12500000000E+03 0.  0.
<mgrwt>
<rscale>  0 0.12500000E+03</rscale>
<asrwt>0</asrwt>
<pdfrwt beam="1">  1       21 0.13206451E+00 0.12500000E+03</pdfrwt>
<pdfrwt beam="2">  1       21 0.70007924E-03 0.12500000E+03</pdfrwt>
<totfact> 0.27379564E+06</totfact>
</mgrwt>
</event>
<event>
 3    1  0.1595726E-001  0.1250000E+03  0.7546771E-02  0.1235069E+00
         21   -1    0    0  502  501  0.00000000000E+00  0.00000000000E+00  0.71457958482E+03  0.71457958482E+03  0.00000000000E+00 0. -1.
         21   -1    0    0  501  502 -0.00000000000E+00 -0.00000000000E+00 -0.54665009790E+01  0.54665009790E+01  0.00000000000E+00 0. -1.
         25    1    1    2    0    0  0.00000000000E+00  0.00000000000E+00  0.70911308384E+03  0.72004608580E+03  0.12500000000E+03 0.  0.
<mgrwt>
<rscale>  0 0.12500000E+03</rscale>
<asrwt>0</asrwt>
<pdfrwt beam="1">  1       21 0.10993525E+00 0.12500000E+03</pdfrwt>
<pdfrwt beam="2">  1       21 0.84100072E-03 0.12500000E+03</pdfrwt>
<totfact> 0.32151501E+06</totfact>
</mgrwt>
</event>
<event>
 3    1  0.1595726E-001  0.1250000E+03  0.7546771E-02  0.1235069E+00
         21   -1    0    0  502  501  0.00000000000E+00  0.00000000000E+00  0.51478804537E+02  0.51478804537E+02  0.00000000000E+00 0.  1.
         21   -1    0    0  501  502 -0.00000000000E+00 -0.00000000000E+00 -0.75880744224E+02  0.75880744224E+02  0.00000000000E+00 0.  1.
         25    1    1    2    0    0  0.00000000000E+00  0.00000000000E+00 -0.24401939687E+02  0.12735954876E+03  0.12500000000E+03 0.  0.
<mgrwt>
<rscale>  0 0.12500000E+03</rscale>
<asrwt>0</asrwt>
<pdfrwt beam="1">  1       21 0.79198161E-02 0.12500000E+03</pdfrwt>
<pdfrwt beam="2">  1       21 0.11673961E-01 0.12500000E+03</pdfrwt>
<totfact> 0.73720268E+06</totfact>
</mgrwt>
</event>
<event>
 3    1  0.1595726E-001  0.1250000E+03  0.7546771E-02  0.1235069E+00
         21   -1    0    0  502  501  0.00000000000E+00  0.00000000000E+00  0.57855856976E+03  0.57855856976E+03  0.00000000000E+00 0. -1.
         21   -1    0    0  501  502 -0.00000000000E+00 -0.00000000000E+00 -0.67516932669E+01  0.67516932669E+01  0.00000000000E+00 0. -1.
         25    1    1    2    0    0  0.00000000000E+00  0.00000000000E+00  0.57180687650E+03  0.58531026303E+03  0.12500000000E+03 0.  0.
<mgrwt>
<rscale>  0 0.12500000E+03</rscale>
<asrwt>0</asrwt>
<pdfrwt beam="1">  1       21 0.89008971E-01 0.12500000E+03</pdfrwt>
<pdfrwt beam="2">  1       21 0.10387225E-02 0.12500000E+03</pdfrwt>
<totfact> 0.37765506E+06</totfact>
</mgrwt>
</event>
<event>
 3    1  0.1595726E-001  0.1250000E+03  0.7546771E-02  0.1235069E+00
         21   -1    0    0  502  501  0.00000000000E+00  0.00000000000E+00  0.77471041050E+01  0.77471041050E+01  0.00000000000E+00 0.  1.
         21   -1    0    0  501  502 -0.00000000000E+00 -0.00000000000E+00 -0.50422066711E+03  0.50422066711E+03  0.00000000000E+00 0.  1.
         25    1    1    2    0    0  0.00000000000E+00  0.00000000000E+00 -0.49647356300E+03  0.51196777121E+03  0.12500000000E+03 0.  0.
<mgrwt>
<rscale>  0 0.12500000E+03</rscale>
<asrwt>0</asrwt>
<pdfrwt beam="1">  1       21 0.11918617E-02 0.12500000E+03</pdfrwt>
<pdfrwt beam="2">  1       21 0.77572439E-01 0.12500000E+03</pdfrwt>
<totfact> 0.41402371E+06</totfact>
</mgrwt>
</event>
<event>
 3    1  0.1595726E-001  0.1250000E+03  0.7546771E-02  0.1235069E+00
         21   -1    0    0  502  501  0.00000000000E+00  0.00000000000E+00  0.35585282764E+02  0.35585282764E+02  0.00000000000E+00 0. -1.
         21   -1    0    0  501  502 -0.00000000000E+00 -0.00000000000E+00 -0.10977150374E+03  0.10977150374E+03  0.00000000000E+00 0. -1.
         25    1    1    2    0    0  0.00000000000E+00  0.00000000000E+00 -0.74186220973E+02  0.14535678650E+03  0.12500000000E+03 0.  0.
<mgrwt>
<rscale>  0 0.12500000E+03</rscale>
<asrwt>0</asrwt>
<pdfrwt beam="1">  1       21 0.54746589E-02 0.12500000E+03</pdfrwt>
<pdfrwt beam="2">  1       21 0.16887923E-01 0.12500000E+03</pdfrwt>
<totfact> 0.71347470E+06</totfact>
</mgrwt>
</event>
<event>
 3    1  0.1595726E-001  0.1250000E+03  0.7546771E-02  0.1235069E+00
         21   -1    0    0  502  501  0.00000000000E+00  0.00000000000E+00  0.10901541547E+04  0.10901541547E+04  0.00000000000E+00 0. -1.
         21   -1    0    0  501  502 -0.00000000000E+00 -0.00000000000E+00 -0.35832088364E+01  0.35832088364E+01  0.00000000000E+00 0. -1.
         25    1    1    2    0    0  0.00000000000E+00  0.00000000000E+00  0.10865709458E+04  0.10937373635E+04  0.12500000000E+03 0.  0.
<mgrwt>
<rscale>  0 0.12500000E+03</rscale>
<asrwt>0</asrwt>
<pdfrwt beam="1">  1       21 0.16771576E+00 0.12500000E+03</pdfrwt>
<pdfrwt beam="2">  1       21 0.55126377E-03 0.12500000E+03</pdfrwt>
<totfact> 0.21391261E+06</totfact>
</mgrwt>
</event>
<event>
 3    1  0.1595726E-001  0.1250000E+03  0.7546771E-02  0.1235069E+00
         21   -1    0    0  502  501  0.00000000000E+00  0.00000000000E+00  0.94032699500E+02  0.94032699500E+02  0.00000000000E+00 0. -1.
         21   -1    0    0  501  502 -0.00000000000E+00 -0.00000000000E+00 -0.41541400181E+02  0.41541400181E+02  0.00000000000E+00 0. -1.
         25    1    1    2    0    0  0.00000000000E+00  0.00000000000E+00  0.52491299320E+02  0.13557409968E+03  0.12500000000E+03 0.  0.
<mgrwt>
<rscale>  0 0.12500000E+03</rscale>
<asrwt>0</asrwt>
<pdfrwt beam="1">  1       21 0.14466569E-01 0.12500000E+03</pdfrwt>
<pdfrwt beam="2">  1       21 0.63909847E-02 0.12500000E+03</pdfrwt>
<totfact> 0.72620547E+06</totfact>
</mgrwt>
</event>
<event>
 3    1  0.1595726E-001  0.1250000E+03  0.7546771E-02  0.1235069E+00
         21   -1    0    0  502  501  0.00000000000E+00  0.00000000000E+00  0.84538440079E+01  0.84538440079E+01  0.00000000000E+00 0. -1.
         21   -1    0    0  501  502 -0.00000000000E+00 -0.00000000000E+00 -0.46206790619E+03  0.46206790619E+03  0.00000000000E+00 0. -1.
         25    1    1    2    0    0  0.00000000000E+00  0.00000000000E+00 -0.45361406219E+03  0.47052175020E+03  0.12500000000E+03 0.  0.
<mgrwt>
<rscale>  0 0.12500000E+03</rscale>
<asrwt>0</asrwt>
<pdfrwt beam="1">  1       21 0.13005914E-02 0.12500000E+03</pdfrwt>
<pdfrwt beam="2">  1       21 0.71087367E-01 0.12500000E+03</pdfrwt>
<totfact> 0.43689225E+06</totfact>
</mgrwt>
</event>
<event>
 3    1  0.1595726E-001  0.1250000E+03  0.7546771E-02  0.1235069E+00
         21   -1    0    0  502  501  0.00000000000E+00  0.00000000000E+00  0.80845203503E+01  0.80845203503E+01  0.00000000000E+00 0.  1.
         21   -1    0    0  501  502 -0.00000000000E+00 -0.00000000000E+00 -0.48317646945E+03  0.48317646945E+03  0.00000000000E+00 0.  1.
         25    1    1    2    0    0  0.00000000000E+00  0.00000000000E+00 -0.47509194910E+03  0.49126098980E+03  0.12500000000E+03 0.  0.
<mgrwt>
<rscale>  0 0.12500000E+03</rscale>
<asrwt>0</asrwt>
<pdfrwt beam="1">  1       21 0.12437722E-02 0.12500000E+03</pdfrwt>
<pdfrwt beam="2">  1       21 0.74334851E-01 0.12500000E+03</pdfrwt>
<totfact> 0.42522003E+06</totfact>
</mgrwt>
</event>
<event>
 3    1  0.1595726E-001  0.1250000E+03  0.7546771E-02  0.1235069E+00
         21   -1    0    0  502  501  0.00000000000E+00  0.00000000000E+00  0.23420056714E+02  0.23420056714E+02  0.00000000000E+00 0.  1.
         21   -1    0    0  501  502 -0.00000000000E+00 -0.00000000000E+00 -0.16679080019E+03  0.16679080019E+03  0.00000000000E+00 0.  1.
         25    1    1    2    0    0  0.00000000000E+00  0.00000000000E+00 -0.14337074348E+03  0.19021085691E+03  0.12500000000E+03 0.  0.
<mgrwt>
<rscale>  0 0.12500000E+03</rscale>
<asrwt>0</asrwt>
<pdfrwt beam="1">  1       21 0.36030857E-02 0.12500000E+03</pdfrwt>
<pdfrwt beam="2">  1       21 0.25660123E-01 0.12500000E+03</pdfrwt>
<totfact> 0.65999037E+06</totfact>
</mgrwt>
</event>
<event>
 3    1  0.1595726E-001  0.1250000E+03  0.7546771E-02  0.1235069E+00
         21   -1    0    0  502  501  0.00000000000E+00  0.00000000000E+00  0.23872737145E+01  0.23872737145E+01  0.00000000000E+00 0. -1.
         21   -1    0    0  501  502 -0.00000000000E+00 -0.00000000000E+00 -0.16362807399E+04  0.16362807399E+04  0.00000000000E+00 0. -1.
         25    1    1    2    0    0  0.00000000000E+00  0.00000000000E+00 -0.16338934662E+04  0.16386680136E+04  0.12500000000E+03 0.  0.
<mgrwt>
<rscale>  0 0.12500000E+03</rscale>
<asrwt>0</asrwt>
<pdfrwt beam="1">  1       21 0.36727123E-03 0.12500000E+03</pdfrwt>
<pdfrwt beam="2">  1       21 0.25173663E+00 0.12500000E+03</pdfrwt>
<totfact> 0.12056262E+06</totfact>
</mgrwt>
</event>
<event>
 3    1  0.1595726E-001  0.1250000E+03  0.7546771E-02  0.1235069E+00
         21   -1    0    0  502  501  0.00000000000E+00  0.00000000000E+00  0.96012179260E+02  0.96012179260E+02  0.00000000000E+00 0.  1.
         21   -1    0    0  501  502 -0.00000000000E+00 -0.00000000000E+00 -0.40684942578E+02  0.40684942578E+02  0.00000000000E+00 0.  1.
         25    1    1    2    0    0  0.00000000000E+00  0.00000000000E+00  0.55327236682E+02  0.13669712184E+03  0.12500000000E+03 0.  0.
<mgrwt>
<rscale>  0 0.12500000E+03</rscale>
<asrwt>0</asrwt>
<pdfrwt beam="1">  1       21 0.14771105E-01 0.12500000E+03</pdfrwt>
<pdfrwt beam="2">  1       21 0.62592219E-02 0.12500000E+03</pdfrwt>
<totfact> 0.72472533E+06</totfact>
</mgrwt>
</event>
<event>
 3    1  0.1595726E-001  0.1250000E+03  0.7546771E-02  0.1235069E+00
         21   -1    0    0  502  501  0.00000000000E+00  0.00000000000E+00  0.15629680421E+03  0.15629680421E+03  0.00000000000E+00 0. -1.
         21   -1    0    0  501  502 -0.00000000000E+00 -0.00000000000E+00 -0.24992513569E+02  0.24992513569E+02  0.00000000000E+00 0. -1.
         25    1    1    2    0    0  0.00000000000E+00  0.00000000000E+00  0.13130429064E+03  0.18128931778E+03  0.12500000000E+03 0.  0.
<mgrwt>
<rscale>  0 0.12500000E+03</rscale>
<asrwt>0</asrwt>
<pdfrwt beam="1">  1       21 0.24045662E-01 0.12500000E+03</pdfrwt>
<pdfrwt beam="2">  1       21 0.38450022E-02 0.12500000E+03</pdfrwt>
<totfact> 0.67003937E+06</totfact>
</mgrwt>
</event>
<event>
 3    1  0.1595726E-001  0.1250000E+03  0.7546771E-02  0.1235069E+00
         21   -1    0    0  502  501  0.00000000000E+00  0.00000000000E+00  0.10475902155E+03  0.10475902155E+03  0.00000000000E+00 0. -1.
         21   -1    0    0  501  502 -0.00000000000E+00 -0.00000000000E+00 -0.37287958040E+02  0.37287958040E+02  0.00000000000E+00 0. -1.
         25    1    1    2    0    0  0.00000000000E+00  0.00000000000E+00  0.67471063515E+02  0.14204697959E+03  0.12500000000E+03 0.  0.
<mgrwt>
<rscale>  0 0.12500000E+03</rscale>
<asrwt>0</asrwt>
<pdfrwt beam="1">  1       21 0.16116772E-01 0.12500000E+03</pdfrwt>
<pdfrwt beam="2">  1       21 0.57366090E-02 0.12500000E+03</pdfrwt>
<totfact> 0.71773194E+06</totfact>
</mgrwt>
</event>
<event>
 3    1  0.1595726E-001  0.1250000E+03  0.7546771E-02  0.1235069E+00
         21   -1    0    0  502  501  0.00000000000E+00  0.00000000000E+00  0.85584167089E+03  0.85584167089E+03  0.00000000000E+00 0. -1.
         21   -1    0    0  501  502 -0.00000000000E+00 -0.00000000000E+00 -0.45642203843E+01  0.45642203843E+01  0.00000000000E+00 0. -1.
         25    1    1    2    0    0  0.00000000000E+00  0.00000000000E+00  0.85127745050E+03  0.86040589127E+03  0.12500000000E+03 0.  0.
<mgrwt>
<rscale>  0 0.12500000E+03</rscale>
<asrwt>0</asrwt>
<pdfrwt beam="1">  1       21 0.13166782E+00 0.12500000E+03</pdfrwt>
<pdfrwt beam="2">  1       21 0.70218843E-03 0.12500000E+03</pdfrwt>
<totfact> 0.27456474E+06</totfact>
</mgrwt>
</event>
<event>
 3    1  0.1595726E-001  0.1250000E+03  0.7546771E-02  0.1235069E+00
         21   -1    0    0  502  501  0.00000000000E+00  0.00000000000E+00  0.19303129043E+03  0.19303129043E+03  0.00000000000E+00 0.  1.
         21   -1    0    0  501  502 -0.00000000000E+00 -0.00000000000E+00 -0.20236356455E+02  0.20236356455E+02  0.00000000000E+00 0.  1.
         25    1    1    2    0    0  0.00000000000E+00  0.00000000000E+00  0.17279493397E+03  0.21326764688E+03  0.12500000000E+03 0.  0.
<mgrwt>
<rscale>  0 0.12500000E+03</rscale>
<asrwt>0</asrwt>
<pdfrwt beam="1">  1       21 0.29697120E-01 0.12500000E+03</pdfrwt>
<pdfrwt beam="2">  1       21 0.31132857E-02 0.12500000E+03</pdfrwt>
<totfact> 0.63517374E+06</totfact>
</mgrwt>
</event>
<event>
 3    1  0.1595726E-001  0.1250000E+03  0.7546771E-02  0.1235069E+00
         21   -1    0    0  502  501  0.00000000000E+00  0.00000000000E+00  0.13262763047E+01  0.13262763047E+01  0.00000000000E+00 0. -1.
         21   -1    0    0  501  502 -0.00000000000E+00 -0.00000000000E+00 -0.29452761737E+04  0.29452761737E+04  0.00000000000E+00 0. -1.
         25    1    1    2    0    0  0.00000000000E+00  0.00000000000E+00 -0.29439498974E+04  0.29466024500E+04  0.12500000000E+03 0.  0.
<mgrwt>
<rscale>  0 0.12500000E+03</rscale>
<asrwt>0</asrwt>
<pdfrwt beam="1">  1       21 0.20404101E-03 0.12500000E+03</pdfrwt>
<pdfrwt beam="2">  1       21 0.45312274E+00 0.12500000E+03</pdfrwt>
<totfact> 0.19147949E+05</totfact>
</mgrwt>
</event>
<event>
 3    1  0.1595726E-001  0.1250000E+03  0.7546771E-02  0.1235069E+00
         21   -1    0    0  502  501  0.00000000000E+00  0.00000000000E+00  0.68990903021E+03  0.68990903021E+03  0.00000000000E+00 0.  1.
         21   -1    0    0  501  502 -0.00000000000E+00 -0.00000000000E+00 -0.56619783608E+01  0.56619783608E+01  0.00000000000E+00 0.  1.
         25    1    1    2    0    0  0.00000000000E+00  0.00000000000E+00  0.68424705185E+03  0.69557100858E+03  0.12500000000E+03 0.  0.
<mgrwt>
<rscale>  0 0.12500000E+03</rscale>
<asrwt>0</asrwt>
<pdfrwt beam="1">  1       21 0.10613978E+00 0.12500000E+03</pdfrwt>
<pdfrwt beam="2">  1       21 0.87107414E-03 0.12500000E+03</pdfrwt>
<totfact> 0.33081609E+06</totfact>
</mgrwt>
</event>
<event>
 3    1  0.1595726E-001  0.1250000E+03  0.7546771E-02  0.1235069E+00
         21   -1    0    0  502  501  0.00000000000E+00  0.00000000000E+00  0.14799351487E+03  0.14799351487E+03  0.00000000000E+00 0.  1.
         21   -1    0    0  501  502 -0.00000000000E+00 -0.00000000000E+00 -0.26394737658E+02  0.26394737658E+02  0.00000000000E+00 0.  1.
         25    1    1    2    0    0  0.00000000000E+00  0.00000000000E+00  0.12159877721E+03  0.17438825253E+03  0.12500000000E+03 0.  0.
<mgrwt>
<rscale>  0 0.12500000E+03</rscale>
<asrwt>0</asrwt>
<pdfrwt beam="1">  1       21 0.22768233E-01 0.12500000E+03</pdfrwt>
<pdfrwt beam="2">  1       21 0.40607290E-02 0.12500000E+03</pdfrwt>
<totfact> 0.67801203E+06</totfact>
</mgrwt>
</event>
<event>
 3    1  0.1595726E-001  0.1250000E+03  0.7546771E-02  0.1235069E+00
         21   -1    0    0  502  501  0.00000000000E+00  0.00000000000E+00  0.16563969179E+03  0.16563969179E+03  0.00000000000E+00 0. -1.
         21   -1    0    0  501  502 -0.00000000000E+00 -0.00000000000E+00 -0.23582813743E+02  0.23582813743E+02  0.00000000000E+00 0. -1.
         25    1    1    2    0    0  0.00000000000E+00  0.00000000000E+00  0.14205687805E+03  0.18922250553E+03  0.12500000000E+03 0.  0.
<mgrwt>
<rscale>  0 0.12500000E+03</rscale>
<asrwt>0</asrwt>
<pdfrwt beam="1">  1       21 0.25483029E-01 0.12500000E+03</pdfrwt>
<pdfrwt beam="2">  1       21 0.36281253E-02 0.12500000E+03</pdfrwt>
<totfact> 0.66108980E+06</totfact>
</mgrwt>
</event>
<event>
 3    1  0.1595726E-001  0.1250000E+03  0.7546771E-02  0.1235069E+00
         21   -1    0    0  502  501  0.00000000000E+00  0.00000000000E+00  0.61201621528E+03  0.61201621528E+03  0.00000000000E+00 0.  1.
         21   -1    0    0  501  502 -0.00000000000E+00 -0.00000000000E+00 -0.63825923275E+01  0.63825923275E+01  0.00000000000E+00 0.  1.
         25    1    1    2    0    0  0.00000000000E+00  0.00000000000E+00  0.60563362296E+03  0.61839880761E+03  0.12500000000E+03 0.  0.
<mgrwt>
<rscale>  0 0.12500000E+03</rscale>
<asrwt>0</asrwt>
<pdfrwt beam="1">  1       21 0.94156295E-01 0.12500000E+03</pdfrwt>
<pdfrwt beam="2">  1       21 0.98193776E-03 0.12500000E+03</pdfrwt>
<totfact> 0.36273582E+06</totfact>
</mgrwt>
</event>
<event>
 3    1  0.1595726E-001  0.1250000E+03  0.7546771E-02  0.1235069E+00
         21   -1    0    0  502  501  0.00000000000E+00  0.00000000000E+00  0.15705259941E+03  0.15705259941E+03  0.00000000000E+00 0. -1.
         21   -1    0    0  501  502 -0.00000000000E+00 -0.00000000000E+00 -0.24872240349E+02  0.24872240349E+02  0.00000000000E+00 0. -1.
         25    1    1    2    0    0  0.00000000000E+00  0.00000000000E+00  0.13218035906E+03  0.18192483976E+03  0.12500000000E+03 0.  0.
<mgrwt>
<rscale>  0 0.12500000E+03</rscale>
<asrwt>0</asrwt>
<pdfrwt beam="1">  1       21 0.24161938E-01 0.12500000E+03</pdfrwt>
<pdfrwt beam="2">  1       21 0.38264986E-02 0.12500000E+03</pdfrwt>
<totfact> 0.66931409E+06</totfact>
</mgrwt>
</event>
<event>
 3    1  0.1595726E-001  0.1250000E+03  0.7546771E-02  0.1235069E+00
         21   -1    0    0  502  501  0.00000000000E+00  0.00000000000E+00  0.12180583126E+03  0.12180583126E+03  0.00000000000E+00 0.  1.
         21   -1    0    0  501  502 -0.00000000000E+00 -0.00000000000E+00 -0.32069482714E+02  0.32069482714E+02  0.00000000000E+00 0.  1.
         25    1    1    2    0    0  0.00000000000E+00  0.00000000000E+00  0.89736348543E+02  0.15387531397E+03  0.12500000000E+03 0.  0.
<mgrwt>
<rscale>  0 0.12500000E+03</rscale>
<asrwt>0</asrwt>
<pdfrwt beam="1">  1       21 0.18739358E-01 0.12500000E+03</pdfrwt>
<pdfrwt beam="2">  1       21 0.49337667E-02 0.12500000E+03</pdfrwt>
<totfact> 0.70275713E+06</totfact>
</mgrwt>
</event>
<event>
 3    1  0.1595726E-001  0.1250000E+03  0.7546771E-02  0.1235069E+00
         21   -1    0    0  502  501  0.00000000000E+00  0.00000000000E+00  0.45874976882E+02  0.45874976882E+02  0.00000000000E+00 0.  1.
         21   -1    0    0  501  502 -0.00000000000E+00 -0.00000000000E+00 -0.85149906670E+02  0.85149906670E+02  0.00000000000E+00 0.  1.
         25    1    1    2    0    0  0.00000000000E+00  0.00000000000E+00 -0.39274929788E+02  0.13102488355E+03  0.12500000000E+03 0.  0.
<mgrwt>
<rscale>  0 0.12500000E+03</rscale>
<asrwt>0</asrwt>
<pdfrwt beam="1">  1       21 0.70576888E-02 0.12500000E+03</pdfrwt>
<pdfrwt beam="2">  1       21 0.13099986E-01 0.12500000E+03</pdfrwt>
<totfact> 0.73227318E+06</totfact>
</mgrwt>
</event>
<event>
 3    1  0.1595726E-001  0.1250000E+03  0.7546771E-02  0.1235069E+00
         21   -1    0    0  502  501  0.00000000000E+00  0.00000000000E+00  0.57237886574E+03  0.57237886574E+03  0.00000000000E+00 0. -1.
         21   -1    0    0  501  502 -0.00000000000E+00 -0.00000000000E+00 -0.68245881074E+01  0.68245881074E+01  0.00000000000E+00 0. -1.
         25    1    1    2    0    0  0.00000000000E+00  0.00000000000E+00  0.56555427763E+03  0.57920345384E+03  0.12500000000E+03 0.  0.
<mgrwt>
<rscale>  0 0.12500000E+03</rscale>
<asrwt>0</asrwt>
<pdfrwt beam="1">  1       21 0.88058249E-01 0.12500000E+03</pdfrwt>
<pdfrwt beam="2">  1       21 0.10499371E-02 0.12500000E+03</pdfrwt>
<totfact> 0.38050351E+06</totfact>
</mgrwt>
</event>
<event>
 3    1  0.1595726E-001  0.1250000E+03  0.7546771E-02  0.1235069E+00
         21   -1    0    0  502  501  0.00000000000E+00  0.00000000000E+00  0.38773937492E+02  0.38773937492E+02  0.00000000000E+00 0.  1.
         21   -1    0    0  501  502 -0.00000000000E+00 -0.00000000000E+00 -0.10074421771E+03  0.10074421771E+03  0.00000000000E+00 0.  1.
         25    1    1    2    0    0  0.00000000000E+00  0.00000000000E+00 -0.61970280215E+02  0.13951815520E+03  0.12500000000E+03 0.  0.
<mgrwt>
<rscale>  0 0.12500000E+03</rscale>
<asrwt>0</asrwt>
<pdfrwt beam="1">  1       21 0.59652212E-02 0.12500000E+03</pdfrwt>
<pdfrwt beam="2">  1       21 0.15499110E-01 0.12500000E+03</pdfrwt>
<totfact> 0.72102274E+06</totfact>
</mgrwt>
</event>
<event>
 3    1  0.1595726E-001  0.1250000E+03  0.7546771E-02  0.1235069E+00
         21   -1    0    0  502  501  0.00000000000E+00  0.00000000000E+00  0.35518154266E+02  0.35518154266E+02  0.00000000000E+00 0. -1.
         21   -1    0    0  501  502 -0.00000000000E+00 -0.00000000000E+00 -0.10997896937E+03  0.10997896937E+03  0.00000000000E+00 0. -1.
         25    1    1    2    0    0  0.00000000000E+00  0.00000000000E+00 -0.74460815100E+02  0.14549712363E+03  0.12500000000E+03 0.  0.
<mgrwt>
<rscale>  0 0.12500000E+03</rscale>
<asrwt>0</asrwt>
<pdfrwt beam="1">  1       21 0.54643315E-02 0.12500000E+03</pdfrwt>
<pdfrwt beam="2">  1       21 0.16919841E-01 0.12500000E+03</pdfrwt>
<totfact> 0.71329540E+06</totfact>
</mgrwt>
</event>
<event>
 3    1  0.1595726E-001  0.1250000E+03  0.7546771E-02  0.1235069E+00
         21   -1    0    0  502  501  0.00000000000E+00  0.00000000000E+00  0.73950306467E+01  0.73950306467E+01  0.00000000000E+00 0.  1.
         21   -1    0    0  501  502 -0.00000000000E+00 -0.00000000000E+00 -0.52822634369E+03  0.52822634369E+03  0.00000000000E+00 0.  1.
         25    1    1    2    0    0  0.00000000000E+00  0.00000000000E+00 -0.52083131305E+03  0.53562137434E+03  0.12500000000E+03 0.  0.
<mgrwt>
<rscale>  0 0.12500000E+03</rscale>
<asrwt>0</asrwt>
<pdfrwt beam="1">  1       21 0.11376971E-02 0.12500000E+03</pdfrwt>
<pdfrwt beam="2">  1       21 0.81265584E-01 0.12500000E+03</pdfrwt>
<totfact> 0.40175871E+06</totfact>
</mgrwt>
</event>
<event>
 3    1  0.1595726E-001  0.1250000E+03  0.7546771E-02  0.1235069E+00
         21   -1    0    0  502  501  0.00000000000E+00  0.00000000000E+00  0.67493380414E+03  0.67493380414E+03  0.00000000000E+00 0. -1.
         21   -1    0    0  501  502 -0.00000000000E+00 -0.00000000000E+00 -0.57876046155E+01  0.57876046155E+01  0.00000000000E+00 0. -1.
         25    1    1    2    0    0  0.00000000000E+00  0.00000000000E+00  0.66914619953E+03  0.68072140876E+03  0.12500000000E+03 0.  0.
<mgrwt>
<rscale>  0 0.12500000E+03</rscale>
<asrwt>0</asrwt>
<pdfrwt beam="1">  1       21 0.10383591E+00 0.12500000E+03</pdfrwt>
<pdfrwt beam="2">  1       21 0.89040124E-03 0.12500000E+03</pdfrwt>
<totfact> 0.33666751E+06</totfact>
</mgrwt>
</event>
<event>
 3    1  0.1595726E-001  0.1250000E+03  0.7546771E-02  0.1235069E+00
         21   -1    0    0  502  501  0.00000000000E+00  0.00000000000E+00  0.33465251842E+02  0.33465251842E+02  0.00000000000E+00 0.  1.
         21   -1    0    0  501  502 -0.00000000000E+00 -0.00000000000E+00 -0.11672555218E+03  0.11672555218E+03  0.00000000000E+00 0.  1.
         25    1    1    2    0    0  0.00000000000E+00  0.00000000000E+00 -0.83260300336E+02  0.15019080402E+03  0.12500000000E+03 0.  0.
<mgrwt>
<rscale>  0 0.12500000E+03</rscale>
<asrwt>0</asrwt>
<pdfrwt beam="1">  1       21 0.51485003E-02 0.12500000E+03</pdfrwt>
<pdfrwt beam="2">  1       21 0.17957777E-01 0.12500000E+03</pdfrwt>
<totfact> 0.70735241E+06</totfact>
</mgrwt>
</event>
<event>
 3    1  0.1595726E-001  0.1250000E+03  0.7546771E-02  0.1235069E+00
         21   -1    0    0  502  501  0.00000000000E+00  0.00000000000E+00  0.21636438018E+03  0.21636438018E+03  0.00000000000E+00 0.  1.
         21   -1    0    0  501  502 -0.00000000000E+00 -0.00000000000E+00 -0.18054034572E+02  0.18054034572E+02  0.00000000000E+00 0.  1.
         25    1    1    2    0    0  0.00000000000E+00  0.00000000000E+00  0.19831034561E+03  0.23441841476E+03  0.12500000000E+03 0.  0.
<mgrwt>
<rscale>  0 0.12500000E+03</rscale>
<asrwt>0</asrwt>
<pdfrwt beam="1">  1       21 0.33286826E-01 0.12500000E+03</pdfrwt>
<pdfrwt beam="2">  1       21 0.27775439E-02 0.12500000E+03</pdfrwt>
<totfact> 0.61377000E+06</totfact>
</mgrwt>
</event>
<event>
 3    1  0.1595726E-001  0.1250000E+03  0.7546771E-02  0.1235069E+00
         21   -1    0    0  502  501  0.00000000000E+00  0.00000000000E+00  0.35277740263E+01  0.35277740263E+01  0.00000000000E+00 0. -1.
         21   -1    0    0  501  502 -0.00000000000E+00 -0.00000000000E+00 -0.11072846421E+04  0.11072846421E+04  0.00000000000E+00 0. -1.
         25    1    1    2    0    0  0.00000000000E+00  0.00000000000E+00 -0.11037568681E+04  0.11108124161E+04  0.12500000000E+03 0.  0.
<mgrwt>
<rscale>  0 0.12500000E+03</rscale>
<asrwt>0</asrwt>
<pdfrwt beam="1">  1       21 0.54273469E-03 0.12500000E+03</pdfrwt>
<pdfrwt beam="2">  1       21 0.17035141E+00 0.12500000E+03</pdfrwt>
<totfact> 0.21012545E+06</totfact>
</mgrwt>
</event>
<event>
 3    1  0.1595726E-001  0.1250000E+03  0.7546771E-02  0.1235069E+00
         21   -1    0    0  502  501  0.00000000000E+00  0.00000000000E+00  0.54779328266E+03  0.54779328266E+03  0.00000000000E+00 0.  1.
         21   -1    0    0  501  502 -0.00000000000E+00 -0.00000000000E+00 -0.71308833526E+01  0.71308833526E+01  0.00000000000E+00 0.  1.
         25    1    1    2    0    0  0.00000000000E+00  0.00000000000E+00  0.54066239931E+03  0.55492416601E+03  0.12500000000E+03 0.  0.
<mgrwt>
<rscale>  0 0.12500000E+03</rscale>
<asrwt>0</asrwt>
<pdfrwt beam="1">  1       21 0.84275857E-01 0.12500000E+03</pdfrwt>
<pdfrwt beam="2">  1       21 0.10970594E-02 0.12500000E+03</pdfrwt>
<totfact> 0.39213859E+06</totfact>
</mgrwt>
</event>
<event>
 3    1  0.1595726E-001  0.1250000E+03  0.7546771E-02  0.1235069E+00
         21   -1    0    0  502  501  0.00000000000E+00  0.00000000000E+00  0.28150101701E+02  0.28150101701E+02  0.00000000000E+00 0.  1.
         21   -1    0    0  501  502 -0.00000000000E+00 -0.00000000000E+00 -0.13876504040E+03  0.13876504040E+03  0.00000000000E+00 0.  1.
         25    1    1    2    0    0  0.00000000000E+00  0.00000000000E+00 -0.11061493870E+03  0.16691514211E+03  0.12500000000E+03 0.  0.
<mgrwt>
<rscale>  0 0.12500000E+03</rscale>
<asrwt>0</asrwt>
<pdfrwt beam="1">  1       21 0.43307848E-02 0.12500000E+03</pdfrwt>
<pdfrwt beam="2">  1       21 0.21348468E-01 0.12500000E+03</pdfrwt>
<totfact> 0.68684257E+06</totfact>
</mgrwt>
</event>
<event>
 3    1  0.1595726E-001  0.1250000E+03  0.7546771E-02  0.1235069E+00
         21   -1    0    0  502  501  0.00000000000E+00  0.00000000000E+00  0.24077316544E+03  0.24077316544E+03  0.00000000000E+00 0. -1.
         21   -1    0    0  501  502 -0.00000000000E+00 -0.00000000000E+00 -0.16223776403E+02  0.16223776403E+02  0.00000000000E+00 0. -1.
         25    1    1    2    0    0  0.00000000000E+00  0.00000000000E+00  0.22454938904E+03  0.25699694185E+03  0.12500000000E+03 0.  0.
<mgrwt>
<rscale>  0 0.12500000E+03</rscale>
<asrwt>0</asrwt>
<pdfrwt beam="1">  1       21 0.37042023E-01 0.12500000E+03</pdfrwt>
<pdfrwt beam="2">  1       21 0.24959658E-02 0.12500000E+03</pdfrwt>
<totfact> 0.59225622E+06</totfact>
</mgrwt>
</event>
<event>
 3    1  0.1595726E-001  0.1250000E+03  0.7546771E-02  0.1235069E+00
         21   -1    0    0  502  501  0.00000000000E+00  0.00000000000E+00  0.18676639879E+03  0.18676639879E+03  0.00000000000E+00 0.  1.
         21   -1    0    0  501  502 -0.00000000000E+00 -0.00000000000E+00 -0.20915164748E+02  0.20915164748E+02  0.00000000000E+00 0.  1.
         25    1    1    2    0    0  0.00000000000E+00  0.00000000000E+00  0.16585123404E+03  0.20768156354E+03  0.12500000000E+03 0.  0.
<mgrwt>
<rscale>  0 0.12500000E+03</rscale>
<asrwt>0</asrwt>
<pdfrwt beam="1">  1       21 0.28733291E-01 0.12500000E+03</pdfrwt>
<pdfrwt beam="2">  1       21 0.32177178E-02 0.12500000E+03</pdfrwt>
<totfact> 0.64104291E+06</totfact>
</mgrwt>
</event>
<event>
 3    1  0.1595726E-001  0.1250000E+03  0.7546771E-02  0.1235069E+00
         21   -1    0    0  502  501  0.00000000000E+00  0.00000000000E+00  0.48842818208E+02  0.48842818208E+02  0.00000000000E+00 0. -1.
         21   -1    0    0  501  502 -0.00000000000E+00 -0.00000000000E+00 -0.79975933891E+02  0.79975933891E+02  0.00000000000E+00 0. -1.
         25    1    1    2    0    0  0.00000000000E+00  0.00000000000E+00 -0.31133115683E+02  0.12881875210E+03  0.12500000000E+03 0.  0.
<mgrwt>
<rscale>  0 0.12500000E+03</rscale>
<asrwt>0</asrwt>
<pdfrwt beam="1">  1       21 0.75142798E-02 0.12500000E+03</pdfrwt>
<pdfrwt beam="2">  1       21 0.12303990E-01 0.12500000E+03</pdfrwt>
<totfact> 0.73523234E+06</totfact>
</mgrwt>
</event>
<event>
 3    1  0.1595726E-001  0.1250000E+03  0.7546771E-02  0.1235069E+00
         21   -1    0    0  502  501  0.00000000000E+00  0.00000000000E+00  0.57883475774E+03  0.57883475774E+03  0.00000000000E+00 0.  1.
         21   -1    0    0  501  502 -0.00000000000E+00 -0.00000000000E+00 -0.67484717318E+01  0.67484717318E+01  0.00000000000E+00 0.  1.
         25    1    1    2    0    0  0.00000000000E+00  0.00000000000E+00  0.57208628601E+03  0.58558322947E+03  0.12500000000E+03 0.  0.
<mgrwt>
<rscale>  0 0.12500000E+03</rscale>
<asrwt>0</asrwt>
<pdfrwt beam="1">  1       21 0.89051462E-01 0.12500000E+03</pdfrwt>
<pdfrwt beam="2">  1       21 0.10382269E-02 0.12500000E+03</pdfrwt>
<totfact> 0.37752845E+06</totfact>
</mgrwt>
</event>
<event>
 3    1  0.1595726E-001  0.1250000E+03  0.7546771E-02  0.1235069E+00
         21   -1    0    0  502  501  0.00000000000E+00  0.00000000000E+00  0.20069139461E+03  0.20069139461E+03  0.00000000000E+00 0.  1.
         21   -1    0    0  501  502 -0.00000000000E+00 -0.00000000000E+00 -0.19463963602E+02  0.19463963602E+02  0.00000000000E+00 0.  1.
         25    1    1    2    0    0  0.00000000000E+00  0.00000000000E+00  0.18122743101E+03  0.22015535822E+03  0.12500000000E+03 0.  0.
<mgrwt>
<rscale>  0 0.12500000E+03</rscale>
<asrwt>0</asrwt>
<pdfrwt beam="1">  1       21 0.30875598E-01 0.12500000E+03</pdfrwt>
<pdfrwt beam="2">  1       21 0.29944561E-02 0.12500000E+03</pdfrwt>
<totfact> 0.62806660E+06</totfact>
</mgrwt>
</event>
<event>
 3    1  0.1595726E-001  0.1250000E+03  0.7546771E-02  0.1235069E+00
         21   -1    0    0  502  501  0.00000000000E+00  0.00000000000E+00  0.89088819847E+02  0.89088819847E+02  0.00000000000E+00 0. -1.
         21   -1    0    0  501  502 -0.00000000000E+00 -0.00000000000E+00 -0.43846691501E+02  0.43846691501E+02  0.00000000000E+00 0. -1.
         25    1    1    2    0    0  0.00000000000E+00  0.00000000000E+00  0.45242128347E+02  0.13293551135E+03  0.12500000000E+03 0.  0.
<mgrwt>
<rscale>  0 0.12500000E+03</rscale>
<asrwt>0</asrwt>
<pdfrwt beam="1">  1       21 0.13705972E-01 0.12500000E+03</pdfrwt>
<pdfrwt beam="2">  1       21 0.67456448E-02 0.12500000E+03</pdfrwt>
<totfact> 0.72971011E+06</totfact>
</mgrwt>
</event>
<event>
 3    1  0.1595726E-001  0.1250000E+03  0.7546771E-02  0.1235069E+00
         21   -1    0    0  502  501  0.00000000000E+00  0.00000000000E+00  0.11520009140E+03  0.11520009140E+03  0.00000000000E+00 0.  1.
         21   -1    0    0  501  502 -0.00000000000E+00 -0.00000000000E+00 -0.33908393236E+02  0.33908393236E+02  0.00000000000E+00 0.  1.
         25    1    1    2    0    0  0.00000000000E+00  0.00000000000E+00  0.81291698163E+02  0.14910848464E+03  0.12500000000E+03 0.  0.
<mgrwt>
<rscale>  0 0.12500000E+03</rscale>
<asrwt>0</asrwt>
<pdfrwt beam="1">  1       21 0.17723091E-01 0.12500000E+03</pdfrwt>
<pdfrwt beam="2">  1       21 0.52166760E-02 0.12500000E+03</pdfrwt>
<totfact> 0.70871372E+06</totfact>
</mgrwt>
</event>
<event>
 3    1  0.1595726E-001  0.1250000E+03  0.7546771E-02  0.1235069E+00
         21   -1    0    0  502  501  0.00000000000E+00  0.00000000000E+00  0.16326903312E+03  0.16326903312E+03  0.00000000000E+00 0. -1.
         21   -1    0    0  501  502 -0.00000000000E+00 -0.00000000000E+00 -0.23925235088E+02  0.23925235088E+02  0.00000000000E+00 0. -1.
         25    1    1    2    0    0  0.00000000000E+00  0.00000000000E+00  0.13934379803E+03  0.18719426821E+03  0.12500000000E+03 0.  0.
<mgrwt>
<rscale>  0 0.12500000E+03</rscale>
<asrwt>0</asrwt>
<pdfrwt beam="1">  1       21 0.25118312E-01 0.12500000E+03</pdfrwt>
<pdfrwt beam="2">  1       21 0.36808055E-02 0.12500000E+03</pdfrwt>
<totfact> 0.66335661E+06</totfact>
</mgrwt>
</event>
<event>
 3    1  0.1595726E-001  0.1250000E+03  0.7546771E-02  0.1235069E+00
         21   -1    0    0  502  501  0.00000000000E+00  0.00000000000E+00  0.28960661570E+03  0.28960661570E+03  0.00000000000E+00 0. -1.
         21   -1    0    0  501  502 -0.00000000000E+00 -0.00000000000E+00 -0.13488124194E+02  0.13488124194E+02  0.00000000000E+00 0. -1.
         25    1    1    2    0    0  0.00000000000E+00  0.00000000000E+00  0.27611849151E+03  0.30309473990E+03  0.12500000000E+03 0.  0.
<mgrwt>
<rscale>  0 0.12500000E+03</rscale>
<asrwt>0</asrwt>
<pdfrwt beam="1">  1       21 0.44554859E-01 0.12500000E+03</pdfrwt>
<pdfrwt beam="2">  1       21 0.20750962E-02 0.12500000E+03</pdfrwt>
<totfact> 0.55199968E+06</totfact>
</mgrwt>
</event>
<event>
 3    1  0.1595726E-001  0.1250000E+03  0.7546771E-02  0.1235069E+00
         21   -1    0    0  502  501  0.00000000000E+00  0.00000000000E+00  0.17107602761E+01  0.17107602761E+01  0.00000000000E+00 0.  1.
         21   -1    0    0  501  502 -0.00000000000E+00 -0.00000000000E+00 -0.22833415381E+04  0.22833415381E+04  0.00000000000E+00 0.  1.
         25    1    1    2    0    0  0.00000000000E+00  0.00000000000E+00 -0.22816307778E+04  0.22850522984E+04  0.12500000000E+03 0.  0.
<mgrwt>
<rscale>  0 0.12500000E+03</rscale>
<asrwt>0</asrwt>
<pdfrwt beam="1">  1       21 0.26319495E-03 0.12500000E+03</pdfrwt>
<pdfrwt beam="2">  1       21 0.35128189E+00 0.12500000E+03</pdfrwt>
<totfact> 0.54874614E+05</totfact>
</mgrwt>
</event>
<event>
 3    1  0.1595726E-001  0.1250000E+03  0.7546771E-02  0.1235069E+00
         21   -1    0    0  502  501  0.00000000000E+00  0.00000000000E+00  0.45888392139E+03  0.45888392139E+03  0.00000000000E+00 0. -1.
         21   -1    0    0  501  502 -0.00000000000E+00 -0.00000000000E+00 -0.85125013493E+01  0.85125013493E+01  0.00000000000E+00 0. -1.
         25    1    1    2    0    0  0.00000000000E+00  0.00000000000E+00  0.45037142004E+03  0.46739642274E+03  0.12500000000E+03 0.  0.
<mgrwt>
<rscale>  0 0.12500000E+03</rscale>
<asrwt>0</asrwt>
<pdfrwt beam="1">  1       21 0.70597507E-01 0.12500000E+03</pdfrwt>
<pdfrwt beam="2">  1       21 0.13096159E-02 0.12500000E+03</pdfrwt>
<totfact> 0.43869285E+06</totfact>
</mgrwt>
</event>
<event>
 3    1  0.1595726E-001  0.1250000E+03  0.7546771E-02  0.1235069E+00
         21   -1    0    0  502  501  0.00000000000E+00  0.00000000000E+00  0.19259438088E+03  0.19259438088E+03  0.00000000000E+00 0.  1.
         21   -1    0    0  501  502 -0.00000000000E+00 -0.00000000000E+00 -0.20282263595E+02  0.20282263595E+02  0.00000000000E+00 0.  1.
         25    1    1    2    0    0  0.00000000000E+00  0.00000000000E+00  0.17231211729E+03  0.21287664448E+03  0.12500000000E+03 0.  0.
<mgrwt>
<rscale>  0 0.12500000E+03</rscale>
<asrwt>0</asrwt>
<pdfrwt beam="1">  1       21 0.29629904E-01 0.12500000E+03</pdfrwt>
<pdfrwt beam="2">  1       21 0.31203484E-02 0.12500000E+03</pdfrwt>
<totfact> 0.63558146E+06</totfact>
</mgrwt>
</event>
<event>
 3    1  0.1595726E-001  0.1250000E+03  0.7546771E-02  0.1235069E+00
         21   -1    0    0  502  501  0.00000000000E+00  0.00000000000E+00  0.96681013866E+01  0.96681013866E+01  0.00000000000E+00 0. -1.
         21   -1    0    0  501  502 -0.00000000000E+00 -0.00000000000E+00 -0.40403486102E+03  0.40403486102E+03  0.00000000000E+00 0. -1.
         25    1    1    2    0    0  0.00000000000E+00  0.00000000000E+00 -0.39436675963E+03  0.41370296240E+03  0.12500000000E+03 0.  0.
<mgrwt>
<rscale>  0 0.12500000E+03</rscale>
<asrwt>0</asrwt>
<pdfrwt beam="1">  1       21 0.14874002E-02 0.12500000E+03</pdfrwt>
<pdfrwt beam="2">  1       21 0.62159209E-01 0.12500000E+03</pdfrwt>
<totfact> 0.47145535E+06</totfact>
</mgrwt>
</event>
<event>
 3    1  0.1595726E-001  0.1250000E+03  0.7546771E-02  0.1235069E+00
         21   -1    0    0  502  501  0.00000000000E+00  0.00000000000E+00  0.24585243047E+04  0.24585243047E+04  0.00000000000E+00 0. -1.
         21   -1    0    0  501  502 -0.00000000000E+00 -0.00000000000E+00 -0.15888596231E+01  0.15888596231E+01  0.00000000000E+00 0. -1.
         25    1    1    2    0    0  0.00000000000E+00  0.00000000000E+00  0.24569354450E+04  0.24601131643E+04  0.12500000000E+03 0.  0.
<mgrwt>
<rscale>  0 0.12500000E+03</rscale>
<asrwt>0</asrwt>
<pdfrwt beam="1">  1       21 0.37823146E+00 0.12500000E+03</pdfrwt>
<pdfrwt beam="2">  1       21 0.24444191E-03 0.12500000E+03</pdfrwt>
<totfact> 0.42703850E+05</totfact>
</mgrwt>
</event>
<event>
 3    1  0.1595726E-001  0.1250000E+03  0.7546771E-02  0.1235069E+00
         21   -1    0    0  502  501  0.00000000000E+00  0.00000000000E+00  0.31927880836E+03  0.31927880836E+03  0.00000000000E+00 0.  1.
         21   -1    0    0  501  502 -0.00000000000E+00 -0.00000000000E+00 -0.12234604671E+02  0.12234604671E+02  0.00000000000E+00 0.  1.
         25    1    1    2    0    0  0.00000000000E+00  0.00000000000E+00  0.30704420369E+03  0.33151341303E+03  0.12500000000E+03 0.  0.
<mgrwt>
<rscale>  0 0.12500000E+03</rscale>
<asrwt>0</asrwt>
<pdfrwt beam="1">  1       21 0.49119810E-01 0.12500000E+03</pdfrwt>
<pdfrwt beam="2">  1       21 0.18822471E-02 0.12500000E+03</pdfrwt>
<totfact> 0.52933395E+06</totfact>
</mgrwt>
</event>
<event>
 3    1  0.1595726E-001  0.1250000E+03  0.7546771E-02  0.1235069E+00
         21   -1    0    0  502  501  0.00000000000E+00  0.00000000000E+00  0.12577628857E+03  0.12577628857E+03  0.00000000000E+00 0.  1.
         21   -1    0    0  501  502 -0.00000000000E+00 -0.00000000000E+00 -0.31057125668E+02  0.31057125668E+02  0.00000000000E+00 0.  1.
         25    1    1    2    0    0  0.00000000000E+00  0.00000000000E+00  0.94719162898E+02  0.15683341423E+03  0.12500000000E+03 0.  0.
<mgrwt>
<rscale>  0 0.12500000E+03</rscale>
<asrwt>0</asrwt>
<pdfrwt beam="1">  1       21 0.19350198E-01 0.12500000E+03</pdfrwt>
<pdfrwt beam="2">  1       21 0.47780194E-02 0.12500000E+03</pdfrwt>
<totfact> 0.69908503E+06</totfact>
</mgrwt>
</event>
<event>
 3    1  0.1595726E-001  0.1250000E+03  0.7546771E-02  0.1235069E+00
         21   -1    0    0  502  501  0.00000000000E+00  0.00000000000E+00  0.73491952233E+01  0.73491952233E+01  0.00000000000E+00 0.  1.
         21   -1    0    0  501  502 -0.00000000000E+00 -0.00000000000E+00 -0.53152078307E+03  0.53152078307E+03  0.00000000000E+00 0.  1.
         25    1    1    2    0    0  0.00000000000E+00  0.00000000000E+00 -0.52417158784E+03  0.53886997829E+03  0.12500000000E+03 0.  0.
<mgrwt>
<rscale>  0 0.12500000E+03</rscale>
<asrwt>0</asrwt>
<pdfrwt beam="1">  1       21 0.11306452E-02 0.12500000E+03</pdfrwt>
<pdfrwt beam="2">  1       21 0.81772443E-01 0.12500000E+03</pdfrwt>
<totfact> 0.40011582E+06</totfact>
</mgrwt>
</event>
<event>
 3    1  0.1595726E-001  0.1250000E+03  0.7546771E-02  0.1235069E+00
         21   -1    0    0  502  501  0.00000000000E+00  0.00000000000E+00  0.14973587359E+02  0.14973587359E+02  0.00000000000E+00 0. -1.
         21   -1    0    0  501  502 -0.00000000000E+00 -0.00000000000E+00 -0.26087602832E+03  0.26087602832E+03  0.00000000000E+00 0. -1.
         25    1    1    2    0    0  0.00000000000E+00  0.00000000000E+00 -0.24590244096E+03  0.27584961568E+03  0.12500000000E+03 0.  0.
<mgrwt>
<rscale>  0 0.12500000E+03</rscale>
<asrwt>0</asrwt>
<pdfrwt beam="1">  1       21 0.23036290E-02 0.12500000E+03</pdfrwt>
<pdfrwt beam="2">  1       21 0.40134771E-01 0.12500000E+03</pdfrwt>
<totfact> 0.57524843E+06</totfact>
</mgrwt>
</event>
<event>
 3    1  0.1595726E-001  0.1250000E+03  0.7546771E-02  0.1235069E+00
         21   -1    0    0  502  501  0.00000000000E+00  0.00000000000E+00  0.12599613144E+03  0.12599613144E+03  0.00000000000E+00 0. -1.
         21   -1    0    0  501  502 -0.00000000000E+00 -0.00000000000E+00 -0.31002936005E+02  0.31002936005E+02  0.00000000000E+00 0. -1.
         25    1    1    2    0    0  0.00000000000E+00  0.00000000000E+00  0.94993195436E+02  0.15699906745E+03  0.12500000000E+03 0.  0.
<mgrwt>
<rscale>  0 0.12500000E+03</rscale>
<asrwt>0</asrwt>
<pdfrwt beam="1">  1       21 0.19384020E-01 0.12500000E+03</pdfrwt>
<pdfrwt beam="2">  1       21 0.47696826E-02 0.12500000E+03</pdfrwt>
<totfact> 0.69888049E+06</totfact>
</mgrwt>
</event>
<event>
 3    1  0.1595726E-001  0.1250000E+03  0.7546771E-02  0.1235069E+00
         21   -1    0    0  502  501  0.00000000000E+00  0.00000000000E+00  0.33280022071E+02  0.33280022071E+02  0.00000000000E+00 0. -1.
         21   -1    0    0  501  502 -0.00000000000E+00 -0.00000000000E+00 -0.11737522264E+03  0.11737522264E+03  0.00000000000E+00 0. -1.
         25    1    1    2    0    0  0.00000000000E+00  0.00000000000E+00 -0.84095200566E+02  0.15065524471E+03  0.12500000000E+03 0.  0.
<mgrwt>
<rscale>  0 0.12500000E+03</rscale>
<asrwt>0</asrwt>
<pdfrwt beam="1">  1       21 0.51200034E-02 0.12500000E+03</pdfrwt>
<pdfrwt beam="2">  1       21 0.18057726E-01 0.12500000E+03</pdfrwt>
<totfact> 0.70676987E+06</totfact>
</mgrwt>
</event>
<event>
 3    1  0.1595726E-001  0.1250000E+03  0.7546771E-02  0.1235069E+00
         21   -1    0    0  502  501  0.00000000000E+00  0.00000000000E+00  0.61059230721E+02  0.61059230721E+02  0.00000000000E+00 0.  1.
         21   -1    0    0  501  502 -0.00000000000E+00 -0.00000000000E+00 -0.63974766040E+02  0.63974766040E+02  0.00000000000E+00 0.  1.
         25    1    1    2    0    0  0.00000000000E+00  0.00000000000E+00 -0.29155353191E+01  0.12503399676E+03  0.12500000000E+03 0.  0.
<mgrwt>
<rscale>  0 0.12500000E+03</rscale>
<asrwt>0</asrwt>
<pdfrwt beam="1">  1       21 0.93937278E-02 0.12500000E+03</pdfrwt>
<pdfrwt beam="2">  1       21 0.98422717E-02 0.12500000E+03</pdfrwt>
<totfact> 0.74038990E+06</totfact>
</mgrwt>
</event>
<event>
 3    1  0.1595726E-001  0.1250000E+03  0.7546771E-02  0.1235069E+00
         21   -1    0    0  502  501  0.00000000000E+00  0.00000000000E+00  0.14918806830E+03  0.14918806830E+03  0.00000000000E+00 0.  1.
         21   -1    0    0  501  502 -0.00000000000E+00 -0.00000000000E+00 -0.26183394185E+02  0.26183394185E+02  0.00000000000E+00 0.  1.
         25    1    1    2    0    0  0.00000000000E+00  0.00000000000E+00  0.12300467411E+03  0.17537146248E+03  0.12500000000E+03 0.  0.
<mgrwt>
<rscale>  0 0.12500000E+03</rscale>
<asrwt>0</asrwt>
<pdfrwt beam="1">  1       21 0.22952010E-01 0.12500000E+03</pdfrwt>
<pdfrwt beam="2">  1       21 0.40282146E-02 0.12500000E+03</pdfrwt>
<totfact> 0.67686516E+06</totfact>
</mgrwt>
</event>
<event>
 3    1  0.1595726E-001  0.1250000E+03  0.7546771E-02  0.1235069E+00
         21   -1    0    0  502  501  0.00000000000E+00  0.00000000000E+00  0.20145135518E+02  0.20145135518E+02  0.00000000000E+00 0. -1.
         21   -1    0    0  501  502 -0.00000000000E+00 -0.00000000000E+00 -0.19390537216E+03  0.19390537216E+03  0.00000000000E+00 0. -1.
         25    1    1    2    0    0  0.00000000000E+00  0.00000000000E+00 -0.17376023665E+03  0.21405050768E+03  0.12500000000E+03 0.  0.
<mgrwt>
<rscale>  0 0.12500000E+03</rscale>
<asrwt>0</asrwt>
<pdfrwt beam="1">  1       21 0.30992517E-02 0.12500000E+03</pdfrwt>
<pdfrwt beam="2">  1       21 0.29831595E-01 0.12500000E+03</pdfrwt>
<totfact> 0.63435880E+06</totfact>
</mgrwt>
</event>
<event>
 3    1  0.1595726E-001  0.1250000E+03  0.7546771E-02  0.1235069E+00
         21   -1    0    0  502  501  0.00000000000E+00  0.00000000000E+00  0.10990472336E+03  0.10990472336E+03  0.00000000000E+00 0. -1.
         21   -1    0    0  501  502 -0.00000000000E+00 -0.00000000000E+00 -0.35542148514E+02  0.35542148514E+02  0.00000000000E+00 0. -1.
         25    1    1    2    0    0  0.00000000000E+00  0.00000000000E+00  0.74362574844E+02  0.14544687187E+03  0.12500000000E+03 0.  0.
<mgrwt>
<rscale>  0 0.12500000E+03</rscale>
<asrwt>0</asrwt>
<pdfrwt beam="1">  1       21 0.16908419E-01 0.12500000E+03</pdfrwt>
<pdfrwt beam="2">  1       21 0.54680229E-02 0.12500000E+03</pdfrwt>
<totfact> 0.71335959E+06</totfact>
</mgrwt>
</event>
<event>
 3    1  0.1595726E-001  0.1250000E+03  0.7546771E-02  0.1235069E+00
         21   -1    0    0  502  501  0.00000000000E+00  0.00000000000E+00  0.32253591641E+02  0.32253591641E+02  0.00000000000E+00 0.  1.
         21   -1    0    0  501  502 -0.00000000000E+00 -0.00000000000E+00 -0.12111054308E+03  0.12111054308E+03  0.00000000000E+00 0.  1.
         25    1    1    2    0    0  0.00000000000E+00  0.00000000000E+00 -0.88856951442E+02  0.15336413472E+03  0.12500000000E+03 0.  0.
<mgrwt>
<rscale>  0 0.12500000E+03</rscale>
<asrwt>0</asrwt>
<pdfrwt beam="1">  1       21 0.49620911E-02 0.12500000E+03</pdfrwt>
<pdfrwt beam="2">  1       21 0.18632391E-01 0.12500000E+03</pdfrwt>
<totfact> 0.70339118E+06</totfact>
</mgrwt>
</event>
<event>
 3    1  0.1595726E-001  0.1250000E+03  0.7546771E-02  0.1235069E+00
         21   -1    0    0  502  501  0.00000000000E+00  0.00000000000E+00  0.18682289945E+02  0.18682289945E+02  0.00000000000E+00 0. -1.
         21   -1    0    0  501  502 -0.00000000000E+00 -0.00000000000E+00 -0.20908839395E+03  0.20908839395E+03  0.00000000000E+00 0. -1.
         25    1    1    2    0    0  0.00000000000E+00  0.00000000000E+00 -0.19040610401E+03  0.22777068390E+03  0.12500000000E+03 0.  0.
<mgrwt>
<rscale>  0 0.12500000E+03</rscale>
<asrwt>0</asrwt>
<pdfrwt beam="1">  1       21 0.28741985E-02 0.12500000E+03</pdfrwt>
<pdfrwt beam="2">  1       21 0.32167445E-01 0.12500000E+03</pdfrwt>
<totfact> 0.62036537E+06</totfact>
</mgrwt>
</event>
<event>
 3    1  0.1595726E-001  0.1250000E+03  0.7546771E-02  0.1235069E+00
         21   -1    0    0  502  501  0.00000000000E+00  0.00000000000E+00  0.92476266747E+02  0.92476266747E+02  0.00000000000E+00 0.  1.
         21   -1    0    0  501  502 -0.00000000000E+00 -0.00000000000E+00 -0.42240567633E+02  0.42240567633E+02  0.00000000000E+00 0.  1.
         25    1    1    2    0    0  0.00000000000E+00  0.00000000000E+00  0.50235699114E+02  0.13471683438E+03  0.12500000000E+03 0.  0.
<mgrwt>
<rscale>  0 0.12500000E+03</rscale>
<asrwt>0</asrwt>
<pdfrwt beam="1">  1       21 0.14227118E-01 0.12500000E+03</pdfrwt>
<pdfrwt beam="2">  1       21 0.64985489E-02 0.12500000E+03</pdfrwt>
<totfact> 0.72733987E+06</totfact>
</mgrwt>
</event>
<event>
 3    1  0.1595726E-001  0.1250000E+03  0.7546771E-02  0.1235069E+00
         21   -1    0    0  502  501  0.00000000000E+00  0.00000000000E+00  0.99006625325E+01  0.99006625325E+01  0.00000000000E+00 0.  1.
         21   -1    0    0  501  502 -0.00000000000E+00 -0.00000000000E+00 -0.39454430319E+03  0.39454430319E+03  0.00000000000E+00 0.  1.
         25    1    1    2    0    0  0.00000000000E+00  0.00000000000E+00 -0.38464364066E+03  0.40444496572E+03  0.12500000000E+03 0.  0.
<mgrwt>
<rscale>  0 0.12500000E+03</rscale>
<asrwt>0</asrwt>
<pdfrwt beam="1">  1       21 0.15231789E-02 0.12500000E+03</pdfrwt>
<pdfrwt beam="2">  1       21 0.60699120E-01 0.12500000E+03</pdfrwt>
<totfact> 0.47747913E+06</totfact>
</mgrwt>
</event>
<event>
 3    1  0.1595726E-001  0.1250000E+03  0.7546771E-02  0.1235069E+00
         21   -1    0    0  502  501  0.00000000000E+00  0.00000000000E+00  0.91653671520E+02  0.91653671520E+02  0.00000000000E+00 0.  1.
         21   -1    0    0  501  502 -0.00000000000E+00 -0.00000000000E+00 -0.42619678353E+02  0.42619678353E+02  0.00000000000E+00 0.  1.
         25    1    1    2    0    0  0.00000000000E+00  0.00000000000E+00  0.49033993167E+02  0.13427334987E+03  0.12500000000E+03 0.  0.
<mgrwt>
<rscale>  0 0.12500000E+03</rscale>
<asrwt>0</asrwt>
<pdfrwt beam="1">  1       21 0.14100565E-01 0.12500000E+03</pdfrwt>
<pdfrwt beam="2">  1       21 0.65568736E-02 0.12500000E+03</pdfrwt>
<totfact> 0.72792830E+06</totfact>
</mgrwt>
</event>
<event>
 3    1  0.1595726E-001  0.1250000E+03  0.7546771E-02  0.1235069E+00
         21   -1    0    0  502  501  0.00000000000E+00  0.00000000000E+00  0.15073033695E+02  0.15073033695E+02  0.00000000000E+00 0.  1.
         21   -1    0    0  501  502 -0.00000000000E+00 -0.00000000000E+00 -0.25915486418E+03  0.25915486418E+03  0.00000000000E+00 0.  1.
         25    1    1    2    0    0  0.00000000000E+00  0.00000000000E+00 -0.24408183048E+03  0.27422789787E+03  0.12500000000E+03 0.  0.
<mgrwt>
<rscale>  0 0.12500000E+03</rscale>
<asrwt>0</asrwt>
<pdfrwt beam="1">  1       21 0.23189283E-02 0.12500000E+03</pdfrwt>
<pdfrwt beam="2">  1       21 0.39869978E-01 0.12500000E+03</pdfrwt>
<totfact> 0.57668328E+06</totfact>
</mgrwt>
</event>
<event>
 3    1  0.1595726E-001  0.1250000E+03  0.7546771E-02  0.1235069E+00
         21   -1    0    0  502  501  0.00000000000E+00  0.00000000000E+00  0.20938170699E+03  0.20938170699E+03  0.00000000000E+00 0. -1.
         21   -1    0    0  501  502 -0.00000000000E+00 -0.00000000000E+00 -0.18656118799E+02  0.18656118799E+02  0.00000000000E+00 0. -1.
         25    1    1    2    0    0  0.00000000000E+00  0.00000000000E+00  0.19072558820E+03  0.22803782579E+03  0.12500000000E+03 0.  0.
<mgrwt>
<rscale>  0 0.12500000E+03</rscale>
<asrwt>0</asrwt>
<pdfrwt beam="1">  1       21 0.32212569E-01 0.12500000E+03</pdfrwt>
<pdfrwt beam="2">  1       21 0.28701723E-02 0.12500000E+03</pdfrwt>
<totfact> 0.62009794E+06</totfact>
</mgrwt>
</event>
<event>
 3    1  0.1595726E-001  0.1250000E+03  0.7546771E-02  0.1235069E+00
         21   -1    0    0  502  501  0.00000000000E+00  0.00000000000E+00  0.28079871642E+03  0.28079871642E+03  0.00000000000E+00 0.  1.
         21   -1    0    0  501  502 -0.00000000000E+00 -0.00000000000E+00 -0.13911210314E+02  0.13911210314E+02  0.00000000000E+00 0.  1.
         25    1    1    2    0    0  0.00000000000E+00  0.00000000000E+00  0.26688750611E+03  0.29470992674E+03  0.12500000000E+03 0.  0.
<mgrwt>
<rscale>  0 0.12500000E+03</rscale>
<asrwt>0</asrwt>
<pdfrwt beam="1">  1       21 0.43199798E-01 0.12500000E+03</pdfrwt>
<pdfrwt beam="2">  1       21 0.21401864E-02 0.12500000E+03</pdfrwt>
<totfact> 0.55898686E+06</totfact>
</mgrwt>
</event>
<event>
 3    1  0.1595726E-001  0.1250000E+03  0.7546771E-02  0.1235069E+00
         21   -1    0    0  502  501  0.00000000000E+00  0.00000000000E+00  0.56698402073E+03  0.56698402073E+03  0.00000000000E+00 0. -1.
         21   -1    0    0  501  502 -0.00000000000E+00 -0.00000000000E+00 -0.68895239675E+01  0.68895239675E+01  0.00000000000E+00 0. -1.
         25    1    1    2    0    0  0.00000000000E+00  0.00000000000E+00  0.56009449676E+03  0.57387354469E+03  0.12500000000E+03 0.  0.
<mgrwt>
<rscale>  0 0.12500000E+03</rscale>
<asrwt>0</asrwt>
<pdfrwt beam="1">  1       21 0.87228274E-01 0.12500000E+03</pdfrwt>
<pdfrwt beam="2">  1       21 0.10599272E-02 0.12500000E+03</pdfrwt>
<totfact> 0.38301476E+06</totfact>
</mgrwt>
</event>
<event>
 3    1  0.1595726E-001  0.1250000E+03  0.7546771E-02  0.1235069E+00
         21   -1    0    0  502  501  0.00000000000E+00  0.00000000000E+00  0.31742784934E+02  0.31742784934E+02  0.00000000000E+00 0. -1.
         21   -1    0    0  501  502 -0.00000000000E+00 -0.00000000000E+00 -0.12305946086E+03  0.12305946086E+03  0.00000000000E+00 0. -1.
         25    1    1    2    0    0  0.00000000000E+00  0.00000000000E+00 -0.91316675922E+02  0.15480224579E+03  0.12500000000E+03 0.  0.
<mgrwt>
<rscale>  0 0.12500000E+03</rscale>
<asrwt>0</asrwt>
<pdfrwt beam="1">  1       21 0.48835054E-02 0.12500000E+03</pdfrwt>
<pdfrwt beam="2">  1       21 0.18932225E-01 0.12500000E+03</pdfrwt>
<totfact> 0.70160245E+06</totfact>
</mgrwt>
</event>
<event>
 3    1  0.1595726E-001  0.1250000E+03  0.7546771E-02  0.1235069E+00
         21   -1    0    0  502  501  0.00000000000E+00  0.00000000000E+00  0.44830595876E+01  0.44830595876E+01  0.00000000000E+00 0.  1.
         21   -1    0    0  501  502 -0.00000000000E+00 -0.00000000000E+00 -0.87133573036E+03  0.87133573036E+03  0.00000000000E+00 0.  1.
         25    1    1    2    0    0  0.00000000000E+00  0.00000000000E+00 -0.86685267077E+03  0.87581878994E+03  0.12500000000E+03 0.  0.
<mgrwt>
<rscale>  0 0.12500000E+03</rscale>
<asrwt>0</asrwt>
<pdfrwt beam="1">  1       21 0.68970211E-03 0.12500000E+03</pdfrwt>
<pdfrwt beam="2">  1       21 0.13405153E+00 0.12500000E+03</pdfrwt>
<totfact> 0.26998888E+06</totfact>
</mgrwt>
</event>
<event>
 3    1  0.1595726E-001  0.1250000E+03  0.7546771E-02  0.1235069E+00
         21   -1    0    0  502  501  0.00000000000E+00  0.00000000000E+00  0.48223647550E+02  0.48223647550E+02  0.00000000000E+00 0.  1.
         21   -1    0    0  501  502 -0.00000000000E+00 -0.00000000000E+00 -0.81002790092E+02  0.81002790092E+02  0.00000000000E+00 0.  1.
         25    1    1    2    0    0  0.00000000000E+00  0.00000000000E+00 -0.32779142542E+02  0.12922643764E+03  0.12500000000E+03 0.  0.
<mgrwt>
<rscale>  0 0.12500000E+03</rscale>
<asrwt>0</asrwt>
<pdfrwt beam="1">  1       21 0.74190228E-02 0.12500000E+03</pdfrwt>
<pdfrwt beam="2">  1       21 0.12461968E-01 0.12500000E+03</pdfrwt>
<totfact> 0.73468488E+06</totfact>
</mgrwt>
</event>
<event>
 3    1  0.1595726E-001  0.1250000E+03  0.7546771E-02  0.1235069E+00
         21   -1    0    0  502  501  0.00000000000E+00  0.00000000000E+00  0.40699672730E+02  0.40699672730E+02  0.00000000000E+00 0.  1.
         21   -1    0    0  501  502 -0.00000000000E+00 -0.00000000000E+00 -0.95977430234E+02  0.95977430234E+02  0.00000000000E+00 0.  1.
         25    1    1    2    0    0  0.00000000000E+00  0.00000000000E+00 -0.55277757503E+02  0.13667710296E+03  0.12500000000E+03 0.  0.
<mgrwt>
<rscale>  0 0.12500000E+03</rscale>
<asrwt>0</asrwt>
<pdfrwt beam="1">  1       21 0.62614882E-02 0.12500000E+03</pdfrwt>
<pdfrwt beam="2">  1       21 0.14765758E-01 0.12500000E+03</pdfrwt>
<totfact> 0.72475166E+06</totfact>
</mgrwt>
</event>
<event>
 3    1  0.1595726E-001  0.1250000E+03  0.7546771E-02  0.1235069E+00
         21   -1    0    0  502  501  0.00000000000E+00  0.00000000000E+00  0.12379607639E+03  0.12379607639E+03  0.00000000000E+00 0.  1.
         21   -1    0    0  501  502 -0.00000000000E+00 -0.00000000000E+00 -0.31553907958E+02  0.31553907958E+02  0.00000000000E+00 0.  1.
         25    1    1    2    0    0  0.00000000000E+00  0.00000000000E+00  0.92242168431E+02  0.15534998435E+03  0.12500000000E+03 0.  0.
<mgrwt>
<rscale>  0 0.12500000E+03</rscale>
<asrwt>0</asrwt>
<pdfrwt beam="1">  1       21 0.19045550E-01 0.12500000E+03</pdfrwt>
<pdfrwt beam="2">  1       21 0.48544474E-02 0.12500000E+03</pdfrwt>
<totfact> 0.70092187E+06</totfact>
</mgrwt>
</event>
<event>
 3    1  0.1595726E-001  0.1250000E+03  0.7546771E-02  0.1235069E+00
         21   -1    0    0  502  501  0.00000000000E+00  0.00000000000E+00  0.24676458118E+03  0.24676458118E+03  0.00000000000E+00 0. -1.
         21   -1    0    0  501  502 -0.00000000000E+00 -0.00000000000E+00 -0.15829864972E+02  0.15829864972E+02  0.00000000000E+00 0. -1.
         25    1    1    2    0    0  0.00000000000E+00  0.00000000000E+00  0.23093471621E+03  0.26259444615E+03  0.12500000000E+03 0.  0.
<mgrwt>
<rscale>  0 0.12500000E+03</rscale>
<asrwt>0</asrwt>
<pdfrwt beam="1">  1       21 0.37963779E-01 0.12500000E+03</pdfrwt>
<pdfrwt beam="2">  1       21 0.24353640E-02 0.12500000E+03</pdfrwt>
<totfact> 0.58712291E+06</totfact>
</mgrwt>
</event>
<event>
 3    1  0.1595726E-001  0.1250000E+03  0.7546771E-02  0.1235069E+00
         21   -1    0    0  502  501  0.00000000000E+00  0.00000000000E+00  0.48256118965E+02  0.48256118965E+02  0.00000000000E+00 0. -1.
         21   -1    0    0  501  502 -0.00000000000E+00 -0.00000000000E+00 -0.80948283530E+02  0.80948283530E+02  0.00000000000E+00 0. -1.
         25    1    1    2    0    0  0.00000000000E+00  0.00000000000E+00 -0.32692164565E+02  0.12920440249E+03  0.12500000000E+03 0.  0.
<mgrwt>
<rscale>  0 0.12500000E+03</rscale>
<asrwt>0</asrwt>
<pdfrwt beam="1">  1       21 0.74240183E-02 0.12500000E+03</pdfrwt>
<pdfrwt beam="2">  1       21 0.12453582E-01 0.12500000E+03</pdfrwt>
<totfact> 0.73471444E+06</totfact>
</mgrwt>
</event>
<event>
 3    1  0.1595726E-001  0.1250000E+03  0.7546771E-02  0.1235069E+00
         21   -1    0    0  502  501  0.00000000000E+00  0.00000000000E+00  0.29577384673E+02  0.29577384673E+02  0.00000000000E+00 0. -1.
         21   -1    0    0  501  502 -0.00000000000E+00 -0.00000000000E+00 -0.13206881011E+03  0.13206881011E+03  0.00000000000E+00 0. -1.
         25    1    1    2    0    0  0.00000000000E+00  0.00000000000E+00 -0.10249142544E+03  0.16164619478E+03  0.12500000000E+03 0.  0.
<mgrwt>
<rscale>  0 0.12500000E+03</rscale>
<asrwt>0</asrwt>
<pdfrwt beam="1">  1       21 0.45503669E-02 0.12500000E+03</pdfrwt>
<pdfrwt beam="2">  1       21 0.20318278E-01 0.12500000E+03</pdfrwt>
<totfact> 0.69318906E+06</totfact>
</mgrwt>
</event>
<event>
 3    1  0.1595726E-001  0.1250000E+03  0.7546771E-02  0.1235069E+00
         21   -1    0    0  502  501  0.00000000000E+00  0.00000000000E+00  0.33016210356E+03  0.33016210356E+03  0.00000000000E+00 0.  1.
         21   -1    0    0  501  502 -0.00000000000E+00 -0.00000000000E+00 -0.11831309402E+02  0.11831309402E+02  0.00000000000E+00 0.  1.
         25    1    1    2    0    0  0.00000000000E+00  0.00000000000E+00  0.31833079416E+03  0.34199341296E+03  0.12500000000E+03 0.  0.
<mgrwt>
<rscale>  0 0.12500000E+03</rscale>
<asrwt>0</asrwt>
<pdfrwt beam="1">  1       21 0.50794163E-01 0.12500000E+03</pdfrwt>
<pdfrwt beam="2">  1       21 0.18202017E-02 0.12500000E+03</pdfrwt>
<totfact> 0.52135234E+06</totfact>
</mgrwt>
</event>
<event>
 3    1  0.1595726E-001  0.1250000E+03  0.7546771E-02  0.1235069E+00
         21   -1    0    0  502  501  0.00000000000E+00  0.00000000000E+00  0.48844566743E+03  0.48844566743E+03  0.00000000000E+00 0.  1.
         21   -1    0    0  501  502 -0.00000000000E+00 -0.00000000000E+00 -0.79973070916E+01  0.79973070916E+01  0.00000000000E+00 0.  1.
         25    1    1    2    0    0  0.00000000000E+00  0.00000000000E+00  0.48044836034E+03  0.49644297452E+03  0.12500000000E+03 0.  0.
<mgrwt>
<rscale>  0 0.12500000E+03</rscale>
<asrwt>0</asrwt>
<pdfrwt beam="1">  1       21 0.75145464E-01 0.12500000E+03</pdfrwt>
<pdfrwt beam="2">  1       21 0.12303553E-02 0.12500000E+03</pdfrwt>
<totfact> 0.42237643E+06</totfact>
</mgrwt>
</event>
<event>
 3    1  0.1595726E-001  0.1250000E+03  0.7546771E-02  0.1235069E+00
         21   -1    0    0  502  501  0.00000000000E+00  0.00000000000E+00  0.14661745567E+03  0.14661745567E+03  0.00000000000E+00 0. -1.
         21   -1    0    0  501  502 -0.00000000000E+00 -0.00000000000E+00 -0.26642462060E+02  0.26642462060E+02  0.00000000000E+00 0. -1.
         25    1    1    2    0    0  0.00000000000E+00  0.00000000000E+00  0.11997499361E+03  0.17325991773E+03  0.12500000000E+03 0.  0.
<mgrwt>
<rscale>  0 0.12500000E+03</rscale>
<asrwt>0</asrwt>
<pdfrwt beam="1">  1       21 0.22556531E-01 0.12500000E+03</pdfrwt>
<pdfrwt beam="2">  1       21 0.40988404E-02 0.12500000E+03</pdfrwt>
<totfact> 0.67933277E+06</totfact>
</mgrwt>
</event>
<event>
 3    1  0.1595726E-001  0.1250000E+03  0.7546771E-02  0.1235069E+00
         21   -1    0    0  502  501  0.00000000000E+00  0.00000000000E+00  0.34932562441E+02  0.34932562441E+02  0.00000000000E+00 0. -1.
         21   -1    0    0  501  502 -0.00000000000E+00 -0.00000000000E+00 -0.11182260124E+03  0.11182260124E+03  0.00000000000E+00 0. -1.
         25    1    1    2    0    0  0.00000000000E+00  0.00000000000E+00 -0.76890038796E+02  0.14675516368E+03  0.12500000000E+03 0.  0.
<mgrwt>
<rscale>  0 0.12500000E+03</rscale>
<asrwt>0</asrwt>
<pdfrwt beam="1">  1       21 0.53742404E-02 0.12500000E+03</pdfrwt>
<pdfrwt beam="2">  1       21 0.17203477E-01 0.12500000E+03</pdfrwt>
<totfact> 0.71169232E+06</totfact>
</mgrwt>
</event>
<event>
 3    1  0.1595726E-001  0.1250000E+03  0.7546771E-02  0.1235069E+00
         21   -1    0    0  502  501  0.00000000000E+00  0.00000000000E+00  0.34598235198E+03  0.34598235198E+03  0.00000000000E+00 0.  1.
         21   -1    0    0  501  502 -0.00000000000E+00 -0.00000000000E+00 -0.11290315756E+02  0.11290315756E+02  0.00000000000E+00 0.  1.
         25    1    1    2    0    0  0.00000000000E+00  0.00000000000E+00  0.33469203622E+03  0.35727266774E+03  0.12500000000E+03 0.  0.
<mgrwt>
<rscale>  0 0.12500000E+03</rscale>
<asrwt>0</asrwt>
<pdfrwt beam="1">  1       21 0.53228046E-01 0.12500000E+03</pdfrwt>
<pdfrwt beam="2">  1       21 0.17369719E-02 0.12500000E+03</pdfrwt>
<totfact> 0.51005773E+06</totfact>
</mgrwt>
</event>
<event>
 3    1  0.1595726E-001  0.1250000E+03  0.7546771E-02  0.1235069E+00
         21   -1    0    0  502  501  0.00000000000E+00  0.00000000000E+00  0.64722456079E+02  0.64722456079E+02  0.00000000000E+00 0.  1.
         21   -1    0    0  501  502 -0.00000000000E+00 -0.00000000000E+00 -0.60353859180E+02  0.60353859180E+02  0.00000000000E+00 0.  1.
         25    1    1    2    0    0  0.00000000000E+00  0.00000000000E+00  0.43685968989E+01  0.12507631526E+03  0.12500000000E+03 0.  0.
<mgrwt>
<rscale>  0 0.12500000E+03</rscale>
<asrwt>0</asrwt>
<pdfrwt beam="1">  1       21 0.99573010E-02 0.12500000E+03</pdfrwt>
<pdfrwt beam="2">  1       21 0.92852091E-02 0.12500000E+03</pdfrwt>
<totfact> 0.74033274E+06</totfact>
</mgrwt>
</event>
<event>
 3    1  0.1595726E-001  0.1250000E+03  0.7546771E-02  0.1235069E+00
         21   -1    0    0  502  501  0.00000000000E+00  0.00000000000E+00  0.14733625557E+04  0.14733625557E+04  0.00000000000E+00 0. -1.
         21   -1    0    0  501  502 -0.00000000000E+00 -0.00000000000E+00 -0.26512483197E+01  0.26512483197E+01  0.00000000000E+00 0. -1.
         25    1    1    2    0    0  0.00000000000E+00  0.00000000000E+00  0.14707113073E+04  0.14760138040E+04  0.12500000000E+03 0.  0.
<mgrwt>
<rscale>  0 0.12500000E+03</rscale>
<asrwt>0</asrwt>
<pdfrwt beam="1">  1       21 0.22667051E+00 0.12500000E+03</pdfrwt>
<pdfrwt beam="2">  1       21 0.40788553E-03 0.12500000E+03</pdfrwt>
<totfact> 0.14352489E+06</totfact>
</mgrwt>
</event>
<event>
 3    1  0.1595726E-001  0.1250000E+03  0.7546771E-02  0.1235069E+00
         21   -1    0    0  502  501  0.00000000000E+00  0.00000000000E+00  0.11137547287E+04  0.11137547287E+04  0.00000000000E+00 0.  1.
         21   -1    0    0  501  502 -0.00000000000E+00 -0.00000000000E+00 -0.35072802829E+01  0.35072802829E+01  0.00000000000E+00 0.  1.
         25    1    1    2    0    0  0.00000000000E+00  0.00000000000E+00  0.11102474484E+04  0.11172620090E+04  0.12500000000E+03 0.  0.
<mgrwt>
<rscale>  0 0.12500000E+03</rscale>
<asrwt>0</asrwt>
<pdfrwt beam="1">  1       21 0.17134660E+00 0.12500000E+03</pdfrwt>
<pdfrwt beam="2">  1       21 0.53958247E-03 0.12500000E+03</pdfrwt>
<totfact> 0.20871582E+06</totfact>
</mgrwt>
</event>
<event>
 3    1  0.1595726E-001  0.1250000E+03  0.7546771E-02  0.1235069E+00
         21   -1    0    0  502  501  0.00000000000E+00  0.00000000000E+00  0.11810523473E+03  0.11810523473E+03  0.00000000000E+00 0.  1.
         21   -1    0    0  501  502 -0.00000000000E+00 -0.00000000000E+00 -0.33074317230E+02  0.33074317230E+02  0.00000000000E+00 0.  1.
         25    1    1    2    0    0  0.00000000000E+00  0.00000000000E+00  0.85030917500E+02  0.15117955196E+03  0.12500000000E+03 0.  0.
<mgrwt>
<rscale>  0 0.12500000E+03</rscale>
<asrwt>0</asrwt>
<pdfrwt beam="1">  1       21 0.18170036E-01 0.12500000E+03</pdfrwt>
<pdfrwt beam="2">  1       21 0.50883566E-02 0.12500000E+03</pdfrwt>
<totfact> 0.70611341E+06</totfact>
</mgrwt>
</event>
<event>
 3    1  0.1595726E-001  0.1250000E+03  0.7546771E-02  0.1235069E+00
         21   -1    0    0  502  501  0.00000000000E+00  0.00000000000E+00  0.18657676318E+02  0.18657676318E+02  0.00000000000E+00 0.  1.
         21   -1    0    0  501  502 -0.00000000000E+00 -0.00000000000E+00 -0.20936422807E+03  0.20936422807E+03  0.00000000000E+00 0.  1.
         25    1    1    2    0    0  0.00000000000E+00  0.00000000000E+00 -0.19070655175E+03  0.22802190439E+03  0.12500000000E+03 0.  0.
<mgrwt>
<rscale>  0 0.12500000E+03</rscale>
<asrwt>0</asrwt>
<pdfrwt beam="1">  1       21 0.28704116E-02 0.12500000E+03</pdfrwt>
<pdfrwt beam="2">  1       21 0.32209883E-01 0.12500000E+03</pdfrwt>
<totfact> 0.62011385E+06</totfact>
</mgrwt>
</event>
<event>
 3    1  0.1595726E-001  0.1250000E+03  0.7546771E-02  0.1235069E+00
         21   -1    0    0  502  501  0.00000000000E+00  0.00000000000E+00  0.47265055198E+01  0.47265055198E+01  0.00000000000E+00 0.  1.
         21   -1    0    0  501  502 -0.00000000000E+00 -0.00000000000E+00 -0.82645624417E+03  0.82645624417E+03  0.00000000000E+00 0.  1.
         25    1    1    2    0    0  0.00000000000E+00  0.00000000000E+00 -0.82172973865E+03  0.83118274969E+03  0.12500000000E+03 0.  0.
<mgrwt>
<rscale>  0 0.12500000E+03</rscale>
<asrwt>0</asrwt>
<pdfrwt beam="1">  1       21 0.72715493E-03 0.12500000E+03</pdfrwt>
<pdfrwt beam="2">  1       21 0.12714707E+00 0.12500000E+03</pdfrwt>
<totfact> 0.28355400E+06</totfact>
</mgrwt>
</event>
<event>
 3    1  0.1595726E-001  0.1250000E+03  0.7546771E-02  0.1235069E+00
         21   -1    0    0  502  501  0.00000000000E+00  0.00000000000E+00  0.26263478759E+04  0.26263478759E+04  0.00000000000E+00 0.  1.
         21   -1    0    0  501  502 -0.00000000000E+00 -0.00000000000E+00 -0.14873315283E+01  0.14873315283E+01  0.00000000000E+00 0.  1.
         25    1    1    2    0    0  0.00000000000E+00  0.00000000000E+00  0.26248605444E+04  0.26278352074E+04  0.12500000000E+03 0.  0.
<mgrwt>
<rscale>  0 0.12500000E+03</rscale>
<asrwt>0</asrwt>
<pdfrwt beam="1">  1       21 0.40404981E+00 0.12500000E+03</pdfrwt>
<pdfrwt beam="2">  1       21 0.22882234E-03 0.12500000E+03</pdfrwt>
<totfact> 0.32972984E+05</totfact>
</mgrwt>
</event>
<event>
 3    1  0.1595726E-001  0.1250000E+03  0.7546771E-02  0.1235069E+00
         21   -1    0    0  502  501  0.00000000000E+00  0.00000000000E+00  0.92534409691E+02  0.92534409691E+02  0.00000000000E+00 0.  1.
         21   -1    0    0  501  502 -0.00000000000E+00 -0.00000000000E+00 -0.42214026253E+02  0.42214026253E+02  0.00000000000E+00 0.  1.
         25    1    1    2    0    0  0.00000000000E+00  0.00000000000E+00  0.50320383439E+02  0.13474843594E+03  0.12500000000E+03 0.  0.
<mgrwt>
<rscale>  0 0.12500000E+03</rscale>
<asrwt>0</asrwt>
<pdfrwt beam="1">  1       21 0.14236063E-01 0.12500000E+03</pdfrwt>
<pdfrwt beam="2">  1       21 0.64944656E-02 0.12500000E+03</pdfrwt>
<totfact> 0.72729798E+06</totfact>
</mgrwt>
</event>
<event>
 3    1  0.1595726E-001  0.1250000E+03  0.7546771E-02  0.1235069E+00
         21   -1    0    0  502  501  0.00000000000E+00  0.00000000000E+00  0.12671787363E+03  0.12671787363E+03  0.00000000000E+00 0. -1.
         21   -1    0    0  501  502 -0.00000000000E+00 -0.00000000000E+00 -0.30826353757E+02  0.30826353757E+02  0.00000000000E+00 0. -1.
         25    1    1    2    0    0  0.00000000000E+00  0.00000000000E+00  0.95891519876E+02  0.15754422739E+03  0.12500000000E+03 0.  0.
<mgrwt>
<rscale>  0 0.12500000E+03</rscale>
<asrwt>0</asrwt>
<pdfrwt beam="1">  1       21 0.19495057E-01 0.12500000E+03</pdfrwt>
<pdfrwt beam="2">  1       21 0.47425160E-02 0.12500000E+03</pdfrwt>
<totfact> 0.69820817E+06</totfact>
</mgrwt>
</event>
<event>
 3    1  0.1595726E-001  0.1250000E+03  0.7546771E-02  0.1235069E+00
         21   -1    0    0  502  501  0.00000000000E+00  0.00000000000E+00  0.12455376825E+02  0.12455376825E+02  0.00000000000E+00 0. -1.
         21   -1    0    0  501  502 -0.00000000000E+00 -0.00000000000E+00 -0.31361957610E+03  0.31361957610E+03  0.00000000000E+00 0. -1.
         25    1    1    2    0    0  0.00000000000E+00  0.00000000000E+00 -0.30116419928E+03  0.32607495293E+03  0.12500000000E+03 0.  0.
<mgrwt>
<rscale>  0 0.12500000E+03</rscale>
<asrwt>0</asrwt>
<pdfrwt beam="1">  1       21 0.19162118E-02 0.12500000E+03</pdfrwt>
<pdfrwt beam="2">  1       21 0.48249167E-01 0.12500000E+03</pdfrwt>
<totfact> 0.53355417E+06</totfact>
</mgrwt>
</event>
<event>
 3    1  0.1595726E-001  0.1250000E+03  0.7546771E-02  0.1235069E+00
         21   -1    0    0  502  501  0.00000000000E+00  0.00000000000E+00  0.64311757696E+02  0.64311757696E+02  0.00000000000E+00 0. -1.
         21   -1    0    0  501  502 -0.00000000000E+00 -0.00000000000E+00 -0.60739282208E+02  0.60739282208E+02  0.00000000000E+00 0. -1.
         25    1    1    2    0    0  0.00000000000E+00  0.00000000000E+00  0.35724754877E+01  0.12505103990E+03  0.12500000000E+03 0.  0.
<mgrwt>
<rscale>  0 0.12500000E+03</rscale>
<asrwt>0</asrwt>
<pdfrwt beam="1">  1       21 0.98941165E-02 0.12500000E+03</pdfrwt>
<pdfrwt beam="2">  1       21 0.93445050E-02 0.12500000E+03</pdfrwt>
<totfact> 0.74036688E+06</totfact>
</mgrwt>
</event>
<event>
 3    1  0.1595726E-001  0.1250000E+03  0.7546771E-02  0.1235069E+00
         21   -1    0    0  502  501  0.00000000000E+00  0.00000000000E+00  0.96166248293E+01  0.96166248293E+01  0.00000000000E+00 0.  1.
         21   -1    0    0  501  502 -0.00000000000E+00 -0.00000000000E+00 -0.40619760772E+03  0.40619760772E+03  0.00000000000E+00 0.  1.
         25    1    1    2    0    0  0.00000000000E+00  0.00000000000E+00 -0.39658098289E+03  0.41581423255E+03  0.12500000000E+03 0.  0.
<mgrwt>
<rscale>  0 0.12500000E+03</rscale>
<asrwt>0</asrwt>
<pdfrwt beam="1">  1       21 0.14794809E-02 0.12500000E+03</pdfrwt>
<pdfrwt beam="2">  1       21 0.62491934E-01 0.12500000E+03</pdfrwt>
<totfact> 0.47009802E+06</totfact>
</mgrwt>
</event>
<event>
 3    1  0.1595726E-001  0.1250000E+03  0.7546771E-02  0.1235069E+00
         21   -1    0    0  502  501  0.00000000000E+00  0.00000000000E+00  0.15416335682E+02  0.15416335682E+02  0.00000000000E+00 0. -1.
         21   -1    0    0  501  502 -0.00000000000E+00 -0.00000000000E+00 -0.25338381834E+03  0.25338381834E+03  0.00000000000E+00 0. -1.
         25    1    1    2    0    0  0.00000000000E+00  0.00000000000E+00 -0.23796748266E+03  0.26880015402E+03  0.12500000000E+03 0.  0.
<mgrwt>
<rscale>  0 0.12500000E+03</rscale>
<asrwt>0</asrwt>
<pdfrwt beam="1">  1       21 0.23717440E-02 0.12500000E+03</pdfrwt>
<pdfrwt beam="2">  1       21 0.38982125E-01 0.12500000E+03</pdfrwt>
<totfact> 0.58151960E+06</totfact>
</mgrwt>
</event>
<event>
 3    1  0.1595726E-001  0.1250000E+03  0.7546771E-02  0.1235069E+00
         21   -1    0    0  502  501  0.00000000000E+00  0.00000000000E+00  0.15328176109E+02  0.15328176109E+02  0.00000000000E+00 0. -1.
         21   -1    0    0  501  502 -0.00000000000E+00 -0.00000000000E+00 -0.25484114824E+03  0.25484114824E+03  0.00000000000E+00 0. -1.
         25    1    1    2    0    0  0.00000000000E+00  0.00000000000E+00 -0.23951297213E+03  0.27016932435E+03  0.12500000000E+03 0.  0.
<mgrwt>
<rscale>  0 0.12500000E+03</rscale>
<asrwt>0</asrwt>
<pdfrwt beam="1">  1       21 0.23581809E-02 0.12500000E+03</pdfrwt>
<pdfrwt beam="2">  1       21 0.39206331E-01 0.12500000E+03</pdfrwt>
<totfact> 0.58029549E+06</totfact>
</mgrwt>
</event>
<event>
 3    1  0.1595726E-001  0.1250000E+03  0.7546771E-02  0.1235069E+00
         21   -1    0    0  502  501  0.00000000000E+00  0.00000000000E+00  0.19754522017E+03  0.19754522017E+03  0.00000000000E+00 0.  1.
         21   -1    0    0  501  502 -0.00000000000E+00 -0.00000000000E+00 -0.19773953512E+02  0.19773953512E+02  0.00000000000E+00 0.  1.
         25    1    1    2    0    0  0.00000000000E+00  0.00000000000E+00  0.17777126665E+03  0.21731917368E+03  0.12500000000E+03 0.  0.
<mgrwt>
<rscale>  0 0.12500000E+03</rscale>
<asrwt>0</asrwt>
<pdfrwt beam="1">  1       21 0.30391571E-01 0.12500000E+03</pdfrwt>
<pdfrwt beam="2">  1       21 0.30421468E-02 0.12500000E+03</pdfrwt>
<totfact> 0.63097608E+06</totfact>
</mgrwt>
</event>
<event>
 3    1  0.1595726E-001  0.1250000E+03  0.7546771E-02  0.1235069E+00
         21   -1    0    0  502  501  0.00000000000E+00  0.00000000000E+00  0.82408483591E+02  0.82408483591E+02  0.00000000000E+00 0. -1.
         21   -1    0    0  501  502 -0.00000000000E+00 -0.00000000000E+00 -0.47401066368E+02  0.47401066368E+02  0.00000000000E+00 0. -1.
         25    1    1    2    0    0  0.00000000000E+00  0.00000000000E+00  0.35007417223E+02  0.12980954996E+03  0.12500000000E+03 0.  0.
<mgrwt>
<rscale>  0 0.12500000E+03</rscale>
<asrwt>0</asrwt>
<pdfrwt beam="1">  1       21 0.12678228E-01 0.12500000E+03</pdfrwt>
<pdfrwt beam="2">  1       21 0.72924718E-02 0.12500000E+03</pdfrwt>
<totfact> 0.73390379E+06</totfact>
</mgrwt>
</event>
<event>
 3    1  0.1595726E-001  0.1250000E+03  0.7546771E-02  0.1235069E+00
         21   -1    0    0  502  501  0.00000000000E+00  0.00000000000E+00  0.11846268728E+03  0.11846268728E+03  0.00000000000E+00 0.  1.
         21   -1    0    0  501  502 -0.00000000000E+00 -0.00000000000E+00 -0.32974517882E+02  0.32974517882E+02  0.00000000000E+00 0.  1.
         25    1    1    2    0    0  0.00000000000E+00  0.00000000000E+00  0.85488169395E+02  0.15143720516E+03  0.12500000000E+03 0.  0.
<mgrwt>
<rscale>  0 0.12500000E+03</rscale>
<asrwt>0</asrwt>
<pdfrwt beam="1">  1       21 0.18225029E-01 0.12500000E+03</pdfrwt>
<pdfrwt beam="2">  1       21 0.50730028E-02 0.12500000E+03</pdfrwt>
<totfact> 0.70579126E+06</totfact>
</mgrwt>
</event>
<event>
 3    1  0.1595726E-001  0.1250000E+03  0.7546771E-02  0.1235069E+00
         21   -1    0    0  502  501  0.00000000000E+00  0.00000000000E+00  0.16366224132E+03  0.16366224132E+03  0.00000000000E+00 0. -1.
         21   -1    0    0  501  502 -0.00000000000E+00 -0.00000000000E+00 -0.23867753298E+02  0.23867753298E+02  0.00000000000E+00 0. -1.
         25    1    1    2    0    0  0.00000000000E+00  0.00000000000E+00  0.13979448802E+03  0.18752999462E+03  0.12500000000E+03 0.  0.
<mgrwt>
<rscale>  0 0.12500000E+03</rscale>
<asrwt>0</asrwt>
<pdfrwt beam="1">  1       21 0.25178806E-01 0.12500000E+03</pdfrwt>
<pdfrwt beam="2">  1       21 0.36719622E-02 0.12500000E+03</pdfrwt>
<totfact> 0.66298040E+06</totfact>
</mgrwt>
</event>
<event>
 3    1  0.1595726E-001  0.1250000E+03  0.7546771E-02  0.1235069E+00
         21   -1    0    0  502  501  0.00000000000E+00  0.00000000000E+00  0.10256185059E+02  0.10256185059E+02  0.00000000000E+00 0. -1.
         21   -1    0    0  501  502 -0.00000000000E+00 -0.00000000000E+00 -0.38086773762E+03  0.38086773762E+03  0.00000000000E+00 0. -1.
         25    1    1    2    0    0  0.00000000000E+00  0.00000000000E+00 -0.37061155256E+03  0.39112392268E+03  0.12500000000E+03 0.  0.
<mgrwt>
<rscale>  0 0.12500000E+03</rscale>
<asrwt>0</asrwt>
<pdfrwt beam="1">  1       21 0.15778746E-02 0.12500000E+03</pdfrwt>
<pdfrwt beam="2">  1       21 0.58595039E-01 0.12500000E+03</pdfrwt>
<totfact> 0.48635716E+06</totfact>
</mgrwt>
</event>
<event>
 3    1  0.1595726E-001  0.1250000E+03  0.7546771E-02  0.1235069E+00
         21   -1    0    0  502  501  0.00000000000E+00  0.00000000000E+00  0.16185661168E+03  0.16185661168E+03  0.00000000000E+00 0. -1.
         21   -1    0    0  501  502 -0.00000000000E+00 -0.00000000000E+00 -0.24134015654E+02  0.24134015654E+02  0.00000000000E+00 0. -1.
         25    1    1    2    0    0  0.00000000000E+00  0.00000000000E+00  0.13772259602E+03  0.18599062733E+03  0.12500000000E+03 0.  0.
<mgrwt>
<rscale>  0 0.12500000E+03</rscale>
<asrwt>0</asrwt>
<pdfrwt beam="1">  1       21 0.24901016E-01 0.12500000E+03</pdfrwt>
<pdfrwt beam="2">  1       21 0.37129256E-02 0.12500000E+03</pdfrwt>
<totfact> 0.66470867E+06</totfact>
</mgrwt>
</event>
<event>
 3    1  0.1595726E-001  0.1250000E+03  0.7546771E-02  0.1235069E+00
         21   -1    0    0  502  501  0.00000000000E+00  0.00000000000E+00  0.82311930434E+01  0.82311930434E+01  0.00000000000E+00 0.  1.
         21   -1    0    0  501  502 -0.00000000000E+00 -0.00000000000E+00 -0.47456668546E+03  0.47456668546E+03  0.00000000000E+00 0.  1.
         25    1    1    2    0    0  0.00000000000E+00  0.00000000000E+00 -0.46633549242E+03  0.48279787851E+03  0.12500000000E+03 0.  0.
<mgrwt>
<rscale>  0 0.12500000E+03</rscale>
<asrwt>0</asrwt>
<pdfrwt beam="1">  1       21 0.12663375E-02 0.12500000E+03</pdfrwt>
<pdfrwt beam="2">  1       21 0.73010255E-01 0.12500000E+03</pdfrwt>
<totfact> 0.42992614E+06</totfact>
</mgrwt>
</event>
<event>
 3    1  0.1595726E-001  0.1250000E+03  0.7546771E-02  0.1235069E+00
         21   -1    0    0  502  501  0.00000000000E+00  0.00000000000E+00  0.54069516787E+03  0.54069516787E+03  0.00000000000E+00 0.  1.
         21   -1    0    0  501  502 -0.00000000000E+00 -0.00000000000E+00 -0.72244958567E+01  0.72244958567E+01  0.00000000000E+00 0.  1.
         25    1    1    2    0    0  0.00000000000E+00  0.00000000000E+00  0.53347067201E+03  0.54791966373E+03  0.12500000000E+03 0.  0.
<mgrwt>
<rscale>  0 0.12500000E+03</rscale>
<asrwt>0</asrwt>
<pdfrwt beam="1">  1       21 0.83183840E-01 0.12500000E+03</pdfrwt>
<pdfrwt beam="2">  1       21 0.11114613E-02 0.12500000E+03</pdfrwt>
<totfact> 0.39559072E+06</totfact>
</mgrwt>
</event>
<event>
 3    1  0.1595726E-001  0.1250000E+03  0.7546771E-02  0.1235069E+00
         21   -1    0    0  502  501  0.00000000000E+00  0.00000000000E+00  0.46277326838E+02  0.46277326838E+02  0.00000000000E+00 0. -1.
         21   -1    0    0  501  502 -0.00000000000E+00 -0.00000000000E+00 -0.84409586008E+02  0.84409586008E+02  0.00000000000E+00 0. -1.
         25    1    1    2    0    0  0.00000000000E+00  0.00000000000E+00 -0.38132259170E+02  0.13068691285E+03  0.12500000000E+03 0.  0.
<mgrwt>
<rscale>  0 0.12500000E+03</rscale>
<asrwt>0</asrwt>
<pdfrwt beam="1">  1       21 0.71195888E-02 0.12500000E+03</pdfrwt>
<pdfrwt beam="2">  1       21 0.12986090E-01 0.12500000E+03</pdfrwt>
<totfact> 0.73272894E+06</totfact>
</mgrwt>
</event>
<event>
 3    1  0.1595726E-001  0.1250000E+03  0.7546771E-02  0.1235069E+00
         21   -1    0    0  502  501  0.00000000000E+00  0.00000000000E+00  0.46780170127E+02  0.46780170127E+02  0.00000000000E+00 0. -1.
         21   -1    0    0  501  502 -0.00000000000E+00 -0.00000000000E+00 -0.83502261522E+02  0.83502261522E+02  0.00000000000E+00 0. -1.
         25    1    1    2    0    0  0.00000000000E+00  0.00000000000E+00 -0.36722091395E+02  0.13028243165E+03  0.12500000000E+03 0.  0.
<mgrwt>
<rscale>  0 0.12500000E+03</rscale>
<asrwt>0</asrwt>
<pdfrwt beam="1">  1       21 0.71969493E-02 0.12500000E+03</pdfrwt>
<pdfrwt beam="2">  1       21 0.12846502E-01 0.12500000E+03</pdfrwt>
<totfact> 0.73327192E+06</totfact>
</mgrwt>
</event>
<event>
 3    1  0.1595726E-001  0.1250000E+03  0.7546771E-02  0.1235069E+00
         21   -1    0    0  502  501  0.00000000000E+00  0.00000000000E+00  0.54889600205E+02  0.54889600205E+02  0.00000000000E+00 0.  1.
         21   -1    0    0  501  502 -0.00000000000E+00 -0.00000000000E+00 -0.71165575727E+02  0.71165575727E+02  0.00000000000E+00 0.  1.
         25    1    1    2    0    0  0.00000000000E+00  0.00000000000E+00 -0.16275975522E+02  0.12605517593E+03  0.12500000000E+03 0.  0.
<mgrwt>
<rscale>  0 0.12500000E+03</rscale>
<asrwt>0</asrwt>
<pdfrwt beam="1">  1       21 0.84445539E-02 0.12500000E+03</pdfrwt>
<pdfrwt beam="2">  1       21 0.10948550E-01 0.12500000E+03</pdfrwt>
<totfact> 0.73898434E+06</totfact>
</mgrwt>
</event>
<event>
 3    1  0.1595726E-001  0.1250000E+03  0.7546771E-02  0.1235069E+00
         21   -1    0    0  502  501  0.00000000000E+00  0.00000000000E+00  0.24940083991E+03  0.24940083991E+03  0.00000000000E+00 0.  1.
         21   -1    0    0  501  502 -0.00000000000E+00 -0.00000000000E+00 -0.15662537469E+02  0.15662537469E+02  0.00000000000E+00 0.  1.
         25    1    1    2    0    0  0.00000000000E+00  0.00000000000E+00  0.23373830244E+03  0.26506337738E+03  0.12500000000E+03 0.  0.
<mgrwt>
<rscale>  0 0.12500000E+03</rscale>
<asrwt>0</asrwt>
<pdfrwt beam="1">  1       21 0.38369357E-01 0.12500000E+03</pdfrwt>
<pdfrwt beam="2">  1       21 0.24096213E-02 0.12500000E+03</pdfrwt>
<totfact> 0.58488273E+06</totfact>
</mgrwt>
</event>
<event>
 3    1  0.1595726E-001  0.1250000E+03  0.7546771E-02  0.1235069E+00
         21   -1    0    0  502  501  0.00000000000E+00  0.00000000000E+00  0.46287323251E+02  0.46287323251E+02  0.00000000000E+00 0. -1.
         21   -1    0    0  501  502 -0.00000000000E+00 -0.00000000000E+00 -0.84391356544E+02  0.84391356544E+02  0.00000000000E+00 0. -1.
         25    1    1    2    0    0  0.00000000000E+00  0.00000000000E+00 -0.38104033293E+02  0.13067867980E+03  0.12500000000E+03 0.  0.
<mgrwt>
<rscale>  0 0.12500000E+03</rscale>
<asrwt>0</asrwt>
<pdfrwt beam="1">  1       21 0.71211267E-02 0.12500000E+03</pdfrwt>
<pdfrwt beam="2">  1       21 0.12983285E-01 0.12500000E+03</pdfrwt>
<totfact> 0.73274005E+06</totfact>
</mgrwt>
</event>
<event>
 3    1  0.1595726E-001  0.1250000E+03  0.7546771E-02  0.1235069E+00
         21   -1    0    0  502  501  0.00000000000E+00  0.00000000000E+00  0.78786414000E+03  0.78786414000E+03  0.00000000000E+00 0. -1.
         21   -1    0    0  501  502 -0.00000000000E+00 -0.00000000000E+00 -0.49580248696E+01  0.49580248696E+01  0.00000000000E+00 0. -1.
         25    1    1    2    0    0  0.00000000000E+00  0.00000000000E+00  0.78290611513E+03  0.79282216487E+03  0.12500000000E+03 0.  0.
<mgrwt>
<rscale>  0 0.12500000E+03</rscale>
<asrwt>0</asrwt>
<pdfrwt beam="1">  1       21 0.12120977E+00 0.12500000E+03</pdfrwt>
<pdfrwt beam="2">  1       21 0.76277368E-03 0.12500000E+03</pdfrwt>
<totfact> 0.29602043E+06</totfact>
</mgrwt>
</event>
<event>
 3    1  0.1595726E-001  0.1250000E+03  0.7546771E-02  0.1235069E+00
         21   -1    0    0  502  501  0.00000000000E+00  0.00000000000E+00  0.55429880768E+02  0.55429880768E+02  0.00000000000E+00 0. -1.
         21   -1    0    0  501  502 -0.00000000000E+00 -0.00000000000E+00 -0.70471917780E+02  0.70471917780E+02  0.00000000000E+00 0. -1.
         25    1    1    2    0    0  0.00000000000E+00  0.00000000000E+00 -0.15042037012E+02  0.12590179855E+03  0.12500000000E+03 0.  0.
<mgrwt>
<rscale>  0 0.12500000E+03</rscale>
<asrwt>0</asrwt>
<pdfrwt beam="1">  1       21 0.85276740E-02 0.12500000E+03</pdfrwt>
<pdfrwt beam="2">  1       21 0.10841833E-01 0.12500000E+03</pdfrwt>
<totfact> 0.73919592E+06</totfact>
</mgrwt>
</event>
<event>
 3    1  0.1595726E-001  0.1250000E+03  0.7546771E-02  0.1235069E+00
         21   -1    0    0  502  501  0.00000000000E+00  0.00000000000E+00  0.12773807682E+02  0.12773807682E+02  0.00000000000E+00 0.  1.
         21   -1    0    0  501  502 -0.00000000000E+00 -0.00000000000E+00 -0.30580153523E+03  0.30580153523E+03  0.00000000000E+00 0.  1.
         25    1    1    2    0    0  0.00000000000E+00  0.00000000000E+00 -0.29302772755E+03  0.31857534292E+03  0.12500000000E+03 0.  0.
<mgrwt>
<rscale>  0 0.12500000E+03</rscale>
<asrwt>0</asrwt>
<pdfrwt beam="1">  1       21 0.19652011E-02 0.12500000E+03</pdfrwt>
<pdfrwt beam="2">  1       21 0.47046392E-01 0.12500000E+03</pdfrwt>
<totfact> 0.53946431E+06</totfact>
</mgrwt>
</event>
<event>
 3    1  0.1595726E-001  0.1250000E+03  0.7546771E-02  0.1235069E+00
         21   -1    0    0  502  501  0.00000000000E+00  0.00000000000E+00  0.19407871280E+01  0.19407871280E+01  0.00000000000E+00 0. -1.
         21   -1    0    0  501  502 -0.00000000000E+00 -0.00000000000E+00 -0.20127142970E+04  0.20127142970E+04  0.00000000000E+00 0. -1.
         25    1    1    2    0    0  0.00000000000E+00  0.00000000000E+00 -0.20107735099E+04  0.20146550842E+04  0.12500000000E+03 0.  0.
<mgrwt>
<rscale>  0 0.12500000E+03</rscale>
<asrwt>0</asrwt>
<pdfrwt beam="1">  1       21 0.29858373E-03 0.12500000E+03</pdfrwt>
<pdfrwt beam="2">  1       21 0.30964722E+00 0.12500000E+03</pdfrwt>
<totfact> 0.78059732E+05</totfact>
</mgrwt>
</event>
<event>
 3    1  0.1595726E-001  0.1250000E+03  0.7546771E-02  0.1235069E+00
         21   -1    0    0  502  501  0.00000000000E+00  0.00000000000E+00  0.38717443559E+02  0.38717443559E+02  0.00000000000E+00 0.  1.
         21   -1    0    0  501  502 -0.00000000000E+00 -0.00000000000E+00 -0.10089121701E+03  0.10089121701E+03  0.00000000000E+00 0.  1.
         25    1    1    2    0    0  0.00000000000E+00  0.00000000000E+00 -0.62173773448E+02  0.13960866056E+03  0.12500000000E+03 0.  0.
<mgrwt>
<rscale>  0 0.12500000E+03</rscale>
<asrwt>0</asrwt>
<pdfrwt beam="1">  1       21 0.59565300E-02 0.12500000E+03</pdfrwt>
<pdfrwt beam="2">  1       21 0.15521725E-01 0.12500000E+03</pdfrwt>
<totfact> 0.72090438E+06</totfact>
</mgrwt>
</event>
<event>
 3    1  0.1595726E-001  0.1250000E+03  0.7546771E-02  0.1235069E+00
         21   -1    0    0  502  501  0.00000000000E+00  0.00000000000E+00  0.61192711576E+01  0.61192711576E+01  0.00000000000E+00 0. -1.
         21   -1    0    0  501  502 -0.00000000000E+00 -0.00000000000E+00 -0.63835216636E+03  0.63835216636E+03  0.00000000000E+00 0. -1.
         25    1    1    2    0    0  0.00000000000E+00  0.00000000000E+00 -0.63223289520E+03  0.64447143751E+03  0.12500000000E+03 0.  0.
<mgrwt>
<rscale>  0 0.12500000E+03</rscale>
<asrwt>0</asrwt>
<pdfrwt beam="1">  1       21 0.94142672E-03 0.12500000E+03</pdfrwt>
<pdfrwt beam="2">  1       21 0.98207986E-01 0.12500000E+03</pdfrwt>
<totfact> 0.35155522E+06</totfact>
</mgrwt>
</event>
<event>
 3    1  0.1595726E-001  0.1250000E+03  0.7546771E-02  0.1235069E+00
         21   -1    0    0  502  501  0.00000000000E+00  0.00000000000E+00  0.15510228185E+02  0.15510228185E+02  0.00000000000E+00 0.  1.
         21   -1    0    0  501  502 -0.00000000000E+00 -0.00000000000E+00 -0.25184993757E+03  0.25184993757E+03  0.00000000000E+00 0.  1.
         25    1    1    2    0    0  0.00000000000E+00  0.00000000000E+00 -0.23633970939E+03  0.26736016576E+03  0.12500000000E+03 0.  0.
<mgrwt>
<rscale>  0 0.12500000E+03</rscale>
<asrwt>0</asrwt>
<pdfrwt beam="1">  1       21 0.23861891E-02 0.12500000E+03</pdfrwt>
<pdfrwt beam="2">  1       21 0.38746141E-01 0.12500000E+03</pdfrwt>
<totfact> 0.58281173E+06</totfact>
</mgrwt>
</event>
<event>
 3    1  0.1595726E-001  0.1250000E+03  0.7546771E-02  0.1235069E+00
         21   -1    0    0  502  501  0.00000000000E+00  0.00000000000E+00  0.10412779872E+02  0.10412779872E+02  0.00000000000E+00 0. -1.
         21   -1    0    0  501  502 -0.00000000000E+00 -0.00000000000E+00 -0.37513997683E+03  0.37513997683E+03  0.00000000000E+00 0. -1.
         25    1    1    2    0    0  0.00000000000E+00  0.00000000000E+00 -0.36472719696E+03  0.38555275670E+03  0.12500000000E+03 0.  0.
<mgrwt>
<rscale>  0 0.12500000E+03</rscale>
<asrwt>0</asrwt>
<pdfrwt beam="1">  1       21 0.16019659E-02 0.12500000E+03</pdfrwt>
<pdfrwt beam="2">  1       21 0.57713850E-01 0.12500000E+03</pdfrwt>
<totfact> 0.49014615E+06</totfact>
</mgrwt>
</event>
<event>
 3    1  0.1595726E-001  0.1250000E+03  0.7546771E-02  0.1235069E+00
         21   -1    0    0  502  501  0.00000000000E+00  0.00000000000E+00  0.20818156204E+02  0.20818156204E+02  0.00000000000E+00 0. -1.
         21   -1    0    0  501  502 -0.00000000000E+00 -0.00000000000E+00 -0.18763669374E+03  0.18763669374E+03  0.00000000000E+00 0. -1.
         25    1    1    2    0    0  0.00000000000E+00  0.00000000000E+00 -0.16681853754E+03  0.20845484995E+03  0.12500000000E+03 0.  0.
<mgrwt>
<rscale>  0 0.12500000E+03</rscale>
<asrwt>0</asrwt>
<pdfrwt beam="1">  1       21 0.32027933E-02 0.12500000E+03</pdfrwt>
<pdfrwt beam="2">  1       21 0.28867183E-01 0.12500000E+03</pdfrwt>
<totfact> 0.64022470E+06</totfact>
</mgrwt>
</event>
<event>
 3    1  0.1595726E-001  0.1250000E+03  0.7546771E-02  0.1235069E+00
         21   -1    0    0  502  501  0.00000000000E+00  0.00000000000E+00  0.54726343698E+02  0.54726343698E+02  0.00000000000E+00 0.  1.
         21   -1    0    0  501  502 -0.00000000000E+00 -0.00000000000E+00 -0.71377872813E+02  0.71377872813E+02  0.00000000000E+00 0.  1.
         25    1    1    2    0    0  0.00000000000E+00  0.00000000000E+00 -0.16651529115E+02  0.12610421651E+03  0.12500000000E+03 0.  0.
<mgrwt>
<rscale>  0 0.12500000E+03</rscale>
<asrwt>0</asrwt>
<pdfrwt beam="1">  1       21 0.84194374E-02 0.12500000E+03</pdfrwt>
<pdfrwt beam="2">  1       21 0.10981211E-01 0.12500000E+03</pdfrwt>
<totfact> 0.73891682E+06</totfact>
</mgrwt>
</event>
<event>
 3    1  0.1595726E-001  0.1250000E+03  0.7546771E-02  0.1235069E+00
         21   -1    0    0  502  501  0.00000000000E+00  0.00000000000E+00  0.45905941861E+03  0.45905941861E+03  0.00000000000E+00 0.  1.
         21   -1    0    0  501  502 -0.00000000000E+00 -0.00000000000E+00 -0.85092470421E+01  0.85092470421E+01  0.00000000000E+00 0.  1.
         25    1    1    2    0    0  0.00000000000E+00  0.00000000000E+00  0.45055017157E+03  0.46756866566E+03  0.12500000000E+03 0.  0.
<mgrwt>
<rscale>  0 0.12500000E+03</rscale>
<asrwt>0</asrwt>
<pdfrwt beam="1">  1       21 0.70624507E-01 0.12500000E+03</pdfrwt>
<pdfrwt beam="2">  1       21 0.13091153E-02 0.12500000E+03</pdfrwt>
<totfact> 0.43859333E+06</totfact>
</mgrwt>
</event>
<event>
 3    1  0.1595726E-001  0.1250000E+03  0.7546771E-02  0.1235069E+00
         21   -1    0    0  502  501  0.00000000000E+00  0.00000000000E+00  0.23066884100E+03  0.23066884100E+03  0.00000000000E+00 0.  1.
         21   -1    0    0  501  502 -0.00000000000E+00 -0.00000000000E+00 -0.16934450198E+02  0.16934450198E+02  0.00000000000E+00 0.  1.
         25    1    1    2    0    0  0.00000000000E+00  0.00000000000E+00  0.21373439080E+03  0.24760329119E+03  0.12500000000E+03 0.  0.
<mgrwt>
<rscale>  0 0.12500000E+03</rscale>
<asrwt>0</asrwt>
<pdfrwt beam="1">  1       21 0.35487512E-01 0.12500000E+03</pdfrwt>
<pdfrwt beam="2">  1       21 0.26053002E-02 0.12500000E+03</pdfrwt>
<totfact> 0.60104573E+06</totfact>
</mgrwt>
</event>
<event>
 3    1  0.1595726E-001  0.1250000E+03  0.7546771E-02  0.1235069E+00
         21   -1    0    0  502  501  0.00000000000E+00  0.00000000000E+00  0.10523768185E+03  0.10523768185E+03  0.00000000000E+00 0.  1.
         21   -1    0    0  501  502 -0.00000000000E+00 -0.00000000000E+00 -0.37118358474E+02  0.37118358474E+02  0.00000000000E+00 0.  1.
         25    1    1    2    0    0  0.00000000000E+00  0.00000000000E+00  0.68119323379E+02  0.14235604033E+03  0.12500000000E+03 0.  0.
<mgrwt>
<rscale>  0 0.12500000E+03</rscale>
<asrwt>0</asrwt>
<pdfrwt beam="1">  1       21 0.16190412E-01 0.12500000E+03</pdfrwt>
<pdfrwt beam="2">  1       21 0.57105167E-02 0.12500000E+03</pdfrwt>
<totfact> 0.71733205E+06</totfact>
</mgrwt>
</event>
<event>
 3    1  0.1595726E-001  0.1250000E+03  0.7546771E-02  0.1235069E+00
         21   -1    0    0  502  501  0.00000000000E+00  0.00000000000E+00  0.14941997276E+02  0.14941997276E+02  0.00000000000E+00 0. -1.
         21   -1    0    0  501  502 -0.00000000000E+00 -0.00000000000E+00 -0.26142756740E+03  0.26142756740E+03  0.00000000000E+00 0. -1.
         25    1    1    2    0    0  0.00000000000E+00  0.00000000000E+00 -0.24648557012E+03  0.27636956467E+03  0.12500000000E+03 0.  0.
<mgrwt>
<rscale>  0 0.12500000E+03</rscale>
<asrwt>0</asrwt>
<pdfrwt beam="1">  1       21 0.22987690E-02 0.12500000E+03</pdfrwt>
<pdfrwt beam="2">  1       21 0.40219623E-01 0.12500000E+03</pdfrwt>
<totfact> 0.57478965E+06</totfact>
</mgrwt>
</event>
<event>
 3    1  0.1595726E-001  0.1250000E+03  0.7546771E-02  0.1235069E+00
         21   -1    0    0  502  501  0.00000000000E+00  0.00000000000E+00  0.10293631158E+02  0.10293631158E+02  0.00000000000E+00 0.  1.
         21   -1    0    0  501  502 -0.00000000000E+00 -0.00000000000E+00 -0.37948221962E+03  0.37948221962E+03  0.00000000000E+00 0.  1.
         25    1    1    2    0    0  0.00000000000E+00  0.00000000000E+00 -0.36918858847E+03  0.38977585078E+03  0.12500000000E+03 0.  0.
<mgrwt>
<rscale>  0 0.12500000E+03</rscale>
<asrwt>0</asrwt>
<pdfrwt beam="1">  1       21 0.15836359E-02 0.12500000E+03</pdfrwt>
<pdfrwt beam="2">  1       21 0.58381868E-01 0.12500000E+03</pdfrwt>
<totfact> 0.48726988E+06</totfact>
</mgrwt>
</event>
<event>
 3    1  0.1595726E-001  0.1250000E+03  0.7546771E-02  0.1235069E+00
         21   -1    0    0  502  501  0.00000000000E+00  0.00000000000E+00  0.28042814984E+03  0.28042814984E+03  0.00000000000E+00 0.  1.
         21   -1    0    0  501  502 -0.00000000000E+00 -0.00000000000E+00 -0.13929593025E+02  0.13929593025E+02  0.00000000000E+00 0.  1.
         25    1    1    2    0    0  0.00000000000E+00  0.00000000000E+00  0.26649855681E+03  0.29435774286E+03  0.12500000000E+03 0.  0.
<mgrwt>
<rscale>  0 0.12500000E+03</rscale>
<asrwt>0</asrwt>
<pdfrwt beam="1">  1       21 0.43142788E-01 0.12500000E+03</pdfrwt>
<pdfrwt beam="2">  1       21 0.21430145E-02 0.12500000E+03</pdfrwt>
<totfact> 0.55928353E+06</totfact>
</mgrwt>
</event>
<event>
 3    1  0.1595726E-001  0.1250000E+03  0.7546771E-02  0.1235069E+00
         21   -1    0    0  502  501  0.00000000000E+00  0.00000000000E+00  0.12206998958E+02  0.12206998958E+02  0.00000000000E+00 0.  1.
         21   -1    0    0  501  502 -0.00000000000E+00 -0.00000000000E+00 -0.32000084652E+03  0.32000084652E+03  0.00000000000E+00 0.  1.
         25    1    1    2    0    0  0.00000000000E+00  0.00000000000E+00 -0.30779384756E+03  0.33220784548E+03  0.12500000000E+03 0.  0.
<mgrwt>
<rscale>  0 0.12500000E+03</rscale>
<asrwt>0</asrwt>
<pdfrwt beam="1">  1       21 0.18780000E-02 0.12500000E+03</pdfrwt>
<pdfrwt beam="2">  1       21 0.49230896E-01 0.12500000E+03</pdfrwt>
<totfact> 0.52879895E+06</totfact>
</mgrwt>
</event>
<event>
 3    1  0.1595726E-001  0.1250000E+03  0.7546771E-02  0.1235069E+00
         21   -1    0    0  502  501  0.00000000000E+00  0.00000000000E+00  0.22096628370E+01  0.22096628370E+01  0.00000000000E+00 0. -1.
         21   -1    0    0  501  502 -0.00000000000E+00 -0.00000000000E+00 -0.17678036371E+04  0.17678036371E+04  0.00000000000E+00 0. -1.
         25    1    1    2    0    0  0.00000000000E+00  0.00000000000E+00 -0.17655939743E+04  0.17700132999E+04  0.12500000000E+03 0.  0.
<mgrwt>
<rscale>  0 0.12500000E+03</rscale>
<asrwt>0</asrwt>
<pdfrwt beam="1">  1       21 0.33994885E-03 0.12500000E+03</pdfrwt>
<pdfrwt beam="2">  1       21 0.27196921E+00 0.12500000E+03</pdfrwt>
<totfact> 0.10419403E+06</totfact>
</mgrwt>
</event>
<event>
 3    1  0.1595726E-001  0.1250000E+03  0.7546771E-02  0.1235069E+00
         21   -1    0    0  502  501  0.00000000000E+00  0.00000000000E+00  0.21900768335E+03  0.21900768335E+03  0.00000000000E+00 0.  1.
         21   -1    0    0  501  502 -0.00000000000E+00 -0.00000000000E+00 -0.17836132232E+02  0.17836132232E+02  0.00000000000E+00 0.  1.
         25    1    1    2    0    0  0.00000000000E+00  0.00000000000E+00  0.20117155112E+03  0.23684381558E+03  0.12500000000E+03 0.  0.
<mgrwt>
<rscale>  0 0.12500000E+03</rscale>
<asrwt>0</asrwt>
<pdfrwt beam="1">  1       21 0.33693488E-01 0.12500000E+03</pdfrwt>
<pdfrwt beam="2">  1       21 0.27440205E-02 0.12500000E+03</pdfrwt>
<totfact> 0.61139424E+06</totfact>
</mgrwt>
</event>
<event>
 3    1  0.1595726E-001  0.1250000E+03  0.7546771E-02  0.1235069E+00
         21   -1    0    0  502  501  0.00000000000E+00  0.00000000000E+00  0.32048493299E+02  0.32048493299E+02  0.00000000000E+00 0. -1.
         21   -1    0    0  501  502 -0.00000000000E+00 -0.00000000000E+00 -0.12188560515E+03  0.12188560515E+03  0.00000000000E+00 0. -1.
         25    1    1    2    0    0  0.00000000000E+00  0.00000000000E+00 -0.89837111855E+02  0.15393409845E+03  0.12500000000E+03 0.  0.
<mgrwt>
<rscale>  0 0.12500000E+03</rscale>
<asrwt>0</asrwt>
<pdfrwt beam="1">  1       21 0.49305374E-02 0.12500000E+03</pdfrwt>
<pdfrwt beam="2">  1       21 0.18751632E-01 0.12500000E+03</pdfrwt>
<totfact> 0.70268379E+06</totfact>
</mgrwt>
</event>
<event>
 3    1  0.1595726E-001  0.1250000E+03  0.7546771E-02  0.1235069E+00
         21   -1    0    0  502  501  0.00000000000E+00  0.00000000000E+00  0.17472875986E+04  0.17472875986E+04  0.00000000000E+00 0.  1.
         21   -1    0    0  501  502 -0.00000000000E+00 -0.00000000000E+00 -0.22356079235E+01  0.22356079235E+01  0.00000000000E+00 0.  1.
         25    1    1    2    0    0  0.00000000000E+00  0.00000000000E+00  0.17450519907E+04  0.17495232065E+04  0.12500000000E+03 0.  0.
<mgrwt>
<rscale>  0 0.12500000E+03</rscale>
<asrwt>0</asrwt>
<pdfrwt beam="1">  1       21 0.26881239E+00 0.12500000E+03</pdfrwt>
<pdfrwt beam="2">  1       21 0.34394108E-03 0.12500000E+03</pdfrwt>
<totfact> 0.10663349E+06</totfact>
</mgrwt>
</event>
<event>
 3    1  0.1595726E-001  0.1250000E+03  0.7546771E-02  0.1235069E+00
         21   -1    0    0  502  501  0.00000000000E+00  0.00000000000E+00  0.65534365595E+02  0.65534365595E+02  0.00000000000E+00 0.  1.
         21   -1    0    0  501  502 -0.00000000000E+00 -0.00000000000E+00 -0.59606131295E+02  0.59606131295E+02  0.00000000000E+00 0.  1.
         25    1    1    2    0    0  0.00000000000E+00  0.00000000000E+00  0.59282342998E+01  0.12514049689E+03  0.12500000000E+03 0.  0.
<mgrwt>
<rscale>  0 0.12500000E+03</rscale>
<asrwt>0</asrwt>
<pdfrwt beam="1">  1       21 0.10082210E-01 0.12500000E+03</pdfrwt>
<pdfrwt beam="2">  1       21 0.91701741E-02 0.12500000E+03</pdfrwt>
<totfact> 0.74024607E+06</totfact>
</mgrwt>
</event>
<event>
 3    1  0.1595726E-001  0.1250000E+03  0.7546771E-02  0.1235069E+00
         21   -1    0    0  502  501  0.00000000000E+00  0.00000000000E+00  0.38688757251E+02  0.38688757251E+02  0.00000000000E+00 0.  1.
         21   -1    0    0  501  502 -0.00000000000E+00 -0.00000000000E+00 -0.10096602418E+03  0.10096602418E+03  0.00000000000E+00 0.  1.
         25    1    1    2    0    0  0.00000000000E+00  0.00000000000E+00 -0.62277266926E+02  0.13965478143E+03  0.12500000000E+03 0.  0.
<mgrwt>
<rscale>  0 0.12500000E+03</rscale>
<asrwt>0</asrwt>
<pdfrwt beam="1">  1       21 0.59521165E-02 0.12500000E+03</pdfrwt>
<pdfrwt beam="2">  1       21 0.15533234E-01 0.12500000E+03</pdfrwt>
<totfact> 0.72084408E+06</totfact>
</mgrwt>
</event>
<event>
 3    1  0.1595726E-001  0.1250000E+03  0.7546771E-02  0.1235069E+00
         21   -1    0    0  502  501  0.00000000000E+00  0.00000000000E+00  0.89101320921E+03  0.89101320921E+03  0.00000000000E+00 0. -1.
         21   -1    0    0  501  502 -0.00000000000E+00 -0.00000000000E+00 -0.43840539732E+01  0.43840539732E+01  0.00000000000E+00 0. -1.
         25    1    1    2    0    0  0.00000000000E+00  0.00000000000E+00  0.88662915523E+03  0.89539726318E+03  0.12500000000E+03 0.  0.
<mgrwt>
<rscale>  0 0.12500000E+03</rscale>
<asrwt>0</asrwt>
<pdfrwt beam="1">  1       21 0.13707881E+00 0.12500000E+03</pdfrwt>
<pdfrwt beam="2">  1       21 0.67447055E-03 0.12500000E+03</pdfrwt>
<totfact> 0.26431912E+06</totfact>
</mgrwt>
</event>
<event>
 3    1  0.1595726E-001  0.1250000E+03  0.7546771E-02  0.1235069E+00
         21   -1    0    0  502  501  0.00000000000E+00  0.00000000000E+00  0.10718828034E+03  0.10718828034E+03  0.00000000000E+00 0.  1.
         21   -1    0    0  501  502 -0.00000000000E+00 -0.00000000000E+00 -0.36442883378E+02  0.36442883378E+02  0.00000000000E+00 0.  1.
         25    1    1    2    0    0  0.00000000000E+00  0.00000000000E+00  0.70745396963E+02  0.14363116372E+03  0.12500000000E+03 0.  0.
<mgrwt>
<rscale>  0 0.12500000E+03</rscale>
<asrwt>0</asrwt>
<pdfrwt beam="1">  1       21 0.16490505E-01 0.12500000E+03</pdfrwt>
<pdfrwt beam="2">  1       21 0.56065975E-02 0.12500000E+03</pdfrwt>
<totfact> 0.71568740E+06</totfact>
</mgrwt>
</event>
<event>
 3    1  0.1595726E-001  0.1250000E+03  0.7546771E-02  0.1235069E+00
         21   -1    0    0  502  501  0.00000000000E+00  0.00000000000E+00  0.40189224688E+02  0.40189224688E+02  0.00000000000E+00 0. -1.
         21   -1    0    0  501  502 -0.00000000000E+00 -0.00000000000E+00 -0.97196450797E+02  0.97196450797E+02  0.00000000000E+00 0. -1.
         25    1    1    2    0    0  0.00000000000E+00  0.00000000000E+00 -0.57007226109E+02  0.13738567549E+03  0.12500000000E+03 0.  0.
<mgrwt>
<rscale>  0 0.12500000E+03</rscale>
<asrwt>0</asrwt>
<pdfrwt beam="1">  1       21 0.61829576E-02 0.12500000E+03</pdfrwt>
<pdfrwt beam="2">  1       21 0.14953300E-01 0.12500000E+03</pdfrwt>
<totfact> 0.72382107E+06</totfact>
</mgrwt>
</event>
<event>
 3    1  0.1595726E-001  0.1250000E+03  0.7546771E-02  0.1235069E+00
         21   -1    0    0  502  501  0.00000000000E+00  0.00000000000E+00  0.21756245010E+03  0.21756245010E+03  0.00000000000E+00 0. -1.
         21   -1    0    0  501  502 -0.00000000000E+00 -0.00000000000E+00 -0.17954614862E+02  0.17954614862E+02  0.00000000000E+00 0. -1.
         25    1    1    2    0    0  0.00000000000E+00  0.00000000000E+00  0.19960783523E+03  0.23551706496E+03  0.12500000000E+03 0.  0.
<mgrwt>
<rscale>  0 0.12500000E+03</rscale>
<asrwt>0</asrwt>
<pdfrwt beam="1">  1       21 0.33471144E-01 0.12500000E+03</pdfrwt>
<pdfrwt beam="2">  1       21 0.27622486E-02 0.12500000E+03</pdfrwt>
<totfact> 0.61269184E+06</totfact>
</mgrwt>
</event>
<event>
 3    1  0.1595726E-001  0.1250000E+03  0.7546771E-02  0.1235069E+00
         21   -1    0    0  502  501  0.00000000000E+00  0.00000000000E+00  0.51181130333E+03  0.51181130333E+03  0.00000000000E+00 0.  1.
         21   -1    0    0  501  502 -0.00000000000E+00 -0.00000000000E+00 -0.76322073675E+01  0.76322073675E+01  0.00000000000E+00 0.  1.
         25    1    1    2    0    0  0.00000000000E+00  0.00000000000E+00  0.50417909596E+03  0.51944351069E+03  0.12500000000E+03 0.  0.
<mgrwt>
<rscale>  0 0.12500000E+03</rscale>
<asrwt>0</asrwt>
<pdfrwt beam="1">  1       21 0.78740174E-01 0.12500000E+03</pdfrwt>
<pdfrwt beam="2">  1       21 0.11741861E-02 0.12500000E+03</pdfrwt>
<totfact> 0.41008871E+06</totfact>
</mgrwt>
</event>
<event>
 3    1  0.1595726E-001  0.1250000E+03  0.7546771E-02  0.1235069E+00
         21   -1    0    0  502  501  0.00000000000E+00  0.00000000000E+00  0.10007111502E+03  0.10007111502E+03  0.00000000000E+00 0.  1.
         21   -1    0    0  501  502 -0.00000000000E+00 -0.00000000000E+00 -0.39034740435E+02  0.39034740435E+02  0.00000000000E+00 0.  1.
         25    1    1    2    0    0  0.00000000000E+00  0.00000000000E+00  0.61036374588E+02  0.13910585546E+03  0.12500000000E+03 0.  0.
<mgrwt>
<rscale>  0 0.12500000E+03</rscale>
<asrwt>0</asrwt>
<pdfrwt beam="1">  1       21 0.15395556E-01 0.12500000E+03</pdfrwt>
<pdfrwt beam="2">  1       21 0.60053447E-02 0.12500000E+03</pdfrwt>
<totfact> 0.72156253E+06</totfact>
</mgrwt>
</event>
<event>
 3    1  0.1595726E-001  0.1250000E+03  0.7546771E-02  0.1235069E+00
         21   -1    0    0  502  501  0.00000000000E+00  0.00000000000E+00  0.13989323235E+03  0.13989323235E+03  0.00000000000E+00 0.  1.
         21   -1    0    0  501  502 -0.00000000000E+00 -0.00000000000E+00 -0.27923080583E+02  0.27923080583E+02  0.00000000000E+00 0.  1.
         25    1    1    2    0    0  0.00000000000E+00  0.00000000000E+00  0.11197015177E+03  0.16781631294E+03  0.12500000000E+03 0.  0.
<mgrwt>
<rscale>  0 0.12500000E+03</rscale>
<asrwt>0</asrwt>
<pdfrwt beam="1">  1       21 0.21522035E-01 0.12500000E+03</pdfrwt>
<pdfrwt beam="2">  1       21 0.42958586E-02 0.12500000E+03</pdfrwt>
<totfact> 0.68576815E+06</totfact>
</mgrwt>
</event>
<event>
 3    1  0.1595726E-001  0.1250000E+03  0.7546771E-02  0.1235069E+00
         21   -1    0    0  502  501  0.00000000000E+00  0.00000000000E+00  0.23229744126E+02  0.23229744126E+02  0.00000000000E+00 0. -1.
         21   -1    0    0  501  502 -0.00000000000E+00 -0.00000000000E+00 -0.16815725472E+03  0.16815725472E+03  0.00000000000E+00 0. -1.
         25    1    1    2    0    0  0.00000000000E+00  0.00000000000E+00 -0.14492751059E+03  0.19138699885E+03  0.12500000000E+03 0.  0.
<mgrwt>
<rscale>  0 0.12500000E+03</rscale>
<asrwt>0</asrwt>
<pdfrwt beam="1">  1       21 0.35738068E-02 0.12500000E+03</pdfrwt>
<pdfrwt beam="2">  1       21 0.25870347E-01 0.12500000E+03</pdfrwt>
<totfact> 0.65868643E+06</totfact>
</mgrwt>
</event>
<event>
 3    1  0.1595726E-001  0.1250000E+03  0.7546771E-02  0.1235069E+00
         21   -1    0    0  502  501  0.00000000000E+00  0.00000000000E+00  0.45542181227E+03  0.45542181227E+03  0.00000000000E+00 0. -1.
         21   -1    0    0  501  502 -0.00000000000E+00 -0.00000000000E+00 -0.85772132445E+01  0.85772132445E+01  0.00000000000E+00 0. -1.
         25    1    1    2    0    0  0.00000000000E+00  0.00000000000E+00  0.44684459902E+03  0.46399902551E+03  0.12500000000E+03 0.  0.
<mgrwt>
<rscale>  0 0.12500000E+03</rscale>
<asrwt>0</asrwt>
<pdfrwt beam="1">  1       21 0.70064875E-01 0.12500000E+03</pdfrwt>
<pdfrwt beam="2">  1       21 0.13195716E-02 0.12500000E+03</pdfrwt>
<totfact> 0.44066284E+06</totfact>
</mgrwt>
</event>
<event>
 3    1  0.1595726E-001  0.1250000E+03  0.7546771E-02  0.1235069E+00
         21   -1    0    0  502  501  0.00000000000E+00  0.00000000000E+00  0.11506501805E+03  0.11506501805E+03  0.00000000000E+00 0. -1.
         21   -1    0    0  501  502 -0.00000000000E+00 -0.00000000000E+00 -0.33948197864E+02  0.33948197864E+02  0.00000000000E+00 0. -1.
         25    1    1    2    0    0  0.00000000000E+00  0.00000000000E+00  0.81116820188E+02  0.14901321592E+03  0.12500000000E+03 0.  0.
<mgrwt>
<rscale>  0 0.12500000E+03</rscale>
<asrwt>0</asrwt>
<pdfrwt beam="1">  1       21 0.17702310E-01 0.12500000E+03</pdfrwt>
<pdfrwt beam="2">  1       21 0.52227997E-02 0.12500000E+03</pdfrwt>
<totfact> 0.70883380E+06</totfact>
</mgrwt>
</event>
<event>
 3    1  0.1595726E-001  0.1250000E+03  0.7546771E-02  0.1235069E+00
         21   -1    0    0  502  501  0.00000000000E+00  0.00000000000E+00  0.52766589366E+01  0.52766589366E+01  0.00000000000E+00 0. -1.
         21   -1    0    0  501  502 -0.00000000000E+00 -0.00000000000E+00 -0.74028851341E+03  0.74028851341E+03  0.00000000000E+00 0. -1.
         25    1    1    2    0    0  0.00000000000E+00  0.00000000000E+00 -0.73501185448E+03  0.74556517235E+03  0.12500000000E+03 0.  0.
<mgrwt>
<rscale>  0 0.12500000E+03</rscale>
<asrwt>0</asrwt>
<pdfrwt beam="1">  1       21 0.81179389E-03 0.12500000E+03</pdfrwt>
<pdfrwt beam="2">  1       21 0.11389051E+00 0.12500000E+03</pdfrwt>
<totfact> 0.31225462E+06</totfact>
</mgrwt>
</event>
<event>
 3    1  0.1595726E-001  0.1250000E+03  0.7546771E-02  0.1235069E+00
         21   -1    0    0  502  501  0.00000000000E+00  0.00000000000E+00  0.49510786022E+02  0.49510786022E+02  0.00000000000E+00 0.  1.
         21   -1    0    0  501  502 -0.00000000000E+00 -0.00000000000E+00 -0.78896949813E+02  0.78896949813E+02  0.00000000000E+00 0.  1.
         25    1    1    2    0    0  0.00000000000E+00  0.00000000000E+00 -0.29386163790E+02  0.12840773584E+03  0.12500000000E+03 0.  0.
<mgrwt>
<rscale>  0 0.12500000E+03</rscale>
<asrwt>0</asrwt>
<pdfrwt beam="1">  1       21 0.76170441E-02 0.12500000E+03</pdfrwt>
<pdfrwt beam="2">  1       21 0.12137992E-01 0.12500000E+03</pdfrwt>
<totfact> 0.73578551E+06</totfact>
</mgrwt>
</event>
<event>
 3    1  0.1595726E-001  0.1250000E+03  0.7546771E-02  0.1235069E+00
         21   -1    0    0  502  501  0.00000000000E+00  0.00000000000E+00  0.21060213379E+03  0.21060213379E+03  0.00000000000E+00 0.  1.
         21   -1    0    0  501  502 -0.00000000000E+00 -0.00000000000E+00 -0.18548007704E+02  0.18548007704E+02  0.00000000000E+00 0.  1.
         25    1    1    2    0    0  0.00000000000E+00  0.00000000000E+00  0.19205412609E+03  0.22915014150E+03  0.12500000000E+03 0.  0.
<mgrwt>
<rscale>  0 0.12500000E+03</rscale>
<asrwt>0</asrwt>
<pdfrwt beam="1">  1       21 0.32400327E-01 0.12500000E+03</pdfrwt>
<pdfrwt beam="2">  1       21 0.28535398E-02 0.12500000E+03</pdfrwt>
<totfact> 0.61898658E+06</totfact>
</mgrwt>
</event>
<event>
 3    1  0.1595726E-001  0.1250000E+03  0.7546771E-02  0.1235069E+00
         21   -1    0    0  502  501  0.00000000000E+00  0.00000000000E+00  0.15725684739E+03  0.15725684739E+03  0.00000000000E+00 0.  1.
         21   -1    0    0  501  502 -0.00000000000E+00 -0.00000000000E+00 -0.24839935843E+02  0.24839935843E+02  0.00000000000E+00 0.  1.
         25    1    1    2    0    0  0.00000000000E+00  0.00000000000E+00  0.13241691155E+03  0.18209678323E+03  0.12500000000E+03 0.  0.
<mgrwt>
<rscale>  0 0.12500000E+03</rscale>
<asrwt>0</asrwt>
<pdfrwt beam="1">  1       21 0.24193360E-01 0.12500000E+03</pdfrwt>
<pdfrwt beam="2">  1       21 0.38215287E-02 0.12500000E+03</pdfrwt>
<totfact> 0.66911811E+06</totfact>
</mgrwt>
</event>
<event>
 3    1  0.1595726E-001  0.1250000E+03  0.7546771E-02  0.1235069E+00
         21   -1    0    0  502  501  0.00000000000E+00  0.00000000000E+00  0.29320695591E+02  0.29320695591E+02  0.00000000000E+00 0. -1.
         21   -1    0    0  501  502 -0.00000000000E+00 -0.00000000000E+00 -0.13322501125E+03  0.13322501125E+03  0.00000000000E+00 0. -1.
         25    1    1    2    0    0  0.00000000000E+00  0.00000000000E+00 -0.10390431566E+03  0.16254570684E+03  0.12500000000E+03 0.  0.
<mgrwt>
<rscale>  0 0.12500000E+03</rscale>
<asrwt>0</asrwt>
<pdfrwt beam="1">  1       21 0.45108763E-02 0.12500000E+03</pdfrwt>
<pdfrwt beam="2">  1       21 0.20496155E-01 0.12500000E+03</pdfrwt>
<totfact> 0.69209768E+06</totfact>
</mgrwt>
</event>
<event>
 3    1  0.1595726E-001  0.1250000E+03  0.7546771E-02  0.1235069E+00
         21   -1    0    0  502  501  0.00000000000E+00  0.00000000000E+00  0.88198584664E+02  0.88198584664E+02  0.00000000000E+00 0.  1.
         21   -1    0    0  501  502 -0.00000000000E+00 -0.00000000000E+00 -0.44289259458E+02  0.44289259458E+02  0.00000000000E+00 0.  1.
         25    1    1    2    0    0  0.00000000000E+00  0.00000000000E+00  0.43909325207E+02  0.13248784412E+03  0.12500000000E+03 0.  0.
<mgrwt>
<rscale>  0 0.12500000E+03</rscale>
<asrwt>0</asrwt>
<pdfrwt beam="1">  1       21 0.13569013E-01 0.12500000E+03</pdfrwt>
<pdfrwt beam="2">  1       21 0.68137322E-02 0.12500000E+03</pdfrwt>
<totfact> 0.73030866E+06</totfact>
</mgrwt>
</event>
<event>
 3    1  0.1595726E-001  0.1250000E+03  0.7546771E-02  0.1235069E+00
         21   -1    0    0  502  501  0.00000000000E+00  0.00000000000E+00  0.12050201658E+03  0.12050201658E+03  0.00000000000E+00 0.  1.
         21   -1    0    0  501  502 -0.00000000000E+00 -0.00000000000E+00 -0.32416469954E+02  0.32416469954E+02  0.00000000000E+00 0.  1.
         25    1    1    2    0    0  0.00000000000E+00  0.00000000000E+00  0.88085546628E+02  0.15291848654E+03  0.12500000000E+03 0.  0.
<mgrwt>
<rscale>  0 0.12500000E+03</rscale>
<asrwt>0</asrwt>
<pdfrwt beam="1">  1       21 0.18538772E-01 0.12500000E+03</pdfrwt>
<pdfrwt beam="2">  1       21 0.49871493E-02 0.12500000E+03</pdfrwt>
<totfact> 0.70394482E+06</totfact>
</mgrwt>
</event>
<event>
 3    1  0.1595726E-001  0.1250000E+03  0.7546771E-02  0.1235069E+00
         21   -1    0    0  502  501  0.00000000000E+00  0.00000000000E+00  0.10653529654E+03  0.10653529654E+03  0.00000000000E+00 0.  1.
         21   -1    0    0  501  502 -0.00000000000E+00 -0.00000000000E+00 -0.36666251721E+02  0.36666251721E+02  0.00000000000E+00 0.  1.
         25    1    1    2    0    0  0.00000000000E+00  0.00000000000E+00  0.69869044815E+02  0.14320154826E+03  0.12500000000E+03 0.  0.
<mgrwt>
<rscale>  0 0.12500000E+03</rscale>
<asrwt>0</asrwt>
<pdfrwt beam="1">  1       21 0.16390045E-01 0.12500000E+03</pdfrwt>
<pdfrwt beam="2">  1       21 0.56409618E-02 0.12500000E+03</pdfrwt>
<totfact> 0.71624059E+06</totfact>
</mgrwt>
</event>
<event>
 3    1  0.1595726E-001  0.1250000E+03  0.7546771E-02  0.1235069E+00
         21   -1    0    0  502  501  0.00000000000E+00  0.00000000000E+00  0.11143208101E+02  0.11143208101E+02  0.00000000000E+00 0. -1.
         21   -1    0    0  501  502 -0.00000000000E+00 -0.00000000000E+00 -0.35054985644E+03  0.35054985644E+03  0.00000000000E+00 0. -1.
         25    1    1    2    0    0  0.00000000000E+00  0.00000000000E+00 -0.33940664834E+03  0.36169306454E+03  0.12500000000E+03 0.  0.
<mgrwt>
<rscale>  0 0.12500000E+03</rscale>
<asrwt>0</asrwt>
<pdfrwt beam="1">  1       21 0.17143402E-02 0.12500000E+03</pdfrwt>
<pdfrwt beam="2">  1       21 0.53930733E-01 0.12500000E+03</pdfrwt>
<totfact> 0.50686297E+06</totfact>
</mgrwt>
</event>
<event>
 3    1  0.1595726E-001  0.1250000E+03  0.7546771E-02  0.1235069E+00
         21   -1    0    0  502  501  0.00000000000E+00  0.00000000000E+00  0.91139699373E+01  0.91139699373E+01  0.00000000000E+00 0. -1.
         21   -1    0    0  501  502 -0.00000000000E+00 -0.00000000000E+00 -0.42860027265E+03  0.42860027265E+03  0.00000000000E+00 0. -1.
         25    1    1    2    0    0  0.00000000000E+00  0.00000000000E+00 -0.41948630271E+03  0.43771424258E+03  0.12500000000E+03 0.  0.
<mgrwt>
<rscale>  0 0.12500000E+03</rscale>
<asrwt>0</asrwt>
<pdfrwt beam="1">  1       21 0.14021489E-02 0.12500000E+03</pdfrwt>
<pdfrwt beam="2">  1       21 0.65938518E-01 0.12500000E+03</pdfrwt>
<totfact> 0.45636424E+06</totfact>
</mgrwt>
</event>
<event>
 3    1  0.1595726E-001  0.1250000E+03  0.7546771E-02  0.1235069E+00
         21   -1    0    0  502  501  0.00000000000E+00  0.00000000000E+00  0.11811232182E+03  0.11811232182E+03  0.00000000000E+00 0. -1.
         21   -1    0    0  501  502 -0.00000000000E+00 -0.00000000000E+00 -0.33072332673E+02  0.33072332673E+02  0.00000000000E+00 0. -1.
         25    1    1    2    0    0  0.00000000000E+00  0.00000000000E+00  0.85039989147E+02  0.15118465449E+03  0.12500000000E+03 0.  0.
<mgrwt>
<rscale>  0 0.12500000E+03</rscale>
<asrwt>0</asrwt>
<pdfrwt beam="1">  1       21 0.18171126E-01 0.12500000E+03</pdfrwt>
<pdfrwt beam="2">  1       21 0.50880512E-02 0.12500000E+03</pdfrwt>
<totfact> 0.70610703E+06</totfact>
</mgrwt>
</event>
<event>
 3    1  0.1595726E-001  0.1250000E+03  0.7546771E-02  0.1235069E+00
         21   -1    0    0  502  501  0.00000000000E+00  0.00000000000E+00  0.61085904232E+02  0.61085904232E+02  0.00000000000E+00 0. -1.
         21   -1    0    0  501  502 -0.00000000000E+00 -0.00000000000E+00 -0.63946831092E+02  0.63946831092E+02  0.00000000000E+00 0. -1.
         25    1    1    2    0    0  0.00000000000E+00  0.00000000000E+00 -0.28609268599E+01  0.12503273532E+03  0.12500000000E+03 0.  0.
<mgrwt>
<rscale>  0 0.12500000E+03</rscale>
<asrwt>0</asrwt>
<pdfrwt beam="1">  1       21 0.93978314E-02 0.12500000E+03</pdfrwt>
<pdfrwt beam="2">  1       21 0.98379740E-02 0.12500000E+03</pdfrwt>
<totfact> 0.74039160E+06</totfact>
</mgrwt>
</event>
<event>
 3    1  0.1595726E-001  0.1250000E+03  0.7546771E-02  0.1235069E+00
         21   -1    0    0  502  501  0.00000000000E+00  0.00000000000E+00  0.32709733365E+03  0.32709733365E+03  0.00000000000E+00 0. -1.
         21   -1    0    0  501  502 -0.00000000000E+00 -0.00000000000E+00 -0.11942163992E+02  0.11942163992E+02  0.00000000000E+00 0. -1.
         25    1    1    2    0    0  0.00000000000E+00  0.00000000000E+00  0.31515516966E+03  0.33903949765E+03  0.12500000000E+03 0.  0.
<mgrwt>
<rscale>  0 0.12500000E+03</rscale>
<asrwt>0</asrwt>
<pdfrwt beam="1">  1       21 0.50322660E-01 0.12500000E+03</pdfrwt>
<pdfrwt beam="2">  1       21 0.18372562E-02 0.12500000E+03</pdfrwt>
<totfact> 0.52358228E+06</totfact>
</mgrwt>
</event>
<event>
 3    1  0.1595726E-001  0.1250000E+03  0.7546771E-02  0.1235069E+00
         21   -1    0    0  502  501  0.00000000000E+00  0.00000000000E+00  0.17131892044E+03  0.17131892044E+03  0.00000000000E+00 0.  1.
         21   -1    0    0  501  502 -0.00000000000E+00 -0.00000000000E+00 -0.22801042581E+02  0.22801042581E+02  0.00000000000E+00 0.  1.
         25    1    1    2    0    0  0.00000000000E+00  0.00000000000E+00  0.14851787786E+03  0.19411996302E+03  0.12500000000E+03 0.  0.
<mgrwt>
<rscale>  0 0.12500000E+03</rscale>
<asrwt>0</asrwt>
<pdfrwt beam="1">  1       21 0.26356756E-01 0.12500000E+03</pdfrwt>
<pdfrwt beam="2">  1       21 0.35078528E-02 0.12500000E+03</pdfrwt>
<totfact> 0.65567469E+06</totfact>
</mgrwt>
</event>
<event>
 3    1  0.1595726E-001  0.1250000E+03  0.7546771E-02  0.1235069E+00
         21   -1    0    0  502  501  0.00000000000E+00  0.00000000000E+00  0.19606587186E+02  0.19606587186E+02  0.00000000000E+00 0.  1.
         21   -1    0    0  501  502 -0.00000000000E+00 -0.00000000000E+00 -0.19923151148E+03  0.19923151148E+03  0.00000000000E+00 0.  1.
         25    1    1    2    0    0  0.00000000000E+00  0.00000000000E+00 -0.17962492429E+03  0.21883809866E+03  0.12500000000E+03 0.  0.
<mgrwt>
<rscale>  0 0.12500000E+03</rscale>
<asrwt>0</asrwt>
<pdfrwt beam="1">  1       21 0.30163979E-02 0.12500000E+03</pdfrwt>
<pdfrwt beam="2">  1       21 0.30651003E-01 0.12500000E+03</pdfrwt>
<totfact> 0.62941494E+06</totfact>
</mgrwt>
</event>
<event>
 3    1  0.1595726E-001  0.1250000E+03  0.7546771E-02  0.1235069E+00
         21   -1    0    0  502  501  0.00000000000E+00  0.00000000000E+00  0.10210249713E+03  0.10210249713E+03  0.00000000000E+00 0. -1.
         21   -1    0    0  501  502 -0.00000000000E+00 -0.00000000000E+00 -0.38258124041E+02  0.38258124041E+02  0.00000000000E+00 0. -1.
         25    1    1    2    0    0  0.00000000000E+00  0.00000000000E+00  0.63844373088E+02  0.14036062117E+03  0.12500000000E+03 0.  0.
<mgrwt>
<rscale>  0 0.12500000E+03</rscale>
<asrwt>0</asrwt>
<pdfrwt beam="1">  1       21 0.15708076E-01 0.12500000E+03</pdfrwt>
<pdfrwt beam="2">  1       21 0.58858653E-02 0.12500000E+03</pdfrwt>
<totfact> 0.71992265E+06</totfact>
</mgrwt>
</event>
<event>
 3    1  0.1595726E-001  0.1250000E+03  0.7546771E-02  0.1235069E+00
         21   -1    0    0  502  501  0.00000000000E+00  0.00000000000E+00  0.99537805982E+01  0.99537805982E+01  0.00000000000E+00 0.  1.
         21   -1    0    0  501  502 -0.00000000000E+00 -0.00000000000E+00 -0.39243882879E+03  0.39243882879E+03  0.00000000000E+00 0.  1.
         25    1    1    2    0    0  0.00000000000E+00  0.00000000000E+00 -0.38248504819E+03  0.40239260939E+03  0.12500000000E+03 0.  0.
<mgrwt>
<rscale>  0 0.12500000E+03</rscale>
<asrwt>0</asrwt>
<pdfrwt beam="1">  1       21 0.15313509E-02 0.12500000E+03</pdfrwt>
<pdfrwt beam="2">  1       21 0.60375201E-01 0.12500000E+03</pdfrwt>
<totfact> 0.47883057E+06</totfact>
</mgrwt>
</event>
<event>
 3    1  0.1595726E-001  0.1250000E+03  0.7546771E-02  0.1235069E+00
         21   -1    0    0  502  501  0.00000000000E+00  0.00000000000E+00  0.14987971205E+03  0.14987971205E+03  0.00000000000E+00 0. -1.
         21   -1    0    0  501  502 -0.00000000000E+00 -0.00000000000E+00 -0.26062566752E+02  0.26062566752E+02  0.00000000000E+00 0. -1.
         25    1    1    2    0    0  0.00000000000E+00  0.00000000000E+00  0.12381714529E+03  0.17594227880E+03  0.12500000000E+03 0.  0.
<mgrwt>
<rscale>  0 0.12500000E+03</rscale>
<asrwt>0</asrwt>
<pdfrwt beam="1">  1       21 0.23058417E-01 0.12500000E+03</pdfrwt>
<pdfrwt beam="2">  1       21 0.40096257E-02 0.12500000E+03</pdfrwt>
<totfact> 0.67620102E+06</totfact>
</mgrwt>
</event>
<event>
 3    1  0.1595726E-001  0.1250000E+03  0.7546771E-02  0.1235069E+00
         21   -1    0    0  502  501  0.00000000000E+00  0.00000000000E+00  0.25050500044E+02  0.25050500044E+02  0.00000000000E+00 0. -1.
         21   -1    0    0  501  502 -0.00000000000E+00 -0.00000000000E+00 -0.15593501100E+03  0.15593501100E+03  0.00000000000E+00 0. -1.
         25    1    1    2    0    0  0.00000000000E+00  0.00000000000E+00 -0.13088451096E+03  0.18098551105E+03  0.12500000000E+03 0.  0.
<mgrwt>
<rscale>  0 0.12500000E+03</rscale>
<asrwt>0</asrwt>
<pdfrwt beam="1">  1       21 0.38539231E-02 0.12500000E+03</pdfrwt>
<pdfrwt beam="2">  1       21 0.23990001E-01 0.12500000E+03</pdfrwt>
<totfact> 0.67038661E+06</totfact>
</mgrwt>
</event>
<event>
 3    1  0.1595726E-001  0.1250000E+03  0.7546771E-02  0.1235069E+00
         21   -1    0    0  502  501  0.00000000000E+00  0.00000000000E+00  0.77035786348E+02  0.77035786348E+02  0.00000000000E+00 0.  1.
         21   -1    0    0  501  502 -0.00000000000E+00 -0.00000000000E+00 -0.50706953030E+02  0.50706953030E+02  0.00000000000E+00 0.  1.
         25    1    1    2    0    0  0.00000000000E+00  0.00000000000E+00  0.26328833318E+02  0.12774273938E+03  0.12500000000E+03 0.  0.
<mgrwt>
<rscale>  0 0.12500000E+03</rscale>
<asrwt>0</asrwt>
<pdfrwt beam="1">  1       21 0.11851659E-01 0.12500000E+03</pdfrwt>
<pdfrwt beam="2">  1       21 0.78010697E-02 0.12500000E+03</pdfrwt>
<totfact> 0.73668341E+06</totfact>
</mgrwt>
</event>
<event>
 3    1  0.1595726E-001  0.1250000E+03  0.7546771E-02  0.1235069E+00
         21   -1    0    0  502  501  0.00000000000E+00  0.00000000000E+00  0.10506636557E+02  0.10506636557E+02  0.00000000000E+00 0.  1.
         21   -1    0    0  501  502 -0.00000000000E+00 -0.00000000000E+00 -0.37178881927E+03  0.37178881927E+03  0.00000000000E+00 0.  1.
         25    1    1    2    0    0  0.00000000000E+00  0.00000000000E+00 -0.36128218271E+03  0.38229545583E+03  0.12500000000E+03 0.  0.
<mgrwt>
<rscale>  0 0.12500000E+03</rscale>
<asrwt>0</asrwt>
<pdfrwt beam="1">  1       21 0.16164055E-02 0.12500000E+03</pdfrwt>
<pdfrwt beam="2">  1       21 0.57198283E-01 0.12500000E+03</pdfrwt>
<totfact> 0.49238243E+06</totfact>
</mgrwt>
</event>
<event>
 3    1  0.1595726E-001  0.1250000E+03  0.7546771E-02  0.1235069E+00
         21   -1    0    0  502  501  0.00000000000E+00  0.00000000000E+00  0.59434759856E+02  0.59434759856E+02  0.00000000000E+00 0. -1.
         21   -1    0    0  501  502 -0.00000000000E+00 -0.00000000000E+00 -0.65723324355E+02  0.65723324355E+02  0.00000000000E+00 0. -1.
         25    1    1    2    0    0  0.00000000000E+00  0.00000000000E+00 -0.62885644987E+01  0.12515808421E+03  0.12500000000E+03 0.  0.
<mgrwt>
<rscale>  0 0.12500000E+03</rscale>
<asrwt>0</asrwt>
<pdfrwt beam="1">  1       21 0.91438093E-02 0.12500000E+03</pdfrwt>
<pdfrwt beam="2">  1       21 0.10111281E-01 0.12500000E+03</pdfrwt>
<totfact> 0.74022232E+06</totfact>
</mgrwt>
</event>
<event>
 3    1  0.1595726E-001  0.1250000E+03  0.7546771E-02  0.1235069E+00
         21   -1    0    0  502  501  0.00000000000E+00  0.00000000000E+00  0.28577075859E+04  0.28577075859E+04  0.00000000000E+00 0. -1.
         21   -1    0    0  501  502 -0.00000000000E+00 -0.00000000000E+00 -0.13669173219E+01  0.13669173219E+01  0.00000000000E+00 0. -1.
         25    1    1    2    0    0  0.00000000000E+00  0.00000000000E+00  0.28563406685E+04  0.28590745032E+04  0.12500000000E+03 0.  0.
<mgrwt>
<rscale>  0 0.12500000E+03</rscale>
<asrwt>0</asrwt>
<pdfrwt beam="1">  1       21 0.43964254E+00 0.12500000E+03</pdfrwt>
<pdfrwt beam="2">  1       21 0.21029726E-03 0.12500000E+03</pdfrwt>
<totfact> 0.22385266E+05</totfact>
</mgrwt>
</event>
<event>
 3    1  0.1595726E-001  0.1250000E+03  0.7546771E-02  0.1235069E+00
         21   -1    0    0  502  501  0.00000000000E+00  0.00000000000E+00  0.10524337564E+04  0.10524337564E+04  0.00000000000E+00 0. -1.
         21   -1    0    0  501  502 -0.00000000000E+00 -0.00000000000E+00 -0.37116350330E+01  0.37116350330E+01  0.00000000000E+00 0. -1.
         25    1    1    2    0    0  0.00000000000E+00  0.00000000000E+00  0.10487221213E+04  0.10561453914E+04  0.12500000000E+03 0.  0.
<mgrwt>
<rscale>  0 0.12500000E+03</rscale>
<asrwt>0</asrwt>
<pdfrwt beam="1">  1       21 0.16191265E+00 0.12500000E+03</pdfrwt>
<pdfrwt beam="2">  1       21 0.57102161E-03 0.12500000E+03</pdfrwt>
<totfact> 0.22254049E+06</totfact>
</mgrwt>
</event>
<event>
 3    1  0.1595726E-001  0.1250000E+03  0.7546771E-02  0.1235069E+00
         21   -1    0    0  502  501  0.00000000000E+00  0.00000000000E+00  0.72281684774E+02  0.72281684774E+02  0.00000000000E+00 0. -1.
         21   -1    0    0  501  502 -0.00000000000E+00 -0.00000000000E+00 -0.54042044153E+02  0.54042044153E+02  0.00000000000E+00 0. -1.
         25    1    1    2    0    0  0.00000000000E+00  0.00000000000E+00  0.18239640621E+02  0.12632372893E+03  0.12500000000E+03 0.  0.
<mgrwt>
<rscale>  0 0.12500000E+03</rscale>
<asrwt>0</asrwt>
<pdfrwt beam="1">  1       21 0.11120259E-01 0.12500000E+03</pdfrwt>
<pdfrwt beam="2">  1       21 0.83141606E-02 0.12500000E+03</pdfrwt>
<totfact> 0.73861523E+06</totfact>
</mgrwt>
</event>
<event>
 3    1  0.1595726E-001  0.1250000E+03  0.7546771E-02  0.1235069E+00
         21   -1    0    0  502  501  0.00000000000E+00  0.00000000000E+00  0.30422774068E+03  0.30422774068E+03  0.00000000000E+00 0.  1.
         21   -1    0    0  501  502 -0.00000000000E+00 -0.00000000000E+00 -0.12839887616E+02  0.12839887616E+02  0.00000000000E+00 0.  1.
         25    1    1    2    0    0  0.00000000000E+00  0.00000000000E+00  0.29138785307E+03  0.31706762830E+03  0.12500000000E+03 0.  0.
<mgrwt>
<rscale>  0 0.12500000E+03</rscale>
<asrwt>0</asrwt>
<pdfrwt beam="1">  1       21 0.46804262E-01 0.12500000E+03</pdfrwt>
<pdfrwt beam="2">  1       21 0.19753676E-02 0.12500000E+03</pdfrwt>
<totfact> 0.54066542E+06</totfact>
</mgrwt>
</event>
<event>
 3    1  0.1595726E-001  0.1250000E+03  0.7546771E-02  0.1235069E+00
         21   -1    0    0  502  501  0.00000000000E+00  0.00000000000E+00  0.31961230165E+03  0.31961230165E+03  0.00000000000E+00 0. -1.
         21   -1    0    0  501  502 -0.00000000000E+00 -0.00000000000E+00 -0.12221838709E+02  0.12221838709E+02  0.00000000000E+00 0. -1.
         25    1    1    2    0    0  0.00000000000E+00  0.00000000000E+00  0.30739046294E+03  0.33183414035E+03  0.12500000000E+03 0.  0.
<mgrwt>
<rscale>  0 0.12500000E+03</rscale>
<asrwt>0</asrwt>
<pdfrwt beam="1">  1       21 0.49171117E-01 0.12500000E+03</pdfrwt>
<pdfrwt beam="2">  1       21 0.18802831E-02 0.12500000E+03</pdfrwt>
<totfact> 0.52908675E+06</totfact>
</mgrwt>
</event>
<event>
 3    1  0.1595726E-001  0.1250000E+03  0.7546771E-02  0.1235069E+00
         21   -1    0    0  502  501  0.00000000000E+00  0.00000000000E+00  0.21990079316E+02  0.21990079316E+02  0.00000000000E+00 0.  1.
         21   -1    0    0  501  502 -0.00000000000E+00 -0.00000000000E+00 -0.17763692181E+03  0.17763692181E+03  0.00000000000E+00 0.  1.
         25    1    1    2    0    0  0.00000000000E+00  0.00000000000E+00 -0.15564684250E+03  0.19962700113E+03  0.12500000000E+03 0.  0.
<mgrwt>
<rscale>  0 0.12500000E+03</rscale>
<asrwt>0</asrwt>
<pdfrwt beam="1">  1       21 0.33830892E-02 0.12500000E+03</pdfrwt>
<pdfrwt beam="2">  1       21 0.27328756E-01 0.12500000E+03</pdfrwt>
<totfact> 0.64967692E+06</totfact>
</mgrwt>
</event>
<event>
 3    1  0.1595726E-001  0.1250000E+03  0.7546771E-02  0.1235069E+00
         21   -1    0    0  502  501  0.00000000000E+00  0.00000000000E+00  0.14597939618E+02  0.14597939618E+02  0.00000000000E+00 0. -1.
         21   -1    0    0  501  502 -0.00000000000E+00 -0.00000000000E+00 -0.26758913259E+03  0.26758913259E+03  0.00000000000E+00 0. -1.
         25    1    1    2    0    0  0.00000000000E+00  0.00000000000E+00 -0.25299119297E+03  0.28218707221E+03  0.12500000000E+03 0.  0.
<mgrwt>
<rscale>  0 0.12500000E+03</rscale>
<asrwt>0</asrwt>
<pdfrwt beam="1">  1       21 0.22458367E-02 0.12500000E+03</pdfrwt>
<pdfrwt beam="2">  1       21 0.41167562E-01 0.12500000E+03</pdfrwt>
<totfact> 0.56969765E+06</totfact>
</mgrwt>
</event>
<event>
 3    1  0.1595726E-001  0.1250000E+03  0.7546771E-02  0.1235069E+00
         21   -1    0    0  502  501  0.00000000000E+00  0.00000000000E+00  0.10832866837E+02  0.10832866837E+02  0.00000000000E+00 0.  1.
         21   -1    0    0  501  502 -0.00000000000E+00 -0.00000000000E+00 -0.36059245063E+03  0.36059245063E+03  0.00000000000E+00 0.  1.
         25    1    1    2    0    0  0.00000000000E+00  0.00000000000E+00 -0.34975958379E+03  0.37142531747E+03  0.12500000000E+03 0.  0.
<mgrwt>
<rscale>  0 0.12500000E+03</rscale>
<asrwt>0</asrwt>
<pdfrwt beam="1">  1       21 0.16665948E-02 0.12500000E+03</pdfrwt>
<pdfrwt beam="2">  1       21 0.55475765E-01 0.12500000E+03</pdfrwt>
<totfact> 0.49993998E+06</totfact>
</mgrwt>
</event>
<event>
 3    1  0.1595726E-001  0.1250000E+03  0.7546771E-02  0.1235069E+00
         21   -1    0    0  502  501  0.00000000000E+00  0.00000000000E+00  0.13518763400E+03  0.13518763400E+03  0.00000000000E+00 0.  1.
         21   -1    0    0  501  502 -0.00000000000E+00 -0.00000000000E+00 -0.28895024527E+02  0.28895024527E+02  0.00000000000E+00 0.  1.
         25    1    1    2    0    0  0.00000000000E+00  0.00000000000E+00  0.10629260947E+03  0.16408265852E+03  0.12500000000E+03 0.  0.
<mgrwt>
<rscale>  0 0.12500000E+03</rscale>
<asrwt>0</asrwt>
<pdfrwt beam="1">  1       21 0.20798097E-01 0.12500000E+03</pdfrwt>
<pdfrwt beam="2">  1       21 0.44453885E-02 0.12500000E+03</pdfrwt>
<totfact> 0.69024049E+06</totfact>
</mgrwt>
</event>
<event>
 3    1  0.1595726E-001  0.1250000E+03  0.7546771E-02  0.1235069E+00
         21   -1    0    0  502  501  0.00000000000E+00  0.00000000000E+00  0.18577068523E+03  0.18577068523E+03  0.00000000000E+00 0. -1.
         21   -1    0    0  501  502 -0.00000000000E+00 -0.00000000000E+00 -0.21027268081E+02  0.21027268081E+02  0.00000000000E+00 0. -1.
         25    1    1    2    0    0  0.00000000000E+00  0.00000000000E+00  0.16474341715E+03  0.20679795331E+03  0.12500000000E+03 0.  0.
<mgrwt>
<rscale>  0 0.12500000E+03</rscale>
<asrwt>0</asrwt>
<pdfrwt beam="1">  1       21 0.28580104E-01 0.12500000E+03</pdfrwt>
<pdfrwt beam="2">  1       21 0.32349644E-02 0.12500000E+03</pdfrwt>
<totfact> 0.64198011E+06</totfact>
</mgrwt>
</event>
<event>
 3    1  0.1595726E-001  0.1250000E+03  0.7546771E-02  0.1235069E+00
         21   -1    0    0  502  501  0.00000000000E+00  0.00000000000E+00  0.11660232197E+02  0.11660232197E+02  0.00000000000E+00 0. -1.
         21   -1    0    0  501  502 -0.00000000000E+00 -0.00000000000E+00 -0.33500619318E+03  0.33500619318E+03  0.00000000000E+00 0. -1.
         25    1    1    2    0    0  0.00000000000E+00  0.00000000000E+00 -0.32334596099E+03  0.34666642538E+03  0.12500000000E+03 0.  0.
<mgrwt>
<rscale>  0 0.12500000E+03</rscale>
<asrwt>0</asrwt>
<pdfrwt beam="1">  1       21 0.17938820E-02 0.12500000E+03</pdfrwt>
<pdfrwt beam="2">  1       21 0.51539412E-01 0.12500000E+03</pdfrwt>
<totfact> 0.51785572E+06</totfact>
</mgrwt>
</event>
<event>
 3    1  0.1595726E-001  0.1250000E+03  0.7546771E-02  0.1235069E+00
         21   -1    0    0  502  501  0.00000000000E+00  0.00000000000E+00  0.14382936560E+02  0.14382936560E+02  0.00000000000E+00 0.  1.
         21   -1    0    0  501  502 -0.00000000000E+00 -0.00000000000E+00 -0.27158918373E+03  0.27158918373E+03  0.00000000000E+00 0.  1.
         25    1    1    2    0    0  0.00000000000E+00  0.00000000000E+00 -0.25720624717E+03  0.28597212029E+03  0.12500000000E+03 0.  0.
<mgrwt>
<rscale>  0 0.12500000E+03</rscale>
<asrwt>0</asrwt>
<pdfrwt beam="1">  1       21 0.22127595E-02 0.12500000E+03</pdfrwt>
<pdfrwt beam="2">  1       21 0.41782951E-01 0.12500000E+03</pdfrwt>
<totfact> 0.56642473E+06</totfact>
</mgrwt>
</event>
<event>
 3    1  0.1595726E-001  0.1250000E+03  0.7546771E-02  0.1235069E+00
         21   -1    0    0  502  501  0.00000000000E+00  0.00000000000E+00  0.84785921767E+02  0.84785921767E+02  0.00000000000E+00 0.  1.
         21   -1    0    0  501  502 -0.00000000000E+00 -0.00000000000E+00 -0.46071917585E+02  0.46071917585E+02  0.00000000000E+00 0.  1.
         25    1    1    2    0    0  0.00000000000E+00  0.00000000000E+00  0.38714004183E+02  0.13085783935E+03  0.12500000000E+03 0.  0.
<mgrwt>
<rscale>  0 0.12500000E+03</rscale>
<asrwt>0</asrwt>
<pdfrwt beam="1">  1       21 0.13043988E-01 0.12500000E+03</pdfrwt>
<pdfrwt beam="2">  1       21 0.70879873E-02 0.12500000E+03</pdfrwt>
<totfact> 0.73249835E+06</totfact>
</mgrwt>
</event>
<event>
 3    1  0.1595726E-001  0.1250000E+03  0.7546771E-02  0.1235069E+00
         21   -1    0    0  502  501  0.00000000000E+00  0.00000000000E+00  0.10230198846E+02  0.10230198846E+02  0.00000000000E+00 0.  1.
         21   -1    0    0  501  502 -0.00000000000E+00 -0.00000000000E+00 -0.38183519782E+03  0.38183519782E+03  0.00000000000E+00 0.  1.
         25    1    1    2    0    0  0.00000000000E+00  0.00000000000E+00 -0.37160499898E+03  0.39206539667E+03  0.12500000000E+03 0.  0.
<mgrwt>
<rscale>  0 0.12500000E+03</rscale>
<asrwt>0</asrwt>
<pdfrwt beam="1">  1       21 0.15738767E-02 0.12500000E+03</pdfrwt>
<pdfrwt beam="2">  1       21 0.58743878E-01 0.12500000E+03</pdfrwt>
<totfact> 0.48572135E+06</totfact>
</mgrwt>
</event>
<event>
 3    1  0.1595726E-001  0.1250000E+03  0.7546771E-02  0.1235069E+00
         21   -1    0    0  502  501  0.00000000000E+00  0.00000000000E+00  0.48014083045E+03  0.48014083045E+03  0.00000000000E+00 0. -1.
         21   -1    0    0  501  502 -0.00000000000E+00 -0.00000000000E+00 -0.81356338646E+01  0.81356338646E+01  0.00000000000E+00 0. -1.
         25    1    1    2    0    0  0.00000000000E+00  0.00000000000E+00  0.47200519658E+03  0.48827646431E+03  0.12500000000E+03 0.  0.
<mgrwt>
<rscale>  0 0.12500000E+03</rscale>
<asrwt>0</asrwt>
<pdfrwt beam="1">  1       21 0.73867798E-01 0.12500000E+03</pdfrwt>
<pdfrwt beam="2">  1       21 0.12516364E-02 0.12500000E+03</pdfrwt>
<totfact> 0.42687092E+06</totfact>
</mgrwt>
</event>
<event>
 3    1  0.1595726E-001  0.1250000E+03  0.7546771E-02  0.1235069E+00
         21   -1    0    0  502  501  0.00000000000E+00  0.00000000000E+00  0.11756182955E+03  0.11756182955E+03  0.00000000000E+00 0. -1.
         21   -1    0    0  501  502 -0.00000000000E+00 -0.00000000000E+00 -0.33227196404E+02  0.33227196404E+02  0.00000000000E+00 0. -1.
         25    1    1    2    0    0  0.00000000000E+00  0.00000000000E+00  0.84334633143E+02  0.15078902595E+03  0.12500000000E+03 0.  0.
<mgrwt>
<rscale>  0 0.12500000E+03</rscale>
<asrwt>0</asrwt>
<pdfrwt beam="1">  1       21 0.18086435E-01 0.12500000E+03</pdfrwt>
<pdfrwt beam="2">  1       21 0.51118764E-02 0.12500000E+03</pdfrwt>
<totfact> 0.70660226E+06</totfact>
</mgrwt>
</event>
<event>
 3    1  0.1595726E-001  0.1250000E+03  0.7546771E-02  0.1235069E+00
         21   -1    0    0  502  501  0.00000000000E+00  0.00000000000E+00  0.26946430990E+03  0.26946430990E+03  0.00000000000E+00 0. -1.
         21   -1    0    0  501  502 -0.00000000000E+00 -0.00000000000E+00 -0.14496353901E+02  0.14496353901E+02  0.00000000000E+00 0. -1.
         25    1    1    2    0    0  0.00000000000E+00  0.00000000000E+00  0.25496795600E+03  0.28396066380E+03  0.12500000000E+03 0.  0.
<mgrwt>
<rscale>  0 0.12500000E+03</rscale>
<asrwt>0</asrwt>
<pdfrwt beam="1">  1       21 0.41456044E-01 0.12500000E+03</pdfrwt>
<pdfrwt beam="2">  1       21 0.22302085E-02 0.12500000E+03</pdfrwt>
<totfact> 0.56816016E+06</totfact>
</mgrwt>
</event>
<event>
 3    1  0.1595726E-001  0.1250000E+03  0.7546771E-02  0.1235069E+00
         21   -1    0    0  502  501  0.00000000000E+00  0.00000000000E+00  0.12330612278E+03  0.12330612278E+03  0.00000000000E+00 0.  1.
         21   -1    0    0  501  502 -0.00000000000E+00 -0.00000000000E+00 -0.31679286576E+02  0.31679286576E+02  0.00000000000E+00 0.  1.
         25    1    1    2    0    0  0.00000000000E+00  0.00000000000E+00  0.91626836201E+02  0.15498540935E+03  0.12500000000E+03 0.  0.
<mgrwt>
<rscale>  0 0.12500000E+03</rscale>
<asrwt>0</asrwt>
<pdfrwt beam="1">  1       21 0.18970173E-01 0.12500000E+03</pdfrwt>
<pdfrwt beam="2">  1       21 0.48737364E-02 0.12500000E+03</pdfrwt>
<totfact> 0.70137472E+06</totfact>
</mgrwt>
</event>
<event>
 3    1  0.1595726E-001  0.1250000E+03  0.7546771E-02  0.1235069E+00
         21   -1    0    0  502  501  0.00000000000E+00  0.00000000000E+00  0.33232797279E+01  0.33232797279E+01  0.00000000000E+00 0. -1.
         21   -1    0    0  501  502 -0.00000000000E+00 -0.00000000000E+00 -0.11754201632E+04  0.11754201632E+04  0.00000000000E+00 0. -1.
         25    1    1    2    0    0  0.00000000000E+00  0.00000000000E+00 -0.11720968834E+04  0.11787434429E+04  0.12500000000E+03 0.  0.
<mgrwt>
<rscale>  0 0.12500000E+03</rscale>
<asrwt>0</asrwt>
<pdfrwt beam="1">  1       21 0.51127421E-03 0.12500000E+03</pdfrwt>
<pdfrwt beam="2">  1       21 0.18083373E+00 0.12500000E+03</pdfrwt>
<totfact> 0.19572220E+06</totfact>
</mgrwt>
</event>
<event>
 3    1  0.1595726E-001  0.1250000E+03  0.7546771E-02  0.1235069E+00
         21   -1    0    0  502  501  0.00000000000E+00  0.00000000000E+00  0.27875317619E+03  0.27875317619E+03  0.00000000000E+00 0. -1.
         21   -1    0    0  501  502 -0.00000000000E+00 -0.00000000000E+00 -0.14013293242E+02  0.14013293242E+02  0.00000000000E+00 0. -1.
         25    1    1    2    0    0  0.00000000000E+00  0.00000000000E+00  0.26473988294E+03  0.29276646943E+03  0.12500000000E+03 0.  0.
<mgrwt>
<rscale>  0 0.12500000E+03</rscale>
<asrwt>0</asrwt>
<pdfrwt beam="1">  1       21 0.42885100E-01 0.12500000E+03</pdfrwt>
<pdfrwt beam="2">  1       21 0.21558915E-02 0.12500000E+03</pdfrwt>
<totfact> 0.56062719E+06</totfact>
</mgrwt>
</event>
<event>
 3    1  0.1595726E-001  0.1250000E+03  0.7546771E-02  0.1235069E+00
         21   -1    0    0  502  501  0.00000000000E+00  0.00000000000E+00  0.13517451821E+04  0.13517451821E+04  0.00000000000E+00 0.  1.
         21   -1    0    0  501  502 -0.00000000000E+00 -0.00000000000E+00 -0.28897828168E+01  0.28897828168E+01  0.00000000000E+00 0.  1.
         25    1    1    2    0    0  0.00000000000E+00  0.00000000000E+00  0.13488553993E+04  0.13546349650E+04  0.12500000000E+03 0.  0.
<mgrwt>
<rscale>  0 0.12500000E+03</rscale>
<asrwt>0</asrwt>
<pdfrwt beam="1">  1       21 0.20796029E+00 0.12500000E+03</pdfrwt>
<pdfrwt beam="2">  1       21 0.44458305E-03 0.12500000E+03</pdfrwt>
<totfact> 0.16299051E+06</totfact>
</mgrwt>
</event>
<event>
 3    1  0.1595726E-001  0.1250000E+03  0.7546771E-02  0.1235069E+00
         21   -1    0    0  502  501  0.00000000000E+00  0.00000000000E+00  0.85849143780E+01  0.85849143780E+01  0.00000000000E+00 0.  1.
         21   -1    0    0  501  502 -0.00000000000E+00 -0.00000000000E+00 -0.45501327422E+03  0.45501327422E+03  0.00000000000E+00 0.  1.
         25    1    1    2    0    0  0.00000000000E+00  0.00000000000E+00 -0.44642835984E+03  0.46359818860E+03  0.12500000000E+03 0.  0.
<mgrwt>
<rscale>  0 0.12500000E+03</rscale>
<asrwt>0</asrwt>
<pdfrwt beam="1">  1       21 0.13207557E-02 0.12500000E+03</pdfrwt>
<pdfrwt beam="2">  1       21 0.70002060E-01 0.12500000E+03</pdfrwt>
<totfact> 0.44089601E+06</totfact>
</mgrwt>
</event>
<event>
 3    1  0.1595726E-001  0.1250000E+03  0.7546771E-02  0.1235069E+00
         21   -1    0    0  502  501  0.00000000000E+00  0.00000000000E+00  0.11102061135E+03  0.11102061135E+03  0.00000000000E+00 0. -1.
         21   -1    0    0  501  502 -0.00000000000E+00 -0.00000000000E+00 -0.35184908033E+02  0.35184908033E+02  0.00000000000E+00 0. -1.
         25    1    1    2    0    0  0.00000000000E+00  0.00000000000E+00  0.75835703313E+02  0.14620551938E+03  0.12500000000E+03 0.  0.
<mgrwt>
<rscale>  0 0.12500000E+03</rscale>
<asrwt>0</asrwt>
<pdfrwt beam="1">  1       21 0.17080094E-01 0.12500000E+03</pdfrwt>
<pdfrwt beam="2">  1       21 0.54130628E-02 0.12500000E+03</pdfrwt>
<totfact> 0.71239178E+06</totfact>
</mgrwt>
</event>
<event>
 3    1  0.1595726E-001  0.1250000E+03  0.7546771E-02  0.1235069E+00
         21   -1    0    0  502  501  0.00000000000E+00  0.00000000000E+00  0.30885406595E+02  0.30885406595E+02  0.00000000000E+00 0. -1.
         21   -1    0    0  501  502 -0.00000000000E+00 -0.00000000000E+00 -0.12647558930E+03  0.12647558930E+03  0.00000000000E+00 0. -1.
         25    1    1    2    0    0  0.00000000000E+00  0.00000000000E+00 -0.95590182707E+02  0.15736099590E+03  0.12500000000E+03 0.  0.
<mgrwt>
<rscale>  0 0.12500000E+03</rscale>
<asrwt>0</asrwt>
<pdfrwt beam="1">  1       21 0.47516011E-02 0.12500000E+03</pdfrwt>
<pdfrwt beam="2">  1       21 0.19457783E-01 0.12500000E+03</pdfrwt>
<totfact> 0.69843400E+06</totfact>
</mgrwt>
</event>
<event>
 3    1  0.1595726E-001  0.1250000E+03  0.7546771E-02  0.1235069E+00
         21   -1    0    0  502  501  0.00000000000E+00  0.00000000000E+00  0.20084582603E+02  0.20084582603E+02  0.00000000000E+00 0. -1.
         21   -1    0    0  501  502 -0.00000000000E+00 -0.00000000000E+00 -0.19448997657E+03  0.19448997657E+03  0.00000000000E+00 0. -1.
         25    1    1    2    0    0  0.00000000000E+00  0.00000000000E+00 -0.17440539397E+03  0.21457455918E+03  0.12500000000E+03 0.  0.
<mgrwt>
<rscale>  0 0.12500000E+03</rscale>
<asrwt>0</asrwt>
<pdfrwt beam="1">  1       21 0.30899357E-02 0.12500000E+03</pdfrwt>
<pdfrwt beam="2">  1       21 0.29921536E-01 0.12500000E+03</pdfrwt>
<totfact> 0.63381430E+06</totfact>
</mgrwt>
</event>
<event>
 3    1  0.1595726E-001  0.1250000E+03  0.7546771E-02  0.1235069E+00
         21   -1    0    0  502  501  0.00000000000E+00  0.00000000000E+00  0.10590075759E+02  0.10590075759E+02  0.00000000000E+00 0.  1.
         21   -1    0    0  501  502 -0.00000000000E+00 -0.00000000000E+00 -0.36885949532E+03  0.36885949532E+03  0.00000000000E+00 0.  1.
         25    1    1    2    0    0  0.00000000000E+00  0.00000000000E+00 -0.35826941956E+03  0.37944957108E+03  0.12500000000E+03 0.  0.
<mgrwt>
<rscale>  0 0.12500000E+03</rscale>
<asrwt>0</asrwt>
<pdfrwt beam="1">  1       21 0.16292425E-02 0.12500000E+03</pdfrwt>
<pdfrwt beam="2">  1       21 0.56747611E-01 0.12500000E+03</pdfrwt>
<totfact> 0.49434365E+06</totfact>
</mgrwt>
</event>
<event>
 3    1  0.1595726E-001  0.1250000E+03  0.7546771E-02  0.1235069E+00
         21   -1    0    0  502  501  0.00000000000E+00  0.00000000000E+00  0.15129337199E+03  0.15129337199E+03  0.00000000000E+00 0.  1.
         21   -1    0    0  501  502 -0.00000000000E+00 -0.00000000000E+00 -0.25819042491E+02  0.25819042491E+02  0.00000000000E+00 0.  1.
         25    1    1    2    0    0  0.00000000000E+00  0.00000000000E+00  0.12547432950E+03  0.17711241448E+03  0.12500000000E+03 0.  0.
<mgrwt>
<rscale>  0 0.12500000E+03</rscale>
<asrwt>0</asrwt>
<pdfrwt beam="1">  1       21 0.23275903E-01 0.12500000E+03</pdfrwt>
<pdfrwt beam="2">  1       21 0.39721605E-02 0.12500000E+03</pdfrwt>
<totfact> 0.67484345E+06</totfact>
</mgrwt>
</event>
<event>
 3    1  0.1595726E-001  0.1250000E+03  0.7546771E-02  0.1235069E+00
         21   -1    0    0  502  501  0.00000000000E+00  0.00000000000E+00  0.52839629245E+02  0.52839629245E+02  0.00000000000E+00 0. -1.
         21   -1    0    0  501  502 -0.00000000000E+00 -0.00000000000E+00 -0.73926521738E+02  0.73926521738E+02  0.00000000000E+00 0. -1.
         25    1    1    2    0    0  0.00000000000E+00  0.00000000000E+00 -0.21086892493E+02  0.12676615098E+03  0.12500000000E+03 0.  0.
<mgrwt>
<rscale>  0 0.12500000E+03</rscale>
<asrwt>0</asrwt>
<pdfrwt beam="1">  1       21 0.81291738E-02 0.12500000E+03</pdfrwt>
<pdfrwt beam="2">  1       21 0.11373311E-01 0.12500000E+03</pdfrwt>
<totfact> 0.73801006E+06</totfact>
</mgrwt>
</event>
<event>
 3    1  0.1595726E-001  0.1250000E+03  0.7546771E-02  0.1235069E+00
         21   -1    0    0  502  501  0.00000000000E+00  0.00000000000E+00  0.11772958149E+03  0.11772958149E+03  0.00000000000E+00 0.  1.
         21   -1    0    0  501  502 -0.00000000000E+00 -0.00000000000E+00 -0.33179851237E+02  0.33179851237E+02  0.00000000000E+00 0.  1.
         25    1    1    2    0    0  0.00000000000E+00  0.00000000000E+00  0.84549730254E+02  0.15090943273E+03  0.12500000000E+03 0.  0.
<mgrwt>
<rscale>  0 0.12500000E+03</rscale>
<asrwt>0</asrwt>
<pdfrwt beam="1">  1       21 0.18112243E-01 0.12500000E+03</pdfrwt>
<pdfrwt beam="2">  1       21 0.51045926E-02 0.12500000E+03</pdfrwt>
<totfact> 0.70645146E+06</totfact>
</mgrwt>
</event>
<event>
 3    1  0.1595726E-001  0.1250000E+03  0.7546771E-02  0.1235069E+00
         21   -1    0    0  502  501  0.00000000000E+00  0.00000000000E+00  0.42318572575E+02  0.42318572575E+02  0.00000000000E+00 0. -1.
         21   -1    0    0  501  502 -0.00000000000E+00 -0.00000000000E+00 -0.92305807174E+02  0.92305807174E+02  0.00000000000E+00 0. -1.
         25    1    1    2    0    0  0.00000000000E+00  0.00000000000E+00 -0.49987234599E+02  0.13462437975E+03  0.12500000000E+03 0.  0.
<mgrwt>
<rscale>  0 0.12500000E+03</rscale>
<asrwt>0</asrwt>
<pdfrwt beam="1">  1       21 0.65105497E-02 0.12500000E+03</pdfrwt>
<pdfrwt beam="2">  1       21 0.14200893E-01 0.12500000E+03</pdfrwt>
<totfact> 0.72746245E+06</totfact>
</mgrwt>
</event>
<event>
 3    1  0.1595726E-001  0.1250000E+03  0.7546771E-02  0.1235069E+00
         21   -1    0    0  502  501  0.00000000000E+00  0.00000000000E+00  0.21905255427E+03  0.21905255427E+03  0.00000000000E+00 0. -1.
         21   -1    0    0  501  502 -0.00000000000E+00 -0.00000000000E+00 -0.17832478662E+02  0.17832478662E+02  0.00000000000E+00 0. -1.
         25    1    1    2    0    0  0.00000000000E+00  0.00000000000E+00  0.20122007561E+03  0.23688503293E+03  0.12500000000E+03 0.  0.
<mgrwt>
<rscale>  0 0.12500000E+03</rscale>
<asrwt>0</asrwt>
<pdfrwt beam="1">  1       21 0.33700391E-01 0.12500000E+03</pdfrwt>
<pdfrwt beam="2">  1       21 0.27434584E-02 0.12500000E+03</pdfrwt>
<totfact> 0.61135401E+06</totfact>
</mgrwt>
</event>
<event>
 3    1  0.1595726E-001  0.1250000E+03  0.7546771E-02  0.1235069E+00
         21   -1    0    0  502  501  0.00000000000E+00  0.00000000000E+00  0.46071249636E+03  0.46071249636E+03  0.00000000000E+00 0. -1.
         21   -1    0    0  501  502 -0.00000000000E+00 -0.00000000000E+00 -0.84787151008E+01  0.84787151008E+01  0.00000000000E+00 0. -1.
         25    1    1    2    0    0  0.00000000000E+00  0.00000000000E+00  0.45223378126E+03  0.46919121146E+03  0.12500000000E+03 0.  0.
<mgrwt>
<rscale>  0 0.12500000E+03</rscale>
<asrwt>0</asrwt>
<pdfrwt beam="1">  1       21 0.70878826E-01 0.12500000E+03</pdfrwt>
<pdfrwt beam="2">  1       21 0.13044181E-02 0.12500000E+03</pdfrwt>
<totfact> 0.43765749E+06</totfact>
</mgrwt>
</event>
<event>
 3    1  0.1595726E-001  0.1250000E+03  0.7546771E-02  0.1235069E+00
         21   -1    0    0  502  501  0.00000000000E+00  0.00000000000E+00  0.11926821890E+02  0.11926821890E+02  0.00000000000E+00 0.  1.
         21   -1    0    0  501  502 -0.00000000000E+00 -0.00000000000E+00 -0.32751809626E+03  0.32751809626E+03  0.00000000000E+00 0.  1.
         25    1    1    2    0    0  0.00000000000E+00  0.00000000000E+00 -0.31559127437E+03  0.33944491815E+03  0.12500000000E+03 0.  0.
<mgrwt>
<rscale>  0 0.12500000E+03</rscale>
<asrwt>0</asrwt>
<pdfrwt beam="1">  1       21 0.18348954E-02 0.12500000E+03</pdfrwt>
<pdfrwt beam="2">  1       21 0.50387406E-01 0.12500000E+03</pdfrwt>
<totfact> 0.52327525E+06</totfact>
</mgrwt>
</event>
<event>
 3    1  0.1595726E-001  0.1250000E+03  0.7546771E-02  0.1235069E+00
         21   -1    0    0  502  501  0.00000000000E+00  0.00000000000E+00  0.32981200334E+03  0.32981200334E+03  0.00000000000E+00 0. -1.
         21   -1    0    0  501  502 -0.00000000000E+00 -0.00000000000E+00 -0.11843868508E+02  0.11843868508E+02  0.00000000000E+00 0. -1.
         25    1    1    2    0    0  0.00000000000E+00  0.00000000000E+00  0.31796813484E+03  0.34165587185E+03  0.12500000000E+03 0.  0.
<mgrwt>
<rscale>  0 0.12500000E+03</rscale>
<asrwt>0</asrwt>
<pdfrwt beam="1">  1       21 0.50740301E-01 0.12500000E+03</pdfrwt>
<pdfrwt beam="2">  1       21 0.18221339E-02 0.12500000E+03</pdfrwt>
<totfact> 0.52160638E+06</totfact>
</mgrwt>
</event>
<event>
 3    1  0.1595726E-001  0.1250000E+03  0.7546771E-02  0.1235069E+00
         21   -1    0    0  502  501  0.00000000000E+00  0.00000000000E+00  0.57680180215E+02  0.57680180215E+02  0.00000000000E+00 0. -1.
         21   -1    0    0  501  502 -0.00000000000E+00 -0.00000000000E+00 -0.67722569268E+02  0.67722569268E+02  0.00000000000E+00 0. -1.
         25    1    1    2    0    0  0.00000000000E+00  0.00000000000E+00 -0.10042389052E+02  0.12540274948E+03  0.12500000000E+03 0.  0.
<mgrwt>
<rscale>  0 0.12500000E+03</rscale>
<asrwt>0</asrwt>
<pdfrwt beam="1">  1       21 0.88738740E-02 0.12500000E+03</pdfrwt>
<pdfrwt beam="2">  1       21 0.10418857E-01 0.12500000E+03</pdfrwt>
<totfact> 0.73989025E+06</totfact>
</mgrwt>
</event>
<event>
 3    1  0.1595726E-001  0.1250000E+03  0.7546771E-02  0.1235069E+00
         21   -1    0    0  502  501  0.00000000000E+00  0.00000000000E+00  0.31173364750E+02  0.31173364750E+02  0.00000000000E+00 0.  1.
         21   -1    0    0  501  502 -0.00000000000E+00 -0.00000000000E+00 -0.12530729459E+03  0.12530729459E+03  0.00000000000E+00 0.  1.
         25    1    1    2    0    0  0.00000000000E+00  0.00000000000E+00 -0.94133929836E+02  0.15648065934E+03  0.12500000000E+03 0.  0.
<mgrwt>
<rscale>  0 0.12500000E+03</rscale>
<asrwt>0</asrwt>
<pdfrwt beam="1">  1       21 0.47959024E-02 0.12500000E+03</pdfrwt>
<pdfrwt beam="2">  1       21 0.19278045E-01 0.12500000E+03</pdfrwt>
<totfact> 0.69952098E+06</totfact>
</mgrwt>
</event>
<event>
 3    1  0.1595726E-001  0.1250000E+03  0.7546771E-02  0.1235069E+00
         21   -1    0    0  502  501  0.00000000000E+00  0.00000000000E+00  0.51083582568E+02  0.51083582568E+02  0.00000000000E+00 0. -1.
         21   -1    0    0  501  502 -0.00000000000E+00 -0.00000000000E+00 -0.76467816149E+02  0.76467816149E+02  0.00000000000E+00 0. -1.
         25    1    1    2    0    0  0.00000000000E+00  0.00000000000E+00 -0.25384233581E+02  0.12755139872E+03  0.12500000000E+03 0.  0.
<mgrwt>
<rscale>  0 0.12500000E+03</rscale>
<asrwt>0</asrwt>
<pdfrwt beam="1">  1       21 0.78590127E-02 0.12500000E+03</pdfrwt>
<pdfrwt beam="2">  1       21 0.11764279E-01 0.12500000E+03</pdfrwt>
<totfact> 0.73694252E+06</totfact>
</mgrwt>
</event>
<event>
 3    1  0.1595726E-001  0.1250000E+03  0.7546771E-02  0.1235069E+00
         21   -1    0    0  502  501  0.00000000000E+00  0.00000000000E+00  0.43347013149E+02  0.43347013149E+02  0.00000000000E+00 0.  1.
         21   -1    0    0  501  502 -0.00000000000E+00 -0.00000000000E+00 -0.90115782294E+02  0.90115782294E+02  0.00000000000E+00 0.  1.
         25    1    1    2    0    0  0.00000000000E+00  0.00000000000E+00 -0.46768769145E+02  0.13346279544E+03  0.12500000000E+03 0.  0.
<mgrwt>
<rscale>  0 0.12500000E+03</rscale>
<asrwt>0</asrwt>
<pdfrwt beam="1">  1       21 0.66687712E-02 0.12500000E+03</pdfrwt>
<pdfrwt beam="2">  1       21 0.13863967E-01 0.12500000E+03</pdfrwt>
<totfact> 0.72900662E+06</totfact>
</mgrwt>
</event>
<event>
 3    1  0.1595726E-001  0.1250000E+03  0.7546771E-02  0.1235069E+00
         21   -1    0    0  502  501  0.00000000000E+00  0.00000000000E+00  0.66743248339E+02  0.66743248339E+02  0.00000000000E+00 0.  1.
         21   -1    0    0  501  502 -0.00000000000E+00 -0.00000000000E+00 -0.58526519120E+02  0.58526519120E+02  0.00000000000E+00 0.  1.
         25    1    1    2    0    0  0.00000000000E+00  0.00000000000E+00  0.82167292192E+01  0.12526976746E+03  0.12500000000E+03 0.  0.
<mgrwt>
<rscale>  0 0.12500000E+03</rscale>
<asrwt>0</asrwt>
<pdfrwt beam="1">  1       21 0.10268192E-01 0.12500000E+03</pdfrwt>
<pdfrwt beam="2">  1       21 0.90040798E-02 0.12500000E+03</pdfrwt>
<totfact> 0.74007153E+06</totfact>
</mgrwt>
</event>
<event>
 3    1  0.1595726E-001  0.1250000E+03  0.7546771E-02  0.1235069E+00
         21   -1    0    0  502  501  0.00000000000E+00  0.00000000000E+00  0.31528821485E+02  0.31528821485E+02  0.00000000000E+00 0.  1.
         21   -1    0    0  501  502 -0.00000000000E+00 -0.00000000000E+00 -0.12389457696E+03  0.12389457696E+03  0.00000000000E+00 0.  1.
         25    1    1    2    0    0  0.00000000000E+00  0.00000000000E+00 -0.92365755479E+02  0.15542339845E+03  0.12500000000E+03 0.  0.
<mgrwt>
<rscale>  0 0.12500000E+03</rscale>
<asrwt>0</asrwt>
<pdfrwt beam="1">  1       21 0.48505879E-02 0.12500000E+03</pdfrwt>
<pdfrwt beam="2">  1       21 0.19060704E-01 0.12500000E+03</pdfrwt>
<totfact> 0.70083074E+06</totfact>
</mgrwt>
</event>
<event>
 3    1  0.1595726E-001  0.1250000E+03  0.7546771E-02  0.1235069E+00
         21   -1    0    0  502  501  0.00000000000E+00  0.00000000000E+00  0.45538094681E+01  0.45538094681E+01  0.00000000000E+00 0. -1.
         21   -1    0    0  501  502 -0.00000000000E+00 -0.00000000000E+00 -0.85779829555E+03  0.85779829555E+03  0.00000000000E+00 0. -1.
         25    1    1    2    0    0  0.00000000000E+00  0.00000000000E+00 -0.85324448608E+03  0.86235210502E+03  0.12500000000E+03 0.  0.
<mgrwt>
<rscale>  0 0.12500000E+03</rscale>
<asrwt>0</asrwt>
<pdfrwt beam="1">  1       21 0.70058657E-03 0.12500000E+03</pdfrwt>
<pdfrwt beam="2">  1       21 0.13196888E+00 0.12500000E+03</pdfrwt>
<totfact> 0.27398077E+06</totfact>
</mgrwt>
</event>
<event>
 3    1  0.1595726E-001  0.1250000E+03  0.7546771E-02  0.1235069E+00
         21   -1    0    0  502  501  0.00000000000E+00  0.00000000000E+00  0.66423179468E+01  0.66423179468E+01  0.00000000000E+00 0. -1.
         21   -1    0    0  501  502 -0.00000000000E+00 -0.00000000000E+00 -0.58808536889E+03  0.58808536889E+03  0.00000000000E+00 0. -1.
         25    1    1    2    0    0  0.00000000000E+00  0.00000000000E+00 -0.58144305094E+03  0.59472768683E+03  0.12500000000E+03 0.  0.
<mgrwt>
<rscale>  0 0.12500000E+03</rscale>
<asrwt>0</asrwt>
<pdfrwt beam="1">  1       21 0.10218947E-02 0.12500000E+03</pdfrwt>
<pdfrwt beam="2">  1       21 0.90474703E-01 0.12500000E+03</pdfrwt>
<totfact> 0.37332146E+06</totfact>
</mgrwt>
</event>
<event>
 3    1  0.1595726E-001  0.1250000E+03  0.7546771E-02  0.1235069E+00
         21   -1    0    0  502  501  0.00000000000E+00  0.00000000000E+00  0.31738269098E+03  0.31738269098E+03  0.00000000000E+00 0.  1.
         21   -1    0    0  501  502 -0.00000000000E+00 -0.00000000000E+00 -0.12307697020E+02  0.12307697020E+02  0.00000000000E+00 0.  1.
         25    1    1    2    0    0  0.00000000000E+00  0.00000000000E+00  0.30507499396E+03  0.32969038800E+03  0.12500000000E+03 0.  0.
<mgrwt>
<rscale>  0 0.12500000E+03</rscale>
<asrwt>0</asrwt>
<pdfrwt beam="1">  1       21 0.48828100E-01 0.12500000E+03</pdfrwt>
<pdfrwt beam="2">  1       21 0.18934921E-02 0.12500000E+03</pdfrwt>
<totfact> 0.53074256E+06</totfact>
</mgrwt>
</event>
<event>
 3    1  0.1595726E-001  0.1250000E+03  0.7546771E-02  0.1235069E+00
         21   -1    0    0  502  501  0.00000000000E+00  0.00000000000E+00  0.61308040822E+03  0.61308040822E+03  0.00000000000E+00 0. -1.
         21   -1    0    0  501  502 -0.00000000000E+00 -0.00000000000E+00 -0.63715133409E+01  0.63715133409E+01  0.00000000000E+00 0. -1.
         25    1    1    2    0    0  0.00000000000E+00  0.00000000000E+00  0.60670889488E+03  0.61945192156E+03  0.12500000000E+03 0.  0.
<mgrwt>
<rscale>  0 0.12500000E+03</rscale>
<asrwt>0</asrwt>
<pdfrwt beam="1">  1       21 0.94320016E-01 0.12500000E+03</pdfrwt>
<pdfrwt beam="2">  1       21 0.98023331E-03 0.12500000E+03</pdfrwt>
<totfact> 0.36227474E+06</totfact>
</mgrwt>
</event>
<event>
 3    1  0.1595726E-001  0.1250000E+03  0.7546771E-02  0.1235069E+00
         21   -1    0    0  502  501  0.00000000000E+00  0.00000000000E+00  0.59755773898E+03  0.59755773898E+03  0.00000000000E+00 0.  1.
         21   -1    0    0  501  502 -0.00000000000E+00 -0.00000000000E+00 -0.65370252030E+01  0.65370252030E+01  0.00000000000E+00 0.  1.
         25    1    1    2    0    0  0.00000000000E+00  0.00000000000E+00  0.59102071378E+03  0.60409476419E+03  0.12500000000E+03 0.  0.
<mgrwt>
<rscale>  0 0.12500000E+03</rscale>
<asrwt>0</asrwt>
<pdfrwt beam="1">  1       21 0.91931917E-01 0.12500000E+03</pdfrwt>
<pdfrwt beam="2">  1       21 0.10056967E-02 0.12500000E+03</pdfrwt>
<totfact> 0.36908115E+06</totfact>
</mgrwt>
</event>
<event>
 3    1  0.1595726E-001  0.1250000E+03  0.7546771E-02  0.1235069E+00
         21   -1    0    0  502  501  0.00000000000E+00  0.00000000000E+00  0.35947497570E+01  0.35947497570E+01  0.00000000000E+00 0.  1.
         21   -1    0    0  501  502 -0.00000000000E+00 -0.00000000000E+00 -0.10866542219E+04  0.10866542219E+04  0.00000000000E+00 0.  1.
         25    1    1    2    0    0  0.00000000000E+00  0.00000000000E+00 -0.10830594721E+04  0.10902489716E+04  0.12500000000E+03 0.  0.
<mgrwt>
<rscale>  0 0.12500000E+03</rscale>
<asrwt>0</asrwt>
<pdfrwt beam="1">  1       21 0.55303893E-03 0.12500000E+03</pdfrwt>
<pdfrwt beam="2">  1       21 0.16717742E+00 0.12500000E+03</pdfrwt>
<totfact> 0.21469599E+06</totfact>
</mgrwt>
</event>
<event>
 3    1  0.1595726E-001  0.1250000E+03  0.7546771E-02  0.1235069E+00
         21   -1    0    0  502  501  0.00000000000E+00  0.00000000000E+00  0.24048731268E+03  0.24048731268E+03  0.00000000000E+00 0.  1.
         21   -1    0    0  501  502 -0.00000000000E+00 -0.00000000000E+00 -0.16243060627E+02  0.16243060627E+02  0.00000000000E+00 0.  1.
         25    1    1    2    0    0  0.00000000000E+00  0.00000000000E+00  0.22424425206E+03  0.25673037331E+03  0.12500000000E+03 0.  0.
<mgrwt>
<rscale>  0 0.12500000E+03</rscale>
<asrwt>0</asrwt>
<pdfrwt beam="1">  1       21 0.36998045E-01 0.12500000E+03</pdfrwt>
<pdfrwt beam="2">  1       21 0.24989326E-02 0.12500000E+03</pdfrwt>
<totfact> 0.59250259E+06</totfact>
</mgrwt>
</event>
<event>
 3    1  0.1595726E-001  0.1250000E+03  0.7546771E-02  0.1235069E+00
         21   -1    0    0  502  501  0.00000000000E+00  0.00000000000E+00  0.58939021156E+03  0.58939021156E+03  0.00000000000E+00 0. -1.
         21   -1    0    0  501  502 -0.00000000000E+00 -0.00000000000E+00 -0.66276126128E+01  0.66276126128E+01  0.00000000000E+00 0. -1.
         25    1    1    2    0    0  0.00000000000E+00  0.00000000000E+00  0.58276259895E+03  0.59601782418E+03  0.12500000000E+03 0.  0.
<mgrwt>
<rscale>  0 0.12500000E+03</rscale>
<asrwt>0</asrwt>
<pdfrwt beam="1">  1       21 0.90675376E-01 0.12500000E+03</pdfrwt>
<pdfrwt beam="2">  1       21 0.10196332E-02 0.12500000E+03</pdfrwt>
<totfact> 0.37273353E+06</totfact>
</mgrwt>
</event>
<event>
 3    1  0.1595726E-001  0.1250000E+03  0.7546771E-02  0.1235069E+00
         21   -1    0    0  502  501  0.00000000000E+00  0.00000000000E+00  0.49556737614E+03  0.49556737614E+03  0.00000000000E+00 0.  1.
         21   -1    0    0  501  502 -0.00000000000E+00 -0.00000000000E+00 -0.78823792447E+01  0.78823792447E+01  0.00000000000E+00 0.  1.
         25    1    1    2    0    0  0.00000000000E+00  0.00000000000E+00  0.48768499689E+03  0.50344975538E+03  0.12500000000E+03 0.  0.
<mgrwt>
<rscale>  0 0.12500000E+03</rscale>
<asrwt>0</asrwt>
<pdfrwt beam="1">  1       21 0.76241110E-01 0.12500000E+03</pdfrwt>
<pdfrwt beam="2">  1       21 0.12126741E-02 0.12500000E+03</pdfrwt>
<totfact> 0.41857607E+06</totfact>
</mgrwt>
</event>
<event>
 3    1  0.1595726E-001  0.1250000E+03  0.7546771E-02  0.1235069E+00
         21   -1    0    0  502  501  0.00000000000E+00  0.00000000000E+00  0.16162054151E+03  0.16162054151E+03  0.00000000000E+00 0. -1.
         21   -1    0    0  501  502 -0.00000000000E+00 -0.00000000000E+00 -0.24169266873E+02  0.24169266873E+02  0.00000000000E+00 0. -1.
         25    1    1    2    0    0  0.00000000000E+00  0.00000000000E+00  0.13745127464E+03  0.18578980838E+03  0.12500000000E+03 0.  0.
<mgrwt>
<rscale>  0 0.12500000E+03</rscale>
<asrwt>0</asrwt>
<pdfrwt beam="1">  1       21 0.24864698E-01 0.12500000E+03</pdfrwt>
<pdfrwt beam="2">  1       21 0.37183488E-02 0.12500000E+03</pdfrwt>
<totfact> 0.66493475E+06</totfact>
</mgrwt>
</event>
<event>
 3    1  0.1595726E-001  0.1250000E+03  0.7546771E-02  0.1235069E+00
         21   -1    0    0  502  501  0.00000000000E+00  0.00000000000E+00  0.63282664615E+01  0.63282664615E+01  0.00000000000E+00 0. -1.
         21   -1    0    0  501  502 -0.00000000000E+00 -0.00000000000E+00 -0.61727015191E+03  0.61727015191E+03  0.00000000000E+00 0. -1.
         25    1    1    2    0    0  0.00000000000E+00  0.00000000000E+00 -0.61094188545E+03  0.62359841837E+03  0.12500000000E+03 0.  0.
<mgrwt>
<rscale>  0 0.12500000E+03</rscale>
<asrwt>0</asrwt>
<pdfrwt beam="1">  1       21 0.97357905E-03 0.12500000E+03</pdfrwt>
<pdfrwt beam="2">  1       21 0.94964679E-01 0.12500000E+03</pdfrwt>
<totfact> 0.36046699E+06</totfact>
</mgrwt>
</event>
<event>
 3    1  0.1595726E-001  0.1250000E+03  0.7546771E-02  0.1235069E+00
         21   -1    0    0  502  501  0.00000000000E+00  0.00000000000E+00  0.36639067265E+01  0.36639067265E+01  0.00000000000E+00 0.  1.
         21   -1    0    0  501  502 -0.00000000000E+00 -0.00000000000E+00 -0.10661434069E+04  0.10661434069E+04  0.00000000000E+00 0.  1.
         25    1    1    2    0    0  0.00000000000E+00  0.00000000000E+00 -0.10624795002E+04  0.10698073136E+04  0.12500000000E+03 0.  0.
<mgrwt>
<rscale>  0 0.12500000E+03</rscale>
<asrwt>0</asrwt>
<pdfrwt beam="1">  1       21 0.56367819E-03 0.12500000E+03</pdfrwt>
<pdfrwt beam="2">  1       21 0.16402200E+00 0.12500000E+03</pdfrwt>
<totfact> 0.21935701E+06</totfact>
</mgrwt>
</event>
<event>
 3    1  0.1595726E-001  0.1250000E+03  0.7546771E-02  0.1235069E+00
         21   -1    0    0  502  501  0.00000000000E+00  0.00000000000E+00  0.58568129050E+03  0.58568129050E+03  0.00000000000E+00 0. -1.
         21   -1    0    0  501  502 -0.00000000000E+00 -0.00000000000E+00 -0.66695830366E+01  0.66695830366E+01  0.00000000000E+00 0. -1.
         25    1    1    2    0    0  0.00000000000E+00  0.00000000000E+00  0.57901170747E+03  0.59235087354E+03  0.12500000000E+03 0.  0.
<mgrwt>
<rscale>  0 0.12500000E+03</rscale>
<asrwt>0</asrwt>
<pdfrwt beam="1">  1       21 0.90104774E-01 0.12500000E+03</pdfrwt>
<pdfrwt beam="2">  1       21 0.10260902E-02 0.12500000E+03</pdfrwt>
<totfact> 0.37440865E+06</totfact>
</mgrwt>
</event>
<event>
 3    1  0.1595726E-001  0.1250000E+03  0.7546771E-02  0.1235069E+00
         21   -1    0    0  502  501  0.00000000000E+00  0.00000000000E+00  0.13969334364E+02  0.13969334364E+02  0.00000000000E+00 0.  1.
         21   -1    0    0  501  502 -0.00000000000E+00 -0.00000000000E+00 -0.27963036021E+03  0.27963036021E+03  0.00000000000E+00 0.  1.
         25    1    1    2    0    0  0.00000000000E+00  0.00000000000E+00 -0.26566102585E+03  0.29359969458E+03  0.12500000000E+03 0.  0.
<mgrwt>
<rscale>  0 0.12500000E+03</rscale>
<asrwt>0</asrwt>
<pdfrwt beam="1">  1       21 0.21491283E-02 0.12500000E+03</pdfrwt>
<pdfrwt beam="2">  1       21 0.43020057E-01 0.12500000E+03</pdfrwt>
<totfact> 0.55992293E+06</totfact>
</mgrwt>
</event>
<event>
 3    1  0.1595726E-001  0.1250000E+03  0.7546771E-02  0.1235069E+00
         21   -1    0    0  502  501  0.00000000000E+00  0.00000000000E+00  0.13262007818E+02  0.13262007818E+02  0.00000000000E+00 0. -1.
         21   -1    0    0  501  502 -0.00000000000E+00 -0.00000000000E+00 -0.29454438977E+03  0.29454438977E+03  0.00000000000E+00 0. -1.
         25    1    1    2    0    0  0.00000000000E+00  0.00000000000E+00 -0.28128238195E+03  0.30780639759E+03  0.12500000000E+03 0.  0.
<mgrwt>
<rscale>  0 0.12500000E+03</rscale>
<asrwt>0</asrwt>
<pdfrwt beam="1">  1       21 0.20403090E-02 0.12500000E+03</pdfrwt>
<pdfrwt beam="2">  1       21 0.45314520E-01 0.12500000E+03</pdfrwt>
<totfact> 0.54813608E+06</totfact>
</mgrwt>
</event>
<event>
 3    1  0.1595726E-001  0.1250000E+03  0.7546771E-02  0.1235069E+00
         21   -1    0    0  502  501  0.00000000000E+00  0.00000000000E+00  0.14871656712E+03  0.14871656712E+03  0.00000000000E+00 0. -1.
         21   -1    0    0  501  502 -0.00000000000E+00 -0.00000000000E+00 -0.26266407810E+02  0.26266407810E+02  0.00000000000E+00 0. -1.
         25    1    1    2    0    0  0.00000000000E+00  0.00000000000E+00  0.12245015931E+03  0.17498297493E+03  0.12500000000E+03 0.  0.
<mgrwt>
<rscale>  0 0.12500000E+03</rscale>
<asrwt>0</asrwt>
<pdfrwt beam="1">  1       21 0.22879471E-01 0.12500000E+03</pdfrwt>
<pdfrwt beam="2">  1       21 0.40409859E-02 0.12500000E+03</pdfrwt>
<totfact> 0.67731787E+06</totfact>
</mgrwt>
</event>
<event>
 3    1  0.1595726E-001  0.1250000E+03  0.7546771E-02  0.1235069E+00
         21   -1    0    0  502  501  0.00000000000E+00  0.00000000000E+00  0.22877233810E+03  0.22877233810E+03  0.00000000000E+00 0.  1.
         21   -1    0    0  501  502 -0.00000000000E+00 -0.00000000000E+00 -0.17074835325E+02  0.17074835325E+02  0.00000000000E+00 0.  1.
         25    1    1    2    0    0  0.00000000000E+00  0.00000000000E+00  0.21169750278E+03  0.24584717343E+03  0.12500000000E+03 0.  0.
<mgrwt>
<rscale>  0 0.12500000E+03</rscale>
<asrwt>0</asrwt>
<pdfrwt beam="1">  1       21 0.35195742E-01 0.12500000E+03</pdfrwt>
<pdfrwt beam="2">  1       21 0.26268979E-02 0.12500000E+03</pdfrwt>
<totfact> 0.60271391E+06</totfact>
</mgrwt>
</event>
<event>
 3    1  0.1595726E-001  0.1250000E+03  0.7546771E-02  0.1235069E+00
         21   -1    0    0  502  501  0.00000000000E+00  0.00000000000E+00  0.23356045216E+03  0.23356045216E+03  0.00000000000E+00 0.  1.
         21   -1    0    0  501  502 -0.00000000000E+00 -0.00000000000E+00 -0.16724792078E+02  0.16724792078E+02  0.00000000000E+00 0.  1.
         25    1    1    2    0    0  0.00000000000E+00  0.00000000000E+00  0.21683566008E+03  0.25028524424E+03  0.12500000000E+03 0.  0.
<mgrwt>
<rscale>  0 0.12500000E+03</rscale>
<asrwt>0</asrwt>
<pdfrwt beam="1">  1       21 0.35932375E-01 0.12500000E+03</pdfrwt>
<pdfrwt beam="2">  1       21 0.25730451E-02 0.12500000E+03</pdfrwt>
<totfact> 0.59851345E+06</totfact>
</mgrwt>
</event>
<event>
 3    1  0.1595726E-001  0.1250000E+03  0.7546771E-02  0.1235069E+00
         21   -1    0    0  502  501  0.00000000000E+00  0.00000000000E+00  0.45878694593E+02  0.45878694593E+02  0.00000000000E+00 0. -1.
         21   -1    0    0  501  502 -0.00000000000E+00 -0.00000000000E+00 -0.85143006675E+02  0.85143006675E+02  0.00000000000E+00 0. -1.
         25    1    1    2    0    0  0.00000000000E+00  0.00000000000E+00 -0.39264312082E+02  0.13102170127E+03  0.12500000000E+03 0.  0.
<mgrwt>
<rscale>  0 0.12500000E+03</rscale>
<asrwt>0</asrwt>
<pdfrwt beam="1">  1       21 0.70582608E-02 0.12500000E+03</pdfrwt>
<pdfrwt beam="2">  1       21 0.13098924E-01 0.12500000E+03</pdfrwt>
<totfact> 0.73227747E+06</totfact>
</mgrwt>
</event>
<event>
 3    1  0.1595726E-001  0.1250000E+03  0.7546771E-02  0.1235069E+00
         21   -1    0    0  502  501  0.00000000000E+00  0.00000000000E+00  0.14323206425E+02  0.14323206425E+02  0.00000000000E+00 0. -1.
         21   -1    0    0  501  502 -0.00000000000E+00 -0.00000000000E+00 -0.27272175545E+03  0.27272175545E+03  0.00000000000E+00 0. -1.
         25    1    1    2    0    0  0.00000000000E+00  0.00000000000E+00 -0.25839854903E+03  0.28704496188E+03  0.12500000000E+03 0.  0.
<mgrwt>
<rscale>  0 0.12500000E+03</rscale>
<asrwt>0</asrwt>
<pdfrwt beam="1">  1       21 0.22035702E-02 0.12500000E+03</pdfrwt>
<pdfrwt beam="2">  1       21 0.41957194E-01 0.12500000E+03</pdfrwt>
<totfact> 0.56550270E+06</totfact>
</mgrwt>
</event>
<event>
 3    1  0.1595726E-001  0.1250000E+03  0.7546771E-02  0.1235069E+00
         21   -1    0    0  502  501  0.00000000000E+00  0.00000000000E+00  0.46781485651E+02  0.46781485651E+02  0.00000000000E+00 0. -1.
         21   -1    0    0  501  502 -0.00000000000E+00 -0.00000000000E+00 -0.83499913388E+02  0.83499913388E+02  0.00000000000E+00 0. -1.
         25    1    1    2    0    0  0.00000000000E+00  0.00000000000E+00 -0.36718427737E+02  0.13028139904E+03  0.12500000000E+03 0.  0.
<mgrwt>
<rscale>  0 0.12500000E+03</rscale>
<asrwt>0</asrwt>
<pdfrwt beam="1">  1       21 0.71971516E-02 0.12500000E+03</pdfrwt>
<pdfrwt beam="2">  1       21 0.12846141E-01 0.12500000E+03</pdfrwt>
<totfact> 0.73327330E+06</totfact>
</mgrwt>
</event>
<event>
 3    1  0.1595726E-001  0.1250000E+03  0.7546771E-02  0.1235069E+00
         21   -1    0    0  502  501  0.00000000000E+00  0.00000000000E+00  0.19932993708E+03  0.19932993708E+03  0.00000000000E+00 0.  1.
         21   -1    0    0  501  502 -0.00000000000E+00 -0.00000000000E+00 -0.19596905800E+02  0.19596905800E+02  0.00000000000E+00 0.  1.
         25    1    1    2    0    0  0.00000000000E+00  0.00000000000E+00  0.17973303128E+03  0.21892684288E+03  0.12500000000E+03 0.  0.
<mgrwt>
<rscale>  0 0.12500000E+03</rscale>
<asrwt>0</asrwt>
<pdfrwt beam="1">  1       21 0.30666143E-01 0.12500000E+03</pdfrwt>
<pdfrwt beam="2">  1       21 0.30149087E-02 0.12500000E+03</pdfrwt>
<totfact> 0.62932396E+06</totfact>
</mgrwt>
</event>
<event>
 3    1  0.1595726E-001  0.1250000E+03  0.7546771E-02  0.1235069E+00
         21   -1    0    0  502  501  0.00000000000E+00  0.00000000000E+00  0.51300202993E+01  0.51300202993E+01  0.00000000000E+00 0. -1.
         21   -1    0    0  501  502 -0.00000000000E+00 -0.00000000000E+00 -0.76144922867E+03  0.76144922867E+03  0.00000000000E+00 0. -1.
         25    1    1    2    0    0  0.00000000000E+00  0.00000000000E+00 -0.75631920838E+03  0.76657924897E+03  0.12500000000E+03 0.  0.
<mgrwt>
<rscale>  0 0.12500000E+03</rscale>
<asrwt>0</asrwt>
<pdfrwt beam="1">  1       21 0.78923389E-03 0.12500000E+03</pdfrwt>
<pdfrwt beam="2">  1       21 0.11714603E+00 0.12500000E+03</pdfrwt>
<totfact> 0.30494139E+06</totfact>
</mgrwt>
</event>
<event>
 3    1  0.1595726E-001  0.1250000E+03  0.7546771E-02  0.1235069E+00
         21   -1    0    0  502  501  0.00000000000E+00  0.00000000000E+00  0.70212125045E+03  0.70212125045E+03  0.00000000000E+00 0.  1.
         21   -1    0    0  501  502 -0.00000000000E+00 -0.00000000000E+00 -0.55634977541E+01  0.55634977541E+01  0.00000000000E+00 0.  1.
         25    1    1    2    0    0  0.00000000000E+00  0.00000000000E+00  0.69655775269E+03  0.70768474820E+03  0.12500000000E+03 0.  0.
<mgrwt>
<rscale>  0 0.12500000E+03</rscale>
<asrwt>0</asrwt>
<pdfrwt beam="1">  1       21 0.10801858E+00 0.12500000E+03</pdfrwt>
<pdfrwt beam="2">  1       21 0.85592329E-03 0.12500000E+03</pdfrwt>
<totfact> 0.32615983E+06</totfact>
</mgrwt>
</event>
<event>
 3    1  0.1595726E-001  0.1250000E+03  0.7546771E-02  0.1235069E+00
         21   -1    0    0  502  501  0.00000000000E+00  0.00000000000E+00  0.12597929884E+03  0.12597929884E+03  0.00000000000E+00 0.  1.
         21   -1    0    0  501  502 -0.00000000000E+00 -0.00000000000E+00 -0.31007078432E+02  0.31007078432E+02  0.00000000000E+00 0.  1.
         25    1    1    2    0    0  0.00000000000E+00  0.00000000000E+00  0.94972220411E+02  0.15698637727E+03  0.12500000000E+03 0.  0.
<mgrwt>
<rscale>  0 0.12500000E+03</rscale>
<asrwt>0</asrwt>
<pdfrwt beam="1">  1       21 0.19381430E-01 0.12500000E+03</pdfrwt>
<pdfrwt beam="2">  1       21 0.47703198E-02 0.12500000E+03</pdfrwt>
<totfact> 0.69889615E+06</totfact>
</mgrwt>
</event>
<event>
 3    1  0.1595726E-001  0.1250000E+03  0.7546771E-02  0.1235069E+00
         21   -1    0    0  502  501  0.00000000000E+00  0.00000000000E+00  0.62106442243E+02  0.62106442243E+02  0.00000000000E+00 0. -1.
         21   -1    0    0  501  502 -0.00000000000E+00 -0.00000000000E+00 -0.62896051664E+02  0.62896051664E+02  0.00000000000E+00 0. -1.
         25    1    1    2    0    0  0.00000000000E+00  0.00000000000E+00 -0.78960942107E+00  0.12500249391E+03  0.12500000000E+03 0.  0.
<mgrwt>
<rscale>  0 0.12500000E+03</rscale>
<asrwt>0</asrwt>
<pdfrwt beam="1">  1       21 0.95548373E-02 0.12500000E+03</pdfrwt>
<pdfrwt beam="2">  1       21 0.96763156E-02 0.12500000E+03</pdfrwt>
<totfact> 0.74043245E+06</totfact>
</mgrwt>
</event>
<event>
 3    1  0.1595726E-001  0.1250000E+03  0.7546771E-02  0.1235069E+00
         21   -1    0    0  502  501  0.00000000000E+00  0.00000000000E+00  0.30974329044E+02  0.30974329044E+02  0.00000000000E+00 0. -1.
         21   -1    0    0  501  502 -0.00000000000E+00 -0.00000000000E+00 -0.12611249769E+03  0.12611249769E+03  0.00000000000E+00 0. -1.
         25    1    1    2    0    0  0.00000000000E+00  0.00000000000E+00 -0.95138168647E+02  0.15708682673E+03  0.12500000000E+03 0.  0.
<mgrwt>
<rscale>  0 0.12500000E+03</rscale>
<asrwt>0</asrwt>
<pdfrwt beam="1">  1       21 0.47652815E-02 0.12500000E+03</pdfrwt>
<pdfrwt beam="2">  1       21 0.19401922E-01 0.12500000E+03</pdfrwt>
<totfact> 0.69877217E+06</totfact>
</mgrwt>
</event>
<event>
 3    1  0.1595726E-001  0.1250000E+03  0.7546771E-02  0.1235069E+00
         21   -1    0    0  502  501  0.00000000000E+00  0.00000000000E+00  0.88905033463E+02  0.88905033463E+02  0.00000000000E+00 0.  1.
         21   -1    0    0  501  502 -0.00000000000E+00 -0.00000000000E+00 -0.43937332318E+02  0.43937332318E+02  0.00000000000E+00 0.  1.
         25    1    1    2    0    0  0.00000000000E+00  0.00000000000E+00  0.44967701145E+02  0.13284236578E+03  0.12500000000E+03 0.  0.
<mgrwt>
<rscale>  0 0.12500000E+03</rscale>
<asrwt>0</asrwt>
<pdfrwt beam="1">  1       21 0.13677697E-01 0.12500000E+03</pdfrwt>
<pdfrwt beam="2">  1       21 0.67595896E-02 0.12500000E+03</pdfrwt>
<totfact> 0.72983455E+06</totfact>
</mgrwt>
</event>
<event>
 3    1  0.1595726E-001  0.1250000E+03  0.7546771E-02  0.1235069E+00
         21   -1    0    0  502  501  0.00000000000E+00  0.00000000000E+00  0.61409375525E+03  0.61409375525E+03  0.00000000000E+00 0. -1.
         21   -1    0    0  501  502 -0.00000000000E+00 -0.00000000000E+00 -0.63609993859E+01  0.63609993859E+01  0.00000000000E+00 0. -1.
         25    1    1    2    0    0  0.00000000000E+00  0.00000000000E+00  0.60773275586E+03  0.62045475463E+03  0.12500000000E+03 0.  0.
<mgrwt>
<rscale>  0 0.12500000E+03</rscale>
<asrwt>0</asrwt>
<pdfrwt beam="1">  1       21 0.94475915E-01 0.12500000E+03</pdfrwt>
<pdfrwt beam="2">  1       21 0.97861578E-03 0.12500000E+03</pdfrwt>
<totfact> 0.36183643E+06</totfact>
</mgrwt>
</event>
<event>
 3    1  0.1595726E-001  0.1250000E+03  0.7546771E-02  0.1235069E+00
         21   -1    0    0  502  501  0.00000000000E+00  0.00000000000E+00  0.17907676851E+03  0.17907676851E+03  0.00000000000E+00 0.  1.
         21   -1    0    0  501  502 -0.00000000000E+00 -0.00000000000E+00 -0.21813270546E+02  0.21813270546E+02  0.00000000000E+00 0.  1.
         25    1    1    2    0    0  0.00000000000E+00  0.00000000000E+00  0.15726349796E+03  0.20089003905E+03  0.12500000000E+03 0.  0.
<mgrwt>
<rscale>  0 0.12500000E+03</rscale>
<asrwt>0</asrwt>
<pdfrwt beam="1">  1       21 0.27550271E-01 0.12500000E+03</pdfrwt>
<pdfrwt beam="2">  1       21 0.33558879E-02 0.12500000E+03</pdfrwt>
<totfact> 0.64830939E+06</totfact>
</mgrwt>
</event>
<event>
 3    1  0.1595726E-001  0.1250000E+03  0.7546771E-02  0.1235069E+00
         21   -1    0    0  502  501  0.00000000000E+00  0.00000000000E+00  0.45473591959E+01  0.45473591959E+01  0.00000000000E+00 0. -1.
         21   -1    0    0  501  502 -0.00000000000E+00 -0.00000000000E+00 -0.85901505286E+03  0.85901505286E+03  0.00000000000E+00 0. -1.
         25    1    1    2    0    0  0.00000000000E+00  0.00000000000E+00 -0.85446769366E+03  0.86356241205E+03  0.12500000000E+03 0.  0.
<mgrwt>
<rscale>  0 0.12500000E+03</rscale>
<asrwt>0</asrwt>
<pdfrwt beam="1">  1       21 0.69959459E-03 0.12500000E+03</pdfrwt>
<pdfrwt beam="2">  1       21 0.13215600E+00 0.12500000E+03</pdfrwt>
<totfact> 0.27361870E+06</totfact>
</mgrwt>
</event>
<event>
 3    1  0.1595726E-001  0.1250000E+03  0.7546771E-02  0.1235069E+00
         21   -1    0    0  502  501  0.00000000000E+00  0.00000000000E+00  0.21945955733E+03  0.21945955733E+03  0.00000000000E+00 0.  1.
         21   -1    0    0  501  502 -0.00000000000E+00 -0.00000000000E+00 -0.17799407087E+02  0.17799407087E+02  0.00000000000E+00 0.  1.
         25    1    1    2    0    0  0.00000000000E+00  0.00000000000E+00  0.20166015024E+03  0.23725896441E+03  0.12500000000E+03 0.  0.
<mgrwt>
<rscale>  0 0.12500000E+03</rscale>
<asrwt>0</asrwt>
<pdfrwt beam="1">  1       21 0.33763007E-01 0.12500000E+03</pdfrwt>
<pdfrwt beam="2">  1       21 0.27383705E-02 0.12500000E+03</pdfrwt>
<totfact> 0.61098920E+06</totfact>
</mgrwt>
</event>
<event>
 3    1  0.1595726E-001  0.1250000E+03  0.7546771E-02  0.1235069E+00
         21   -1    0    0  502  501  0.00000000000E+00  0.00000000000E+00  0.58031526168E+02  0.58031526168E+02  0.00000000000E+00 0.  1.
         21   -1    0    0  501  502 -0.00000000000E+00 -0.00000000000E+00 -0.67312549884E+02  0.67312549884E+02  0.00000000000E+00 0.  1.
         25    1    1    2    0    0  0.00000000000E+00  0.00000000000E+00 -0.92810237166E+01  0.12534407605E+03  0.12500000000E+03 0.  0.
<mgrwt>
<rscale>  0 0.12500000E+03</rscale>
<asrwt>0</asrwt>
<pdfrwt beam="1">  1       21 0.89279271E-02 0.12500000E+03</pdfrwt>
<pdfrwt beam="2">  1       21 0.10355777E-01 0.12500000E+03</pdfrwt>
<totfact> 0.73997122E+06</totfact>
</mgrwt>
</event>
<event>
 3    1  0.1595726E-001  0.1250000E+03  0.7546771E-02  0.1235069E+00
         21   -1    0    0  502  501  0.00000000000E+00  0.00000000000E+00  0.37951829760E+02  0.37951829760E+02  0.00000000000E+00 0.  1.
         21   -1    0    0  501  502 -0.00000000000E+00 -0.00000000000E+00 -0.10292652620E+03  0.10292652620E+03  0.00000000000E+00 0.  1.
         25    1    1    2    0    0  0.00000000000E+00  0.00000000000E+00 -0.64974696435E+02  0.14087835596E+03  0.12500000000E+03 0.  0.
<mgrwt>
<rscale>  0 0.12500000E+03</rscale>
<asrwt>0</asrwt>
<pdfrwt beam="1">  1       21 0.58387431E-02 0.12500000E+03</pdfrwt>
<pdfrwt beam="2">  1       21 0.15834850E-01 0.12500000E+03</pdfrwt>
<totfact> 0.71924847E+06</totfact>
</mgrwt>
</event>
<event>
 3    1  0.1595726E-001  0.1250000E+03  0.7546771E-02  0.1235069E+00
         21   -1    0    0  502  501  0.00000000000E+00  0.00000000000E+00  0.41490077708E+02  0.41490077708E+02  0.00000000000E+00 0. -1.
         21   -1    0    0  501  502 -0.00000000000E+00 -0.00000000000E+00 -0.94149016242E+02  0.94149016242E+02  0.00000000000E+00 0. -1.
         25    1    1    2    0    0  0.00000000000E+00  0.00000000000E+00 -0.52658938534E+02  0.13563909395E+03  0.12500000000E+03 0.  0.
<mgrwt>
<rscale>  0 0.12500000E+03</rscale>
<asrwt>0</asrwt>
<pdfrwt beam="1">  1       21 0.63830889E-02 0.12500000E+03</pdfrwt>
<pdfrwt beam="2">  1       21 0.14484464E-01 0.12500000E+03</pdfrwt>
<totfact> 0.72611962E+06</totfact>
</mgrwt>
</event>
<event>
 3    1  0.1595726E-001  0.1250000E+03  0.7546771E-02  0.1235069E+00
         21   -1    0    0  502  501  0.00000000000E+00  0.00000000000E+00  0.45459380334E+01  0.45459380334E+01  0.00000000000E+00 0.  1.
         21   -1    0    0  501  502 -0.00000000000E+00 -0.00000000000E+00 -0.85928360028E+03  0.85928360028E+03  0.00000000000E+00 0.  1.
         25    1    1    2    0    0  0.00000000000E+00  0.00000000000E+00 -0.85473766224E+03  0.86382953831E+03  0.12500000000E+03 0.  0.
<mgrwt>
<rscale>  0 0.12500000E+03</rscale>
<asrwt>0</asrwt>
<pdfrwt beam="1">  1       21 0.69937487E-03 0.12500000E+03</pdfrwt>
<pdfrwt beam="2">  1       21 0.13219752E+00 0.12500000E+03</pdfrwt>
<totfact> 0.27353846E+06</totfact>
</mgrwt>
</event>
<event>
 3    1  0.1595726E-001  0.1250000E+03  0.7546771E-02  0.1235069E+00
         21   -1    0    0  502  501  0.00000000000E+00  0.00000000000E+00  0.52306987091E+02  0.52306987091E+02  0.00000000000E+00 0.  1.
         21   -1    0    0  501  502 -0.00000000000E+00 -0.00000000000E+00 -0.74679315657E+02  0.74679315657E+02  0.00000000000E+00 0.  1.
         25    1    1    2    0    0  0.00000000000E+00  0.00000000000E+00 -0.22372328566E+02  0.12698630275E+03  0.12500000000E+03 0.  0.
<mgrwt>
<rscale>  0 0.12500000E+03</rscale>
<asrwt>0</asrwt>
<pdfrwt beam="1">  1       21 0.80472288E-02 0.12500000E+03</pdfrwt>
<pdfrwt beam="2">  1       21 0.11489126E-01 0.12500000E+03</pdfrwt>
<totfact> 0.73771001E+06</totfact>
</mgrwt>
</event>
<event>
 3    1  0.1595726E-001  0.1250000E+03  0.7546771E-02  0.1235069E+00
         21   -1    0    0  502  501  0.00000000000E+00  0.00000000000E+00  0.39545007164E+02  0.39545007164E+02  0.00000000000E+00 0.  1.
         21   -1    0    0  501  502 -0.00000000000E+00 -0.00000000000E+00 -0.98779853139E+02  0.98779853139E+02  0.00000000000E+00 0.  1.
         25    1    1    2    0    0  0.00000000000E+00  0.00000000000E+00 -0.59234845976E+02  0.13832486030E+03  0.12500000000E+03 0.  0.
<mgrwt>
<rscale>  0 0.12500000E+03</rscale>
<asrwt>0</asrwt>
<pdfrwt beam="1">  1       21 0.60838473E-02 0.12500000E+03</pdfrwt>
<pdfrwt beam="2">  1       21 0.15196900E-01 0.12500000E+03</pdfrwt>
<totfact> 0.72258756E+06</totfact>
</mgrwt>
</event>
<event>
 3    1  0.1595726E-001  0.1250000E+03  0.7546771E-02  0.1235069E+00
         21   -1    0    0  502  501  0.00000000000E+00  0.00000000000E+00  0.24938811077E+02  0.24938811077E+02  0.00000000000E+00 0. -1.
         21   -1    0    0  501  502 -0.00000000000E+00 -0.00000000000E+00 -0.15663336908E+03  0.15663336908E+03  0.00000000000E+00 0. -1.
         25    1    1    2    0    0  0.00000000000E+00  0.00000000000E+00 -0.13169455801E+03  0.18157218016E+03  0.12500000000E+03 0.  0.
<mgrwt>
<rscale>  0 0.12500000E+03</rscale>
<asrwt>0</asrwt>
<pdfrwt beam="1">  1       21 0.38367402E-02 0.12500000E+03</pdfrwt>
<pdfrwt beam="2">  1       21 0.24097441E-01 0.12500000E+03</pdfrwt>
<totfact> 0.66971637E+06</totfact>
</mgrwt>
</event>
<event>
 3    1  0.1595726E-001  0.1250000E+03  0.7546771E-02  0.1235069E+00
         21   -1    0    0  502  501  0.00000000000E+00  0.00000000000E+00  0.53425641644E+02  0.53425641644E+02  0.00000000000E+00 0. -1.
         21   -1    0    0  501  502 -0.00000000000E+00 -0.00000000000E+00 -0.73115640352E+02  0.73115640352E+02  0.00000000000E+00 0. -1.
         25    1    1    2    0    0  0.00000000000E+00  0.00000000000E+00 -0.19689998709E+02  0.12654128200E+03  0.12500000000E+03 0.  0.
<mgrwt>
<rscale>  0 0.12500000E+03</rscale>
<asrwt>0</asrwt>
<pdfrwt beam="1">  1       21 0.82193295E-02 0.12500000E+03</pdfrwt>
<pdfrwt beam="2">  1       21 0.11248560E-01 0.12500000E+03</pdfrwt>
<totfact> 0.73831725E+06</totfact>
</mgrwt>
</event>
<event>
 3    1  0.1595726E-001  0.1250000E+03  0.7546771E-02  0.1235069E+00
         21   -1    0    0  502  501  0.00000000000E+00  0.00000000000E+00  0.11205711321E+03  0.11205711321E+03  0.00000000000E+00 0. -1.
         21   -1    0    0  501  502 -0.00000000000E+00 -0.00000000000E+00 -0.34859455935E+02  0.34859455935E+02  0.00000000000E+00 0. -1.
         25    1    1    2    0    0  0.00000000000E+00  0.00000000000E+00  0.77197657271E+02  0.14691656914E+03  0.12500000000E+03 0.  0.
<mgrwt>
<rscale>  0 0.12500000E+03</rscale>
<asrwt>0</asrwt>
<pdfrwt beam="1">  1       21 0.17239556E-01 0.12500000E+03</pdfrwt>
<pdfrwt beam="2">  1       21 0.53629933E-02 0.12500000E+03</pdfrwt>
<totfact> 0.71148720E+06</totfact>
</mgrwt>
</event>
<event>
 3    1  0.1595726E-001  0.1250000E+03  0.7546771E-02  0.1235069E+00
         21   -1    0    0  502  501  0.00000000000E+00  0.00000000000E+00  0.24699906039E+02  0.24699906039E+02  0.00000000000E+00 0. -1.
         21   -1    0    0  501  502 -0.00000000000E+00 -0.00000000000E+00 -0.15814837489E+03  0.15814837489E+03  0.00000000000E+00 0. -1.
         25    1    1    2    0    0  0.00000000000E+00  0.00000000000E+00 -0.13344846885E+03  0.18284828093E+03  0.12500000000E+03 0.  0.
<mgrwt>
<rscale>  0 0.12500000E+03</rscale>
<asrwt>0</asrwt>
<pdfrwt beam="1">  1       21 0.37999856E-02 0.12500000E+03</pdfrwt>
<pdfrwt beam="2">  1       21 0.24330519E-01 0.12500000E+03</pdfrwt>
<totfact> 0.66826284E+06</totfact>
</mgrwt>
</event>
<event>
 3    1  0.1595726E-001  0.1250000E+03  0.7546771E-02  0.1235069E+00
         21   -1    0    0  502  501  0.00000000000E+00  0.00000000000E+00  0.92554574175E+01  0.92554574175E+01  0.00000000000E+00 0.  1.
         21   -1    0    0  501  502 -0.00000000000E+00 -0.00000000000E+00 -0.42204829257E+03  0.42204829257E+03  0.00000000000E+00 0.  1.
         25    1    1    2    0    0  0.00000000000E+00  0.00000000000E+00 -0.41279283515E+03  0.43130374999E+03  0.12500000000E+03 0.  0.
<mgrwt>
<rscale>  0 0.12500000E+03</rscale>
<asrwt>0</asrwt>
<pdfrwt beam="1">  1       21 0.14239167E-02 0.12500000E+03</pdfrwt>
<pdfrwt beam="2">  1       21 0.64930499E-01 0.12500000E+03</pdfrwt>
<totfact> 0.46032031E+06</totfact>
</mgrwt>
</event>
<event>
 3    1  0.1595726E-001  0.1250000E+03  0.7546771E-02  0.1235069E+00
         21   -1    0    0  502  501  0.00000000000E+00  0.00000000000E+00  0.37523504943E+02  0.37523504943E+02  0.00000000000E+00 0. -1.
         21   -1    0    0  501  502 -0.00000000000E+00 -0.00000000000E+00 -0.10410141606E+03  0.10410141606E+03  0.00000000000E+00 0. -1.
         25    1    1    2    0    0  0.00000000000E+00  0.00000000000E+00 -0.66577911113E+02  0.14162492100E+03  0.12500000000E+03 0.  0.
<mgrwt>
<rscale>  0 0.12500000E+03</rscale>
<asrwt>0</asrwt>
<pdfrwt beam="1">  1       21 0.57728469E-02 0.12500000E+03</pdfrwt>
<pdfrwt beam="2">  1       21 0.16015603E-01 0.12500000E+03</pdfrwt>
<totfact> 0.71827882E+06</totfact>
</mgrwt>
</event>
<event>
 3    1  0.1595726E-001  0.1250000E+03  0.7546771E-02  0.1235069E+00
         21   -1    0    0  502  501  0.00000000000E+00  0.00000000000E+00  0.91008807209E+01  0.91008807209E+01  0.00000000000E+00 0.  1.
         21   -1    0    0  501  502 -0.00000000000E+00 -0.00000000000E+00 -0.42921670109E+03  0.42921670109E+03  0.00000000000E+00 0.  1.
         25    1    1    2    0    0  0.00000000000E+00  0.00000000000E+00 -0.42011582037E+03  0.43831758181E+03  0.12500000000E+03 0.  0.
<mgrwt>
<rscale>  0 0.12500000E+03</rscale>
<asrwt>0</asrwt>
<pdfrwt beam="1">  1       21 0.14001356E-02 0.12500000E+03</pdfrwt>
<pdfrwt beam="2">  1       21 0.66033336E-01 0.12500000E+03</pdfrwt>
<totfact> 0.45599465E+06</totfact>
</mgrwt>
</event>
<event>
 3    1  0.1595726E-001  0.1250000E+03  0.7546771E-02  0.1235069E+00
         21   -1    0    0  502  501  0.00000000000E+00  0.00000000000E+00  0.17003452100E+02  0.17003452100E+02  0.00000000000E+00 0.  1.
         21   -1    0    0  501  502 -0.00000000000E+00 -0.00000000000E+00 -0.22973276115E+03  0.22973276115E+03  0.00000000000E+00 0.  1.
         25    1    1    2    0    0  0.00000000000E+00  0.00000000000E+00 -0.21272930906E+03  0.24673621325E+03  0.12500000000E+03 0.  0.
<mgrwt>
<rscale>  0 0.12500000E+03</rscale>
<asrwt>0</asrwt>
<pdfrwt beam="1">  1       21 0.26159156E-02 0.12500000E+03</pdfrwt>
<pdfrwt beam="2">  1       21 0.35343503E-01 0.12500000E+03</pdfrwt>
<totfact> 0.60186837E+06</totfact>
</mgrwt>
</event>
<event>
 3    1  0.1595726E-001  0.1250000E+03  0.7546771E-02  0.1235069E+00
         21   -1    0    0  502  501  0.00000000000E+00  0.00000000000E+00  0.25452750076E+03  0.25452750076E+03  0.00000000000E+00 0. -1.
         21   -1    0    0  501  502 -0.00000000000E+00 -0.00000000000E+00 -0.15347064613E+02  0.15347064613E+02  0.00000000000E+00 0. -1.
         25    1    1    2    0    0  0.00000000000E+00  0.00000000000E+00  0.23918043615E+03  0.26987456537E+03  0.12500000000E+03 0.  0.
<mgrwt>
<rscale>  0 0.12500000E+03</rscale>
<asrwt>0</asrwt>
<pdfrwt beam="1">  1       21 0.39158074E-01 0.12500000E+03</pdfrwt>
<pdfrwt beam="2">  1       21 0.23610871E-02 0.12500000E+03</pdfrwt>
<totfact> 0.58055867E+06</totfact>
</mgrwt>
</event>
<event>
 3    1  0.1595726E-001  0.1250000E+03  0.7546771E-02  0.1235069E+00
         21   -1    0    0  502  501  0.00000000000E+00  0.00000000000E+00  0.51430565957E+03  0.51430565957E+03  0.00000000000E+00 0.  1.
         21   -1    0    0  501  502 -0.00000000000E+00 -0.00000000000E+00 -0.75951915506E+01  0.75951915506E+01  0.00000000000E+00 0.  1.
         25    1    1    2    0    0  0.00000000000E+00  0.00000000000E+00  0.50671046802E+03  0.52190085112E+03  0.12500000000E+03 0.  0.
<mgrwt>
<rscale>  0 0.12500000E+03</rscale>
<asrwt>0</asrwt>
<pdfrwt beam="1">  1       21 0.79123920E-01 0.12500000E+03</pdfrwt>
<pdfrwt beam="2">  1       21 0.11684914E-02 0.12500000E+03</pdfrwt>
<totfact> 0.40880721E+06</totfact>
</mgrwt>
</event>
<event>
 3    1  0.1595726E-001  0.1250000E+03  0.7546771E-02  0.1235069E+00
         21   -1    0    0  502  501  0.00000000000E+00  0.00000000000E+00  0.20526497314E+02  0.20526497314E+02  0.00000000000E+00 0. -1.
         21   -1    0    0  501  502 -0.00000000000E+00 -0.00000000000E+00 -0.19030280423E+03  0.19030280423E+03  0.00000000000E+00 0. -1.
         25    1    1    2    0    0  0.00000000000E+00  0.00000000000E+00 -0.16977630692E+03  0.21082930155E+03  0.12500000000E+03 0.  0.
<mgrwt>
<rscale>  0 0.12500000E+03</rscale>
<asrwt>0</asrwt>
<pdfrwt beam="1">  1       21 0.31579226E-02 0.12500000E+03</pdfrwt>
<pdfrwt beam="2">  1       21 0.29277355E-01 0.12500000E+03</pdfrwt>
<totfact> 0.63772389E+06</totfact>
</mgrwt>
</event>
<event>
 3    1  0.1595726E-001  0.1250000E+03  0.7546771E-02  0.1235069E+00
         21   -1    0    0  502  501  0.00000000000E+00  0.00000000000E+00  0.10744914752E+03  0.10744914752E+03  0.00000000000E+00 0.  1.
         21   -1    0    0  501  502 -0.00000000000E+00 -0.00000000000E+00 -0.36354406622E+02  0.36354406622E+02  0.00000000000E+00 0.  1.
         25    1    1    2    0    0  0.00000000000E+00  0.00000000000E+00  0.71094740893E+02  0.14380355414E+03  0.12500000000E+03 0.  0.
<mgrwt>
<rscale>  0 0.12500000E+03</rscale>
<asrwt>0</asrwt>
<pdfrwt beam="1">  1       21 0.16530638E-01 0.12500000E+03</pdfrwt>
<pdfrwt beam="2">  1       21 0.55929857E-02 0.12500000E+03</pdfrwt>
<totfact> 0.71546568E+06</totfact>
</mgrwt>
</event>
<event>
 3    1  0.1595726E-001  0.1250000E+03  0.7546771E-02  0.1235069E+00
         21   -1    0    0  502  501  0.00000000000E+00  0.00000000000E+00  0.27706334953E+02  0.27706334953E+02  0.00000000000E+00 0. -1.
         21   -1    0    0  501  502 -0.00000000000E+00 -0.00000000000E+00 -0.14098761192E+03  0.14098761192E+03  0.00000000000E+00 0. -1.
         25    1    1    2    0    0  0.00000000000E+00  0.00000000000E+00 -0.11328127697E+03  0.16869394687E+03  0.12500000000E+03 0.  0.
<mgrwt>
<rscale>  0 0.12500000E+03</rscale>
<asrwt>0</asrwt>
<pdfrwt beam="1">  1       21 0.42625131E-02 0.12500000E+03</pdfrwt>
<pdfrwt beam="2">  1       21 0.21690402E-01 0.12500000E+03</pdfrwt>
<totfact> 0.68472484E+06</totfact>
</mgrwt>
</event>
<event>
 3    1  0.1595726E-001  0.1250000E+03  0.7546771E-02  0.1235069E+00
         21   -1    0    0  502  501  0.00000000000E+00  0.00000000000E+00  0.30368445736E+03  0.30368445736E+03  0.00000000000E+00 0.  1.
         21   -1    0    0  501  502 -0.00000000000E+00 -0.00000000000E+00 -0.12862857829E+02  0.12862857829E+02  0.00000000000E+00 0.  1.
         25    1    1    2    0    0  0.00000000000E+00  0.00000000000E+00  0.29082159953E+03  0.31654731519E+03  0.12500000000E+03 0.  0.
<mgrwt>
<rscale>  0 0.12500000E+03</rscale>
<asrwt>0</asrwt>
<pdfrwt beam="1">  1       21 0.46720680E-01 0.12500000E+03</pdfrwt>
<pdfrwt beam="2">  1       21 0.19789014E-02 0.12500000E+03</pdfrwt>
<totfact> 0.54108092E+06</totfact>
</mgrwt>
</event>
<event>
 3    1  0.1595726E-001  0.1250000E+03  0.7546771E-02  0.1235069E+00
         21   -1    0    0  502  501  0.00000000000E+00  0.00000000000E+00  0.17983556796E+03  0.17983556796E+03  0.00000000000E+00 0. -1.
         21   -1    0    0  501  502 -0.00000000000E+00 -0.00000000000E+00 -0.21721231480E+02  0.21721231480E+02  0.00000000000E+00 0. -1.
         25    1    1    2    0    0  0.00000000000E+00  0.00000000000E+00  0.15811433648E+03  0.20155679944E+03  0.12500000000E+03 0.  0.
<mgrwt>
<rscale>  0 0.12500000E+03</rscale>
<asrwt>0</asrwt>
<pdfrwt beam="1">  1       21 0.27667009E-01 0.12500000E+03</pdfrwt>
<pdfrwt beam="2">  1       21 0.33417280E-02 0.12500000E+03</pdfrwt>
<totfact> 0.64758953E+06</totfact>
</mgrwt>
</event>
<event>
 3    1  0.1595726E-001  0.1250000E+03  0.7546771E-02  0.1235069E+00
         21   -1    0    0  502  501  0.00000000000E+00  0.00000000000E+00  0.42237991999E+02  0.42237991999E+02  0.00000000000E+00 0.  1.
         21   -1    0    0  501  502 -0.00000000000E+00 -0.00000000000E+00 -0.92481905864E+02  0.92481905864E+02  0.00000000000E+00 0.  1.
         25    1    1    2    0    0  0.00000000000E+00  0.00000000000E+00 -0.50243913865E+02  0.13471989786E+03  0.12500000000E+03 0.  0.
<mgrwt>
<rscale>  0 0.12500000E+03</rscale>
<asrwt>0</asrwt>
<pdfrwt beam="1">  1       21 0.64981526E-02 0.12500000E+03</pdfrwt>
<pdfrwt beam="2">  1       21 0.14227986E-01 0.12500000E+03</pdfrwt>
<totfact> 0.72733580E+06</totfact>
</mgrwt>
</event>
<event>
 3    1  0.1595726E-001  0.1250000E+03  0.7546771E-02  0.1235069E+00
         21   -1    0    0  502  501  0.00000000000E+00  0.00000000000E+00  0.25243826917E+02  0.25243826917E+02  0.00000000000E+00 0.  1.
         21   -1    0    0  501  502 -0.00000000000E+00 -0.00000000000E+00 -0.15474080110E+03  0.15474080110E+03  0.00000000000E+00 0.  1.
         25    1    1    2    0    0  0.00000000000E+00  0.00000000000E+00 -0.12949697418E+03  0.17998462802E+03  0.12500000000E+03 0.  0.
<mgrwt>
<rscale>  0 0.12500000E+03</rscale>
<asrwt>0</asrwt>
<pdfrwt beam="1">  1       21 0.38836657E-02 0.12500000E+03</pdfrwt>
<pdfrwt beam="2">  1       21 0.23806277E-01 0.12500000E+03</pdfrwt>
<totfact> 0.67153300E+06</totfact>
</mgrwt>
</event>
<event>
 3    1  0.1595726E-001  0.1250000E+03  0.7546771E-02  0.1235069E+00
         21   -1    0    0  502  501  0.00000000000E+00  0.00000000000E+00  0.55878194359E+03  0.55878194359E+03  0.00000000000E+00 0. -1.
         21   -1    0    0  501  502 -0.00000000000E+00 -0.00000000000E+00 -0.69906518004E+01  0.69906518004E+01  0.00000000000E+00 0. -1.
         25    1    1    2    0    0  0.00000000000E+00  0.00000000000E+00  0.55179129179E+03  0.56577259539E+03  0.12500000000E+03 0.  0.
<mgrwt>
<rscale>  0 0.12500000E+03</rscale>
<asrwt>0</asrwt>
<pdfrwt beam="1">  1       21 0.85966417E-01 0.12500000E+03</pdfrwt>
<pdfrwt beam="2">  1       21 0.10754853E-02 0.12500000E+03</pdfrwt>
<totfact> 0.38687742E+06</totfact>
</mgrwt>
</event>
<event>
 3    1  0.1595726E-001  0.1250000E+03  0.7546771E-02  0.1235069E+00
         21   -1    0    0  502  501  0.00000000000E+00  0.00000000000E+00  0.57759983927E+02  0.57759983927E+02  0.00000000000E+00 0. -1.
         21   -1    0    0  501  502 -0.00000000000E+00 -0.00000000000E+00 -0.67629000814E+02  0.67629000814E+02  0.00000000000E+00 0. -1.
         25    1    1    2    0    0  0.00000000000E+00  0.00000000000E+00 -0.98690168868E+01  0.12538898474E+03  0.12500000000E+03 0.  0.
<mgrwt>
<rscale>  0 0.12500000E+03</rscale>
<asrwt>0</asrwt>
<pdfrwt beam="1">  1       21 0.88861514E-02 0.12500000E+03</pdfrwt>
<pdfrwt beam="2">  1       21 0.10404462E-01 0.12500000E+03</pdfrwt>
<totfact> 0.73990960E+06</totfact>
</mgrwt>
</event>
<event>
 3    1  0.1595726E-001  0.1250000E+03  0.7546771E-02  0.1235069E+00
         21   -1    0    0  502  501  0.00000000000E+00  0.00000000000E+00  0.22345435226E+01  0.22345435226E+01  0.00000000000E+00 0. -1.
         21   -1    0    0  501  502 -0.00000000000E+00 -0.00000000000E+00 -0.17481199003E+04  0.17481199003E+04  0.00000000000E+00 0. -1.
         25    1    1    2    0    0  0.00000000000E+00  0.00000000000E+00 -0.17458853568E+04  0.17503544438E+04  0.12500000000E+03 0.  0.
<mgrwt>
<rscale>  0 0.12500000E+03</rscale>
<asrwt>0</asrwt>
<pdfrwt beam="1">  1       21 0.34377687E-03 0.12500000E+03</pdfrwt>
<pdfrwt beam="2">  1       21 0.26894078E+00 0.12500000E+03</pdfrwt>
<totfact> 0.10653345E+06</totfact>
</mgrwt>
</event>
<event>
 3    1  0.1595726E-001  0.1250000E+03  0.7546771E-02  0.1235069E+00
         21   -1    0    0  502  501  0.00000000000E+00  0.00000000000E+00  0.95251997298E+03  0.95251997298E+03  0.00000000000E+00 0. -1.
         21   -1    0    0  501  502 -0.00000000000E+00 -0.00000000000E+00 -0.41009638756E+01  0.41009638756E+01  0.00000000000E+00 0. -1.
         25    1    1    2    0    0  0.00000000000E+00  0.00000000000E+00  0.94841900911E+03  0.95662093686E+03  0.12500000000E+03 0.  0.
<mgrwt>
<rscale>  0 0.12500000E+03</rscale>
<asrwt>0</asrwt>
<pdfrwt beam="1">  1       21 0.14654136E+00 0.12500000E+03</pdfrwt>
<pdfrwt beam="2">  1       21 0.63091828E-03 0.12500000E+03</pdfrwt>
<totfact> 0.24735000E+06</totfact>
</mgrwt>
</event>
<event>
 3    1  0.1595726E-001  0.1250000E+03  0.7546771E-02  0.1235069E+00
         21   -1    0    0  502  501  0.00000000000E+00  0.00000000000E+00  0.57403148398E+01  0.57403148398E+01  0.00000000000E+00 0. -1.
         21   -1    0    0  501  502 -0.00000000000E+00 -0.00000000000E+00 -0.68049403370E+03  0.68049403370E+03  0.00000000000E+00 0. -1.
         25    1    1    2    0    0  0.00000000000E+00  0.00000000000E+00 -0.67475371886E+03  0.68623434854E+03  0.12500000000E+03 0.  0.
<mgrwt>
<rscale>  0 0.12500000E+03</rscale>
<asrwt>0</asrwt>
<pdfrwt beam="1">  1       21 0.88312548E-03 0.12500000E+03</pdfrwt>
<pdfrwt beam="2">  1       21 0.10469138E+00 0.12500000E+03</pdfrwt>
<totfact> 0.33447646E+06</totfact>
</mgrwt>
</event>
<event>
 3    1  0.1595726E-001  0.1250000E+03  0.7546771E-02  0.1235069E+00
         21   -1    0    0  502  501  0.00000000000E+00  0.00000000000E+00  0.19392816958E+03  0.19392816958E+03  0.00000000000E+00 0. -1.
         21   -1    0    0  501  502 -0.00000000000E+00 -0.00000000000E+00 -0.20142767337E+02  0.20142767337E+02  0.00000000000E+00 0. -1.
         25    1    1    2    0    0  0.00000000000E+00  0.00000000000E+00  0.17378540224E+03  0.21407093692E+03  0.12500000000E+03 0.  0.
<mgrwt>
<rscale>  0 0.12500000E+03</rscale>
<asrwt>0</asrwt>
<pdfrwt beam="1">  1       21 0.29835102E-01 0.12500000E+03</pdfrwt>
<pdfrwt beam="2">  1       21 0.30988874E-02 0.12500000E+03</pdfrwt>
<totfact> 0.63433756E+06</totfact>
</mgrwt>
</event>
<event>
 3    1  0.1595726E-001  0.1250000E+03  0.7546771E-02  0.1235069E+00
         21   -1    0    0  502  501  0.00000000000E+00  0.00000000000E+00  0.45041494857E+02  0.45041494857E+02  0.00000000000E+00 0.  1.
         21   -1    0    0  501  502 -0.00000000000E+00 -0.00000000000E+00 -0.86725585206E+02  0.86725585206E+02  0.00000000000E+00 0.  1.
         25    1    1    2    0    0  0.00000000000E+00  0.00000000000E+00 -0.41684090349E+02  0.13176708006E+03  0.12500000000E+03 0.  0.
<mgrwt>
<rscale>  0 0.12500000E+03</rscale>
<asrwt>0</asrwt>
<pdfrwt beam="1">  1       21 0.69294608E-02 0.12500000E+03</pdfrwt>
<pdfrwt beam="2">  1       21 0.13342398E-01 0.12500000E+03</pdfrwt>
<totfact> 0.73127487E+06</totfact>
</mgrwt>
</event>
<event>
 3    1  0.1595726E-001  0.1250000E+03  0.7546771E-02  0.1235069E+00
         21   -1    0    0  502  501  0.00000000000E+00  0.00000000000E+00  0.72704586506E+03  0.72704586506E+03  0.00000000000E+00 0. -1.
         21   -1    0    0  501  502 -0.00000000000E+00 -0.00000000000E+00 -0.53727697078E+01  0.53727697078E+01  0.00000000000E+00 0. -1.
         25    1    1    2    0    0  0.00000000000E+00  0.00000000000E+00  0.72167309536E+03  0.73241863477E+03  0.12500000000E+03 0.  0.
<mgrwt>
<rscale>  0 0.12500000E+03</rscale>
<asrwt>0</asrwt>
<pdfrwt beam="1">  1       21 0.11185313E+00 0.12500000E+03</pdfrwt>
<pdfrwt beam="2">  1       21 0.82658053E-03 0.12500000E+03</pdfrwt>
<totfact> 0.31697123E+06</totfact>
</mgrwt>
</event>
<event>
 3    1  0.1595726E-001  0.1250000E+03  0.7546771E-02  0.1235069E+00
         21   -1    0    0  502  501  0.00000000000E+00  0.00000000000E+00  0.21776100886E+02  0.21776100886E+02  0.00000000000E+00 0. -1.
         21   -1    0    0  501  502 -0.00000000000E+00 -0.00000000000E+00 -0.17938243492E+03  0.17938243492E+03  0.00000000000E+00 0. -1.
         25    1    1    2    0    0  0.00000000000E+00  0.00000000000E+00 -0.15760633403E+03  0.20115853581E+03  0.12500000000E+03 0.  0.
<mgrwt>
<rscale>  0 0.12500000E+03</rscale>
<asrwt>0</asrwt>
<pdfrwt beam="1">  1       21 0.33501695E-02 0.12500000E+03</pdfrwt>
<pdfrwt beam="2">  1       21 0.27597297E-01 0.12500000E+03</pdfrwt>
<totfact> 0.64801934E+06</totfact>
</mgrwt>
</event>
<event>
 3    1  0.1595726E-001  0.1250000E+03  0.7546771E-02  0.1235069E+00
         21   -1    0    0  502  501  0.00000000000E+00  0.00000000000E+00  0.77824766205E+02  0.77824766205E+02  0.00000000000E+00 0. -1.
         21   -1    0    0  501  502 -0.00000000000E+00 -0.00000000000E+00 -0.50192890907E+02  0.50192890907E+02  0.00000000000E+00 0. -1.
         25    1    1    2    0    0  0.00000000000E+00  0.00000000000E+00  0.27631875298E+02  0.12801765711E+03  0.12500000000E+03 0.  0.
<mgrwt>
<rscale>  0 0.12500000E+03</rscale>
<asrwt>0</asrwt>
<pdfrwt beam="1">  1       21 0.11973041E-01 0.12500000E+03</pdfrwt>
<pdfrwt beam="2">  1       21 0.77219832E-02 0.12500000E+03</pdfrwt>
<totfact> 0.73631174E+06</totfact>
</mgrwt>
</event>
<event>
 3    1  0.1595726E-001  0.1250000E+03  0.7546771E-02  0.1235069E+00
         21   -1    0    0  502  501  0.00000000000E+00  0.00000000000E+00  0.85343835699E+02  0.85343835699E+02  0.00000000000E+00 0.  1.
         21   -1    0    0  501  502 -0.00000000000E+00 -0.00000000000E+00 -0.45770733973E+02  0.45770733973E+02  0.00000000000E+00 0.  1.
         25    1    1    2    0    0  0.00000000000E+00  0.00000000000E+00  0.39573101726E+02  0.13111456967E+03  0.12500000000E+03 0.  0.
<mgrwt>
<rscale>  0 0.12500000E+03</rscale>
<asrwt>0</asrwt>
<pdfrwt beam="1">  1       21 0.13129821E-01 0.12500000E+03</pdfrwt>
<pdfrwt beam="2">  1       21 0.70416514E-02 0.12500000E+03</pdfrwt>
<totfact> 0.73215236E+06</totfact>
</mgrwt>
</event>
<event>
 3    1  0.1595726E-001  0.1250000E+03  0.7546771E-02  0.1235069E+00
         21   -1    0    0  502  501  0.00000000000E+00  0.00000000000E+00  0.43442288623E+01  0.43442288623E+01  0.00000000000E+00 0. -1.
         21   -1    0    0  501  502 -0.00000000000E+00 -0.00000000000E+00 -0.89918144826E+03  0.89918144826E+03  0.00000000000E+00 0. -1.
         25    1    1    2    0    0  0.00000000000E+00  0.00000000000E+00 -0.89483721940E+03  0.90352567713E+03  0.12500000000E+03 0.  0.
<mgrwt>
<rscale>  0 0.12500000E+03</rscale>
<asrwt>0</asrwt>
<pdfrwt beam="1">  1       21 0.66834273E-03 0.12500000E+03</pdfrwt>
<pdfrwt beam="2">  1       21 0.13833564E+00 0.12500000E+03</pdfrwt>
<totfact> 0.26197986E+06</totfact>
</mgrwt>
</event>
<event>
 3    1  0.1595726E-001  0.1250000E+03  0.7546771E-02  0.1235069E+00
         21   -1    0    0  502  501  0.00000000000E+00  0.00000000000E+00  0.84730090244E+02  0.84730090244E+02  0.00000000000E+00 0.  1.
         21   -1    0    0  501  502 -0.00000000000E+00 -0.00000000000E+00 -0.46102275930E+02  0.46102275930E+02  0.00000000000E+00 0.  1.
         25    1    1    2    0    0  0.00000000000E+00  0.00000000000E+00  0.38627814313E+02  0.13083236617E+03  0.12500000000E+03 0.  0.
<mgrwt>
<rscale>  0 0.12500000E+03</rscale>
<asrwt>0</asrwt>
<pdfrwt beam="1">  1       21 0.13035399E-01 0.12500000E+03</pdfrwt>
<pdfrwt beam="2">  1       21 0.70926578E-02 0.12500000E+03</pdfrwt>
<totfact> 0.73253270E+06</totfact>
</mgrwt>
</event>
<event>
 3    1  0.1595726E-001  0.1250000E+03  0.7546771E-02  0.1235069E+00
         21   -1    0    0  502  501  0.00000000000E+00  0.00000000000E+00  0.13072651776E+03  0.13072651776E+03  0.00000000000E+00 0. -1.
         21   -1    0    0  501  502 -0.00000000000E+00 -0.00000000000E+00 -0.29881083555E+02  0.29881083555E+02  0.00000000000E+00 0. -1.
         25    1    1    2    0    0  0.00000000000E+00  0.00000000000E+00  0.10084543420E+03  0.16060760131E+03  0.12500000000E+03 0.  0.
<mgrwt>
<rscale>  0 0.12500000E+03</rscale>
<asrwt>0</asrwt>
<pdfrwt beam="1">  1       21 0.20111772E-01 0.12500000E+03</pdfrwt>
<pdfrwt beam="2">  1       21 0.45970899E-02 0.12500000E+03</pdfrwt>
<totfact> 0.69445330E+06</totfact>
</mgrwt>
</event>
<event>
 3    1  0.1595726E-001  0.1250000E+03  0.7546771E-02  0.1235069E+00
         21   -1    0    0  502  501  0.00000000000E+00  0.00000000000E+00  0.21885220231E+03  0.21885220231E+03  0.00000000000E+00 0.  1.
         21   -1    0    0  501  502 -0.00000000000E+00 -0.00000000000E+00 -0.17848803708E+02  0.17848803708E+02  0.00000000000E+00 0.  1.
         25    1    1    2    0    0  0.00000000000E+00  0.00000000000E+00  0.20100339860E+03  0.23670100602E+03  0.12500000000E+03 0.  0.
<mgrwt>
<rscale>  0 0.12500000E+03</rscale>
<asrwt>0</asrwt>
<pdfrwt beam="1">  1       21 0.33669568E-01 0.12500000E+03</pdfrwt>
<pdfrwt beam="2">  1       21 0.27459700E-02 0.12500000E+03</pdfrwt>
<totfact> 0.61153368E+06</totfact>
</mgrwt>
</event>
<event>
 3    1  0.1595726E-001  0.1250000E+03  0.7546771E-02  0.1235069E+00
         21   -1    0    0  502  501  0.00000000000E+00  0.00000000000E+00  0.16082945059E+04  0.16082945059E+04  0.00000000000E+00 0. -1.
         21   -1    0    0  501  502 -0.00000000000E+00 -0.00000000000E+00 -0.24288151118E+01  0.24288151118E+01  0.00000000000E+00 0. -1.
         25    1    1    2    0    0  0.00000000000E+00  0.00000000000E+00  0.16058656907E+04  0.16107233210E+04  0.12500000000E+03 0.  0.
<mgrwt>
<rscale>  0 0.12500000E+03</rscale>
<asrwt>0</asrwt>
<pdfrwt beam="1">  1       21 0.24742907E+00 0.12500000E+03</pdfrwt>
<pdfrwt beam="2">  1       21 0.37366515E-03 0.12500000E+03</pdfrwt>
<totfact> 0.12428813E+06</totfact>
</mgrwt>
</event>
<event>
 3    1  0.1595726E-001  0.1250000E+03  0.7546771E-02  0.1235069E+00
         21   -1    0    0  502  501  0.00000000000E+00  0.00000000000E+00  0.81889555312E+01  0.81889555312E+01  0.00000000000E+00 0. -1.
         21   -1    0    0  501  502 -0.00000000000E+00 -0.00000000000E+00 -0.47701443550E+03  0.47701443550E+03  0.00000000000E+00 0. -1.
         25    1    1    2    0    0  0.00000000000E+00  0.00000000000E+00 -0.46882547997E+03  0.48520339103E+03  0.12500000000E+03 0.  0.
<mgrwt>
<rscale>  0 0.12500000E+03</rscale>
<asrwt>0</asrwt>
<pdfrwt beam="1">  1       21 0.12598396E-02 0.12500000E+03</pdfrwt>
<pdfrwt beam="2">  1       21 0.73386822E-01 0.12500000E+03</pdfrwt>
<totfact> 0.42858067E+06</totfact>
</mgrwt>
</event>
<event>
 3    1  0.1595726E-001  0.1250000E+03  0.7546771E-02  0.1235069E+00
         21   -1    0    0  502  501  0.00000000000E+00  0.00000000000E+00  0.16652244571E+02  0.16652244571E+02  0.00000000000E+00 0.  1.
         21   -1    0    0  501  502 -0.00000000000E+00 -0.00000000000E+00 -0.23457798636E+03  0.23457798636E+03  0.00000000000E+00 0.  1.
         25    1    1    2    0    0  0.00000000000E+00  0.00000000000E+00 -0.21792574179E+03  0.25123023094E+03  0.12500000000E+03 0.  0.
<mgrwt>
<rscale>  0 0.12500000E+03</rscale>
<asrwt>0</asrwt>
<pdfrwt beam="1">  1       21 0.25618839E-02 0.12500000E+03</pdfrwt>
<pdfrwt beam="2">  1       21 0.36088919E-01 0.12500000E+03</pdfrwt>
<totfact> 0.59762559E+06</totfact>
</mgrwt>
</event>
<event>
 3    1  0.1595726E-001  0.1250000E+03  0.7546771E-02  0.1235069E+00
         21   -1    0    0  502  501  0.00000000000E+00  0.00000000000E+00  0.70011686896E+03  0.70011686896E+03  0.00000000000E+00 0. -1.
         21   -1    0    0  501  502 -0.00000000000E+00 -0.00000000000E+00 -0.55794256262E+01  0.55794256262E+01  0.00000000000E+00 0. -1.
         25    1    1    2    0    0  0.00000000000E+00  0.00000000000E+00  0.69453744333E+03  0.70569629458E+03  0.12500000000E+03 0.  0.
<mgrwt>
<rscale>  0 0.12500000E+03</rscale>
<asrwt>0</asrwt>
<pdfrwt beam="1">  1       21 0.10771022E+00 0.12500000E+03</pdfrwt>
<pdfrwt beam="2">  1       21 0.85837373E-03 0.12500000E+03</pdfrwt>
<totfact> 0.32691699E+06</totfact>
</mgrwt>
</event>
<event>
 3    1  0.1595726E-001  0.1250000E+03  0.7546771E-02  0.1235069E+00
         21   -1    0    0  502  501  0.00000000000E+00  0.00000000000E+00  0.24144932622E+02  0.24144932622E+02  0.00000000000E+00 0. -1.
         21   -1    0    0  501  502 -0.00000000000E+00 -0.00000000000E+00 -0.16178342931E+03  0.16178342931E+03  0.00000000000E+00 0. -1.
         25    1    1    2    0    0  0.00000000000E+00  0.00000000000E+00 -0.13763849669E+03  0.18592836193E+03  0.12500000000E+03 0.  0.
<mgrwt>
<rscale>  0 0.12500000E+03</rscale>
<asrwt>0</asrwt>
<pdfrwt beam="1">  1       21 0.37146052E-02 0.12500000E+03</pdfrwt>
<pdfrwt beam="2">  1       21 0.24889757E-01 0.12500000E+03</pdfrwt>
<totfact> 0.66477875E+06</totfact>
</mgrwt>
</event>
<event>
 3    1  0.1595726E-001  0.1250000E+03  0.7546771E-02  0.1235069E+00
         21   -1    0    0  502  501  0.00000000000E+00  0.00000000000E+00  0.31968322496E+02  0.31968322496E+02  0.00000000000E+00 0.  1.
         21   -1    0    0  501  502 -0.00000000000E+00 -0.00000000000E+00 -0.12219127233E+03  0.12219127233E+03  0.00000000000E+00 0.  1.
         25    1    1    2    0    0  0.00000000000E+00  0.00000000000E+00 -0.90222949833E+02  0.15415959483E+03  0.12500000000E+03 0.  0.
<mgrwt>
<rscale>  0 0.12500000E+03</rscale>
<asrwt>0</asrwt>
<pdfrwt beam="1">  1       21 0.49182033E-02 0.12500000E+03</pdfrwt>
<pdfrwt beam="2">  1       21 0.18798658E-01 0.12500000E+03</pdfrwt>
<totfact> 0.70240261E+06</totfact>
</mgrwt>
</event>
<event>
 3    1  0.1595726E-001  0.1250000E+03  0.7546771E-02  0.1235069E+00
         21   -1    0    0  502  501  0.00000000000E+00  0.00000000000E+00  0.53479788330E+01  0.53479788330E+01  0.00000000000E+00 0.  1.
         21   -1    0    0  501  502 -0.00000000000E+00 -0.00000000000E+00 -0.73041612952E+03  0.73041612952E+03  0.00000000000E+00 0.  1.
         25    1    1    2    0    0  0.00000000000E+00  0.00000000000E+00 -0.72506815069E+03  0.73576410836E+03  0.12500000000E+03 0.  0.
<mgrwt>
<rscale>  0 0.12500000E+03</rscale>
<asrwt>0</asrwt>
<pdfrwt beam="1">  1       21 0.82276646E-03 0.12500000E+03</pdfrwt>
<pdfrwt beam="2">  1       21 0.11237165E+00 0.12500000E+03</pdfrwt>
<totfact> 0.31576024E+06</totfact>
</mgrwt>
</event>
<event>
 3    1  0.1595726E-001  0.1250000E+03  0.7546771E-02  0.1235069E+00
         21   -1    0    0  502  501  0.00000000000E+00  0.00000000000E+00  0.11423550837E+03  0.11423550837E+03  0.00000000000E+00 0. -1.
         21   -1    0    0  501  502 -0.00000000000E+00 -0.00000000000E+00 -0.34194709297E+02  0.34194709297E+02  0.00000000000E+00 0. -1.
         25    1    1    2    0    0  0.00000000000E+00  0.00000000000E+00  0.80040799069E+02  0.14843021766E+03  0.12500000000E+03 0.  0.
<mgrwt>
<rscale>  0 0.12500000E+03</rscale>
<asrwt>0</asrwt>
<pdfrwt beam="1">  1       21 0.17574693E-01 0.12500000E+03</pdfrwt>
<pdfrwt beam="2">  1       21 0.52607246E-02 0.12500000E+03</pdfrwt>
<totfact> 0.70956955E+06</totfact>
</mgrwt>
</event>
<event>
 3    1  0.1595726E-001  0.1250000E+03  0.7546771E-02  0.1235069E+00
         21   -1    0    0  502  501  0.00000000000E+00  0.00000000000E+00  0.45658021118E+03  0.45658021118E+03  0.00000000000E+00 0. -1.
         21   -1    0    0  501  502 -0.00000000000E+00 -0.00000000000E+00 -0.85554518228E+01  0.85554518228E+01  0.00000000000E+00 0. -1.
         25    1    1    2    0    0  0.00000000000E+00  0.00000000000E+00  0.44802475936E+03  0.46513566300E+03  0.12500000000E+03 0.  0.
<mgrwt>
<rscale>  0 0.12500000E+03</rscale>
<asrwt>0</asrwt>
<pdfrwt beam="1">  1       21 0.70243090E-01 0.12500000E+03</pdfrwt>
<pdfrwt beam="2">  1       21 0.13162237E-02 0.12500000E+03</pdfrwt>
<totfact> 0.44000228E+06</totfact>
</mgrwt>
</event>
<event>
 3    1  0.1595726E-001  0.1250000E+03  0.7546771E-02  0.1235069E+00
         21   -1    0    0  502  501  0.00000000000E+00  0.00000000000E+00  0.15361343619E+02  0.15361343619E+02  0.00000000000E+00 0.  1.
         21   -1    0    0  501  502 -0.00000000000E+00 -0.00000000000E+00 -0.25429090690E+03  0.25429090690E+03  0.00000000000E+00 0.  1.
         25    1    1    2    0    0  0.00000000000E+00  0.00000000000E+00 -0.23892956328E+03  0.26965225052E+03  0.12500000000E+03 0.  0.
<mgrwt>
<rscale>  0 0.12500000E+03</rscale>
<asrwt>0</asrwt>
<pdfrwt beam="1">  1       21 0.23632837E-02 0.12500000E+03</pdfrwt>
<pdfrwt beam="2">  1       21 0.39121678E-01 0.12500000E+03</pdfrwt>
<totfact> 0.58075727E+06</totfact>
</mgrwt>
</event>
<event>
 3    1  0.1595726E-001  0.1250000E+03  0.7546771E-02  0.1235069E+00
         21   -1    0    0  502  501  0.00000000000E+00  0.00000000000E+00  0.20482031085E+02  0.20482031085E+02  0.00000000000E+00 0. -1.
         21   -1    0    0  501  502 -0.00000000000E+00 -0.00000000000E+00 -0.19071594921E+03  0.19071594921E+03  0.00000000000E+00 0. -1.
         25    1    1    2    0    0  0.00000000000E+00  0.00000000000E+00 -0.17023391812E+03  0.21119798029E+03  0.12500000000E+03 0.  0.
<mgrwt>
<rscale>  0 0.12500000E+03</rscale>
<asrwt>0</asrwt>
<pdfrwt beam="1">  1       21 0.31510816E-02 0.12500000E+03</pdfrwt>
<pdfrwt beam="2">  1       21 0.29340917E-01 0.12500000E+03</pdfrwt>
<totfact> 0.63733714E+06</totfact>
</mgrwt>
</event>
<event>
 3    1  0.1595726E-001  0.1250000E+03  0.7546771E-02  0.1235069E+00
         21   -1    0    0  502  501  0.00000000000E+00  0.00000000000E+00  0.10743606261E+03  0.10743606261E+03  0.00000000000E+00 0.  1.
         21   -1    0    0  501  502 -0.00000000000E+00 -0.00000000000E+00 -0.36358834317E+02  0.36358834317E+02  0.00000000000E+00 0.  1.
         25    1    1    2    0    0  0.00000000000E+00  0.00000000000E+00  0.71077228290E+02  0.14379489692E+03  0.12500000000E+03 0.  0.
<mgrwt>
<rscale>  0 0.12500000E+03</rscale>
<asrwt>0</asrwt>
<pdfrwt beam="1">  1       21 0.16528625E-01 0.12500000E+03</pdfrwt>
<pdfrwt beam="2">  1       21 0.55936669E-02 0.12500000E+03</pdfrwt>
<totfact> 0.71547681E+06</totfact>
</mgrwt>
</event>
<event>
 3    1  0.1595726E-001  0.1250000E+03  0.7546771E-02  0.1235069E+00
         21   -1    0    0  502  501  0.00000000000E+00  0.00000000000E+00  0.40579419355E+02  0.40579419355E+02  0.00000000000E+00 0.  1.
         21   -1    0    0  501  502 -0.00000000000E+00 -0.00000000000E+00 -0.96261850517E+02  0.96261850517E+02  0.00000000000E+00 0.  1.
         25    1    1    2    0    0  0.00000000000E+00  0.00000000000E+00 -0.55682431162E+02  0.13684126987E+03  0.12500000000E+03 0.  0.
<mgrwt>
<rscale>  0 0.12500000E+03</rscale>
<asrwt>0</asrwt>
<pdfrwt beam="1">  1       21 0.62429876E-02 0.12500000E+03</pdfrwt>
<pdfrwt beam="2">  1       21 0.14809515E-01 0.12500000E+03</pdfrwt>
<totfact> 0.72453582E+06</totfact>
</mgrwt>
</event>
<event>
 3    1  0.1595726E-001  0.1250000E+03  0.7546771E-02  0.1235069E+00
         21   -1    0    0  502  501  0.00000000000E+00  0.00000000000E+00  0.13135530152E+02  0.13135530152E+02  0.00000000000E+00 0. -1.
         21   -1    0    0  501  502 -0.00000000000E+00 -0.00000000000E+00 -0.29738046009E+03  0.29738046009E+03  0.00000000000E+00 0. -1.
         25    1    1    2    0    0  0.00000000000E+00  0.00000000000E+00 -0.28424492994E+03  0.31051599024E+03  0.12500000000E+03 0.  0.
<mgrwt>
<rscale>  0 0.12500000E+03</rscale>
<asrwt>0</asrwt>
<pdfrwt beam="1">  1       21 0.20208507E-02 0.12500000E+03</pdfrwt>
<pdfrwt beam="2">  1       21 0.45750841E-01 0.12500000E+03</pdfrwt>
<totfact> 0.54593420E+06</totfact>
</mgrwt>
</event>
<event>
 3    1  0.1595726E-001  0.1250000E+03  0.7546771E-02  0.1235069E+00
         21   -1    0    0  502  501  0.00000000000E+00  0.00000000000E+00  0.61473415865E+02  0.61473415865E+02  0.00000000000E+00 0. -1.
         21   -1    0    0  501  502 -0.00000000000E+00 -0.00000000000E+00 -0.63543727724E+02  0.63543727724E+02  0.00000000000E+00 0. -1.
         25    1    1    2    0    0  0.00000000000E+00  0.00000000000E+00 -0.20703118583E+01  0.12501714359E+03  0.12500000000E+03 0.  0.
<mgrwt>
<rscale>  0 0.12500000E+03</rscale>
<asrwt>0</asrwt>
<pdfrwt beam="1">  1       21 0.94574486E-02 0.12500000E+03</pdfrwt>
<pdfrwt beam="2">  1       21 0.97759581E-02 0.12500000E+03</pdfrwt>
<totfact> 0.74041266E+06</totfact>
</mgrwt>
</event>
<event>
 3    1  0.1595726E-001  0.1250000E+03  0.7546771E-02  0.1235069E+00
         21   -1    0    0  502  501  0.00000000000E+00  0.00000000000E+00  0.34181139541E+03  0.34181139541E+03  0.00000000000E+00 0. -1.
         21   -1    0    0  501  502 -0.00000000000E+00 -0.00000000000E+00 -0.11428085934E+02  0.11428085934E+02  0.00000000000E+00 0. -1.
         25    1    1    2    0    0  0.00000000000E+00  0.00000000000E+00  0.33038330947E+03  0.35323948134E+03  0.12500000000E+03 0.  0.
<mgrwt>
<rscale>  0 0.12500000E+03</rscale>
<asrwt>0</asrwt>
<pdfrwt beam="1">  1       21 0.52586361E-01 0.12500000E+03</pdfrwt>
<pdfrwt beam="2">  1       21 0.17581673E-02 0.12500000E+03</pdfrwt>
<totfact> 0.51300077E+06</totfact>
</mgrwt>
</event>
<event>
 3    1  0.1595726E-001  0.1250000E+03  0.7546771E-02  0.1235069E+00
         21   -1    0    0  502  501  0.00000000000E+00  0.00000000000E+00  0.90203698395E+02  0.90203698395E+02  0.00000000000E+00 0.  1.
         21   -1    0    0  501  502 -0.00000000000E+00 -0.00000000000E+00 -0.43304765431E+02  0.43304765431E+02  0.00000000000E+00 0.  1.
         25    1    1    2    0    0  0.00000000000E+00  0.00000000000E+00  0.46898932964E+02  0.13350846383E+03  0.12500000000E+03 0.  0.
<mgrwt>
<rscale>  0 0.12500000E+03</rscale>
<asrwt>0</asrwt>
<pdfrwt beam="1">  1       21 0.13877492E-01 0.12500000E+03</pdfrwt>
<pdfrwt beam="2">  1       21 0.66622716E-02 0.12500000E+03</pdfrwt>
<totfact> 0.72894576E+06</totfact>
</mgrwt>
</event>
<event>
 3    1  0.1595726E-001  0.1250000E+03  0.7546771E-02  0.1235069E+00
         21   -1    0    0  502  501  0.00000000000E+00  0.00000000000E+00  0.72573277616E+02  0.72573277616E+02  0.00000000000E+00 0. -1.
         21   -1    0    0  501  502 -0.00000000000E+00 -0.00000000000E+00 -0.53824908125E+02  0.53824908125E+02  0.00000000000E+00 0. -1.
         25    1    1    2    0    0  0.00000000000E+00  0.00000000000E+00  0.18748369491E+02  0.12639818574E+03  0.12500000000E+03 0.  0.
<mgrwt>
<rscale>  0 0.12500000E+03</rscale>
<asrwt>0</asrwt>
<pdfrwt beam="1">  1       21 0.11165120E-01 0.12500000E+03</pdfrwt>
<pdfrwt beam="2">  1       21 0.82807551E-02 0.12500000E+03</pdfrwt>
<totfact> 0.73851315E+06</totfact>
</mgrwt>
</event>
<event>
 3    1  0.1595726E-001  0.1250000E+03  0.7546771E-02  0.1235069E+00
         21   -1    0    0  502  501  0.00000000000E+00  0.00000000000E+00  0.13078316055E+02  0.13078316055E+02  0.00000000000E+00 0. -1.
         21   -1    0    0  501  502 -0.00000000000E+00 -0.00000000000E+00 -0.29868141919E+03  0.29868141919E+03  0.00000000000E+00 0. -1.
         25    1    1    2    0    0  0.00000000000E+00  0.00000000000E+00 -0.28560310313E+03  0.31175973524E+03  0.12500000000E+03 0.  0.
<mgrwt>
<rscale>  0 0.12500000E+03</rscale>
<asrwt>0</asrwt>
<pdfrwt beam="1">  1       21 0.20120487E-02 0.12500000E+03</pdfrwt>
<pdfrwt beam="2">  1       21 0.45950987E-01 0.12500000E+03</pdfrwt>
<totfact> 0.54492835E+06</totfact>
</mgrwt>
</event>
<event>
 3    1  0.1595726E-001  0.1250000E+03  0.7546771E-02  0.1235069E+00
         21   -1    0    0  502  501  0.00000000000E+00  0.00000000000E+00  0.28263862806E+01  0.28263862806E+01  0.00000000000E+00 0. -1.
         21   -1    0    0  501  502 -0.00000000000E+00 -0.00000000000E+00 -0.13820651575E+04  0.13820651575E+04  0.00000000000E+00 0. -1.
         25    1    1    2    0    0  0.00000000000E+00  0.00000000000E+00 -0.13792387712E+04  0.13848915438E+04  0.12500000000E+03 0.  0.
<mgrwt>
<rscale>  0 0.12500000E+03</rscale>
<asrwt>0</asrwt>
<pdfrwt beam="1">  1       21 0.43482844E-03 0.12500000E+03</pdfrwt>
<pdfrwt beam="2">  1       21 0.21262552E+00 0.12500000E+03</pdfrwt>
<totfact> 0.15792508E+06</totfact>
</mgrwt>
</event>
<event>
 3    1  0.1595726E-001  0.1250000E+03  0.7546771E-02  0.1235069E+00
         21   -1    0    0  502  501  0.00000000000E+00  0.00000000000E+00  0.98907904654E+01  0.98907904654E+01  0.00000000000E+00 0.  1.
         21   -1    0    0  501  502 -0.00000000000E+00 -0.00000000000E+00 -0.39493810062E+03  0.39493810062E+03  0.00000000000E+00 0.  1.
         25    1    1    2    0    0  0.00000000000E+00  0.00000000000E+00 -0.38504731015E+03  0.40482889108E+03  0.12500000000E+03 0.  0.
<mgrwt>
<rscale>  0 0.12500000E+03</rscale>
<asrwt>0</asrwt>
<pdfrwt beam="1">  1       21 0.15216601E-02 0.12500000E+03</pdfrwt>
<pdfrwt beam="2">  1       21 0.60759707E-01 0.12500000E+03</pdfrwt>
<totfact> 0.47722697E+06</totfact>
</mgrwt>
</event>
<event>
 3    1  0.1595726E-001  0.1250000E+03  0.7546771E-02  0.1235069E+00
         21   -1    0    0  502  501  0.00000000000E+00  0.00000000000E+00  0.96386275346E+02  0.96386275346E+02  0.00000000000E+00 0. -1.
         21   -1    0    0  501  502 -0.00000000000E+00 -0.00000000000E+00 -0.40527035472E+02  0.40527035472E+02  0.00000000000E+00 0. -1.
         25    1    1    2    0    0  0.00000000000E+00  0.00000000000E+00  0.55859239874E+02  0.13691331082E+03  0.12500000000E+03 0.  0.
<mgrwt>
<rscale>  0 0.12500000E+03</rscale>
<asrwt>0</asrwt>
<pdfrwt beam="1">  1       21 0.14828658E-01 0.12500000E+03</pdfrwt>
<pdfrwt beam="2">  1       21 0.62349285E-02 0.12500000E+03</pdfrwt>
<totfact> 0.72444115E+06</totfact>
</mgrwt>
</event>
<event>
 3    1  0.1595726E-001  0.1250000E+03  0.7546771E-02  0.1235069E+00
         21   -1    0    0  502  501  0.00000000000E+00  0.00000000000E+00  0.55816264334E+03  0.55816264334E+03  0.00000000000E+00 0. -1.
         21   -1    0    0  501  502 -0.00000000000E+00 -0.00000000000E+00 -0.69984081640E+01  0.69984081640E+01  0.00000000000E+00 0. -1.
         25    1    1    2    0    0  0.00000000000E+00  0.00000000000E+00  0.55116423518E+03  0.56516105151E+03  0.12500000000E+03 0.  0.
<mgrwt>
<rscale>  0 0.12500000E+03</rscale>
<asrwt>0</asrwt>
<pdfrwt beam="1">  1       21 0.85871141E-01 0.12500000E+03</pdfrwt>
<pdfrwt beam="2">  1       21 0.10766786E-02 0.12500000E+03</pdfrwt>
<totfact> 0.38717128E+06</totfact>
</mgrwt>
</event>
<event>
 3    1  0.1595726E-001  0.1250000E+03  0.7546771E-02  0.1235069E+00
         21   -1    0    0  502  501  0.00000000000E+00  0.00000000000E+00  0.97389115417E+01  0.97389115417E+01  0.00000000000E+00 0.  1.
         21   -1    0    0  501  502 -0.00000000000E+00 -0.00000000000E+00 -0.40109718455E+03  0.40109718455E+03  0.00000000000E+00 0.  1.
         25    1    1    2    0    0  0.00000000000E+00  0.00000000000E+00 -0.39135827301E+03  0.41083609610E+03  0.12500000000E+03 0.  0.
<mgrwt>
<rscale>  0 0.12500000E+03</rscale>
<asrwt>0</asrwt>
<pdfrwt beam="1">  1       21 0.14982948E-02 0.12500000E+03</pdfrwt>
<pdfrwt beam="2">  1       21 0.61707231E-01 0.12500000E+03</pdfrwt>
<totfact> 0.47330825E+06</totfact>
</mgrwt>
</event>
<event>
 3    1  0.1595726E-001  0.1250000E+03  0.7546771E-02  0.1235069E+00
         21   -1    0    0  502  501  0.00000000000E+00  0.00000000000E+00  0.14713910391E+03  0.14713910391E+03  0.00000000000E+00 0.  1.
         21   -1    0    0  501  502 -0.00000000000E+00 -0.00000000000E+00 -0.26548007267E+02  0.26548007267E+02  0.00000000000E+00 0.  1.
         25    1    1    2    0    0  0.00000000000E+00  0.00000000000E+00  0.12059109665E+03  0.17368711118E+03  0.12500000000E+03 0.  0.
<mgrwt>
<rscale>  0 0.12500000E+03</rscale>
<asrwt>0</asrwt>
<pdfrwt beam="1">  1       21 0.22636785E-01 0.12500000E+03</pdfrwt>
<pdfrwt beam="2">  1       21 0.40843089E-02 0.12500000E+03</pdfrwt>
<totfact> 0.67883215E+06</totfact>
</mgrwt>
</event>
<event>
 3    1  0.1595726E-001  0.1250000E+03  0.7546771E-02  0.1235069E+00
         21   -1    0    0  502  501  0.00000000000E+00  0.00000000000E+00  0.97331839860E+01  0.97331839860E+01  0.00000000000E+00 0. -1.
         21   -1    0    0  501  502 -0.00000000000E+00 -0.00000000000E+00 -0.40133321281E+03  0.40133321281E+03  0.00000000000E+00 0. -1.
         25    1    1    2    0    0  0.00000000000E+00  0.00000000000E+00 -0.39160002883E+03  0.41106639680E+03  0.12500000000E+03 0.  0.
<mgrwt>
<rscale>  0 0.12500000E+03</rscale>
<asrwt>0</asrwt>
<pdfrwt beam="1">  1       21 0.14974131E-02 0.12500000E+03</pdfrwt>
<pdfrwt beam="2">  1       21 0.61743562E-01 0.12500000E+03</pdfrwt>
<totfact> 0.47315892E+06</totfact>
</mgrwt>
</event>
<event>
 3    1  0.1595726E-001  0.1250000E+03  0.7546771E-02  0.1235069E+00
         21   -1    0    0  502  501  0.00000000000E+00  0.00000000000E+00  0.12464882163E+02  0.12464882163E+02  0.00000000000E+00 0.  1.
         21   -1    0    0  501  502 -0.00000000000E+00 -0.00000000000E+00 -0.31338041940E+03  0.31338041940E+03  0.00000000000E+00 0.  1.
         25    1    1    2    0    0  0.00000000000E+00  0.00000000000E+00 -0.30091553724E+03  0.32584530157E+03  0.12500000000E+03 0.  0.
<mgrwt>
<rscale>  0 0.12500000E+03</rscale>
<asrwt>0</asrwt>
<pdfrwt beam="1">  1       21 0.19176744E-02 0.12500000E+03</pdfrwt>
<pdfrwt beam="2">  1       21 0.48212365E-01 0.12500000E+03</pdfrwt>
<totfact> 0.53373362E+06</totfact>
</mgrwt>
</event>
<event>
 3    1  0.1595726E-001  0.1250000E+03  0.7546771E-02  0.1235069E+00
         21   -1    0    0  502  501  0.00000000000E+00  0.00000000000E+00  0.79879763463E+01  0.79879763463E+01  0.00000000000E+00 0. -1.
         21   -1    0    0  501  502 -0.00000000000E+00 -0.00000000000E+00 -0.48901622021E+03  0.48901622021E+03  0.00000000000E+00 0. -1.
         25    1    1    2    0    0  0.00000000000E+00  0.00000000000E+00 -0.48102824386E+03  0.49700419656E+03  0.12500000000E+03 0.  0.
<mgrwt>
<rscale>  0 0.12500000E+03</rscale>
<asrwt>0</asrwt>
<pdfrwt beam="1">  1       21 0.12289187E-02 0.12500000E+03</pdfrwt>
<pdfrwt beam="2">  1       21 0.75233310E-01 0.12500000E+03</pdfrwt>
<totfact> 0.42206991E+06</totfact>
</mgrwt>
</event>
<event>
 3    1  0.1595726E-001  0.1250000E+03  0.7546771E-02  0.1235069E+00
         21   -1    0    0  502  501  0.00000000000E+00  0.00000000000E+00  0.59008728812E+02  0.59008728812E+02  0.00000000000E+00 0.  1.
         21   -1    0    0  501  502 -0.00000000000E+00 -0.00000000000E+00 -0.66197833416E+02  0.66197833416E+02  0.00000000000E+00 0.  1.
         25    1    1    2    0    0  0.00000000000E+00  0.00000000000E+00 -0.71891046039E+01  0.12520656223E+03  0.12500000000E+03 0.  0.
<mgrwt>
<rscale>  0 0.12500000E+03</rscale>
<asrwt>0</asrwt>
<pdfrwt beam="1">  1       21 0.90782660E-02 0.12500000E+03</pdfrwt>
<pdfrwt beam="2">  1       21 0.10184282E-01 0.12500000E+03</pdfrwt>
<totfact> 0.74015686E+06</totfact>
</mgrwt>
</event>
<event>
 3    1  0.1595726E-001  0.1250000E+03  0.7546771E-02  0.1235069E+00
         21   -1    0    0  502  501  0.00000000000E+00  0.00000000000E+00  0.11764643549E+04  0.11764643549E+04  0.00000000000E+00 0. -1.
         21   -1    0    0  501  502 -0.00000000000E+00 -0.00000000000E+00 -0.33203300921E+01  0.33203300921E+01  0.00000000000E+00 0. -1.
         25    1    1    2    0    0  0.00000000000E+00  0.00000000000E+00  0.11731440249E+04  0.11797846850E+04  0.12500000000E+03 0.  0.
<mgrwt>
<rscale>  0 0.12500000E+03</rscale>
<asrwt>0</asrwt>
<pdfrwt beam="1">  1       21 0.18099418E+00 0.12500000E+03</pdfrwt>
<pdfrwt beam="2">  1       21 0.51082095E-03 0.12500000E+03</pdfrwt>
<totfact> 0.19550993E+06</totfact>
</mgrwt>
</event>
<event>
 3    1  0.1595726E-001  0.1250000E+03  0.7546771E-02  0.1235069E+00
         21   -1    0    0  502  501  0.00000000000E+00  0.00000000000E+00  0.15878995274E+02  0.15878995274E+02  0.00000000000E+00 0.  1.
         21   -1    0    0  501  502 -0.00000000000E+00 -0.00000000000E+00 -0.24600108084E+03  0.24600108084E+03  0.00000000000E+00 0.  1.
         25    1    1    2    0    0  0.00000000000E+00  0.00000000000E+00 -0.23012208556E+03  0.26188007611E+03  0.12500000000E+03 0.  0.
<mgrwt>
<rscale>  0 0.12500000E+03</rscale>
<asrwt>0</asrwt>
<pdfrwt beam="1">  1       21 0.24429225E-02 0.12500000E+03</pdfrwt>
<pdfrwt beam="2">  1       21 0.37846318E-01 0.12500000E+03</pdfrwt>
<totfact> 0.58777380E+06</totfact>
</mgrwt>
</event>
<event>
 3    1  0.1595726E-001  0.1250000E+03  0.7546771E-02  0.1235069E+00
         21   -1    0    0  502  501  0.00000000000E+00  0.00000000000E+00  0.37491850613E+03  0.37491850613E+03  0.00000000000E+00 0.  1.
         21   -1    0    0  501  502 -0.00000000000E+00 -0.00000000000E+00 -0.10418930877E+02  0.10418930877E+02  0.00000000000E+00 0.  1.
         25    1    1    2    0    0  0.00000000000E+00  0.00000000000E+00  0.36449957525E+03  0.38533743701E+03  0.12500000000E+03 0.  0.
<mgrwt>
<rscale>  0 0.12500000E+03</rscale>
<asrwt>0</asrwt>
<pdfrwt beam="1">  1       21 0.57679760E-01 0.12500000E+03</pdfrwt>
<pdfrwt beam="2">  1       21 0.16029127E-02 0.12500000E+03</pdfrwt>
<totfact> 0.49029359E+06</totfact>
</mgrwt>
</event>
<event>
 3    1  0.1595726E-001  0.1250000E+03  0.7546771E-02  0.1235069E+00
         21   -1    0    0  502  501  0.00000000000E+00  0.00000000000E+00  0.11846152119E+04  0.11846152119E+04  0.00000000000E+00 0. -1.
         21   -1    0    0  501  502 -0.00000000000E+00 -0.00000000000E+00 -0.32974842470E+01  0.32974842470E+01  0.00000000000E+00 0. -1.
         25    1    1    2    0    0  0.00000000000E+00  0.00000000000E+00  0.11813177277E+04  0.11879126962E+04  0.12500000000E+03 0.  0.
<mgrwt>
<rscale>  0 0.12500000E+03</rscale>
<asrwt>0</asrwt>
<pdfrwt beam="1">  1       21 0.18224816E+00 0.12500000E+03</pdfrwt>
<pdfrwt beam="2">  1       21 0.50730621E-03 0.12500000E+03</pdfrwt>
<totfact> 0.19385970E+06</totfact>
</mgrwt>
</event>
<event>
 3    1  0.1595726E-001  0.1250000E+03  0.7546771E-02  0.1235069E+00
         21   -1    0    0  502  501  0.00000000000E+00  0.00000000000E+00  0.37690033565E+02  0.37690033565E+02  0.00000000000E+00 0. -1.
         21   -1    0    0  501  502 -0.00000000000E+00 -0.00000000000E+00 -0.10364145719E+03  0.10364145719E+03  0.00000000000E+00 0. -1.
         25    1    1    2    0    0  0.00000000000E+00  0.00000000000E+00 -0.65951423621E+02  0.14133149075E+03  0.12500000000E+03 0.  0.
<mgrwt>
<rscale>  0 0.12500000E+03</rscale>
<asrwt>0</asrwt>
<pdfrwt beam="1">  1       21 0.57984668E-02 0.12500000E+03</pdfrwt>
<pdfrwt beam="2">  1       21 0.15944839E-01 0.12500000E+03</pdfrwt>
<totfact> 0.71865959E+06</totfact>
</mgrwt>
</event>
<event>
 3    1  0.1595726E-001  0.1250000E+03  0.7546771E-02  0.1235069E+00
         21   -1    0    0  502  501  0.00000000000E+00  0.00000000000E+00  0.10102566530E+03  0.10102566530E+03  0.00000000000E+00 0.  1.
         21   -1    0    0  501  502 -0.00000000000E+00 -0.00000000000E+00 -0.38665917106E+02  0.38665917106E+02  0.00000000000E+00 0.  1.
         25    1    1    2    0    0  0.00000000000E+00  0.00000000000E+00  0.62359748192E+02  0.13969158240E+03  0.12500000000E+03 0.  0.
<mgrwt>
<rscale>  0 0.12500000E+03</rscale>
<asrwt>0</asrwt>
<pdfrwt beam="1">  1       21 0.15542410E-01 0.12500000E+03</pdfrwt>
<pdfrwt beam="2">  1       21 0.59486027E-02 0.12500000E+03</pdfrwt>
<totfact> 0.72079597E+06</totfact>
</mgrwt>
</event>
<event>
 3    1  0.1595726E-001  0.1250000E+03  0.7546771E-02  0.1235069E+00
         21   -1    0    0  502  501  0.00000000000E+00  0.00000000000E+00  0.51808016031E+01  0.51808016031E+01  0.00000000000E+00 0. -1.
         21   -1    0    0  501  502 -0.00000000000E+00 -0.00000000000E+00 -0.75398563760E+03  0.75398563760E+03  0.00000000000E+00 0. -1.
         25    1    1    2    0    0  0.00000000000E+00  0.00000000000E+00 -0.74880483600E+03  0.75916643921E+03  0.12500000000E+03 0.  0.
<mgrwt>
<rscale>  0 0.12500000E+03</rscale>
<asrwt>0</asrwt>
<pdfrwt beam="1">  1       21 0.79704614E-03 0.12500000E+03</pdfrwt>
<pdfrwt beam="2">  1       21 0.11599783E+00 0.12500000E+03</pdfrwt>
<totfact> 0.30749050E+06</totfact>
</mgrwt>
</event>
<event>
 3    1  0.1595726E-001  0.1250000E+03  0.7546771E-02  0.1235069E+00
         21   -1    0    0  502  501  0.00000000000E+00  0.00000000000E+00  0.28189021762E+02  0.28189021762E+02  0.00000000000E+00 0.  1.
         21   -1    0    0  501  502 -0.00000000000E+00 -0.00000000000E+00 -0.13857345008E+03  0.13857345008E+03  0.00000000000E+00 0.  1.
         25    1    1    2    0    0  0.00000000000E+00  0.00000000000E+00 -0.11038442832E+03  0.16676247184E+03  0.12500000000E+03 0.  0.
<mgrwt>
<rscale>  0 0.12500000E+03</rscale>
<asrwt>0</asrwt>
<pdfrwt beam="1">  1       21 0.43367726E-02 0.12500000E+03</pdfrwt>
<pdfrwt beam="2">  1       21 0.21318992E-01 0.12500000E+03</pdfrwt>
<totfact> 0.68702491E+06</totfact>
</mgrwt>
</event>
<event>
 3    1  0.1595726E-001  0.1250000E+03  0.7546771E-02  0.1235069E+00
         21   -1    0    0  502  501  0.00000000000E+00  0.00000000000E+00  0.17279400284E+03  0.17279400284E+03  0.00000000000E+00 0. -1.
         21   -1    0    0  501  502 -0.00000000000E+00 -0.00000000000E+00 -0.22606397999E+02  0.22606397999E+02  0.00000000000E+00 0. -1.
         25    1    1    2    0    0  0.00000000000E+00  0.00000000000E+00  0.15018760484E+03  0.19540040084E+03  0.12500000000E+03 0.  0.
<mgrwt>
<rscale>  0 0.12500000E+03</rscale>
<asrwt>0</asrwt>
<pdfrwt beam="1">  1       21 0.26583692E-01 0.12500000E+03</pdfrwt>
<pdfrwt beam="2">  1       21 0.34779075E-02 0.12500000E+03</pdfrwt>
<totfact> 0.65427227E+06</totfact>
</mgrwt>
</event>
<event>
 3    1  0.1595726E-001  0.1250000E+03  0.7546771E-02  0.1235069E+00
         21   -1    0    0  502  501  0.00000000000E+00  0.00000000000E+00  0.27666300699E+03  0.27666300699E+03  0.00000000000E+00 0. -1.
         21   -1    0    0  501  502 -0.00000000000E+00 -0.00000000000E+00 -0.14119162668E+02  0.14119162668E+02  0.00000000000E+00 0. -1.
         25    1    1    2    0    0  0.00000000000E+00  0.00000000000E+00  0.26254384432E+03  0.29078216966E+03  0.12500000000E+03 0.  0.
<mgrwt>
<rscale>  0 0.12500000E+03</rscale>
<asrwt>0</asrwt>
<pdfrwt beam="1">  1       21 0.42563536E-01 0.12500000E+03</pdfrwt>
<pdfrwt beam="2">  1       21 0.21721791E-02 0.12500000E+03</pdfrwt>
<totfact> 0.56231020E+06</totfact>
</mgrwt>
</event>
<event>
 3    1  0.1595726E-001  0.1250000E+03  0.7546771E-02  0.1235069E+00
         21   -1    0    0  502  501  0.00000000000E+00  0.00000000000E+00  0.19562150732E+02  0.19562150732E+02  0.00000000000E+00 0. -1.
         21   -1    0    0  501  502 -0.00000000000E+00 -0.00000000000E+00 -0.19968407634E+03  0.19968407634E+03  0.00000000000E+00 0. -1.
         25    1    1    2    0    0  0.00000000000E+00  0.00000000000E+00 -0.18012192560E+03  0.21924622707E+03  0.12500000000E+03 0.  0.
<mgrwt>
<rscale>  0 0.12500000E+03</rscale>
<asrwt>0</asrwt>
<pdfrwt beam="1">  1       21 0.30095615E-02 0.12500000E+03</pdfrwt>
<pdfrwt beam="2">  1       21 0.30720629E-01 0.12500000E+03</pdfrwt>
<totfact> 0.62899663E+06</totfact>
</mgrwt>
</event>
<event>
 3    1  0.1595726E-001  0.1250000E+03  0.7546771E-02  0.1235069E+00
         21   -1    0    0  502  501  0.00000000000E+00  0.00000000000E+00  0.47981901961E+03  0.47981901961E+03  0.00000000000E+00 0.  1.
         21   -1    0    0  501  502 -0.00000000000E+00 -0.00000000000E+00 -0.81410903702E+01  0.81410903702E+01  0.00000000000E+00 0.  1.
         25    1    1    2    0    0  0.00000000000E+00  0.00000000000E+00  0.47167792924E+03  0.48796010998E+03  0.12500000000E+03 0.  0.
<mgrwt>
<rscale>  0 0.12500000E+03</rscale>
<asrwt>0</asrwt>
<pdfrwt beam="1">  1       21 0.73818289E-01 0.12500000E+03</pdfrwt>
<pdfrwt beam="2">  1       21 0.12524758E-02 0.12500000E+03</pdfrwt>
<totfact> 0.42704646E+06</totfact>
</mgrwt>
</event>
<event>
 3    1  0.1595726E-001  0.1250000E+03  0.7546771E-02  0.1235069E+00
         21   -1    0    0  502  501  0.00000000000E+00  0.00000000000E+00  0.42572950257E+02  0.42572950257E+02  0.00000000000E+00 0. -1.
         21   -1    0    0  501  502 -0.00000000000E+00 -0.00000000000E+00 -0.91754270644E+02  0.91754270644E+02  0.00000000000E+00 0. -1.
         25    1    1    2    0    0  0.00000000000E+00  0.00000000000E+00 -0.49181320387E+02  0.13432722090E+03  0.12500000000E+03 0.  0.
<mgrwt>
<rscale>  0 0.12500000E+03</rscale>
<asrwt>0</asrwt>
<pdfrwt beam="1">  1       21 0.65496846E-02 0.12500000E+03</pdfrwt>
<pdfrwt beam="2">  1       21 0.14116042E-01 0.12500000E+03</pdfrwt>
<totfact> 0.72785676E+06</totfact>
</mgrwt>
</event>
<event>
 3    1  0.1595726E-001  0.1250000E+03  0.7546771E-02  0.1235069E+00
         21   -1    0    0  502  501  0.00000000000E+00  0.00000000000E+00  0.15810105705E+03  0.15810105705E+03  0.00000000000E+00 0.  1.
         21   -1    0    0  501  502 -0.00000000000E+00 -0.00000000000E+00 -0.24707298439E+02  0.24707298439E+02  0.00000000000E+00 0.  1.
         25    1    1    2    0    0  0.00000000000E+00  0.00000000000E+00  0.13339375861E+03  0.18280835549E+03  0.12500000000E+03 0.  0.
<mgrwt>
<rscale>  0 0.12500000E+03</rscale>
<asrwt>0</asrwt>
<pdfrwt beam="1">  1       21 0.24323239E-01 0.12500000E+03</pdfrwt>
<pdfrwt beam="2">  1       21 0.38011229E-02 0.12500000E+03</pdfrwt>
<totfact> 0.66830823E+06</totfact>
</mgrwt>
</event>
<event>
 3    1  0.1595726E-001  0.1250000E+03  0.7546771E-02  0.1235069E+00
         21   -1    0    0  502  501  0.00000000000E+00  0.00000000000E+00  0.81107179368E+01  0.81107179368E+01  0.00000000000E+00 0. -1.
         21   -1    0    0  501  502 -0.00000000000E+00 -0.00000000000E+00 -0.48161581138E+03  0.48161581138E+03  0.00000000000E+00 0. -1.
         25    1    1    2    0    0  0.00000000000E+00  0.00000000000E+00 -0.47350509344E+03  0.48972652932E+03  0.12500000000E+03 0.  0.
<mgrwt>
<rscale>  0 0.12500000E+03</rscale>
<asrwt>0</asrwt>
<pdfrwt beam="1">  1       21 0.12478029E-02 0.12500000E+03</pdfrwt>
<pdfrwt beam="2">  1       21 0.74094735E-01 0.12500000E+03</pdfrwt>
<totfact> 0.42606762E+06</totfact>
</mgrwt>
</event>
<event>
 3    1  0.1595726E-001  0.1250000E+03  0.7546771E-02  0.1235069E+00
         21   -1    0    0  502  501  0.00000000000E+00  0.00000000000E+00  0.44831462758E+02  0.44831462758E+02  0.00000000000E+00 0.  1.
         21   -1    0    0  501  502 -0.00000000000E+00 -0.00000000000E+00 -0.87131888181E+02  0.87131888181E+02  0.00000000000E+00 0.  1.
         25    1    1    2    0    0  0.00000000000E+00  0.00000000000E+00 -0.42300425423E+02  0.13196335094E+03  0.12500000000E+03 0.  0.
<mgrwt>
<rscale>  0 0.12500000E+03</rscale>
<asrwt>0</asrwt>
<pdfrwt beam="1">  1       21 0.68971482E-02 0.12500000E+03</pdfrwt>
<pdfrwt beam="2">  1       21 0.13404906E-01 0.12500000E+03</pdfrwt>
<totfact> 0.73101145E+06</totfact>
</mgrwt>
</event>
<event>
 3    1  0.1595726E-001  0.1250000E+03  0.7546771E-02  0.1235069E+00
         21   -1    0    0  502  501  0.00000000000E+00  0.00000000000E+00  0.15979191437E+03  0.15979191437E+03  0.00000000000E+00 0. -1.
         21   -1    0    0  501  502 -0.00000000000E+00 -0.00000000000E+00 -0.24445855195E+02  0.24445855195E+02  0.00000000000E+00 0. -1.
         25    1    1    2    0    0  0.00000000000E+00  0.00000000000E+00  0.13534605917E+03  0.18423776956E+03  0.12500000000E+03 0.  0.
<mgrwt>
<rscale>  0 0.12500000E+03</rscale>
<asrwt>0</asrwt>
<pdfrwt beam="1">  1       21 0.24583371E-01 0.12500000E+03</pdfrwt>
<pdfrwt beam="2">  1       21 0.37609009E-02 0.12500000E+03</pdfrwt>
<totfact> 0.66668687E+06</totfact>
</mgrwt>
</event>
<event>
 3    1  0.1595726E-001  0.1250000E+03  0.7546771E-02  0.1235069E+00
         21   -1    0    0  502  501  0.00000000000E+00  0.00000000000E+00  0.24936511996E+01  0.24936511996E+01  0.00000000000E+00 0. -1.
         21   -1    0    0  501  502 -0.00000000000E+00 -0.00000000000E+00 -0.15664781027E+04  0.15664781027E+04  0.00000000000E+00 0. -1.
         25    1    1    2    0    0  0.00000000000E+00  0.00000000000E+00 -0.15639844515E+04  0.15689717539E+04  0.12500000000E+03 0.  0.
<mgrwt>
<rscale>  0 0.12500000E+03</rscale>
<asrwt>0</asrwt>
<pdfrwt beam="1">  1       21 0.38363725E-03 0.12500000E+03</pdfrwt>
<pdfrwt beam="2">  1       21 0.24099751E+00 0.12500000E+03</pdfrwt>
<totfact> 0.13000512E+06</totfact>
</mgrwt>
</event>
<event>
 3    1  0.1595726E-001  0.1250000E+03  0.7546771E-02  0.1235069E+00
         21   -1    0    0  502  501  0.00000000000E+00  0.00000000000E+00  0.15926124081E+02  0.15926124081E+02  0.00000000000E+00 0.  1.
         21   -1    0    0  501  502 -0.00000000000E+00 -0.00000000000E+00 -0.24527311103E+03  0.24527311103E+03  0.00000000000E+00 0.  1.
         25    1    1    2    0    0  0.00000000000E+00  0.00000000000E+00 -0.22934698695E+03  0.26119923511E+03  0.12500000000E+03 0.  0.
<mgrwt>
<rscale>  0 0.12500000E+03</rscale>
<asrwt>0</asrwt>
<pdfrwt beam="1">  1       21 0.24501730E-02 0.12500000E+03</pdfrwt>
<pdfrwt beam="2">  1       21 0.37734323E-01 0.12500000E+03</pdfrwt>
<totfact> 0.58839529E+06</totfact>
</mgrwt>
</event>
<event>
 3    1  0.1595726E-001  0.1250000E+03  0.7546771E-02  0.1235069E+00
         21   -1    0    0  502  501  0.00000000000E+00  0.00000000000E+00  0.21345162401E+03  0.21345162401E+03  0.00000000000E+00 0. -1.
         21   -1    0    0  501  502 -0.00000000000E+00 -0.00000000000E+00 -0.18300399532E+02  0.18300399532E+02  0.00000000000E+00 0. -1.
         25    1    1    2    0    0  0.00000000000E+00  0.00000000000E+00  0.19515122447E+03  0.23175202354E+03  0.12500000000E+03 0.  0.
<mgrwt>
<rscale>  0 0.12500000E+03</rscale>
<asrwt>0</asrwt>
<pdfrwt beam="1">  1       21 0.32838710E-01 0.12500000E+03</pdfrwt>
<pdfrwt beam="2">  1       21 0.28154462E-02 0.12500000E+03</pdfrwt>
<totfact> 0.61640054E+06</totfact>
</mgrwt>
</event>
<event>
 3    1  0.1595726E-001  0.1250000E+03  0.7546771E-02  0.1235069E+00
         21   -1    0    0  502  501  0.00000000000E+00  0.00000000000E+00  0.23547902640E+01  0.23547902640E+01  0.00000000000E+00 0. -1.
         21   -1    0    0  501  502 -0.00000000000E+00 -0.00000000000E+00 -0.16588526204E+04  0.16588526204E+04  0.00000000000E+00 0. -1.
         25    1    1    2    0    0  0.00000000000E+00  0.00000000000E+00 -0.16564978302E+04  0.16612074107E+04  0.12500000000E+03 0.  0.
<mgrwt>
<rscale>  0 0.12500000E+03</rscale>
<asrwt>0</asrwt>
<pdfrwt beam="1">  1       21 0.36227640E-03 0.12500000E+03</pdfrwt>
<pdfrwt beam="2">  1       21 0.25520741E+00 0.12500000E+03</pdfrwt>
<totfact> 0.11762511E+06</totfact>
</mgrwt>
</event>
<event>
 3    1  0.1595726E-001  0.1250000E+03  0.7546771E-02  0.1235069E+00
         21   -1    0    0  502  501  0.00000000000E+00  0.00000000000E+00  0.11907574628E+02  0.11907574628E+02  0.00000000000E+00 0. -1.
         21   -1    0    0  501  502 -0.00000000000E+00 -0.00000000000E+00 -0.32804749263E+03  0.32804749263E+03  0.00000000000E+00 0. -1.
         25    1    1    2    0    0  0.00000000000E+00  0.00000000000E+00 -0.31613991801E+03  0.33995506726E+03  0.12500000000E+03 0.  0.
<mgrwt>
<rscale>  0 0.12500000E+03</rscale>
<asrwt>0</asrwt>
<pdfrwt beam="1">  1       21 0.18319347E-02 0.12500000E+03</pdfrwt>
<pdfrwt beam="2">  1       21 0.50468840E-01 0.12500000E+03</pdfrwt>
<totfact> 0.52288946E+06</totfact>
</mgrwt>
</event>
<event>
 3    1  0.1595726E-001  0.1250000E+03  0.7546771E-02  0.1235069E+00
         21   -1    0    0  502  501  0.00000000000E+00  0.00000000000E+00  0.13137663991E+02  0.13137663991E+02  0.00000000000E+00 0.  1.
         21   -1    0    0  501  502 -0.00000000000E+00 -0.00000000000E+00 -0.29733215910E+03  0.29733215910E+03  0.00000000000E+00 0.  1.
         25    1    1    2    0    0  0.00000000000E+00  0.00000000000E+00 -0.28419449511E+03  0.31046982309E+03  0.12500000000E+03 0.  0.
<mgrwt>
<rscale>  0 0.12500000E+03</rscale>
<asrwt>0</asrwt>
<pdfrwt beam="1">  1       21 0.20211794E-02 0.12500000E+03</pdfrwt>
<pdfrwt beam="2">  1       21 0.45743403E-01 0.12500000E+03</pdfrwt>
<totfact> 0.54597163E+06</totfact>
</mgrwt>
</event>
<event>
 3    1  0.1595726E-001  0.1250000E+03  0.7546771E-02  0.1235069E+00
         21   -1    0    0  502  501  0.00000000000E+00  0.00000000000E+00  0.39394127286E+03  0.39394127286E+03  0.00000000000E+00 0. -1.
         21   -1    0    0  501  502 -0.00000000000E+00 -0.00000000000E+00 -0.99158180903E+01  0.99158180903E+01  0.00000000000E+00 0. -1.
         25    1    1    2    0    0  0.00000000000E+00  0.00000000000E+00  0.38402545477E+03  0.40385709095E+03  0.12500000000E+03 0.  0.
<mgrwt>
<rscale>  0 0.12500000E+03</rscale>
<asrwt>0</asrwt>
<pdfrwt beam="1">  1       21 0.60606338E-01 0.12500000E+03</pdfrwt>
<pdfrwt beam="2">  1       21 0.15255108E-02 0.12500000E+03</pdfrwt>
<totfact> 0.47786567E+06</totfact>
</mgrwt>
</event>
<event>
 3    1  0.1595726E-001  0.1250000E+03  0.7546771E-02  0.1235069E+00
         21   -1    0    0  502  501  0.00000000000E+00  0.00000000000E+00  0.11144230399E+03  0.11144230399E+03  0.00000000000E+00 0. -1.
         21   -1    0    0  501  502 -0.00000000000E+00 -0.00000000000E+00 -0.35051769931E+02  0.35051769931E+02  0.00000000000E+00 0. -1.
         25    1    1    2    0    0  0.00000000000E+00  0.00000000000E+00  0.76390534056E+02  0.14649407392E+03  0.12500000000E+03 0.  0.
<mgrwt>
<rscale>  0 0.12500000E+03</rscale>
<asrwt>0</asrwt>
<pdfrwt beam="1">  1       21 0.17144970E-01 0.12500000E+03</pdfrwt>
<pdfrwt beam="2">  1       21 0.53925800E-02 0.12500000E+03</pdfrwt>
<totfact> 0.71202439E+06</totfact>
</mgrwt>
</event>
<event>
 3    1  0.1595726E-001  0.1250000E+03  0.7546771E-02  0.1235069E+00
         21   -1    0    0  502  501  0.00000000000E+00  0.00000000000E+00  0.52800920351E+03  0.52800920351E+03  0.00000000000E+00 0. -1.
         21   -1    0    0  501  502 -0.00000000000E+00 -0.00000000000E+00 -0.73980718026E+01  0.73980718026E+01  0.00000000000E+00 0. -1.
         25    1    1    2    0    0  0.00000000000E+00  0.00000000000E+00  0.52061113171E+03  0.53540727531E+03  0.12500000000E+03 0.  0.
<mgrwt>
<rscale>  0 0.12500000E+03</rscale>
<asrwt>0</asrwt>
<pdfrwt beam="1">  1       21 0.81232156E-01 0.12500000E+03</pdfrwt>
<pdfrwt beam="2">  1       21 0.11381653E-02 0.12500000E+03</pdfrwt>
<totfact> 0.40186740E+06</totfact>
</mgrwt>
</event>
<event>
 3    1  0.1595726E-001  0.1250000E+03  0.7546771E-02  0.1235069E+00
         21   -1    0    0  502  501  0.00000000000E+00  0.00000000000E+00  0.21843632696E+03  0.21843632696E+03  0.00000000000E+00 0.  1.
         21   -1    0    0  501  502 -0.00000000000E+00 -0.00000000000E+00 -0.17882785590E+02  0.17882785590E+02  0.00000000000E+00 0.  1.
         25    1    1    2    0    0  0.00000000000E+00  0.00000000000E+00  0.20055354137E+03  0.23631911255E+03  0.12500000000E+03 0.  0.
<mgrwt>
<rscale>  0 0.12500000E+03</rscale>
<asrwt>0</asrwt>
<pdfrwt beam="1">  1       21 0.33605587E-01 0.12500000E+03</pdfrwt>
<pdfrwt beam="2">  1       21 0.27511979E-02 0.12500000E+03</pdfrwt>
<totfact> 0.61190684E+06</totfact>
</mgrwt>
</event>
<event>
 3    1  0.1595726E-001  0.1250000E+03  0.7546771E-02  0.1235069E+00
         21   -1    0    0  502  501  0.00000000000E+00  0.00000000000E+00  0.72334363092E+01  0.72334363092E+01  0.00000000000E+00 0.  1.
         21   -1    0    0  501  502 -0.00000000000E+00 -0.00000000000E+00 -0.54002687423E+03  0.54002687423E+03  0.00000000000E+00 0.  1.
         25    1    1    2    0    0  0.00000000000E+00  0.00000000000E+00 -0.53279343792E+03  0.54726031054E+03  0.12500000000E+03 0.  0.
<mgrwt>
<rscale>  0 0.12500000E+03</rscale>
<asrwt>0</asrwt>
<pdfrwt beam="1">  1       21 0.11128367E-02 0.12500000E+03</pdfrwt>
<pdfrwt beam="2">  1       21 0.83081029E-01 0.12500000E+03</pdfrwt>
<totfact> 0.39591794E+06</totfact>
</mgrwt>
</event>
<event>
 3    1  0.1595726E-001  0.1250000E+03  0.7546771E-02  0.1235069E+00
         21   -1    0    0  502  501  0.00000000000E+00  0.00000000000E+00  0.20114195437E+03  0.20114195437E+03  0.00000000000E+00 0.  1.
         21   -1    0    0  501  502 -0.00000000000E+00 -0.00000000000E+00 -0.19420364151E+02  0.19420364151E+02  0.00000000000E+00 0.  1.
         25    1    1    2    0    0  0.00000000000E+00  0.00000000000E+00  0.18172159022E+03  0.22056231852E+03  0.12500000000E+03 0.  0.
<mgrwt>
<rscale>  0 0.12500000E+03</rscale>
<asrwt>0</asrwt>
<pdfrwt beam="1">  1       21 0.30944915E-01 0.12500000E+03</pdfrwt>
<pdfrwt beam="2">  1       21 0.29877485E-02 0.12500000E+03</pdfrwt>
<totfact> 0.62765106E+06</totfact>
</mgrwt>
</event>
<event>
 3    1  0.1595726E-001  0.1250000E+03  0.7546771E-02  0.1235069E+00
         21   -1    0    0  502  501  0.00000000000E+00  0.00000000000E+00  0.45636101469E+03  0.45636101469E+03  0.00000000000E+00 0. -1.
         21   -1    0    0  501  502 -0.00000000000E+00 -0.00000000000E+00 -0.85595611243E+01  0.85595611243E+01  0.00000000000E+00 0. -1.
         25    1    1    2    0    0  0.00000000000E+00  0.00000000000E+00  0.44780145357E+03  0.46492057582E+03  0.12500000000E+03 0.  0.
<mgrwt>
<rscale>  0 0.12500000E+03</rscale>
<asrwt>0</asrwt>
<pdfrwt beam="1">  1       21 0.70209368E-01 0.12500000E+03</pdfrwt>
<pdfrwt beam="2">  1       21 0.13168559E-02 0.12500000E+03</pdfrwt>
<totfact> 0.44012716E+06</totfact>
</mgrwt>
</event>
<event>
 3    1  0.1595726E-001  0.1250000E+03  0.7546771E-02  0.1235069E+00
         21   -1    0    0  502  501  0.00000000000E+00  0.00000000000E+00  0.43593522847E+03  0.43593522847E+03  0.00000000000E+00 0. -1.
         21   -1    0    0  501  502 -0.00000000000E+00 -0.00000000000E+00 -0.89606201677E+01  0.89606201677E+01  0.00000000000E+00 0. -1.
         25    1    1    2    0    0  0.00000000000E+00  0.00000000000E+00  0.42697460830E+03  0.44489584864E+03  0.12500000000E+03 0.  0.
<mgrwt>
<rscale>  0 0.12500000E+03</rscale>
<asrwt>0</asrwt>
<pdfrwt beam="1">  1       21 0.67066942E-01 0.12500000E+03</pdfrwt>
<pdfrwt beam="2">  1       21 0.13785573E-02 0.12500000E+03</pdfrwt>
<totfact> 0.45199279E+06</totfact>
</mgrwt>
</event>
<event>
 3    1  0.1595726E-001  0.1250000E+03  0.7546771E-02  0.1235069E+00
         21   -1    0    0  502  501  0.00000000000E+00  0.00000000000E+00  0.28198713306E+03  0.28198713306E+03  0.00000000000E+00 0. -1.
         21   -1    0    0  501  502 -0.00000000000E+00 -0.00000000000E+00 -0.13852582413E+02  0.13852582413E+02  0.00000000000E+00 0. -1.
         25    1    1    2    0    0  0.00000000000E+00  0.00000000000E+00  0.26813455064E+03  0.29583971547E+03  0.12500000000E+03 0.  0.
<mgrwt>
<rscale>  0 0.12500000E+03</rscale>
<asrwt>0</asrwt>
<pdfrwt beam="1">  1       21 0.43382632E-01 0.12500000E+03</pdfrwt>
<pdfrwt beam="2">  1       21 0.21311667E-02 0.12500000E+03</pdfrwt>
<totfact> 0.55803693E+06</totfact>
</mgrwt>
</event>
<event>
 3    1  0.1595726E-001  0.1250000E+03  0.7546771E-02  0.1235069E+00
         21   -1    0    0  502  501  0.00000000000E+00  0.00000000000E+00  0.62203324882E+01  0.62203324882E+01  0.00000000000E+00 0. -1.
         21   -1    0    0  501  502 -0.00000000000E+00 -0.00000000000E+00 -0.62798090092E+03  0.62798090092E+03  0.00000000000E+00 0. -1.
         25    1    1    2    0    0  0.00000000000E+00  0.00000000000E+00 -0.62176056843E+03  0.63420123341E+03  0.12500000000E+03 0.  0.
<mgrwt>
<rscale>  0 0.12500000E+03</rscale>
<asrwt>0</asrwt>
<pdfrwt beam="1">  1       21 0.95697448E-03 0.12500000E+03</pdfrwt>
<pdfrwt beam="2">  1       21 0.96612421E-01 0.12500000E+03</pdfrwt>
<totfact> 0.35590225E+06</totfact>
</mgrwt>
</event>
<event>
 3    1  0.1595726E-001  0.1250000E+03  0.7546771E-02  0.1235069E+00
         21   -1    0    0  502  501  0.00000000000E+00  0.00000000000E+00  0.18864001587E+03  0.18864001587E+03  0.00000000000E+00 0.  1.
         21   -1    0    0  501  502 -0.00000000000E+00 -0.00000000000E+00 -0.20707430403E+02  0.20707430403E+02  0.00000000000E+00 0.  1.
         25    1    1    2    0    0  0.00000000000E+00  0.00000000000E+00  0.16793258547E+03  0.20934744628E+03  0.12500000000E+03 0.  0.
<mgrwt>
<rscale>  0 0.12500000E+03</rscale>
<asrwt>0</asrwt>
<pdfrwt beam="1">  1       21 0.29021540E-01 0.12500000E+03</pdfrwt>
<pdfrwt beam="2">  1       21 0.31857586E-02 0.12500000E+03</pdfrwt>
<totfact> 0.63928258E+06</totfact>
</mgrwt>
</event>
<event>
 3    1  0.1595726E-001  0.1250000E+03  0.7546771E-02  0.1235069E+00
         21   -1    0    0  502  501  0.00000000000E+00  0.00000000000E+00  0.92219915196E+02  0.92219915196E+02  0.00000000000E+00 0. -1.
         21   -1    0    0  501  502 -0.00000000000E+00 -0.00000000000E+00 -0.42357987336E+02  0.42357987336E+02  0.00000000000E+00 0. -1.
         25    1    1    2    0    0  0.00000000000E+00  0.00000000000E+00  0.49861927861E+02  0.13457790253E+03  0.12500000000E+03 0.  0.
<mgrwt>
<rscale>  0 0.12500000E+03</rscale>
<asrwt>0</asrwt>
<pdfrwt beam="1">  1       21 0.14187679E-01 0.12500000E+03</pdfrwt>
<pdfrwt beam="2">  1       21 0.65166134E-02 0.12500000E+03</pdfrwt>
<totfact> 0.72752409E+06</totfact>
</mgrwt>
</event>
<event>
 3    1  0.1595726E-001  0.1250000E+03  0.7546771E-02  0.1235069E+00
         21   -1    0    0  502  501  0.00000000000E+00  0.00000000000E+00  0.54742209615E+02  0.54742209615E+02  0.00000000000E+00 0. -1.
         21   -1    0    0  501  502 -0.00000000000E+00 -0.00000000000E+00 -0.71357185387E+02  0.71357185387E+02  0.00000000000E+00 0. -1.
         25    1    1    2    0    0  0.00000000000E+00  0.00000000000E+00 -0.16614975771E+02  0.12609939500E+03  0.12500000000E+03 0.  0.
<mgrwt>
<rscale>  0 0.12500000E+03</rscale>
<asrwt>0</asrwt>
<pdfrwt beam="1">  1       21 0.84218784E-02 0.12500000E+03</pdfrwt>
<pdfrwt beam="2">  1       21 0.10978029E-01 0.12500000E+03</pdfrwt>
<totfact> 0.73892346E+06</totfact>
</mgrwt>
</event>
<event>
 3    1  0.1595726E-001  0.1250000E+03  0.7546771E-02  0.1235069E+00
         21   -1    0    0  502  501  0.00000000000E+00  0.00000000000E+00  0.16385465106E+02  0.16385465106E+02  0.00000000000E+00 0.  1.
         21   -1    0    0  501  502 -0.00000000000E+00 -0.00000000000E+00 -0.23839726090E+03  0.23839726090E+03  0.00000000000E+00 0.  1.
         25    1    1    2    0    0  0.00000000000E+00  0.00000000000E+00 -0.22201179580E+03  0.25478272601E+03  0.12500000000E+03 0.  0.
<mgrwt>
<rscale>  0 0.12500000E+03</rscale>
<asrwt>0</asrwt>
<pdfrwt beam="1">  1       21 0.25208407E-02 0.12500000E+03</pdfrwt>
<pdfrwt beam="2">  1       21 0.36676503E-01 0.12500000E+03</pdfrwt>
<totfact> 0.59430802E+06</totfact>
</mgrwt>
</event>
<event>
 3    1  0.1595726E-001  0.1250000E+03  0.7546771E-02  0.1235069E+00
         21   -1    0    0  502  501  0.00000000000E+00  0.00000000000E+00  0.10043795218E+03  0.10043795218E+03  0.00000000000E+00 0. -1.
         21   -1    0    0  501  502 -0.00000000000E+00 -0.00000000000E+00 -0.38892170888E+02  0.38892170888E+02  0.00000000000E+00 0. -1.
         25    1    1    2    0    0  0.00000000000E+00  0.00000000000E+00  0.61545781296E+02  0.13933012307E+03  0.12500000000E+03 0.  0.
<mgrwt>
<rscale>  0 0.12500000E+03</rscale>
<asrwt>0</asrwt>
<pdfrwt beam="1">  1       21 0.15451993E-01 0.12500000E+03</pdfrwt>
<pdfrwt beam="2">  1       21 0.59834109E-02 0.12500000E+03</pdfrwt>
<totfact> 0.72126880E+06</totfact>
</mgrwt>
</event>
<event>
 3    1  0.1595726E-001  0.1250000E+03  0.7546771E-02  0.1235069E+00
         21   -1    0    0  502  501  0.00000000000E+00  0.00000000000E+00  0.16179256515E+03  0.16179256515E+03  0.00000000000E+00 0. -1.
         21   -1    0    0  501  502 -0.00000000000E+00 -0.00000000000E+00 -0.24143569245E+02  0.24143569245E+02  0.00000000000E+00 0. -1.
         25    1    1    2    0    0  0.00000000000E+00  0.00000000000E+00  0.13764899591E+03  0.18593613440E+03  0.12500000000E+03 0.  0.
<mgrwt>
<rscale>  0 0.12500000E+03</rscale>
<asrwt>0</asrwt>
<pdfrwt beam="1">  1       21 0.24891163E-01 0.12500000E+03</pdfrwt>
<pdfrwt beam="2">  1       21 0.37143954E-02 0.12500000E+03</pdfrwt>
<totfact> 0.66477000E+06</totfact>
</mgrwt>
</event>
<event>
 3    1  0.1595726E-001  0.1250000E+03  0.7546771E-02  0.1235069E+00
         21   -1    0    0  502  501  0.00000000000E+00  0.00000000000E+00  0.15099970515E+03  0.15099970515E+03  0.00000000000E+00 0. -1.
         21   -1    0    0  501  502 -0.00000000000E+00 -0.00000000000E+00 -0.25869255811E+02  0.25869255811E+02  0.00000000000E+00 0. -1.
         25    1    1    2    0    0  0.00000000000E+00  0.00000000000E+00  0.12513044934E+03  0.17686896096E+03  0.12500000000E+03 0.  0.
<mgrwt>
<rscale>  0 0.12500000E+03</rscale>
<asrwt>0</asrwt>
<pdfrwt beam="1">  1       21 0.23230723E-01 0.12500000E+03</pdfrwt>
<pdfrwt beam="2">  1       21 0.39798856E-02 0.12500000E+03</pdfrwt>
<totfact> 0.67512547E+06</totfact>
</mgrwt>
</event>
<event>
 3    1  0.1595726E-001  0.1250000E+03  0.7546771E-02  0.1235069E+00
         21   -1    0    0  502  501  0.00000000000E+00  0.00000000000E+00  0.32913715746E+02  0.32913715746E+02  0.00000000000E+00 0. -1.
         21   -1    0    0  501  502 -0.00000000000E+00 -0.00000000000E+00 -0.11868152566E+03  0.11868152566E+03  0.00000000000E+00 0. -1.
         25    1    1    2    0    0  0.00000000000E+00  0.00000000000E+00 -0.85767809917E+02  0.15159524141E+03  0.12500000000E+03 0.  0.
<mgrwt>
<rscale>  0 0.12500000E+03</rscale>
<asrwt>0</asrwt>
<pdfrwt beam="1">  1       21 0.50636487E-02 0.12500000E+03</pdfrwt>
<pdfrwt beam="2">  1       21 0.18258696E-01 0.12500000E+03</pdfrwt>
<totfact> 0.70559381E+06</totfact>
</mgrwt>
</event>
<event>
 3    1  0.1595726E-001  0.1250000E+03  0.7546771E-02  0.1235069E+00
         21   -1    0    0  502  501  0.00000000000E+00  0.00000000000E+00  0.31116436637E+02  0.31116436637E+02  0.00000000000E+00 0.  1.
         21   -1    0    0  501  502 -0.00000000000E+00 -0.00000000000E+00 -0.12553654667E+03  0.12553654667E+03  0.00000000000E+00 0.  1.
         25    1    1    2    0    0  0.00000000000E+00  0.00000000000E+00 -0.94420110030E+02  0.15665298330E+03  0.12500000000E+03 0.  0.
<mgrwt>
<rscale>  0 0.12500000E+03</rscale>
<asrwt>0</asrwt>
<pdfrwt beam="1">  1       21 0.47871440E-02 0.12500000E+03</pdfrwt>
<pdfrwt beam="2">  1       21 0.19313315E-01 0.12500000E+03</pdfrwt>
<totfact> 0.69930794E+06</totfact>
</mgrwt>
</event>
<event>
 3    1  0.1595726E-001  0.1250000E+03  0.7546771E-02  0.1235069E+00
         21   -1    0    0  502  501  0.00000000000E+00  0.00000000000E+00  0.41574340375E+02  0.41574340375E+02  0.00000000000E+00 0. -1.
         21   -1    0    0  501  502 -0.00000000000E+00 -0.00000000000E+00 -0.93958195482E+02  0.93958195482E+02  0.00000000000E+00 0. -1.
         25    1    1    2    0    0  0.00000000000E+00  0.00000000000E+00 -0.52383855107E+02  0.13553253586E+03  0.12500000000E+03 0.  0.
<mgrwt>
<rscale>  0 0.12500000E+03</rscale>
<asrwt>0</asrwt>
<pdfrwt beam="1">  1       21 0.63960524E-02 0.12500000E+03</pdfrwt>
<pdfrwt beam="2">  1       21 0.14455107E-01 0.12500000E+03</pdfrwt>
<totfact> 0.72626038E+06</totfact>
</mgrwt>
</event>
<event>
 3    1  0.1595726E-001  0.1250000E+03  0.7546771E-02  0.1235069E+00
         21   -1    0    0  502  501  0.00000000000E+00  0.00000000000E+00  0.19897595419E+02  0.19897595419E+02  0.00000000000E+00 0.  1.
         21   -1    0    0  501  502 -0.00000000000E+00 -0.00000000000E+00 -0.19631769155E+03  0.19631769155E+03  0.00000000000E+00 0.  1.
         25    1    1    2    0    0  0.00000000000E+00  0.00000000000E+00 -0.17642009613E+03  0.21621528697E+03  0.12500000000E+03 0.  0.
<mgrwt>
<rscale>  0 0.12500000E+03</rscale>
<asrwt>0</asrwt>
<pdfrwt beam="1">  1       21 0.30611685E-02 0.12500000E+03</pdfrwt>
<pdfrwt beam="2">  1       21 0.30202722E-01 0.12500000E+03</pdfrwt>
<totfact> 0.63211491E+06</totfact>
</mgrwt>
</event>
<event>
 3    1  0.1595726E-001  0.1250000E+03  0.7546771E-02  0.1235069E+00
         21   -1    0    0  502  501  0.00000000000E+00  0.00000000000E+00  0.25175122425E+03  0.25175122425E+03  0.00000000000E+00 0. -1.
         21   -1    0    0  501  502 -0.00000000000E+00 -0.00000000000E+00 -0.15516309848E+02  0.15516309848E+02  0.00000000000E+00 0. -1.
         25    1    1    2    0    0  0.00000000000E+00  0.00000000000E+00  0.23623491440E+03  0.26726753410E+03  0.12500000000E+03 0.  0.
<mgrwt>
<rscale>  0 0.12500000E+03</rscale>
<asrwt>0</asrwt>
<pdfrwt beam="1">  1       21 0.38730954E-01 0.12500000E+03</pdfrwt>
<pdfrwt beam="2">  1       21 0.23871248E-02 0.12500000E+03</pdfrwt>
<totfact> 0.58289502E+06</totfact>
</mgrwt>
</event>
<event>
 3    1  0.1595726E-001  0.1250000E+03  0.7546771E-02  0.1235069E+00
         21   -1    0    0  502  501  0.00000000000E+00  0.00000000000E+00  0.66389479313E+03  0.66389479313E+03  0.00000000000E+00 0. -1.
         21   -1    0    0  501  502 -0.00000000000E+00 -0.00000000000E+00 -0.58838388860E+01  0.58838388860E+01  0.00000000000E+00 0. -1.
         25    1    1    2    0    0  0.00000000000E+00  0.00000000000E+00  0.65801095424E+03  0.66977863202E+03  0.12500000000E+03 0.  0.
<mgrwt>
<rscale>  0 0.12500000E+03</rscale>
<asrwt>0</asrwt>
<pdfrwt beam="1">  1       21 0.10213760E+00 0.12500000E+03</pdfrwt>
<pdfrwt beam="2">  1       21 0.90520651E-03 0.12500000E+03</pdfrwt>
<totfact> 0.34108148E+06</totfact>
</mgrwt>
</event>
<event>
 3    1  0.1595726E-001  0.1250000E+03  0.7546771E-02  0.1235069E+00
         21   -1    0    0  502  501  0.00000000000E+00  0.00000000000E+00  0.43662161569E+02  0.43662161569E+02  0.00000000000E+00 0.  1.
         21   -1    0    0  501  502 -0.00000000000E+00 -0.00000000000E+00 -0.89465337024E+02  0.89465337024E+02  0.00000000000E+00 0.  1.
         25    1    1    2    0    0  0.00000000000E+00  0.00000000000E+00 -0.45803175454E+02  0.13312749859E+03  0.12500000000E+03 0.  0.
<mgrwt>
<rscale>  0 0.12500000E+03</rscale>
<asrwt>0</asrwt>
<pdfrwt beam="1">  1       21 0.67172556E-02 0.12500000E+03</pdfrwt>
<pdfrwt beam="2">  1       21 0.13763898E-01 0.12500000E+03</pdfrwt>
<totfact> 0.72945378E+06</totfact>
</mgrwt>
</event>
<event>
 3    1  0.1595726E-001  0.1250000E+03  0.7546771E-02  0.1235069E+00
         21   -1    0    0  502  501  0.00000000000E+00  0.00000000000E+00  0.34072174442E+03  0.34072174442E+03  0.00000000000E+00 0.  1.
         21   -1    0    0  501  502 -0.00000000000E+00 -0.00000000000E+00 -0.11464633719E+02  0.11464633719E+02  0.00000000000E+00 0.  1.
         25    1    1    2    0    0  0.00000000000E+00  0.00000000000E+00  0.32925711070E+03  0.35218637814E+03  0.12500000000E+03 0.  0.
<mgrwt>
<rscale>  0 0.12500000E+03</rscale>
<asrwt>0</asrwt>
<pdfrwt beam="1">  1       21 0.52418722E-01 0.12500000E+03</pdfrwt>
<pdfrwt beam="2">  1       21 0.17637901E-02 0.12500000E+03</pdfrwt>
<totfact> 0.51377370E+06</totfact>
</mgrwt>
</event>
<event>
 3    1  0.1595726E-001  0.1250000E+03  0.7546771E-02  0.1235069E+00
         21   -1    0    0  502  501  0.00000000000E+00  0.00000000000E+00  0.11619364734E+03  0.11619364734E+03  0.00000000000E+00 0. -1.
         21   -1    0    0  501  502 -0.00000000000E+00 -0.00000000000E+00 -0.33618447216E+02  0.33618447216E+02  0.00000000000E+00 0. -1.
         25    1    1    2    0    0  0.00000000000E+00  0.00000000000E+00  0.82575200124E+02  0.14981209456E+03  0.12500000000E+03 0.  0.
<mgrwt>
<rscale>  0 0.12500000E+03</rscale>
<asrwt>0</asrwt>
<pdfrwt beam="1">  1       21 0.17875946E-01 0.12500000E+03</pdfrwt>
<pdfrwt beam="2">  1       21 0.51720689E-02 0.12500000E+03</pdfrwt>
<totfact> 0.70782813E+06</totfact>
</mgrwt>
</event>
<event>
 3    1  0.1595726E-001  0.1250000E+03  0.7546771E-02  0.1235069E+00
         21   -1    0    0  502  501  0.00000000000E+00  0.00000000000E+00  0.42161621772E+02  0.42161621772E+02  0.00000000000E+00 0.  1.
         21   -1    0    0  501  502 -0.00000000000E+00 -0.00000000000E+00 -0.92649424663E+02  0.92649424663E+02  0.00000000000E+00 0.  1.
         25    1    1    2    0    0  0.00000000000E+00  0.00000000000E+00 -0.50487802891E+02  0.13481104643E+03  0.12500000000E+03 0.  0.
<mgrwt>
<rscale>  0 0.12500000E+03</rscale>
<asrwt>0</asrwt>
<pdfrwt beam="1">  1       21 0.64864034E-02 0.12500000E+03</pdfrwt>
<pdfrwt beam="2">  1       21 0.14253758E-01 0.12500000E+03</pdfrwt>
<totfact> 0.72721500E+06</totfact>
</mgrwt>
</event>
<event>
 3    1  0.1595726E-001  0.1250000E+03  0.7546771E-02  0.1235069E+00
         21   -1    0    0  502  501  0.00000000000E+00  0.00000000000E+00  0.22827668299E+03  0.22827668299E+03  0.00000000000E+00 0. -1.
         21   -1    0    0  501  502 -0.00000000000E+00 -0.00000000000E+00 -0.17111909762E+02  0.17111909762E+02  0.00000000000E+00 0. -1.
         25    1    1    2    0    0  0.00000000000E+00  0.00000000000E+00  0.21116477323E+03  0.24538859275E+03  0.12500000000E+03 0.  0.
<mgrwt>
<rscale>  0 0.12500000E+03</rscale>
<asrwt>0</asrwt>
<pdfrwt beam="1">  1       21 0.35119487E-01 0.12500000E+03</pdfrwt>
<pdfrwt beam="2">  1       21 0.26326017E-02 0.12500000E+03</pdfrwt>
<totfact> 0.60315085E+06</totfact>
</mgrwt>
</event>
<event>
 3    1  0.1595726E-001  0.1250000E+03  0.7546771E-02  0.1235069E+00
         21   -1    0    0  502  501  0.00000000000E+00  0.00000000000E+00  0.49139750905E+03  0.49139750905E+03  0.00000000000E+00 0. -1.
         21   -1    0    0  501  502 -0.00000000000E+00 -0.00000000000E+00 -0.79492669948E+01  0.79492669948E+01  0.00000000000E+00 0. -1.
         25    1    1    2    0    0  0.00000000000E+00  0.00000000000E+00  0.48344824205E+03  0.49934677604E+03  0.12500000000E+03 0.  0.
<mgrwt>
<rscale>  0 0.12500000E+03</rscale>
<asrwt>0</asrwt>
<pdfrwt beam="1">  1       21 0.75599593E-01 0.12500000E+03</pdfrwt>
<pdfrwt beam="2">  1       21 0.12229645E-02 0.12500000E+03</pdfrwt>
<totfact> 0.42079527E+06</totfact>
</mgrwt>
</event>
<event>
 3    1  0.1595726E-001  0.1250000E+03  0.7546771E-02  0.1235069E+00
         21   -1    0    0  502  501  0.00000000000E+00  0.00000000000E+00  0.10728630493E+03  0.10728630493E+03  0.00000000000E+00 0. -1.
         21   -1    0    0  501  502 -0.00000000000E+00 -0.00000000000E+00 -0.36409586504E+02  0.36409586504E+02  0.00000000000E+00 0. -1.
         25    1    1    2    0    0  0.00000000000E+00  0.00000000000E+00  0.70876718425E+02  0.14369589143E+03  0.12500000000E+03 0.  0.
<mgrwt>
<rscale>  0 0.12500000E+03</rscale>
<asrwt>0</asrwt>
<pdfrwt beam="1">  1       21 0.16505585E-01 0.12500000E+03</pdfrwt>
<pdfrwt beam="2">  1       21 0.56014749E-02 0.12500000E+03</pdfrwt>
<totfact> 0.71560413E+06</totfact>
</mgrwt>
</event>
<event>
 3    1  0.1595726E-001  0.1250000E+03  0.7546771E-02  0.1235069E+00
         21   -1    0    0  502  501  0.00000000000E+00  0.00000000000E+00  0.83630382694E+01  0.83630382694E+01  0.00000000000E+00 0.  1.
         21   -1    0    0  501  502 -0.00000000000E+00 -0.00000000000E+00 -0.46708503228E+03  0.46708503228E+03  0.00000000000E+00 0.  1.
         25    1    1    2    0    0  0.00000000000E+00  0.00000000000E+00 -0.45872199401E+03  0.47544807055E+03  0.12500000000E+03 0.  0.
<mgrwt>
<rscale>  0 0.12500000E+03</rscale>
<asrwt>0</asrwt>
<pdfrwt beam="1">  1       21 0.12866209E-02 0.12500000E+03</pdfrwt>
<pdfrwt beam="2">  1       21 0.71859255E-01 0.12500000E+03</pdfrwt>
<totfact> 0.43407652E+06</totfact>
</mgrwt>
</event>
<event>
 3    1  0.1595726E-001  0.1250000E+03  0.7546771E-02  0.1235069E+00
         21   -1    0    0  502  501  0.00000000000E+00  0.00000000000E+00  0.28740445690E+02  0.28740445690E+02  0.00000000000E+00 0.  1.
         21   -1    0    0  501  502 -0.00000000000E+00 -0.00000000000E+00 -0.13591473292E+03  0.13591473292E+03  0.00000000000E+00 0.  1.
         25    1    1    2    0    0  0.00000000000E+00  0.00000000000E+00 -0.10717428723E+03  0.16465517861E+03  0.12500000000E+03 0.  0.
<mgrwt>
<rscale>  0 0.12500000E+03</rscale>
<asrwt>0</asrwt>
<pdfrwt beam="1">  1       21 0.44216071E-02 0.12500000E+03</pdfrwt>
<pdfrwt beam="2">  1       21 0.20909959E-01 0.12500000E+03</pdfrwt>
<totfact> 0.68955110E+06</totfact>
</mgrwt>
</event>
<event>
 3    1  0.1595726E-001  0.1250000E+03  0.7546771E-02  0.1235069E+00
         21   -1    0    0  502  501  0.00000000000E+00  0.00000000000E+00  0.13288063025E+03  0.13288063025E+03  0.00000000000E+00 0. -1.
         21   -1    0    0  501  502 -0.00000000000E+00 -0.00000000000E+00 -0.29396684773E+02  0.29396684773E+02  0.00000000000E+00 0. -1.
         25    1    1    2    0    0  0.00000000000E+00  0.00000000000E+00  0.10348394548E+03  0.16227731503E+03  0.12500000000E+03 0.  0.
<mgrwt>
<rscale>  0 0.12500000E+03</rscale>
<asrwt>0</asrwt>
<pdfrwt beam="1">  1       21 0.20443174E-01 0.12500000E+03</pdfrwt>
<pdfrwt beam="2">  1       21 0.45225670E-02 0.12500000E+03</pdfrwt>
<totfact> 0.69242298E+06</totfact>
</mgrwt>
</event>
<event>
 3    1  0.1595726E-001  0.1250000E+03  0.7546771E-02  0.1235069E+00
         21   -1    0    0  502  501  0.00000000000E+00  0.00000000000E+00  0.35706498835E+01  0.35706498835E+01  0.00000000000E+00 0.  1.
         21   -1    0    0  501  502 -0.00000000000E+00 -0.00000000000E+00 -0.10939885252E+04  0.10939885252E+04  0.00000000000E+00 0.  1.
         25    1    1    2    0    0  0.00000000000E+00  0.00000000000E+00 -0.10904178753E+04  0.10975591751E+04  0.12500000000E+03 0.  0.
<mgrwt>
<rscale>  0 0.12500000E+03</rscale>
<asrwt>0</asrwt>
<pdfrwt beam="1">  1       21 0.54933129E-03 0.12500000E+03</pdfrwt>
<pdfrwt beam="2">  1       21 0.16830576E+00 0.12500000E+03</pdfrwt>
<totfact> 0.21305792E+06</totfact>
</mgrwt>
</event>
<event>
 3    1  0.1595726E-001  0.1250000E+03  0.7546771E-02  0.1235069E+00
         21   -1    0    0  502  501  0.00000000000E+00  0.00000000000E+00  0.12051917181E+01  0.12051917181E+01  0.00000000000E+00 0.  1.
         21   -1    0    0  501  502 -0.00000000000E+00 -0.00000000000E+00 -0.32411855651E+04  0.32411855651E+04  0.00000000000E+00 0.  1.
         25    1    1    2    0    0  0.00000000000E+00  0.00000000000E+00 -0.32399803734E+04  0.32423907568E+04  0.12500000000E+03 0.  0.
<mgrwt>
<rscale>  0 0.12500000E+03</rscale>
<asrwt>0</asrwt>
<pdfrwt beam="1">  1       21 0.18541657E-03 0.12500000E+03</pdfrwt>
<pdfrwt beam="2">  1       21 0.49863731E+00 0.12500000E+03</pdfrwt>
<totfact> 0.10879432E+05</totfact>
</mgrwt>
</event>
<event>
 3    1  0.1595726E-001  0.1250000E+03  0.7546771E-02  0.1235069E+00
         21   -1    0    0  502  501  0.00000000000E+00  0.00000000000E+00  0.33062249303E+03  0.33062249303E+03  0.00000000000E+00 0. -1.
         21   -1    0    0  501  502 -0.00000000000E+00 -0.00000000000E+00 -0.11814834388E+02  0.11814834388E+02  0.00000000000E+00 0. -1.
         25    1    1    2    0    0  0.00000000000E+00  0.00000000000E+00  0.31880765864E+03  0.34243732742E+03  0.12500000000E+03 0.  0.
<mgrwt>
<rscale>  0 0.12500000E+03</rscale>
<asrwt>0</asrwt>
<pdfrwt beam="1">  1       21 0.50864992E-01 0.12500000E+03</pdfrwt>
<pdfrwt beam="2">  1       21 0.18176671E-02 0.12500000E+03</pdfrwt>
<totfact> 0.52101855E+06</totfact>
</mgrwt>
</event>
<event>
 3    1  0.1595726E-001  0.1250000E+03  0.7546771E-02  0.1235069E+00
         21   -1    0    0  502  501  0.00000000000E+00  0.00000000000E+00  0.31286430206E+02  0.31286430206E+02  0.00000000000E+00 0. -1.
         21   -1    0    0  501  502 -0.00000000000E+00 -0.00000000000E+00 -0.12485444885E+03  0.12485444885E+03  0.00000000000E+00 0. -1.
         25    1    1    2    0    0  0.00000000000E+00  0.00000000000E+00 -0.93568018647E+02  0.15614087906E+03  0.12500000000E+03 0.  0.
<mgrwt>
<rscale>  0 0.12500000E+03</rscale>
<asrwt>0</asrwt>
<pdfrwt beam="1">  1       21 0.48132970E-02 0.12500000E+03</pdfrwt>
<pdfrwt beam="2">  1       21 0.19208377E-01 0.12500000E+03</pdfrwt>
<totfact> 0.69994139E+06</totfact>
</mgrwt>
</event>
<event>
 3    1  0.1595726E-001  0.1250000E+03  0.7546771E-02  0.1235069E+00
         21   -1    0    0  502  501  0.00000000000E+00  0.00000000000E+00  0.50560974401E+02  0.50560974401E+02  0.00000000000E+00 0.  1.
         21   -1    0    0  501  502 -0.00000000000E+00 -0.00000000000E+00 -0.77258202523E+02  0.77258202523E+02  0.00000000000E+00 0.  1.
         25    1    1    2    0    0  0.00000000000E+00  0.00000000000E+00 -0.26697228122E+02  0.12781917692E+03  0.12500000000E+03 0.  0.
<mgrwt>
<rscale>  0 0.12500000E+03</rscale>
<asrwt>0</asrwt>
<pdfrwt beam="1">  1       21 0.77786115E-02 0.12500000E+03</pdfrwt>
<pdfrwt beam="2">  1       21 0.11885877E-01 0.12500000E+03</pdfrwt>
<totfact> 0.73658000E+06</totfact>
</mgrwt>
</event>
<event>
 3    1  0.1595726E-001  0.1250000E+03  0.7546771E-02  0.1235069E+00
         21   -1    0    0  502  501  0.00000000000E+00  0.00000000000E+00  0.80557761734E+02  0.80557761734E+02  0.00000000000E+00 0. -1.
         21   -1    0    0  501  502 -0.00000000000E+00 -0.00000000000E+00 -0.48490051311E+02  0.48490051311E+02  0.00000000000E+00 0. -1.
         25    1    1    2    0    0  0.00000000000E+00  0.00000000000E+00  0.32067710423E+02  0.12904781305E+03  0.12500000000E+03 0.  0.
<mgrwt>
<rscale>  0 0.12500000E+03</rscale>
<asrwt>0</asrwt>
<pdfrwt beam="1">  1       21 0.12393502E-01 0.12500000E+03</pdfrwt>
<pdfrwt beam="2">  1       21 0.74600079E-02 0.12500000E+03</pdfrwt>
<totfact> 0.73492460E+06</totfact>
</mgrwt>
</event>
<event>
 3    1  0.1595726E-001  0.1250000E+03  0.7546771E-02  0.1235069E+00
         21   -1    0    0  502  501  0.00000000000E+00  0.00000000000E+00  0.55035595727E+02  0.55035595727E+02  0.00000000000E+00 0.  1.
         21   -1    0    0  501  502 -0.00000000000E+00 -0.00000000000E+00 -0.70976791446E+02  0.70976791446E+02  0.00000000000E+00 0.  1.
         25    1    1    2    0    0  0.00000000000E+00  0.00000000000E+00 -0.15941195719E+02  0.12601238717E+03  0.12500000000E+03 0.  0.
<mgrwt>
<rscale>  0 0.12500000E+03</rscale>
<asrwt>0</asrwt>
<pdfrwt beam="1">  1       21 0.84670147E-02 0.12500000E+03</pdfrwt>
<pdfrwt beam="2">  1       21 0.10919506E-01 0.12500000E+03</pdfrwt>
<totfact> 0.73904331E+06</totfact>
</mgrwt>
</event>
<event>
 3    1  0.1595726E-001  0.1250000E+03  0.7546771E-02  0.1235069E+00
         21   -1    0    0  502  501  0.00000000000E+00  0.00000000000E+00  0.18169679586E+03  0.18169679586E+03  0.00000000000E+00 0. -1.
         21   -1    0    0  501  502 -0.00000000000E+00 -0.00000000000E+00 -0.21498728041E+02  0.21498728041E+02  0.00000000000E+00 0. -1.
         25    1    1    2    0    0  0.00000000000E+00  0.00000000000E+00  0.16019806782E+03  0.20319552390E+03  0.12500000000E+03 0.  0.
<mgrwt>
<rscale>  0 0.12500000E+03</rscale>
<asrwt>0</asrwt>
<pdfrwt beam="1">  1       21 0.27953352E-01 0.12500000E+03</pdfrwt>
<pdfrwt beam="2">  1       21 0.33074967E-02 0.12500000E+03</pdfrwt>
<totfact> 0.64582633E+06</totfact>
</mgrwt>
</event>
<event>
 3    1  0.1595726E-001  0.1250000E+03  0.7546771E-02  0.1235069E+00
         21   -1    0    0  502  501  0.00000000000E+00  0.00000000000E+00  0.33189248743E+01  0.33189248743E+01  0.00000000000E+00 0. -1.
         21   -1    0    0  501  502 -0.00000000000E+00 -0.00000000000E+00 -0.11769624647E+04  0.11769624647E+04  0.00000000000E+00 0. -1.
         25    1    1    2    0    0  0.00000000000E+00  0.00000000000E+00 -0.11736435398E+04  0.11802813895E+04  0.12500000000E+03 0.  0.
<mgrwt>
<rscale>  0 0.12500000E+03</rscale>
<asrwt>0</asrwt>
<pdfrwt beam="1">  1       21 0.51060388E-03 0.12500000E+03</pdfrwt>
<pdfrwt beam="2">  1       21 0.18107113E+00 0.12500000E+03</pdfrwt>
<totfact> 0.19540822E+06</totfact>
</mgrwt>
</event>
<event>
 3    1  0.1595726E-001  0.1250000E+03  0.7546771E-02  0.1235069E+00
         21   -1    0    0  502  501  0.00000000000E+00  0.00000000000E+00  0.34783504120E+03  0.34783504120E+03  0.00000000000E+00 0.  1.
         21   -1    0    0  501  502 -0.00000000000E+00 -0.00000000000E+00 -0.11230179646E+02  0.11230179646E+02  0.00000000000E+00 0.  1.
         25    1    1    2    0    0  0.00000000000E+00  0.00000000000E+00  0.33660486156E+03  0.35906522085E+03  0.12500000000E+03 0.  0.
<mgrwt>
<rscale>  0 0.12500000E+03</rscale>
<asrwt>0</asrwt>
<pdfrwt beam="1">  1       21 0.53513075E-01 0.12500000E+03</pdfrwt>
<pdfrwt beam="2">  1       21 0.17277202E-02 0.12500000E+03</pdfrwt>
<totfact> 0.50875833E+06</totfact>
</mgrwt>
</event>
<event>
 3    1  0.1595726E-001  0.1250000E+03  0.7546771E-02  0.1235069E+00
         21   -1    0    0  502  501  0.00000000000E+00  0.00000000000E+00  0.12272459005E+02  0.12272459005E+02  0.00000000000E+00 0.  1.
         21   -1    0    0  501  502 -0.00000000000E+00 -0.00000000000E+00 -0.31829399457E+03  0.31829399457E+03  0.00000000000E+00 0.  1.
         25    1    1    2    0    0  0.00000000000E+00  0.00000000000E+00 -0.30602153556E+03  0.33056645357E+03  0.12500000000E+03 0.  0.
<mgrwt>
<rscale>  0 0.12500000E+03</rscale>
<asrwt>0</asrwt>
<pdfrwt beam="1">  1       21 0.18880704E-02 0.12500000E+03</pdfrwt>
<pdfrwt beam="2">  1       21 0.48968313E-01 0.12500000E+03</pdfrwt>
<totfact> 0.53006483E+06</totfact>
</mgrwt>
</event>
<event>
 3    1  0.1595726E-001  0.1250000E+03  0.7546771E-02  0.1235069E+00
         21   -1    0    0  502  501  0.00000000000E+00  0.00000000000E+00  0.20439266139E+03  0.20439266139E+03  0.00000000000E+00 0.  1.
         21   -1    0    0  501  502 -0.00000000000E+00 -0.00000000000E+00 -0.19111498297E+02  0.19111498297E+02  0.00000000000E+00 0.  1.
         25    1    1    2    0    0  0.00000000000E+00  0.00000000000E+00  0.18528116309E+03  0.22350415968E+03  0.12500000000E+03 0.  0.
<mgrwt>
<rscale>  0 0.12500000E+03</rscale>
<asrwt>0</asrwt>
<pdfrwt beam="1">  1       21 0.31445023E-01 0.12500000E+03</pdfrwt>
<pdfrwt beam="2">  1       21 0.29402307E-02 0.12500000E+03</pdfrwt>
<totfact> 0.62466150E+06</totfact>
</mgrwt>
</event>
<event>
 3    1  0.1595726E-001  0.1250000E+03  0.7546771E-02  0.1235069E+00
         21   -1    0    0  502  501  0.00000000000E+00  0.00000000000E+00  0.38119283902E+02  0.38119283902E+02  0.00000000000E+00 0.  1.
         21   -1    0    0  501  502 -0.00000000000E+00 -0.00000000000E+00 -0.10247438042E+03  0.10247438042E+03  0.00000000000E+00 0.  1.
         25    1    1    2    0    0  0.00000000000E+00  0.00000000000E+00 -0.64355096519E+02  0.14059366432E+03  0.12500000000E+03 0.  0.
<mgrwt>
<rscale>  0 0.12500000E+03</rscale>
<asrwt>0</asrwt>
<pdfrwt beam="1">  1       21 0.58645053E-02 0.12500000E+03</pdfrwt>
<pdfrwt beam="2">  1       21 0.15765289E-01 0.12500000E+03</pdfrwt>
<totfact> 0.71961901E+06</totfact>
</mgrwt>
</event>
<event>
 3    1  0.1595726E-001  0.1250000E+03  0.7546771E-02  0.1235069E+00
         21   -1    0    0  502  501  0.00000000000E+00  0.00000000000E+00  0.26581816804E+02  0.26581816804E+02  0.00000000000E+00 0.  1.
         21   -1    0    0  501  502 -0.00000000000E+00 -0.00000000000E+00 -0.14695195700E+03  0.14695195700E+03  0.00000000000E+00 0.  1.
         25    1    1    2    0    0  0.00000000000E+00  0.00000000000E+00 -0.12037014020E+03  0.17353377381E+03  0.12500000000E+03 0.  0.
<mgrwt>
<rscale>  0 0.12500000E+03</rscale>
<asrwt>0</asrwt>
<pdfrwt beam="1">  1       21 0.40895101E-02 0.12500000E+03</pdfrwt>
<pdfrwt beam="2">  1       21 0.22607994E-01 0.12500000E+03</pdfrwt>
<totfact> 0.67901175E+06</totfact>
</mgrwt>
</event>
<event>
 3    1  0.1595726E-001  0.1250000E+03  0.7546771E-02  0.1235069E+00
         21   -1    0    0  502  501  0.00000000000E+00  0.00000000000E+00  0.66732713402E+03  0.66732713402E+03  0.00000000000E+00 0.  1.
         21   -1    0    0  501  502 -0.00000000000E+00 -0.00000000000E+00 -0.58535758564E+01  0.58535758564E+01  0.00000000000E+00 0.  1.
         25    1    1    2    0    0  0.00000000000E+00  0.00000000000E+00  0.66147355816E+03  0.67318070987E+03  0.12500000000E+03 0.  0.
<mgrwt>
<rscale>  0 0.12500000E+03</rscale>
<asrwt>0</asrwt>
<pdfrwt beam="1">  1       21 0.10266565E+00 0.12500000E+03</pdfrwt>
<pdfrwt beam="2">  1       21 0.90055066E-03 0.12500000E+03</pdfrwt>
<totfact> 0.33969990E+06</totfact>
</mgrwt>
</event>
<event>
 3    1  0.1595726E-001  0.1250000E+03  0.7546771E-02  0.1235069E+00
         21   -1    0    0  502  501  0.00000000000E+00  0.00000000000E+00  0.86899395700E+02  0.86899395700E+02  0.00000000000E+00 0. -1.
         21   -1    0    0  501  502 -0.00000000000E+00 -0.00000000000E+00 -0.44951405801E+02  0.44951405801E+02  0.00000000000E+00 0. -1.
         25    1    1    2    0    0  0.00000000000E+00  0.00000000000E+00  0.41947989899E+02  0.13185080150E+03  0.12500000000E+03 0.  0.
<mgrwt>
<rscale>  0 0.12500000E+03</rscale>
<asrwt>0</asrwt>
<pdfrwt beam="1">  1       21 0.13369138E-01 0.12500000E+03</pdfrwt>
<pdfrwt beam="2">  1       21 0.69156009E-02 0.12500000E+03</pdfrwt>
<totfact> 0.73116248E+06</totfact>
</mgrwt>
</event>
<event>
 3    1  0.1595726E-001  0.1250000E+03  0.7546771E-02  0.1235069E+00
         21   -1    0    0  502  501  0.00000000000E+00  0.00000000000E+00  0.46616816679E+01  0.46616816679E+01  0.00000000000E+00 0. -1.
         21   -1    0    0  501  502 -0.00000000000E+00 -0.00000000000E+00 -0.83794867995E+03  0.83794867995E+03  0.00000000000E+00 0. -1.
         25    1    1    2    0    0  0.00000000000E+00  0.00000000000E+00 -0.83328699828E+03  0.84261036162E+03  0.12500000000E+03 0.  0.
<mgrwt>
<rscale>  0 0.12500000E+03</rscale>
<asrwt>0</asrwt>
<pdfrwt beam="1">  1       21 0.71718191E-03 0.12500000E+03</pdfrwt>
<pdfrwt beam="2">  1       21 0.12891516E+00 0.12500000E+03</pdfrwt>
<totfact> 0.27998820E+06</totfact>
</mgrwt>
</event>
<event>
 3    1  0.1595726E-001  0.1250000E+03  0.7546771E-02  0.1235069E+00
         21   -1    0    0  502  501  0.00000000000E+00  0.00000000000E+00  0.34359036649E+02  0.34359036649E+02  0.00000000000E+00 0. -1.
         21   -1    0    0  501  502 -0.00000000000E+00 -0.00000000000E+00 -0.11368915956E+03  0.11368915956E+03  0.00000000000E+00 0. -1.
         25    1    1    2    0    0  0.00000000000E+00  0.00000000000E+00 -0.79330122912E+02  0.14804819621E+03  0.12500000000E+03 0.  0.
<mgrwt>
<rscale>  0 0.12500000E+03</rscale>
<asrwt>0</asrwt>
<pdfrwt beam="1">  1       21 0.52860056E-02 0.12500000E+03</pdfrwt>
<pdfrwt beam="2">  1       21 0.17490640E-01 0.12500000E+03</pdfrwt>
<totfact> 0.71005252E+06</totfact>
</mgrwt>
</event>
<event>
 3    1  0.1595726E-001  0.1250000E+03  0.7546771E-02  0.1235069E+00
         21   -1    0    0  502  501  0.00000000000E+00  0.00000000000E+00  0.16227807095E+02  0.16227807095E+02  0.00000000000E+00 0.  1.
         21   -1    0    0  501  502 -0.00000000000E+00 -0.00000000000E+00 -0.24071336177E+03  0.24071336177E+03  0.00000000000E+00 0.  1.
         25    1    1    2    0    0  0.00000000000E+00  0.00000000000E+00 -0.22448555467E+03  0.25694116886E+03  0.12500000000E+03 0.  0.
<mgrwt>
<rscale>  0 0.12500000E+03</rscale>
<asrwt>0</asrwt>
<pdfrwt beam="1">  1       21 0.24965857E-02 0.12500000E+03</pdfrwt>
<pdfrwt beam="2">  1       21 0.37032825E-01 0.12500000E+03</pdfrwt>
<totfact> 0.59230774E+06</totfact>
</mgrwt>
</event>
<event>
 3    1  0.1595726E-001  0.1250000E+03  0.7546771E-02  0.1235069E+00
         21   -1    0    0  502  501  0.00000000000E+00  0.00000000000E+00  0.66899800670E+01  0.66899800670E+01  0.00000000000E+00 0. -1.
         21   -1    0    0  501  502 -0.00000000000E+00 -0.00000000000E+00 -0.58389561118E+03  0.58389561118E+03  0.00000000000E+00 0. -1.
         25    1    1    2    0    0  0.00000000000E+00  0.00000000000E+00 -0.57720563111E+03  0.59058559125E+03  0.12500000000E+03 0.  0.
<mgrwt>
<rscale>  0 0.12500000E+03</rscale>
<asrwt>0</asrwt>
<pdfrwt beam="1">  1       21 0.10292279E-02 0.12500000E+03</pdfrwt>
<pdfrwt beam="2">  1       21 0.89830073E-01 0.12500000E+03</pdfrwt>
<totfact> 0.37521881E+06</totfact>
</mgrwt>
</event>
<event>
 3    1  0.1595726E-001  0.1250000E+03  0.7546771E-02  0.1235069E+00
         21   -1    0    0  502  501  0.00000000000E+00  0.00000000000E+00  0.54914710605E+02  0.54914710605E+02  0.00000000000E+00 0.  1.
         21   -1    0    0  501  502 -0.00000000000E+00 -0.00000000000E+00 -0.71133034427E+02  0.71133034427E+02  0.00000000000E+00 0.  1.
         25    1    1    2    0    0  0.00000000000E+00  0.00000000000E+00 -0.16218323822E+02  0.12604774503E+03  0.12500000000E+03 0.  0.
<mgrwt>
<rscale>  0 0.12500000E+03</rscale>
<asrwt>0</asrwt>
<pdfrwt beam="1">  1       21 0.84484169E-02 0.12500000E+03</pdfrwt>
<pdfrwt beam="2">  1       21 0.10943544E-01 0.12500000E+03</pdfrwt>
<totfact> 0.73899458E+06</totfact>
</mgrwt>
</event>
<event>
 3    1  0.1595726E-001  0.1250000E+03  0.7546771E-02  0.1235069E+00
         21   -1    0    0  502  501  0.00000000000E+00  0.00000000000E+00  0.28848953581E+02  0.28848953581E+02  0.00000000000E+00 0.  1.
         21   -1    0    0  501  502 -0.00000000000E+00 -0.00000000000E+00 -0.13540352474E+03  0.13540352474E+03  0.00000000000E+00 0.  1.
         25    1    1    2    0    0  0.00000000000E+00  0.00000000000E+00 -0.10655457116E+03  0.16425247832E+03  0.12500000000E+03 0.  0.
<mgrwt>
<rscale>  0 0.12500000E+03</rscale>
<asrwt>0</asrwt>
<pdfrwt beam="1">  1       21 0.44383006E-02 0.12500000E+03</pdfrwt>
<pdfrwt beam="2">  1       21 0.20831311E-01 0.12500000E+03</pdfrwt>
<totfact> 0.69003586E+06</totfact>
</mgrwt>
</event>
<event>
 3    1  0.1595726E-001  0.1250000E+03  0.7546771E-02  0.1235069E+00
         21   -1    0    0  502  501  0.00000000000E+00  0.00000000000E+00  0.33058856584E+03  0.33058856584E+03  0.00000000000E+00 0. -1.
         21   -1    0    0  501  502 -0.00000000000E+00 -0.00000000000E+00 -0.11816046904E+02  0.11816046904E+02  0.00000000000E+00 0. -1.
         25    1    1    2    0    0  0.00000000000E+00  0.00000000000E+00  0.31877251893E+03  0.34240461274E+03  0.12500000000E+03 0.  0.
<mgrwt>
<rscale>  0 0.12500000E+03</rscale>
<asrwt>0</asrwt>
<pdfrwt beam="1">  1       21 0.50859772E-01 0.12500000E+03</pdfrwt>
<pdfrwt beam="2">  1       21 0.18178536E-02 0.12500000E+03</pdfrwt>
<totfact> 0.52104314E+06</totfact>
</mgrwt>
</event>
<event>
 3    1  0.1595726E-001  0.1250000E+03  0.7546771E-02  0.1235069E+00
         21   -1    0    0  502  501  0.00000000000E+00  0.00000000000E+00  0.41759217942E+02  0.41759217942E+02  0.00000000000E+00 0.  1.
         21   -1    0    0  501  502 -0.00000000000E+00 -0.00000000000E+00 -0.93542221155E+02  0.93542221155E+02  0.00000000000E+00 0.  1.
         25    1    1    2    0    0  0.00000000000E+00  0.00000000000E+00 -0.51783003213E+02  0.13530143910E+03  0.12500000000E+03 0.  0.
<mgrwt>
<rscale>  0 0.12500000E+03</rscale>
<asrwt>0</asrwt>
<pdfrwt beam="1">  1       21 0.64244951E-02 0.12500000E+03</pdfrwt>
<pdfrwt beam="2">  1       21 0.14391111E-01 0.12500000E+03</pdfrwt>
<totfact> 0.72656584E+06</totfact>
</mgrwt>
</event>
<event>
 3    1  0.1595726E-001  0.1250000E+03  0.7546771E-02  0.1235069E+00
         21   -1    0    0  502  501  0.00000000000E+00  0.00000000000E+00  0.12458002925E+03  0.12458002925E+03  0.00000000000E+00 0.  1.
         21   -1    0    0  501  502 -0.00000000000E+00 -0.00000000000E+00 -0.31355346628E+02  0.31355346628E+02  0.00000000000E+00 0.  1.
         25    1    1    2    0    0  0.00000000000E+00  0.00000000000E+00  0.93224682620E+02  0.15593537588E+03  0.12500000000E+03 0.  0.
<mgrwt>
<rscale>  0 0.12500000E+03</rscale>
<asrwt>0</asrwt>
<pdfrwt beam="1">  1       21 0.19166158E-01 0.12500000E+03</pdfrwt>
<pdfrwt beam="2">  1       21 0.48238995E-02 0.12500000E+03</pdfrwt>
<totfact> 0.70019590E+06</totfact>
</mgrwt>
</event>
<event>
 3    1  0.1595726E-001  0.1250000E+03  0.7546771E-02  0.1235069E+00
         21   -1    0    0  502  501  0.00000000000E+00  0.00000000000E+00  0.51860791429E+02  0.51860791429E+02  0.00000000000E+00 0. -1.
         21   -1    0    0  501  502 -0.00000000000E+00 -0.00000000000E+00 -0.75321835483E+02  0.75321835483E+02  0.00000000000E+00 0. -1.
         25    1    1    2    0    0  0.00000000000E+00  0.00000000000E+00 -0.23461044054E+02  0.12718262691E+03  0.12500000000E+03 0.  0.
<mgrwt>
<rscale>  0 0.12500000E+03</rscale>
<asrwt>0</asrwt>
<pdfrwt beam="1">  1       21 0.79785833E-02 0.12500000E+03</pdfrwt>
<pdfrwt beam="2">  1       21 0.11587975E-01 0.12500000E+03</pdfrwt>
<totfact> 0.73744296E+06</totfact>
</mgrwt>
</event>
<event>
 3    1  0.1595726E-001  0.1250000E+03  0.7546771E-02  0.1235069E+00
         21   -1    0    0  502  501  0.00000000000E+00  0.00000000000E+00  0.14643179978E+03  0.14643179978E+03  0.00000000000E+00 0.  1.
         21   -1    0    0  501  502 -0.00000000000E+00 -0.00000000000E+00 -0.26676241130E+02  0.26676241130E+02  0.00000000000E+00 0.  1.
         25    1    1    2    0    0  0.00000000000E+00  0.00000000000E+00  0.11975555865E+03  0.17310804091E+03  0.12500000000E+03 0.  0.
<mgrwt>
<rscale>  0 0.12500000E+03</rscale>
<asrwt>0</asrwt>
<pdfrwt beam="1">  1       21 0.22527969E-01 0.12500000E+03</pdfrwt>
<pdfrwt beam="2">  1       21 0.41040372E-02 0.12500000E+03</pdfrwt>
<totfact> 0.67951092E+06</totfact>
</mgrwt>
</event>
<event>
 3    1  0.1595726E-001  0.1250000E+03  0.7546771E-02  0.1235069E+00
         21   -1    0    0  502  501  0.00000000000E+00  0.00000000000E+00  0.21708523242E+03  0.21708523242E+03  0.00000000000E+00 0.  1.
         21   -1    0    0  501  502 -0.00000000000E+00 -0.00000000000E+00 -0.17994084427E+02  0.17994084427E+02  0.00000000000E+00 0.  1.
         25    1    1    2    0    0  0.00000000000E+00  0.00000000000E+00  0.19909114799E+03  0.23507931685E+03  0.12500000000E+03 0.  0.
<mgrwt>
<rscale>  0 0.12500000E+03</rscale>
<asrwt>0</asrwt>
<pdfrwt beam="1">  1       21 0.33397726E-01 0.12500000E+03</pdfrwt>
<pdfrwt beam="2">  1       21 0.27683208E-02 0.12500000E+03</pdfrwt>
<totfact> 0.61312103E+06</totfact>
</mgrwt>
</event>
<event>
 3    1  0.1595726E-001  0.1250000E+03  0.7546771E-02  0.1235069E+00
         21   -1    0    0  502  501  0.00000000000E+00  0.00000000000E+00  0.11405344535E+04  0.11405344535E+04  0.00000000000E+00 0.  1.
         21   -1    0    0  501  502 -0.00000000000E+00 -0.00000000000E+00 -0.34249294161E+01  0.34249294161E+01  0.00000000000E+00 0.  1.
         25    1    1    2    0    0  0.00000000000E+00  0.00000000000E+00  0.11371095241E+04  0.11439593830E+04  0.12500000000E+03 0.  0.
<mgrwt>
<rscale>  0 0.12500000E+03</rscale>
<asrwt>0</asrwt>
<pdfrwt beam="1">  1       21 0.17546654E+00 0.12500000E+03</pdfrwt>
<pdfrwt beam="2">  1       21 0.52691313E-03 0.12500000E+03</pdfrwt>
<totfact> 0.20297201E+06</totfact>
</mgrwt>
</event>
<event>
 3    1  0.1595726E-001  0.1250000E+03  0.7546771E-02  0.1235069E+00
         21   -1    0    0  502  501  0.00000000000E+00  0.00000000000E+00  0.89240260807E+02  0.89240260807E+02  0.00000000000E+00 0. -1.
         21   -1    0    0  501  502 -0.00000000000E+00 -0.00000000000E+00 -0.43772283549E+02  0.43772283549E+02  0.00000000000E+00 0. -1.
         25    1    1    2    0    0  0.00000000000E+00  0.00000000000E+00  0.45467977258E+02  0.13301254436E+03  0.12500000000E+03 0.  0.
<mgrwt>
<rscale>  0 0.12500000E+03</rscale>
<asrwt>0</asrwt>
<pdfrwt beam="1">  1       21 0.13729271E-01 0.12500000E+03</pdfrwt>
<pdfrwt beam="2">  1       21 0.67341975E-02 0.12500000E+03</pdfrwt>
<totfact> 0.72960723E+06</totfact>
</mgrwt>
</event>
<event>
 3    1  0.1595726E-001  0.1250000E+03  0.7546771E-02  0.1235069E+00
         21   -1    0    0  502  501  0.00000000000E+00  0.00000000000E+00  0.10250361901E+02  0.10250361901E+02  0.00000000000E+00 0.  1.
         21   -1    0    0  501  502 -0.00000000000E+00 -0.00000000000E+00 -0.38108410588E+03  0.38108410588E+03  0.00000000000E+00 0.  1.
         25    1    1    2    0    0  0.00000000000E+00  0.00000000000E+00 -0.37083374398E+03  0.39133446778E+03  0.12500000000E+03 0.  0.
<mgrwt>
<rscale>  0 0.12500000E+03</rscale>
<asrwt>0</asrwt>
<pdfrwt beam="1">  1       21 0.15769788E-02 0.12500000E+03</pdfrwt>
<pdfrwt beam="2">  1       21 0.58628322E-01 0.12500000E+03</pdfrwt>
<totfact> 0.48621488E+06</totfact>
</mgrwt>
</event>
<event>
 3    1  0.1595726E-001  0.1250000E+03  0.7546771E-02  0.1235069E+00
         21   -1    0    0  502  501  0.00000000000E+00  0.00000000000E+00  0.13703900726E+03  0.13703900726E+03  0.00000000000E+00 0. -1.
         21   -1    0    0  501  502 -0.00000000000E+00 -0.00000000000E+00 -0.28504657748E+02  0.28504657748E+02  0.00000000000E+00 0. -1.
         25    1    1    2    0    0  0.00000000000E+00  0.00000000000E+00  0.10853434951E+03  0.16554366501E+03  0.12500000000E+03 0.  0.
<mgrwt>
<rscale>  0 0.12500000E+03</rscale>
<asrwt>0</asrwt>
<pdfrwt beam="1">  1       21 0.21082924E-01 0.12500000E+03</pdfrwt>
<pdfrwt beam="2">  1       21 0.43853320E-02 0.12500000E+03</pdfrwt>
<totfact> 0.68848385E+06</totfact>
</mgrwt>
</event>
<event>
 3    1  0.1595726E-001  0.1250000E+03  0.7546771E-02  0.1235069E+00
         21   -1    0    0  502  501  0.00000000000E+00  0.00000000000E+00  0.46088066338E+01  0.46088066338E+01  0.00000000000E+00 0. -1.
         21   -1    0    0  501  502 -0.00000000000E+00 -0.00000000000E+00 -0.84756213710E+03  0.84756213710E+03  0.00000000000E+00 0. -1.
         25    1    1    2    0    0  0.00000000000E+00  0.00000000000E+00 -0.84295333047E+03  0.85217094374E+03  0.12500000000E+03 0.  0.
<mgrwt>
<rscale>  0 0.12500000E+03</rscale>
<asrwt>0</asrwt>
<pdfrwt beam="1">  1       21 0.70904723E-03 0.12500000E+03</pdfrwt>
<pdfrwt beam="2">  1       21 0.13039417E+00 0.12500000E+03</pdfrwt>
<totfact> 0.27705515E+06</totfact>
</mgrwt>
</event>
<event>
 3    1  0.1595726E-001  0.1250000E+03  0.7546771E-02  0.1235069E+00
         21   -1    0    0  502  501  0.00000000000E+00  0.00000000000E+00  0.17332695905E+02  0.17332695905E+02  0.00000000000E+00 0. -1.
         21   -1    0    0  501  502 -0.00000000000E+00 -0.00000000000E+00 -0.22536886480E+03  0.22536886480E+03  0.00000000000E+00 0. -1.
         25    1    1    2    0    0  0.00000000000E+00  0.00000000000E+00 -0.20803616889E+03  0.24270156070E+03  0.12500000000E+03 0.  0.
<mgrwt>
<rscale>  0 0.12500000E+03</rscale>
<asrwt>0</asrwt>
<pdfrwt beam="1">  1       21 0.26665687E-02 0.12500000E+03</pdfrwt>
<pdfrwt beam="2">  1       21 0.34672132E-01 0.12500000E+03</pdfrwt>
<totfact> 0.60572214E+06</totfact>
</mgrwt>
</event>
<event>
 3    1  0.1595726E-001  0.1250000E+03  0.7546771E-02  0.1235069E+00
         21   -1    0    0  502  501  0.00000000000E+00  0.00000000000E+00  0.48527476576E+02  0.48527476576E+02  0.00000000000E+00 0. -1.
         21   -1    0    0  501  502 -0.00000000000E+00 -0.00000000000E+00 -0.80495634136E+02  0.80495634136E+02  0.00000000000E+00 0. -1.
         25    1    1    2    0    0  0.00000000000E+00  0.00000000000E+00 -0.31968157560E+02  0.12902311071E+03  0.12500000000E+03 0.  0.
<mgrwt>
<rscale>  0 0.12500000E+03</rscale>
<asrwt>0</asrwt>
<pdfrwt beam="1">  1       21 0.74657657E-02 0.12500000E+03</pdfrwt>
<pdfrwt beam="2">  1       21 0.12383944E-01 0.12500000E+03</pdfrwt>
<totfact> 0.73495777E+06</totfact>
</mgrwt>
</event>
<event>
 3    1  0.1595726E-001  0.1250000E+03  0.7546771E-02  0.1235069E+00
         21   -1    0    0  502  501  0.00000000000E+00  0.00000000000E+00  0.90948729000E+03  0.90948729000E+03  0.00000000000E+00 0. -1.
         21   -1    0    0  501  502 -0.00000000000E+00 -0.00000000000E+00 -0.42950022974E+01  0.42950022974E+01  0.00000000000E+00 0. -1.
         25    1    1    2    0    0  0.00000000000E+00  0.00000000000E+00  0.90519228770E+03  0.91378229229E+03  0.12500000000E+03 0.  0.
<mgrwt>
<rscale>  0 0.12500000E+03</rscale>
<asrwt>0</asrwt>
<pdfrwt beam="1">  1       21 0.13992097E+00 0.12500000E+03</pdfrwt>
<pdfrwt beam="2">  1       21 0.66077031E-03 0.12500000E+03</pdfrwt>
<totfact> 0.25906724E+06</totfact>
</mgrwt>
</event>
<event>
 3    1  0.1595726E-001  0.1250000E+03  0.7546771E-02  0.1235069E+00
         21   -1    0    0  502  501  0.00000000000E+00  0.00000000000E+00  0.26106721119E+02  0.26106721119E+02  0.00000000000E+00 0. -1.
         21   -1    0    0  501  502 -0.00000000000E+00 -0.00000000000E+00 -0.14962622009E+03  0.14962622009E+03  0.00000000000E+00 0. -1.
         25    1    1    2    0    0  0.00000000000E+00  0.00000000000E+00 -0.12351949897E+03  0.17573294121E+03  0.12500000000E+03 0.  0.
<mgrwt>
<rscale>  0 0.12500000E+03</rscale>
<asrwt>0</asrwt>
<pdfrwt beam="1">  1       21 0.40164187E-02 0.12500000E+03</pdfrwt>
<pdfrwt beam="2">  1       21 0.23019418E-01 0.12500000E+03</pdfrwt>
<totfact> 0.67644444E+06</totfact>
</mgrwt>
</event>
<event>
 3    1  0.1595726E-001  0.1250000E+03  0.7546771E-02  0.1235069E+00
         21   -1    0    0  502  501  0.00000000000E+00  0.00000000000E+00  0.19089628607E+03  0.19089628607E+03  0.00000000000E+00 0. -1.
         21   -1    0    0  501  502 -0.00000000000E+00 -0.00000000000E+00 -0.20462682016E+02  0.20462682016E+02  0.00000000000E+00 0. -1.
         25    1    1    2    0    0  0.00000000000E+00  0.00000000000E+00  0.17043360406E+03  0.21135896809E+03  0.12500000000E+03 0.  0.
<mgrwt>
<rscale>  0 0.12500000E+03</rscale>
<asrwt>0</asrwt>
<pdfrwt beam="1">  1       21 0.29368658E-01 0.12500000E+03</pdfrwt>
<pdfrwt beam="2">  1       21 0.31481050E-02 0.12500000E+03</pdfrwt>
<totfact> 0.63716840E+06</totfact>
</mgrwt>
</event>
<event>
 3    1  0.1595726E-001  0.1250000E+03  0.7546771E-02  0.1235069E+00
         21   -1    0    0  502  501  0.00000000000E+00  0.00000000000E+00  0.30199354617E+03  0.30199354617E+03  0.00000000000E+00 0.  1.
         21   -1    0    0  501  502 -0.00000000000E+00 -0.00000000000E+00 -0.12934879071E+02  0.12934879071E+02  0.00000000000E+00 0.  1.
         25    1    1    2    0    0  0.00000000000E+00  0.00000000000E+00  0.28905866710E+03  0.31492842524E+03  0.12500000000E+03 0.  0.
<mgrwt>
<rscale>  0 0.12500000E+03</rscale>
<asrwt>0</asrwt>
<pdfrwt beam="1">  1       21 0.46460540E-01 0.12500000E+03</pdfrwt>
<pdfrwt beam="2">  1       21 0.19899816E-02 0.12500000E+03</pdfrwt>
<totfact> 0.54237704E+06</totfact>
</mgrwt>
</event>
<event>
 3    1  0.1595726E-001  0.1250000E+03  0.7546771E-02  0.1235069E+00
         21   -1    0    0  502  501  0.00000000000E+00  0.00000000000E+00  0.19755893812E+02  0.19755893812E+02  0.00000000000E+00 0.  1.
         21   -1    0    0  501  502 -0.00000000000E+00 -0.00000000000E+00 -0.19772580462E+03  0.19772580462E+03  0.00000000000E+00 0.  1.
         25    1    1    2    0    0  0.00000000000E+00  0.00000000000E+00 -0.17796991080E+03  0.21748169843E+03  0.12500000000E+03 0.  0.
<mgrwt>
<rscale>  0 0.12500000E+03</rscale>
<asrwt>0</asrwt>
<pdfrwt beam="1">  1       21 0.30393683E-02 0.12500000E+03</pdfrwt>
<pdfrwt beam="2">  1       21 0.30419355E-01 0.12500000E+03</pdfrwt>
<totfact> 0.63080870E+06</totfact>
</mgrwt>
</event>
<event>
 3    1  0.1595726E-001  0.1250000E+03  0.7546771E-02  0.1235069E+00
         21   -1    0    0  502  501  0.00000000000E+00  0.00000000000E+00  0.84041816958E+01  0.84041816958E+01  0.00000000000E+00 0.  1.
         21   -1    0    0  501  502 -0.00000000000E+00 -0.00000000000E+00 -0.46479837555E+03  0.46479837555E+03  0.00000000000E+00 0.  1.
         25    1    1    2    0    0  0.00000000000E+00  0.00000000000E+00 -0.45639419385E+03  0.47320255724E+03  0.12500000000E+03 0.  0.
<mgrwt>
<rscale>  0 0.12500000E+03</rscale>
<asrwt>0</asrwt>
<pdfrwt beam="1">  1       21 0.12929509E-02 0.12500000E+03</pdfrwt>
<pdfrwt beam="2">  1       21 0.71507450E-01 0.12500000E+03</pdfrwt>
<totfact> 0.43535660E+06</totfact>
</mgrwt>
</event>
<event>
 3    1  0.1595726E-001  0.1250000E+03  0.7546771E-02  0.1235069E+00
         21   -1    0    0  502  501  0.00000000000E+00  0.00000000000E+00  0.47172434337E+01  0.47172434337E+01  0.00000000000E+00 0. -1.
         21   -1    0    0  501  502 -0.00000000000E+00 -0.00000000000E+00 -0.82807895223E+03  0.82807895223E+03  0.00000000000E+00 0. -1.
         25    1    1    2    0    0  0.00000000000E+00  0.00000000000E+00 -0.82336170880E+03  0.83279619566E+03  0.12500000000E+03 0.  0.
<mgrwt>
<rscale>  0 0.12500000E+03</rscale>
<asrwt>0</asrwt>
<pdfrwt beam="1">  1       21 0.72572899E-03 0.12500000E+03</pdfrwt>
<pdfrwt beam="2">  1       21 0.12739690E+00 0.12500000E+03</pdfrwt>
<totfact> 0.28304618E+06</totfact>
</mgrwt>
</event>
<event>
 3    1  0.1595726E-001  0.1250000E+03  0.7546771E-02  0.1235069E+00
         21   -1    0    0  502  501  0.00000000000E+00  0.00000000000E+00  0.45964092348E+03  0.45964092348E+03  0.00000000000E+00 0. -1.
         21   -1    0    0  501  502 -0.00000000000E+00 -0.00000000000E+00 -0.84984817506E+01  0.84984817506E+01  0.00000000000E+00 0. -1.
         25    1    1    2    0    0  0.00000000000E+00  0.00000000000E+00  0.45114244173E+03  0.46813940523E+03  0.12500000000E+03 0.  0.
<mgrwt>
<rscale>  0 0.12500000E+03</rscale>
<asrwt>0</asrwt>
<pdfrwt beam="1">  1       21 0.70713969E-01 0.12500000E+03</pdfrwt>
<pdfrwt beam="2">  1       21 0.13074591E-02 0.12500000E+03</pdfrwt>
<totfact> 0.43826380E+06</totfact>
</mgrwt>
</event>
<event>
 3    1  0.1595726E-001  0.1250000E+03  0.7546771E-02  0.1235069E+00
         21   -1    0    0  502  501  0.00000000000E+00  0.00000000000E+00  0.23761276704E+03  0.23761276704E+03  0.00000000000E+00 0. -1.
         21   -1    0    0  501  502 -0.00000000000E+00 -0.00000000000E+00 -0.16439562776E+02  0.16439562776E+02  0.00000000000E+00 0. -1.
         25    1    1    2    0    0  0.00000000000E+00  0.00000000000E+00  0.22117320426E+03  0.25405232981E+03  0.12500000000E+03 0.  0.
<mgrwt>
<rscale>  0 0.12500000E+03</rscale>
<asrwt>0</asrwt>
<pdfrwt beam="1">  1       21 0.36555808E-01 0.12500000E+03</pdfrwt>
<pdfrwt beam="2">  1       21 0.25291637E-02 0.12500000E+03</pdfrwt>
<totfact> 0.59498754E+06</totfact>
</mgrwt>
</event>
<event>
 3    1  0.1595726E-001  0.1250000E+03  0.7546771E-02  0.1235069E+00
         21   -1    0    0  502  501  0.00000000000E+00  0.00000000000E+00  0.22271103128E+03  0.22271103128E+03  0.00000000000E+00 0. -1.
         21   -1    0    0  501  502 -0.00000000000E+00 -0.00000000000E+00 -0.17539544304E+02  0.17539544304E+02  0.00000000000E+00 0. -1.
         25    1    1    2    0    0  0.00000000000E+00  0.00000000000E+00  0.20517148698E+03  0.24025057558E+03  0.12500000000E+03 0.  0.
<mgrwt>
<rscale>  0 0.12500000E+03</rscale>
<asrwt>0</asrwt>
<pdfrwt beam="1">  1       21 0.34263234E-01 0.12500000E+03</pdfrwt>
<pdfrwt beam="2">  1       21 0.26983916E-02 0.12500000E+03</pdfrwt>
<totfact> 0.60808424E+06</totfact>
</mgrwt>
</event>
<event>
 3    1  0.1595726E-001  0.1250000E+03  0.7546771E-02  0.1235069E+00
         21   -1    0    0  502  501  0.00000000000E+00  0.00000000000E+00  0.21769650507E+02  0.21769650507E+02  0.00000000000E+00 0.  1.
         21   -1    0    0  501  502 -0.00000000000E+00 -0.00000000000E+00 -0.17943558619E+03  0.17943558619E+03  0.00000000000E+00 0.  1.
         25    1    1    2    0    0  0.00000000000E+00  0.00000000000E+00 -0.15766593569E+03  0.20120523670E+03  0.12500000000E+03 0.  0.
<mgrwt>
<rscale>  0 0.12500000E+03</rscale>
<asrwt>0</asrwt>
<pdfrwt beam="1">  1       21 0.33491771E-02 0.12500000E+03</pdfrwt>
<pdfrwt beam="2">  1       21 0.27605474E-01 0.12500000E+03</pdfrwt>
<totfact> 0.64796891E+06</totfact>
</mgrwt>
</event>
<event>
 3    1  0.1595726E-001  0.1250000E+03  0.7546771E-02  0.1235069E+00
         21   -1    0    0  502  501  0.00000000000E+00  0.00000000000E+00  0.26751357969E+04  0.26751357969E+04  0.00000000000E+00 0. -1.
         21   -1    0    0  501  502 -0.00000000000E+00 -0.00000000000E+00 -0.14602062462E+01  0.14602062462E+01  0.00000000000E+00 0. -1.
         25    1    1    2    0    0  0.00000000000E+00  0.00000000000E+00  0.26736755907E+04  0.26765960031E+04  0.12500000000E+03 0.  0.
<mgrwt>
<rscale>  0 0.12500000E+03</rscale>
<asrwt>0</asrwt>
<pdfrwt beam="1">  1       21 0.41155543E+00 0.12500000E+03</pdfrwt>
<pdfrwt beam="2">  1       21 0.22464926E-03 0.12500000E+03</pdfrwt>
<totfact> 0.30478998E+05</totfact>
</mgrwt>
</event>
<event>
 3    1  0.1595726E-001  0.1250000E+03  0.7546771E-02  0.1235069E+00
         21   -1    0    0  502  501  0.00000000000E+00  0.00000000000E+00  0.23334111088E+02  0.23334111088E+02  0.00000000000E+00 0. -1.
         21   -1    0    0  501  502 -0.00000000000E+00 -0.00000000000E+00 -0.16740513428E+03  0.16740513428E+03  0.00000000000E+00 0. -1.
         25    1    1    2    0    0  0.00000000000E+00  0.00000000000E+00 -0.14407102319E+03  0.19073924537E+03  0.12500000000E+03 0.  0.
<mgrwt>
<rscale>  0 0.12500000E+03</rscale>
<asrwt>0</asrwt>
<pdfrwt beam="1">  1       21 0.35898633E-02 0.12500000E+03</pdfrwt>
<pdfrwt beam="2">  1       21 0.25754636E-01 0.12500000E+03</pdfrwt>
<totfact> 0.65940398E+06</totfact>
</mgrwt>
</event>
<event>
 3    1  0.1595726E-001  0.1250000E+03  0.7546771E-02  0.1235069E+00
         21   -1    0    0  502  501  0.00000000000E+00  0.00000000000E+00  0.18293005933E+03  0.18293005933E+03  0.00000000000E+00 0. -1.
         21   -1    0    0  501  502 -0.00000000000E+00 -0.00000000000E+00 -0.21353789608E+02  0.21353789608E+02  0.00000000000E+00 0. -1.
         25    1    1    2    0    0  0.00000000000E+00  0.00000000000E+00  0.16157626972E+03  0.20428384894E+03  0.12500000000E+03 0.  0.
<mgrwt>
<rscale>  0 0.12500000E+03</rscale>
<asrwt>0</asrwt>
<pdfrwt beam="1">  1       21 0.28143085E-01 0.12500000E+03</pdfrwt>
<pdfrwt beam="2">  1       21 0.32851985E-02 0.12500000E+03</pdfrwt>
<totfact> 0.64466004E+06</totfact>
</mgrwt>
</event>
<event>
 3    1  0.1595726E-001  0.1250000E+03  0.7546771E-02  0.1235069E+00
         21   -1    0    0  502  501  0.00000000000E+00  0.00000000000E+00  0.86281411970E+02  0.86281411970E+02  0.00000000000E+00 0.  1.
         21   -1    0    0  501  502 -0.00000000000E+00 -0.00000000000E+00 -0.45273366659E+02  0.45273366659E+02  0.00000000000E+00 0.  1.
         25    1    1    2    0    0  0.00000000000E+00  0.00000000000E+00  0.41008045311E+02  0.13155477863E+03  0.12500000000E+03 0.  0.
<mgrwt>
<rscale>  0 0.12500000E+03</rscale>
<asrwt>0</asrwt>
<pdfrwt beam="1">  1       21 0.13274063E-01 0.12500000E+03</pdfrwt>
<pdfrwt beam="2">  1       21 0.69651333E-02 0.12500000E+03</pdfrwt>
<totfact> 0.73156008E+06</totfact>
</mgrwt>
</event>
<event>
 3    1  0.1595726E-001  0.1250000E+03  0.7546771E-02  0.1235069E+00
         21   -1    0    0  502  501  0.00000000000E+00  0.00000000000E+00  0.11273632461E+04  0.11273632461E+04  0.00000000000E+00 0.  1.
         21   -1    0    0  501  502 -0.00000000000E+00 -0.00000000000E+00 -0.34649435428E+01  0.34649435428E+01  0.00000000000E+00 0.  1.
         25    1    1    2    0    0  0.00000000000E+00  0.00000000000E+00  0.11238983026E+04  0.11308281897E+04  0.12500000000E+03 0.  0.
<mgrwt>
<rscale>  0 0.12500000E+03</rscale>
<asrwt>0</asrwt>
<pdfrwt beam="1">  1       21 0.17344021E+00 0.12500000E+03</pdfrwt>
<pdfrwt beam="2">  1       21 0.53306914E-03 0.12500000E+03</pdfrwt>
<totfact> 0.20578546E+06</totfact>
</mgrwt>
</event>
<event>
 3    1  0.1595726E-001  0.1250000E+03  0.7546771E-02  0.1235069E+00
         21   -1    0    0  502  501  0.00000000000E+00  0.00000000000E+00  0.35661537543E+03  0.35661537543E+03  0.00000000000E+00 0.  1.
         21   -1    0    0  501  502 -0.00000000000E+00 -0.00000000000E+00 -0.10953678022E+02  0.10953678022E+02  0.00000000000E+00 0.  1.
         25    1    1    2    0    0  0.00000000000E+00  0.00000000000E+00  0.34566169741E+03  0.36756905345E+03  0.12500000000E+03 0.  0.
<mgrwt>
<rscale>  0 0.12500000E+03</rscale>
<asrwt>0</asrwt>
<pdfrwt beam="1">  1       21 0.54863895E-01 0.12500000E+03</pdfrwt>
<pdfrwt beam="2">  1       21 0.16851815E-02 0.12500000E+03</pdfrwt>
<totfact> 0.50266513E+06</totfact>
</mgrwt>
</event>
<event>
 3    1  0.1595726E-001  0.1250000E+03  0.7546771E-02  0.1235069E+00
         21   -1    0    0  502  501  0.00000000000E+00  0.00000000000E+00  0.32467755167E+02  0.32467755167E+02  0.00000000000E+00 0.  1.
         21   -1    0    0  501  502 -0.00000000000E+00 -0.00000000000E+00 -0.12031167477E+03  0.12031167477E+03  0.00000000000E+00 0.  1.
         25    1    1    2    0    0  0.00000000000E+00  0.00000000000E+00 -0.87843919600E+02  0.15277942993E+03  0.12500000000E+03 0.  0.
<mgrwt>
<rscale>  0 0.12500000E+03</rscale>
<asrwt>0</asrwt>
<pdfrwt beam="1">  1       21 0.49950392E-02 0.12500000E+03</pdfrwt>
<pdfrwt beam="2">  1       21 0.18509488E-01 0.12500000E+03</pdfrwt>
<totfact> 0.70411775E+06</totfact>
</mgrwt>
</event>
<event>
 3    1  0.1595726E-001  0.1250000E+03  0.7546771E-02  0.1235069E+00
         21   -1    0    0  502  501  0.00000000000E+00  0.00000000000E+00  0.19359955958E+02  0.19359955958E+02  0.00000000000E+00 0. -1.
         21   -1    0    0  501  502 -0.00000000000E+00 -0.00000000000E+00 -0.20176957057E+03  0.20176957057E+03  0.00000000000E+00 0. -1.
         25    1    1    2    0    0  0.00000000000E+00  0.00000000000E+00 -0.18240961461E+03  0.22112952653E+03  0.12500000000E+03 0.  0.
<mgrwt>
<rscale>  0 0.12500000E+03</rscale>
<asrwt>0</asrwt>
<pdfrwt beam="1">  1       21 0.29784548E-02 0.12500000E+03</pdfrwt>
<pdfrwt beam="2">  1       21 0.31041472E-01 0.12500000E+03</pdfrwt>
<totfact> 0.62707269E+06</totfact>
</mgrwt>
</event>
<event>
 3    1  0.1595726E-001  0.1250000E+03  0.7546771E-02  0.1235069E+00
         21   -1    0    0  502  501  0.00000000000E+00  0.00000000000E+00  0.17852223230E+03  0.17852223230E+03  0.00000000000E+00 0.  1.
         21   -1    0    0  501  502 -0.00000000000E+00 -0.00000000000E+00 -0.21881028204E+02  0.21881028204E+02  0.00000000000E+00 0.  1.
         25    1    1    2    0    0  0.00000000000E+00  0.00000000000E+00  0.15664120409E+03  0.20040326050E+03  0.12500000000E+03 0.  0.
<mgrwt>
<rscale>  0 0.12500000E+03</rscale>
<asrwt>0</asrwt>
<pdfrwt beam="1">  1       21 0.27464958E-01 0.12500000E+03</pdfrwt>
<pdfrwt beam="2">  1       21 0.33663121E-02 0.12500000E+03</pdfrwt>
<totfact> 0.64883583E+06</totfact>
</mgrwt>
</event>
<event>
 3    1  0.1595726E-001  0.1250000E+03  0.7546771E-02  0.1235069E+00
         21   -1    0    0  502  501  0.00000000000E+00  0.00000000000E+00  0.31983808672E+02  0.31983808672E+02  0.00000000000E+00 0.  1.
         21   -1    0    0  501  502 -0.00000000000E+00 -0.00000000000E+00 -0.12213210878E+03  0.12213210878E+03  0.00000000000E+00 0.  1.
         25    1    1    2    0    0  0.00000000000E+00  0.00000000000E+00 -0.90148300110E+02  0.15411591745E+03  0.12500000000E+03 0.  0.
<mgrwt>
<rscale>  0 0.12500000E+03</rscale>
<asrwt>0</asrwt>
<pdfrwt beam="1">  1       21 0.49205859E-02 0.12500000E+03</pdfrwt>
<pdfrwt beam="2">  1       21 0.18789555E-01 0.12500000E+03</pdfrwt>
<totfact> 0.70245705E+06</totfact>
</mgrwt>
</event>
<event>
 3    1  0.1595726E-001  0.1250000E+03  0.7546771E-02  0.1235069E+00
         21   -1    0    0  502  501  0.00000000000E+00  0.00000000000E+00  0.23021961486E+03  0.23021961486E+03  0.00000000000E+00 0.  1.
         21   -1    0    0  501  502 -0.00000000000E+00 -0.00000000000E+00 -0.16967494288E+02  0.16967494288E+02  0.00000000000E+00 0.  1.
         25    1    1    2    0    0  0.00000000000E+00  0.00000000000E+00  0.21325212057E+03  0.24718710914E+03  0.12500000000E+03 0.  0.
<mgrwt>
<rscale>  0 0.12500000E+03</rscale>
<asrwt>0</asrwt>
<pdfrwt beam="1">  1       21 0.35418400E-01 0.12500000E+03</pdfrwt>
<pdfrwt beam="2">  1       21 0.26103839E-02 0.12500000E+03</pdfrwt>
<totfact> 0.60144035E+06</totfact>
</mgrwt>
</event>
<event>
 3    1  0.1595726E-001  0.1250000E+03  0.7546771E-02  0.1235069E+00
         21   -1    0    0  502  501  0.00000000000E+00  0.00000000000E+00  0.89986142577E+01  0.89986142577E+01  0.00000000000E+00 0.  1.
         21   -1    0    0  501  502 -0.00000000000E+00 -0.00000000000E+00 -0.43409461592E+03  0.43409461592E+03  0.00000000000E+00 0.  1.
         25    1    1    2    0    0  0.00000000000E+00  0.00000000000E+00 -0.42509600166E+03  0.44309323018E+03  0.12500000000E+03 0.  0.
<mgrwt>
<rscale>  0 0.12500000E+03</rscale>
<asrwt>0</asrwt>
<pdfrwt beam="1">  1       21 0.13844020E-02 0.12500000E+03</pdfrwt>
<pdfrwt beam="2">  1       21 0.66783797E-01 0.12500000E+03</pdfrwt>
<totfact> 0.45308454E+06</totfact>
</mgrwt>
</event>
<event>
 3    1  0.1595726E-001  0.1250000E+03  0.7546771E-02  0.1235069E+00
         21   -1    0    0  502  501  0.00000000000E+00  0.00000000000E+00  0.37491225735E+02  0.37491225735E+02  0.00000000000E+00 0. -1.
         21   -1    0    0  501  502 -0.00000000000E+00 -0.00000000000E+00 -0.10419104533E+03  0.10419104533E+03  0.00000000000E+00 0. -1.
         25    1    1    2    0    0  0.00000000000E+00  0.00000000000E+00 -0.66699819593E+02  0.14168227106E+03  0.12500000000E+03 0.  0.
<mgrwt>
<rscale>  0 0.12500000E+03</rscale>
<asrwt>0</asrwt>
<pdfrwt beam="1">  1       21 0.57678809E-02 0.12500000E+03</pdfrwt>
<pdfrwt beam="2">  1       21 0.16029392E-01 0.12500000E+03</pdfrwt>
<totfact> 0.71820445E+06</totfact>
</mgrwt>
</event>
<event>
 3    1  0.1595726E-001  0.1250000E+03  0.7546771E-02  0.1235069E+00
         21   -1    0    0  502  501  0.00000000000E+00  0.00000000000E+00  0.10805059770E+03  0.10805059770E+03  0.00000000000E+00 0. -1.
         21   -1    0    0  501  502 -0.00000000000E+00 -0.00000000000E+00 -0.36152044349E+02  0.36152044349E+02  0.00000000000E+00 0. -1.
         25    1    1    2    0    0  0.00000000000E+00  0.00000000000E+00  0.71898553353E+02  0.14420264205E+03  0.12500000000E+03 0.  0.
<mgrwt>
<rscale>  0 0.12500000E+03</rscale>
<asrwt>0</asrwt>
<pdfrwt beam="1">  1       21 0.16623169E-01 0.12500000E+03</pdfrwt>
<pdfrwt beam="2">  1       21 0.55618530E-02 0.12500000E+03</pdfrwt>
<totfact> 0.71495297E+06</totfact>
</mgrwt>
</event>
<event>
 3    1  0.1595726E-001  0.1250000E+03  0.7546771E-02  0.1235069E+00
         21   -1    0    0  502  501  0.00000000000E+00  0.00000000000E+00  0.42505118005E+02  0.42505118005E+02  0.00000000000E+00 0. -1.
         21   -1    0    0  501  502 -0.00000000000E+00 -0.00000000000E+00 -0.91900697689E+02  0.91900697689E+02  0.00000000000E+00 0. -1.
         25    1    1    2    0    0  0.00000000000E+00  0.00000000000E+00 -0.49395579684E+02  0.13440581569E+03  0.12500000000E+03 0.  0.
<mgrwt>
<rscale>  0 0.12500000E+03</rscale>
<asrwt>0</asrwt>
<pdfrwt beam="1">  1       21 0.65392489E-02 0.12500000E+03</pdfrwt>
<pdfrwt beam="2">  1       21 0.14138569E-01 0.12500000E+03</pdfrwt>
<totfact> 0.72775242E+06</totfact>
</mgrwt>
</event>
<event>
 3    1  0.1595726E-001  0.1250000E+03  0.7546771E-02  0.1235069E+00
         21   -1    0    0  502  501  0.00000000000E+00  0.00000000000E+00  0.16752601441E+02  0.16752601441E+02  0.00000000000E+00 0. -1.
         21   -1    0    0  501  502 -0.00000000000E+00 -0.00000000000E+00 -0.23317274119E+03  0.23317274119E+03  0.00000000000E+00 0. -1.
         25    1    1    2    0    0  0.00000000000E+00  0.00000000000E+00 -0.21642013975E+03  0.24992534263E+03  0.12500000000E+03 0.  0.
<mgrwt>
<rscale>  0 0.12500000E+03</rscale>
<asrwt>0</asrwt>
<pdfrwt beam="1">  1       21 0.25773234E-02 0.12500000E+03</pdfrwt>
<pdfrwt beam="2">  1       21 0.35872728E-01 0.12500000E+03</pdfrwt>
<totfact> 0.59885219E+06</totfact>
</mgrwt>
</event>
<event>
 3    1  0.1595726E-001  0.1250000E+03  0.7546771E-02  0.1235069E+00
         21   -1    0    0  502  501  0.00000000000E+00  0.00000000000E+00  0.27380912389E+03  0.27380912389E+03  0.00000000000E+00 0.  1.
         21   -1    0    0  501  502 -0.00000000000E+00 -0.00000000000E+00 -0.14266325185E+02  0.14266325185E+02  0.00000000000E+00 0.  1.
         25    1    1    2    0    0  0.00000000000E+00  0.00000000000E+00  0.25954279870E+03  0.28807544907E+03  0.12500000000E+03 0.  0.
<mgrwt>
<rscale>  0 0.12500000E+03</rscale>
<asrwt>0</asrwt>
<pdfrwt beam="1">  1       21 0.42124477E-01 0.12500000E+03</pdfrwt>
<pdfrwt beam="2">  1       21 0.21948195E-02 0.12500000E+03</pdfrwt>
<totfact> 0.56461944E+06</totfact>
</mgrwt>
</event>
<event>
 3    1  0.1595726E-001  0.1250000E+03  0.7546771E-02  0.1235069E+00
         21   -1    0    0  502  501  0.00000000000E+00  0.00000000000E+00  0.68767220481E+02  0.68767220481E+02  0.00000000000E+00 0.  1.
         21   -1    0    0  501  502 -0.00000000000E+00 -0.00000000000E+00 -0.56803953579E+02  0.56803953579E+02  0.00000000000E+00 0.  1.
         25    1    1    2    0    0  0.00000000000E+00  0.00000000000E+00  0.11963266902E+02  0.12557117406E+03  0.12500000000E+03 0.  0.
<mgrwt>
<rscale>  0 0.12500000E+03</rscale>
<asrwt>0</asrwt>
<pdfrwt beam="1">  1       21 0.10579572E-01 0.12500000E+03</pdfrwt>
<pdfrwt beam="2">  1       21 0.87390698E-02 0.12500000E+03</pdfrwt>
<totfact> 0.73965459E+06</totfact>
</mgrwt>
</event>
<event>
 3    1  0.1595726E-001  0.1250000E+03  0.7546771E-02  0.1235069E+00
         21   -1    0    0  502  501  0.00000000000E+00  0.00000000000E+00  0.35541783483E+03  0.35541783483E+03  0.00000000000E+00 0.  1.
         21   -1    0    0  501  502 -0.00000000000E+00 -0.00000000000E+00 -0.10990585213E+02  0.10990585213E+02  0.00000000000E+00 0.  1.
         25    1    1    2    0    0  0.00000000000E+00  0.00000000000E+00  0.34442724962E+03  0.36640842004E+03  0.12500000000E+03 0.  0.
<mgrwt>
<rscale>  0 0.12500000E+03</rscale>
<asrwt>0</asrwt>
<pdfrwt beam="1">  1       21 0.54679658E-01 0.12500000E+03</pdfrwt>
<pdfrwt beam="2">  1       21 0.16908595E-02 0.12500000E+03</pdfrwt>
<totfact> 0.50348991E+06</totfact>
</mgrwt>
</event>
<event>
 3    1  0.1595726E-001  0.1250000E+03  0.7546771E-02  0.1235069E+00
         21   -1    0    0  502  501  0.00000000000E+00  0.00000000000E+00  0.12013385301E+02  0.12013385301E+02  0.00000000000E+00 0. -1.
         21   -1    0    0  501  502 -0.00000000000E+00 -0.00000000000E+00 -0.32515813837E+03  0.32515813837E+03  0.00000000000E+00 0. -1.
         25    1    1    2    0    0  0.00000000000E+00  0.00000000000E+00 -0.31314475307E+03  0.33717152367E+03  0.12500000000E+03 0.  0.
<mgrwt>
<rscale>  0 0.12500000E+03</rscale>
<asrwt>0</asrwt>
<pdfrwt beam="1">  1       21 0.18482130E-02 0.12500000E+03</pdfrwt>
<pdfrwt beam="2">  1       21 0.50024333E-01 0.12500000E+03</pdfrwt>
<totfact> 0.52500033E+06</totfact>
</mgrwt>
</event>
<event>
 3    1  0.1595726E-001  0.1250000E+03  0.7546771E-02  0.1235069E+00
         21   -1    0    0  502  501  0.00000000000E+00  0.00000000000E+00  0.56798748125E+03  0.56798748125E+03  0.00000000000E+00 0.  1.
         21   -1    0    0  501  502 -0.00000000000E+00 -0.00000000000E+00 -0.68773522814E+01  0.68773522814E+01  0.00000000000E+00 0.  1.
         25    1    1    2    0    0  0.00000000000E+00  0.00000000000E+00  0.56111012897E+03  0.57486483353E+03  0.12500000000E+03 0.  0.
<mgrwt>
<rscale>  0 0.12500000E+03</rscale>
<asrwt>0</asrwt>
<pdfrwt beam="1">  1       21 0.87382652E-01 0.12500000E+03</pdfrwt>
<pdfrwt beam="2">  1       21 0.10580546E-02 0.12500000E+03</pdfrwt>
<totfact> 0.38254591E+06</totfact>
</mgrwt>
</event>
<event>
 3    1  0.1595726E-001  0.1250000E+03  0.7546771E-02  0.1235069E+00
         21   -1    0    0  502  501  0.00000000000E+00  0.00000000000E+00  0.79809023265E+01  0.79809023265E+01  0.00000000000E+00 0. -1.
         21   -1    0    0  501  502 -0.00000000000E+00 -0.00000000000E+00 -0.48944966874E+03  0.48944966874E+03  0.00000000000E+00 0. -1.
         25    1    1    2    0    0  0.00000000000E+00  0.00000000000E+00 -0.48146876642E+03  0.49743057107E+03  0.12500000000E+03 0.  0.
<mgrwt>
<rscale>  0 0.12500000E+03</rscale>
<asrwt>0</asrwt>
<pdfrwt beam="1">  1       21 0.12278312E-02 0.12500000E+03</pdfrwt>
<pdfrwt beam="2">  1       21 0.75299945E-01 0.12500000E+03</pdfrwt>
<totfact> 0.42183761E+06</totfact>
</mgrwt>
</event>
<event>
 3    1  0.1595726E-001  0.1250000E+03  0.7546771E-02  0.1235069E+00
         21   -1    0    0  502  501  0.00000000000E+00  0.00000000000E+00  0.61392906187E+01  0.61392906187E+01  0.00000000000E+00 0.  1.
         21   -1    0    0  501  502 -0.00000000000E+00 -0.00000000000E+00 -0.63627057955E+03  0.63627057955E+03  0.00000000000E+00 0.  1.
         25    1    1    2    0    0  0.00000000000E+00  0.00000000000E+00 -0.63013128893E+03  0.64240987017E+03  0.12500000000E+03 0.  0.
<mgrwt>
<rscale>  0 0.12500000E+03</rscale>
<asrwt>0</asrwt>
<pdfrwt beam="1">  1       21 0.94450613E-03 0.12500000E+03</pdfrwt>
<pdfrwt beam="2">  1       21 0.97887794E-01 0.12500000E+03</pdfrwt>
<totfact> 0.35242180E+06</totfact>
</mgrwt>
</event>
<event>
 3    1  0.1595726E-001  0.1250000E+03  0.7546771E-02  0.1235069E+00
         21   -1    0    0  502  501  0.00000000000E+00  0.00000000000E+00  0.13176943432E+03  0.13176943432E+03  0.00000000000E+00 0.  1.
         21   -1    0    0  501  502 -0.00000000000E+00 -0.00000000000E+00 -0.29644583512E+02  0.29644583512E+02  0.00000000000E+00 0.  1.
         25    1    1    2    0    0  0.00000000000E+00  0.00000000000E+00  0.10212485081E+03  0.16141401783E+03  0.12500000000E+03 0.  0.
<mgrwt>
<rscale>  0 0.12500000E+03</rscale>
<asrwt>0</asrwt>
<pdfrwt beam="1">  1       21 0.20272220E-01 0.12500000E+03</pdfrwt>
<pdfrwt beam="2">  1       21 0.45607052E-02 0.12500000E+03</pdfrwt>
<totfact> 0.69347130E+06</totfact>
</mgrwt>
</event>
<event>
 3    1  0.1595726E-001  0.1250000E+03  0.7546771E-02  0.1235069E+00
         21   -1    0    0  502  501  0.00000000000E+00  0.00000000000E+00  0.61255677701E+02  0.61255677701E+02  0.00000000000E+00 0.  1.
         21   -1    0    0  501  502 -0.00000000000E+00 -0.00000000000E+00 -0.63769598943E+02  0.63769598943E+02  0.00000000000E+00 0.  1.
         25    1    1    2    0    0  0.00000000000E+00  0.00000000000E+00 -0.25139212422E+01  0.12502527664E+03  0.12500000000E+03 0.  0.
<mgrwt>
<rscale>  0 0.12500000E+03</rscale>
<asrwt>0</asrwt>
<pdfrwt beam="1">  1       21 0.94239504E-02 0.12500000E+03</pdfrwt>
<pdfrwt beam="2">  1       21 0.98107075E-02 0.12500000E+03</pdfrwt>
<totfact> 0.74040167E+06</totfact>
</mgrwt>
</event>
<event>
 3    1  0.1595726E-001  0.1250000E+03  0.7546771E-02  0.1235069E+00
         21   -1    0    0  502  501  0.00000000000E+00  0.00000000000E+00  0.98781693596E+02  0.98781693596E+02  0.00000000000E+00 0. -1.
         21   -1    0    0  501  502 -0.00000000000E+00 -0.00000000000E+00 -0.39544270379E+02  0.39544270379E+02  0.00000000000E+00 0. -1.
         25    1    1    2    0    0  0.00000000000E+00  0.00000000000E+00  0.59237423217E+02  0.13832596397E+03  0.12500000000E+03 0.  0.
<mgrwt>
<rscale>  0 0.12500000E+03</rscale>
<asrwt>0</asrwt>
<pdfrwt beam="1">  1       21 0.15197184E-01 0.12500000E+03</pdfrwt>
<pdfrwt beam="2">  1       21 0.60837339E-02 0.12500000E+03</pdfrwt>
<totfact> 0.72258611E+06</totfact>
</mgrwt>
</event>
<event>
 3    1  0.1595726E-001  0.1250000E+03  0.7546771E-02  0.1235069E+00
         21   -1    0    0  502  501  0.00000000000E+00  0.00000000000E+00  0.18716619378E+02  0.18716619378E+02  0.00000000000E+00 0.  1.
         21   -1    0    0  501  502 -0.00000000000E+00 -0.00000000000E+00 -0.20870489062E+03  0.20870489062E+03  0.00000000000E+00 0.  1.
         25    1    1    2    0    0  0.00000000000E+00  0.00000000000E+00 -0.18998827124E+03  0.22742151000E+03  0.12500000000E+03 0.  0.
<mgrwt>
<rscale>  0 0.12500000E+03</rscale>
<asrwt>0</asrwt>
<pdfrwt beam="1">  1       21 0.28794799E-02 0.12500000E+03</pdfrwt>
<pdfrwt beam="2">  1       21 0.32108445E-01 0.12500000E+03</pdfrwt>
<totfact> 0.62071523E+06</totfact>
</mgrwt>
</event>
<event>
 3    1  0.1595726E-001  0.1250000E+03  0.7546771E-02  0.1235069E+00
         21   -1    0    0  502  501  0.00000000000E+00  0.00000000000E+00  0.13116058690E+03  0.13116058690E+03  0.00000000000E+00 0. -1.
         21   -1    0    0  501  502 -0.00000000000E+00 -0.00000000000E+00 -0.29782193663E+02  0.29782193663E+02  0.00000000000E+00 0. -1.
         25    1    1    2    0    0  0.00000000000E+00  0.00000000000E+00  0.10137839324E+03  0.16094278056E+03  0.12500000000E+03 0.  0.
<mgrwt>
<rscale>  0 0.12500000E+03</rscale>
<asrwt>0</asrwt>
<pdfrwt beam="1">  1       21 0.20178552E-01 0.12500000E+03</pdfrwt>
<pdfrwt beam="2">  1       21 0.45818760E-02 0.12500000E+03</pdfrwt>
<totfact> 0.69404482E+06</totfact>
</mgrwt>
</event>
<event>
 3    1  0.1595726E-001  0.1250000E+03  0.7546771E-02  0.1235069E+00
         21   -1    0    0  502  501  0.00000000000E+00  0.00000000000E+00  0.65523719975E+01  0.65523719975E+01  0.00000000000E+00 0.  1.
         21   -1    0    0  501  502 -0.00000000000E+00 -0.00000000000E+00 -0.59615815486E+03  0.59615815486E+03  0.00000000000E+00 0.  1.
         25    1    1    2    0    0  0.00000000000E+00  0.00000000000E+00 -0.58960578287E+03  0.60271052686E+03  0.12500000000E+03 0.  0.
<mgrwt>
<rscale>  0 0.12500000E+03</rscale>
<asrwt>0</asrwt>
<pdfrwt beam="1">  1       21 0.10080572E-02 0.12500000E+03</pdfrwt>
<pdfrwt beam="2">  1       21 0.91716645E-01 0.12500000E+03</pdfrwt>
<totfact> 0.36970335E+06</totfact>
</mgrwt>
</event>
<event>
 3    1  0.1595726E-001  0.1250000E+03  0.7546771E-02  0.1235069E+00
         21   -1    0    0  502  501  0.00000000000E+00  0.00000000000E+00  0.24254842007E+03  0.24254842007E+03  0.00000000000E+00 0. -1.
         21   -1    0    0  501  502 -0.00000000000E+00 -0.00000000000E+00 -0.16105031725E+02  0.16105031725E+02  0.00000000000E+00 0. -1.
         25    1    1    2    0    0  0.00000000000E+00  0.00000000000E+00  0.22644338834E+03  0.25865345179E+03  0.12500000000E+03 0.  0.
<mgrwt>
<rscale>  0 0.12500000E+03</rscale>
<asrwt>0</asrwt>
<pdfrwt beam="1">  1       21 0.37315139E-01 0.12500000E+03</pdfrwt>
<pdfrwt beam="2">  1       21 0.24776974E-02 0.12500000E+03</pdfrwt>
<totfact> 0.59072912E+06</totfact>
</mgrwt>
</event>
<event>
 3    1  0.1595726E-001  0.1250000E+03  0.7546771E-02  0.1235069E+00
         21   -1    0    0  502  501  0.00000000000E+00  0.00000000000E+00  0.15196629756E+03  0.15196629756E+03  0.00000000000E+00 0.  1.
         21   -1    0    0  501  502 -0.00000000000E+00 -0.00000000000E+00 -0.25704712577E+02  0.25704712577E+02  0.00000000000E+00 0.  1.
         25    1    1    2    0    0  0.00000000000E+00  0.00000000000E+00  0.12626158498E+03  0.17767101013E+03  0.12500000000E+03 0.  0.
<mgrwt>
<rscale>  0 0.12500000E+03</rscale>
<asrwt>0</asrwt>
<pdfrwt beam="1">  1       21 0.23379430E-01 0.12500000E+03</pdfrwt>
<pdfrwt beam="2">  1       21 0.39545713E-02 0.12500000E+03</pdfrwt>
<totfact> 0.67419720E+06</totfact>
</mgrwt>
</event>
<event>
 3    1  0.1595726E-001  0.1250000E+03  0.7546771E-02  0.1235069E+00
         21   -1    0    0  502  501  0.00000000000E+00  0.00000000000E+00  0.13151794918E+02  0.13151794918E+02  0.00000000000E+00 0. -1.
         21   -1    0    0  501  502 -0.00000000000E+00 -0.00000000000E+00 -0.29701269099E+03  0.29701269099E+03  0.00000000000E+00 0. -1.
         25    1    1    2    0    0  0.00000000000E+00  0.00000000000E+00 -0.28386089608E+03  0.31016448591E+03  0.12500000000E+03 0.  0.
<mgrwt>
<rscale>  0 0.12500000E+03</rscale>
<asrwt>0</asrwt>
<pdfrwt beam="1">  1       21 0.20233533E-02 0.12500000E+03</pdfrwt>
<pdfrwt beam="2">  1       21 0.45694255E-01 0.12500000E+03</pdfrwt>
<totfact> 0.54621905E+06</totfact>
</mgrwt>
</event>
<event>
 3    1  0.1595726E-001  0.1250000E+03  0.7546771E-02  0.1235069E+00
         21   -1    0    0  502  501  0.00000000000E+00  0.00000000000E+00  0.71353963698E+01  0.71353963698E+01  0.00000000000E+00 0. -1.
         21   -1    0    0  501  502 -0.00000000000E+00 -0.00000000000E+00 -0.54744681270E+03  0.54744681270E+03  0.00000000000E+00 0. -1.
         25    1    1    2    0    0  0.00000000000E+00  0.00000000000E+00 -0.54031141633E+03  0.55458220907E+03  0.12500000000E+03 0.  0.
<mgrwt>
<rscale>  0 0.12500000E+03</rscale>
<asrwt>0</asrwt>
<pdfrwt beam="1">  1       21 0.10977529E-02 0.12500000E+03</pdfrwt>
<pdfrwt beam="2">  1       21 0.84222617E-01 0.12500000E+03</pdfrwt>
<totfact> 0.39230591E+06</totfact>
</mgrwt>
</event>
<event>
 3    1  0.1595726E-001  0.1250000E+03  0.7546771E-02  0.1235069E+00
         21   -1    0    0  502  501  0.00000000000E+00  0.00000000000E+00  0.28166490855E+02  0.28166490855E+02  0.00000000000E+00 0.  1.
         21   -1    0    0  501  502 -0.00000000000E+00 -0.00000000000E+00 -0.13868429760E+03  0.13868429760E+03  0.00000000000E+00 0.  1.
         25    1    1    2    0    0  0.00000000000E+00  0.00000000000E+00 -0.11051780674E+03  0.16685078845E+03  0.12500000000E+03 0.  0.
<mgrwt>
<rscale>  0 0.12500000E+03</rscale>
<asrwt>0</asrwt>
<pdfrwt beam="1">  1       21 0.43333063E-02 0.12500000E+03</pdfrwt>
<pdfrwt beam="2">  1       21 0.21336046E-01 0.12500000E+03</pdfrwt>
<totfact> 0.68691942E+06</totfact>
</mgrwt>
</event>
<event>
 3    1  0.1595726E-001  0.1250000E+03  0.7546771E-02  0.1235069E+00
         21   -1    0    0  502  501  0.00000000000E+00  0.00000000000E+00  0.21663445525E+02  0.21663445525E+02  0.00000000000E+00 0. -1.
         21   -1    0    0  501  502 -0.00000000000E+00 -0.00000000000E+00 -0.18031526866E+03  0.18031526866E+03  0.00000000000E+00 0. -1.
         25    1    1    2    0    0  0.00000000000E+00  0.00000000000E+00 -0.15865182314E+03  0.20197871419E+03  0.12500000000E+03 0.  0.
<mgrwt>
<rscale>  0 0.12500000E+03</rscale>
<asrwt>0</asrwt>
<pdfrwt beam="1">  1       21 0.33328377E-02 0.12500000E+03</pdfrwt>
<pdfrwt beam="2">  1       21 0.27740812E-01 0.12500000E+03</pdfrwt>
<totfact> 0.64713473E+06</totfact>
</mgrwt>
</event>
<event>
 3    1  0.1595726E-001  0.1250000E+03  0.7546771E-02  0.1235069E+00
         21   -1    0    0  502  501  0.00000000000E+00  0.00000000000E+00  0.43507584114E+01  0.43507584114E+01  0.00000000000E+00 0.  1.
         21   -1    0    0  501  502 -0.00000000000E+00 -0.00000000000E+00 -0.89783197104E+03  0.89783197104E+03  0.00000000000E+00 0.  1.
         25    1    1    2    0    0  0.00000000000E+00  0.00000000000E+00 -0.89348121263E+03  0.90218272945E+03  0.12500000000E+03 0.  0.
<mgrwt>
<rscale>  0 0.12500000E+03</rscale>
<asrwt>0</asrwt>
<pdfrwt beam="1">  1       21 0.66934738E-03 0.12500000E+03</pdfrwt>
<pdfrwt beam="2">  1       21 0.13812801E+00 0.12500000E+03</pdfrwt>
<totfact> 0.26236447E+06</totfact>
</mgrwt>
</event>
<event>
 3    1  0.1595726E-001  0.1250000E+03  0.7546771E-02  0.1235069E+00
         21   -1    0    0  502  501  0.00000000000E+00  0.00000000000E+00  0.39748997662E+03  0.39748997662E+03  0.00000000000E+00 0. -1.
         21   -1    0    0  501  502 -0.00000000000E+00 -0.00000000000E+00 -0.98272918307E+01  0.98272918307E+01  0.00000000000E+00 0. -1.
         25    1    1    2    0    0  0.00000000000E+00  0.00000000000E+00  0.38766268479E+03  0.40731726845E+03  0.12500000000E+03 0.  0.
<mgrwt>
<rscale>  0 0.12500000E+03</rscale>
<asrwt>0</asrwt>
<pdfrwt beam="1">  1       21 0.61152292E-01 0.12500000E+03</pdfrwt>
<pdfrwt beam="2">  1       21 0.15118914E-02 0.12500000E+03</pdfrwt>
<totfact> 0.47559767E+06</totfact>
</mgrwt>
</event>
<event>
 3    1  0.1595726E-001  0.1250000E+03  0.7546771E-02  0.1235069E+00
         21   -1    0    0  502  501  0.00000000000E+00  0.00000000000E+00  0.52975228850E+02  0.52975228850E+02  0.00000000000E+00 0.  1.
         21   -1    0    0  501  502 -0.00000000000E+00 -0.00000000000E+00 -0.73737293539E+02  0.73737293539E+02  0.00000000000E+00 0.  1.
         25    1    1    2    0    0  0.00000000000E+00  0.00000000000E+00 -0.20762064689E+02  0.12671252239E+03  0.12500000000E+03 0.  0.
<mgrwt>
<rscale>  0 0.12500000E+03</rscale>
<asrwt>0</asrwt>
<pdfrwt beam="1">  1       21 0.81500352E-02 0.12500000E+03</pdfrwt>
<pdfrwt beam="2">  1       21 0.11344199E-01 0.12500000E+03</pdfrwt>
<totfact> 0.73808325E+06</totfact>
</mgrwt>
</event>
<event>
 3    1  0.1595726E-001  0.1250000E+03  0.7546771E-02  0.1235069E+00
         21   -1    0    0  502  501  0.00000000000E+00  0.00000000000E+00  0.24427788771E+01  0.24427788771E+01  0.00000000000E+00 0.  1.
         21   -1    0    0  501  502 -0.00000000000E+00 -0.00000000000E+00 -0.15991009406E+04  0.15991009406E+04  0.00000000000E+00 0.  1.
         25    1    1    2    0    0  0.00000000000E+00  0.00000000000E+00 -0.15966581617E+04  0.16015437194E+04  0.12500000000E+03 0.  0.
<mgrwt>
<rscale>  0 0.12500000E+03</rscale>
<asrwt>0</asrwt>
<pdfrwt beam="1">  1       21 0.37581133E-03 0.12500000E+03</pdfrwt>
<pdfrwt beam="2">  1       21 0.24601606E+00 0.12500000E+03</pdfrwt>
<totfact> 0.12552740E+06</totfact>
</mgrwt>
</event>
<event>
 3    1  0.1595726E-001  0.1250000E+03  0.7546771E-02  0.1235069E+00
         21   -1    0    0  502  501  0.00000000000E+00  0.00000000000E+00  0.28823408344E+03  0.28823408344E+03  0.00000000000E+00 0.  1.
         21   -1    0    0  501  502 -0.00000000000E+00 -0.00000000000E+00 -0.13552352843E+02  0.13552352843E+02  0.00000000000E+00 0.  1.
         25    1    1    2    0    0  0.00000000000E+00  0.00000000000E+00  0.27468173060E+03  0.30178643628E+03  0.12500000000E+03 0.  0.
<mgrwt>
<rscale>  0 0.12500000E+03</rscale>
<asrwt>0</asrwt>
<pdfrwt beam="1">  1       21 0.44343700E-01 0.12500000E+03</pdfrwt>
<pdfrwt beam="2">  1       21 0.20849776E-02 0.12500000E+03</pdfrwt>
<totfact> 0.55308042E+06</totfact>
</mgrwt>
</event>
<event>
 3    1  0.1595726E-001  0.1250000E+03  0.7546771E-02  0.1235069E+00
         21   -1    0    0  502  501  0.00000000000E+00  0.00000000000E+00  0.52876546622E+02  0.52876546622E+02  0.00000000000E+00 0. -1.
         21   -1    0    0  501  502 -0.00000000000E+00 -0.00000000000E+00 -0.73874907678E+02  0.73874907678E+02  0.00000000000E+00 0. -1.
         25    1    1    2    0    0  0.00000000000E+00  0.00000000000E+00 -0.20998361056E+02  0.12675145430E+03  0.12500000000E+03 0.  0.
<mgrwt>
<rscale>  0 0.12500000E+03</rscale>
<asrwt>0</asrwt>
<pdfrwt beam="1">  1       21 0.81348533E-02 0.12500000E+03</pdfrwt>
<pdfrwt beam="2">  1       21 0.11365370E-01 0.12500000E+03</pdfrwt>
<totfact> 0.73803011E+06</totfact>
</mgrwt>
</event>
<event>
 3    1  0.1595726E-001  0.1250000E+03  0.7546771E-02  0.1235069E+00
         21   -1    0    0  502  501  0.00000000000E+00  0.00000000000E+00  0.46601676262E+03  0.46601676262E+03  0.00000000000E+00 0.  1.
         21   -1    0    0  501  502 -0.00000000000E+00 -0.00000000000E+00 -0.83822092108E+01  0.83822092108E+01  0.00000000000E+00 0.  1.
         25    1    1    2    0    0  0.00000000000E+00  0.00000000000E+00  0.45763455340E+03  0.47439897183E+03  0.12500000000E+03 0.  0.
<mgrwt>
<rscale>  0 0.12500000E+03</rscale>
<asrwt>0</asrwt>
<pdfrwt beam="1">  1       21 0.71694866E-01 0.12500000E+03</pdfrwt>
<pdfrwt beam="2">  1       21 0.12895710E-02 0.12500000E+03</pdfrwt>
<totfact> 0.43467399E+06</totfact>
</mgrwt>
</event>
<event>
 3    1  0.1595726E-001  0.1250000E+03  0.7546771E-02  0.1235069E+00
         21   -1    0    0  502  501  0.00000000000E+00  0.00000000000E+00  0.10057496405E+02  0.10057496405E+02  0.00000000000E+00 0.  1.
         21   -1    0    0  501  502 -0.00000000000E+00 -0.00000000000E+00 -0.38839188629E+03  0.38839188629E+03  0.00000000000E+00 0.  1.
         25    1    1    2    0    0  0.00000000000E+00  0.00000000000E+00 -0.37833438988E+03  0.39844938269E+03  0.12500000000E+03 0.  0.
<mgrwt>
<rscale>  0 0.12500000E+03</rscale>
<asrwt>0</asrwt>
<pdfrwt beam="1">  1       21 0.15473070E-02 0.12500000E+03</pdfrwt>
<pdfrwt beam="2">  1       21 0.59752602E-01 0.12500000E+03</pdfrwt>
<totfact> 0.48144370E+06</totfact>
</mgrwt>
</event>
<event>
 3    1  0.1595726E-001  0.1250000E+03  0.7546771E-02  0.1235069E+00
         21   -1    0    0  502  501  0.00000000000E+00  0.00000000000E+00  0.13626180479E+03  0.13626180479E+03  0.00000000000E+00 0.  1.
         21   -1    0    0  501  502 -0.00000000000E+00 -0.00000000000E+00 -0.28667241022E+02  0.28667241022E+02  0.00000000000E+00 0.  1.
         25    1    1    2    0    0  0.00000000000E+00  0.00000000000E+00  0.10759456377E+03  0.16492904581E+03  0.12500000000E+03 0.  0.
<mgrwt>
<rscale>  0 0.12500000E+03</rscale>
<asrwt>0</asrwt>
<pdfrwt beam="1">  1       21 0.20963354E-01 0.12500000E+03</pdfrwt>
<pdfrwt beam="2">  1       21 0.44103449E-02 0.12500000E+03</pdfrwt>
<totfact> 0.68922180E+06</totfact>
</mgrwt>
</event>
<event>
 3    1  0.1595726E-001  0.1250000E+03  0.7546771E-02  0.1235069E+00
         21   -1    0    0  502  501  0.00000000000E+00  0.00000000000E+00  0.42637518929E+03  0.42637518929E+03  0.00000000000E+00 0. -1.
         21   -1    0    0  501  502 -0.00000000000E+00 -0.00000000000E+00 -0.91615321392E+01  0.91615321392E+01  0.00000000000E+00 0. -1.
         25    1    1    2    0    0  0.00000000000E+00  0.00000000000E+00  0.41721365715E+03  0.43553672143E+03  0.12500000000E+03 0.  0.
<mgrwt>
<rscale>  0 0.12500000E+03</rscale>
<asrwt>0</asrwt>
<pdfrwt beam="1">  1       21 0.65596168E-01 0.12500000E+03</pdfrwt>
<pdfrwt beam="2">  1       21 0.14094668E-02 0.12500000E+03</pdfrwt>
<totfact> 0.45770230E+06</totfact>
</mgrwt>
</event>
<event>
 3    1  0.1595726E-001  0.1250000E+03  0.7546771E-02  0.1235069E+00
         21   -1    0    0  502  501  0.00000000000E+00  0.00000000000E+00  0.22740427000E+01  0.22740427000E+01  0.00000000000E+00 0.  1.
         21   -1    0    0  501  502 -0.00000000000E+00 -0.00000000000E+00 -0.17177557836E+04  0.17177557836E+04  0.00000000000E+00 0.  1.
         25    1    1    2    0    0  0.00000000000E+00  0.00000000000E+00 -0.17154817409E+04  0.17200298263E+04  0.12500000000E+03 0.  0.
<mgrwt>
<rscale>  0 0.12500000E+03</rscale>
<asrwt>0</asrwt>
<pdfrwt beam="1">  1       21 0.34985170E-03 0.12500000E+03</pdfrwt>
<pdfrwt beam="2">  1       21 0.26427089E+00 0.12500000E+03</pdfrwt>
<totfact> 0.11021557E+06</totfact>
</mgrwt>
</event>
<event>
 3    1  0.1595726E-001  0.1250000E+03  0.7546771E-02  0.1235069E+00
         21   -1    0    0  502  501  0.00000000000E+00  0.00000000000E+00  0.98754233279E+02  0.98754233279E+02  0.00000000000E+00 0. -1.
         21   -1    0    0  501  502 -0.00000000000E+00 -0.00000000000E+00 -0.39555266345E+02  0.39555266345E+02  0.00000000000E+00 0. -1.
         25    1    1    2    0    0  0.00000000000E+00  0.00000000000E+00  0.59198966934E+02  0.13830949962E+03  0.12500000000E+03 0.  0.
<mgrwt>
<rscale>  0 0.12500000E+03</rscale>
<asrwt>0</asrwt>
<pdfrwt beam="1">  1       21 0.15192959E-01 0.12500000E+03</pdfrwt>
<pdfrwt beam="2">  1       21 0.60854256E-02 0.12500000E+03</pdfrwt>
<totfact> 0.72260775E+06</totfact>
</mgrwt>
</event>
<event>
 3    1  0.1595726E-001  0.1250000E+03  0.7546771E-02  0.1235069E+00
         21   -1    0    0  502  501  0.00000000000E+00  0.00000000000E+00  0.36236967109E+03  0.36236967109E+03  0.00000000000E+00 0.  1.
         21   -1    0    0  501  502 -0.00000000000E+00 -0.00000000000E+00 -0.10779737687E+02  0.10779737687E+02  0.00000000000E+00 0.  1.
         25    1    1    2    0    0  0.00000000000E+00  0.00000000000E+00  0.35158993340E+03  0.37314940877E+03  0.12500000000E+03 0.  0.
<mgrwt>
<rscale>  0 0.12500000E+03</rscale>
<asrwt>0</asrwt>
<pdfrwt beam="1">  1       21 0.55749171E-01 0.12500000E+03</pdfrwt>
<pdfrwt beam="2">  1       21 0.16584215E-02 0.12500000E+03</pdfrwt>
<totfact> 0.49872922E+06</totfact>
</mgrwt>
</event>
<event>
 3    1  0.1595726E-001  0.1250000E+03  0.7546771E-02  0.1235069E+00
         21   -1    0    0  502  501  0.00000000000E+00  0.00000000000E+00  0.76714667389E+01  0.76714667389E+01  0.00000000000E+00 0. -1.
         21   -1    0    0  501  502 -0.00000000000E+00 -0.00000000000E+00 -0.50919206625E+03  0.50919206625E+03  0.00000000000E+00 0. -1.
         25    1    1    2    0    0  0.00000000000E+00  0.00000000000E+00 -0.50152059952E+03  0.51686353299E+03  0.12500000000E+03 0.  0.
<mgrwt>
<rscale>  0 0.12500000E+03</rscale>
<asrwt>0</asrwt>
<pdfrwt beam="1">  1       21 0.11802258E-02 0.12500000E+03</pdfrwt>
<pdfrwt beam="2">  1       21 0.78337233E-01 0.12500000E+03</pdfrwt>
<totfact> 0.41144048E+06</totfact>
</mgrwt>
</event>
<event>
 3    1  0.1595726E-001  0.1250000E+03  0.7546771E-02  0.1235069E+00
         21   -1    0    0  502  501  0.00000000000E+00  0.00000000000E+00  0.11595038413E+03  0.11595038413E+03  0.00000000000E+00 0.  1.
         21   -1    0    0  501  502 -0.00000000000E+00 -0.00000000000E+00 -0.33688978516E+02  0.33688978516E+02  0.00000000000E+00 0.  1.
         25    1    1    2    0    0  0.00000000000E+00  0.00000000000E+00  0.82261405616E+02  0.14963936265E+03  0.12500000000E+03 0.  0.
<mgrwt>
<rscale>  0 0.12500000E+03</rscale>
<asrwt>0</asrwt>
<pdfrwt beam="1">  1       21 0.17838520E-01 0.12500000E+03</pdfrwt>
<pdfrwt beam="2">  1       21 0.51829198E-02 0.12500000E+03</pdfrwt>
<totfact> 0.70804533E+06</totfact>
</mgrwt>
</event>
<event>
 3    1  0.1595726E-001  0.1250000E+03  0.7546771E-02  0.1235069E+00
         21   -1    0    0  502  501  0.00000000000E+00  0.00000000000E+00  0.68582412009E+01  0.68582412009E+01  0.00000000000E+00 0.  1.
         21   -1    0    0  501  502 -0.00000000000E+00 -0.00000000000E+00 -0.56957022735E+03  0.56957022735E+03  0.00000000000E+00 0.  1.
         25    1    1    2    0    0  0.00000000000E+00  0.00000000000E+00 -0.56271198615E+03  0.57642846855E+03  0.12500000000E+03 0.  0.
<mgrwt>
<rscale>  0 0.12500000E+03</rscale>
<asrwt>0</asrwt>
<pdfrwt beam="1">  1       21 0.10551137E-02 0.12500000E+03</pdfrwt>
<pdfrwt beam="2">  1       21 0.87626216E-01 0.12500000E+03</pdfrwt>
<totfact> 0.38180783E+06</totfact>
</mgrwt>
</event>
<event>
 3    1  0.1595726E-001  0.1250000E+03  0.7546771E-02  0.1235069E+00
         21   -1    0    0  502  501  0.00000000000E+00  0.00000000000E+00  0.54176760464E+01  0.54176760464E+01  0.00000000000E+00 0.  1.
         21   -1    0    0  501  502 -0.00000000000E+00 -0.00000000000E+00 -0.72101948632E+03  0.72101948632E+03  0.00000000000E+00 0.  1.
         25    1    1    2    0    0  0.00000000000E+00  0.00000000000E+00 -0.71560181027E+03  0.72643716237E+03  0.12500000000E+03 0.  0.
<mgrwt>
<rscale>  0 0.12500000E+03</rscale>
<asrwt>0</asrwt>
<pdfrwt beam="1">  1       21 0.83348857E-03 0.12500000E+03</pdfrwt>
<pdfrwt beam="2">  1       21 0.11092608E+00 0.12500000E+03</pdfrwt>
<totfact> 0.31915476E+06</totfact>
</mgrwt>
</event>
<event>
 3    1  0.1595726E-001  0.1250000E+03  0.7546771E-02  0.1235069E+00
         21   -1    0    0  502  501  0.00000000000E+00  0.00000000000E+00  0.14123600733E+04  0.14123600733E+04  0.00000000000E+00 0.  1.
         21   -1    0    0  501  502 -0.00000000000E+00 -0.00000000000E+00 -0.27657607106E+01  0.27657607106E+01  0.00000000000E+00 0.  1.
         25    1    1    2    0    0  0.00000000000E+00  0.00000000000E+00  0.14095943126E+04  0.14151258340E+04  0.12500000000E+03 0.  0.
<mgrwt>
<rscale>  0 0.12500000E+03</rscale>
<asrwt>0</asrwt>
<pdfrwt beam="1">  1       21 0.21728559E+00 0.12500000E+03</pdfrwt>
<pdfrwt beam="2">  1       21 0.42550278E-03 0.12500000E+03</pdfrwt>
<totfact> 0.15300486E+06</totfact>
</mgrwt>
</event>
<event>
 3    1  0.1595726E-001  0.1250000E+03  0.7546771E-02  0.1235069E+00
         21   -1    0    0  502  501  0.00000000000E+00  0.00000000000E+00  0.10919094981E+03  0.10919094981E+03  0.00000000000E+00 0.  1.
         21   -1    0    0  501  502 -0.00000000000E+00 -0.00000000000E+00 -0.35774485036E+02  0.35774485036E+02  0.00000000000E+00 0.  1.
         25    1    1    2    0    0  0.00000000000E+00  0.00000000000E+00  0.73416464774E+02  0.14496543485E+03  0.12500000000E+03 0.  0.
<mgrwt>
<rscale>  0 0.12500000E+03</rscale>
<asrwt>0</asrwt>
<pdfrwt beam="1">  1       21 0.16798608E-01 0.12500000E+03</pdfrwt>
<pdfrwt beam="2">  1       21 0.55037670E-02 0.12500000E+03</pdfrwt>
<totfact> 0.71397522E+06</totfact>
</mgrwt>
</event>
<event>
 3    1  0.1595726E-001  0.1250000E+03  0.7546771E-02  0.1235069E+00
         21   -1    0    0  502  501  0.00000000000E+00  0.00000000000E+00  0.12127343567E+03  0.12127343567E+03  0.00000000000E+00 0.  1.
         21   -1    0    0  501  502 -0.00000000000E+00 -0.00000000000E+00 -0.32210269119E+02  0.32210269119E+02  0.00000000000E+00 0.  1.
         25    1    1    2    0    0  0.00000000000E+00  0.00000000000E+00  0.89063166554E+02  0.15348370479E+03  0.12500000000E+03 0.  0.
<mgrwt>
<rscale>  0 0.12500000E+03</rscale>
<asrwt>0</asrwt>
<pdfrwt beam="1">  1       21 0.18657451E-01 0.12500000E+03</pdfrwt>
<pdfrwt beam="2">  1       21 0.49554261E-02 0.12500000E+03</pdfrwt>
<totfact> 0.70324278E+06</totfact>
</mgrwt>
</event>
<event>
 3    1  0.1595726E-001  0.1250000E+03  0.7546771E-02  0.1235069E+00
         21   -1    0    0  502  501  0.00000000000E+00  0.00000000000E+00  0.28543582491E+03  0.28543582491E+03  0.00000000000E+00 0.  1.
         21   -1    0    0  501  502 -0.00000000000E+00 -0.00000000000E+00 -0.13685212784E+02  0.13685212784E+02  0.00000000000E+00 0.  1.
         25    1    1    2    0    0  0.00000000000E+00  0.00000000000E+00  0.27175061213E+03  0.29912103770E+03  0.12500000000E+03 0.  0.
<mgrwt>
<rscale>  0 0.12500000E+03</rscale>
<asrwt>0</asrwt>
<pdfrwt beam="1">  1       21 0.43913200E-01 0.12500000E+03</pdfrwt>
<pdfrwt beam="2">  1       21 0.21054176E-02 0.12500000E+03</pdfrwt>
<totfact> 0.55529300E+06</totfact>
</mgrwt>
</event>
<event>
 3    1  0.1595726E-001  0.1250000E+03  0.7546771E-02  0.1235069E+00
         21   -1    0    0  502  501  0.00000000000E+00  0.00000000000E+00  0.23524211021E+03  0.23524211021E+03  0.00000000000E+00 0.  1.
         21   -1    0    0  501  502 -0.00000000000E+00 -0.00000000000E+00 -0.16605232781E+02  0.16605232781E+02  0.00000000000E+00 0.  1.
         25    1    1    2    0    0  0.00000000000E+00  0.00000000000E+00  0.21863687743E+03  0.25184734300E+03  0.12500000000E+03 0.  0.
<mgrwt>
<rscale>  0 0.12500000E+03</rscale>
<asrwt>0</asrwt>
<pdfrwt beam="1">  1       21 0.36191092E-01 0.12500000E+03</pdfrwt>
<pdfrwt beam="2">  1       21 0.25546514E-02 0.12500000E+03</pdfrwt>
<totfact> 0.59704700E+06</totfact>
</mgrwt>
</event>
<event>
 3    1  0.1595726E-001  0.1250000E+03  0.7546771E-02  0.1235069E+00
         21   -1    0    0  502  501  0.00000000000E+00  0.00000000000E+00  0.96531980980E+02  0.96531980980E+02  0.00000000000E+00 0.  1.
         21   -1    0    0  501  502 -0.00000000000E+00 -0.00000000000E+00 -0.40465863855E+02  0.40465863855E+02  0.00000000000E+00 0.  1.
         25    1    1    2    0    0  0.00000000000E+00  0.00000000000E+00  0.56066117125E+02  0.13699784483E+03  0.12500000000E+03 0.  0.
<mgrwt>
<rscale>  0 0.12500000E+03</rscale>
<asrwt>0</asrwt>
<pdfrwt beam="1">  1       21 0.14851074E-01 0.12500000E+03</pdfrwt>
<pdfrwt beam="2">  1       21 0.62255175E-02 0.12500000E+03</pdfrwt>
<totfact> 0.72433010E+06</totfact>
</mgrwt>
</event>
<event>
 3    1  0.1595726E-001  0.1250000E+03  0.7546771E-02  0.1235069E+00
         21   -1    0    0  502  501  0.00000000000E+00  0.00000000000E+00  0.62519054160E+01  0.62519054160E+01  0.00000000000E+00 0. -1.
         21   -1    0    0  501  502 -0.00000000000E+00 -0.00000000000E+00 -0.62480951647E+03  0.62480951647E+03  0.00000000000E+00 0. -1.
         25    1    1    2    0    0  0.00000000000E+00  0.00000000000E+00 -0.61855761106E+03  0.63106142189E+03  0.12500000000E+03 0.  0.
<mgrwt>
<rscale>  0 0.12500000E+03</rscale>
<asrwt>0</asrwt>
<pdfrwt beam="1">  1       21 0.96183181E-03 0.12500000E+03</pdfrwt>
<pdfrwt beam="2">  1       21 0.96124521E-01 0.12500000E+03</pdfrwt>
<totfact> 0.35724560E+06</totfact>
</mgrwt>
</event>
<event>
 3    1  0.1595726E-001  0.1250000E+03  0.7546771E-02  0.1235069E+00
         21   -1    0    0  502  501  0.00000000000E+00  0.00000000000E+00  0.41054720524E+01  0.41054720524E+01  0.00000000000E+00 0. -1.
         21   -1    0    0  501  502 -0.00000000000E+00 -0.00000000000E+00 -0.95147402055E+03  0.95147402055E+03  0.00000000000E+00 0. -1.
         25    1    1    2    0    0  0.00000000000E+00  0.00000000000E+00 -0.94736854850E+03  0.95557949260E+03  0.12500000000E+03 0.  0.
<mgrwt>
<rscale>  0 0.12500000E+03</rscale>
<asrwt>0</asrwt>
<pdfrwt beam="1">  1       21 0.63160968E-03 0.12500000E+03</pdfrwt>
<pdfrwt beam="2">  1       21 0.14638094E+00 0.12500000E+03</pdfrwt>
<totfact> 0.24762556E+06</totfact>
</mgrwt>
</event>
<event>
 3    1  0.1595726E-001  0.1250000E+03  0.7546771E-02  0.1235069E+00
         21   -1    0    0  502  501  0.00000000000E+00  0.00000000000E+00  0.28525433518E+03  0.28525433518E+03  0.00000000000E+00 0. -1.
         21   -1    0    0  501  502 -0.00000000000E+00 -0.00000000000E+00 -0.13693919840E+02  0.13693919840E+02  0.00000000000E+00 0. -1.
         25    1    1    2    0    0  0.00000000000E+00  0.00000000000E+00  0.27156041534E+03  0.29894825502E+03  0.12500000000E+03 0.  0.
<mgrwt>
<rscale>  0 0.12500000E+03</rscale>
<asrwt>0</asrwt>
<pdfrwt beam="1">  1       21 0.43885278E-01 0.12500000E+03</pdfrwt>
<pdfrwt beam="2">  1       21 0.21067571E-02 0.12500000E+03</pdfrwt>
<totfact> 0.55543693E+06</totfact>
</mgrwt>
</event>
<event>
 3    1  0.1595726E-001  0.1250000E+03  0.7546771E-02  0.1235069E+00
         21   -1    0    0  502  501  0.00000000000E+00  0.00000000000E+00  0.20674754477E+02  0.20674754477E+02  0.00000000000E+00 0. -1.
         21   -1    0    0  501  502 -0.00000000000E+00 -0.00000000000E+00 -0.18893815665E+03  0.18893815665E+03  0.00000000000E+00 0. -1.
         25    1    1    2    0    0  0.00000000000E+00  0.00000000000E+00 -0.16826340217E+03  0.20961291112E+03  0.12500000000E+03 0.  0.
<mgrwt>
<rscale>  0 0.12500000E+03</rscale>
<asrwt>0</asrwt>
<pdfrwt beam="1">  1       21 0.31807316E-02 0.12500000E+03</pdfrwt>
<pdfrwt beam="2">  1       21 0.29067407E-01 0.12500000E+03</pdfrwt>
<totfact> 0.63900285E+06</totfact>
</mgrwt>
</event>
<event>
 3    1  0.1595726E-001  0.1250000E+03  0.7546771E-02  0.1235069E+00
         21   -1    0    0  502  501  0.00000000000E+00  0.00000000000E+00  0.50590340518E+02  0.50590340518E+02  0.00000000000E+00 0.  1.
         21   -1    0    0  501  502 -0.00000000000E+00 -0.00000000000E+00 -0.77213356543E+02  0.77213356543E+02  0.00000000000E+00 0.  1.
         25    1    1    2    0    0  0.00000000000E+00  0.00000000000E+00 -0.26623016025E+02  0.12780369706E+03  0.12500000000E+03 0.  0.
<mgrwt>
<rscale>  0 0.12500000E+03</rscale>
<asrwt>0</asrwt>
<pdfrwt beam="1">  1       21 0.77831293E-02 0.12500000E+03</pdfrwt>
<pdfrwt beam="2">  1       21 0.11878978E-01 0.12500000E+03</pdfrwt>
<totfact> 0.73660094E+06</totfact>
</mgrwt>
</event>
<event>
 3    1  0.1595726E-001  0.1250000E+03  0.7546771E-02  0.1235069E+00
         21   -1    0    0  502  501  0.00000000000E+00  0.00000000000E+00  0.83320386096E+01  0.83320386096E+01  0.00000000000E+00 0.  1.
         21   -1    0    0  501  502 -0.00000000000E+00 -0.00000000000E+00 -0.46882283953E+03  0.46882283953E+03  0.00000000000E+00 0.  1.
         25    1    1    2    0    0  0.00000000000E+00  0.00000000000E+00 -0.46049080092E+03  0.47715487814E+03  0.12500000000E+03 0.  0.
<mgrwt>
<rscale>  0 0.12500000E+03</rscale>
<asrwt>0</asrwt>
<pdfrwt beam="1">  1       21 0.12818521E-02 0.12500000E+03</pdfrwt>
<pdfrwt beam="2">  1       21 0.72126593E-01 0.12500000E+03</pdfrwt>
<totfact> 0.43310741E+06</totfact>
</mgrwt>
</event>
<event>
 3    1  0.1595726E-001  0.1250000E+03  0.7546771E-02  0.1235069E+00
         21   -1    0    0  502  501  0.00000000000E+00  0.00000000000E+00  0.13113280939E+03  0.13113280939E+03  0.00000000000E+00 0. -1.
         21   -1    0    0  501  502 -0.00000000000E+00 -0.00000000000E+00 -0.29788502346E+02  0.29788502346E+02  0.00000000000E+00 0. -1.
         25    1    1    2    0    0  0.00000000000E+00  0.00000000000E+00  0.10134430704E+03  0.16092131173E+03  0.12500000000E+03 0.  0.
<mgrwt>
<rscale>  0 0.12500000E+03</rscale>
<asrwt>0</asrwt>
<pdfrwt beam="1">  1       21 0.20174278E-01 0.12500000E+03</pdfrwt>
<pdfrwt beam="2">  1       21 0.45828466E-02 0.12500000E+03</pdfrwt>
<totfact> 0.69407097E+06</totfact>
</mgrwt>
</event>
<event>
 3    1  0.1595726E-001  0.1250000E+03  0.7546771E-02  0.1235069E+00
         21   -1    0    0  502  501  0.00000000000E+00  0.00000000000E+00  0.10938604989E+02  0.10938604989E+02  0.00000000000E+00 0.  1.
         21   -1    0    0  501  502 -0.00000000000E+00 -0.00000000000E+00 -0.35710677953E+03  0.35710677953E+03  0.00000000000E+00 0.  1.
         25    1    1    2    0    0  0.00000000000E+00  0.00000000000E+00 -0.34616817454E+03  0.36804538451E+03  0.12500000000E+03 0.  0.
<mgrwt>
<rscale>  0 0.12500000E+03</rscale>
<asrwt>0</asrwt>
<pdfrwt beam="1">  1       21 0.16828621E-02 0.12500000E+03</pdfrwt>
<pdfrwt beam="2">  1       21 0.54939510E-01 0.12500000E+03</pdfrwt>
<totfact> 0.50232718E+06</totfact>
</mgrwt>
</event>
<event>
 3    1  0.1595726E-001  0.1250000E+03  0.7546771E-02  0.1235069E+00
         21   -1    0    0  502  501  0.00000000000E+00  0.00000000000E+00  0.42569709261E+01  0.42569709261E+01  0.00000000000E+00 0. -1.
         21   -1    0    0  501  502 -0.00000000000E+00 -0.00000000000E+00 -0.91761256249E+03  0.91761256249E+03  0.00000000000E+00 0. -1.
         25    1    1    2    0    0  0.00000000000E+00  0.00000000000E+00 -0.91335559157E+03  0.92186953342E+03  0.12500000000E+03 0.  0.
<mgrwt>
<rscale>  0 0.12500000E+03</rscale>
<asrwt>0</asrwt>
<pdfrwt beam="1">  1       21 0.65491928E-03 0.12500000E+03</pdfrwt>
<pdfrwt beam="2">  1       21 0.14117102E+00 0.12500000E+03</pdfrwt>
<totfact> 0.25679995E+06</totfact>
</mgrwt>
</event>
<event>
 3    1  0.1595726E-001  0.1250000E+03  0.7546771E-02  0.1235069E+00
         21   -1    0    0  502  501  0.00000000000E+00  0.00000000000E+00  0.46707238355E+02  0.46707238355E+02  0.00000000000E+00 0.  1.
         21   -1    0    0  501  502 -0.00000000000E+00 -0.00000000000E+00 -0.83632647478E+02  0.83632647478E+02  0.00000000000E+00 0.  1.
         25    1    1    2    0    0  0.00000000000E+00  0.00000000000E+00 -0.36925409123E+02  0.13033988583E+03  0.12500000000E+03 0.  0.
<mgrwt>
<rscale>  0 0.12500000E+03</rscale>
<asrwt>0</asrwt>
<pdfrwt beam="1">  1       21 0.71857291E-02 0.12500000E+03</pdfrwt>
<pdfrwt beam="2">  1       21 0.12866561E-01 0.12500000E+03</pdfrwt>
<totfact> 0.73319524E+06</totfact>
</mgrwt>
</event>
<event>
 3    1  0.1595726E-001  0.1250000E+03  0.7546771E-02  0.1235069E+00
         21   -1    0    0  502  501  0.00000000000E+00  0.00000000000E+00  0.66378507505E+02  0.66378507505E+02  0.00000000000E+00 0. -1.
         21   -1    0    0  501  502 -0.00000000000E+00 -0.00000000000E+00 -0.58848114349E+02  0.58848114349E+02  0.00000000000E+00 0. -1.
         25    1    1    2    0    0  0.00000000000E+00  0.00000000000E+00  0.75303931564E+01  0.12522662185E+03  0.12500000000E+03 0.  0.
<mgrwt>
<rscale>  0 0.12500000E+03</rscale>
<asrwt>0</asrwt>
<pdfrwt beam="1">  1       21 0.10212078E-01 0.12500000E+03</pdfrwt>
<pdfrwt beam="2">  1       21 0.90535561E-02 0.12500000E+03</pdfrwt>
<totfact> 0.74012978E+06</totfact>
</mgrwt>
</event>
<event>
 3    1  0.1595726E-001  0.1250000E+03  0.7546771E-02  0.1235069E+00
         21   -1    0    0  502  501  0.00000000000E+00  0.00000000000E+00  0.19961781062E+03  0.19961781062E+03  0.00000000000E+00 0. -1.
         21   -1    0    0  501  502 -0.00000000000E+00 -0.00000000000E+00 -0.19568644641E+02  0.19568644641E+02  0.00000000000E+00 0. -1.
         25    1    1    2    0    0  0.00000000000E+00  0.00000000000E+00  0.18004916598E+03  0.21918645526E+03  0.12500000000E+03 0.  0.
<mgrwt>
<rscale>  0 0.12500000E+03</rscale>
<asrwt>0</asrwt>
<pdfrwt beam="1">  1       21 0.30710431E-01 0.12500000E+03</pdfrwt>
<pdfrwt beam="2">  1       21 0.30105608E-02 0.12500000E+03</pdfrwt>
<totfact> 0.62905788E+06</totfact>
</mgrwt>
</event>
<event>
 3    1  0.1595726E-001  0.1250000E+03  0.7546771E-02  0.1235069E+00
         21   -1    0    0  502  501  0.00000000000E+00  0.00000000000E+00  0.53821169777E+02  0.53821169777E+02  0.00000000000E+00 0. -1.
         21   -1    0    0  501  502 -0.00000000000E+00 -0.00000000000E+00 -0.72578318461E+02  0.72578318461E+02  0.00000000000E+00 0. -1.
         25    1    1    2    0    0  0.00000000000E+00  0.00000000000E+00 -0.18757148684E+02  0.12639948824E+03  0.12500000000E+03 0.  0.
<mgrwt>
<rscale>  0 0.12500000E+03</rscale>
<asrwt>0</asrwt>
<pdfrwt beam="1">  1       21 0.82801800E-02 0.12500000E+03</pdfrwt>
<pdfrwt beam="2">  1       21 0.11165895E-01 0.12500000E+03</pdfrwt>
<totfact> 0.73851137E+06</totfact>
</mgrwt>
</event>
<event>
 3    1  0.1595726E-001  0.1250000E+03  0.7546771E-02  0.1235069E+00
         21   -1    0    0  502  501  0.00000000000E+00  0.00000000000E+00  0.31708759522E+01  0.31708759522E+01  0.00000000000E+00 0. -1.
         21   -1    0    0  501  502 -0.00000000000E+00 -0.00000000000E+00 -0.12319151108E+04  0.12319151108E+04  0.00000000000E+00 0. -1.
         25    1    1    2    0    0  0.00000000000E+00  0.00000000000E+00 -0.12287442348E+04  0.12350859867E+04  0.12500000000E+03 0.  0.
<mgrwt>
<rscale>  0 0.12500000E+03</rscale>
<asrwt>0</asrwt>
<pdfrwt beam="1">  1       21 0.48782687E-03 0.12500000E+03</pdfrwt>
<pdfrwt beam="2">  1       21 0.18952548E+00 0.12500000E+03</pdfrwt>
<totfact> 0.18457911E+06</totfact>
</mgrwt>
</event>
<event>
 3    1  0.1595726E-001  0.1250000E+03  0.7546771E-02  0.1235069E+00
         21   -1    0    0  502  501  0.00000000000E+00  0.00000000000E+00  0.12786978666E+03  0.12786978666E+03  0.00000000000E+00 0. -1.
         21   -1    0    0  501  502 -0.00000000000E+00 -0.00000000000E+00 -0.30548655018E+02  0.30548655018E+02  0.00000000000E+00 0. -1.
         25    1    1    2    0    0  0.00000000000E+00  0.00000000000E+00  0.97321131644E+02  0.15841844168E+03  0.12500000000E+03 0.  0.
<mgrwt>
<rscale>  0 0.12500000E+03</rscale>
<asrwt>0</asrwt>
<pdfrwt beam="1">  1       21 0.19672275E-01 0.12500000E+03</pdfrwt>
<pdfrwt beam="2">  1       21 0.46997931E-02 0.12500000E+03</pdfrwt>
<totfact> 0.69713263E+06</totfact>
</mgrwt>
</event>
<event>
 3    1  0.1595726E-001  0.1250000E+03  0.7546771E-02  0.1235069E+00
         21   -1    0    0  502  501  0.00000000000E+00  0.00000000000E+00  0.11005607721E+04  0.11005607721E+04  0.00000000000E+00 0. -1.
         21   -1    0    0  501  502 -0.00000000000E+00 -0.00000000000E+00 -0.35493269421E+01  0.35493269421E+01  0.00000000000E+00 0. -1.
         25    1    1    2    0    0  0.00000000000E+00  0.00000000000E+00  0.10970114452E+04  0.11041100991E+04  0.12500000000E+03 0.  0.
<mgrwt>
<rscale>  0 0.12500000E+03</rscale>
<asrwt>0</asrwt>
<pdfrwt beam="1">  1       21 0.16931677E+00 0.12500000E+03</pdfrwt>
<pdfrwt beam="2">  1       21 0.54605118E-03 0.12500000E+03</pdfrwt>
<totfact> 0.21160269E+06</totfact>
</mgrwt>
</event>
<event>
 3    1  0.1595726E-001  0.1250000E+03  0.7546771E-02  0.1235069E+00
         21   -1    0    0  502  501  0.00000000000E+00  0.00000000000E+00  0.26739880602E+01  0.26739880602E+01  0.00000000000E+00 0. -1.
         21   -1    0    0  501  502 -0.00000000000E+00 -0.00000000000E+00 -0.14608330000E+04  0.14608330000E+04  0.00000000000E+00 0. -1.
         25    1    1    2    0    0  0.00000000000E+00  0.00000000000E+00 -0.14581590119E+04  0.14635069881E+04  0.12500000000E+03 0.  0.
<mgrwt>
<rscale>  0 0.12500000E+03</rscale>
<asrwt>0</asrwt>
<pdfrwt beam="1">  1       21 0.41138281E-03 0.12500000E+03</pdfrwt>
<pdfrwt beam="2">  1       21 0.22474352E+00 0.12500000E+03</pdfrwt>
<totfact> 0.14542665E+06</totfact>
</mgrwt>
</event>
<event>
 3    1  0.1595726E-001  0.1250000E+03  0.7546771E-02  0.1235069E+00
         21   -1    0    0  502  501  0.00000000000E+00  0.00000000000E+00  0.44279046575E+03  0.44279046575E+03  0.00000000000E+00 0.  1.
         21   -1    0    0  501  502 -0.00000000000E+00 -0.00000000000E+00 -0.88218927510E+01  0.88218927510E+01  0.00000000000E+00 0.  1.
         25    1    1    2    0    0  0.00000000000E+00  0.00000000000E+00  0.43396857300E+03  0.45161235850E+03  0.12500000000E+03 0.  0.
<mgrwt>
<rscale>  0 0.12500000E+03</rscale>
<asrwt>0</asrwt>
<pdfrwt beam="1">  1       21 0.68121593E-01 0.12500000E+03</pdfrwt>
<pdfrwt beam="2">  1       21 0.13572146E-02 0.12500000E+03</pdfrwt>
<totfact> 0.44795952E+06</totfact>
</mgrwt>
</event>
<event>
 3    1  0.1595726E-001  0.1250000E+03  0.7546771E-02  0.1235069E+00
         21   -1    0    0  502  501  0.00000000000E+00  0.00000000000E+00  0.32237329011E+02  0.32237329011E+02  0.00000000000E+00 0.  1.
         21   -1    0    0  501  502 -0.00000000000E+00 -0.00000000000E+00 -0.12117163921E+03  0.12117163921E+03  0.00000000000E+00 0.  1.
         25    1    1    2    0    0  0.00000000000E+00  0.00000000000E+00 -0.88934310201E+02  0.15340896822E+03  0.12500000000E+03 0.  0.
<mgrwt>
<rscale>  0 0.12500000E+03</rscale>
<asrwt>0</asrwt>
<pdfrwt beam="1">  1       21 0.49595892E-02 0.12500000E+03</pdfrwt>
<pdfrwt beam="2">  1       21 0.18641790E-01 0.12500000E+03</pdfrwt>
<totfact> 0.70333553E+06</totfact>
</mgrwt>
</event>
<event>
 3    1  0.1595726E-001  0.1250000E+03  0.7546771E-02  0.1235069E+00
         21   -1    0    0  502  501  0.00000000000E+00  0.00000000000E+00  0.56390226810E+02  0.56390226810E+02  0.00000000000E+00 0. -1.
         21   -1    0    0  501  502 -0.00000000000E+00 -0.00000000000E+00 -0.69271755426E+02  0.69271755426E+02  0.00000000000E+00 0. -1.
         25    1    1    2    0    0  0.00000000000E+00  0.00000000000E+00 -0.12881528616E+02  0.12566198224E+03  0.12500000000E+03 0.  0.
<mgrwt>
<rscale>  0 0.12500000E+03</rscale>
<asrwt>0</asrwt>
<pdfrwt beam="1">  1       21 0.86754195E-02 0.12500000E+03</pdfrwt>
<pdfrwt beam="2">  1       21 0.10657193E-01 0.12500000E+03</pdfrwt>
<totfact> 0.73952819E+06</totfact>
</mgrwt>
</event>
<event>
 3    1  0.1595726E-001  0.1250000E+03  0.7546771E-02  0.1235069E+00
         21   -1    0    0  502  501  0.00000000000E+00  0.00000000000E+00  0.67696730071E+02  0.67696730071E+02  0.00000000000E+00 0. -1.
         21   -1    0    0  501  502 -0.00000000000E+00 -0.00000000000E+00 -0.57702196190E+02  0.57702196190E+02  0.00000000000E+00 0. -1.
         25    1    1    2    0    0  0.00000000000E+00  0.00000000000E+00  0.99945338804E+01  0.12539892626E+03  0.12500000000E+03 0.  0.
<mgrwt>
<rscale>  0 0.12500000E+03</rscale>
<asrwt>0</asrwt>
<pdfrwt beam="1">  1       21 0.10414882E-01 0.12500000E+03</pdfrwt>
<pdfrwt beam="2">  1       21 0.88772610E-02 0.12500000E+03</pdfrwt>
<totfact> 0.73989563E+06</totfact>
</mgrwt>
</event>
<event>
 3    1  0.1595726E-001  0.1250000E+03  0.7546771E-02  0.1235069E+00
         21   -1    0    0  502  501  0.00000000000E+00  0.00000000000E+00  0.28313627858E+03  0.28313627858E+03  0.00000000000E+00 0. -1.
         21   -1    0    0  501  502 -0.00000000000E+00 -0.00000000000E+00 -0.13796359900E+02  0.13796359900E+02  0.00000000000E+00 0. -1.
         25    1    1    2    0    0  0.00000000000E+00  0.00000000000E+00  0.26933991868E+03  0.29693263848E+03  0.12500000000E+03 0.  0.
<mgrwt>
<rscale>  0 0.12500000E+03</rscale>
<asrwt>0</asrwt>
<pdfrwt beam="1">  1       21 0.43559423E-01 0.12500000E+03</pdfrwt>
<pdfrwt beam="2">  1       21 0.21225171E-02 0.12500000E+03</pdfrwt>
<totfact> 0.55712052E+06</totfact>
</mgrwt>
</event>
<event>
 3    1  0.1595726E-001  0.1250000E+03  0.7546771E-02  0.1235069E+00
         21   -1    0    0  502  501  0.00000000000E+00  0.00000000000E+00  0.56549831759E+02  0.56549831759E+02  0.00000000000E+00 0.  1.
         21   -1    0    0  501  502 -0.00000000000E+00 -0.00000000000E+00 -0.69076244411E+02  0.69076244411E+02  0.00000000000E+00 0.  1.
         25    1    1    2    0    0  0.00000000000E+00  0.00000000000E+00 -0.12526412651E+02  0.12562607617E+03  0.12500000000E+03 0.  0.
<mgrwt>
<rscale>  0 0.12500000E+03</rscale>
<asrwt>0</asrwt>
<pdfrwt beam="1">  1       21 0.86999741E-02 0.12500000E+03</pdfrwt>
<pdfrwt beam="2">  1       21 0.10627115E-01 0.12500000E+03</pdfrwt>
<totfact> 0.73957812E+06</totfact>
</mgrwt>
</event>
<event>
 3    1  0.1595726E-001  0.1250000E+03  0.7546771E-02  0.1235069E+00
         21   -1    0    0  502  501  0.00000000000E+00  0.00000000000E+00  0.39404679753E+01  0.39404679753E+01  0.00000000000E+00 0.  1.
         21   -1    0    0  501  502 -0.00000000000E+00 -0.00000000000E+00 -0.99131626611E+03  0.99131626611E+03  0.00000000000E+00 0.  1.
         25    1    1    2    0    0  0.00000000000E+00  0.00000000000E+00 -0.98737579814E+03  0.99525673409E+03  0.12500000000E+03 0.  0.
<mgrwt>
<rscale>  0 0.12500000E+03</rscale>
<asrwt>0</asrwt>
<pdfrwt beam="1">  1       21 0.60622517E-03 0.12500000E+03</pdfrwt>
<pdfrwt beam="2">  1       21 0.15251036E+00 0.12500000E+03</pdfrwt>
<totfact> 0.23737510E+06</totfact>
</mgrwt>
</event>
<event>
 3    1  0.1595726E-001  0.1250000E+03  0.7546771E-02  0.1235069E+00
         21   -1    0    0  502  501  0.00000000000E+00  0.00000000000E+00  0.35269309481E+02  0.35269309481E+02  0.00000000000E+00 0.  1.
         21   -1    0    0  501  502 -0.00000000000E+00 -0.00000000000E+00 -0.11075493276E+03  0.11075493276E+03  0.00000000000E+00 0.  1.
         25    1    1    2    0    0  0.00000000000E+00  0.00000000000E+00 -0.75485623278E+02  0.14602424224E+03  0.12500000000E+03 0.  0.
<mgrwt>
<rscale>  0 0.12500000E+03</rscale>
<asrwt>0</asrwt>
<pdfrwt beam="1">  1       21 0.54260478E-02 0.12500000E+03</pdfrwt>
<pdfrwt beam="2">  1       21 0.17039220E-01 0.12500000E+03</pdfrwt>
<totfact> 0.71262278E+06</totfact>
</mgrwt>
</event>
<event>
 3    1  0.1595726E-001  0.1250000E+03  0.7546771E-02  0.1235069E+00
         21   -1    0    0  502  501  0.00000000000E+00  0.00000000000E+00  0.12101449095E+03  0.12101449095E+03  0.00000000000E+00 0.  1.
         21   -1    0    0  501  502 -0.00000000000E+00 -0.00000000000E+00 -0.32279192098E+02  0.32279192098E+02  0.00000000000E+00 0.  1.
         25    1    1    2    0    0  0.00000000000E+00  0.00000000000E+00  0.88735298853E+02  0.15329368305E+03  0.12500000000E+03 0.  0.
<mgrwt>
<rscale>  0 0.12500000E+03</rscale>
<asrwt>0</asrwt>
<pdfrwt beam="1">  1       21 0.18617614E-01 0.12500000E+03</pdfrwt>
<pdfrwt beam="2">  1       21 0.49660296E-02 0.12500000E+03</pdfrwt>
<totfact> 0.70347865E+06</totfact>
</mgrwt>
</event>
<event>
 3    1  0.1595726E-001  0.1250000E+03  0.7546771E-02  0.1235069E+00
         21   -1    0    0  502  501  0.00000000000E+00  0.00000000000E+00  0.36438790953E+02  0.36438790953E+02  0.00000000000E+00 0.  1.
         21   -1    0    0  501  502 -0.00000000000E+00 -0.00000000000E+00 -0.10720031861E+03  0.10720031861E+03  0.00000000000E+00 0.  1.
         25    1    1    2    0    0  0.00000000000E+00  0.00000000000E+00 -0.70761527659E+02  0.14363910957E+03  0.12500000000E+03 0.  0.
<mgrwt>
<rscale>  0 0.12500000E+03</rscale>
<asrwt>0</asrwt>
<pdfrwt beam="1">  1       21 0.56059678E-02 0.12500000E+03</pdfrwt>
<pdfrwt beam="2">  1       21 0.16492357E-01 0.12500000E+03</pdfrwt>
<totfact> 0.71567717E+06</totfact>
</mgrwt>
</event>
<event>
 3    1  0.1595726E-001  0.1250000E+03  0.7546771E-02  0.1235069E+00
         21   -1    0    0  502  501  0.00000000000E+00  0.00000000000E+00  0.28328524164E+02  0.28328524164E+02  0.00000000000E+00 0.  1.
         21   -1    0    0  501  502 -0.00000000000E+00 -0.00000000000E+00 -0.13789105205E+03  0.13789105205E+03  0.00000000000E+00 0.  1.
         25    1    1    2    0    0  0.00000000000E+00  0.00000000000E+00 -0.10956252789E+03  0.16621957621E+03  0.12500000000E+03 0.  0.
<mgrwt>
<rscale>  0 0.12500000E+03</rscale>
<asrwt>0</asrwt>
<pdfrwt beam="1">  1       21 0.43582344E-02 0.12500000E+03</pdfrwt>
<pdfrwt beam="2">  1       21 0.21214008E-01 0.12500000E+03</pdfrwt>
<totfact> 0.68767404E+06</totfact>
</mgrwt>
</event>
<event>
 3    1  0.1595726E-001  0.1250000E+03  0.7546771E-02  0.1235069E+00
         21   -1    0    0  502  501  0.00000000000E+00  0.00000000000E+00  0.38794726970E+02  0.38794726970E+02  0.00000000000E+00 0. -1.
         21   -1    0    0  501  502 -0.00000000000E+00 -0.00000000000E+00 -0.10069023048E+03  0.10069023048E+03  0.00000000000E+00 0. -1.
         25    1    1    2    0    0  0.00000000000E+00  0.00000000000E+00 -0.61895503508E+02  0.13948495745E+03  0.12500000000E+03 0.  0.
<mgrwt>
<rscale>  0 0.12500000E+03</rscale>
<asrwt>0</asrwt>
<pdfrwt beam="1">  1       21 0.59684196E-02 0.12500000E+03</pdfrwt>
<pdfrwt beam="2">  1       21 0.15490804E-01 0.12500000E+03</pdfrwt>
<totfact> 0.72106617E+06</totfact>
</mgrwt>
</event>
<event>
 3    1  0.1595726E-001  0.1250000E+03  0.7546771E-02  0.1235069E+00
         21   -1    0    0  502  501  0.00000000000E+00  0.00000000000E+00  0.20914568194E+03  0.20914568194E+03  0.00000000000E+00 0.  1.
         21   -1    0    0  501  502 -0.00000000000E+00 -0.00000000000E+00 -0.18677172600E+02  0.18677172600E+02  0.00000000000E+00 0.  1.
         25    1    1    2    0    0  0.00000000000E+00  0.00000000000E+00  0.19046850934E+03  0.22782285453E+03  0.12500000000E+03 0.  0.
<mgrwt>
<rscale>  0 0.12500000E+03</rscale>
<asrwt>0</asrwt>
<pdfrwt beam="1">  1       21 0.32176257E-01 0.12500000E+03</pdfrwt>
<pdfrwt beam="2">  1       21 0.28734113E-02 0.12500000E+03</pdfrwt>
<totfact> 0.62031314E+06</totfact>
</mgrwt>
</event>
<event>
 3    1  0.1595726E-001  0.1250000E+03  0.7546771E-02  0.1235069E+00
         21   -1    0    0  502  501  0.00000000000E+00  0.00000000000E+00  0.16663909164E+02  0.16663909164E+02  0.00000000000E+00 0.  1.
         21   -1    0    0  501  502 -0.00000000000E+00 -0.00000000000E+00 -0.23441378380E+03  0.23441378380E+03  0.00000000000E+00 0.  1.
         25    1    1    2    0    0  0.00000000000E+00  0.00000000000E+00 -0.21774987463E+03  0.25107769296E+03  0.12500000000E+03 0.  0.
<mgrwt>
<rscale>  0 0.12500000E+03</rscale>
<asrwt>0</asrwt>
<pdfrwt beam="1">  1       21 0.25636785E-02 0.12500000E+03</pdfrwt>
<pdfrwt beam="2">  1       21 0.36063657E-01 0.12500000E+03</pdfrwt>
<totfact> 0.59776875E+06</totfact>
</mgrwt>
</event>
<event>
 3    1  0.1595726E-001  0.1250000E+03  0.7546771E-02  0.1235069E+00
         21   -1    0    0  502  501  0.00000000000E+00  0.00000000000E+00  0.21329311009E+03  0.21329311009E+03  0.00000000000E+00 0.  1.
         21   -1    0    0  501  502 -0.00000000000E+00 -0.00000000000E+00 -0.18313999915E+02  0.18313999915E+02  0.00000000000E+00 0.  1.
         25    1    1    2    0    0  0.00000000000E+00  0.00000000000E+00  0.19497911017E+03  0.23160711000E+03  0.12500000000E+03 0.  0.
<mgrwt>
<rscale>  0 0.12500000E+03</rscale>
<asrwt>0</asrwt>
<pdfrwt beam="1">  1       21 0.32814323E-01 0.12500000E+03</pdfrwt>
<pdfrwt beam="2">  1       21 0.28175386E-02 0.12500000E+03</pdfrwt>
<totfact> 0.61654408E+06</totfact>
</mgrwt>
</event>
<event>
 3    1  0.1595726E-001  0.1250000E+03  0.7546771E-02  0.1235069E+00
         21   -1    0    0  502  501  0.00000000000E+00  0.00000000000E+00  0.20294455980E+02  0.20294455980E+02  0.00000000000E+00 0.  1.
         21   -1    0    0  501  502 -0.00000000000E+00 -0.00000000000E+00 -0.19247867516E+03  0.19247867516E+03  0.00000000000E+00 0.  1.
         25    1    1    2    0    0  0.00000000000E+00  0.00000000000E+00 -0.17218421918E+03  0.21277313114E+03  0.12500000000E+03 0.  0.
<mgrwt>
<rscale>  0 0.12500000E+03</rscale>
<asrwt>0</asrwt>
<pdfrwt beam="1">  1       21 0.31222240E-02 0.12500000E+03</pdfrwt>
<pdfrwt beam="2">  1       21 0.29612103E-01 0.12500000E+03</pdfrwt>
<totfact> 0.63568947E+06</totfact>
</mgrwt>
</event>
<event>
 3    1  0.1595726E-001  0.1250000E+03  0.7546771E-02  0.1235069E+00
         21   -1    0    0  502  501  0.00000000000E+00  0.00000000000E+00  0.14391216492E+03  0.14391216492E+03  0.00000000000E+00 0. -1.
         21   -1    0    0  501  502 -0.00000000000E+00 -0.00000000000E+00 -0.27143292592E+02  0.27143292592E+02  0.00000000000E+00 0. -1.
         25    1    1    2    0    0  0.00000000000E+00  0.00000000000E+00  0.11676887233E+03  0.17105545751E+03  0.12500000000E+03 0.  0.
<mgrwt>
<rscale>  0 0.12500000E+03</rscale>
<asrwt>0</asrwt>
<pdfrwt beam="1">  1       21 0.22140333E-01 0.12500000E+03</pdfrwt>
<pdfrwt beam="2">  1       21 0.41758913E-02 0.12500000E+03</pdfrwt>
<totfact> 0.68192737E+06</totfact>
</mgrwt>
</event>
<event>
 3    1  0.1595726E-001  0.1250000E+03  0.7546771E-02  0.1235069E+00
         21   -1    0    0  502  501  0.00000000000E+00  0.00000000000E+00  0.58196389168E+02  0.58196389168E+02  0.00000000000E+00 0.  1.
         21   -1    0    0  501  502 -0.00000000000E+00 -0.00000000000E+00 -0.67121861955E+02  0.67121861955E+02  0.00000000000E+00 0.  1.
         25    1    1    2    0    0  0.00000000000E+00  0.00000000000E+00 -0.89254727870E+01  0.12531825112E+03  0.12500000000E+03 0.  0.
<mgrwt>
<rscale>  0 0.12500000E+03</rscale>
<asrwt>0</asrwt>
<pdfrwt beam="1">  1       21 0.89532906E-02 0.12500000E+03</pdfrwt>
<pdfrwt beam="2">  1       21 0.10326440E-01 0.12500000E+03</pdfrwt>
<totfact> 0.74000608E+06</totfact>
</mgrwt>
</event>
<event>
 3    1  0.1595726E-001  0.1250000E+03  0.7546771E-02  0.1235069E+00
         21   -1    0    0  502  501  0.00000000000E+00  0.00000000000E+00  0.51395885365E+03  0.51395885365E+03  0.00000000000E+00 0. -1.
         21   -1    0    0  501  502 -0.00000000000E+00 -0.00000000000E+00 -0.76003165861E+01  0.76003165861E+01  0.00000000000E+00 0. -1.
         25    1    1    2    0    0  0.00000000000E+00  0.00000000000E+00  0.50635853707E+03  0.52155917024E+03  0.12500000000E+03 0.  0.
<mgrwt>
<rscale>  0 0.12500000E+03</rscale>
<asrwt>0</asrwt>
<pdfrwt beam="1">  1       21 0.79070565E-01 0.12500000E+03</pdfrwt>
<pdfrwt beam="2">  1       21 0.11692799E-02 0.12500000E+03</pdfrwt>
<totfact> 0.40898504E+06</totfact>
</mgrwt>
</event>
<event>
 3    1  0.1595726E-001  0.1250000E+03  0.7546771E-02  0.1235069E+00
         21   -1    0    0  502  501  0.00000000000E+00  0.00000000000E+00  0.73928368776E+02  0.73928368776E+02  0.00000000000E+00 0. -1.
         21   -1    0    0  501  502 -0.00000000000E+00 -0.00000000000E+00 -0.52838309091E+02  0.52838309091E+02  0.00000000000E+00 0. -1.
         25    1    1    2    0    0  0.00000000000E+00  0.00000000000E+00  0.21090059685E+02  0.12676667787E+03  0.12500000000E+03 0.  0.
<mgrwt>
<rscale>  0 0.12500000E+03</rscale>
<asrwt>0</asrwt>
<pdfrwt beam="1">  1       21 0.11373595E-01 0.12500000E+03</pdfrwt>
<pdfrwt beam="2">  1       21 0.81289706E-02 0.12500000E+03</pdfrwt>
<totfact> 0.73800934E+06</totfact>
</mgrwt>
</event>
<event>
 3    1  0.1595726E-001  0.1250000E+03  0.7546771E-02  0.1235069E+00
         21   -1    0    0  502  501  0.00000000000E+00  0.00000000000E+00  0.98438451159E+01  0.98438451159E+01  0.00000000000E+00 0.  1.
         21   -1    0    0  501  502 -0.00000000000E+00 -0.00000000000E+00 -0.39682156251E+03  0.39682156251E+03  0.00000000000E+00 0.  1.
         25    1    1    2    0    0  0.00000000000E+00  0.00000000000E+00 -0.38697771739E+03  0.40666540763E+03  0.12500000000E+03 0.  0.
<mgrwt>
<rscale>  0 0.12500000E+03</rscale>
<asrwt>0</asrwt>
<pdfrwt beam="1">  1       21 0.15144380E-02 0.12500000E+03</pdfrwt>
<pdfrwt beam="2">  1       21 0.61049460E-01 0.12500000E+03</pdfrwt>
<totfact> 0.47602366E+06</totfact>
</mgrwt>
</event>
<event>
 3    1  0.1595726E-001  0.1250000E+03  0.7546771E-02  0.1235069E+00
         21   -1    0    0  502  501  0.00000000000E+00  0.00000000000E+00  0.18464986441E+02  0.18464986441E+02  0.00000000000E+00 0. -1.
         21   -1    0    0  501  502 -0.00000000000E+00 -0.00000000000E+00 -0.21154903159E+03  0.21154903159E+03  0.00000000000E+00 0. -1.
         25    1    1    2    0    0  0.00000000000E+00  0.00000000000E+00 -0.19308404515E+03  0.23001401804E+03  0.12500000000E+03 0.  0.
<mgrwt>
<rscale>  0 0.12500000E+03</rscale>
<asrwt>0</asrwt>
<pdfrwt beam="1">  1       21 0.28407672E-02 0.12500000E+03</pdfrwt>
<pdfrwt beam="2">  1       21 0.32546005E-01 0.12500000E+03</pdfrwt>
<totfact> 0.61812584E+06</totfact>
</mgrwt>
</event>
<event>
 3    1  0.1595726E-001  0.1250000E+03  0.7546771E-02  0.1235069E+00
         21   -1    0    0  502  501  0.00000000000E+00  0.00000000000E+00  0.27926079552E+03  0.27926079552E+03  0.00000000000E+00 0. -1.
         21   -1    0    0  501  502 -0.00000000000E+00 -0.00000000000E+00 -0.13987820928E+02  0.13987820928E+02  0.00000000000E+00 0. -1.
         25    1    1    2    0    0  0.00000000000E+00  0.00000000000E+00  0.26527297459E+03  0.29324861645E+03  0.12500000000E+03 0.  0.
<mgrwt>
<rscale>  0 0.12500000E+03</rscale>
<asrwt>0</asrwt>
<pdfrwt beam="1">  1       21 0.42963195E-01 0.12500000E+03</pdfrwt>
<pdfrwt beam="2">  1       21 0.21519727E-02 0.12500000E+03</pdfrwt>
<totfact> 0.56021950E+06</totfact>
</mgrwt>
</event>
<event>
 3    1  0.1595726E-001  0.1250000E+03  0.7546771E-02  0.1235069E+00
         21   -1    0    0  502  501  0.00000000000E+00  0.00000000000E+00  0.63229532711E+01  0.63229532711E+01  0.00000000000E+00 0.  1.
         21   -1    0    0  501  502 -0.00000000000E+00 -0.00000000000E+00 -0.61778884526E+03  0.61778884526E+03  0.00000000000E+00 0.  1.
         25    1    1    2    0    0  0.00000000000E+00  0.00000000000E+00 -0.61146589199E+03  0.62411179853E+03  0.12500000000E+03 0.  0.
<mgrwt>
<rscale>  0 0.12500000E+03</rscale>
<asrwt>0</asrwt>
<pdfrwt beam="1">  1       21 0.97276237E-03 0.12500000E+03</pdfrwt>
<pdfrwt beam="2">  1       21 0.95044406E-01 0.12500000E+03</pdfrwt>
<totfact> 0.36024428E+06</totfact>
</mgrwt>
</event>
<event>
 3    1  0.1595726E-001  0.1250000E+03  0.7546771E-02  0.1235069E+00
         21   -1    0    0  502  501  0.00000000000E+00  0.00000000000E+00  0.13910734972E+03  0.13910734972E+03  0.00000000000E+00 0. -1.
         21   -1    0    0  501  502 -0.00000000000E+00 -0.00000000000E+00 -0.28080831156E+02  0.28080831156E+02  0.00000000000E+00 0. -1.
         25    1    1    2    0    0  0.00000000000E+00  0.00000000000E+00  0.11102651856E+03  0.16718818087E+03  0.12500000000E+03 0.  0.
<mgrwt>
<rscale>  0 0.12500000E+03</rscale>
<asrwt>0</asrwt>
<pdfrwt beam="1">  1       21 0.21401130E-01 0.12500000E+03</pdfrwt>
<pdfrwt beam="2">  1       21 0.43201279E-02 0.12500000E+03</pdfrwt>
<totfact> 0.68651671E+06</totfact>
</mgrwt>
</event>
<event>
 3    1  0.1595726E-001  0.1250000E+03  0.7546771E-02  0.1235069E+00
         21   -1    0    0  502  501  0.00000000000E+00  0.00000000000E+00  0.45600685648E+03  0.45600685648E+03  0.00000000000E+00 0. -1.
         21   -1    0    0  501  502 -0.00000000000E+00 -0.00000000000E+00 -0.85662089166E+01  0.85662089166E+01  0.00000000000E+00 0. -1.
         25    1    1    2    0    0  0.00000000000E+00  0.00000000000E+00  0.44744064756E+03  0.46457306540E+03  0.12500000000E+03 0.  0.
<mgrwt>
<rscale>  0 0.12500000E+03</rscale>
<asrwt>0</asrwt>
<pdfrwt beam="1">  1       21 0.70154882E-01 0.12500000E+03</pdfrwt>
<pdfrwt beam="2">  1       21 0.13178787E-02 0.12500000E+03</pdfrwt>
<totfact> 0.44032905E+06</totfact>
</mgrwt>
</event>
<event>
 3    1  0.1595726E-001  0.1250000E+03  0.7546771E-02  0.1235069E+00
         21   -1    0    0  502  501  0.00000000000E+00  0.00000000000E+00  0.28248285542E+02  0.28248285542E+02  0.00000000000E+00 0.  1.
         21   -1    0    0  501  502 -0.00000000000E+00 -0.00000000000E+00 -0.13828272849E+03  0.13828272849E+03  0.00000000000E+00 0.  1.
         25    1    1    2    0    0  0.00000000000E+00  0.00000000000E+00 -0.11003444295E+03  0.16653101404E+03  0.12500000000E+03 0.  0.
<mgrwt>
<rscale>  0 0.12500000E+03</rscale>
<asrwt>0</asrwt>
<pdfrwt beam="1">  1       21 0.43458901E-02 0.12500000E+03</pdfrwt>
<pdfrwt beam="2">  1       21 0.21274266E-01 0.12500000E+03</pdfrwt>
<totfact> 0.68730152E+06</totfact>
</mgrwt>
</event>
<event>
 3    1  0.1595726E-001  0.1250000E+03  0.7546771E-02  0.1235069E+00
         21   -1    0    0  502  501  0.00000000000E+00  0.00000000000E+00  0.16543955027E+03  0.16543955027E+03  0.00000000000E+00 0.  1.
         21   -1    0    0  501  502 -0.00000000000E+00 -0.00000000000E+00 -0.23611343199E+02  0.23611343199E+02  0.00000000000E+00 0.  1.
         25    1    1    2    0    0  0.00000000000E+00  0.00000000000E+00  0.14182820707E+03  0.18905089347E+03  0.12500000000E+03 0.  0.
<mgrwt>
<rscale>  0 0.12500000E+03</rscale>
<asrwt>0</asrwt>
<pdfrwt beam="1">  1       21 0.25452238E-01 0.12500000E+03</pdfrwt>
<pdfrwt beam="2">  1       21 0.36325144E-02 0.12500000E+03</pdfrwt>
<totfact> 0.66128104E+06</totfact>
</mgrwt>
</event>
<event>
 3    1  0.1595726E-001  0.1250000E+03  0.7546771E-02  0.1235069E+00
         21   -1    0    0  502  501  0.00000000000E+00  0.00000000000E+00  0.10052296815E+03  0.10052296815E+03  0.00000000000E+00 0.  1.
         21   -1    0    0  501  502 -0.00000000000E+00 -0.00000000000E+00 -0.38859278352E+02  0.38859278352E+02  0.00000000000E+00 0.  1.
         25    1    1    2    0    0  0.00000000000E+00  0.00000000000E+00  0.61663689794E+02  0.13938224650E+03  0.12500000000E+03 0.  0.
<mgrwt>
<rscale>  0 0.12500000E+03</rscale>
<asrwt>0</asrwt>
<pdfrwt beam="1">  1       21 0.15465072E-01 0.12500000E+03</pdfrwt>
<pdfrwt beam="2">  1       21 0.59783506E-02 0.12500000E+03</pdfrwt>
<totfact> 0.72120057E+06</totfact>
</mgrwt>
</event>
<event>
 3    1  0.1595726E-001  0.1250000E+03  0.7546771E-02  0.1235069E+00
         21   -1    0    0  502  501  0.00000000000E+00  0.00000000000E+00  0.10073504876E+03  0.10073504876E+03  0.00000000000E+00 0. -1.
         21   -1    0    0  501  502 -0.00000000000E+00 -0.00000000000E+00 -0.38777466710E+02  0.38777466710E+02  0.00000000000E+00 0. -1.
         25    1    1    2    0    0  0.00000000000E+00  0.00000000000E+00  0.61957582054E+02  0.13951251547E+03  0.12500000000E+03 0.  0.
<mgrwt>
<rscale>  0 0.12500000E+03</rscale>
<asrwt>0</asrwt>
<pdfrwt beam="1">  1       21 0.15497700E-01 0.12500000E+03</pdfrwt>
<pdfrwt beam="2">  1       21 0.59657641E-02 0.12500000E+03</pdfrwt>
<totfact> 0.72103012E+06</totfact>
</mgrwt>
</event>
<event>
 3    1  0.1595726E-001  0.1250000E+03  0.7546771E-02  0.1235069E+00
         21   -1    0    0  502  501  0.00000000000E+00  0.00000000000E+00  0.43159276848E+01  0.43159276848E+01  0.00000000000E+00 0. -1.
         21   -1    0    0  501  502 -0.00000000000E+00 -0.00000000000E+00 -0.90507772263E+03  0.90507772263E+03  0.00000000000E+00 0. -1.
         25    1    1    2    0    0  0.00000000000E+00  0.00000000000E+00 -0.90076179495E+03  0.90939365032E+03  0.12500000000E+03 0.  0.
<mgrwt>
<rscale>  0 0.12500000E+03</rscale>
<asrwt>0</asrwt>
<pdfrwt beam="1">  1       21 0.66398727E-03 0.12500000E+03</pdfrwt>
<pdfrwt beam="2">  1       21 0.13924306E+00 0.12500000E+03</pdfrwt>
<totfact> 0.26030753E+06</totfact>
</mgrwt>
</event>
<event>
 3    1  0.1595726E-001  0.1250000E+03  0.7546771E-02  0.1235069E+00
         21   -1    0    0  502  501  0.00000000000E+00  0.00000000000E+00  0.97133367490E+02  0.97133367490E+02  0.00000000000E+00 0.  1.
         21   -1    0    0  501  502 -0.00000000000E+00 -0.00000000000E+00 -0.40215325598E+02  0.40215325598E+02  0.00000000000E+00 0.  1.
         25    1    1    2    0    0  0.00000000000E+00  0.00000000000E+00  0.56918041893E+02  0.13734869309E+03  0.12500000000E+03 0.  0.
<mgrwt>
<rscale>  0 0.12500000E+03</rscale>
<asrwt>0</asrwt>
<pdfrwt beam="1">  1       21 0.14943595E-01 0.12500000E+03</pdfrwt>
<pdfrwt beam="2">  1       21 0.61869732E-02 0.12500000E+03</pdfrwt>
<totfact> 0.72386957E+06</totfact>
</mgrwt>
</event>
<event>
 3    1  0.1595726E-001  0.1250000E+03  0.7546771E-02  0.1235069E+00
         21   -1    0    0  502  501  0.00000000000E+00  0.00000000000E+00  0.49545024406E+02  0.49545024406E+02  0.00000000000E+00 0.  1.
         21   -1    0    0  501  502 -0.00000000000E+00 -0.00000000000E+00 -0.78842427606E+02  0.78842427606E+02  0.00000000000E+00 0.  1.
         25    1    1    2    0    0  0.00000000000E+00  0.00000000000E+00 -0.29297403200E+02  0.12838745201E+03  0.12500000000E+03 0.  0.
<mgrwt>
<rscale>  0 0.12500000E+03</rscale>
<asrwt>0</asrwt>
<pdfrwt beam="1">  1       21 0.76223115E-02 0.12500000E+03</pdfrwt>
<pdfrwt beam="2">  1       21 0.12129604E-01 0.12500000E+03</pdfrwt>
<totfact> 0.73581284E+06</totfact>
</mgrwt>
</event>
<event>
 3    1  0.1595726E-001  0.1250000E+03  0.7546771E-02  0.1235069E+00
         21   -1    0    0  502  501  0.00000000000E+00  0.00000000000E+00  0.33089029107E+03  0.33089029107E+03  0.00000000000E+00 0.  1.
         21   -1    0    0  501  502 -0.00000000000E+00 -0.00000000000E+00 -0.11805272338E+02  0.11805272338E+02  0.00000000000E+00 0.  1.
         25    1    1    2    0    0  0.00000000000E+00  0.00000000000E+00  0.31908501873E+03  0.34269556341E+03  0.12500000000E+03 0.  0.
<mgrwt>
<rscale>  0 0.12500000E+03</rscale>
<asrwt>0</asrwt>
<pdfrwt beam="1">  1       21 0.50906192E-01 0.12500000E+03</pdfrwt>
<pdfrwt beam="2">  1       21 0.18161960E-02 0.12500000E+03</pdfrwt>
<totfact> 0.52082453E+06</totfact>
</mgrwt>
</event>
<event>
 3    1  0.1595726E-001  0.1250000E+03  0.7546771E-02  0.1235069E+00
         21   -1    0    0  502  501  0.00000000000E+00  0.00000000000E+00  0.10578689373E+04  0.10578689373E+04  0.00000000000E+00 0.  1.
         21   -1    0    0  501  502 -0.00000000000E+00 -0.00000000000E+00 -0.36925651772E+01  0.36925651772E+01  0.00000000000E+00 0.  1.
         25    1    1    2    0    0  0.00000000000E+00  0.00000000000E+00  0.10541763722E+04  0.10615615025E+04  0.12500000000E+03 0.  0.
<mgrwt>
<rscale>  0 0.12500000E+03</rscale>
<asrwt>0</asrwt>
<pdfrwt beam="1">  1       21 0.16274883E+00 0.12500000E+03</pdfrwt>
<pdfrwt beam="2">  1       21 0.56808779E-03 0.12500000E+03</pdfrwt>
<totfact> 0.22127191E+06</totfact>
</mgrwt>
</event>
<event>
 3    1  0.1595726E-001  0.1250000E+03  0.7546771E-02  0.1235069E+00
         21   -1    0    0  502  501  0.00000000000E+00  0.00000000000E+00  0.10184200789E+02  0.10184200789E+02  0.00000000000E+00 0. -1.
         21   -1    0    0  501  502 -0.00000000000E+00 -0.00000000000E+00 -0.38355979826E+03  0.38355979826E+03  0.00000000000E+00 0. -1.
         25    1    1    2    0    0  0.00000000000E+00  0.00000000000E+00 -0.37337559747E+03  0.39374399905E+03  0.12500000000E+03 0.  0.
<mgrwt>
<rscale>  0 0.12500000E+03</rscale>
<asrwt>0</asrwt>
<pdfrwt beam="1">  1       21 0.15668002E-02 0.12500000E+03</pdfrwt>
<pdfrwt beam="2">  1       21 0.59009198E-01 0.12500000E+03</pdfrwt>
<totfact> 0.48459092E+06</totfact>
</mgrwt>
</event>
<event>
 3    1  0.1595726E-001  0.1250000E+03  0.7546771E-02  0.1235069E+00
         21   -1    0    0  502  501  0.00000000000E+00  0.00000000000E+00  0.70992943186E+02  0.70992943186E+02  0.00000000000E+00 0.  1.
         21   -1    0    0  501  502 -0.00000000000E+00 -0.00000000000E+00 -0.55023074473E+02  0.55023074473E+02  0.00000000000E+00 0.  1.
         25    1    1    2    0    0  0.00000000000E+00  0.00000000000E+00  0.15969868713E+02  0.12601601766E+03  0.12500000000E+03 0.  0.
<mgrwt>
<rscale>  0 0.12500000E+03</rscale>
<asrwt>0</asrwt>
<pdfrwt beam="1">  1       21 0.10921991E-01 0.12500000E+03</pdfrwt>
<pdfrwt beam="2">  1       21 0.84650883E-02 0.12500000E+03</pdfrwt>
<totfact> 0.73903830E+06</totfact>
</mgrwt>
</event>
<event>
 3    1  0.1595726E-001  0.1250000E+03  0.7546771E-02  0.1235069E+00
         21   -1    0    0  502  501  0.00000000000E+00  0.00000000000E+00  0.75959239914E+03  0.75959239914E+03  0.00000000000E+00 0.  1.
         21   -1    0    0  501  502 -0.00000000000E+00 -0.00000000000E+00 -0.51425606739E+01  0.51425606739E+01  0.00000000000E+00 0.  1.
         25    1    1    2    0    0  0.00000000000E+00  0.00000000000E+00  0.75444983846E+03  0.76473495981E+03  0.12500000000E+03 0.  0.
<mgrwt>
<rscale>  0 0.12500000E+03</rscale>
<asrwt>0</asrwt>
<pdfrwt beam="1">  1       21 0.11686028E+00 0.12500000E+03</pdfrwt>
<pdfrwt beam="2">  1       21 0.79116378E-03 0.12500000E+03</pdfrwt>
<totfact> 0.30557280E+06</totfact>
</mgrwt>
</event>
<event>
 3    1  0.1595726E-001  0.1250000E+03  0.7546771E-02  0.1235069E+00
         21   -1    0    0  502  501  0.00000000000E+00  0.00000000000E+00  0.44178658678E+02  0.44178658678E+02  0.00000000000E+00 0. -1.
         21   -1    0    0  501  502 -0.00000000000E+00 -0.00000000000E+00 -0.88419388838E+02  0.88419388838E+02  0.00000000000E+00 0. -1.
         25    1    1    2    0    0  0.00000000000E+00  0.00000000000E+00 -0.44240730161E+02  0.13259804752E+03  0.12500000000E+03 0.  0.
<mgrwt>
<rscale>  0 0.12500000E+03</rscale>
<asrwt>0</asrwt>
<pdfrwt beam="1">  1       21 0.67967168E-02 0.12500000E+03</pdfrwt>
<pdfrwt beam="2">  1       21 0.13602983E-01 0.12500000E+03</pdfrwt>
<totfact> 0.73016120E+06</totfact>
</mgrwt>
</event>
<event>
 3    1  0.1595726E-001  0.1250000E+03  0.7546771E-02  0.1235069E+00
         21   -1    0    0  502  501  0.00000000000E+00  0.00000000000E+00  0.19480580519E+03  0.19480580519E+03  0.00000000000E+00 0.  1.
         21   -1    0    0  501  502 -0.00000000000E+00 -0.00000000000E+00 -0.20052020504E+02  0.20052020504E+02  0.00000000000E+00 0.  1.
         25    1    1    2    0    0  0.00000000000E+00  0.00000000000E+00  0.17475378469E+03  0.21485782569E+03  0.12500000000E+03 0.  0.
<mgrwt>
<rscale>  0 0.12500000E+03</rscale>
<asrwt>0</asrwt>
<pdfrwt beam="1">  1       21 0.29970123E-01 0.12500000E+03</pdfrwt>
<pdfrwt beam="2">  1       21 0.30849264E-02 0.12500000E+03</pdfrwt>
<totfact> 0.63352034E+06</totfact>
</mgrwt>
</event>
<event>
 3    1  0.1595726E-001  0.1250000E+03  0.7546771E-02  0.1235069E+00
         21   -1    0    0  502  501  0.00000000000E+00  0.00000000000E+00  0.47368239988E+01  0.47368239988E+01  0.00000000000E+00 0.  1.
         21   -1    0    0  501  502 -0.00000000000E+00 -0.00000000000E+00 -0.82465593001E+03  0.82465593001E+03  0.00000000000E+00 0.  1.
         25    1    1    2    0    0  0.00000000000E+00  0.00000000000E+00 -0.81991910601E+03  0.82939275401E+03  0.12500000000E+03 0.  0.
<mgrwt>
<rscale>  0 0.12500000E+03</rscale>
<asrwt>0</asrwt>
<pdfrwt beam="1">  1       21 0.72874306E-03 0.12500000E+03</pdfrwt>
<pdfrwt beam="2">  1       21 0.12686999E+00 0.12500000E+03</pdfrwt>
<totfact> 0.28411879E+06</totfact>
</mgrwt>
</event>
<event>
 3    1  0.1595726E-001  0.1250000E+03  0.7546771E-02  0.1235069E+00
         21   -1    0    0  502  501  0.00000000000E+00  0.00000000000E+00  0.53138806696E+02  0.53138806696E+02  0.00000000000E+00 0. -1.
         21   -1    0    0  501  502 -0.00000000000E+00 -0.00000000000E+00 -0.73510307116E+02  0.73510307116E+02  0.00000000000E+00 0. -1.
         25    1    1    2    0    0  0.00000000000E+00  0.00000000000E+00 -0.20371500420E+02  0.12664911381E+03  0.12500000000E+03 0.  0.
<mgrwt>
<rscale>  0 0.12500000E+03</rscale>
<asrwt>0</asrwt>
<pdfrwt beam="1">  1       21 0.81752010E-02 0.12500000E+03</pdfrwt>
<pdfrwt beam="2">  1       21 0.11309278E-01 0.12500000E+03</pdfrwt>
<totfact> 0.73816985E+06</totfact>
</mgrwt>
</event>
<event>
 3    1  0.1595726E-001  0.1250000E+03  0.7546771E-02  0.1235069E+00
         21   -1    0    0  502  501  0.00000000000E+00  0.00000000000E+00  0.13052145372E+04  0.13052145372E+04  0.00000000000E+00 0.  1.
         21   -1    0    0  501  502 -0.00000000000E+00 -0.00000000000E+00 -0.29928030134E+01  0.29928030134E+01  0.00000000000E+00 0.  1.
         25    1    1    2    0    0  0.00000000000E+00  0.00000000000E+00  0.13022217342E+04  0.13082073402E+04  0.12500000000E+03 0.  0.
<mgrwt>
<rscale>  0 0.12500000E+03</rscale>
<asrwt>0</asrwt>
<pdfrwt beam="1">  1       21 0.20080178E+00 0.12500000E+03</pdfrwt>
<pdfrwt beam="2">  1       21 0.46043227E-03 0.12500000E+03</pdfrwt>
<totfact> 0.17105665E+06</totfact>
</mgrwt>
</event>
<event>
 3    1  0.1595726E-001  0.1250000E+03  0.7546771E-02  0.1235069E+00
         21   -1    0    0  502  501  0.00000000000E+00  0.00000000000E+00  0.35089502362E+02  0.35089502362E+02  0.00000000000E+00 0.  1.
         21   -1    0    0  501  502 -0.00000000000E+00 -0.00000000000E+00 -0.11132246789E+03  0.11132246789E+03  0.00000000000E+00 0.  1.
         25    1    1    2    0    0  0.00000000000E+00  0.00000000000E+00 -0.76232965530E+02  0.14641197025E+03  0.12500000000E+03 0.  0.
<mgrwt>
<rscale>  0 0.12500000E+03</rscale>
<asrwt>0</asrwt>
<pdfrwt beam="1">  1       21 0.53983850E-02 0.12500000E+03</pdfrwt>
<pdfrwt beam="2">  1       21 0.17126534E-01 0.12500000E+03</pdfrwt>
<totfact> 0.71212888E+06</totfact>
</mgrwt>
</event>
<event>
 3    1  0.1595726E-001  0.1250000E+03  0.7546771E-02  0.1235069E+00
         21   -1    0    0  502  501  0.00000000000E+00  0.00000000000E+00  0.35889630354E+02  0.35889630354E+02  0.00000000000E+00 0.  1.
         21   -1    0    0  501  502 -0.00000000000E+00 -0.00000000000E+00 -0.10884063061E+03  0.10884063061E+03  0.00000000000E+00 0.  1.
         25    1    1    2    0    0  0.00000000000E+00  0.00000000000E+00 -0.72951000253E+02  0.14473026096E+03  0.12500000000E+03 0.  0.
<mgrwt>
<rscale>  0 0.12500000E+03</rscale>
<asrwt>0</asrwt>
<pdfrwt beam="1">  1       21 0.55214817E-02 0.12500000E+03</pdfrwt>
<pdfrwt beam="2">  1       21 0.16744712E-01 0.12500000E+03</pdfrwt>
<totfact> 0.71427636E+06</totfact>
</mgrwt>
</event>
<event>
 3    1  0.1595726E-001  0.1250000E+03  0.7546771E-02  0.1235069E+00
         21   -1    0    0  502  501  0.00000000000E+00  0.00000000000E+00  0.16834837424E+03  0.16834837424E+03  0.00000000000E+00 0.  1.
         21   -1    0    0  501  502 -0.00000000000E+00 -0.00000000000E+00 -0.23203372279E+02  0.23203372279E+02  0.00000000000E+00 0.  1.
         25    1    1    2    0    0  0.00000000000E+00  0.00000000000E+00  0.14514500196E+03  0.19155174651E+03  0.12500000000E+03 0.  0.
<mgrwt>
<rscale>  0 0.12500000E+03</rscale>
<asrwt>0</asrwt>
<pdfrwt beam="1">  1       21 0.25899749E-01 0.12500000E+03</pdfrwt>
<pdfrwt beam="2">  1       21 0.35697497E-02 0.12500000E+03</pdfrwt>
<totfact> 0.65850416E+06</totfact>
</mgrwt>
</event>
<event>
 3    1  0.1595726E-001  0.1250000E+03  0.7546771E-02  0.1235069E+00
         21   -1    0    0  502  501  0.00000000000E+00  0.00000000000E+00  0.42423661865E+01  0.42423661865E+01  0.00000000000E+00 0. -1.
         21   -1    0    0  501  502 -0.00000000000E+00 -0.00000000000E+00 -0.92077152898E+03  0.92077152898E+03  0.00000000000E+00 0. -1.
         25    1    1    2    0    0  0.00000000000E+00  0.00000000000E+00 -0.91652916279E+03  0.92501389517E+03  0.12500000000E+03 0.  0.
<mgrwt>
<rscale>  0 0.12500000E+03</rscale>
<asrwt>0</asrwt>
<pdfrwt beam="1">  1       21 0.65267151E-03 0.12500000E+03</pdfrwt>
<pdfrwt beam="2">  1       21 0.14165720E+00 0.12500000E+03</pdfrwt>
<totfact> 0.25592502E+06</totfact>
</mgrwt>
</event>
<event>
 3    1  0.1595726E-001  0.1250000E+03  0.7546771E-02  0.1235069E+00
         21   -1    0    0  502  501  0.00000000000E+00  0.00000000000E+00  0.24244201385E+03  0.24244201385E+03  0.00000000000E+00 0. -1.
         21   -1    0    0  501  502 -0.00000000000E+00 -0.00000000000E+00 -0.16112100118E+02  0.16112100118E+02  0.00000000000E+00 0. -1.
         25    1    1    2    0    0  0.00000000000E+00  0.00000000000E+00  0.22632991373E+03  0.25855411397E+03  0.12500000000E+03 0.  0.
<mgrwt>
<rscale>  0 0.12500000E+03</rscale>
<asrwt>0</asrwt>
<pdfrwt beam="1">  1       21 0.37298769E-01 0.12500000E+03</pdfrwt>
<pdfrwt beam="2">  1       21 0.24787848E-02 0.12500000E+03</pdfrwt>
<totfact> 0.59082051E+06</totfact>
</mgrwt>
</event>
<event>
 3    1  0.1595726E-001  0.1250000E+03  0.7546771E-02  0.1235069E+00
         21   -1    0    0  502  501  0.00000000000E+00  0.00000000000E+00  0.57304927404E+03  0.57304927404E+03  0.00000000000E+00 0. -1.
         21   -1    0    0  501  502 -0.00000000000E+00 -0.00000000000E+00 -0.68166040460E+01  0.68166040460E+01  0.00000000000E+00 0. -1.
         25    1    1    2    0    0  0.00000000000E+00  0.00000000000E+00  0.56623267000E+03  0.57986587809E+03  0.12500000000E+03 0.  0.
<mgrwt>
<rscale>  0 0.12500000E+03</rscale>
<asrwt>0</asrwt>
<pdfrwt beam="1">  1       21 0.88161389E-01 0.12500000E+03</pdfrwt>
<pdfrwt beam="2">  1       21 0.10487088E-02 0.12500000E+03</pdfrwt>
<totfact> 0.38019304E+06</totfact>
</mgrwt>
</event>
<event>
 3    1  0.1595726E-001  0.1250000E+03  0.7546771E-02  0.1235069E+00
         21   -1    0    0  502  501  0.00000000000E+00  0.00000000000E+00  0.40377503970E+03  0.40377503970E+03  0.00000000000E+00 0. -1.
         21   -1    0    0  501  502 -0.00000000000E+00 -0.00000000000E+00 -0.96743226200E+01  0.96743226200E+01  0.00000000000E+00 0. -1.
         25    1    1    2    0    0  0.00000000000E+00  0.00000000000E+00  0.39410071708E+03  0.41344936232E+03  0.12500000000E+03 0.  0.
<mgrwt>
<rscale>  0 0.12500000E+03</rscale>
<asrwt>0</asrwt>
<pdfrwt beam="1">  1       21 0.62119224E-01 0.12500000E+03</pdfrwt>
<pdfrwt beam="2">  1       21 0.14883576E-02 0.12500000E+03</pdfrwt>
<totfact> 0.47161884E+06</totfact>
</mgrwt>
</event>
<event>
 3    1  0.1595726E-001  0.1250000E+03  0.7546771E-02  0.1235069E+00
         21   -1    0    0  502  501  0.00000000000E+00  0.00000000000E+00  0.18435910125E+03  0.18435910125E+03  0.00000000000E+00 0. -1.
         21   -1    0    0  501  502 -0.00000000000E+00 -0.00000000000E+00 -0.21188267753E+02  0.21188267753E+02  0.00000000000E+00 0. -1.
         25    1    1    2    0    0  0.00000000000E+00  0.00000000000E+00  0.16317083350E+03  0.20554736900E+03  0.12500000000E+03 0.  0.
<mgrwt>
<rscale>  0 0.12500000E+03</rscale>
<asrwt>0</asrwt>
<pdfrwt beam="1">  1       21 0.28362938E-01 0.12500000E+03</pdfrwt>
<pdfrwt beam="2">  1       21 0.32597336E-02 0.12500000E+03</pdfrwt>
<totfact> 0.64331070E+06</totfact>
</mgrwt>
</event>
<event>
 3    1  0.1595726E-001  0.1250000E+03  0.7546771E-02  0.1235069E+00
         21   -1    0    0  502  501  0.00000000000E+00  0.00000000000E+00  0.87933125050E+02  0.87933125050E+02  0.00000000000E+00 0. -1.
         21   -1    0    0  501  502 -0.00000000000E+00 -0.00000000000E+00 -0.44422963449E+02  0.44422963449E+02  0.00000000000E+00 0. -1.
         25    1    1    2    0    0  0.00000000000E+00  0.00000000000E+00  0.43510161601E+02  0.13235608850E+03  0.12500000000E+03 0.  0.
<mgrwt>
<rscale>  0 0.12500000E+03</rscale>
<asrwt>0</asrwt>
<pdfrwt beam="1">  1       21 0.13528173E-01 0.12500000E+03</pdfrwt>
<pdfrwt beam="2">  1       21 0.68343021E-02 0.12500000E+03</pdfrwt>
<totfact> 0.73048505E+06</totfact>
</mgrwt>
</event>
<event>
 3    1  0.1595726E-001  0.1250000E+03  0.7546771E-02  0.1235069E+00
         21   -1    0    0  502  501  0.00000000000E+00  0.00000000000E+00  0.28311140823E+03  0.28311140823E+03  0.00000000000E+00 0. -1.
         21   -1    0    0  501  502 -0.00000000000E+00 -0.00000000000E+00 -0.13797571862E+02  0.13797571862E+02  0.00000000000E+00 0. -1.
         25    1    1    2    0    0  0.00000000000E+00  0.00000000000E+00  0.26931383636E+03  0.29690898009E+03  0.12500000000E+03 0.  0.
<mgrwt>
<rscale>  0 0.12500000E+03</rscale>
<asrwt>0</asrwt>
<pdfrwt beam="1">  1       21 0.43555597E-01 0.12500000E+03</pdfrwt>
<pdfrwt beam="2">  1       21 0.21227036E-02 0.12500000E+03</pdfrwt>
<totfact> 0.55714033E+06</totfact>
</mgrwt>
</event>
<event>
 3    1  0.1595726E-001  0.1250000E+03  0.7546771E-02  0.1235069E+00
         21   -1    0    0  502  501  0.00000000000E+00  0.00000000000E+00  0.17671018054E+02  0.17671018054E+02  0.00000000000E+00 0. -1.
         21   -1    0    0  501  502 -0.00000000000E+00 -0.00000000000E+00 -0.22105404386E+03  0.22105404386E+03  0.00000000000E+00 0. -1.
         25    1    1    2    0    0  0.00000000000E+00  0.00000000000E+00 -0.20338302581E+03  0.23872506192E+03  0.12500000000E+03 0.  0.
<mgrwt>
<rscale>  0 0.12500000E+03</rscale>
<asrwt>0</asrwt>
<pdfrwt beam="1">  1       21 0.27186182E-02 0.12500000E+03</pdfrwt>
<pdfrwt beam="2">  1       21 0.34008315E-01 0.12500000E+03</pdfrwt>
<totfact> 0.60956254E+06</totfact>
</mgrwt>
</event>
<event>
 3    1  0.1595726E-001  0.1250000E+03  0.7546771E-02  0.1235069E+00
         21   -1    0    0  502  501  0.00000000000E+00  0.00000000000E+00  0.14152591931E+04  0.14152591931E+04  0.00000000000E+00 0.  1.
         21   -1    0    0  501  502 -0.00000000000E+00 -0.00000000000E+00 -0.27600951254E+01  0.27600951254E+01  0.00000000000E+00 0.  1.
         25    1    1    2    0    0  0.00000000000E+00  0.00000000000E+00  0.14124990980E+04  0.14180192882E+04  0.12500000000E+03 0.  0.
<mgrwt>
<rscale>  0 0.12500000E+03</rscale>
<asrwt>0</asrwt>
<pdfrwt beam="1">  1       21 0.21773160E+00 0.12500000E+03</pdfrwt>
<pdfrwt beam="2">  1       21 0.42463115E-03 0.12500000E+03</pdfrwt>
<totfact> 0.15254157E+06</totfact>
</mgrwt>
</event>
<event>
 3    1  0.1595726E-001  0.1250000E+03  0.7546771E-02  0.1235069E+00
         21   -1    0    0  502  501  0.00000000000E+00  0.00000000000E+00  0.51997963658E+03  0.51997963658E+03  0.00000000000E+00 0. -1.
         21   -1    0    0  501  502 -0.00000000000E+00 -0.00000000000E+00 -0.75123134162E+01  0.75123134162E+01  0.00000000000E+00 0. -1.
         25    1    1    2    0    0  0.00000000000E+00  0.00000000000E+00  0.51246732316E+03  0.52749194999E+03  0.12500000000E+03 0.  0.
<mgrwt>
<rscale>  0 0.12500000E+03</rscale>
<asrwt>0</asrwt>
<pdfrwt beam="1">  1       21 0.79996839E-01 0.12500000E+03</pdfrwt>
<pdfrwt beam="2">  1       21 0.11557409E-02 0.12500000E+03</pdfrwt>
<totfact> 0.40591327E+06</totfact>
</mgrwt>
</event>
<event>
 3    1  0.1595726E-001  0.1250000E+03  0.7546771E-02  0.1235069E+00
         21   -1    0    0  502  501  0.00000000000E+00  0.00000000000E+00  0.32451171399E+03  0.32451171399E+03  0.00000000000E+00 0.  1.
         21   -1    0    0  501  502 -0.00000000000E+00 -0.00000000000E+00 -0.12037315855E+02  0.12037315855E+02  0.00000000000E+00 0.  1.
         25    1    1    2    0    0  0.00000000000E+00  0.00000000000E+00  0.31247439814E+03  0.33654902985E+03  0.12500000000E+03 0.  0.
<mgrwt>
<rscale>  0 0.12500000E+03</rscale>
<asrwt>0</asrwt>
<pdfrwt beam="1">  1       21 0.49924872E-01 0.12500000E+03</pdfrwt>
<pdfrwt beam="2">  1       21 0.18518950E-02 0.12500000E+03</pdfrwt>
<totfact> 0.52547434E+06</totfact>
</mgrwt>
</event>
<event>
 3    1  0.1595726E-001  0.1250000E+03  0.7546771E-02  0.1235069E+00
         21   -1    0    0  502  501  0.00000000000E+00  0.00000000000E+00  0.12074132073E+03  0.12074132073E+03  0.00000000000E+00 0.  1.
         21   -1    0    0  501  502 -0.00000000000E+00 -0.00000000000E+00 -0.32352221894E+02  0.32352221894E+02  0.00000000000E+00 0.  1.
         25    1    1    2    0    0  0.00000000000E+00  0.00000000000E+00  0.88389098833E+02  0.15309354262E+03  0.12500000000E+03 0.  0.
<mgrwt>
<rscale>  0 0.12500000E+03</rscale>
<asrwt>0</asrwt>
<pdfrwt beam="1">  1       21 0.18575588E-01 0.12500000E+03</pdfrwt>
<pdfrwt beam="2">  1       21 0.49772650E-02 0.12500000E+03</pdfrwt>
<totfact> 0.70372725E+06</totfact>
</mgrwt>
</event>
<event>
 3    1  0.1595726E-001  0.1250000E+03  0.7546771E-02  0.1235069E+00
         21   -1    0    0  502  501  0.00000000000E+00  0.00000000000E+00  0.10486560933E+02  0.10486560933E+02  0.00000000000E+00 0.  1.
         21   -1    0    0  501  502 -0.00000000000E+00 -0.00000000000E+00 -0.37250057717E+03  0.37250057717E+03  0.00000000000E+00 0.  1.
         25    1    1    2    0    0  0.00000000000E+00  0.00000000000E+00 -0.36201401623E+03  0.38298713810E+03  0.12500000000E+03 0.  0.
<mgrwt>
<rscale>  0 0.12500000E+03</rscale>
<asrwt>0</asrwt>
<pdfrwt beam="1">  1       21 0.16133170E-02 0.12500000E+03</pdfrwt>
<pdfrwt beam="2">  1       21 0.57307784E-01 0.12500000E+03</pdfrwt>
<totfact> 0.49190650E+06</totfact>
</mgrwt>
</event>
<event>
 3    1  0.1595726E-001  0.1250000E+03  0.7546771E-02  0.1235069E+00
         21   -1    0    0  502  501  0.00000000000E+00  0.00000000000E+00  0.80397007275E+02  0.80397007275E+02  0.00000000000E+00 0.  1.
         21   -1    0    0  501  502 -0.00000000000E+00 -0.00000000000E+00 -0.48587007557E+02  0.48587007557E+02  0.00000000000E+00 0.  1.
         25    1    1    2    0    0  0.00000000000E+00  0.00000000000E+00  0.31809999718E+02  0.12898401483E+03  0.12500000000E+03 0.  0.
<mgrwt>
<rscale>  0 0.12500000E+03</rscale>
<asrwt>0</asrwt>
<pdfrwt beam="1">  1       21 0.12368770E-01 0.12500000E+03</pdfrwt>
<pdfrwt beam="2">  1       21 0.74749242E-02 0.12500000E+03</pdfrwt>
<totfact> 0.73501028E+06</totfact>
</mgrwt>
</event>
<event>
 3    1  0.1595726E-001  0.1250000E+03  0.7546771E-02  0.1235069E+00
         21   -1    0    0  502  501  0.00000000000E+00  0.00000000000E+00  0.25457669076E+02  0.25457669076E+02  0.00000000000E+00 0. -1.
         21   -1    0    0  501  502 -0.00000000000E+00 -0.00000000000E+00 -0.15344099211E+03  0.15344099211E+03  0.00000000000E+00 0. -1.
         25    1    1    2    0    0  0.00000000000E+00  0.00000000000E+00 -0.12798332304E+03  0.17889866119E+03  0.12500000000E+03 0.  0.
<mgrwt>
<rscale>  0 0.12500000E+03</rscale>
<asrwt>0</asrwt>
<pdfrwt beam="1">  1       21 0.39165644E-02 0.12500000E+03</pdfrwt>
<pdfrwt beam="2">  1       21 0.23606307E-01 0.12500000E+03</pdfrwt>
<totfact> 0.67278103E+06</totfact>
</mgrwt>
</event>
<event>
 3    1  0.1595726E-001  0.1250000E+03  0.7546771E-02  0.1235069E+00
         21   -1    0    0  502  501  0.00000000000E+00  0.00000000000E+00  0.31829688925E+02  0.31829688925E+02  0.00000000000E+00 0.  1.
         21   -1    0    0  501  502 -0.00000000000E+00 -0.00000000000E+00 -0.12272347396E+03  0.12272347396E+03  0.00000000000E+00 0.  1.
         25    1    1    2    0    0  0.00000000000E+00  0.00000000000E+00 -0.90893785039E+02  0.15455316289E+03  0.12500000000E+03 0.  0.
<mgrwt>
<rscale>  0 0.12500000E+03</rscale>
<asrwt>0</asrwt>
<pdfrwt beam="1">  1       21 0.48968752E-02 0.12500000E+03</pdfrwt>
<pdfrwt beam="2">  1       21 0.18880535E-01 0.12500000E+03</pdfrwt>
<totfact> 0.70191237E+06</totfact>
</mgrwt>
</event>
<event>
 3    1  0.1595726E-001  0.1250000E+03  0.7546771E-02  0.1235069E+00
         21   -1    0    0  502  501  0.00000000000E+00  0.00000000000E+00  0.32123155944E+03  0.32123155944E+03  0.00000000000E+00 0. -1.
         21   -1    0    0  501  502 -0.00000000000E+00 -0.00000000000E+00 -0.12160231102E+02  0.12160231102E+02  0.00000000000E+00 0. -1.
         25    1    1    2    0    0  0.00000000000E+00  0.00000000000E+00  0.30907132834E+03  0.33339179054E+03  0.12500000000E+03 0.  0.
<mgrwt>
<rscale>  0 0.12500000E+03</rscale>
<asrwt>0</asrwt>
<pdfrwt beam="1">  1       21 0.49420233E-01 0.12500000E+03</pdfrwt>
<pdfrwt beam="2">  1       21 0.18708050E-02 0.12500000E+03</pdfrwt>
<totfact> 0.52788889E+06</totfact>
</mgrwt>
</event>
<event>
 3    1  0.1595726E-001  0.1250000E+03  0.7546771E-02  0.1235069E+00
         21   -1    0    0  502  501  0.00000000000E+00  0.00000000000E+00  0.25578104781E+03  0.25578104781E+03  0.00000000000E+00 0.  1.
         21   -1    0    0  501  502 -0.00000000000E+00 -0.00000000000E+00 -0.15271850802E+02  0.15271850802E+02  0.00000000000E+00 0.  1.
         25    1    1    2    0    0  0.00000000000E+00  0.00000000000E+00  0.24050919701E+03  0.27105289861E+03  0.12500000000E+03 0.  0.
<mgrwt>
<rscale>  0 0.12500000E+03</rscale>
<asrwt>0</asrwt>
<pdfrwt beam="1">  1       21 0.39350927E-01 0.12500000E+03</pdfrwt>
<pdfrwt beam="2">  1       21 0.23495157E-02 0.12500000E+03</pdfrwt>
<totfact> 0.57950785E+06</totfact>
</mgrwt>
</event>
<event>
 3    1  0.1595726E-001  0.1250000E+03  0.7546771E-02  0.1235069E+00
         21   -1    0    0  502  501  0.00000000000E+00  0.00000000000E+00  0.71056491022E+01  0.71056491022E+01  0.00000000000E+00 0.  1.
         21   -1    0    0  501  502 -0.00000000000E+00 -0.00000000000E+00 -0.54973865777E+03  0.54973865777E+03  0.00000000000E+00 0.  1.
         25    1    1    2    0    0  0.00000000000E+00  0.00000000000E+00 -0.54263300867E+03  0.55684430687E+03  0.12500000000E+03 0.  0.
<mgrwt>
<rscale>  0 0.12500000E+03</rscale>
<asrwt>0</asrwt>
<pdfrwt beam="1">  1       21 0.10931765E-02 0.12500000E+03</pdfrwt>
<pdfrwt beam="2">  1       21 0.84575197E-01 0.12500000E+03</pdfrwt>
<totfact> 0.39119972E+06</totfact>
</mgrwt>
</event>
<event>
 3    1  0.1595726E-001  0.1250000E+03  0.7546771E-02  0.1235069E+00
         21   -1    0    0  502  501  0.00000000000E+00  0.00000000000E+00  0.14253481720E+03  0.14253481720E+03  0.00000000000E+00 0.  1.
         21   -1    0    0  501  502 -0.00000000000E+00 -0.00000000000E+00 -0.27405584661E+02  0.27405584661E+02  0.00000000000E+00 0.  1.
         25    1    1    2    0    0  0.00000000000E+00  0.00000000000E+00  0.11512923254E+03  0.16994040186E+03  0.12500000000E+03 0.  0.
<mgrwt>
<rscale>  0 0.12500000E+03</rscale>
<asrwt>0</asrwt>
<pdfrwt beam="1">  1       21 0.21928433E-01 0.12500000E+03</pdfrwt>
<pdfrwt beam="2">  1       21 0.42162439E-02 0.12500000E+03</pdfrwt>
<totfact> 0.68324701E+06</totfact>
</mgrwt>
</event>
<event>
 3    1  0.1595726E-001  0.1250000E+03  0.7546771E-02  0.1235069E+00
         21   -1    0    0  502  501  0.00000000000E+00  0.00000000000E+00  0.80172623280E+03  0.80172623280E+03  0.00000000000E+00 0.  1.
         21   -1    0    0  501  502 -0.00000000000E+00 -0.00000000000E+00 -0.48722990969E+01  0.48722990969E+01  0.00000000000E+00 0.  1.
         25    1    1    2    0    0  0.00000000000E+00  0.00000000000E+00  0.79685393370E+03  0.80659853189E+03  0.12500000000E+03 0.  0.
<mgrwt>
<rscale>  0 0.12500000E+03</rscale>
<asrwt>0</asrwt>
<pdfrwt beam="1">  1       21 0.12334239E+00 0.12500000E+03</pdfrwt>
<pdfrwt beam="2">  1       21 0.74958511E-03 0.12500000E+03</pdfrwt>
<totfact> 0.29145372E+06</totfact>
</mgrwt>
</event>
<event>
 3    1  0.1595726E-001  0.1250000E+03  0.7546771E-02  0.1235069E+00
         21   -1    0    0  502  501  0.00000000000E+00  0.00000000000E+00  0.76930998474E+02  0.76930998474E+02  0.00000000000E+00 0. -1.
         21   -1    0    0  501  502 -0.00000000000E+00 -0.00000000000E+00 -0.50776021077E+02  0.50776021077E+02  0.00000000000E+00 0. -1.
         25    1    1    2    0    0  0.00000000000E+00  0.00000000000E+00  0.26154977398E+02  0.12770701955E+03  0.12500000000E+03 0.  0.
<mgrwt>
<rscale>  0 0.12500000E+03</rscale>
<asrwt>0</asrwt>
<pdfrwt beam="1">  1       21 0.11835538E-01 0.12500000E+03</pdfrwt>
<pdfrwt beam="2">  1       21 0.78116956E-02 0.12500000E+03</pdfrwt>
<totfact> 0.73673176E+06</totfact>
</mgrwt>
</event>
<event>
 3    1  0.1595726E-001  0.1250000E+03  0.7546771E-02  0.1235069E+00
         21   -1    0    0  502  501  0.00000000000E+00  0.00000000000E+00  0.41202740977E+01  0.41202740977E+01  0.00000000000E+00 0. -1.
         21   -1    0    0  501  502 -0.00000000000E+00 -0.00000000000E+00 -0.94805585923E+03  0.94805585923E+03  0.00000000000E+00 0. -1.
         25    1    1    2    0    0  0.00000000000E+00  0.00000000000E+00 -0.94393558513E+03  0.95217613333E+03  0.12500000000E+03 0.  0.
<mgrwt>
<rscale>  0 0.12500000E+03</rscale>
<asrwt>0</asrwt>
<pdfrwt beam="1">  1       21 0.63388820E-03 0.12500000E+03</pdfrwt>
<pdfrwt beam="2">  1       21 0.14585478E+00 0.12500000E+03</pdfrwt>
<totfact> 0.24853226E+06</totfact>
</mgrwt>
</event>
<event>
 3    1  0.1595726E-001  0.1250000E+03  0.7546771E-02  0.1235069E+00
         21   -1    0    0  502  501  0.00000000000E+00  0.00000000000E+00  0.16137733346E+02  0.16137733346E+02  0.00000000000E+00 0. -1.
         21   -1    0    0  501  502 -0.00000000000E+00 -0.00000000000E+00 -0.24205691818E+03  0.24205691818E+03  0.00000000000E+00 0. -1.
         25    1    1    2    0    0  0.00000000000E+00  0.00000000000E+00 -0.22591918483E+03  0.25819465152E+03  0.12500000000E+03 0.  0.
<mgrwt>
<rscale>  0 0.12500000E+03</rscale>
<asrwt>0</asrwt>
<pdfrwt beam="1">  1       21 0.24827284E-02 0.12500000E+03</pdfrwt>
<pdfrwt beam="2">  1       21 0.37239523E-01 0.12500000E+03</pdfrwt>
<totfact> 0.59115141E+06</totfact>
</mgrwt>
</event>
<event>
 3    1  0.1595726E-001  0.1250000E+03  0.7546771E-02  0.1235069E+00
         21   -1    0    0  502  501  0.00000000000E+00  0.00000000000E+00  0.81887412414E+02  0.81887412414E+02  0.00000000000E+00 0. -1.
         21   -1    0    0  501  502 -0.00000000000E+00 -0.00000000000E+00 -0.47702691840E+02  0.47702691840E+02  0.00000000000E+00 0. -1.
         25    1    1    2    0    0  0.00000000000E+00  0.00000000000E+00  0.34184720574E+02  0.12959010425E+03  0.12500000000E+03 0.  0.
<mgrwt>
<rscale>  0 0.12500000E+03</rscale>
<asrwt>0</asrwt>
<pdfrwt beam="1">  1       21 0.12598063E-01 0.12500000E+03</pdfrwt>
<pdfrwt beam="2">  1       21 0.73388757E-02 0.12500000E+03</pdfrwt>
<totfact> 0.73419749E+06</totfact>
</mgrwt>
</event>
<event>
 3    1  0.1595726E-001  0.1250000E+03  0.7546771E-02  0.1235069E+00
         21   -1    0    0  502  501  0.00000000000E+00  0.00000000000E+00  0.77187366782E+01  0.77187366782E+01  0.00000000000E+00 0. -1.
         21   -1    0    0  501  502 -0.00000000000E+00 -0.00000000000E+00 -0.50607374792E+03  0.50607374792E+03  0.00000000000E+00 0. -1.
         25    1    1    2    0    0  0.00000000000E+00  0.00000000000E+00 -0.49835501125E+03  0.51379248460E+03  0.12500000000E+03 0.  0.
<mgrwt>
<rscale>  0 0.12500000E+03</rscale>
<asrwt>0</asrwt>
<pdfrwt beam="1">  1       21 0.11874976E-02 0.12500000E+03</pdfrwt>
<pdfrwt beam="2">  1       21 0.77857522E-01 0.12500000E+03</pdfrwt>
<totfact> 0.41305809E+06</totfact>
</mgrwt>
</event>
<event>
 3    1  0.1595726E-001  0.1250000E+03  0.7546771E-02  0.1235069E+00
         21   -1    0    0  502  501  0.00000000000E+00  0.00000000000E+00  0.87500023858E+03  0.87500023858E+03  0.00000000000E+00 0. -1.
         21   -1    0    0  501  502 -0.00000000000E+00 -0.00000000000E+00 -0.44642844971E+01  0.44642844971E+01  0.00000000000E+00 0. -1.
         25    1    1    2    0    0  0.00000000000E+00  0.00000000000E+00  0.87053595408E+03  0.87946452308E+03  0.12500000000E+03 0.  0.
<mgrwt>
<rscale>  0 0.12500000E+03</rscale>
<asrwt>0</asrwt>
<pdfrwt beam="1">  1       21 0.13461529E+00 0.12500000E+03</pdfrwt>
<pdfrwt beam="2">  1       21 0.68681369E-03 0.12500000E+03</pdfrwt>
<totfact> 0.26892237E+06</totfact>
</mgrwt>
</event>
<event>
 3    1  0.1595726E-001  0.1250000E+03  0.7546771E-02  0.1235069E+00
         21   -1    0    0  502  501  0.00000000000E+00  0.00000000000E+00  0.33049361491E+03  0.33049361491E+03  0.00000000000E+00 0. -1.
         21   -1    0    0  501  502 -0.00000000000E+00 -0.00000000000E+00 -0.11819441659E+02  0.11819441659E+02  0.00000000000E+00 0. -1.
         25    1    1    2    0    0  0.00000000000E+00  0.00000000000E+00  0.31867417325E+03  0.34231305657E+03  0.12500000000E+03 0.  0.
<mgrwt>
<rscale>  0 0.12500000E+03</rscale>
<asrwt>0</asrwt>
<pdfrwt beam="1">  1       21 0.50845165E-01 0.12500000E+03</pdfrwt>
<pdfrwt beam="2">  1       21 0.18183759E-02 0.12500000E+03</pdfrwt>
<totfact> 0.52111196E+06</totfact>
</mgrwt>
</event>
<event>
 3    1  0.1595726E-001  0.1250000E+03  0.7546771E-02  0.1235069E+00
         21   -1    0    0  502  501  0.00000000000E+00  0.00000000000E+00  0.36593004477E+03  0.36593004477E+03  0.00000000000E+00 0. -1.
         21   -1    0    0  501  502 -0.00000000000E+00 -0.00000000000E+00 -0.10674854541E+02  0.10674854541E+02  0.00000000000E+00 0. -1.
         25    1    1    2    0    0  0.00000000000E+00  0.00000000000E+00  0.35525519022E+03  0.37660489931E+03  0.12500000000E+03 0.  0.
<mgrwt>
<rscale>  0 0.12500000E+03</rscale>
<asrwt>0</asrwt>
<pdfrwt beam="1">  1       21 0.56296920E-01 0.12500000E+03</pdfrwt>
<pdfrwt beam="2">  1       21 0.16422856E-02 0.12500000E+03</pdfrwt>
<totfact> 0.49631632E+06</totfact>
</mgrwt>
</event>
<event>
 3    1  0.1595726E-001  0.1250000E+03  0.7546771E-02  0.1235069E+00
         21   -1    0    0  502  501  0.00000000000E+00  0.00000000000E+00  0.33375319209E+03  0.33375319209E+03  0.00000000000E+00 0. -1.
         21   -1    0    0  501  502 -0.00000000000E+00 -0.00000000000E+00 -0.11704007909E+02  0.11704007909E+02  0.00000000000E+00 0. -1.
         25    1    1    2    0    0  0.00000000000E+00  0.00000000000E+00  0.32204918418E+03  0.34545720000E+03  0.12500000000E+03 0.  0.
<mgrwt>
<rscale>  0 0.12500000E+03</rscale>
<asrwt>0</asrwt>
<pdfrwt beam="1">  1       21 0.51346638E-01 0.12500000E+03</pdfrwt>
<pdfrwt beam="2">  1       21 0.18006169E-02 0.12500000E+03</pdfrwt>
<totfact> 0.51875693E+06</totfact>
</mgrwt>
</event>
<event>
 3    1  0.1595726E-001  0.1250000E+03  0.7546771E-02  0.1235069E+00
         21   -1    0    0  502  501  0.00000000000E+00  0.00000000000E+00  0.48881212204E+03  0.48881212204E+03  0.00000000000E+00 0.  1.
         21   -1    0    0  501  502 -0.00000000000E+00 -0.00000000000E+00 -0.79913116386E+01  0.79913116386E+01  0.00000000000E+00 0.  1.
         25    1    1    2    0    0  0.00000000000E+00  0.00000000000E+00  0.48082081041E+03  0.49680343368E+03  0.12500000000E+03 0.  0.
<mgrwt>
<rscale>  0 0.12500000E+03</rscale>
<asrwt>0</asrwt>
<pdfrwt beam="1">  1       21 0.75201842E-01 0.12500000E+03</pdfrwt>
<pdfrwt beam="2">  1       21 0.12294329E-02 0.12500000E+03</pdfrwt>
<totfact> 0.42217968E+06</totfact>
</mgrwt>
</event>
<event>
 3    1  0.1595726E-001  0.1250000E+03  0.7546771E-02  0.1235069E+00
         21   -1    0    0  502  501  0.00000000000E+00  0.00000000000E+00  0.96109752283E+01  0.96109752283E+01  0.00000000000E+00 0.  1.
         21   -1    0    0  501  502 -0.00000000000E+00 -0.00000000000E+00 -0.40643638208E+03  0.40643638208E+03  0.00000000000E+00 0.  1.
         25    1    1    2    0    0  0.00000000000E+00  0.00000000000E+00 -0.39682540685E+03  0.41604735730E+03  0.12500000000E+03 0.  0.
<mgrwt>
<rscale>  0 0.12500000E+03</rscale>
<asrwt>0</asrwt>
<pdfrwt beam="1">  1       21 0.14786115E-02 0.12500000E+03</pdfrwt>
<pdfrwt beam="2">  1       21 0.62528678E-01 0.12500000E+03</pdfrwt>
<totfact> 0.46994847E+06</totfact>
</mgrwt>
</event>
<event>
 3    1  0.1595726E-001  0.1250000E+03  0.7546771E-02  0.1235069E+00
         21   -1    0    0  502  501  0.00000000000E+00  0.00000000000E+00  0.35117999622E+01  0.35117999622E+01  0.00000000000E+00 0.  1.
         21   -1    0    0  501  502 -0.00000000000E+00 -0.00000000000E+00 -0.11123213287E+04  0.11123213287E+04  0.00000000000E+00 0.  1.
         25    1    1    2    0    0  0.00000000000E+00  0.00000000000E+00 -0.11088095287E+04  0.11158331286E+04  0.12500000000E+03 0.  0.
<mgrwt>
<rscale>  0 0.12500000E+03</rscale>
<asrwt>0</asrwt>
<pdfrwt beam="1">  1       21 0.54027664E-03 0.12500000E+03</pdfrwt>
<pdfrwt beam="2">  1       21 0.17112645E+00 0.12500000E+03</pdfrwt>
<totfact> 0.20902672E+06</totfact>
</mgrwt>
</event>
<event>
 3    1  0.1595726E-001  0.1250000E+03  0.7546771E-02  0.1235069E+00
         21   -1    0    0  502  501  0.00000000000E+00  0.00000000000E+00  0.94127430354E+02  0.94127430354E+02  0.00000000000E+00 0. -1.
         21   -1    0    0  501  502 -0.00000000000E+00 -0.00000000000E+00 -0.41499592471E+02  0.41499592471E+02  0.00000000000E+00 0. -1.
         25    1    1    2    0    0  0.00000000000E+00  0.00000000000E+00  0.52627837883E+02  0.13562702282E+03  0.12500000000E+03 0.  0.
<mgrwt>
<rscale>  0 0.12500000E+03</rscale>
<asrwt>0</asrwt>
<pdfrwt beam="1">  1       21 0.14481143E-01 0.12500000E+03</pdfrwt>
<pdfrwt beam="2">  1       21 0.63845527E-02 0.12500000E+03</pdfrwt>
<totfact> 0.72613556E+06</totfact>
</mgrwt>
</event>
<event>
 3    1  0.1595726E-001  0.1250000E+03  0.7546771E-02  0.1235069E+00
         21   -1    0    0  502  501  0.00000000000E+00  0.00000000000E+00  0.32080586629E+03  0.32080586629E+03  0.00000000000E+00 0.  1.
         21   -1    0    0  501  502 -0.00000000000E+00 -0.00000000000E+00 -0.12176367113E+02  0.12176367113E+02  0.00000000000E+00 0.  1.
         25    1    1    2    0    0  0.00000000000E+00  0.00000000000E+00  0.30862949918E+03  0.33298223341E+03  0.12500000000E+03 0.  0.
<mgrwt>
<rscale>  0 0.12500000E+03</rscale>
<asrwt>0</asrwt>
<pdfrwt beam="1">  1       21 0.49354742E-01 0.12500000E+03</pdfrwt>
<pdfrwt beam="2">  1       21 0.18732875E-02 0.12500000E+03</pdfrwt>
<totfact> 0.52820342E+06</totfact>
</mgrwt>
</event>
<event>
 3    1  0.1595726E-001  0.1250000E+03  0.7546771E-02  0.1235069E+00
         21   -1    0    0  502  501  0.00000000000E+00  0.00000000000E+00  0.18459882932E+03  0.18459882932E+03  0.00000000000E+00 0.  1.
         21   -1    0    0  501  502 -0.00000000000E+00 -0.00000000000E+00 -0.21160751747E+02  0.21160751747E+02  0.00000000000E+00 0.  1.
         25    1    1    2    0    0  0.00000000000E+00  0.00000000000E+00  0.16343807757E+03  0.20575958106E+03  0.12500000000E+03 0.  0.
<mgrwt>
<rscale>  0 0.12500000E+03</rscale>
<asrwt>0</asrwt>
<pdfrwt beam="1">  1       21 0.28399819E-01 0.12500000E+03</pdfrwt>
<pdfrwt beam="2">  1       21 0.32555004E-02 0.12500000E+03</pdfrwt>
<totfact> 0.64308457E+06</totfact>
</mgrwt>
</event>
<event>
 3    1  0.1595726E-001  0.1250000E+03  0.7546771E-02  0.1235069E+00
         21   -1    0    0  502  501  0.00000000000E+00  0.00000000000E+00  0.16512703205E+02  0.16512703205E+02  0.00000000000E+00 0.  1.
         21   -1    0    0  501  502 -0.00000000000E+00 -0.00000000000E+00 -0.23656029854E+03  0.23656029854E+03  0.00000000000E+00 0.  1.
         25    1    1    2    0    0  0.00000000000E+00  0.00000000000E+00 -0.22004759534E+03  0.25307300175E+03  0.12500000000E+03 0.  0.
<mgrwt>
<rscale>  0 0.12500000E+03</rscale>
<asrwt>0</asrwt>
<pdfrwt beam="1">  1       21 0.25404160E-02 0.12500000E+03</pdfrwt>
<pdfrwt beam="2">  1       21 0.36393891E-01 0.12500000E+03</pdfrwt>
<totfact> 0.59590072E+06</totfact>
</mgrwt>
</event>
<event>
 3    1  0.1595726E-001  0.1250000E+03  0.7546771E-02  0.1235069E+00
         21   -1    0    0  502  501  0.00000000000E+00  0.00000000000E+00  0.25114509376E+02  0.25114509376E+02  0.00000000000E+00 0.  1.
         21   -1    0    0  501  502 -0.00000000000E+00 -0.00000000000E+00 -0.15553757955E+03  0.15553757955E+03  0.00000000000E+00 0.  1.
         25    1    1    2    0    0  0.00000000000E+00  0.00000000000E+00 -0.13042307018E+03  0.18065208893E+03  0.12500000000E+03 0.  0.
<mgrwt>
<rscale>  0 0.12500000E+03</rscale>
<asrwt>0</asrwt>
<pdfrwt beam="1">  1       21 0.38637708E-02 0.12500000E+03</pdfrwt>
<pdfrwt beam="2">  1       21 0.23928858E-01 0.12500000E+03</pdfrwt>
<totfact> 0.67076810E+06</totfact>
</mgrwt>
</event>
<event>
 3    1  0.1595726E-001  0.1250000E+03  0.7546771E-02  0.1235069E+00
         21   -1    0    0  502  501  0.00000000000E+00  0.00000000000E+00  0.82519441703E+02  0.82519441703E+02  0.00000000000E+00 0. -1.
         21   -1    0    0  501  502 -0.00000000000E+00 -0.00000000000E+00 -0.47337329475E+02  0.47337329475E+02  0.00000000000E+00 0. -1.
         25    1    1    2    0    0  0.00000000000E+00  0.00000000000E+00  0.35182112228E+02  0.12985677118E+03  0.12500000000E+03 0.  0.
<mgrwt>
<rscale>  0 0.12500000E+03</rscale>
<asrwt>0</asrwt>
<pdfrwt beam="1">  1       21 0.12695299E-01 0.12500000E+03</pdfrwt>
<pdfrwt beam="2">  1       21 0.72826661E-02 0.12500000E+03</pdfrwt>
<totfact> 0.73384063E+06</totfact>
</mgrwt>
</event>
<event>
 3    1  0.1595726E-001  0.1250000E+03  0.7546771E-02  0.1235069E+00
         21   -1    0    0  502  501  0.00000000000E+00  0.00000000000E+00  0.72291370893E+01  0.72291370893E+01  0.00000000000E+00 0. -1.
         21   -1    0    0  501  502 -0.00000000000E+00 -0.00000000000E+00 -0.54034803210E+03  0.54034803210E+03  0.00000000000E+00 0. -1.
         25    1    1    2    0    0  0.00000000000E+00  0.00000000000E+00 -0.53311889501E+03  0.54757716919E+03  0.12500000000E+03 0.  0.
<mgrwt>
<rscale>  0 0.12500000E+03</rscale>
<asrwt>0</asrwt>
<pdfrwt beam="1">  1       21 0.11121751E-02 0.12500000E+03</pdfrwt>
<pdfrwt beam="2">  1       21 0.83130457E-01 0.12500000E+03</pdfrwt>
<totfact> 0.39576058E+06</totfact>
</mgrwt>
</event>
<event>
 3    1  0.1595726E-001  0.1250000E+03  0.7546771E-02  0.1235069E+00
         21   -1    0    0  502  501  0.00000000000E+00  0.00000000000E+00  0.79400512128E+02  0.79400512128E+02  0.00000000000E+00 0. -1.
         21   -1    0    0  501  502 -0.00000000000E+00 -0.00000000000E+00 -0.49196785957E+02  0.49196785957E+02  0.00000000000E+00 0. -1.
         25    1    1    2    0    0  0.00000000000E+00  0.00000000000E+00  0.30203726171E+02  0.12859729808E+03  0.12500000000E+03 0.  0.
<mgrwt>
<rscale>  0 0.12500000E+03</rscale>
<asrwt>0</asrwt>
<pdfrwt beam="1">  1       21 0.12215463E-01 0.12500000E+03</pdfrwt>
<pdfrwt beam="2">  1       21 0.75687363E-02 0.12500000E+03</pdfrwt>
<totfact> 0.73553022E+06</totfact>
</mgrwt>
</event>
<event>
 3    1  0.1595726E-001  0.1250000E+03  0.7546771E-02  0.1235069E+00
         21   -1    0    0  502  501  0.00000000000E+00  0.00000000000E+00  0.35741790544E+02  0.35741790544E+02  0.00000000000E+00 0.  1.
         21   -1    0    0  501  502 -0.00000000000E+00 -0.00000000000E+00 -0.10929083128E+03  0.10929083128E+03  0.00000000000E+00 0.  1.
         25    1    1    2    0    0  0.00000000000E+00  0.00000000000E+00 -0.73549040738E+02  0.14503262183E+03  0.12500000000E+03 0.  0.
<mgrwt>
<rscale>  0 0.12500000E+03</rscale>
<asrwt>0</asrwt>
<pdfrwt beam="1">  1       21 0.54987370E-02 0.12500000E+03</pdfrwt>
<pdfrwt beam="2">  1       21 0.16813974E-01 0.12500000E+03</pdfrwt>
<totfact> 0.71388924E+06</totfact>
</mgrwt>
</event>
<event>
 3    1  0.1595726E-001  0.1250000E+03  0.7546771E-02  0.1235069E+00
         21   -1    0    0  502  501  0.00000000000E+00  0.00000000000E+00  0.23312693920E+02  0.23312693920E+02  0.00000000000E+00 0. -1.
         21   -1    0    0  501  502 -0.00000000000E+00 -0.00000000000E+00 -0.16755892791E+03  0.16755892791E+03  0.00000000000E+00 0. -1.
         25    1    1    2    0    0  0.00000000000E+00  0.00000000000E+00 -0.14424623400E+03  0.19087162183E+03  0.12500000000E+03 0.  0.
<mgrwt>
<rscale>  0 0.12500000E+03</rscale>
<asrwt>0</asrwt>
<pdfrwt beam="1">  1       21 0.35865685E-02 0.12500000E+03</pdfrwt>
<pdfrwt beam="2">  1       21 0.25778295E-01 0.12500000E+03</pdfrwt>
<totfact> 0.65925723E+06</totfact>
</mgrwt>
</event>
<event>
 3    1  0.1595726E-001  0.1250000E+03  0.7546771E-02  0.1235069E+00
         21   -1    0    0  502  501  0.00000000000E+00  0.00000000000E+00  0.40013293205E+02  0.40013293205E+02  0.00000000000E+00 0. -1.
         21   -1    0    0  501  502 -0.00000000000E+00 -0.00000000000E+00 -0.97623806668E+02  0.97623806668E+02  0.00000000000E+00 0. -1.
         25    1    1    2    0    0  0.00000000000E+00  0.00000000000E+00 -0.57610513463E+02  0.13763709987E+03  0.12500000000E+03 0.  0.
<mgrwt>
<rscale>  0 0.12500000E+03</rscale>
<asrwt>0</asrwt>
<pdfrwt beam="1">  1       21 0.61558914E-02 0.12500000E+03</pdfrwt>
<pdfrwt beam="2">  1       21 0.15019047E-01 0.12500000E+03</pdfrwt>
<totfact> 0.72349148E+06</totfact>
</mgrwt>
</event>
<event>
 3    1  0.1595726E-001  0.1250000E+03  0.7546771E-02  0.1235069E+00
         21   -1    0    0  502  501  0.00000000000E+00  0.00000000000E+00  0.75911504102E+02  0.75911504102E+02  0.00000000000E+00 0. -1.
         21   -1    0    0  501  502 -0.00000000000E+00 -0.00000000000E+00 -0.51457944961E+02  0.51457944961E+02  0.00000000000E+00 0. -1.
         25    1    1    2    0    0  0.00000000000E+00  0.00000000000E+00  0.24453559141E+02  0.12736944906E+03  0.12500000000E+03 0.  0.
<mgrwt>
<rscale>  0 0.12500000E+03</rscale>
<asrwt>0</asrwt>
<pdfrwt beam="1">  1       21 0.11678693E-01 0.12500000E+03</pdfrwt>
<pdfrwt beam="2">  1       21 0.79166070E-02 0.12500000E+03</pdfrwt>
<totfact> 0.73718925E+06</totfact>
</mgrwt>
</event>
<event>
 3    1  0.1595726E-001  0.1250000E+03  0.7546771E-02  0.1235069E+00
         21   -1    0    0  502  501  0.00000000000E+00  0.00000000000E+00  0.98341391578E+01  0.98341391578E+01  0.00000000000E+00 0. -1.
         21   -1    0    0  501  502 -0.00000000000E+00 -0.00000000000E+00 -0.39721321179E+03  0.39721321179E+03  0.00000000000E+00 0. -1.
         25    1    1    2    0    0  0.00000000000E+00  0.00000000000E+00 -0.38737907263E+03  0.40704735094E+03  0.12500000000E+03 0.  0.
<mgrwt>
<rscale>  0 0.12500000E+03</rscale>
<asrwt>0</asrwt>
<pdfrwt beam="1">  1       21 0.15129445E-02 0.12500000E+03</pdfrwt>
<pdfrwt beam="2">  1       21 0.61109724E-01 0.12500000E+03</pdfrwt>
<totfact> 0.47577394E+06</totfact>
</mgrwt>
</event>
<event>
 3    1  0.1595726E-001  0.1250000E+03  0.7546771E-02  0.1235069E+00
         21   -1    0    0  502  501  0.00000000000E+00  0.00000000000E+00  0.94883157141E+02  0.94883157141E+02  0.00000000000E+00 0.  1.
         21   -1    0    0  501  502 -0.00000000000E+00 -0.00000000000E+00 -0.41169055897E+02  0.41169055897E+02  0.00000000000E+00 0.  1.
         25    1    1    2    0    0  0.00000000000E+00  0.00000000000E+00  0.53714101244E+02  0.13605221304E+03  0.12500000000E+03 0.  0.
<mgrwt>
<rscale>  0 0.12500000E+03</rscale>
<asrwt>0</asrwt>
<pdfrwt beam="1">  1       21 0.14597409E-01 0.12500000E+03</pdfrwt>
<pdfrwt beam="2">  1       21 0.63337009E-02 0.12500000E+03</pdfrwt>
<totfact> 0.72557451E+06</totfact>
</mgrwt>
</event>
<event>
 3    1  0.1595726E-001  0.1250000E+03  0.7546771E-02  0.1235069E+00
         21   -1    0    0  502  501  0.00000000000E+00  0.00000000000E+00  0.77675236562E+02  0.77675236562E+02  0.00000000000E+00 0.  1.
         21   -1    0    0  501  502 -0.00000000000E+00 -0.00000000000E+00 -0.50289515332E+02  0.50289515332E+02  0.00000000000E+00 0.  1.
         25    1    1    2    0    0  0.00000000000E+00  0.00000000000E+00  0.27385721231E+02  0.12796475189E+03  0.12500000000E+03 0.  0.
<mgrwt>
<rscale>  0 0.12500000E+03</rscale>
<asrwt>0</asrwt>
<pdfrwt beam="1">  1       21 0.11950036E-01 0.12500000E+03</pdfrwt>
<pdfrwt beam="2">  1       21 0.77368485E-02 0.12500000E+03</pdfrwt>
<totfact> 0.73638321E+06</totfact>
</mgrwt>
</event>
<event>
 3    1  0.1595726E-001  0.1250000E+03  0.7546771E-02  0.1235069E+00
         21   -1    0    0  502  501  0.00000000000E+00  0.00000000000E+00  0.16233501202E+03  0.16233501202E+03  0.00000000000E+00 0. -1.
         21   -1    0    0  501  502 -0.00000000000E+00 -0.00000000000E+00 -0.24062892849E+02  0.24062892849E+02  0.00000000000E+00 0. -1.
         25    1    1    2    0    0  0.00000000000E+00  0.00000000000E+00  0.13827211917E+03  0.18639790487E+03  0.12500000000E+03 0.  0.
<mgrwt>
<rscale>  0 0.12500000E+03</rscale>
<asrwt>0</asrwt>
<pdfrwt beam="1">  1       21 0.24974617E-01 0.12500000E+03</pdfrwt>
<pdfrwt beam="2">  1       21 0.37019836E-02 0.12500000E+03</pdfrwt>
<totfact> 0.66425060E+06</totfact>
</mgrwt>
</event>
<event>
 3    1  0.1595726E-001  0.1250000E+03  0.7546771E-02  0.1235069E+00
         21   -1    0    0  502  501  0.00000000000E+00  0.00000000000E+00  0.41420563604E+02  0.41420563604E+02  0.00000000000E+00 0. -1.
         21   -1    0    0  501  502 -0.00000000000E+00 -0.00000000000E+00 -0.94307021926E+02  0.94307021926E+02  0.00000000000E+00 0. -1.
         25    1    1    2    0    0  0.00000000000E+00  0.00000000000E+00 -0.52886458322E+02  0.13572758553E+03  0.12500000000E+03 0.  0.
<mgrwt>
<rscale>  0 0.12500000E+03</rscale>
<asrwt>0</asrwt>
<pdfrwt beam="1">  1       21 0.63723944E-02 0.12500000E+03</pdfrwt>
<pdfrwt beam="2">  1       21 0.14508773E-01 0.12500000E+03</pdfrwt>
<totfact> 0.72600278E+06</totfact>
</mgrwt>
</event>
<event>
 3    1  0.1595726E-001  0.1250000E+03  0.7546771E-02  0.1235069E+00
         21   -1    0    0  502  501  0.00000000000E+00  0.00000000000E+00  0.13386030093E+02  0.13386030093E+02  0.00000000000E+00 0. -1.
         21   -1    0    0  501  502 -0.00000000000E+00 -0.00000000000E+00 -0.29181542047E+03  0.29181542047E+03  0.00000000000E+00 0. -1.
         25    1    1    2    0    0  0.00000000000E+00  0.00000000000E+00 -0.27842939037E+03  0.30520145056E+03  0.12500000000E+03 0.  0.
<mgrwt>
<rscale>  0 0.12500000E+03</rscale>
<asrwt>0</asrwt>
<pdfrwt beam="1">  1       21 0.20593892E-02 0.12500000E+03</pdfrwt>
<pdfrwt beam="2">  1       21 0.44894682E-01 0.12500000E+03</pdfrwt>
<totfact> 0.55026663E+06</totfact>
</mgrwt>
</event>
<event>
 3    1  0.1595726E-001  0.1250000E+03  0.7546771E-02  0.1235069E+00
         21   -1    0    0  502  501  0.00000000000E+00  0.00000000000E+00  0.40708571503E+01  0.40708571503E+01  0.00000000000E+00 0.  1.
         21   -1    0    0  501  502 -0.00000000000E+00 -0.00000000000E+00 -0.95956449853E+03  0.95956449853E+03  0.00000000000E+00 0.  1.
         25    1    1    2    0    0  0.00000000000E+00  0.00000000000E+00 -0.95549364138E+03  0.96363535568E+03  0.12500000000E+03 0.  0.
<mgrwt>
<rscale>  0 0.12500000E+03</rscale>
<asrwt>0</asrwt>
<pdfrwt beam="1">  1       21 0.62628601E-03 0.12500000E+03</pdfrwt>
<pdfrwt beam="2">  1       21 0.14762524E+00 0.12500000E+03</pdfrwt>
<totfact> 0.24549867E+06</totfact>
</mgrwt>
</event>
<event>
 3    1  0.1595726E-001  0.1250000E+03  0.7546771E-02  0.1235069E+00
         21   -1    0    0  502  501  0.00000000000E+00  0.00000000000E+00  0.19098729557E+02  0.19098729557E+02  0.00000000000E+00 0. -1.
         21   -1    0    0  501  502 -0.00000000000E+00 -0.00000000000E+00 -0.20452931114E+03  0.20452931114E+03  0.00000000000E+00 0. -1.
         25    1    1    2    0    0  0.00000000000E+00  0.00000000000E+00 -0.18543058158E+03  0.22362804070E+03  0.12500000000E+03 0.  0.
<mgrwt>
<rscale>  0 0.12500000E+03</rscale>
<asrwt>0</asrwt>
<pdfrwt beam="1">  1       21 0.29382663E-02 0.12500000E+03</pdfrwt>
<pdfrwt beam="2">  1       21 0.31466046E-01 0.12500000E+03</pdfrwt>
<totfact> 0.62453616E+06</totfact>
</mgrwt>
</event>
<event>
 3    1  0.1595726E-001  0.1250000E+03  0.7546771E-02  0.1235069E+00
         21   -1    0    0  502  501  0.00000000000E+00  0.00000000000E+00  0.32251907862E+02  0.32251907862E+02  0.00000000000E+00 0.  1.
         21   -1    0    0  501  502 -0.00000000000E+00 -0.00000000000E+00 -0.12111686591E+03  0.12111686591E+03  0.00000000000E+00 0.  1.
         25    1    1    2    0    0  0.00000000000E+00  0.00000000000E+00 -0.88864958052E+02  0.15336877378E+03  0.12500000000E+03 0.  0.
<mgrwt>
<rscale>  0 0.12500000E+03</rscale>
<asrwt>0</asrwt>
<pdfrwt beam="1">  1       21 0.49618319E-02 0.12500000E+03</pdfrwt>
<pdfrwt beam="2">  1       21 0.18633364E-01 0.12500000E+03</pdfrwt>
<totfact> 0.70338542E+06</totfact>
</mgrwt>
</event>
<event>
 3    1  0.1595726E-001  0.1250000E+03  0.7546771E-02  0.1235069E+00
         21   -1    0    0  502  501  0.00000000000E+00  0.00000000000E+00  0.21459714189E+02  0.21459714189E+02  0.00000000000E+00 0. -1.
         21   -1    0    0  501  502 -0.00000000000E+00 -0.00000000000E+00 -0.18202712141E+03  0.18202712141E+03  0.00000000000E+00 0. -1.
         25    1    1    2    0    0  0.00000000000E+00  0.00000000000E+00 -0.16056740722E+03  0.20348683560E+03  0.12500000000E+03 0.  0.
<mgrwt>
<rscale>  0 0.12500000E+03</rscale>
<asrwt>0</asrwt>
<pdfrwt beam="1">  1       21 0.33014944E-02 0.12500000E+03</pdfrwt>
<pdfrwt beam="2">  1       21 0.28004174E-01 0.12500000E+03</pdfrwt>
<totfact> 0.64551377E+06</totfact>
</mgrwt>
</event>
<event>
 3    1  0.1595726E-001  0.1250000E+03  0.7546771E-02  0.1235069E+00
         21   -1    0    0  502  501  0.00000000000E+00  0.00000000000E+00  0.10161677150E+04  0.10161677150E+04  0.00000000000E+00 0.  1.
         21   -1    0    0  501  502 -0.00000000000E+00 -0.00000000000E+00 -0.38440996916E+01  0.38440996916E+01  0.00000000000E+00 0.  1.
         25    1    1    2    0    0  0.00000000000E+00  0.00000000000E+00  0.10123236153E+04  0.10200118147E+04  0.12500000000E+03 0.  0.
<mgrwt>
<rscale>  0 0.12500000E+03</rscale>
<asrwt>0</asrwt>
<pdfrwt beam="1">  1       21 0.15633328E+00 0.12500000E+03</pdfrwt>
<pdfrwt beam="2">  1       21 0.59140076E-03 0.12500000E+03</pdfrwt>
<totfact> 0.23123189E+06</totfact>
</mgrwt>
</event>
<event>
 3    1  0.1595726E-001  0.1250000E+03  0.7546771E-02  0.1235069E+00
         21   -1    0    0  502  501  0.00000000000E+00  0.00000000000E+00  0.50295003717E+02  0.50295003717E+02  0.00000000000E+00 0.  1.
         21   -1    0    0  501  502 -0.00000000000E+00 -0.00000000000E+00 -0.77666760340E+02  0.77666760340E+02  0.00000000000E+00 0.  1.
         25    1    1    2    0    0  0.00000000000E+00  0.00000000000E+00 -0.27371756622E+02  0.12796176406E+03  0.12500000000E+03 0.  0.
<mgrwt>
<rscale>  0 0.12500000E+03</rscale>
<asrwt>0</asrwt>
<pdfrwt beam="1">  1       21 0.77376929E-02 0.12500000E+03</pdfrwt>
<pdfrwt beam="2">  1       21 0.11948732E-01 0.12500000E+03</pdfrwt>
<totfact> 0.73638725E+06</totfact>
</mgrwt>
</event>
<event>
 3    1  0.1595726E-001  0.1250000E+03  0.7546771E-02  0.1235069E+00
         21   -1    0    0  502  501  0.00000000000E+00  0.00000000000E+00  0.64030018158E+03  0.64030018158E+03  0.00000000000E+00 0.  1.
         21   -1    0    0  501  502 -0.00000000000E+00 -0.00000000000E+00 -0.61006542124E+01  0.61006542124E+01  0.00000000000E+00 0.  1.
         25    1    1    2    0    0  0.00000000000E+00  0.00000000000E+00  0.63419952737E+03  0.64640083580E+03  0.12500000000E+03 0.  0.
<mgrwt>
<rscale>  0 0.12500000E+03</rscale>
<asrwt>0</asrwt>
<pdfrwt beam="1">  1       21 0.98507667E-01 0.12500000E+03</pdfrwt>
<pdfrwt beam="2">  1       21 0.93856269E-03 0.12500000E+03</pdfrwt>
<totfact> 0.35074677E+06</totfact>
</mgrwt>
</event>
<event>
 3    1  0.1595726E-001  0.1250000E+03  0.7546771E-02  0.1235069E+00
         21   -1    0    0  502  501  0.00000000000E+00  0.00000000000E+00  0.13515188181E+03  0.13515188181E+03  0.00000000000E+00 0.  1.
         21   -1    0    0  501  502 -0.00000000000E+00 -0.00000000000E+00 -0.28902668226E+02  0.28902668226E+02  0.00000000000E+00 0.  1.
         25    1    1    2    0    0  0.00000000000E+00  0.00000000000E+00  0.10624921358E+03  0.16405455003E+03  0.12500000000E+03 0.  0.
<mgrwt>
<rscale>  0 0.12500000E+03</rscale>
<asrwt>0</asrwt>
<pdfrwt beam="1">  1       21 0.20792597E-01 0.12500000E+03</pdfrwt>
<pdfrwt beam="2">  1       21 0.44465644E-02 0.12500000E+03</pdfrwt>
<totfact> 0.69027437E+06</totfact>
</mgrwt>
</event>
<event>
 3    1  0.1595726E-001  0.1250000E+03  0.7546771E-02  0.1235069E+00
         21   -1    0    0  502  501  0.00000000000E+00  0.00000000000E+00  0.28787530344E+03  0.28787530344E+03  0.00000000000E+00 0.  1.
         21   -1    0    0  501  502 -0.00000000000E+00 -0.00000000000E+00 -0.13569243187E+02  0.13569243187E+02  0.00000000000E+00 0.  1.
         25    1    1    2    0    0  0.00000000000E+00  0.00000000000E+00  0.27430606025E+03  0.30144454663E+03  0.12500000000E+03 0.  0.
<mgrwt>
<rscale>  0 0.12500000E+03</rscale>
<asrwt>0</asrwt>
<pdfrwt beam="1">  1       21 0.44288504E-01 0.12500000E+03</pdfrwt>
<pdfrwt beam="2">  1       21 0.20875761E-02 0.12500000E+03</pdfrwt>
<totfact> 0.55336342E+06</totfact>
</mgrwt>
</event>
<event>
 3    1  0.1595726E-001  0.1250000E+03  0.7546771E-02  0.1235069E+00
         21   -1    0    0  502  501  0.00000000000E+00  0.00000000000E+00  0.11255888117E+03  0.11255888117E+03  0.00000000000E+00 0. -1.
         21   -1    0    0  501  502 -0.00000000000E+00 -0.00000000000E+00 -0.34704058529E+02  0.34704058529E+02  0.00000000000E+00 0. -1.
         25    1    1    2    0    0  0.00000000000E+00  0.00000000000E+00  0.77854822639E+02  0.14726293970E+03  0.12500000000E+03 0.  0.
<mgrwt>
<rscale>  0 0.12500000E+03</rscale>
<asrwt>0</asrwt>
<pdfrwt beam="1">  1       21 0.17316751E-01 0.12500000E+03</pdfrwt>
<pdfrwt beam="2">  1       21 0.53390860E-02 0.12500000E+03</pdfrwt>
<totfact> 0.71104743E+06</totfact>
</mgrwt>
</event>
<event>
 3    1  0.1595726E-001  0.1250000E+03  0.7546771E-02  0.1235069E+00
         21   -1    0    0  502  501  0.00000000000E+00  0.00000000000E+00  0.25258815164E+03  0.25258815164E+03  0.00000000000E+00 0. -1.
         21   -1    0    0  501  502 -0.00000000000E+00 -0.00000000000E+00 -0.15464897995E+02  0.15464897995E+02  0.00000000000E+00 0. -1.
         25    1    1    2    0    0  0.00000000000E+00  0.00000000000E+00  0.23712325365E+03  0.26805304964E+03  0.12500000000E+03 0.  0.
<mgrwt>
<rscale>  0 0.12500000E+03</rscale>
<asrwt>0</asrwt>
<pdfrwt beam="1">  1       21 0.38859713E-01 0.12500000E+03</pdfrwt>
<pdfrwt beam="2">  1       21 0.23792153E-02 0.12500000E+03</pdfrwt>
<totfact> 0.58218939E+06</totfact>
</mgrwt>
</event>
<event>
 3    1  0.1595726E-001  0.1250000E+03  0.7546771E-02  0.1235069E+00
         21   -1    0    0  502  501  0.00000000000E+00  0.00000000000E+00  0.19826639420E+02  0.19826639420E+02  0.00000000000E+00 0. -1.
         21   -1    0    0  501  502 -0.00000000000E+00 -0.00000000000E+00 -0.19702027748E+03  0.19702027748E+03  0.00000000000E+00 0. -1.
         25    1    1    2    0    0  0.00000000000E+00  0.00000000000E+00 -0.17719363806E+03  0.21684691690E+03  0.12500000000E+03 0.  0.
<mgrwt>
<rscale>  0 0.12500000E+03</rscale>
<asrwt>0</asrwt>
<pdfrwt beam="1">  1       21 0.30502522E-02 0.12500000E+03</pdfrwt>
<pdfrwt beam="2">  1       21 0.30310812E-01 0.12500000E+03</pdfrwt>
<totfact> 0.63146284E+06</totfact>
</mgrwt>
</event>
<event>
 3    1  0.1595726E-001  0.1250000E+03  0.7546771E-02  0.1235069E+00
         21   -1    0    0  502  501  0.00000000000E+00  0.00000000000E+00  0.11716426844E+03  0.11716426844E+03  0.00000000000E+00 0. -1.
         21   -1    0    0  501  502 -0.00000000000E+00 -0.00000000000E+00 -0.33339942733E+02  0.33339942733E+02  0.00000000000E+00 0. -1.
         25    1    1    2    0    0  0.00000000000E+00  0.00000000000E+00  0.83824325705E+02  0.15050421117E+03  0.12500000000E+03 0.  0.
<mgrwt>
<rscale>  0 0.12500000E+03</rscale>
<asrwt>0</asrwt>
<pdfrwt beam="1">  1       21 0.18025272E-01 0.12500000E+03</pdfrwt>
<pdfrwt beam="2">  1       21 0.51292220E-02 0.12500000E+03</pdfrwt>
<totfact> 0.70695921E+06</totfact>
</mgrwt>
</event>
<event>
 3    1  0.1595726E-001  0.1250000E+03  0.7546771E-02  0.1235069E+00
         21   -1    0    0  502  501  0.00000000000E+00  0.00000000000E+00  0.22038391941E+03  0.22038391941E+03  0.00000000000E+00 0.  1.
         21   -1    0    0  501  502 -0.00000000000E+00 -0.00000000000E+00 -0.17724750565E+02  0.17724750565E+02  0.00000000000E+00 0.  1.
         25    1    1    2    0    0  0.00000000000E+00  0.00000000000E+00  0.20265916884E+03  0.23810866997E+03  0.12500000000E+03 0.  0.
<mgrwt>
<rscale>  0 0.12500000E+03</rscale>
<asrwt>0</asrwt>
<pdfrwt beam="1">  1       21 0.33905216E-01 0.12500000E+03</pdfrwt>
<pdfrwt beam="2">  1       21 0.27268849E-02 0.12500000E+03</pdfrwt>
<totfact> 0.61016165E+06</totfact>
</mgrwt>
</event>
<event>
 3    1  0.1595726E-001  0.1250000E+03  0.7546771E-02  0.1235069E+00
         21   -1    0    0  502  501  0.00000000000E+00  0.00000000000E+00  0.25315647589E+03  0.25315647589E+03  0.00000000000E+00 0. -1.
         21   -1    0    0  501  502 -0.00000000000E+00 -0.00000000000E+00 -0.15430180035E+02  0.15430180035E+02  0.00000000000E+00 0. -1.
         25    1    1    2    0    0  0.00000000000E+00  0.00000000000E+00  0.23772629586E+03  0.26858665593E+03  0.12500000000E+03 0.  0.
<mgrwt>
<rscale>  0 0.12500000E+03</rscale>
<asrwt>0</asrwt>
<pdfrwt beam="1">  1       21 0.38947147E-01 0.12500000E+03</pdfrwt>
<pdfrwt beam="2">  1       21 0.23738740E-02 0.12500000E+03</pdfrwt>
<totfact> 0.58171088E+06</totfact>
</mgrwt>
</event>
<event>
 3    1  0.1595726E-001  0.1250000E+03  0.7546771E-02  0.1235069E+00
         21   -1    0    0  502  501  0.00000000000E+00  0.00000000000E+00  0.75384000718E+02  0.75384000718E+02  0.00000000000E+00 0. -1.
         21   -1    0    0  501  502 -0.00000000000E+00 -0.00000000000E+00 -0.51818024551E+02  0.51818024551E+02  0.00000000000E+00 0. -1.
         25    1    1    2    0    0  0.00000000000E+00  0.00000000000E+00  0.23565976167E+02  0.12720202527E+03  0.12500000000E+03 0.  0.
<mgrwt>
<rscale>  0 0.12500000E+03</rscale>
<asrwt>0</asrwt>
<pdfrwt beam="1">  1       21 0.11597539E-01 0.12500000E+03</pdfrwt>
<pdfrwt beam="2">  1       21 0.79720037E-02 0.12500000E+03</pdfrwt>
<totfact> 0.73741659E+06</totfact>
</mgrwt>
</event>
<event>
 3    1  0.1595726E-001  0.1250000E+03  0.7546771E-02  0.1235069E+00
         21   -1    0    0  502  501  0.00000000000E+00  0.00000000000E+00  0.17596110180E+03  0.17596110180E+03  0.00000000000E+00 0.  1.
         21   -1    0    0  501  502 -0.00000000000E+00 -0.00000000000E+00 -0.22199508641E+02  0.22199508641E+02  0.00000000000E+00 0.  1.
         25    1    1    2    0    0  0.00000000000E+00  0.00000000000E+00  0.15376159316E+03  0.19816061044E+03  0.12500000000E+03 0.  0.
<mgrwt>
<rscale>  0 0.12500000E+03</rscale>
<asrwt>0</asrwt>
<pdfrwt beam="1">  1       21 0.27070938E-01 0.12500000E+03</pdfrwt>
<pdfrwt beam="2">  1       21 0.34153091E-02 0.12500000E+03</pdfrwt>
<totfact> 0.65126753E+06</totfact>
</mgrwt>
</event>
<event>
 3    1  0.1595726E-001  0.1250000E+03  0.7546771E-02  0.1235069E+00
         21   -1    0    0  502  501  0.00000000000E+00  0.00000000000E+00  0.16860782420E+03  0.16860782420E+03  0.00000000000E+00 0.  1.
         21   -1    0    0  501  502 -0.00000000000E+00 -0.00000000000E+00 -0.23167667448E+02  0.23167667448E+02  0.00000000000E+00 0.  1.
         25    1    1    2    0    0  0.00000000000E+00  0.00000000000E+00  0.14544015675E+03  0.19177549164E+03  0.12500000000E+03 0.  0.
<mgrwt>
<rscale>  0 0.12500000E+03</rscale>
<asrwt>0</asrwt>
<pdfrwt beam="1">  1       21 0.25939664E-01 0.12500000E+03</pdfrwt>
<pdfrwt beam="2">  1       21 0.35642566E-02 0.12500000E+03</pdfrwt>
<totfact> 0.65825677E+06</totfact>
</mgrwt>
</event>
<event>
 3    1  0.1595726E-001  0.1250000E+03  0.7546771E-02  0.1235069E+00
         21   -1    0    0  502  501  0.00000000000E+00  0.00000000000E+00  0.78309986684E+02  0.78309986684E+02  0.00000000000E+00 0.  1.
         21   -1    0    0  501  502 -0.00000000000E+00 -0.00000000000E+00 -0.49881888191E+02  0.49881888191E+02  0.00000000000E+00 0.  1.
         25    1    1    2    0    0  0.00000000000E+00  0.00000000000E+00  0.28428098494E+02  0.12819187487E+03  0.12500000000E+03 0.  0.
<mgrwt>
<rscale>  0 0.12500000E+03</rscale>
<asrwt>0</asrwt>
<pdfrwt beam="1">  1       21 0.12047690E-01 0.12500000E+03</pdfrwt>
<pdfrwt beam="2">  1       21 0.76741366E-02 0.12500000E+03</pdfrwt>
<totfact> 0.73607656E+06</totfact>
</mgrwt>
</event>
<event>
 3    1  0.1595726E-001  0.1250000E+03  0.7546771E-02  0.1235069E+00
         21   -1    0    0  502  501  0.00000000000E+00  0.00000000000E+00  0.19536820194E+01  0.19536820194E+01  0.00000000000E+00 0.  1.
         21   -1    0    0  501  502 -0.00000000000E+00 -0.00000000000E+00 -0.19994297747E+04  0.19994297747E+04  0.00000000000E+00 0.  1.
         25    1    1    2    0    0  0.00000000000E+00  0.00000000000E+00 -0.19974760927E+04  0.20013834567E+04  0.12500000000E+03 0.  0.
<mgrwt>
<rscale>  0 0.12500000E+03</rscale>
<asrwt>0</asrwt>
<pdfrwt beam="1">  1       21 0.30056595E-03 0.12500000E+03</pdfrwt>
<pdfrwt beam="2">  1       21 0.30760511E+00 0.12500000E+03</pdfrwt>
<totfact> 0.79344185E+05</totfact>
</mgrwt>
</event>
<event>
 3    1  0.1595726E-001  0.1250000E+03  0.7546771E-02  0.1235069E+00
         21   -1    0    0  502  501  0.00000000000E+00  0.00000000000E+00  0.52515976098E+02  0.52515976098E+02  0.00000000000E+00 0. -1.
         21   -1    0    0  501  502 -0.00000000000E+00 -0.00000000000E+00 -0.74382126931E+02  0.74382126931E+02  0.00000000000E+00 0. -1.
         25    1    1    2    0    0  0.00000000000E+00  0.00000000000E+00 -0.21866150833E+02  0.12689810303E+03  0.12500000000E+03 0.  0.
<mgrwt>
<rscale>  0 0.12500000E+03</rscale>
<asrwt>0</asrwt>
<pdfrwt beam="1">  1       21 0.80793810E-02 0.12500000E+03</pdfrwt>
<pdfrwt beam="2">  1       21 0.11443404E-01 0.12500000E+03</pdfrwt>
<totfact> 0.73783014E+06</totfact>
</mgrwt>
</event>
<event>
 3    1  0.1595726E-001  0.1250000E+03  0.7546771E-02  0.1235069E+00
         21   -1    0    0  502  501  0.00000000000E+00  0.00000000000E+00  0.48613256226E+03  0.48613256226E+03  0.00000000000E+00 0.  1.
         21   -1    0    0  501  502 -0.00000000000E+00 -0.00000000000E+00 -0.80353597007E+01  0.80353597007E+01  0.00000000000E+00 0.  1.
         25    1    1    2    0    0  0.00000000000E+00  0.00000000000E+00  0.47809720256E+03  0.49416792196E+03  0.12500000000E+03 0.  0.
<mgrwt>
<rscale>  0 0.12500000E+03</rscale>
<asrwt>0</asrwt>
<pdfrwt beam="1">  1       21 0.74789602E-01 0.12500000E+03</pdfrwt>
<pdfrwt beam="2">  1       21 0.12362096E-02 0.12500000E+03</pdfrwt>
<totfact> 0.42362141E+06</totfact>
</mgrwt>
</event>
<event>
 3    1  0.1595726E-001  0.1250000E+03  0.7546771E-02  0.1235069E+00
         21   -1    0    0  502  501  0.00000000000E+00  0.00000000000E+00  0.60421694979E+03  0.60421694979E+03  0.00000000000E+00 0.  1.
         21   -1    0    0  501  502 -0.00000000000E+00 -0.00000000000E+00 -0.64649791790E+01  0.64649791790E+01  0.00000000000E+00 0.  1.
         25    1    1    2    0    0  0.00000000000E+00  0.00000000000E+00  0.59775197061E+03  0.61068192897E+03  0.12500000000E+03 0.  0.
<mgrwt>
<rscale>  0 0.12500000E+03</rscale>
<asrwt>0</asrwt>
<pdfrwt beam="1">  1       21 0.92956410E-01 0.12500000E+03</pdfrwt>
<pdfrwt beam="2">  1       21 0.99461265E-03 0.12500000E+03</pdfrwt>
<totfact> 0.36613980E+06</totfact>
</mgrwt>
</event>
<event>
 3    1  0.1595726E-001  0.1250000E+03  0.7546771E-02  0.1235069E+00
         21   -1    0    0  502  501  0.00000000000E+00  0.00000000000E+00  0.45429352981E+02  0.45429352981E+02  0.00000000000E+00 0. -1.
         21   -1    0    0  501  502 -0.00000000000E+00 -0.00000000000E+00 -0.85985155933E+02  0.85985155933E+02  0.00000000000E+00 0. -1.
         25    1    1    2    0    0  0.00000000000E+00  0.00000000000E+00 -0.40555802952E+02  0.13141450891E+03  0.12500000000E+03 0.  0.
<mgrwt>
<rscale>  0 0.12500000E+03</rscale>
<asrwt>0</asrwt>
<pdfrwt beam="1">  1       21 0.69891313E-02 0.12500000E+03</pdfrwt>
<pdfrwt beam="2">  1       21 0.13228485E-01 0.12500000E+03</pdfrwt>
<totfact> 0.73174867E+06</totfact>
</mgrwt>
</event>
<event>
 3    1  0.1595726E-001  0.1250000E+03  0.7546771E-02  0.1235069E+00
         21   -1    0    0  502  501  0.00000000000E+00  0.00000000000E+00  0.10213952231E+02  0.10213952231E+02  0.00000000000E+00 0. -1.
         21   -1    0    0  501  502 -0.00000000000E+00 -0.00000000000E+00 -0.38244255620E+03  0.38244255620E+03  0.00000000000E+00 0. -1.
         25    1    1    2    0    0  0.00000000000E+00  0.00000000000E+00 -0.37222860397E+03  0.39265650843E+03  0.12500000000E+03 0.  0.
<mgrwt>
<rscale>  0 0.12500000E+03</rscale>
<asrwt>0</asrwt>
<pdfrwt beam="1">  1       21 0.15713775E-02 0.12500000E+03</pdfrwt>
<pdfrwt beam="2">  1       21 0.58837309E-01 0.12500000E+03</pdfrwt>
<totfact> 0.48532284E+06</totfact>
</mgrwt>
</event>
<event>
 3    1  0.1595726E-001  0.1250000E+03  0.7546771E-02  0.1235069E+00
         21   -1    0    0  502  501  0.00000000000E+00  0.00000000000E+00  0.22437737526E+02  0.22437737526E+02  0.00000000000E+00 0.  1.
         21   -1    0    0  501  502 -0.00000000000E+00 -0.00000000000E+00 -0.17409286455E+03  0.17409286455E+03  0.00000000000E+00 0.  1.
         25    1    1    2    0    0  0.00000000000E+00  0.00000000000E+00 -0.15165512703E+03  0.19653060208E+03  0.12500000000E+03 0.  0.
<mgrwt>
<rscale>  0 0.12500000E+03</rscale>
<asrwt>0</asrwt>
<pdfrwt beam="1">  1       21 0.34519595E-02 0.12500000E+03</pdfrwt>
<pdfrwt beam="2">  1       21 0.26783518E-01 0.12500000E+03</pdfrwt>
<totfact> 0.65303891E+06</totfact>
</mgrwt>
</event>
<event>
 3    1  0.1595726E-001  0.1250000E+03  0.7546771E-02  0.1235069E+00
         21   -1    0    0  502  501  0.00000000000E+00  0.00000000000E+00  0.23162110079E+02  0.23162110079E+02  0.00000000000E+00 0.  1.
         21   -1    0    0  501  502 -0.00000000000E+00 -0.00000000000E+00 -0.16864827888E+03  0.16864827888E+03  0.00000000000E+00 0.  1.
         25    1    1    2    0    0  0.00000000000E+00  0.00000000000E+00 -0.14548616880E+03  0.19181038896E+03  0.12500000000E+03 0.  0.
<mgrwt>
<rscale>  0 0.12500000E+03</rscale>
<asrwt>0</asrwt>
<pdfrwt beam="1">  1       21 0.35634017E-02 0.12500000E+03</pdfrwt>
<pdfrwt beam="2">  1       21 0.25945888E-01 0.12500000E+03</pdfrwt>
<totfact> 0.65821820E+06</totfact>
</mgrwt>
</event>
<event>
 3    1  0.1595726E-001  0.1250000E+03  0.7546771E-02  0.1235069E+00
         21   -1    0    0  502  501  0.00000000000E+00  0.00000000000E+00  0.24722956956E+03  0.24722956956E+03  0.00000000000E+00 0.  1.
         21   -1    0    0  501  502 -0.00000000000E+00 -0.00000000000E+00 -0.15800092226E+02  0.15800092226E+02  0.00000000000E+00 0.  1.
         25    1    1    2    0    0  0.00000000000E+00  0.00000000000E+00  0.23142947733E+03  0.26302966178E+03  0.12500000000E+03 0.  0.
<mgrwt>
<rscale>  0 0.12500000E+03</rscale>
<asrwt>0</asrwt>
<pdfrwt beam="1">  1       21 0.38035315E-01 0.12500000E+03</pdfrwt>
<pdfrwt beam="2">  1       21 0.24307836E-02 0.12500000E+03</pdfrwt>
<totfact> 0.58672696E+06</totfact>
</mgrwt>
</event>
<event>
 3    1  0.1595726E-001  0.1250000E+03  0.7546771E-02  0.1235069E+00
         21   -1    0    0  502  501  0.00000000000E+00  0.00000000000E+00  0.27598425283E+03  0.27598425283E+03  0.00000000000E+00 0. -1.
         21   -1    0    0  501  502 -0.00000000000E+00 -0.00000000000E+00 -0.14153887259E+02  0.14153887259E+02  0.00000000000E+00 0. -1.
         25    1    1    2    0    0  0.00000000000E+00  0.00000000000E+00  0.26183036557E+03  0.29013814009E+03  0.12500000000E+03 0.  0.
<mgrwt>
<rscale>  0 0.12500000E+03</rscale>
<asrwt>0</asrwt>
<pdfrwt beam="1">  1       21 0.42459112E-01 0.12500000E+03</pdfrwt>
<pdfrwt beam="2">  1       21 0.21775213E-02 0.12500000E+03</pdfrwt>
<totfact> 0.56285823E+06</totfact>
</mgrwt>
</event>
<event>
 3    1  0.1595726E-001  0.1250000E+03  0.7546771E-02  0.1235069E+00
         21   -1    0    0  502  501  0.00000000000E+00  0.00000000000E+00  0.75438229118E+02  0.75438229118E+02  0.00000000000E+00 0. -1.
         21   -1    0    0  501  502 -0.00000000000E+00 -0.00000000000E+00 -0.51780775420E+02  0.51780775420E+02  0.00000000000E+00 0. -1.
         25    1    1    2    0    0  0.00000000000E+00  0.00000000000E+00  0.23657453698E+02  0.12721900454E+03  0.12500000000E+03 0.  0.
<mgrwt>
<rscale>  0 0.12500000E+03</rscale>
<asrwt>0</asrwt>
<pdfrwt beam="1">  1       21 0.11605881E-01 0.12500000E+03</pdfrwt>
<pdfrwt beam="2">  1       21 0.79662731E-02 0.12500000E+03</pdfrwt>
<totfact> 0.73739352E+06</totfact>
</mgrwt>
</event>
<event>
 3    1  0.1595726E-001  0.1250000E+03  0.7546771E-02  0.1235069E+00
         21   -1    0    0  502  501  0.00000000000E+00  0.00000000000E+00  0.50206282412E+03  0.50206282412E+03  0.00000000000E+00 0. -1.
         21   -1    0    0  501  502 -0.00000000000E+00 -0.00000000000E+00 -0.77804008031E+01  0.77804008031E+01  0.00000000000E+00 0. -1.
         25    1    1    2    0    0  0.00000000000E+00  0.00000000000E+00  0.49428242332E+03  0.50984322493E+03  0.12500000000E+03 0.  0.
<mgrwt>
<rscale>  0 0.12500000E+03</rscale>
<asrwt>0</asrwt>
<pdfrwt beam="1">  1       21 0.77240409E-01 0.12500000E+03</pdfrwt>
<pdfrwt beam="2">  1       21 0.11969851E-02 0.12500000E+03</pdfrwt>
<totfact> 0.41515241E+06</totfact>
</mgrwt>
</event>
<event>
 3    1  0.1595726E-001  0.1250000E+03  0.7546771E-02  0.1235069E+00
         21   -1    0    0  502  501  0.00000000000E+00  0.00000000000E+00  0.25324264346E+02  0.25324264346E+02  0.00000000000E+00 0. -1.
         21   -1    0    0  501  502 -0.00000000000E+00 -0.00000000000E+00 -0.15424929809E+03  0.15424929809E+03  0.00000000000E+00 0. -1.
         25    1    1    2    0    0  0.00000000000E+00  0.00000000000E+00 -0.12892503374E+03  0.17957356243E+03  0.12500000000E+03 0.  0.
<mgrwt>
<rscale>  0 0.12500000E+03</rscale>
<asrwt>0</asrwt>
<pdfrwt beam="1">  1       21 0.38960408E-02 0.12500000E+03</pdfrwt>
<pdfrwt beam="2">  1       21 0.23730661E-01 0.12500000E+03</pdfrwt>
<totfact> 0.67200490E+06</totfact>
</mgrwt>
</event>
<event>
 3    1  0.1595726E-001  0.1250000E+03  0.7546771E-02  0.1235069E+00
         21   -1    0    0  502  501  0.00000000000E+00  0.00000000000E+00  0.11868268124E+02  0.11868268124E+02  0.00000000000E+00 0. -1.
         21   -1    0    0  501  502 -0.00000000000E+00 -0.00000000000E+00 -0.32913395277E+03  0.32913395277E+03  0.00000000000E+00 0. -1.
         25    1    1    2    0    0  0.00000000000E+00  0.00000000000E+00 -0.31726568464E+03  0.34100222089E+03  0.12500000000E+03 0.  0.
<mgrwt>
<rscale>  0 0.12500000E+03</rscale>
<asrwt>0</asrwt>
<pdfrwt beam="1">  1       21 0.18258876E-02 0.12500000E+03</pdfrwt>
<pdfrwt beam="2">  1       21 0.50635987E-01 0.12500000E+03</pdfrwt>
<totfact> 0.52209889E+06</totfact>
</mgrwt>
</event>
<event>
 3    1  0.1595726E-001  0.1250000E+03  0.7546771E-02  0.1235069E+00
         21   -1    0    0  502  501  0.00000000000E+00  0.00000000000E+00  0.19450549558E+03  0.19450549558E+03  0.00000000000E+00 0. -1.
         21   -1    0    0  501  502 -0.00000000000E+00 -0.00000000000E+00 -0.20082980115E+02  0.20082980115E+02  0.00000000000E+00 0. -1.
         25    1    1    2    0    0  0.00000000000E+00  0.00000000000E+00  0.17442251547E+03  0.21458847570E+03  0.12500000000E+03 0.  0.
<mgrwt>
<rscale>  0 0.12500000E+03</rscale>
<asrwt>0</asrwt>
<pdfrwt beam="1">  1       21 0.29923921E-01 0.12500000E+03</pdfrwt>
<pdfrwt beam="2">  1       21 0.30896894E-02 0.12500000E+03</pdfrwt>
<totfact> 0.63379987E+06</totfact>
</mgrwt>
</event>
<event>
 3    1  0.1595726E-001  0.1250000E+03  0.7546771E-02  0.1235069E+00
         21   -1    0    0  502  501  0.00000000000E+00  0.00000000000E+00  0.61775433676E+02  0.61775433676E+02  0.00000000000E+00 0. -1.
         21   -1    0    0  501  502 -0.00000000000E+00 -0.00000000000E+00 -0.63233064789E+02  0.63233064789E+02  0.00000000000E+00 0. -1.
         25    1    1    2    0    0  0.00000000000E+00  0.00000000000E+00 -0.14576311133E+01  0.12500849846E+03  0.12500000000E+03 0.  0.
<mgrwt>
<rscale>  0 0.12500000E+03</rscale>
<asrwt>0</asrwt>
<pdfrwt beam="1">  1       21 0.95039129E-02 0.12500000E+03</pdfrwt>
<pdfrwt beam="2">  1       21 0.97281638E-02 0.12500000E+03</pdfrwt>
<totfact> 0.74042434E+06</totfact>
</mgrwt>
</event>
<event>
 3    1  0.1595726E-001  0.1250000E+03  0.7546771E-02  0.1235069E+00
         21   -1    0    0  502  501  0.00000000000E+00  0.00000000000E+00  0.31807339428E+02  0.31807339428E+02  0.00000000000E+00 0. -1.
         21   -1    0    0  501  502 -0.00000000000E+00 -0.00000000000E+00 -0.12280970588E+03  0.12280970588E+03  0.00000000000E+00 0. -1.
         25    1    1    2    0    0  0.00000000000E+00  0.00000000000E+00 -0.91002366454E+02  0.15461704531E+03  0.12500000000E+03 0.  0.
<mgrwt>
<rscale>  0 0.12500000E+03</rscale>
<asrwt>0</asrwt>
<pdfrwt beam="1">  1       21 0.48934368E-02 0.12500000E+03</pdfrwt>
<pdfrwt beam="2">  1       21 0.18893801E-01 0.12500000E+03</pdfrwt>
<totfact> 0.70183286E+06</totfact>
</mgrwt>
</event>
<event>
 3    1  0.1595726E-001  0.1250000E+03  0.7546771E-02  0.1235069E+00
         21   -1    0    0  502  501  0.00000000000E+00  0.00000000000E+00  0.68127555742E+02  0.68127555742E+02  0.00000000000E+00 0.  1.
         21   -1    0    0  501  502 -0.00000000000E+00 -0.00000000000E+00 -0.57337298505E+02  0.57337298505E+02  0.00000000000E+00 0.  1.
         25    1    1    2    0    0  0.00000000000E+00  0.00000000000E+00  0.10790257238E+02  0.12546485425E+03  0.12500000000E+03 0.  0.
<mgrwt>
<rscale>  0 0.12500000E+03</rscale>
<asrwt>0</asrwt>
<pdfrwt beam="1">  1       21 0.10481163E-01 0.12500000E+03</pdfrwt>
<pdfrwt beam="2">  1       21 0.88211227E-02 0.12500000E+03</pdfrwt>
<totfact> 0.73980314E+06</totfact>
</mgrwt>
</event>
<event>
 3    1  0.1595726E-001  0.1250000E+03  0.7546771E-02  0.1235069E+00
         21   -1    0    0  502  501  0.00000000000E+00  0.00000000000E+00  0.43234803677E+03  0.43234803677E+03  0.00000000000E+00 0. -1.
         21   -1    0    0  501  502 -0.00000000000E+00 -0.00000000000E+00 -0.90349664340E+01  0.90349664340E+01  0.00000000000E+00 0. -1.
         25    1    1    2    0    0  0.00000000000E+00  0.00000000000E+00  0.42331307034E+03  0.44138300320E+03  0.12500000000E+03 0.  0.
<mgrwt>
<rscale>  0 0.12500000E+03</rscale>
<asrwt>0</asrwt>
<pdfrwt beam="1">  1       21 0.66515066E-01 0.12500000E+03</pdfrwt>
<pdfrwt beam="2">  1       21 0.13899952E-02 0.12500000E+03</pdfrwt>
<totfact> 0.45412357E+06</totfact>
</mgrwt>
</event>
<event>
 3    1  0.1595726E-001  0.1250000E+03  0.7546771E-02  0.1235069E+00
         21   -1    0    0  502  501  0.00000000000E+00  0.00000000000E+00  0.88193726903E+01  0.88193726903E+01  0.00000000000E+00 0.  1.
         21   -1    0    0  501  502 -0.00000000000E+00 -0.00000000000E+00 -0.44291698936E+03  0.44291698936E+03  0.00000000000E+00 0.  1.
         25    1    1    2    0    0  0.00000000000E+00  0.00000000000E+00 -0.43409761667E+03  0.45173636205E+03  0.12500000000E+03 0.  0.
<mgrwt>
<rscale>  0 0.12500000E+03</rscale>
<asrwt>0</asrwt>
<pdfrwt beam="1">  1       21 0.13568267E-02 0.12500000E+03</pdfrwt>
<pdfrwt beam="2">  1       21 0.68141071E-01 0.12500000E+03</pdfrwt>
<totfact> 0.44788553E+06</totfact>
</mgrwt>
</event>
<event>
 3    1  0.1595726E-001  0.1250000E+03  0.7546771E-02  0.1235069E+00
         21   -1    0    0  502  501  0.00000000000E+00  0.00000000000E+00  0.38139842063E+03  0.38139842063E+03  0.00000000000E+00 0.  1.
         21   -1    0    0  501  502 -0.00000000000E+00 -0.00000000000E+00 -0.10241914462E+02  0.10241914462E+02  0.00000000000E+00 0.  1.
         25    1    1    2    0    0  0.00000000000E+00  0.00000000000E+00  0.37115650617E+03  0.39164033510E+03  0.12500000000E+03 0.  0.
<mgrwt>
<rscale>  0 0.12500000E+03</rscale>
<asrwt>0</asrwt>
<pdfrwt beam="1">  1       21 0.58676669E-01 0.12500000E+03</pdfrwt>
<pdfrwt beam="2">  1       21 0.15756794E-02 0.12500000E+03</pdfrwt>
<totfact> 0.48600831E+06</totfact>
</mgrwt>
</event>
<event>
 3    1  0.1595726E-001  0.1250000E+03  0.7546771E-02  0.1235069E+00
         21   -1    0    0  502  501  0.00000000000E+00  0.00000000000E+00  0.60972011222E+01  0.60972011222E+01  0.00000000000E+00 0. -1.
         21   -1    0    0  501  502 -0.00000000000E+00 -0.00000000000E+00 -0.64066280933E+03  0.64066280933E+03  0.00000000000E+00 0. -1.
         25    1    1    2    0    0  0.00000000000E+00  0.00000000000E+00 -0.63456560821E+03  0.64676001045E+03  0.12500000000E+03 0.  0.
<mgrwt>
<rscale>  0 0.12500000E+03</rscale>
<asrwt>0</asrwt>
<pdfrwt beam="1">  1       21 0.93803098E-03 0.12500000E+03</pdfrwt>
<pdfrwt beam="2">  1       21 0.98563506E-01 0.12500000E+03</pdfrwt>
<totfact> 0.35059642E+06</totfact>
</mgrwt>
</event>
<event>
 3    1  0.1595726E-001  0.1250000E+03  0.7546771E-02  0.1235069E+00
         21   -1    0    0  502  501  0.00000000000E+00  0.00000000000E+00  0.84914990056E+02  0.84914990056E+02  0.00000000000E+00 0.  1.
         21   -1    0    0  501  502 -0.00000000000E+00 -0.00000000000E+00 -0.46001889624E+02  0.46001889624E+02  0.00000000000E+00 0.  1.
         25    1    1    2    0    0  0.00000000000E+00  0.00000000000E+00  0.38913100432E+02  0.13091687968E+03  0.12500000000E+03 0.  0.
<mgrwt>
<rscale>  0 0.12500000E+03</rscale>
<asrwt>0</asrwt>
<pdfrwt beam="1">  1       21 0.13063845E-01 0.12500000E+03</pdfrwt>
<pdfrwt beam="2">  1       21 0.70772138E-02 0.12500000E+03</pdfrwt>
<totfact> 0.73241874E+06</totfact>
</mgrwt>
</event>
<event>
 3    1  0.1595726E-001  0.1250000E+03  0.7546771E-02  0.1235069E+00
         21   -1    0    0  502  501  0.00000000000E+00  0.00000000000E+00  0.49212550980E+02  0.49212550980E+02  0.00000000000E+00 0. -1.
         21   -1    0    0  501  502 -0.00000000000E+00 -0.00000000000E+00 -0.79375076524E+02  0.79375076524E+02  0.00000000000E+00 0. -1.
         25    1    1    2    0    0  0.00000000000E+00  0.00000000000E+00 -0.30162525544E+02  0.12858762750E+03  0.12500000000E+03 0.  0.
<mgrwt>
<rscale>  0 0.12500000E+03</rscale>
<asrwt>0</asrwt>
<pdfrwt beam="1">  1       21 0.75711617E-02 0.12500000E+03</pdfrwt>
<pdfrwt beam="2">  1       21 0.12211550E-01 0.12500000E+03</pdfrwt>
<totfact> 0.73554324E+06</totfact>
</mgrwt>
</event>
<event>
 3    1  0.1595726E-001  0.1250000E+03  0.7546771E-02  0.1235069E+00
         21   -1    0    0  502  501  0.00000000000E+00  0.00000000000E+00  0.56251390141E+02  0.56251390141E+02  0.00000000000E+00 0. -1.
         21   -1    0    0  501  502 -0.00000000000E+00 -0.00000000000E+00 -0.69442728264E+02  0.69442728264E+02  0.00000000000E+00 0. -1.
         25    1    1    2    0    0  0.00000000000E+00  0.00000000000E+00 -0.13191338123E+02  0.12569411840E+03  0.12500000000E+03 0.  0.
<mgrwt>
<rscale>  0 0.12500000E+03</rscale>
<asrwt>0</asrwt>
<pdfrwt beam="1">  1       21 0.86540601E-02 0.12500000E+03</pdfrwt>
<pdfrwt beam="2">  1       21 0.10683497E-01 0.12500000E+03</pdfrwt>
<totfact> 0.73948354E+06</totfact>
</mgrwt>
</event>
<event>
 3    1  0.1595726E-001  0.1250000E+03  0.7546771E-02  0.1235069E+00
         21   -1    0    0  502  501  0.00000000000E+00  0.00000000000E+00  0.94787539785E+02  0.94787539785E+02  0.00000000000E+00 0. -1.
         21   -1    0    0  501  502 -0.00000000000E+00 -0.00000000000E+00 -0.41210585367E+02  0.41210585367E+02  0.00000000000E+00 0. -1.
         25    1    1    2    0    0  0.00000000000E+00  0.00000000000E+00  0.53576954418E+02  0.13599812515E+03  0.12500000000E+03 0.  0.
<mgrwt>
<rscale>  0 0.12500000E+03</rscale>
<asrwt>0</asrwt>
<pdfrwt beam="1">  1       21 0.14582698E-01 0.12500000E+03</pdfrwt>
<pdfrwt beam="2">  1       21 0.63400901E-02 0.12500000E+03</pdfrwt>
<totfact> 0.72564582E+06</totfact>
</mgrwt>
</event>
<event>
 3    1  0.1595726E-001  0.1250000E+03  0.7546771E-02  0.1235069E+00
         21   -1    0    0  502  501  0.00000000000E+00  0.00000000000E+00  0.38630553332E+03  0.38630553332E+03  0.00000000000E+00 0. -1.
         21   -1    0    0  501  502 -0.00000000000E+00 -0.00000000000E+00 -0.10111814776E+02  0.10111814776E+02  0.00000000000E+00 0. -1.
         25    1    1    2    0    0  0.00000000000E+00  0.00000000000E+00  0.37619371854E+03  0.39641734809E+03  0.12500000000E+03 0.  0.
<mgrwt>
<rscale>  0 0.12500000E+03</rscale>
<asrwt>0</asrwt>
<pdfrwt beam="1">  1       21 0.59431609E-01 0.12500000E+03</pdfrwt>
<pdfrwt beam="2">  1       21 0.15556641E-02 0.12500000E+03</pdfrwt>
<totfact> 0.48279900E+06</totfact>
</mgrwt>
</event>
<event>
 3    1  0.1595726E-001  0.1250000E+03  0.7546771E-02  0.1235069E+00
         21   -1    0    0  502  501  0.00000000000E+00  0.00000000000E+00  0.11483689954E+02  0.11483689954E+02  0.00000000000E+00 0. -1.
         21   -1    0    0  501  502 -0.00000000000E+00 -0.00000000000E+00 -0.34015634485E+03  0.34015634485E+03  0.00000000000E+00 0. -1.
         25    1    1    2    0    0  0.00000000000E+00  0.00000000000E+00 -0.32867265489E+03  0.35164003480E+03  0.12500000000E+03 0.  0.
<mgrwt>
<rscale>  0 0.12500000E+03</rscale>
<asrwt>0</asrwt>
<pdfrwt beam="1">  1       21 0.17667216E-02 0.12500000E+03</pdfrwt>
<pdfrwt beam="2">  1       21 0.52331743E-01 0.12500000E+03</pdfrwt>
<totfact> 0.51417539E+06</totfact>
</mgrwt>
</event>
<event>
 3    1  0.1595726E-001  0.1250000E+03  0.7546771E-02  0.1235069E+00
         21   -1    0    0  502  501  0.00000000000E+00  0.00000000000E+00  0.11394102841E+03  0.11394102841E+03  0.00000000000E+00 0. -1.
         21   -1    0    0  501  502 -0.00000000000E+00 -0.00000000000E+00 -0.34283085332E+02  0.34283085332E+02  0.00000000000E+00 0. -1.
         25    1    1    2    0    0  0.00000000000E+00  0.00000000000E+00  0.79657943082E+02  0.14822411375E+03  0.12500000000E+03 0.  0.
<mgrwt>
<rscale>  0 0.12500000E+03</rscale>
<asrwt>0</asrwt>
<pdfrwt beam="1">  1       21 0.17529389E-01 0.12500000E+03</pdfrwt>
<pdfrwt beam="2">  1       21 0.52743209E-02 0.12500000E+03</pdfrwt>
<totfact> 0.70983003E+06</totfact>
</mgrwt>
</event>
<event>
 3    1  0.1595726E-001  0.1250000E+03  0.7546771E-02  0.1235069E+00
         21   -1    0    0  502  501  0.00000000000E+00  0.00000000000E+00  0.54756468235E+03  0.54756468235E+03  0.00000000000E+00 0.  1.
         21   -1    0    0  501  502 -0.00000000000E+00 -0.00000000000E+00 -0.71338603930E+01  0.71338603930E+01  0.00000000000E+00 0.  1.
         25    1    1    2    0    0  0.00000000000E+00  0.00000000000E+00  0.54043082196E+03  0.55469854274E+03  0.12500000000E+03 0.  0.
<mgrwt>
<rscale>  0 0.12500000E+03</rscale>
<asrwt>0</asrwt>
<pdfrwt beam="1">  1       21 0.84240687E-01 0.12500000E+03</pdfrwt>
<pdfrwt beam="2">  1       21 0.10975174E-02 0.12500000E+03</pdfrwt>
<totfact> 0.39224911E+06</totfact>
</mgrwt>
</event>
<event>
 3    1  0.1595726E-001  0.1250000E+03  0.7546771E-02  0.1235069E+00
         21   -1    0    0  502  501  0.00000000000E+00  0.00000000000E+00  0.59115025699E+01  0.59115025699E+01  0.00000000000E+00 0.  1.
         21   -1    0    0  501  502 -0.00000000000E+00 -0.00000000000E+00 -0.66078800674E+03  0.66078800674E+03  0.00000000000E+00 0.  1.
         25    1    1    2    0    0  0.00000000000E+00  0.00000000000E+00 -0.65487650417E+03  0.66669950931E+03  0.12500000000E+03 0.  0.
<mgrwt>
<rscale>  0 0.12500000E+03</rscale>
<asrwt>0</asrwt>
<pdfrwt beam="1">  1       21 0.90946228E-03 0.12500000E+03</pdfrwt>
<pdfrwt beam="2">  1       21 0.10165965E+00 0.12500000E+03</pdfrwt>
<totfact> 0.34233907E+06</totfact>
</mgrwt>
</event>
<event>
 3    1  0.1595726E-001  0.1250000E+03  0.7546771E-02  0.1235069E+00
         21   -1    0    0  502  501  0.00000000000E+00  0.00000000000E+00  0.29818034503E+03  0.29818034503E+03  0.00000000000E+00 0. -1.
         21   -1    0    0  501  502 -0.00000000000E+00 -0.00000000000E+00 -0.13100293380E+02  0.13100293380E+02  0.00000000000E+00 0. -1.
         25    1    1    2    0    0  0.00000000000E+00  0.00000000000E+00  0.28508005165E+03  0.31128063841E+03  0.12500000000E+03 0.  0.
<mgrwt>
<rscale>  0 0.12500000E+03</rscale>
<asrwt>0</asrwt>
<pdfrwt beam="1">  1       21 0.45873894E-01 0.12500000E+03</pdfrwt>
<pdfrwt beam="2">  1       21 0.20154300E-02 0.12500000E+03</pdfrwt>
<totfact> 0.54531548E+06</totfact>
</mgrwt>
</event>
<event>
 3    1  0.1595726E-001  0.1250000E+03  0.7546771E-02  0.1235069E+00
         21   -1    0    0  502  501  0.00000000000E+00  0.00000000000E+00  0.80494154882E+02  0.80494154882E+02  0.00000000000E+00 0. -1.
         21   -1    0    0  501  502 -0.00000000000E+00 -0.00000000000E+00 -0.48528368373E+02  0.48528368373E+02  0.00000000000E+00 0. -1.
         25    1    1    2    0    0  0.00000000000E+00  0.00000000000E+00  0.31965786509E+02  0.12902252326E+03  0.12500000000E+03 0.  0.
<mgrwt>
<rscale>  0 0.12500000E+03</rscale>
<asrwt>0</asrwt>
<pdfrwt beam="1">  1       21 0.12383716E-01 0.12500000E+03</pdfrwt>
<pdfrwt beam="2">  1       21 0.74659028E-02 0.12500000E+03</pdfrwt>
<totfact> 0.73495856E+06</totfact>
</mgrwt>
</event>
<event>
 3    1  0.1595726E-001  0.1250000E+03  0.7546771E-02  0.1235069E+00
         21   -1    0    0  502  501  0.00000000000E+00  0.00000000000E+00  0.89530506519E+03  0.89530506519E+03  0.00000000000E+00 0. -1.
         21   -1    0    0  501  502 -0.00000000000E+00 -0.00000000000E+00 -0.43630379765E+01  0.43630379765E+01  0.00000000000E+00 0. -1.
         25    1    1    2    0    0  0.00000000000E+00  0.00000000000E+00  0.89094202722E+03  0.89966810317E+03  0.12500000000E+03 0.  0.
<mgrwt>
<rscale>  0 0.12500000E+03</rscale>
<asrwt>0</asrwt>
<pdfrwt beam="1">  1       21 0.13773909E+00 0.12500000E+03</pdfrwt>
<pdfrwt beam="2">  1       21 0.67123732E-03 0.12500000E+03</pdfrwt>
<totfact> 0.26308684E+06</totfact>
</mgrwt>
</event>
<event>
 3    1  0.1595726E-001  0.1250000E+03  0.7546771E-02  0.1235069E+00
         21   -1    0    0  502  501  0.00000000000E+00  0.00000000000E+00  0.29076342539E+03  0.29076342539E+03  0.00000000000E+00 0.  1.
         21   -1    0    0  501  502 -0.00000000000E+00 -0.00000000000E+00 -0.13434461349E+02  0.13434461349E+02  0.00000000000E+00 0.  1.
         25    1    1    2    0    0  0.00000000000E+00  0.00000000000E+00  0.27732896404E+03  0.30419788674E+03  0.12500000000E+03 0.  0.
<mgrwt>
<rscale>  0 0.12500000E+03</rscale>
<asrwt>0</asrwt>
<pdfrwt beam="1">  1       21 0.44732830E-01 0.12500000E+03</pdfrwt>
<pdfrwt beam="2">  1       21 0.20668404E-02 0.12500000E+03</pdfrwt>
<totfact> 0.55109109E+06</totfact>
</mgrwt>
</event>
<event>
 3    1  0.1595726E-001  0.1250000E+03  0.7546771E-02  0.1235069E+00
         21   -1    0    0  502  501  0.00000000000E+00  0.00000000000E+00  0.36992299803E+03  0.36992299803E+03  0.00000000000E+00 0.  1.
         21   -1    0    0  501  502 -0.00000000000E+00 -0.00000000000E+00 -0.10559630033E+02  0.10559630033E+02  0.00000000000E+00 0.  1.
         25    1    1    2    0    0  0.00000000000E+00  0.00000000000E+00  0.35936336799E+03  0.38048262806E+03  0.12500000000E+03 0.  0.
<mgrwt>
<rscale>  0 0.12500000E+03</rscale>
<asrwt>0</asrwt>
<pdfrwt beam="1">  1       21 0.56911221E-01 0.12500000E+03</pdfrwt>
<pdfrwt beam="2">  1       21 0.16245588E-02 0.12500000E+03</pdfrwt>
<totfact> 0.49363036E+06</totfact>
</mgrwt>
</event>
<event>
 3    1  0.1595726E-001  0.1250000E+03  0.7546771E-02  0.1235069E+00
         21   -1    0    0  502  501  0.00000000000E+00  0.00000000000E+00  0.25245985848E+03  0.25245985848E+03  0.00000000000E+00 0. -1.
         21   -1    0    0  501  502 -0.00000000000E+00 -0.00000000000E+00 -0.15472756831E+02  0.15472756831E+02  0.00000000000E+00 0. -1.
         25    1    1    2    0    0  0.00000000000E+00  0.00000000000E+00  0.23698710165E+03  0.26793261531E+03  0.12500000000E+03 0.  0.
<mgrwt>
<rscale>  0 0.12500000E+03</rscale>
<asrwt>0</asrwt>
<pdfrwt beam="1">  1       21 0.38839975E-01 0.12500000E+03</pdfrwt>
<pdfrwt beam="2">  1       21 0.23804243E-02 0.12500000E+03</pdfrwt>
<totfact> 0.58229748E+06</totfact>
</mgrwt>
</event>
<event>
 3    1  0.1595726E-001  0.1250000E+03  0.7546771E-02  0.1235069E+00
         21   -1    0    0  502  501  0.00000000000E+00  0.00000000000E+00  0.97910391970E+02  0.97910391970E+02  0.00000000000E+00 0. -1.
         21   -1    0    0  501  502 -0.00000000000E+00 -0.00000000000E+00 -0.39896173648E+02  0.39896173648E+02  0.00000000000E+00 0. -1.
         25    1    1    2    0    0  0.00000000000E+00  0.00000000000E+00  0.58014218322E+02  0.13780656562E+03  0.12500000000E+03 0.  0.
<mgrwt>
<rscale>  0 0.12500000E+03</rscale>
<asrwt>0</asrwt>
<pdfrwt beam="1">  1       21 0.15063137E-01 0.12500000E+03</pdfrwt>
<pdfrwt beam="2">  1       21 0.61378729E-02 0.12500000E+03</pdfrwt>
<totfact> 0.72326951E+06</totfact>
</mgrwt>
</event>
<event>
 3    1  0.1595726E-001  0.1250000E+03  0.7546771E-02  0.1235069E+00
         21   -1    0    0  502  501  0.00000000000E+00  0.00000000000E+00  0.32710176220E+02  0.32710176220E+02  0.00000000000E+00 0. -1.
         21   -1    0    0  501  502 -0.00000000000E+00 -0.00000000000E+00 -0.11942002311E+03  0.11942002311E+03  0.00000000000E+00 0. -1.
         25    1    1    2    0    0  0.00000000000E+00  0.00000000000E+00 -0.86709846886E+02  0.15213019933E+03  0.12500000000E+03 0.  0.
<mgrwt>
<rscale>  0 0.12500000E+03</rscale>
<asrwt>0</asrwt>
<pdfrwt beam="1">  1       21 0.50323349E-02 0.12500000E+03</pdfrwt>
<pdfrwt beam="2">  1       21 0.18372311E-01 0.12500000E+03</pdfrwt>
<totfact> 0.70492624E+06</totfact>
</mgrwt>
</event>
<event>
 3    1  0.1595726E-001  0.1250000E+03  0.7546771E-02  0.1235069E+00
         21   -1    0    0  502  501  0.00000000000E+00  0.00000000000E+00  0.80242150798E+01  0.80242150798E+01  0.00000000000E+00 0. -1.
         21   -1    0    0  501  502 -0.00000000000E+00 -0.00000000000E+00 -0.48680773897E+03  0.48680773897E+03  0.00000000000E+00 0. -1.
         25    1    1    2    0    0  0.00000000000E+00  0.00000000000E+00 -0.47878352389E+03  0.49483195405E+03  0.12500000000E+03 0.  0.
<mgrwt>
<rscale>  0 0.12500000E+03</rscale>
<asrwt>0</asrwt>
<pdfrwt beam="1">  1       21 0.12344945E-02 0.12500000E+03</pdfrwt>
<pdfrwt beam="2">  1       21 0.74893508E-01 0.12500000E+03</pdfrwt>
<totfact> 0.42325736E+06</totfact>
</mgrwt>
</event>
<event>
 3    1  0.1595726E-001  0.1250000E+03  0.7546771E-02  0.1235069E+00
         21   -1    0    0  502  501  0.00000000000E+00  0.00000000000E+00  0.17312944768E+03  0.17312944768E+03  0.00000000000E+00 0. -1.
         21   -1    0    0  501  502 -0.00000000000E+00 -0.00000000000E+00 -0.22562597249E+02  0.22562597249E+02  0.00000000000E+00 0. -1.
         25    1    1    2    0    0  0.00000000000E+00  0.00000000000E+00  0.15056685044E+03  0.19569204493E+03  0.12500000000E+03 0.  0.
<mgrwt>
<rscale>  0 0.12500000E+03</rscale>
<asrwt>0</asrwt>
<pdfrwt beam="1">  1       21 0.26635299E-01 0.12500000E+03</pdfrwt>
<pdfrwt beam="2">  1       21 0.34711689E-02 0.12500000E+03</pdfrwt>
<totfact> 0.65395360E+06</totfact>
</mgrwt>
</event>
<event>
 3    1  0.1595726E-001  0.1250000E+03  0.7546771E-02  0.1235069E+00
         21   -1    0    0  502  501  0.00000000000E+00  0.00000000000E+00  0.27308885270E+04  0.27308885270E+04  0.00000000000E+00 0.  1.
         21   -1    0    0  501  502 -0.00000000000E+00 -0.00000000000E+00 -0.14303952583E+01  0.14303952583E+01  0.00000000000E+00 0.  1.
         25    1    1    2    0    0  0.00000000000E+00  0.00000000000E+00  0.27294581318E+04  0.27323189223E+04  0.12500000000E+03 0.  0.
<mgrwt>
<rscale>  0 0.12500000E+03</rscale>
<asrwt>0</asrwt>
<pdfrwt beam="1">  1       21 0.42013252E+00 0.12500000E+03</pdfrwt>
<pdfrwt beam="2">  1       21 0.22006299E-03 0.12500000E+03</pdfrwt>
<totfact> 0.27804199E+05</totfact>
</mgrwt>
</event>
<event>
 3    1  0.1595726E-001  0.1250000E+03  0.7546771E-02  0.1235069E+00
         21   -1    0    0  502  501  0.00000000000E+00  0.00000000000E+00  0.10856808459E+04  0.10856808459E+04  0.00000000000E+00 0. -1.
         21   -1    0    0  501  502 -0.00000000000E+00 -0.00000000000E+00 -0.35979726590E+01  0.35979726590E+01  0.00000000000E+00 0. -1.
         25    1    1    2    0    0  0.00000000000E+00  0.00000000000E+00  0.10820828733E+04  0.10892788186E+04  0.12500000000E+03 0.  0.
<mgrwt>
<rscale>  0 0.12500000E+03</rscale>
<asrwt>0</asrwt>
<pdfrwt beam="1">  1       21 0.16702756E+00 0.12500000E+03</pdfrwt>
<pdfrwt beam="2">  1       21 0.55353512E-03 0.12500000E+03</pdfrwt>
<totfact> 0.21491467E+06</totfact>
</mgrwt>
</event>
<event>
 3    1  0.1595726E-001  0.1250000E+03  0.7546771E-02  0.1235069E+00
         21   -1    0    0  502  501  0.00000000000E+00  0.00000000000E+00  0.11875751855E+02  0.11875751855E+02  0.00000000000E+00 0. -1.
         21   -1    0    0  501  502 -0.00000000000E+00 -0.00000000000E+00 -0.32892654274E+03  0.32892654274E+03  0.00000000000E+00 0. -1.
         25    1    1    2    0    0  0.00000000000E+00  0.00000000000E+00 -0.31705079089E+03  0.34080229460E+03  0.12500000000E+03 0.  0.
<mgrwt>
<rscale>  0 0.12500000E+03</rscale>
<asrwt>0</asrwt>
<pdfrwt beam="1">  1       21 0.18270386E-02 0.12500000E+03</pdfrwt>
<pdfrwt beam="2">  1       21 0.50604086E-01 0.12500000E+03</pdfrwt>
<totfact> 0.52224964E+06</totfact>
</mgrwt>
</event>
<event>
 3    1  0.1595726E-001  0.1250000E+03  0.7546771E-02  0.1235069E+00
         21   -1    0    0  502  501  0.00000000000E+00  0.00000000000E+00  0.84937200160E+03  0.84937200160E+03  0.00000000000E+00 0.  1.
         21   -1    0    0  501  502 -0.00000000000E+00 -0.00000000000E+00 -0.45989860657E+01  0.45989860657E+01  0.00000000000E+00 0.  1.
         25    1    1    2    0    0  0.00000000000E+00  0.00000000000E+00  0.84477301554E+03  0.85397098767E+03  0.12500000000E+03 0.  0.
<mgrwt>
<rscale>  0 0.12500000E+03</rscale>
<asrwt>0</asrwt>
<pdfrwt beam="1">  1       21 0.13067249E+00 0.12500000E+03</pdfrwt>
<pdfrwt beam="2">  1       21 0.70753699E-03 0.12500000E+03</pdfrwt>
<totfact> 0.27650817E+06</totfact>
</mgrwt>
</event>
<event>
 3    1  0.1595726E-001  0.1250000E+03  0.7546771E-02  0.1235069E+00
         21   -1    0    0  502  501  0.00000000000E+00  0.00000000000E+00  0.15480061917E+02  0.15480061917E+02  0.00000000000E+00 0. -1.
         21   -1    0    0  501  502 -0.00000000000E+00 -0.00000000000E+00 -0.25234072196E+03  0.25234072196E+03  0.00000000000E+00 0. -1.
         25    1    1    2    0    0  0.00000000000E+00  0.00000000000E+00 -0.23686066004E+03  0.26782078387E+03  0.12500000000E+03 0.  0.
<mgrwt>
<rscale>  0 0.12500000E+03</rscale>
<asrwt>0</asrwt>
<pdfrwt beam="1">  1       21 0.23815480E-02 0.12500000E+03</pdfrwt>
<pdfrwt beam="2">  1       21 0.38821649E-01 0.12500000E+03</pdfrwt>
<totfact> 0.58239787E+06</totfact>
</mgrwt>
</event>
<event>
 3    1  0.1595726E-001  0.1250000E+03  0.7546771E-02  0.1235069E+00
         21   -1    0    0  502  501  0.00000000000E+00  0.00000000000E+00  0.15890725427E+03  0.15890725427E+03  0.00000000000E+00 0. -1.
         21   -1    0    0  501  502 -0.00000000000E+00 -0.00000000000E+00 -0.24581948872E+02  0.24581948872E+02  0.00000000000E+00 0. -1.
         25    1    1    2    0    0  0.00000000000E+00  0.00000000000E+00  0.13432530540E+03  0.18348920315E+03  0.12500000000E+03 0.  0.
<mgrwt>
<rscale>  0 0.12500000E+03</rscale>
<asrwt>0</asrwt>
<pdfrwt beam="1">  1       21 0.24447269E-01 0.12500000E+03</pdfrwt>
<pdfrwt beam="2">  1       21 0.37818384E-02 0.12500000E+03</pdfrwt>
<totfact> 0.66753504E+06</totfact>
</mgrwt>
</event>
<event>
 3    1  0.1595726E-001  0.1250000E+03  0.7546771E-02  0.1235069E+00
         21   -1    0    0  502  501  0.00000000000E+00  0.00000000000E+00  0.43417380457E+03  0.43417380457E+03  0.00000000000E+00 0. -1.
         21   -1    0    0  501  502 -0.00000000000E+00 -0.00000000000E+00 -0.89969730068E+01  0.89969730068E+01  0.00000000000E+00 0. -1.
         25    1    1    2    0    0  0.00000000000E+00  0.00000000000E+00  0.42517683157E+03  0.44317077758E+03  0.12500000000E+03 0.  0.
<mgrwt>
<rscale>  0 0.12500000E+03</rscale>
<asrwt>0</asrwt>
<pdfrwt beam="1">  1       21 0.66795954E-01 0.12500000E+03</pdfrwt>
<pdfrwt beam="2">  1       21 0.13841500E-02 0.12500000E+03</pdfrwt>
<totfact> 0.45303759E+06</totfact>
</mgrwt>
</event>
<event>
 3    1  0.1595726E-001  0.1250000E+03  0.7546771E-02  0.1235069E+00
         21   -1    0    0  502  501  0.00000000000E+00  0.00000000000E+00  0.14340275014E+03  0.14340275014E+03  0.00000000000E+00 0. -1.
         21   -1    0    0  501  502 -0.00000000000E+00 -0.00000000000E+00 -0.27239714693E+02  0.27239714693E+02  0.00000000000E+00 0. -1.
         25    1    1    2    0    0  0.00000000000E+00  0.00000000000E+00  0.11616303545E+03  0.17064246483E+03  0.12500000000E+03 0.  0.
<mgrwt>
<rscale>  0 0.12500000E+03</rscale>
<asrwt>0</asrwt>
<pdfrwt beam="1">  1       21 0.22061961E-01 0.12500000E+03</pdfrwt>
<pdfrwt beam="2">  1       21 0.41907254E-02 0.12500000E+03</pdfrwt>
<totfact> 0.68241557E+06</totfact>
</mgrwt>
</event>
<event>
 3    1  0.1595726E-001  0.1250000E+03  0.7546771E-02  0.1235069E+00
         21   -1    0    0  502  501  0.00000000000E+00  0.00000000000E+00  0.20282722688E+03  0.20282722688E+03  0.00000000000E+00 0.  1.
         21   -1    0    0  501  502 -0.00000000000E+00 -0.00000000000E+00 -0.19259002157E+02  0.19259002157E+02  0.00000000000E+00 0.  1.
         25    1    1    2    0    0  0.00000000000E+00  0.00000000000E+00  0.18356822472E+03  0.22208622904E+03  0.12500000000E+03 0.  0.
<mgrwt>
<rscale>  0 0.12500000E+03</rscale>
<asrwt>0</asrwt>
<pdfrwt beam="1">  1       21 0.31204187E-01 0.12500000E+03</pdfrwt>
<pdfrwt beam="2">  1       21 0.29629236E-02 0.12500000E+03</pdfrwt>
<totfact> 0.62609930E+06</totfact>
</mgrwt>
</event>
<event>
 3    1  0.1595726E-001  0.1250000E+03  0.7546771E-02  0.1235069E+00
         21   -1    0    0  502  501  0.00000000000E+00  0.00000000000E+00  0.86864232336E+02  0.86864232336E+02  0.00000000000E+00 0. -1.
         21   -1    0    0  501  502 -0.00000000000E+00 -0.00000000000E+00 -0.44969602504E+02  0.44969602504E+02  0.00000000000E+00 0. -1.
         25    1    1    2    0    0  0.00000000000E+00  0.00000000000E+00  0.41894629832E+02  0.13183383484E+03  0.12500000000E+03 0.  0.
<mgrwt>
<rscale>  0 0.12500000E+03</rscale>
<asrwt>0</asrwt>
<pdfrwt beam="1">  1       21 0.13363728E-01 0.12500000E+03</pdfrwt>
<pdfrwt beam="2">  1       21 0.69184004E-02 0.12500000E+03</pdfrwt>
<totfact> 0.73118525E+06</totfact>
</mgrwt>
</event>
<event>
 3    1  0.1595726E-001  0.1250000E+03  0.7546771E-02  0.1235069E+00
         21   -1    0    0  502  501  0.00000000000E+00  0.00000000000E+00  0.11358606319E+03  0.11358606319E+03  0.00000000000E+00 0. -1.
         21   -1    0    0  501  502 -0.00000000000E+00 -0.00000000000E+00 -0.34390222624E+02  0.34390222624E+02  0.00000000000E+00 0. -1.
         25    1    1    2    0    0  0.00000000000E+00  0.00000000000E+00  0.79195840564E+02  0.14797628581E+03  0.12500000000E+03 0.  0.
<mgrwt>
<rscale>  0 0.12500000E+03</rscale>
<asrwt>0</asrwt>
<pdfrwt beam="1">  1       21 0.17474779E-01 0.12500000E+03</pdfrwt>
<pdfrwt beam="2">  1       21 0.52908035E-02 0.12500000E+03</pdfrwt>
<totfact> 0.71014351E+06</totfact>
</mgrwt>
</event>
<event>
 3    1  0.1595726E-001  0.1250000E+03  0.7546771E-02  0.1235069E+00
         21   -1    0    0  502  501  0.00000000000E+00  0.00000000000E+00  0.63232237028E+03  0.63232237028E+03  0.00000000000E+00 0. -1.
         21   -1    0    0  501  502 -0.00000000000E+00 -0.00000000000E+00 -0.61776242366E+01  0.61776242366E+01  0.00000000000E+00 0. -1.
         25    1    1    2    0    0  0.00000000000E+00  0.00000000000E+00  0.62614474604E+03  0.63849999452E+03  0.12500000000E+03 0.  0.
<mgrwt>
<rscale>  0 0.12500000E+03</rscale>
<asrwt>0</asrwt>
<pdfrwt beam="1">  1       21 0.97280314E-01 0.12500000E+03</pdfrwt>
<pdfrwt beam="2">  1       21 0.95040423E-03 0.12500000E+03</pdfrwt>
<totfact> 0.35407393E+06</totfact>
</mgrwt>
</event>
<event>
 3    1  0.1595726E-001  0.1250000E+03  0.7546771E-02  0.1235069E+00
         21   -1    0    0  502  501  0.00000000000E+00  0.00000000000E+00  0.77121944643E+02  0.77121944643E+02  0.00000000000E+00 0. -1.
         21   -1    0    0  501  502 -0.00000000000E+00 -0.00000000000E+00 -0.50650304762E+02  0.50650304762E+02  0.00000000000E+00 0. -1.
         25    1    1    2    0    0  0.00000000000E+00  0.00000000000E+00  0.26471639881E+02  0.12777224940E+03  0.12500000000E+03 0.  0.
<mgrwt>
<rscale>  0 0.12500000E+03</rscale>
<asrwt>0</asrwt>
<pdfrwt beam="1">  1       21 0.11864915E-01 0.12500000E+03</pdfrwt>
<pdfrwt beam="2">  1       21 0.77923546E-02 0.12500000E+03</pdfrwt>
<totfact> 0.73664348E+06</totfact>
</mgrwt>
</event>
<event>
 3    1  0.1595726E-001  0.1250000E+03  0.7546771E-02  0.1235069E+00
         21   -1    0    0  502  501  0.00000000000E+00  0.00000000000E+00  0.62012581146E+01  0.62012581146E+01  0.00000000000E+00 0.  1.
         21   -1    0    0  501  502 -0.00000000000E+00 -0.00000000000E+00 -0.62991249966E+03  0.62991249966E+03  0.00000000000E+00 0.  1.
         25    1    1    2    0    0  0.00000000000E+00  0.00000000000E+00 -0.62371124155E+03  0.63611375778E+03  0.12500000000E+03 0.  0.
<mgrwt>
<rscale>  0 0.12500000E+03</rscale>
<asrwt>0</asrwt>
<pdfrwt beam="1">  1       21 0.95403930E-03 0.12500000E+03</pdfrwt>
<pdfrwt beam="2">  1       21 0.96909657E-01 0.12500000E+03</pdfrwt>
<totfact> 0.35508717E+06</totfact>
</mgrwt>
</event>
<event>
 3    1  0.1595726E-001  0.1250000E+03  0.7546771E-02  0.1235069E+00
         21   -1    0    0  502  501  0.00000000000E+00  0.00000000000E+00  0.61806099274E+02  0.61806099274E+02  0.00000000000E+00 0.  1.
         21   -1    0    0  501  502 -0.00000000000E+00 -0.00000000000E+00 -0.63201691191E+02  0.63201691191E+02  0.00000000000E+00 0.  1.
         25    1    1    2    0    0  0.00000000000E+00  0.00000000000E+00 -0.13955919173E+01  0.12500779046E+03  0.12500000000E+03 0.  0.
<mgrwt>
<rscale>  0 0.12500000E+03</rscale>
<asrwt>0</asrwt>
<pdfrwt beam="1">  1       21 0.95086307E-02 0.12500000E+03</pdfrwt>
<pdfrwt beam="2">  1       21 0.97233371E-02 0.12500000E+03</pdfrwt>
<totfact> 0.74042529E+06</totfact>
</mgrwt>
</event>
<event>
 3    1  0.1595726E-001  0.1250000E+03  0.7546771E-02  0.1235069E+00
         21   -1    0    0  502  501  0.00000000000E+00  0.00000000000E+00  0.11009217566E+03  0.11009217566E+03  0.00000000000E+00 0. -1.
         21   -1    0    0  501  502 -0.00000000000E+00 -0.00000000000E+00 -0.35481631429E+02  0.35481631429E+02  0.00000000000E+00 0. -1.
         25    1    1    2    0    0  0.00000000000E+00  0.00000000000E+00  0.74610544231E+02  0.14557380709E+03  0.12500000000E+03 0.  0.
<mgrwt>
<rscale>  0 0.12500000E+03</rscale>
<asrwt>0</asrwt>
<pdfrwt beam="1">  1       21 0.16937258E-01 0.12500000E+03</pdfrwt>
<pdfrwt beam="2">  1       21 0.54587126E-02 0.12500000E+03</pdfrwt>
<totfact> 0.71319747E+06</totfact>
</mgrwt>
</event>
<event>
 3    1  0.1595726E-001  0.1250000E+03  0.7546771E-02  0.1235069E+00
         21   -1    0    0  502  501  0.00000000000E+00  0.00000000000E+00  0.18400514537E+03  0.18400514537E+03  0.00000000000E+00 0. -1.
         21   -1    0    0  501  502 -0.00000000000E+00 -0.00000000000E+00 -0.21229025918E+02  0.21229025918E+02  0.00000000000E+00 0. -1.
         25    1    1    2    0    0  0.00000000000E+00  0.00000000000E+00  0.16277611945E+03  0.20523417128E+03  0.12500000000E+03 0.  0.
<mgrwt>
<rscale>  0 0.12500000E+03</rscale>
<asrwt>0</asrwt>
<pdfrwt beam="1">  1       21 0.28308483E-01 0.12500000E+03</pdfrwt>
<pdfrwt beam="2">  1       21 0.32660041E-02 0.12500000E+03</pdfrwt>
<totfact> 0.64364470E+06</totfact>
</mgrwt>
</event>
<event>
 3    1  0.1595726E-001  0.1250000E+03  0.7546771E-02  0.1235069E+00
         21   -1    0    0  502  501  0.00000000000E+00  0.00000000000E+00  0.76252001477E+02  0.76252001477E+02  0.00000000000E+00 0.  1.
         21   -1    0    0  501  502 -0.00000000000E+00 -0.00000000000E+00 -0.51228163515E+02  0.51228163515E+02  0.00000000000E+00 0.  1.
         25    1    1    2    0    0  0.00000000000E+00  0.00000000000E+00  0.25023837963E+02  0.12748016499E+03  0.12500000000E+03 0.  0.
<mgrwt>
<rscale>  0 0.12500000E+03</rscale>
<asrwt>0</asrwt>
<pdfrwt beam="1">  1       21 0.11731077E-01 0.12500000E+03</pdfrwt>
<pdfrwt beam="2">  1       21 0.78812559E-02 0.12500000E+03</pdfrwt>
<totfact> 0.73703907E+06</totfact>
</mgrwt>
</event>
<event>
 3    1  0.1595726E-001  0.1250000E+03  0.7546771E-02  0.1235069E+00
         21   -1    0    0  502  501  0.00000000000E+00  0.00000000000E+00  0.32593802658E+03  0.32593802658E+03  0.00000000000E+00 0. -1.
         21   -1    0    0  501  502 -0.00000000000E+00 -0.00000000000E+00 -0.11984640274E+02  0.11984640274E+02  0.00000000000E+00 0. -1.
         25    1    1    2    0    0  0.00000000000E+00  0.00000000000E+00  0.31395338630E+03  0.33792266685E+03  0.12500000000E+03 0.  0.
<mgrwt>
<rscale>  0 0.12500000E+03</rscale>
<asrwt>0</asrwt>
<pdfrwt beam="1">  1       21 0.50144305E-01 0.12500000E+03</pdfrwt>
<pdfrwt beam="2">  1       21 0.18437911E-02 0.12500000E+03</pdfrwt>
<totfact> 0.52442939E+06</totfact>
</mgrwt>
</event>
<event>
 3    1  0.1595726E-001  0.1250000E+03  0.7546771E-02  0.1235069E+00
         21   -1    0    0  502  501  0.00000000000E+00  0.00000000000E+00  0.47813434399E+03  0.47813434399E+03  0.00000000000E+00 0.  1.
         21   -1    0    0  501  502 -0.00000000000E+00 -0.00000000000E+00 -0.81697749787E+01  0.81697749787E+01  0.00000000000E+00 0.  1.
         25    1    1    2    0    0  0.00000000000E+00  0.00000000000E+00  0.46996456902E+03  0.48630411897E+03  0.12500000000E+03 0.  0.
<mgrwt>
<rscale>  0 0.12500000E+03</rscale>
<asrwt>0</asrwt>
<pdfrwt beam="1">  1       21 0.73559108E-01 0.12500000E+03</pdfrwt>
<pdfrwt beam="2">  1       21 0.12568888E-02 0.12500000E+03</pdfrwt>
<totfact> 0.42796711E+06</totfact>
</mgrwt>
</event>
<event>
 3    1  0.1595726E-001  0.1250000E+03  0.7546771E-02  0.1235069E+00
         21   -1    0    0  502  501  0.00000000000E+00  0.00000000000E+00  0.44902702690E+03  0.44902702690E+03  0.00000000000E+00 0. -1.
         21   -1    0    0  501  502 -0.00000000000E+00 -0.00000000000E+00 -0.86993649958E+01  0.86993649958E+01  0.00000000000E+00 0. -1.
         25    1    1    2    0    0  0.00000000000E+00  0.00000000000E+00  0.44032766191E+03  0.45772639190E+03  0.12500000000E+03 0.  0.
<mgrwt>
<rscale>  0 0.12500000E+03</rscale>
<asrwt>0</asrwt>
<pdfrwt beam="1">  1       21 0.69081063E-01 0.12500000E+03</pdfrwt>
<pdfrwt beam="2">  1       21 0.13383642E-02 0.12500000E+03</pdfrwt>
<totfact> 0.44433526E+06</totfact>
</mgrwt>
</event>
<event>
 3    1  0.1595726E-001  0.1250000E+03  0.7546771E-02  0.1235069E+00
         21   -1    0    0  502  501  0.00000000000E+00  0.00000000000E+00  0.81364685282E+02  0.81364685282E+02  0.00000000000E+00 0.  1.
         21   -1    0    0  501  502 -0.00000000000E+00 -0.00000000000E+00 -0.48009157615E+02  0.48009157615E+02  0.00000000000E+00 0.  1.
         25    1    1    2    0    0  0.00000000000E+00  0.00000000000E+00  0.33355527667E+02  0.12937384290E+03  0.12500000000E+03 0.  0.
<mgrwt>
<rscale>  0 0.12500000E+03</rscale>
<asrwt>0</asrwt>
<pdfrwt beam="1">  1       21 0.12517644E-01 0.12500000E+03</pdfrwt>
<pdfrwt beam="2">  1       21 0.73860243E-02 0.12500000E+03</pdfrwt>
<totfact> 0.73448722E+06</totfact>
</mgrwt>
</event>
<event>
 3    1  0.1595726E-001  0.1250000E+03  0.7546771E-02  0.1235069E+00
         21   -1    0    0  502  501  0.00000000000E+00  0.00000000000E+00  0.20094284975E+02  0.20094284975E+02  0.00000000000E+00 0. -1.
         21   -1    0    0  501  502 -0.00000000000E+00 -0.00000000000E+00 -0.19439606858E+03  0.19439606858E+03  0.00000000000E+00 0. -1.
         25    1    1    2    0    0  0.00000000000E+00  0.00000000000E+00 -0.17430178360E+03  0.21449035355E+03  0.12500000000E+03 0.  0.
<mgrwt>
<rscale>  0 0.12500000E+03</rscale>
<asrwt>0</asrwt>
<pdfrwt beam="1">  1       21 0.30914284E-02 0.12500000E+03</pdfrwt>
<pdfrwt beam="2">  1       21 0.29907088E-01 0.12500000E+03</pdfrwt>
<totfact> 0.63390174E+06</totfact>
</mgrwt>
</event>
<event>
 3    1  0.1595726E-001  0.1250000E+03  0.7546771E-02  0.1235069E+00
         21   -1    0    0  502  501  0.00000000000E+00  0.00000000000E+00  0.17883429439E+02  0.17883429439E+02  0.00000000000E+00 0. -1.
         21   -1    0    0  501  502 -0.00000000000E+00 -0.00000000000E+00 -0.21842846270E+03  0.21842846270E+03  0.00000000000E+00 0. -1.
         25    1    1    2    0    0  0.00000000000E+00  0.00000000000E+00 -0.20054503326E+03  0.23631189213E+03  0.12500000000E+03 0.  0.
<mgrwt>
<rscale>  0 0.12500000E+03</rscale>
<asrwt>0</asrwt>
<pdfrwt beam="1">  1       21 0.27512969E-02 0.12500000E+03</pdfrwt>
<pdfrwt beam="2">  1       21 0.33604378E-01 0.12500000E+03</pdfrwt>
<totfact> 0.61191389E+06</totfact>
</mgrwt>
</event>
<event>
 3    1  0.1595726E-001  0.1250000E+03  0.7546771E-02  0.1235069E+00
         21   -1    0    0  502  501  0.00000000000E+00  0.00000000000E+00  0.14024523412E+02  0.14024523412E+02  0.00000000000E+00 0. -1.
         21   -1    0    0  501  502 -0.00000000000E+00 -0.00000000000E+00 -0.27852996393E+03  0.27852996393E+03  0.00000000000E+00 0. -1.
         25    1    1    2    0    0  0.00000000000E+00  0.00000000000E+00 -0.26450544052E+03  0.29255448734E+03  0.12500000000E+03 0.  0.
<mgrwt>
<rscale>  0 0.12500000E+03</rscale>
<asrwt>0</asrwt>
<pdfrwt beam="1">  1       21 0.21576190E-02 0.12500000E+03</pdfrwt>
<pdfrwt beam="2">  1       21 0.42850763E-01 0.12500000E+03</pdfrwt>
<totfact> 0.56080657E+06</totfact>
</mgrwt>
</event>
<event>
 3    1  0.1595726E-001  0.1250000E+03  0.7546771E-02  0.1235069E+00
         21   -1    0    0  502  501  0.00000000000E+00  0.00000000000E+00  0.27151902792E+02  0.27151902792E+02  0.00000000000E+00 0. -1.
         21   -1    0    0  501  502 -0.00000000000E+00 -0.00000000000E+00 -0.14386652862E+03  0.14386652862E+03  0.00000000000E+00 0. -1.
         25    1    1    2    0    0  0.00000000000E+00  0.00000000000E+00 -0.11671462582E+03  0.17101843141E+03  0.12500000000E+03 0.  0.
<mgrwt>
<rscale>  0 0.12500000E+03</rscale>
<asrwt>0</asrwt>
<pdfrwt beam="1">  1       21 0.41772157E-02 0.12500000E+03</pdfrwt>
<pdfrwt beam="2">  1       21 0.22133312E-01 0.12500000E+03</pdfrwt>
<totfact> 0.68197111E+06</totfact>
</mgrwt>
</event>
<event>
 3    1  0.1595726E-001  0.1250000E+03  0.7546771E-02  0.1235069E+00
         21   -1    0    0  502  501  0.00000000000E+00  0.00000000000E+00  0.51618907191E+02  0.51618907191E+02  0.00000000000E+00 0. -1.
         21   -1    0    0  501  502 -0.00000000000E+00 -0.00000000000E+00 -0.75674790742E+02  0.75674790742E+02  0.00000000000E+00 0. -1.
         25    1    1    2    0    0  0.00000000000E+00  0.00000000000E+00 -0.24055883551E+02  0.12729369793E+03  0.12500000000E+03 0.  0.
<mgrwt>
<rscale>  0 0.12500000E+03</rscale>
<asrwt>0</asrwt>
<pdfrwt beam="1">  1       21 0.79413703E-02 0.12500000E+03</pdfrwt>
<pdfrwt beam="2">  1       21 0.11642275E-01 0.12500000E+03</pdfrwt>
<totfact> 0.73729207E+06</totfact>
</mgrwt>
</event>
<event>
 3    1  0.1595726E-001  0.1250000E+03  0.7546771E-02  0.1235069E+00
         21   -1    0    0  502  501  0.00000000000E+00  0.00000000000E+00  0.11708892091E+02  0.11708892091E+02  0.00000000000E+00 0.  1.
         21   -1    0    0  501  502 -0.00000000000E+00 -0.00000000000E+00 -0.33361397215E+03  0.33361397215E+03  0.00000000000E+00 0.  1.
         25    1    1    2    0    0  0.00000000000E+00  0.00000000000E+00 -0.32190508006E+03  0.34532286424E+03  0.12500000000E+03 0.  0.
<mgrwt>
<rscale>  0 0.12500000E+03</rscale>
<asrwt>0</asrwt>
<pdfrwt beam="1">  1       21 0.18013678E-02 0.12500000E+03</pdfrwt>
<pdfrwt beam="2">  1       21 0.51325232E-01 0.12500000E+03</pdfrwt>
<totfact> 0.51885714E+06</totfact>
</mgrwt>
</event>
<event>
 3    1  0.1595726E-001  0.1250000E+03  0.7546771E-02  0.1235069E+00
         21   -1    0    0  502  501  0.00000000000E+00  0.00000000000E+00  0.46709783967E+01  0.46709783967E+01  0.00000000000E+00 0. -1.
         21   -1    0    0  501  502 -0.00000000000E+00 -0.00000000000E+00 -0.83628089625E+03  0.83628089625E+03  0.00000000000E+00 0. -1.
         25    1    1    2    0    0  0.00000000000E+00  0.00000000000E+00 -0.83160991786E+03  0.84095187465E+03  0.12500000000E+03 0.  0.
<mgrwt>
<rscale>  0 0.12500000E+03</rscale>
<asrwt>0</asrwt>
<pdfrwt beam="1">  1       21 0.71861198E-03 0.12500000E+03</pdfrwt>
<pdfrwt beam="2">  1       21 0.12865861E+00 0.12500000E+03</pdfrwt>
<totfact> 0.28050154E+06</totfact>
</mgrwt>
</event>
<event>
 3    1  0.1595726E-001  0.1250000E+03  0.7546771E-02  0.1235069E+00
         21   -1    0    0  502  501  0.00000000000E+00  0.00000000000E+00  0.50562494567E+03  0.50562494567E+03  0.00000000000E+00 0. -1.
         21   -1    0    0  501  502 -0.00000000000E+00 -0.00000000000E+00 -0.77255879748E+01  0.77255879748E+01  0.00000000000E+00 0. -1.
         25    1    1    2    0    0  0.00000000000E+00  0.00000000000E+00  0.49789935769E+03  0.51335053364E+03  0.12500000000E+03 0.  0.
<mgrwt>
<rscale>  0 0.12500000E+03</rscale>
<asrwt>0</asrwt>
<pdfrwt beam="1">  1       21 0.77788427E-01 0.12500000E+03</pdfrwt>
<pdfrwt beam="2">  1       21 0.11885524E-02 0.12500000E+03</pdfrwt>
<totfact> 0.41329183E+06</totfact>
</mgrwt>
</event>
<event>
 3    1  0.1595726E-001  0.1250000E+03  0.7546771E-02  0.1235069E+00
         21   -1    0    0  502  501  0.00000000000E+00  0.00000000000E+00  0.10031880874E+03  0.10031880874E+03  0.00000000000E+00 0. -1.
         21   -1    0    0  501  502 -0.00000000000E+00 -0.00000000000E+00 -0.38938361103E+02  0.38938361103E+02  0.00000000000E+00 0. -1.
         25    1    1    2    0    0  0.00000000000E+00  0.00000000000E+00  0.61380447632E+02  0.13925716984E+03  0.12500000000E+03 0.  0.
<mgrwt>
<rscale>  0 0.12500000E+03</rscale>
<asrwt>0</asrwt>
<pdfrwt beam="1">  1       21 0.15433663E-01 0.12500000E+03</pdfrwt>
<pdfrwt beam="2">  1       21 0.59905171E-02 0.12500000E+03</pdfrwt>
<totfact> 0.72136432E+06</totfact>
</mgrwt>
</event>
<event>
 3    1  0.1595726E-001  0.1250000E+03  0.7546771E-02  0.1235069E+00
         21   -1    0    0  502  501  0.00000000000E+00  0.00000000000E+00  0.63957698261E+02  0.63957698261E+02  0.00000000000E+00 0.  1.
         21   -1    0    0  501  502 -0.00000000000E+00 -0.00000000000E+00 -0.61075525014E+02  0.61075525014E+02  0.00000000000E+00 0.  1.
         25    1    1    2    0    0  0.00000000000E+00  0.00000000000E+00  0.28821732470E+01  0.12503322328E+03  0.12500000000E+03 0.  0.
<mgrwt>
<rscale>  0 0.12500000E+03</rscale>
<asrwt>0</asrwt>
<pdfrwt beam="1">  1       21 0.98396460E-02 0.12500000E+03</pdfrwt>
<pdfrwt beam="2">  1       21 0.93962346E-02 0.12500000E+03</pdfrwt>
<totfact> 0.74039094E+06</totfact>
</mgrwt>
</event>
<event>
 3    1  0.1595726E-001  0.1250000E+03  0.7546771E-02  0.1235069E+00
         21   -1    0    0  502  501  0.00000000000E+00  0.00000000000E+00  0.43948821821E+02  0.43948821821E+02  0.00000000000E+00 0.  1.
         21   -1    0    0  501  502 -0.00000000000E+00 -0.00000000000E+00 -0.88881791095E+02  0.88881791095E+02  0.00000000000E+00 0.  1.
         25    1    1    2    0    0  0.00000000000E+00  0.00000000000E+00 -0.44932969274E+02  0.13283061292E+03  0.12500000000E+03 0.  0.
<mgrwt>
<rscale>  0 0.12500000E+03</rscale>
<asrwt>0</asrwt>
<pdfrwt beam="1">  1       21 0.67613572E-02 0.12500000E+03</pdfrwt>
<pdfrwt beam="2">  1       21 0.13674122E-01 0.12500000E+03</pdfrwt>
<totfact> 0.72985026E+06</totfact>
</mgrwt>
</event>
<event>
 3    1  0.1595726E-001  0.1250000E+03  0.7546771E-02  0.1235069E+00
         21   -1    0    0  502  501  0.00000000000E+00  0.00000000000E+00  0.10880588080E+03  0.10880588080E+03  0.00000000000E+00 0. -1.
         21   -1    0    0  501  502 -0.00000000000E+00 -0.00000000000E+00 -0.35901092582E+02  0.35901092582E+02  0.00000000000E+00 0. -1.
         25    1    1    2    0    0  0.00000000000E+00  0.00000000000E+00  0.72904788216E+02  0.14470697338E+03  0.12500000000E+03 0.  0.
<mgrwt>
<rscale>  0 0.12500000E+03</rscale>
<asrwt>0</asrwt>
<pdfrwt beam="1">  1       21 0.16739366E-01 0.12500000E+03</pdfrwt>
<pdfrwt beam="2">  1       21 0.55232451E-02 0.12500000E+03</pdfrwt>
<totfact> 0.71430620E+06</totfact>
</mgrwt>
</event>
<event>
 3    1  0.1595726E-001  0.1250000E+03  0.7546771E-02  0.1235069E+00
         21   -1    0    0  502  501  0.00000000000E+00  0.00000000000E+00  0.95205813995E+02  0.95205813995E+02  0.00000000000E+00 0. -1.
         21   -1    0    0  501  502 -0.00000000000E+00 -0.00000000000E+00 -0.41029532085E+02  0.41029532085E+02  0.00000000000E+00 0. -1.
         25    1    1    2    0    0  0.00000000000E+00  0.00000000000E+00  0.54176281910E+02  0.13623534608E+03  0.12500000000E+03 0.  0.
<mgrwt>
<rscale>  0 0.12500000E+03</rscale>
<asrwt>0</asrwt>
<pdfrwt beam="1">  1       21 0.14647048E-01 0.12500000E+03</pdfrwt>
<pdfrwt beam="2">  1       21 0.63122357E-02 0.12500000E+03</pdfrwt>
<totfact> 0.72533315E+06</totfact>
</mgrwt>
</event>
<event>
 3    1  0.1595726E-001  0.1250000E+03  0.7546771E-02  0.1235069E+00
         21   -1    0    0  502  501  0.00000000000E+00  0.00000000000E+00  0.10620264018E+03  0.10620264018E+03  0.00000000000E+00 0. -1.
         21   -1    0    0  501  502 -0.00000000000E+00 -0.00000000000E+00 -0.36781100670E+02  0.36781100670E+02  0.00000000000E+00 0. -1.
         25    1    1    2    0    0  0.00000000000E+00  0.00000000000E+00  0.69421539514E+02  0.14298374085E+03  0.12500000000E+03 0.  0.
<mgrwt>
<rscale>  0 0.12500000E+03</rscale>
<asrwt>0</asrwt>
<pdfrwt beam="1">  1       21 0.16338868E-01 0.12500000E+03</pdfrwt>
<pdfrwt beam="2">  1       21 0.56586309E-02 0.12500000E+03</pdfrwt>
<totfact> 0.71652141E+06</totfact>
</mgrwt>
</event>
<event>
 3    1  0.1595726E-001  0.1250000E+03  0.7546771E-02  0.1235069E+00
         21   -1    0    0  502  501  0.00000000000E+00  0.00000000000E+00  0.26222888028E+02  0.26222888028E+02  0.00000000000E+00 0.  1.
         21   -1    0    0  501  502 -0.00000000000E+00 -0.00000000000E+00 -0.14896337870E+03  0.14896337870E+03  0.00000000000E+00 0.  1.
         25    1    1    2    0    0  0.00000000000E+00  0.00000000000E+00 -0.12274049067E+03  0.17518626673E+03  0.12500000000E+03 0.  0.
<mgrwt>
<rscale>  0 0.12500000E+03</rscale>
<asrwt>0</asrwt>
<pdfrwt beam="1">  1       21 0.40342905E-02 0.12500000E+03</pdfrwt>
<pdfrwt beam="2">  1       21 0.22917443E-01 0.12500000E+03</pdfrwt>
<totfact> 0.67708089E+06</totfact>
</mgrwt>
</event>
<event>
 3    1  0.1595726E-001  0.1250000E+03  0.7546771E-02  0.1235069E+00
         21   -1    0    0  502  501  0.00000000000E+00  0.00000000000E+00  0.80871288007E+02  0.80871288007E+02  0.00000000000E+00 0.  1.
         21   -1    0    0  501  502 -0.00000000000E+00 -0.00000000000E+00 -0.48302062404E+02  0.48302062404E+02  0.00000000000E+00 0.  1.
         25    1    1    2    0    0  0.00000000000E+00  0.00000000000E+00  0.32569225604E+02  0.12917335041E+03  0.12500000000E+03 0.  0.
<mgrwt>
<rscale>  0 0.12500000E+03</rscale>
<asrwt>0</asrwt>
<pdfrwt beam="1">  1       21 0.12441737E-01 0.12500000E+03</pdfrwt>
<pdfrwt beam="2">  1       21 0.74310865E-02 0.12500000E+03</pdfrwt>
<totfact> 0.73475610E+06</totfact>
</mgrwt>
</event>
<event>
 3    1  0.1595726E-001  0.1250000E+03  0.7546771E-02  0.1235069E+00
         21   -1    0    0  502  501  0.00000000000E+00  0.00000000000E+00  0.78230240922E+01  0.78230240922E+01  0.00000000000E+00 0.  1.
         21   -1    0    0  501  502 -0.00000000000E+00 -0.00000000000E+00 -0.49932736420E+03  0.49932736420E+03  0.00000000000E+00 0.  1.
         25    1    1    2    0    0  0.00000000000E+00  0.00000000000E+00 -0.49150434010E+03  0.50715038829E+03  0.12500000000E+03 0.  0.
<mgrwt>
<rscale>  0 0.12500000E+03</rscale>
<asrwt>0</asrwt>
<pdfrwt beam="1">  1       21 0.12035423E-02 0.12500000E+03</pdfrwt>
<pdfrwt beam="2">  1       21 0.76819586E-01 0.12500000E+03</pdfrwt>
<totfact> 0.41658928E+06</totfact>
</mgrwt>
</event>
<event>
 3    1  0.1595726E-001  0.1250000E+03  0.7546771E-02  0.1235069E+00
         21   -1    0    0  502  501  0.00000000000E+00  0.00000000000E+00  0.21800595142E+03  0.21800595142E+03  0.00000000000E+00 0. -1.
         21   -1    0    0  501  502 -0.00000000000E+00 -0.00000000000E+00 -0.17918088816E+02  0.17918088816E+02  0.00000000000E+00 0. -1.
         25    1    1    2    0    0  0.00000000000E+00  0.00000000000E+00  0.20008786260E+03  0.23592404024E+03  0.12500000000E+03 0.  0.
<mgrwt>
<rscale>  0 0.12500000E+03</rscale>
<asrwt>0</asrwt>
<pdfrwt beam="1">  1       21 0.33539375E-01 0.12500000E+03</pdfrwt>
<pdfrwt beam="2">  1       21 0.27566292E-02 0.12500000E+03</pdfrwt>
<totfact> 0.61229330E+06</totfact>
</mgrwt>
</event>
<event>
 3    1  0.1595726E-001  0.1250000E+03  0.7546771E-02  0.1235069E+00
         21   -1    0    0  502  501  0.00000000000E+00  0.00000000000E+00  0.10707290095E+04  0.10707290095E+04  0.00000000000E+00 0.  1.
         21   -1    0    0  501  502 -0.00000000000E+00 -0.00000000000E+00 -0.36482153422E+01  0.36482153422E+01  0.00000000000E+00 0.  1.
         25    1    1    2    0    0  0.00000000000E+00  0.00000000000E+00  0.10670807942E+04  0.10743772249E+04  0.12500000000E+03 0.  0.
<mgrwt>
<rscale>  0 0.12500000E+03</rscale>
<asrwt>0</asrwt>
<pdfrwt beam="1">  1       21 0.16472729E+00 0.12500000E+03</pdfrwt>
<pdfrwt beam="2">  1       21 0.56126475E-03 0.12500000E+03</pdfrwt>
<totfact> 0.21830478E+06</totfact>
</mgrwt>
</event>
<event>
 3    1  0.1595726E-001  0.1250000E+03  0.7546771E-02  0.1235069E+00
         21   -1    0    0  502  501  0.00000000000E+00  0.00000000000E+00  0.72539345566E+01  0.72539345566E+01  0.00000000000E+00 0. -1.
         21   -1    0    0  501  502 -0.00000000000E+00 -0.00000000000E+00 -0.53850086040E+03  0.53850086040E+03  0.00000000000E+00 0. -1.
         25    1    1    2    0    0  0.00000000000E+00  0.00000000000E+00 -0.53124692584E+03  0.54575479496E+03  0.12500000000E+03 0.  0.
<mgrwt>
<rscale>  0 0.12500000E+03</rscale>
<asrwt>0</asrwt>
<pdfrwt beam="1">  1       21 0.11159899E-02 0.12500000E+03</pdfrwt>
<pdfrwt beam="2">  1       21 0.82846292E-01 0.12500000E+03</pdfrwt>
<totfact> 0.39666640E+06</totfact>
</mgrwt>
</event>
<event>
 3    1  0.1595726E-001  0.1250000E+03  0.7546771E-02  0.1235069E+00
         21   -1    0    0  502  501  0.00000000000E+00  0.00000000000E+00  0.52530683052E+03  0.52530683052E+03  0.00000000000E+00 0.  1.
         21   -1    0    0  501  502 -0.00000000000E+00 -0.00000000000E+00 -0.74361302254E+01  0.74361302254E+01  0.00000000000E+00 0.  1.
         25    1    1    2    0    0  0.00000000000E+00  0.00000000000E+00  0.51787070029E+03  0.53274296074E+03  0.12500000000E+03 0.  0.
<mgrwt>
<rscale>  0 0.12500000E+03</rscale>
<asrwt>0</asrwt>
<pdfrwt beam="1">  1       21 0.80816406E-01 0.12500000E+03</pdfrwt>
<pdfrwt beam="2">  1       21 0.11440204E-02 0.12500000E+03</pdfrwt>
<totfact> 0.40322263E+06</totfact>
</mgrwt>
</event>
<event>
 3    1  0.1595726E-001  0.1250000E+03  0.7546771E-02  0.1235069E+00
         21   -1    0    0  502  501  0.00000000000E+00  0.00000000000E+00  0.12149709400E+03  0.12149709400E+03  0.00000000000E+00 0. -1.
         21   -1    0    0  501  502 -0.00000000000E+00 -0.00000000000E+00 -0.32150974739E+02  0.32150974739E+02  0.00000000000E+00 0. -1.
         25    1    1    2    0    0  0.00000000000E+00  0.00000000000E+00  0.89346119259E+02  0.15364806874E+03  0.12500000000E+03 0.  0.
<mgrwt>
<rscale>  0 0.12500000E+03</rscale>
<asrwt>0</asrwt>
<pdfrwt beam="1">  1       21 0.18691860E-01 0.12500000E+03</pdfrwt>
<pdfrwt beam="2">  1       21 0.49463039E-02 0.12500000E+03</pdfrwt>
<totfact> 0.70303889E+06</totfact>
</mgrwt>
</event>
<event>
 3    1  0.1595726E-001  0.1250000E+03  0.7546771E-02  0.1235069E+00
         21   -1    0    0  502  501  0.00000000000E+00  0.00000000000E+00  0.29271901655E+03  0.29271901655E+03  0.00000000000E+00 0.  1.
         21   -1    0    0  501  502 -0.00000000000E+00 -0.00000000000E+00 -0.13344708677E+02  0.13344708677E+02  0.00000000000E+00 0.  1.
         25    1    1    2    0    0  0.00000000000E+00  0.00000000000E+00  0.27937430788E+03  0.30606372523E+03  0.12500000000E+03 0.  0.
<mgrwt>
<rscale>  0 0.12500000E+03</rscale>
<asrwt>0</asrwt>
<pdfrwt beam="1">  1       21 0.45033690E-01 0.12500000E+03</pdfrwt>
<pdfrwt beam="2">  1       21 0.20530323E-02 0.12500000E+03</pdfrwt>
<totfact> 0.54955991E+06</totfact>
</mgrwt>
</event>
<event>
 3    1  0.1595726E-001  0.1250000E+03  0.7546771E-02  0.1235069E+00
         21   -1    0    0  502  501  0.00000000000E+00  0.00000000000E+00  0.54411130043E+02  0.54411130043E+02  0.00000000000E+00 0.  1.
         21   -1    0    0  501  502 -0.00000000000E+00 -0.00000000000E+00 -0.71791377920E+02  0.71791377920E+02  0.00000000000E+00 0.  1.
         25    1    1    2    0    0  0.00000000000E+00  0.00000000000E+00 -0.17380247877E+02  0.12620250796E+03  0.12500000000E+03 0.  0.
<mgrwt>
<rscale>  0 0.12500000E+03</rscale>
<asrwt>0</asrwt>
<pdfrwt beam="1">  1       21 0.83709431E-02 0.12500000E+03</pdfrwt>
<pdfrwt beam="2">  1       21 0.11044827E-01 0.12500000E+03</pdfrwt>
<totfact> 0.73878165E+06</totfact>
</mgrwt>
</event>
<event>
 3    1  0.1595726E-001  0.1250000E+03  0.7546771E-02  0.1235069E+00
         21   -1    0    0  502  501  0.00000000000E+00  0.00000000000E+00  0.69445243489E+02  0.69445243489E+02  0.00000000000E+00 0. -1.
         21   -1    0    0  501  502 -0.00000000000E+00 -0.00000000000E+00 -0.56249352781E+02  0.56249352781E+02  0.00000000000E+00 0. -1.
         25    1    1    2    0    0  0.00000000000E+00  0.00000000000E+00  0.13195890708E+02  0.12569459627E+03  0.12500000000E+03 0.  0.
<mgrwt>
<rscale>  0 0.12500000E+03</rscale>
<asrwt>0</asrwt>
<pdfrwt beam="1">  1       21 0.10683884E-01 0.12500000E+03</pdfrwt>
<pdfrwt beam="2">  1       21 0.86537466E-02 0.12500000E+03</pdfrwt>
<totfact> 0.73948288E+06</totfact>
</mgrwt>
</event>
<event>
 3    1  0.1595726E-001  0.1250000E+03  0.7546771E-02  0.1235069E+00
         21   -1    0    0  502  501  0.00000000000E+00  0.00000000000E+00  0.10479414855E+03  0.10479414855E+03  0.00000000000E+00 0. -1.
         21   -1    0    0  501  502 -0.00000000000E+00 -0.00000000000E+00 -0.37275459117E+02  0.37275459117E+02  0.00000000000E+00 0. -1.
         25    1    1    2    0    0  0.00000000000E+00  0.00000000000E+00  0.67518689435E+02  0.14206960767E+03  0.12500000000E+03 0.  0.
<mgrwt>
<rscale>  0 0.12500000E+03</rscale>
<asrwt>0</asrwt>
<pdfrwt beam="1">  1       21 0.16122177E-01 0.12500000E+03</pdfrwt>
<pdfrwt beam="2">  1       21 0.57346861E-02 0.12500000E+03</pdfrwt>
<totfact> 0.71770264E+06</totfact>
</mgrwt>
</event>
<event>
 3    1  0.1595726E-001  0.1250000E+03  0.7546771E-02  0.1235069E+00
         21   -1    0    0  502  501  0.00000000000E+00  0.00000000000E+00  0.36964956488E+03  0.36964956488E+03  0.00000000000E+00 0.  1.
         21   -1    0    0  501  502 -0.00000000000E+00 -0.00000000000E+00 -0.10567441088E+02  0.10567441088E+02  0.00000000000E+00 0.  1.
         25    1    1    2    0    0  0.00000000000E+00  0.00000000000E+00  0.35908212379E+03  0.38021700596E+03  0.12500000000E+03 0.  0.
<mgrwt>
<rscale>  0 0.12500000E+03</rscale>
<asrwt>0</asrwt>
<pdfrwt beam="1">  1       21 0.56869154E-01 0.12500000E+03</pdfrwt>
<pdfrwt beam="2">  1       21 0.16257604E-02 0.12500000E+03</pdfrwt>
<totfact> 0.49381361E+06</totfact>
</mgrwt>
</event>
<event>
 3    1  0.1595726E-001  0.1250000E+03  0.7546771E-02  0.1235069E+00
         21   -1    0    0  502  501  0.00000000000E+00  0.00000000000E+00  0.79172256916E+02  0.79172256916E+02  0.00000000000E+00 0. -1.
         21   -1    0    0  501  502 -0.00000000000E+00 -0.00000000000E+00 -0.49338621282E+02  0.49338621282E+02  0.00000000000E+00 0. -1.
         25    1    1    2    0    0  0.00000000000E+00  0.00000000000E+00  0.29833635634E+02  0.12851087820E+03  0.12500000000E+03 0.  0.
<mgrwt>
<rscale>  0 0.12500000E+03</rscale>
<asrwt>0</asrwt>
<pdfrwt beam="1">  1       21 0.12180347E-01 0.12500000E+03</pdfrwt>
<pdfrwt beam="2">  1       21 0.75905571E-02 0.12500000E+03</pdfrwt>
<totfact> 0.73564657E+06</totfact>
</mgrwt>
</event>
<event>
 3    1  0.1595726E-001  0.1250000E+03  0.7546771E-02  0.1235069E+00
         21   -1    0    0  502  501  0.00000000000E+00  0.00000000000E+00  0.12669092732E+04  0.12669092732E+04  0.00000000000E+00 0.  1.
         21   -1    0    0  501  502 -0.00000000000E+00 -0.00000000000E+00 -0.30832910318E+01  0.30832910318E+01  0.00000000000E+00 0.  1.
         25    1    1    2    0    0  0.00000000000E+00  0.00000000000E+00  0.12638259821E+04  0.12699925642E+04  0.12500000000E+03 0.  0.
<mgrwt>
<rscale>  0 0.12500000E+03</rscale>
<asrwt>0</asrwt>
<pdfrwt beam="1">  1       21 0.19490870E+00 0.12500000E+03</pdfrwt>
<pdfrwt beam="2">  1       21 0.47435348E-03 0.12500000E+03</pdfrwt>
<totfact> 0.17799935E+06</totfact>
</mgrwt>
</event>
<event>
 3    1  0.1595726E-001  0.1250000E+03  0.7546771E-02  0.1235069E+00
         21   -1    0    0  502  501  0.00000000000E+00  0.00000000000E+00  0.81662923757E+01  0.81662923757E+01  0.00000000000E+00 0. -1.
         21   -1    0    0  501  502 -0.00000000000E+00 -0.00000000000E+00 -0.47833824951E+03  0.47833824951E+03  0.00000000000E+00 0. -1.
         25    1    1    2    0    0  0.00000000000E+00  0.00000000000E+00 -0.47017195714E+03  0.48650454189E+03  0.12500000000E+03 0.  0.
<mgrwt>
<rscale>  0 0.12500000E+03</rscale>
<asrwt>0</asrwt>
<pdfrwt beam="1">  1       21 0.12563525E-02 0.12500000E+03</pdfrwt>
<pdfrwt beam="2">  1       21 0.73590508E-01 0.12500000E+03</pdfrwt>
<totfact> 0.42785542E+06</totfact>
</mgrwt>
</event>
<event>
 3    1  0.1595726E-001  0.1250000E+03  0.7546771E-02  0.1235069E+00
         21   -1    0    0  502  501  0.00000000000E+00  0.00000000000E+00  0.44439686792E+03  0.44439686792E+03  0.00000000000E+00 0.  1.
         21   -1    0    0  501  502 -0.00000000000E+00 -0.00000000000E+00 -0.87900034450E+01  0.87900034450E+01  0.00000000000E+00 0.  1.
         25    1    1    2    0    0  0.00000000000E+00  0.00000000000E+00  0.43560686448E+03  0.45318687137E+03  0.12500000000E+03 0.  0.
<mgrwt>
<rscale>  0 0.12500000E+03</rscale>
<asrwt>0</asrwt>
<pdfrwt beam="1">  1       21 0.68368732E-01 0.12500000E+03</pdfrwt>
<pdfrwt beam="2">  1       21 0.13523086E-02 0.12500000E+03</pdfrwt>
<totfact> 0.44702192E+06</totfact>
</mgrwt>
</event>
<event>
 3    1  0.1595726E-001  0.1250000E+03  0.7546771E-02  0.1235069E+00
         21   -1    0    0  502  501  0.00000000000E+00  0.00000000000E+00  0.70487284822E+02  0.70487284822E+02  0.00000000000E+00 0. -1.
         21   -1    0    0  501  502 -0.00000000000E+00 -0.00000000000E+00 -0.55417796414E+02  0.55417796414E+02  0.00000000000E+00 0. -1.
         25    1    1    2    0    0  0.00000000000E+00  0.00000000000E+00  0.15069488408E+02  0.12590508124E+03  0.12500000000E+03 0.  0.
<mgrwt>
<rscale>  0 0.12500000E+03</rscale>
<asrwt>0</asrwt>
<pdfrwt beam="1">  1       21 0.10844198E-01 0.12500000E+03</pdfrwt>
<pdfrwt beam="2">  1       21 0.85258148E-02 0.12500000E+03</pdfrwt>
<totfact> 0.73919138E+06</totfact>
</mgrwt>
</event>
<event>
 3    1  0.1595726E-001  0.1250000E+03  0.7546771E-02  0.1235069E+00
         21   -1    0    0  502  501  0.00000000000E+00  0.00000000000E+00  0.46473981633E+02  0.46473981633E+02  0.00000000000E+00 0. -1.
         21   -1    0    0  501  502 -0.00000000000E+00 -0.00000000000E+00 -0.84052406589E+02  0.84052406589E+02  0.00000000000E+00 0. -1.
         25    1    1    2    0    0  0.00000000000E+00  0.00000000000E+00 -0.37578424956E+02  0.13052638822E+03  0.12500000000E+03 0.  0.
<mgrwt>
<rscale>  0 0.12500000E+03</rscale>
<asrwt>0</asrwt>
<pdfrwt beam="1">  1       21 0.71498433E-02 0.12500000E+03</pdfrwt>
<pdfrwt beam="2">  1       21 0.12931139E-01 0.12500000E+03</pdfrwt>
<totfact> 0.73294567E+06</totfact>
</mgrwt>
</event>
<event>
 3    1  0.1595726E-001  0.1250000E+03  0.7546771E-02  0.1235069E+00
         21   -1    0    0  502  501  0.00000000000E+00  0.00000000000E+00  0.17416171052E+03  0.17416171052E+03  0.00000000000E+00 0.  1.
         21   -1    0    0  501  502 -0.00000000000E+00 -0.00000000000E+00 -0.22428867909E+02  0.22428867909E+02  0.00000000000E+00 0.  1.
         25    1    1    2    0    0  0.00000000000E+00  0.00000000000E+00  0.15173284261E+03  0.19659057843E+03  0.12500000000E+03 0.  0.
<mgrwt>
<rscale>  0 0.12500000E+03</rscale>
<asrwt>0</asrwt>
<pdfrwt beam="1">  1       21 0.26794108E-01 0.12500000E+03</pdfrwt>
<pdfrwt beam="2">  1       21 0.34505952E-02 0.12500000E+03</pdfrwt>
<totfact> 0.65297358E+06</totfact>
</mgrwt>
</event>
<event>
 3    1  0.1595726E-001  0.1250000E+03  0.7546771E-02  0.1235069E+00
         21   -1    0    0  502  501  0.00000000000E+00  0.00000000000E+00  0.61130562820E+01  0.61130562820E+01  0.00000000000E+00 0. -1.
         21   -1    0    0  501  502 -0.00000000000E+00 -0.00000000000E+00 -0.63900115094E+03  0.63900115094E+03  0.00000000000E+00 0. -1.
         25    1    1    2    0    0  0.00000000000E+00  0.00000000000E+00 -0.63288809466E+03  0.64511420723E+03  0.12500000000E+03 0.  0.
<mgrwt>
<rscale>  0 0.12500000E+03</rscale>
<asrwt>0</asrwt>
<pdfrwt beam="1">  1       21 0.94046939E-03 0.12500000E+03</pdfrwt>
<pdfrwt beam="2">  1       21 0.98307954E-01 0.12500000E+03</pdfrwt>
<totfact> 0.35128526E+06</totfact>
</mgrwt>
</event>
<event>
 3    1  0.1595726E-001  0.1250000E+03  0.7546771E-02  0.1235069E+00
         21   -1    0    0  502  501  0.00000000000E+00  0.00000000000E+00  0.37517634504E+03  0.37517634504E+03  0.00000000000E+00 0.  1.
         21   -1    0    0  501  502 -0.00000000000E+00 -0.00000000000E+00 -0.10411770496E+02  0.10411770496E+02  0.00000000000E+00 0.  1.
         25    1    1    2    0    0  0.00000000000E+00  0.00000000000E+00  0.36476457454E+03  0.38558811554E+03  0.12500000000E+03 0.  0.
<mgrwt>
<rscale>  0 0.12500000E+03</rscale>
<asrwt>0</asrwt>
<pdfrwt beam="1">  1       21 0.57719427E-01 0.12500000E+03</pdfrwt>
<pdfrwt beam="2">  1       21 0.16018111E-02 0.12500000E+03</pdfrwt>
<totfact> 0.49012203E+06</totfact>
</mgrwt>
</event>
<event>
 3    1  0.1595726E-001  0.1250000E+03  0.7546771E-02  0.1235069E+00
         21   -1    0    0  502  501  0.00000000000E+00  0.00000000000E+00  0.24025974612E+02  0.24025974612E+02  0.00000000000E+00 0.  1.
         21   -1    0    0  501  502 -0.00000000000E+00 -0.00000000000E+00 -0.16258445550E+03  0.16258445550E+03  0.00000000000E+00 0.  1.
         25    1    1    2    0    0  0.00000000000E+00  0.00000000000E+00 -0.13855848088E+03  0.18661043011E+03  0.12500000000E+03 0.  0.
<mgrwt>
<rscale>  0 0.12500000E+03</rscale>
<asrwt>0</asrwt>
<pdfrwt beam="1">  1       21 0.36963038E-02 0.12500000E+03</pdfrwt>
<pdfrwt beam="2">  1       21 0.25012993E-01 0.12500000E+03</pdfrwt>
<totfact> 0.66401180E+06</totfact>
</mgrwt>
</event>
<event>
 3    1  0.1595726E-001  0.1250000E+03  0.7546771E-02  0.1235069E+00
         21   -1    0    0  502  501  0.00000000000E+00  0.00000000000E+00  0.89059260560E+03  0.89059260560E+03  0.00000000000E+00 0. -1.
         21   -1    0    0  501  502 -0.00000000000E+00 -0.00000000000E+00 -0.43861244473E+01  0.43861244473E+01  0.00000000000E+00 0. -1.
         25    1    1    2    0    0  0.00000000000E+00  0.00000000000E+00  0.88620648115E+03  0.89497873005E+03  0.12500000000E+03 0.  0.
<mgrwt>
<rscale>  0 0.12500000E+03</rscale>
<asrwt>0</asrwt>
<pdfrwt beam="1">  1       21 0.13701410E+00 0.12500000E+03</pdfrwt>
<pdfrwt beam="2">  1       21 0.67478908E-03 0.12500000E+03</pdfrwt>
<totfact> 0.26444028E+06</totfact>
</mgrwt>
</event>
<event>
 3    1  0.1595726E-001  0.1250000E+03  0.7546771E-02  0.1235069E+00
         21   -1    0    0  502  501  0.00000000000E+00  0.00000000000E+00  0.57093697005E+02  0.57093697005E+02  0.00000000000E+00 0. -1.
         21   -1    0    0  501  502 -0.00000000000E+00 -0.00000000000E+00 -0.68418235373E+02  0.68418235373E+02  0.00000000000E+00 0. -1.
         25    1    1    2    0    0  0.00000000000E+00  0.00000000000E+00 -0.11324538368E+02  0.12551193238E+03  0.12500000000E+03 0.  0.
<mgrwt>
<rscale>  0 0.12500000E+03</rscale>
<asrwt>0</asrwt>
<pdfrwt beam="1">  1       21 0.87836457E-02 0.12500000E+03</pdfrwt>
<pdfrwt beam="2">  1       21 0.10525882E-01 0.12500000E+03</pdfrwt>
<totfact> 0.73973728E+06</totfact>
</mgrwt>
</event>
<event>
 3    1  0.1595726E-001  0.1250000E+03  0.7546771E-02  0.1235069E+00
         21   -1    0    0  502  501  0.00000000000E+00  0.00000000000E+00  0.12497023365E+03  0.12497023365E+03  0.00000000000E+00 0. -1.
         21   -1    0    0  501  502 -0.00000000000E+00 -0.00000000000E+00 -0.31257443360E+02  0.31257443360E+02  0.00000000000E+00 0. -1.
         25    1    1    2    0    0  0.00000000000E+00  0.00000000000E+00  0.93712790288E+02  0.15622767701E+03  0.12500000000E+03 0.  0.
<mgrwt>
<rscale>  0 0.12500000E+03</rscale>
<asrwt>0</asrwt>
<pdfrwt beam="1">  1       21 0.19226190E-01 0.12500000E+03</pdfrwt>
<pdfrwt beam="2">  1       21 0.48088375E-02 0.12500000E+03</pdfrwt>
<totfact> 0.69983395E+06</totfact>
</mgrwt>
</event>
<event>
 3    1  0.1595726E-001  0.1250000E+03  0.7546771E-02  0.1235069E+00
         21   -1    0    0  502  501  0.00000000000E+00  0.00000000000E+00  0.25669798451E+02  0.25669798451E+02  0.00000000000E+00 0. -1.
         21   -1    0    0  501  502 -0.00000000000E+00 -0.00000000000E+00 -0.15217299066E+03  0.15217299066E+03  0.00000000000E+00 0. -1.
         25    1    1    2    0    0  0.00000000000E+00  0.00000000000E+00 -0.12650319221E+03  0.17784278911E+03  0.12500000000E+03 0.  0.
<mgrwt>
<rscale>  0 0.12500000E+03</rscale>
<asrwt>0</asrwt>
<pdfrwt beam="1">  1       21 0.39491998E-02 0.12500000E+03</pdfrwt>
<pdfrwt beam="2">  1       21 0.23411229E-01 0.12500000E+03</pdfrwt>
<totfact> 0.67399871E+06</totfact>
</mgrwt>
</event>
<event>
 3    1  0.1595726E-001  0.1250000E+03  0.7546771E-02  0.1235069E+00
         21   -1    0    0  502  501  0.00000000000E+00  0.00000000000E+00  0.20152824320E+02  0.20152824320E+02  0.00000000000E+00 0. -1.
         21   -1    0    0  501  502 -0.00000000000E+00 -0.00000000000E+00 -0.19383139246E+03  0.19383139246E+03  0.00000000000E+00 0. -1.
         25    1    1    2    0    0  0.00000000000E+00  0.00000000000E+00 -0.17367856814E+03  0.21398421678E+03  0.12500000000E+03 0.  0.
<mgrwt>
<rscale>  0 0.12500000E+03</rscale>
<asrwt>0</asrwt>
<pdfrwt beam="1">  1       21 0.31004344E-02 0.12500000E+03</pdfrwt>
<pdfrwt beam="2">  1       21 0.29820215E-01 0.12500000E+03</pdfrwt>
<totfact> 0.63442773E+06</totfact>
</mgrwt>
</event>
<event>
 3    1  0.1595726E-001  0.1250000E+03  0.7546771E-02  0.1235069E+00
         21   -1    0    0  502  501  0.00000000000E+00  0.00000000000E+00  0.48161068020E+01  0.48161068020E+01  0.00000000000E+00 0.  1.
         21   -1    0    0  501  502 -0.00000000000E+00 -0.00000000000E+00 -0.81108043500E+03  0.81108043500E+03  0.00000000000E+00 0.  1.
         25    1    1    2    0    0  0.00000000000E+00  0.00000000000E+00 -0.80626432820E+03  0.81589654181E+03  0.12500000000E+03 0.  0.
<mgrwt>
<rscale>  0 0.12500000E+03</rscale>
<asrwt>0</asrwt>
<pdfrwt beam="1">  1       21 0.74093983E-03 0.12500000E+03</pdfrwt>
<pdfrwt beam="2">  1       21 0.12478155E+00 0.12500000E+03</pdfrwt>
<totfact> 0.28842864E+06</totfact>
</mgrwt>
</event>
<event>
 3    1  0.1595726E-001  0.1250000E+03  0.7546771E-02  0.1235069E+00
         21   -1    0    0  502  501  0.00000000000E+00  0.00000000000E+00  0.55900183462E+02  0.55900183462E+02  0.00000000000E+00 0. -1.
         21   -1    0    0  501  502 -0.00000000000E+00 -0.00000000000E+00 -0.69879019318E+02  0.69879019318E+02  0.00000000000E+00 0. -1.
         25    1    1    2    0    0  0.00000000000E+00  0.00000000000E+00 -0.13978835856E+02  0.12577920278E+03  0.12500000000E+03 0.  0.
<mgrwt>
<rscale>  0 0.12500000E+03</rscale>
<asrwt>0</asrwt>
<pdfrwt beam="1">  1       21 0.86000282E-02 0.12500000E+03</pdfrwt>
<pdfrwt beam="2">  1       21 0.10750618E-01 0.12500000E+03</pdfrwt>
<totfact> 0.73936552E+06</totfact>
</mgrwt>
</event>
<event>
 3    1  0.1595726E-001  0.1250000E+03  0.7546771E-02  0.1235069E+00
         21   -1    0    0  502  501  0.00000000000E+00  0.00000000000E+00  0.29052171327E+03  0.29052171327E+03  0.00000000000E+00 0.  1.
         21   -1    0    0  501  502 -0.00000000000E+00 -0.00000000000E+00 -0.13445638731E+02  0.13445638731E+02  0.00000000000E+00 0.  1.
         25    1    1    2    0    0  0.00000000000E+00  0.00000000000E+00  0.27707607454E+03  0.30396735200E+03  0.12500000000E+03 0.  0.
<mgrwt>
<rscale>  0 0.12500000E+03</rscale>
<asrwt>0</asrwt>
<pdfrwt beam="1">  1       21 0.44695643E-01 0.12500000E+03</pdfrwt>
<pdfrwt beam="2">  1       21 0.20685600E-02 0.12500000E+03</pdfrwt>
<totfact> 0.55128077E+06</totfact>
</mgrwt>
</event>
<event>
 3    1  0.1595726E-001  0.1250000E+03  0.7546771E-02  0.1235069E+00
         21   -1    0    0  502  501  0.00000000000E+00  0.00000000000E+00  0.19488927098E+03  0.19488927098E+03  0.00000000000E+00 0. -1.
         21   -1    0    0  501  502 -0.00000000000E+00 -0.00000000000E+00 -0.20043432768E+02  0.20043432768E+02  0.00000000000E+00 0. -1.
         25    1    1    2    0    0  0.00000000000E+00  0.00000000000E+00  0.17484583821E+03  0.21493270375E+03  0.12500000000E+03 0.  0.
<mgrwt>
<rscale>  0 0.12500000E+03</rscale>
<asrwt>0</asrwt>
<pdfrwt beam="1">  1       21 0.29982963E-01 0.12500000E+03</pdfrwt>
<pdfrwt beam="2">  1       21 0.30836052E-02 0.12500000E+03</pdfrwt>
<totfact> 0.63344267E+06</totfact>
</mgrwt>
</event>
<event>
 3    1  0.1595726E-001  0.1250000E+03  0.7546771E-02  0.1235069E+00
         21   -1    0    0  502  501  0.00000000000E+00  0.00000000000E+00  0.11135331069E+04  0.11135331069E+04  0.00000000000E+00 0. -1.
         21   -1    0    0  501  502 -0.00000000000E+00 -0.00000000000E+00 -0.35079783222E+01  0.35079783222E+01  0.00000000000E+00 0. -1.
         25    1    1    2    0    0  0.00000000000E+00  0.00000000000E+00  0.11100251285E+04  0.11170410852E+04  0.12500000000E+03 0.  0.
<mgrwt>
<rscale>  0 0.12500000E+03</rscale>
<asrwt>0</asrwt>
<pdfrwt beam="1">  1       21 0.17131250E+00 0.12500000E+03</pdfrwt>
<pdfrwt beam="2">  1       21 0.53968986E-03 0.12500000E+03</pdfrwt>
<totfact> 0.20876393E+06</totfact>
</mgrwt>
</event>
<event>
 3    1  0.1595726E-001  0.1250000E+03  0.7546771E-02  0.1235069E+00
         21   -1    0    0  502  501  0.00000000000E+00  0.00000000000E+00  0.17270892404E+03  0.17270892404E+03  0.00000000000E+00 0.  1.
         21   -1    0    0  501  502 -0.00000000000E+00 -0.00000000000E+00 -0.22617534222E+02  0.22617534222E+02  0.00000000000E+00 0.  1.
         25    1    1    2    0    0  0.00000000000E+00  0.00000000000E+00  0.15009138982E+03  0.19532645826E+03  0.12500000000E+03 0.  0.
<mgrwt>
<rscale>  0 0.12500000E+03</rscale>
<asrwt>0</asrwt>
<pdfrwt beam="1">  1       21 0.26570603E-01 0.12500000E+03</pdfrwt>
<pdfrwt beam="2">  1       21 0.34796208E-02 0.12500000E+03</pdfrwt>
<totfact> 0.65435311E+06</totfact>
</mgrwt>
</event>
<event>
 3    1  0.1595726E-001  0.1250000E+03  0.7546771E-02  0.1235069E+00
         21   -1    0    0  502  501  0.00000000000E+00  0.00000000000E+00  0.53106602653E+03  0.53106602653E+03  0.00000000000E+00 0. -1.
         21   -1    0    0  501  502 -0.00000000000E+00 -0.00000000000E+00 -0.73554884042E+01  0.73554884042E+01  0.00000000000E+00 0. -1.
         25    1    1    2    0    0  0.00000000000E+00  0.00000000000E+00  0.52371053812E+03  0.53842151493E+03  0.12500000000E+03 0.  0.
<mgrwt>
<rscale>  0 0.12500000E+03</rscale>
<asrwt>0</asrwt>
<pdfrwt beam="1">  1       21 0.81702435E-01 0.12500000E+03</pdfrwt>
<pdfrwt beam="2">  1       21 0.11316140E-02 0.12500000E+03</pdfrwt>
<totfact> 0.40034217E+06</totfact>
</mgrwt>
</event>
<event>
 3    1  0.1595726E-001  0.1250000E+03  0.7546771E-02  0.1235069E+00
         21   -1    0    0  502  501  0.00000000000E+00  0.00000000000E+00  0.18876302713E+03  0.18876302713E+03  0.00000000000E+00 0. -1.
         21   -1    0    0  501  502 -0.00000000000E+00 -0.00000000000E+00 -0.20693935986E+02  0.20693935986E+02  0.00000000000E+00 0. -1.
         25    1    1    2    0    0  0.00000000000E+00  0.00000000000E+00  0.16806909114E+03  0.20945696311E+03  0.12500000000E+03 0.  0.
<mgrwt>
<rscale>  0 0.12500000E+03</rscale>
<asrwt>0</asrwt>
<pdfrwt beam="1">  1       21 0.29040465E-01 0.12500000E+03</pdfrwt>
<pdfrwt beam="2">  1       21 0.31836826E-02 0.12500000E+03</pdfrwt>
<totfact> 0.63916715E+06</totfact>
</mgrwt>
</event>
<event>
 3    1  0.1595726E-001  0.1250000E+03  0.7546771E-02  0.1235069E+00
         21   -1    0    0  502  501  0.00000000000E+00  0.00000000000E+00  0.17806431726E+02  0.17806431726E+02  0.00000000000E+00 0.  1.
         21   -1    0    0  501  502 -0.00000000000E+00 -0.00000000000E+00 -0.21937298051E+03  0.21937298051E+03  0.00000000000E+00 0.  1.
         25    1    1    2    0    0  0.00000000000E+00  0.00000000000E+00 -0.20156654879E+03  0.23717941224E+03  0.12500000000E+03 0.  0.
<mgrwt>
<rscale>  0 0.12500000E+03</rscale>
<asrwt>0</asrwt>
<pdfrwt beam="1">  1       21 0.27394512E-02 0.12500000E+03</pdfrwt>
<pdfrwt beam="2">  1       21 0.33749688E-01 0.12500000E+03</pdfrwt>
<totfact> 0.61106678E+06</totfact>
</mgrwt>
</event>
<event>
 3    1  0.1595726E-001  0.1250000E+03  0.7546771E-02  0.1235069E+00
         21   -1    0    0  502  501  0.00000000000E+00  0.00000000000E+00  0.25170402342E+02  0.25170402342E+02  0.00000000000E+00 0. -1.
         21   -1    0    0  501  502 -0.00000000000E+00 -0.00000000000E+00 -0.15519219545E+03  0.15519219545E+03  0.00000000000E+00 0. -1.
         25    1    1    2    0    0  0.00000000000E+00  0.00000000000E+00 -0.13002179311E+03  0.18036259780E+03  0.12500000000E+03 0.  0.
<mgrwt>
<rscale>  0 0.12500000E+03</rscale>
<asrwt>0</asrwt>
<pdfrwt beam="1">  1       21 0.38723696E-02 0.12500000E+03</pdfrwt>
<pdfrwt beam="2">  1       21 0.23875722E-01 0.12500000E+03</pdfrwt>
<totfact> 0.67109965E+06</totfact>
</mgrwt>
</event>
<event>
 3    1  0.1595726E-001  0.1250000E+03  0.7546771E-02  0.1235069E+00
         21   -1    0    0  502  501  0.00000000000E+00  0.00000000000E+00  0.22559619439E+02  0.22559619439E+02  0.00000000000E+00 0.  1.
         21   -1    0    0  501  502 -0.00000000000E+00 -0.00000000000E+00 -0.17315230031E+03  0.17315230031E+03  0.00000000000E+00 0.  1.
         25    1    1    2    0    0  0.00000000000E+00  0.00000000000E+00 -0.15059268087E+03  0.19571191975E+03  0.12500000000E+03 0.  0.
<mgrwt>
<rscale>  0 0.12500000E+03</rscale>
<asrwt>0</asrwt>
<pdfrwt beam="1">  1       21 0.34707108E-02 0.12500000E+03</pdfrwt>
<pdfrwt beam="2">  1       21 0.26638815E-01 0.12500000E+03</pdfrwt>
<totfact> 0.65393190E+06</totfact>
</mgrwt>
</event>
<event>
 3    1  0.1595726E-001  0.1250000E+03  0.7546771E-02  0.1235069E+00
         21   -1    0    0  502  501  0.00000000000E+00  0.00000000000E+00  0.10207558154E+03  0.10207558154E+03  0.00000000000E+00 0.  1.
         21   -1    0    0  501  502 -0.00000000000E+00 -0.00000000000E+00 -0.38268212056E+02  0.38268212056E+02  0.00000000000E+00 0.  1.
         25    1    1    2    0    0  0.00000000000E+00  0.00000000000E+00  0.63807369481E+02  0.14034379359E+03  0.12500000000E+03 0.  0.
<mgrwt>
<rscale>  0 0.12500000E+03</rscale>
<asrwt>0</asrwt>
<pdfrwt beam="1">  1       21 0.15703935E-01 0.12500000E+03</pdfrwt>
<pdfrwt beam="2">  1       21 0.58874173E-02 0.12500000E+03</pdfrwt>
<totfact> 0.71994459E+06</totfact>
</mgrwt>
</event>
<event>
 3    1  0.1595726E-001  0.1250000E+03  0.7546771E-02  0.1235069E+00
         21   -1    0    0  502  501  0.00000000000E+00  0.00000000000E+00  0.20093233731E+01  0.20093233731E+01  0.00000000000E+00 0.  1.
         21   -1    0    0  501  502 -0.00000000000E+00 -0.00000000000E+00 -0.19440623905E+04  0.19440623905E+04  0.00000000000E+00 0.  1.
         25    1    1    2    0    0  0.00000000000E+00  0.00000000000E+00 -0.19420530672E+04  0.19460717139E+04  0.12500000000E+03 0.  0.
<mgrwt>
<rscale>  0 0.12500000E+03</rscale>
<asrwt>0</asrwt>
<pdfrwt beam="1">  1       21 0.30912710E-03 0.12500000E+03</pdfrwt>
<pdfrwt beam="2">  1       21 0.29908610E+00 0.12500000E+03</pdfrwt>
<totfact> 0.84859480E+05</totfact>
</mgrwt>
</event>
<event>
 3    1  0.1595726E-001  0.1250000E+03  0.7546771E-02  0.1235069E+00
         21   -1    0    0  502  501  0.00000000000E+00  0.00000000000E+00  0.12247053277E+03  0.12247053277E+03  0.00000000000E+00 0.  1.
         21   -1    0    0  501  502 -0.00000000000E+00 -0.00000000000E+00 -0.31895427509E+02  0.31895427509E+02  0.00000000000E+00 0.  1.
         25    1    1    2    0    0  0.00000000000E+00  0.00000000000E+00  0.90575105265E+02  0.15436596028E+03  0.12500000000E+03 0.  0.
<mgrwt>
<rscale>  0 0.12500000E+03</rscale>
<asrwt>0</asrwt>
<pdfrwt beam="1">  1       21 0.18841620E-01 0.12500000E+03</pdfrwt>
<pdfrwt beam="2">  1       21 0.49069889E-02 0.12500000E+03</pdfrwt>
<totfact> 0.70214548E+06</totfact>
</mgrwt>
</event>
<event>
 3    1  0.1595726E-001  0.1250000E+03  0.7546771E-02  0.1235069E+00
         21   -1    0    0  502  501  0.00000000000E+00  0.00000000000E+00  0.36760479176E+03  0.36760479176E+03  0.00000000000E+00 0. -1.
         21   -1    0    0  501  502 -0.00000000000E+00 -0.00000000000E+00 -0.10626221659E+02  0.10626221659E+02  0.00000000000E+00 0. -1.
         25    1    1    2    0    0  0.00000000000E+00  0.00000000000E+00  0.35697857010E+03  0.37823101342E+03  0.12500000000E+03 0.  0.
<mgrwt>
<rscale>  0 0.12500000E+03</rscale>
<asrwt>0</asrwt>
<pdfrwt beam="1">  1       21 0.56554573E-01 0.12500000E+03</pdfrwt>
<pdfrwt beam="2">  1       21 0.16348036E-02 0.12500000E+03</pdfrwt>
<totfact> 0.49518718E+06</totfact>
</mgrwt>
</event>
<event>
 3    1  0.1595726E-001  0.1250000E+03  0.7546771E-02  0.1235069E+00
         21   -1    0    0  502  501  0.00000000000E+00  0.00000000000E+00  0.35504051572E+02  0.35504051572E+02  0.00000000000E+00 0.  1.
         21   -1    0    0  501  502 -0.00000000000E+00 -0.00000000000E+00 -0.11002265452E+03  0.11002265452E+03  0.00000000000E+00 0.  1.
         25    1    1    2    0    0  0.00000000000E+00  0.00000000000E+00 -0.74518602944E+02  0.14552670609E+03  0.12500000000E+03 0.  0.
<mgrwt>
<rscale>  0 0.12500000E+03</rscale>
<asrwt>0</asrwt>
<pdfrwt beam="1">  1       21 0.54621618E-02 0.12500000E+03</pdfrwt>
<pdfrwt beam="2">  1       21 0.16926562E-01 0.12500000E+03</pdfrwt>
<totfact> 0.71325762E+06</totfact>
</mgrwt>
</event>
<event>
 3    1  0.1595726E-001  0.1250000E+03  0.7546771E-02  0.1235069E+00
         21   -1    0    0  502  501  0.00000000000E+00  0.00000000000E+00  0.16413943678E+02  0.16413943678E+02  0.00000000000E+00 0.  1.
         21   -1    0    0  501  502 -0.00000000000E+00 -0.00000000000E+00 -0.23798363614E+03  0.23798363614E+03  0.00000000000E+00 0.  1.
         25    1    1    2    0    0  0.00000000000E+00  0.00000000000E+00 -0.22156969247E+03  0.25439757982E+03  0.12500000000E+03 0.  0.
<mgrwt>
<rscale>  0 0.12500000E+03</rscale>
<asrwt>0</asrwt>
<pdfrwt beam="1">  1       21 0.25252221E-02 0.12500000E+03</pdfrwt>
<pdfrwt beam="2">  1       21 0.36612867E-01 0.12500000E+03</pdfrwt>
<totfact> 0.59466617E+06</totfact>
</mgrwt>
</event>
<event>
 3    1  0.1595726E-001  0.1250000E+03  0.7546771E-02  0.1235069E+00
         21   -1    0    0  502  501  0.00000000000E+00  0.00000000000E+00  0.11037400575E+04  0.11037400575E+04  0.00000000000E+00 0.  1.
         21   -1    0    0  501  502 -0.00000000000E+00 -0.00000000000E+00 -0.35391032275E+01  0.35391032275E+01  0.00000000000E+00 0.  1.
         25    1    1    2    0    0  0.00000000000E+00  0.00000000000E+00  0.11002009543E+04  0.11072791608E+04  0.12500000000E+03 0.  0.
<mgrwt>
<rscale>  0 0.12500000E+03</rscale>
<asrwt>0</asrwt>
<pdfrwt beam="1">  1       21 0.16980589E+00 0.12500000E+03</pdfrwt>
<pdfrwt beam="2">  1       21 0.54447830E-03 0.12500000E+03</pdfrwt>
<totfact> 0.21090284E+06</totfact>
</mgrwt>
</event>
<event>
 3    1  0.1595726E-001  0.1250000E+03  0.7546771E-02  0.1235069E+00
         21   -1    0    0  502  501  0.00000000000E+00  0.00000000000E+00  0.24054761807E+02  0.24054761807E+02  0.00000000000E+00 0. -1.
         21   -1    0    0  501  502 -0.00000000000E+00 -0.00000000000E+00 -0.16238988485E+03  0.16238988485E+03  0.00000000000E+00 0. -1.
         25    1    1    2    0    0  0.00000000000E+00  0.00000000000E+00 -0.13833512305E+03  0.18644464666E+03  0.12500000000E+03 0.  0.
<mgrwt>
<rscale>  0 0.12500000E+03</rscale>
<asrwt>0</asrwt>
<pdfrwt beam="1">  1       21 0.37007325E-02 0.12500000E+03</pdfrwt>
<pdfrwt beam="2">  1       21 0.24983060E-01 0.12500000E+03</pdfrwt>
<totfact> 0.66419805E+06</totfact>
</mgrwt>
</event>
<event>
 3    1  0.1595726E-001  0.1250000E+03  0.7546771E-02  0.1235069E+00
         21   -1    0    0  502  501  0.00000000000E+00  0.00000000000E+00  0.23587742486E+03  0.23587742486E+03  0.00000000000E+00 0. -1.
         21   -1    0    0  501  502 -0.00000000000E+00 -0.00000000000E+00 -0.16560508079E+02  0.16560508079E+02  0.00000000000E+00 0. -1.
         25    1    1    2    0    0  0.00000000000E+00  0.00000000000E+00  0.21931691679E+03  0.25243793294E+03  0.12500000000E+03 0.  0.
<mgrwt>
<rscale>  0 0.12500000E+03</rscale>
<asrwt>0</asrwt>
<pdfrwt beam="1">  1       21 0.36288832E-01 0.12500000E+03</pdfrwt>
<pdfrwt beam="2">  1       21 0.25477706E-02 0.12500000E+03</pdfrwt>
<totfact> 0.59649419E+06</totfact>
</mgrwt>
</event>
<event>
 3    1  0.1595726E-001  0.1250000E+03  0.7546771E-02  0.1235069E+00
         21   -1    0    0  502  501  0.00000000000E+00  0.00000000000E+00  0.18771999811E+02  0.18771999811E+02  0.00000000000E+00 0. -1.
         21   -1    0    0  501  502 -0.00000000000E+00 -0.00000000000E+00 -0.20808917747E+03  0.20808917747E+03  0.00000000000E+00 0. -1.
         25    1    1    2    0    0  0.00000000000E+00  0.00000000000E+00 -0.18931717766E+03  0.22686117728E+03  0.12500000000E+03 0.  0.
<mgrwt>
<rscale>  0 0.12500000E+03</rscale>
<asrwt>0</asrwt>
<pdfrwt beam="1">  1       21 0.28879998E-02 0.12500000E+03</pdfrwt>
<pdfrwt beam="2">  1       21 0.32013721E-01 0.12500000E+03</pdfrwt>
<totfact> 0.62127739E+06</totfact>
</mgrwt>
</event>
<event>
 3    1  0.1595726E-001  0.1250000E+03  0.7546771E-02  0.1235069E+00
         21   -1    0    0  502  501  0.00000000000E+00  0.00000000000E+00  0.13704735434E+03  0.13704735434E+03  0.00000000000E+00 0. -1.
         21   -1    0    0  501  502 -0.00000000000E+00 -0.00000000000E+00 -0.28502921628E+02  0.28502921628E+02  0.00000000000E+00 0. -1.
         25    1    1    2    0    0  0.00000000000E+00  0.00000000000E+00  0.10854443271E+03  0.16555027597E+03  0.12500000000E+03 0.  0.
<mgrwt>
<rscale>  0 0.12500000E+03</rscale>
<asrwt>0</asrwt>
<pdfrwt beam="1">  1       21 0.21084208E-01 0.12500000E+03</pdfrwt>
<pdfrwt beam="2">  1       21 0.43850650E-02 0.12500000E+03</pdfrwt>
<totfact> 0.68847592E+06</totfact>
</mgrwt>
</event>
<event>
 3    1  0.1595726E-001  0.1250000E+03  0.7546771E-02  0.1235069E+00
         21   -1    0    0  502  501  0.00000000000E+00  0.00000000000E+00  0.12328327989E+04  0.12328327989E+04  0.00000000000E+00 0.  1.
         21   -1    0    0  501  502 -0.00000000000E+00 -0.00000000000E+00 -0.31685156360E+01  0.31685156360E+01  0.00000000000E+00 0.  1.
         25    1    1    2    0    0  0.00000000000E+00  0.00000000000E+00  0.12296642833E+04  0.12360013146E+04  0.12500000000E+03 0.  0.
<mgrwt>
<rscale>  0 0.12500000E+03</rscale>
<asrwt>0</asrwt>
<pdfrwt beam="1">  1       21 0.18966620E+00 0.12500000E+03</pdfrwt>
<pdfrwt beam="2">  1       21 0.48746493E-03 0.12500000E+03</pdfrwt>
<totfact> 0.18440445E+06</totfact>
</mgrwt>
</event>
<event>
 3    1  0.1595726E-001  0.1250000E+03  0.7546771E-02  0.1235069E+00
         21   -1    0    0  502  501  0.00000000000E+00  0.00000000000E+00  0.11396744889E+02  0.11396744889E+02  0.00000000000E+00 0. -1.
         21   -1    0    0  501  502 -0.00000000000E+00 -0.00000000000E+00 -0.34275137664E+03  0.34275137664E+03  0.00000000000E+00 0. -1.
         25    1    1    2    0    0  0.00000000000E+00  0.00000000000E+00 -0.33135463175E+03  0.35414812153E+03  0.12500000000E+03 0.  0.
<mgrwt>
<rscale>  0 0.12500000E+03</rscale>
<asrwt>0</asrwt>
<pdfrwt beam="1">  1       21 0.17533456E-02 0.12500000E+03</pdfrwt>
<pdfrwt beam="2">  1       21 0.52730974E-01 0.12500000E+03</pdfrwt>
<totfact> 0.51233536E+06</totfact>
</mgrwt>
</event>
<event>
 3    1  0.1595726E-001  0.1250000E+03  0.7546771E-02  0.1235069E+00
         21   -1    0    0  502  501  0.00000000000E+00  0.00000000000E+00  0.21774897290E+02  0.21774897290E+02  0.00000000000E+00 0. -1.
         21   -1    0    0  501  502 -0.00000000000E+00 -0.00000000000E+00 -0.17939235019E+03  0.17939235019E+03  0.00000000000E+00 0. -1.
         25    1    1    2    0    0  0.00000000000E+00  0.00000000000E+00 -0.15761745290E+03  0.20116724748E+03  0.12500000000E+03 0.  0.
<mgrwt>
<rscale>  0 0.12500000E+03</rscale>
<asrwt>0</asrwt>
<pdfrwt beam="1">  1       21 0.33499841E-02 0.12500000E+03</pdfrwt>
<pdfrwt beam="2">  1       21 0.27598824E-01 0.12500000E+03</pdfrwt>
<totfact> 0.64800992E+06</totfact>
</mgrwt>
</event>
<event>
 3    1  0.1595726E-001  0.1250000E+03  0.7546771E-02  0.1235069E+00
         21   -1    0    0  502  501  0.00000000000E+00  0.00000000000E+00  0.14463027879E+03  0.14463027879E+03  0.00000000000E+00 0.  1.
         21   -1    0    0  501  502 -0.00000000000E+00 -0.00000000000E+00 -0.27008521539E+02  0.27008521539E+02  0.00000000000E+00 0.  1.
         25    1    1    2    0    0  0.00000000000E+00  0.00000000000E+00  0.11762175725E+03  0.17163880033E+03  0.12500000000E+03 0.  0.
<mgrwt>
<rscale>  0 0.12500000E+03</rscale>
<asrwt>0</asrwt>
<pdfrwt beam="1">  1       21 0.22250812E-01 0.12500000E+03</pdfrwt>
<pdfrwt beam="2">  1       21 0.41551573E-02 0.12500000E+03</pdfrwt>
<totfact> 0.68123895E+06</totfact>
</mgrwt>
</event>
<event>
 3    1  0.1595726E-001  0.1250000E+03  0.7546771E-02  0.1235069E+00
         21   -1    0    0  502  501  0.00000000000E+00  0.00000000000E+00  0.17725967628E+01  0.17725967628E+01  0.00000000000E+00 0. -1.
         21   -1    0    0  501  502 -0.00000000000E+00 -0.00000000000E+00 -0.22036878786E+04  0.22036878786E+04  0.00000000000E+00 0. -1.
         25    1    1    2    0    0  0.00000000000E+00  0.00000000000E+00 -0.22019152819E+04  0.22054604754E+04  0.12500000000E+03 0.  0.
<mgrwt>
<rscale>  0 0.12500000E+03</rscale>
<asrwt>0</asrwt>
<pdfrwt beam="1">  1       21 0.27270606E-03 0.12500000E+03</pdfrwt>
<pdfrwt beam="2">  1       21 0.33903032E+00 0.12500000E+03</pdfrwt>
<totfact> 0.61125937E+05</totfact>
</mgrwt>
</event>
<event>
 3    1  0.1595726E-001  0.1250000E+03  0.7546771E-02  0.1235069E+00
         21   -1    0    0  502  501  0.00000000000E+00  0.00000000000E+00  0.51581049178E+02  0.51581049178E+02  0.00000000000E+00 0.  1.
         21   -1    0    0  501  502 -0.00000000000E+00 -0.00000000000E+00 -0.75730332404E+02  0.75730332404E+02  0.00000000000E+00 0.  1.
         25    1    1    2    0    0  0.00000000000E+00  0.00000000000E+00 -0.24149283226E+02  0.12731138158E+03  0.12500000000E+03 0.  0.
<mgrwt>
<rscale>  0 0.12500000E+03</rscale>
<asrwt>0</asrwt>
<pdfrwt beam="1">  1       21 0.79355460E-02 0.12500000E+03</pdfrwt>
<pdfrwt beam="2">  1       21 0.11650820E-01 0.12500000E+03</pdfrwt>
<totfact> 0.73726806E+06</totfact>
</mgrwt>
</event>
<event>
 3    1  0.1595726E-001  0.1250000E+03  0.7546771E-02  0.1235069E+00
         21   -1    0    0  502  501  0.00000000000E+00  0.00000000000E+00  0.12768218957E+04  0.12768218957E+04  0.00000000000E+00 0. -1.
         21   -1    0    0  501  502 -0.00000000000E+00 -0.00000000000E+00 -0.30593538638E+01  0.30593538638E+01  0.00000000000E+00 0. -1.
         25    1    1    2    0    0  0.00000000000E+00  0.00000000000E+00  0.12737625418E+04  0.12798812496E+04  0.12500000000E+03 0.  0.
<mgrwt>
<rscale>  0 0.12500000E+03</rscale>
<asrwt>0</asrwt>
<pdfrwt beam="1">  1       21 0.19643371E+00 0.12500000E+03</pdfrwt>
<pdfrwt beam="2">  1       21 0.47067085E-03 0.12500000E+03</pdfrwt>
<totfact> 0.17617547E+06</totfact>
</mgrwt>
</event>
<event>
 3    1  0.1595726E-001  0.1250000E+03  0.7546771E-02  0.1235069E+00
         21   -1    0    0  502  501  0.00000000000E+00  0.00000000000E+00  0.13435509387E+04  0.13435509387E+04  0.00000000000E+00 0. -1.
         21   -1    0    0  501  502 -0.00000000000E+00 -0.00000000000E+00 -0.29074074435E+01  0.29074074435E+01  0.00000000000E+00 0. -1.
         25    1    1    2    0    0  0.00000000000E+00  0.00000000000E+00  0.13406435313E+04  0.13464583462E+04  0.12500000000E+03 0.  0.
<mgrwt>
<rscale>  0 0.12500000E+03</rscale>
<asrwt>0</asrwt>
<pdfrwt beam="1">  1       21 0.20669965E+00 0.12500000E+03</pdfrwt>
<pdfrwt beam="2">  1       21 0.44729452E-03 0.12500000E+03</pdfrwt>
<totfact> 0.16438308E+06</totfact>
</mgrwt>
</event>
<event>
 3    1  0.1595726E-001  0.1250000E+03  0.7546771E-02  0.1235069E+00
         21   -1    0    0  502  501  0.00000000000E+00  0.00000000000E+00  0.27913560386E+03  0.27913560386E+03  0.00000000000E+00 0. -1.
         21   -1    0    0  501  502 -0.00000000000E+00 -0.00000000000E+00 -0.13994094433E+02  0.13994094433E+02  0.00000000000E+00 0. -1.
         25    1    1    2    0    0  0.00000000000E+00  0.00000000000E+00  0.26514150943E+03  0.29312969830E+03  0.12500000000E+03 0.  0.
<mgrwt>
<rscale>  0 0.12500000E+03</rscale>
<asrwt>0</asrwt>
<pdfrwt beam="1">  1       21 0.42943935E-01 0.12500000E+03</pdfrwt>
<pdfrwt beam="2">  1       21 0.21529378E-02 0.12500000E+03</pdfrwt>
<totfact> 0.56032001E+06</totfact>
</mgrwt>
</event>
<event>
 3    1  0.1595726E-001  0.1250000E+03  0.7546771E-02  0.1235069E+00
         21   -1    0    0  502  501  0.00000000000E+00  0.00000000000E+00  0.41118019092E+01  0.41118019092E+01  0.00000000000E+00 0. -1.
         21   -1    0    0  501  502 -0.00000000000E+00 -0.00000000000E+00 -0.95000928699E+03  0.95000928699E+03  0.00000000000E+00 0. -1.
         25    1    1    2    0    0  0.00000000000E+00  0.00000000000E+00 -0.94589748508E+03  0.95412108889E+03  0.12500000000E+03 0.  0.
<mgrwt>
<rscale>  0 0.12500000E+03</rscale>
<asrwt>0</asrwt>
<pdfrwt beam="1">  1       21 0.63258546E-03 0.12500000E+03</pdfrwt>
<pdfrwt beam="2">  1       21 0.14615515E+00 0.12500000E+03</pdfrwt>
<totfact> 0.24801412E+06</totfact>
</mgrwt>
</event>
<event>
 3    1  0.1595726E-001  0.1250000E+03  0.7546771E-02  0.1235069E+00
         21   -1    0    0  502  501  0.00000000000E+00  0.00000000000E+00  0.68496448616E+01  0.68496448616E+01  0.00000000000E+00 0.  1.
         21   -1    0    0  501  502 -0.00000000000E+00 -0.00000000000E+00 -0.57028504089E+03  0.57028504089E+03  0.00000000000E+00 0.  1.
         25    1    1    2    0    0  0.00000000000E+00  0.00000000000E+00 -0.56343539603E+03  0.57713468575E+03  0.12500000000E+03 0.  0.
<mgrwt>
<rscale>  0 0.12500000E+03</rscale>
<asrwt>0</asrwt>
<pdfrwt beam="1">  1       21 0.10537917E-02 0.12500000E+03</pdfrwt>
<pdfrwt beam="2">  1       21 0.87736149E-01 0.12500000E+03</pdfrwt>
<totfact> 0.38147535E+06</totfact>
</mgrwt>
</event>
<event>
 3    1  0.1595726E-001  0.1250000E+03  0.7546771E-02  0.1235069E+00
         21   -1    0    0  502  501  0.00000000000E+00  0.00000000000E+00  0.37226141173E+03  0.37226141173E+03  0.00000000000E+00 0.  1.
         21   -1    0    0  501  502 -0.00000000000E+00 -0.00000000000E+00 -0.10493298196E+02  0.10493298196E+02  0.00000000000E+00 0.  1.
         25    1    1    2    0    0  0.00000000000E+00  0.00000000000E+00  0.36176811353E+03  0.38275470992E+03  0.12500000000E+03 0.  0.
<mgrwt>
<rscale>  0 0.12500000E+03</rscale>
<asrwt>0</asrwt>
<pdfrwt beam="1">  1       21 0.57270976E-01 0.12500000E+03</pdfrwt>
<pdfrwt beam="2">  1       21 0.16143539E-02 0.12500000E+03</pdfrwt>
<totfact> 0.49206652E+06</totfact>
</mgrwt>
</event>
<event>
 3    1  0.1595726E-001  0.1250000E+03  0.7546771E-02  0.1235069E+00
         21   -1    0    0  502  501  0.00000000000E+00  0.00000000000E+00  0.13109090485E+02  0.13109090485E+02  0.00000000000E+00 0. -1.
         21   -1    0    0  501  502 -0.00000000000E+00 -0.00000000000E+00 -0.29798024543E+03  0.29798024543E+03  0.00000000000E+00 0. -1.
         25    1    1    2    0    0  0.00000000000E+00  0.00000000000E+00 -0.28487115494E+03  0.31108933591E+03  0.12500000000E+03 0.  0.
<mgrwt>
<rscale>  0 0.12500000E+03</rscale>
<asrwt>0</asrwt>
<pdfrwt beam="1">  1       21 0.20167834E-02 0.12500000E+03</pdfrwt>
<pdfrwt beam="2">  1       21 0.45843109E-01 0.12500000E+03</pdfrwt>
<totfact> 0.54547017E+06</totfact>
</mgrwt>
</event>
<event>
 3    1  0.1595726E-001  0.1250000E+03  0.7546771E-02  0.1235069E+00
         21   -1    0    0  502  501  0.00000000000E+00  0.00000000000E+00  0.11512278678E+03  0.11512278678E+03  0.00000000000E+00 0. -1.
         21   -1    0    0  501  502 -0.00000000000E+00 -0.00000000000E+00 -0.33931162623E+02  0.33931162623E+02  0.00000000000E+00 0. -1.
         25    1    1    2    0    0  0.00000000000E+00  0.00000000000E+00  0.81191624162E+02  0.14905394941E+03  0.12500000000E+03 0.  0.
<mgrwt>
<rscale>  0 0.12500000E+03</rscale>
<asrwt>0</asrwt>
<pdfrwt beam="1">  1       21 0.17711198E-01 0.12500000E+03</pdfrwt>
<pdfrwt beam="2">  1       21 0.52201789E-02 0.12500000E+03</pdfrwt>
<totfact> 0.70878245E+06</totfact>
</mgrwt>
</event>
<event>
 3    1  0.1595726E-001  0.1250000E+03  0.7546771E-02  0.1235069E+00
         21   -1    0    0  502  501  0.00000000000E+00  0.00000000000E+00  0.96240973431E+01  0.96240973431E+01  0.00000000000E+00 0. -1.
         21   -1    0    0  501  502 -0.00000000000E+00 -0.00000000000E+00 -0.40588222051E+03  0.40588222051E+03  0.00000000000E+00 0. -1.
         25    1    1    2    0    0  0.00000000000E+00  0.00000000000E+00 -0.39625812316E+03  0.41550631785E+03  0.12500000000E+03 0.  0.
<mgrwt>
<rscale>  0 0.12500000E+03</rscale>
<asrwt>0</asrwt>
<pdfrwt beam="1">  1       21 0.14806304E-02 0.12500000E+03</pdfrwt>
<pdfrwt beam="2">  1       21 0.62443416E-01 0.12500000E+03</pdfrwt>
<totfact> 0.47029559E+06</totfact>
</mgrwt>
</event>
<event>
 3    1  0.1595726E-001  0.1250000E+03  0.7546771E-02  0.1235069E+00
         21   -1    0    0  502  501  0.00000000000E+00  0.00000000000E+00  0.71094009215E+02  0.71094009215E+02  0.00000000000E+00 0.  1.
         21   -1    0    0  501  502 -0.00000000000E+00 -0.00000000000E+00 -0.54944854611E+02  0.54944854611E+02  0.00000000000E+00 0.  1.
         25    1    1    2    0    0  0.00000000000E+00  0.00000000000E+00  0.16149154604E+02  0.12603886383E+03  0.12500000000E+03 0.  0.
<mgrwt>
<rscale>  0 0.12500000E+03</rscale>
<asrwt>0</asrwt>
<pdfrwt beam="1">  1       21 0.10937540E-01 0.12500000E+03</pdfrwt>
<pdfrwt beam="2">  1       21 0.84530545E-02 0.12500000E+03</pdfrwt>
<totfact> 0.73900682E+06</totfact>
</mgrwt>
</event>
<event>
 3    1  0.1595726E-001  0.1250000E+03  0.7546771E-02  0.1235069E+00
         21   -1    0    0  502  501  0.00000000000E+00  0.00000000000E+00  0.32206595147E+01  0.32206595147E+01  0.00000000000E+00 0. -1.
         21   -1    0    0  501  502 -0.00000000000E+00 -0.00000000000E+00 -0.12128726996E+04  0.12128726996E+04  0.00000000000E+00 0. -1.
         25    1    1    2    0    0  0.00000000000E+00  0.00000000000E+00 -0.12096520401E+04  0.12160933591E+04  0.12500000000E+03 0.  0.
<mgrwt>
<rscale>  0 0.12500000E+03</rscale>
<asrwt>0</asrwt>
<pdfrwt beam="1">  1       21 0.49548584E-03 0.12500000E+03</pdfrwt>
<pdfrwt beam="2">  1       21 0.18659589E+00 0.12500000E+03</pdfrwt>
<totfact> 0.18825573E+06</totfact>
</mgrwt>
</event>
<event>
 3    1  0.1595726E-001  0.1250000E+03  0.7546771E-02  0.1235069E+00
         21   -1    0    0  502  501  0.00000000000E+00  0.00000000000E+00  0.43315959171E+02  0.43315959171E+02  0.00000000000E+00 0.  1.
         21   -1    0    0  501  502 -0.00000000000E+00 -0.00000000000E+00 -0.90180387893E+02  0.90180387893E+02  0.00000000000E+00 0.  1.
         25    1    1    2    0    0  0.00000000000E+00  0.00000000000E+00 -0.46864428722E+02  0.13349634706E+03  0.12500000000E+03 0.  0.
<mgrwt>
<rscale>  0 0.12500000E+03</rscale>
<asrwt>0</asrwt>
<pdfrwt beam="1">  1       21 0.66639938E-02 0.12500000E+03</pdfrwt>
<pdfrwt beam="2">  1       21 0.13873906E-01 0.12500000E+03</pdfrwt>
<totfact> 0.72896191E+06</totfact>
</mgrwt>
</event>
<event>
 3    1  0.1595726E-001  0.1250000E+03  0.7546771E-02  0.1235069E+00
         21   -1    0    0  502  501  0.00000000000E+00  0.00000000000E+00  0.47537377076E+01  0.47537377076E+01  0.00000000000E+00 0.  1.
         21   -1    0    0  501  502 -0.00000000000E+00 -0.00000000000E+00 -0.82172181981E+03  0.82172181981E+03  0.00000000000E+00 0.  1.
         25    1    1    2    0    0  0.00000000000E+00  0.00000000000E+00 -0.81696808210E+03  0.82647555752E+03  0.12500000000E+03 0.  0.
<mgrwt>
<rscale>  0 0.12500000E+03</rscale>
<asrwt>0</asrwt>
<pdfrwt beam="1">  1       21 0.73134432E-03 0.12500000E+03</pdfrwt>
<pdfrwt beam="2">  1       21 0.12641873E+00 0.12500000E+03</pdfrwt>
<totfact> 0.28504209E+06</totfact>
</mgrwt>
</event>
<event>
 3    1  0.1595726E-001  0.1250000E+03  0.7546771E-02  0.1235069E+00
         21   -1    0    0  502  501  0.00000000000E+00  0.00000000000E+00  0.23574928640E+02  0.23574928640E+02  0.00000000000E+00 0. -1.
         21   -1    0    0  501  502 -0.00000000000E+00 -0.00000000000E+00 -0.16569509328E+03  0.16569509328E+03  0.00000000000E+00 0. -1.
         25    1    1    2    0    0  0.00000000000E+00  0.00000000000E+00 -0.14212016464E+03  0.18927002192E+03  0.12500000000E+03 0.  0.
<mgrwt>
<rscale>  0 0.12500000E+03</rscale>
<asrwt>0</asrwt>
<pdfrwt beam="1">  1       21 0.36269121E-02 0.12500000E+03</pdfrwt>
<pdfrwt beam="2">  1       21 0.25491553E-01 0.12500000E+03</pdfrwt>
<totfact> 0.66103686E+06</totfact>
</mgrwt>
</event>
<event>
 3    1  0.1595726E-001  0.1250000E+03  0.7546771E-02  0.1235069E+00
         21   -1    0    0  502  501  0.00000000000E+00  0.00000000000E+00  0.10054732417E+03  0.10054732417E+03  0.00000000000E+00 0.  1.
         21   -1    0    0  501  502 -0.00000000000E+00 -0.00000000000E+00 -0.38849865298E+02  0.38849865298E+02  0.00000000000E+00 0.  1.
         25    1    1    2    0    0  0.00000000000E+00  0.00000000000E+00  0.61697458869E+02  0.13939718947E+03  0.12500000000E+03 0.  0.
<mgrwt>
<rscale>  0 0.12500000E+03</rscale>
<asrwt>0</asrwt>
<pdfrwt beam="1">  1       21 0.15468819E-01 0.12500000E+03</pdfrwt>
<pdfrwt beam="2">  1       21 0.59769024E-02 0.12500000E+03</pdfrwt>
<totfact> 0.72118102E+06</totfact>
</mgrwt>
</event>
<event>
 3    1  0.1595726E-001  0.1250000E+03  0.7546771E-02  0.1235069E+00
         21   -1    0    0  502  501  0.00000000000E+00  0.00000000000E+00  0.56816592502E+01  0.56816592502E+01  0.00000000000E+00 0. -1.
         21   -1    0    0  501  502 -0.00000000000E+00 -0.00000000000E+00 -0.68751923127E+03  0.68751923127E+03  0.00000000000E+00 0. -1.
         25    1    1    2    0    0  0.00000000000E+00  0.00000000000E+00 -0.68183757202E+03  0.69320089052E+03  0.12500000000E+03 0.  0.
<mgrwt>
<rscale>  0 0.12500000E+03</rscale>
<asrwt>0</asrwt>
<pdfrwt beam="1">  1       21 0.87410196E-03 0.12500000E+03</pdfrwt>
<pdfrwt beam="2">  1       21 0.10577212E+00 0.12500000E+03</pdfrwt>
<totfact> 0.33173937E+06</totfact>
</mgrwt>
</event>
<event>
 3    1  0.1595726E-001  0.1250000E+03  0.7546771E-02  0.1235069E+00
         21   -1    0    0  502  501  0.00000000000E+00  0.00000000000E+00  0.29098839179E+01  0.29098839179E+01  0.00000000000E+00 0. -1.
         21   -1    0    0  501  502 -0.00000000000E+00 -0.00000000000E+00 -0.13424075015E+04  0.13424075015E+04  0.00000000000E+00 0. -1.
         25    1    1    2    0    0  0.00000000000E+00  0.00000000000E+00 -0.13394976176E+04  0.13453173855E+04  0.12500000000E+03 0.  0.
<mgrwt>
<rscale>  0 0.12500000E+03</rscale>
<asrwt>0</asrwt>
<pdfrwt beam="1">  1       21 0.44767461E-03 0.12500000E+03</pdfrwt>
<pdfrwt beam="2">  1       21 0.20652416E+00 0.12500000E+03</pdfrwt>
<totfact> 0.16457787E+06</totfact>
</mgrwt>
</event>
<event>
 3    1  0.1595726E-001  0.1250000E+03  0.7546771E-02  0.1235069E+00
         21   -1    0    0  502  501  0.00000000000E+00  0.00000000000E+00  0.15581766044E+02  0.15581766044E+02  0.00000000000E+00 0.  1.
         21   -1    0    0  501  502 -0.00000000000E+00 -0.00000000000E+00 -0.25069366265E+03  0.25069366265E+03  0.00000000000E+00 0.  1.
         25    1    1    2    0    0  0.00000000000E+00  0.00000000000E+00 -0.23511189661E+03  0.26627542869E+03  0.12500000000E+03 0.  0.
<mgrwt>
<rscale>  0 0.12500000E+03</rscale>
<asrwt>0</asrwt>
<pdfrwt beam="1">  1       21 0.23971949E-02 0.12500000E+03</pdfrwt>
<pdfrwt beam="2">  1       21 0.38568254E-01 0.12500000E+03</pdfrwt>
<totfact> 0.58378828E+06</totfact>
</mgrwt>
</event>
<event>
 3    1  0.1595726E-001  0.1250000E+03  0.7546771E-02  0.1235069E+00
         21   -1    0    0  502  501  0.00000000000E+00  0.00000000000E+00  0.65595784686E+02  0.65595784686E+02  0.00000000000E+00 0. -1.
         21   -1    0    0  501  502 -0.00000000000E+00 -0.00000000000E+00 -0.59550320477E+02  0.59550320477E+02  0.00000000000E+00 0. -1.
         25    1    1    2    0    0  0.00000000000E+00  0.00000000000E+00  0.60454642081E+01  0.12514610516E+03  0.12500000000E+03 0.  0.
<mgrwt>
<rscale>  0 0.12500000E+03</rscale>
<asrwt>0</asrwt>
<pdfrwt beam="1">  1       21 0.10091659E-01 0.12500000E+03</pdfrwt>
<pdfrwt beam="2">  1       21 0.91615878E-02 0.12500000E+03</pdfrwt>
<totfact> 0.74023849E+06</totfact>
</mgrwt>
</event>
<event>
 3    1  0.1595726E-001  0.1250000E+03  0.7546771E-02  0.1235069E+00
         21   -1    0    0  502  501  0.00000000000E+00  0.00000000000E+00  0.27397294448E+03  0.27397294448E+03  0.00000000000E+00 0.  1.
         21   -1    0    0  501  502 -0.00000000000E+00 -0.00000000000E+00 -0.14257794716E+02  0.14257794716E+02  0.00000000000E+00 0.  1.
         25    1    1    2    0    0  0.00000000000E+00  0.00000000000E+00  0.25971514976E+03  0.28823073919E+03  0.12500000000E+03 0.  0.
<mgrwt>
<rscale>  0 0.12500000E+03</rscale>
<asrwt>0</asrwt>
<pdfrwt beam="1">  1       21 0.42149680E-01 0.12500000E+03</pdfrwt>
<pdfrwt beam="2">  1       21 0.21935071E-02 0.12500000E+03</pdfrwt>
<totfact> 0.56448653E+06</totfact>
</mgrwt>
</event>
<event>
 3    1  0.1595726E-001  0.1250000E+03  0.7546771E-02  0.1235069E+00
         21   -1    0    0  502  501  0.00000000000E+00  0.00000000000E+00  0.23901161317E+02  0.23901161317E+02  0.00000000000E+00 0.  1.
         21   -1    0    0  501  502 -0.00000000000E+00 -0.00000000000E+00 -0.16343348125E+03  0.16343348125E+03  0.00000000000E+00 0.  1.
         25    1    1    2    0    0  0.00000000000E+00  0.00000000000E+00 -0.13953231993E+03  0.18733464257E+03  0.12500000000E+03 0.  0.
<mgrwt>
<rscale>  0 0.12500000E+03</rscale>
<asrwt>0</asrwt>
<pdfrwt beam="1">  1       21 0.36771017E-02 0.12500000E+03</pdfrwt>
<pdfrwt beam="2">  1       21 0.25143613E-01 0.12500000E+03</pdfrwt>
<totfact> 0.66319926E+06</totfact>
</mgrwt>
</event>
<event>
 3    1  0.1595726E-001  0.1250000E+03  0.7546771E-02  0.1235069E+00
         21   -1    0    0  502  501  0.00000000000E+00  0.00000000000E+00  0.42322012011E+02  0.42322012011E+02  0.00000000000E+00 0.  1.
         21   -1    0    0  501  502 -0.00000000000E+00 -0.00000000000E+00 -0.92298305642E+02  0.92298305642E+02  0.00000000000E+00 0.  1.
         25    1    1    2    0    0  0.00000000000E+00  0.00000000000E+00 -0.49976293630E+02  0.13462031765E+03  0.12500000000E+03 0.  0.
<mgrwt>
<rscale>  0 0.12500000E+03</rscale>
<asrwt>0</asrwt>
<pdfrwt beam="1">  1       21 0.65110788E-02 0.12500000E+03</pdfrwt>
<pdfrwt beam="2">  1       21 0.14199739E-01 0.12500000E+03</pdfrwt>
<totfact> 0.72746783E+06</totfact>
</mgrwt>
</event>
<event>
 3    1  0.1595726E-001  0.1250000E+03  0.7546771E-02  0.1235069E+00
         21   -1    0    0  502  501  0.00000000000E+00  0.00000000000E+00  0.14735967961E+03  0.14735967961E+03  0.00000000000E+00 0.  1.
         21   -1    0    0  501  502 -0.00000000000E+00 -0.00000000000E+00 -0.26508268817E+02  0.26508268817E+02  0.00000000000E+00 0.  1.
         25    1    1    2    0    0  0.00000000000E+00  0.00000000000E+00  0.12085141080E+03  0.17386794843E+03  0.12500000000E+03 0.  0.
<mgrwt>
<rscale>  0 0.12500000E+03</rscale>
<asrwt>0</asrwt>
<pdfrwt beam="1">  1       21 0.22670719E-01 0.12500000E+03</pdfrwt>
<pdfrwt beam="2">  1       21 0.40781953E-02 0.12500000E+03</pdfrwt>
<totfact> 0.67862045E+06</totfact>
</mgrwt>
</event>
<event>
 3    1  0.1595726E-001  0.1250000E+03  0.7546771E-02  0.1235069E+00
         21   -1    0    0  502  501  0.00000000000E+00  0.00000000000E+00  0.38533460745E+01  0.38533460745E+01  0.00000000000E+00 0.  1.
         21   -1    0    0  501  502 -0.00000000000E+00 -0.00000000000E+00 -0.10137293470E+04  0.10137293470E+04  0.00000000000E+00 0.  1.
         25    1    1    2    0    0  0.00000000000E+00  0.00000000000E+00 -0.10098760010E+04  0.10175826931E+04  0.12500000000E+03 0.  0.
<mgrwt>
<rscale>  0 0.12500000E+03</rscale>
<asrwt>0</asrwt>
<pdfrwt beam="1">  1       21 0.59282273E-03 0.12500000E+03</pdfrwt>
<pdfrwt beam="2">  1       21 0.15595829E+00 0.12500000E+03</pdfrwt>
<totfact> 0.23183042E+06</totfact>
</mgrwt>
</event>
<event>
 3    1  0.1595726E-001  0.1250000E+03  0.7546771E-02  0.1235069E+00
         21   -1    0    0  502  501  0.00000000000E+00  0.00000000000E+00  0.38125236849E+01  0.38125236849E+01  0.00000000000E+00 0. -1.
         21   -1    0    0  501  502 -0.00000000000E+00 -0.00000000000E+00 -0.10245837988E+04  0.10245837988E+04  0.00000000000E+00 0. -1.
         25    1    1    2    0    0  0.00000000000E+00  0.00000000000E+00 -0.10207712751E+04  0.10283963225E+04  0.12500000000E+03 0.  0.
<mgrwt>
<rscale>  0 0.12500000E+03</rscale>
<asrwt>0</asrwt>
<pdfrwt beam="1">  1       21 0.58654140E-03 0.12500000E+03</pdfrwt>
<pdfrwt beam="2">  1       21 0.15762847E+00 0.12500000E+03</pdfrwt>
<totfact> 0.22917866E+06</totfact>
</mgrwt>
</event>
<event>
 3    1  0.1595726E-001  0.1250000E+03  0.7546771E-02  0.1235069E+00
         21   -1    0    0  502  501  0.00000000000E+00  0.00000000000E+00  0.24204283434E+02  0.24204283434E+02  0.00000000000E+00 0.  1.
         21   -1    0    0  501  502 -0.00000000000E+00 -0.00000000000E+00 -0.16138672358E+03  0.16138672358E+03  0.00000000000E+00 0.  1.
         25    1    1    2    0    0  0.00000000000E+00  0.00000000000E+00 -0.13718244015E+03  0.18559100702E+03  0.12500000000E+03 0.  0.
<mgrwt>
<rscale>  0 0.12500000E+03</rscale>
<asrwt>0</asrwt>
<pdfrwt beam="1">  1       21 0.37237358E-02 0.12500000E+03</pdfrwt>
<pdfrwt beam="2">  1       21 0.24828728E-01 0.12500000E+03</pdfrwt>
<totfact> 0.66515869E+06</totfact>
</mgrwt>
</event>
<event>
 3    1  0.1595726E-001  0.1250000E+03  0.7546771E-02  0.1235069E+00
         21   -1    0    0  502  501  0.00000000000E+00  0.00000000000E+00  0.41453683658E+02  0.41453683658E+02  0.00000000000E+00 0. -1.
         21   -1    0    0  501  502 -0.00000000000E+00 -0.00000000000E+00 -0.94231673890E+02  0.94231673890E+02  0.00000000000E+00 0. -1.
         25    1    1    2    0    0  0.00000000000E+00  0.00000000000E+00 -0.52777990233E+02  0.13568535755E+03  0.12500000000E+03 0.  0.
<mgrwt>
<rscale>  0 0.12500000E+03</rscale>
<asrwt>0</asrwt>
<pdfrwt beam="1">  1       21 0.63774898E-02 0.12500000E+03</pdfrwt>
<pdfrwt beam="2">  1       21 0.14497181E-01 0.12500000E+03</pdfrwt>
<totfact> 0.72605853E+06</totfact>
</mgrwt>
</event>
<event>
 3    1  0.1595726E-001  0.1250000E+03  0.7546771E-02  0.1235069E+00
         21   -1    0    0  502  501  0.00000000000E+00  0.00000000000E+00  0.78777965400E+02  0.78777965400E+02  0.00000000000E+00 0.  1.
         21   -1    0    0  501  502 -0.00000000000E+00 -0.00000000000E+00 -0.49585565966E+02  0.49585565966E+02  0.00000000000E+00 0.  1.
         25    1    1    2    0    0  0.00000000000E+00  0.00000000000E+00  0.29192399434E+02  0.12836353137E+03  0.12500000000E+03 0.  0.
<mgrwt>
<rscale>  0 0.12500000E+03</rscale>
<asrwt>0</asrwt>
<pdfrwt beam="1">  1       21 0.12119687E-01 0.12500000E+03</pdfrwt>
<pdfrwt beam="2">  1       21 0.76285486E-02 0.12500000E+03</pdfrwt>
<totfact> 0.73584508E+06</totfact>
</mgrwt>
</event>
<event>
 3    1  0.1595726E-001  0.1250000E+03  0.7546771E-02  0.1235069E+00
         21   -1    0    0  502  501  0.00000000000E+00  0.00000000000E+00  0.54818900873E+01  0.54818900873E+01  0.00000000000E+00 0.  1.
         21   -1    0    0  501  502 -0.00000000000E+00 -0.00000000000E+00 -0.71257357185E+03  0.71257357185E+03  0.00000000000E+00 0.  1.
         25    1    1    2    0    0  0.00000000000E+00  0.00000000000E+00 -0.70709168177E+03  0.71805546194E+03  0.12500000000E+03 0.  0.
<mgrwt>
<rscale>  0 0.12500000E+03</rscale>
<asrwt>0</asrwt>
<pdfrwt beam="1">  1       21 0.84336776E-03 0.12500000E+03</pdfrwt>
<pdfrwt beam="2">  1       21 0.10962670E+00 0.12500000E+03</pdfrwt>
<totfact> 0.32225566E+06</totfact>
</mgrwt>
</event>
<event>
 3    1  0.1595726E-001  0.1250000E+03  0.7546771E-02  0.1235069E+00
         21   -1    0    0  502  501  0.00000000000E+00  0.00000000000E+00  0.13397121241E+03  0.13397121241E+03  0.00000000000E+00 0. -1.
         21   -1    0    0  501  502 -0.00000000000E+00 -0.00000000000E+00 -0.29157383364E+02  0.29157383364E+02  0.00000000000E+00 0. -1.
         25    1    1    2    0    0  0.00000000000E+00  0.00000000000E+00  0.10481382904E+03  0.16312859577E+03  0.12500000000E+03 0.  0.
<mgrwt>
<rscale>  0 0.12500000E+03</rscale>
<asrwt>0</asrwt>
<pdfrwt beam="1">  1       21 0.20610956E-01 0.12500000E+03</pdfrwt>
<pdfrwt beam="2">  1       21 0.44857513E-02 0.12500000E+03</pdfrwt>
<totfact> 0.69139222E+06</totfact>
</mgrwt>
</event>
<event>
 3    1  0.1595726E-001  0.1250000E+03  0.7546771E-02  0.1235069E+00
         21   -1    0    0  502  501  0.00000000000E+00  0.00000000000E+00  0.46635390533E+03  0.46635390533E+03  0.00000000000E+00 0.  1.
         21   -1    0    0  501  502 -0.00000000000E+00 -0.00000000000E+00 -0.83761494337E+01  0.83761494337E+01  0.00000000000E+00 0.  1.
         25    1    1    2    0    0  0.00000000000E+00  0.00000000000E+00  0.45797775590E+03  0.47473005476E+03  0.12500000000E+03 0.  0.
<mgrwt>
<rscale>  0 0.12500000E+03</rscale>
<asrwt>0</asrwt>
<pdfrwt beam="1">  1       21 0.71746734E-01 0.12500000E+03</pdfrwt>
<pdfrwt beam="2">  1       21 0.12886387E-02 0.12500000E+03</pdfrwt>
<totfact> 0.43448535E+06</totfact>
</mgrwt>
</event>
<event>
 3    1  0.1595726E-001  0.1250000E+03  0.7546771E-02  0.1235069E+00
         21   -1    0    0  502  501  0.00000000000E+00  0.00000000000E+00  0.36768327937E+02  0.36768327937E+02  0.00000000000E+00 0.  1.
         21   -1    0    0  501  502 -0.00000000000E+00 -0.00000000000E+00 -0.10623953329E+03  0.10623953329E+03  0.00000000000E+00 0.  1.
         25    1    1    2    0    0  0.00000000000E+00  0.00000000000E+00 -0.69471205356E+02  0.14300786123E+03  0.12500000000E+03 0.  0.
<mgrwt>
<rscale>  0 0.12500000E+03</rscale>
<asrwt>0</asrwt>
<pdfrwt beam="1">  1       21 0.56566658E-02 0.12500000E+03</pdfrwt>
<pdfrwt beam="2">  1       21 0.16344544E-01 0.12500000E+03</pdfrwt>
<totfact> 0.71649030E+06</totfact>
</mgrwt>
</event>
<event>
 3    1  0.1595726E-001  0.1250000E+03  0.7546771E-02  0.1235069E+00
         21   -1    0    0  502  501  0.00000000000E+00  0.00000000000E+00  0.13111306872E+03  0.13111306872E+03  0.00000000000E+00 0. -1.
         21   -1    0    0  501  502 -0.00000000000E+00 -0.00000000000E+00 -0.29792987366E+02  0.29792987366E+02  0.00000000000E+00 0. -1.
         25    1    1    2    0    0  0.00000000000E+00  0.00000000000E+00  0.10132008135E+03  0.16090605609E+03  0.12500000000E+03 0.  0.
<mgrwt>
<rscale>  0 0.12500000E+03</rscale>
<asrwt>0</asrwt>
<pdfrwt beam="1">  1       21 0.20171241E-01 0.12500000E+03</pdfrwt>
<pdfrwt beam="2">  1       21 0.45835366E-02 0.12500000E+03</pdfrwt>
<totfact> 0.69408955E+06</totfact>
</mgrwt>
</event>
<event>
 3    1  0.1595726E-001  0.1250000E+03  0.7546771E-02  0.1235069E+00
         21   -1    0    0  502  501  0.00000000000E+00  0.00000000000E+00  0.33145637761E+02  0.33145637761E+02  0.00000000000E+00 0. -1.
         21   -1    0    0  501  502 -0.00000000000E+00 -0.00000000000E+00 -0.11785110391E+03  0.11785110391E+03  0.00000000000E+00 0. -1.
         25    1    1    2    0    0  0.00000000000E+00  0.00000000000E+00 -0.84705466150E+02  0.15099674167E+03  0.12500000000E+03 0.  0.
<mgrwt>
<rscale>  0 0.12500000E+03</rscale>
<asrwt>0</asrwt>
<pdfrwt beam="1">  1       21 0.50993288E-02 0.12500000E+03</pdfrwt>
<pdfrwt beam="2">  1       21 0.18130939E-01 0.12500000E+03</pdfrwt>
<totfact> 0.70634216E+06</totfact>
</mgrwt>
</event>
<event>
 3    1  0.1595726E-001  0.1250000E+03  0.7546771E-02  0.1235069E+00
         21   -1    0    0  502  501  0.00000000000E+00  0.00000000000E+00  0.48162285831E+02  0.48162285831E+02  0.00000000000E+00 0.  1.
         21   -1    0    0  501  502 -0.00000000000E+00 -0.00000000000E+00 -0.81105992637E+02  0.81105992637E+02  0.00000000000E+00 0.  1.
         25    1    1    2    0    0  0.00000000000E+00  0.00000000000E+00 -0.32943706805E+02  0.12926827847E+03  0.12500000000E+03 0.  0.
<mgrwt>
<rscale>  0 0.12500000E+03</rscale>
<asrwt>0</asrwt>
<pdfrwt beam="1">  1       21 0.74095826E-02 0.12500000E+03</pdfrwt>
<pdfrwt beam="2">  1       21 0.12477845E-01 0.12500000E+03</pdfrwt>
<totfact> 0.73462876E+06</totfact>
</mgrwt>
</event>
<event>
 3    1  0.1595726E-001  0.1250000E+03  0.7546771E-02  0.1235069E+00
         21   -1    0    0  502  501  0.00000000000E+00  0.00000000000E+00  0.60183339764E+02  0.60183339764E+02  0.00000000000E+00 0.  1.
         21   -1    0    0  501  502 -0.00000000000E+00 -0.00000000000E+00 -0.64905836322E+02  0.64905836322E+02  0.00000000000E+00 0.  1.
         25    1    1    2    0    0  0.00000000000E+00  0.00000000000E+00 -0.47224965580E+01  0.12508917609E+03  0.12500000000E+03 0.  0.
<mgrwt>
<rscale>  0 0.12500000E+03</rscale>
<asrwt>0</asrwt>
<pdfrwt beam="1">  1       21 0.92589753E-02 0.12500000E+03</pdfrwt>
<pdfrwt beam="2">  1       21 0.99855133E-02 0.12500000E+03</pdfrwt>
<totfact> 0.74031537E+06</totfact>
</mgrwt>
</event>
<event>
 3    1  0.1595726E-001  0.1250000E+03  0.7546771E-02  0.1235069E+00
         21   -1    0    0  502  501  0.00000000000E+00  0.00000000000E+00  0.11621929425E+03  0.11621929425E+03  0.00000000000E+00 0.  1.
         21   -1    0    0  501  502 -0.00000000000E+00 -0.00000000000E+00 -0.33611028403E+02  0.33611028403E+02  0.00000000000E+00 0.  1.
         25    1    1    2    0    0  0.00000000000E+00  0.00000000000E+00  0.82608265846E+02  0.14983032265E+03  0.12500000000E+03 0.  0.
<mgrwt>
<rscale>  0 0.12500000E+03</rscale>
<asrwt>0</asrwt>
<pdfrwt beam="1">  1       21 0.17879891E-01 0.12500000E+03</pdfrwt>
<pdfrwt beam="2">  1       21 0.51709275E-02 0.12500000E+03</pdfrwt>
<totfact> 0.70780522E+06</totfact>
</mgrwt>
</event>
<event>
 3    1  0.1595726E-001  0.1250000E+03  0.7546771E-02  0.1235069E+00
         21   -1    0    0  502  501  0.00000000000E+00  0.00000000000E+00  0.55505701274E+03  0.55505701274E+03  0.00000000000E+00 0.  1.
         21   -1    0    0  501  502 -0.00000000000E+00 -0.00000000000E+00 -0.70375653498E+01  0.70375653498E+01  0.00000000000E+00 0.  1.
         25    1    1    2    0    0  0.00000000000E+00  0.00000000000E+00  0.54801944739E+03  0.56209457809E+03  0.12500000000E+03 0.  0.
<mgrwt>
<rscale>  0 0.12500000E+03</rscale>
<asrwt>0</asrwt>
<pdfrwt beam="1">  1       21 0.85393352E-01 0.12500000E+03</pdfrwt>
<pdfrwt beam="2">  1       21 0.10827028E-02 0.12500000E+03</pdfrwt>
<totfact> 0.38864967E+06</totfact>
</mgrwt>
</event>
<event>
 3    1  0.1595726E-001  0.1250000E+03  0.7546771E-02  0.1235069E+00
         21   -1    0    0  502  501  0.00000000000E+00  0.00000000000E+00  0.14199664961E+03  0.14199664961E+03  0.00000000000E+00 0.  1.
         21   -1    0    0  501  502 -0.00000000000E+00 -0.00000000000E+00 -0.27509451883E+02  0.27509451883E+02  0.00000000000E+00 0.  1.
         25    1    1    2    0    0  0.00000000000E+00  0.00000000000E+00  0.11448719773E+03  0.16950610149E+03  0.12500000000E+03 0.  0.
<mgrwt>
<rscale>  0 0.12500000E+03</rscale>
<asrwt>0</asrwt>
<pdfrwt beam="1">  1       21 0.21845638E-01 0.12500000E+03</pdfrwt>
<pdfrwt beam="2">  1       21 0.42322234E-02 0.12500000E+03</pdfrwt>
<totfact> 0.68376204E+06</totfact>
</mgrwt>
</event>
<event>
 3    1  0.1595726E-001  0.1250000E+03  0.7546771E-02  0.1235069E+00
         21   -1    0    0  502  501  0.00000000000E+00  0.00000000000E+00  0.22812455787E+03  0.22812455787E+03  0.00000000000E+00 0. -1.
         21   -1    0    0  501  502 -0.00000000000E+00 -0.00000000000E+00 -0.17123320858E+02  0.17123320858E+02  0.00000000000E+00 0. -1.
         25    1    1    2    0    0  0.00000000000E+00  0.00000000000E+00  0.21100123702E+03  0.24524787873E+03  0.12500000000E+03 0.  0.
<mgrwt>
<rscale>  0 0.12500000E+03</rscale>
<asrwt>0</asrwt>
<pdfrwt beam="1">  1       21 0.35096084E-01 0.12500000E+03</pdfrwt>
<pdfrwt beam="2">  1       21 0.26343572E-02 0.12500000E+03</pdfrwt>
<totfact> 0.60328503E+06</totfact>
</mgrwt>
</event>
<event>
 3    1  0.1595726E-001  0.1250000E+03  0.7546771E-02  0.1235069E+00
         21   -1    0    0  502  501  0.00000000000E+00  0.00000000000E+00  0.24029675892E+01  0.24029675892E+01  0.00000000000E+00 0.  1.
         21   -1    0    0  501  502 -0.00000000000E+00 -0.00000000000E+00 -0.16255941268E+04  0.16255941268E+04  0.00000000000E+00 0.  1.
         25    1    1    2    0    0  0.00000000000E+00  0.00000000000E+00 -0.16231911592E+04  0.16279970944E+04  0.12500000000E+03 0.  0.
<mgrwt>
<rscale>  0 0.12500000E+03</rscale>
<asrwt>0</asrwt>
<pdfrwt beam="1">  1       21 0.36968737E-03 0.12500000E+03</pdfrwt>
<pdfrwt beam="2">  1       21 0.25009137E+00 0.12500000E+03</pdfrwt>
<totfact> 0.12197505E+06</totfact>
</mgrwt>
</event>
<event>
 3    1  0.1595726E-001  0.1250000E+03  0.7546771E-02  0.1235069E+00
         21   -1    0    0  502  501  0.00000000000E+00  0.00000000000E+00  0.17549452796E+02  0.17549452796E+02  0.00000000000E+00 0.  1.
         21   -1    0    0  501  502 -0.00000000000E+00 -0.00000000000E+00 -0.22258528773E+03  0.22258528773E+03  0.00000000000E+00 0.  1.
         25    1    1    2    0    0  0.00000000000E+00  0.00000000000E+00 -0.20503583493E+03  0.24013474052E+03  0.12500000000E+03 0.  0.
<mgrwt>
<rscale>  0 0.12500000E+03</rscale>
<asrwt>0</asrwt>
<pdfrwt beam="1">  1       21 0.26999159E-02 0.12500000E+03</pdfrwt>
<pdfrwt beam="2">  1       21 0.34243890E-01 0.12500000E+03</pdfrwt>
<totfact> 0.60819627E+06</totfact>
</mgrwt>
</event>
<event>
 3    1  0.1595726E-001  0.1250000E+03  0.7546771E-02  0.1235069E+00
         21   -1    0    0  502  501  0.00000000000E+00  0.00000000000E+00  0.13436727488E+02  0.13436727488E+02  0.00000000000E+00 0.  1.
         21   -1    0    0  501  502 -0.00000000000E+00 -0.00000000000E+00 -0.29071438737E+03  0.29071438737E+03  0.00000000000E+00 0.  1.
         25    1    1    2    0    0  0.00000000000E+00  0.00000000000E+00 -0.27727765988E+03  0.30415111485E+03  0.12500000000E+03 0.  0.
<mgrwt>
<rscale>  0 0.12500000E+03</rscale>
<asrwt>0</asrwt>
<pdfrwt beam="1">  1       21 0.20671889E-02 0.12500000E+03</pdfrwt>
<pdfrwt beam="2">  1       21 0.44725288E-01 0.12500000E+03</pdfrwt>
<totfact> 0.55112956E+06</totfact>
</mgrwt>
</event>
<event>
 3    1  0.1595726E-001  0.1250000E+03  0.7546771E-02  0.1235069E+00
         21   -1    0    0  502  501  0.00000000000E+00  0.00000000000E+00  0.29530133878E+02  0.29530133878E+02  0.00000000000E+00 0.  1.
         21   -1    0    0  501  502 -0.00000000000E+00 -0.00000000000E+00 -0.13228013175E+03  0.13228013175E+03  0.00000000000E+00 0.  1.
         25    1    1    2    0    0  0.00000000000E+00  0.00000000000E+00 -0.10274999787E+03  0.16181026563E+03  0.12500000000E+03 0.  0.
<mgrwt>
<rscale>  0 0.12500000E+03</rscale>
<asrwt>0</asrwt>
<pdfrwt beam="1">  1       21 0.45430975E-02 0.12500000E+03</pdfrwt>
<pdfrwt beam="2">  1       21 0.20350790E-01 0.12500000E+03</pdfrwt>
<totfact> 0.69298975E+06</totfact>
</mgrwt>
</event>
<event>
 3    1  0.1595726E-001  0.1250000E+03  0.7546771E-02  0.1235069E+00
         21   -1    0    0  502  501  0.00000000000E+00  0.00000000000E+00  0.35308294706E+02  0.35308294706E+02  0.00000000000E+00 0. -1.
         21   -1    0    0  501  502 -0.00000000000E+00 -0.00000000000E+00 -0.11063264404E+03  0.11063264404E+03  0.00000000000E+00 0. -1.
         25    1    1    2    0    0  0.00000000000E+00  0.00000000000E+00 -0.75324349337E+02  0.14594093875E+03  0.12500000000E+03 0.  0.
<mgrwt>
<rscale>  0 0.12500000E+03</rscale>
<asrwt>0</asrwt>
<pdfrwt beam="1">  1       21 0.54320453E-02 0.12500000E+03</pdfrwt>
<pdfrwt beam="2">  1       21 0.17020407E-01 0.12500000E+03</pdfrwt>
<totfact> 0.71272899E+06</totfact>
</mgrwt>
</event>
<event>
 3    1  0.1595726E-001  0.1250000E+03  0.7546771E-02  0.1235069E+00
         21   -1    0    0  502  501  0.00000000000E+00  0.00000000000E+00  0.83460676740E+01  0.83460676740E+01  0.00000000000E+00 0. -1.
         21   -1    0    0  501  502 -0.00000000000E+00 -0.00000000000E+00 -0.46803478627E+03  0.46803478627E+03  0.00000000000E+00 0. -1.
         25    1    1    2    0    0  0.00000000000E+00  0.00000000000E+00 -0.45968871859E+03  0.47638085394E+03  0.12500000000E+03 0.  0.
<mgrwt>
<rscale>  0 0.12500000E+03</rscale>
<asrwt>0</asrwt>
<pdfrwt beam="1">  1       21 0.12840100E-02 0.12500000E+03</pdfrwt>
<pdfrwt beam="2">  1       21 0.72005376E-01 0.12500000E+03</pdfrwt>
<totfact> 0.43354644E+06</totfact>
</mgrwt>
</event>
<event>
 3    1  0.1595726E-001  0.1250000E+03  0.7546771E-02  0.1235069E+00
         21   -1    0    0  502  501  0.00000000000E+00  0.00000000000E+00  0.44263937891E+03  0.44263937891E+03  0.00000000000E+00 0. -1.
         21   -1    0    0  501  502 -0.00000000000E+00 -0.00000000000E+00 -0.88249039424E+01  0.88249039424E+01  0.00000000000E+00 0. -1.
         25    1    1    2    0    0  0.00000000000E+00  0.00000000000E+00  0.43381447497E+03  0.45146428285E+03  0.12500000000E+03 0.  0.
<mgrwt>
<rscale>  0 0.12500000E+03</rscale>
<asrwt>0</asrwt>
<pdfrwt beam="1">  1       21 0.68098349E-01 0.12500000E+03</pdfrwt>
<pdfrwt beam="2">  1       21 0.13576779E-02 0.12500000E+03</pdfrwt>
<totfact> 0.44804786E+06</totfact>
</mgrwt>
</event>
<event>
 3    1  0.1595726E-001  0.1250000E+03  0.7546771E-02  0.1235069E+00
         21   -1    0    0  502  501  0.00000000000E+00  0.00000000000E+00  0.34807811773E+03  0.34807811773E+03  0.00000000000E+00 0. -1.
         21   -1    0    0  501  502 -0.00000000000E+00 -0.00000000000E+00 -0.11222337174E+02  0.11222337174E+02  0.00000000000E+00 0. -1.
         25    1    1    2    0    0  0.00000000000E+00  0.00000000000E+00  0.33685578056E+03  0.35930045491E+03  0.12500000000E+03 0.  0.
<mgrwt>
<rscale>  0 0.12500000E+03</rscale>
<asrwt>0</asrwt>
<pdfrwt beam="1">  1       21 0.53550472E-01 0.12500000E+03</pdfrwt>
<pdfrwt beam="2">  1       21 0.17265137E-02 0.12500000E+03</pdfrwt>
<totfact> 0.50858821E+06</totfact>
</mgrwt>
</event>
<event>
 3    1  0.1595726E-001  0.1250000E+03  0.7546771E-02  0.1235069E+00
         21   -1    0    0  502  501  0.00000000000E+00  0.00000000000E+00  0.20257298869E+02  0.20257298869E+02  0.00000000000E+00 0. -1.
         21   -1    0    0  501  502 -0.00000000000E+00 -0.00000000000E+00 -0.19283173069E+03  0.19283173069E+03  0.00000000000E+00 0. -1.
         25    1    1    2    0    0  0.00000000000E+00  0.00000000000E+00 -0.17257443182E+03  0.21308902956E+03  0.12500000000E+03 0.  0.
<mgrwt>
<rscale>  0 0.12500000E+03</rscale>
<asrwt>0</asrwt>
<pdfrwt beam="1">  1       21 0.31165075E-02 0.12500000E+03</pdfrwt>
<pdfrwt beam="2">  1       21 0.29666420E-01 0.12500000E+03</pdfrwt>
<totfact> 0.63535993E+06</totfact>
</mgrwt>
</event>
<event>
 3    1  0.1595726E-001  0.1250000E+03  0.7546771E-02  0.1235069E+00
         21   -1    0    0  502  501  0.00000000000E+00  0.00000000000E+00  0.32648234130E+03  0.32648234130E+03  0.00000000000E+00 0.  1.
         21   -1    0    0  501  502 -0.00000000000E+00 -0.00000000000E+00 -0.11964659358E+02  0.11964659358E+02  0.00000000000E+00 0.  1.
         25    1    1    2    0    0  0.00000000000E+00  0.00000000000E+00  0.31451768194E+03  0.33844700065E+03  0.12500000000E+03 0.  0.
<mgrwt>
<rscale>  0 0.12500000E+03</rscale>
<asrwt>0</asrwt>
<pdfrwt beam="1">  1       21 0.50228046E-01 0.12500000E+03</pdfrwt>
<pdfrwt beam="2">  1       21 0.18407171E-02 0.12500000E+03</pdfrwt>
<totfact> 0.52403141E+06</totfact>
</mgrwt>
</event>
<event>
 3    1  0.1595726E-001  0.1250000E+03  0.7546771E-02  0.1235069E+00
         21   -1    0    0  502  501  0.00000000000E+00  0.00000000000E+00  0.18193306242E+03  0.18193306242E+03  0.00000000000E+00 0. -1.
         21   -1    0    0  501  502 -0.00000000000E+00 -0.00000000000E+00 -0.21470808814E+02  0.21470808814E+02  0.00000000000E+00 0. -1.
         25    1    1    2    0    0  0.00000000000E+00  0.00000000000E+00  0.16046225360E+03  0.20340387123E+03  0.12500000000E+03 0.  0.
<mgrwt>
<rscale>  0 0.12500000E+03</rscale>
<asrwt>0</asrwt>
<pdfrwt beam="1">  1       21 0.27989701E-01 0.12500000E+03</pdfrwt>
<pdfrwt beam="2">  1       21 0.33032015E-02 0.12500000E+03</pdfrwt>
<totfact> 0.64560276E+06</totfact>
</mgrwt>
</event>
<event>
 3    1  0.1595726E-001  0.1250000E+03  0.7546771E-02  0.1235069E+00
         21   -1    0    0  502  501  0.00000000000E+00  0.00000000000E+00  0.13226443088E+02  0.13226443088E+02  0.00000000000E+00 0. -1.
         21   -1    0    0  501  502 -0.00000000000E+00 -0.00000000000E+00 -0.29533639347E+03  0.29533639347E+03  0.00000000000E+00 0. -1.
         25    1    1    2    0    0  0.00000000000E+00  0.00000000000E+00 -0.28210995038E+03  0.30856283656E+03  0.12500000000E+03 0.  0.
<mgrwt>
<rscale>  0 0.12500000E+03</rscale>
<asrwt>0</asrwt>
<pdfrwt beam="1">  1       21 0.20348373E-02 0.12500000E+03</pdfrwt>
<pdfrwt beam="2">  1       21 0.45436370E-01 0.12500000E+03</pdfrwt>
<totfact> 0.54751991E+06</totfact>
</mgrwt>
</event>
<event>
 3    1  0.1595726E-001  0.1250000E+03  0.7546771E-02  0.1235069E+00
         21   -1    0    0  502  501  0.00000000000E+00  0.00000000000E+00  0.31599774024E+03  0.31599774024E+03  0.00000000000E+00 0.  1.
         21   -1    0    0  501  502 -0.00000000000E+00 -0.00000000000E+00 -0.12361639033E+02  0.12361639033E+02  0.00000000000E+00 0.  1.
         25    1    1    2    0    0  0.00000000000E+00  0.00000000000E+00  0.30363610120E+03  0.32835937927E+03  0.12500000000E+03 0.  0.
<mgrwt>
<rscale>  0 0.12500000E+03</rscale>
<asrwt>0</asrwt>
<pdfrwt beam="1">  1       21 0.48615031E-01 0.12500000E+03</pdfrwt>
<pdfrwt beam="2">  1       21 0.19017909E-02 0.12500000E+03</pdfrwt>
<totfact> 0.53177485E+06</totfact>
</mgrwt>
</event>
<event>
 3    1  0.1595726E-001  0.1250000E+03  0.7546771E-02  0.1235069E+00
         21   -1    0    0  502  501  0.00000000000E+00  0.00000000000E+00  0.10858348249E+02  0.10858348249E+02  0.00000000000E+00 0. -1.
         21   -1    0    0  501  502 -0.00000000000E+00 -0.00000000000E+00 -0.35974624414E+03  0.35974624414E+03  0.00000000000E+00 0. -1.
         25    1    1    2    0    0  0.00000000000E+00  0.00000000000E+00 -0.34888789589E+03  0.37060459239E+03  0.12500000000E+03 0.  0.
<mgrwt>
<rscale>  0 0.12500000E+03</rscale>
<asrwt>0</asrwt>
<pdfrwt beam="1">  1       21 0.16705155E-02 0.12500000E+03</pdfrwt>
<pdfrwt beam="2">  1       21 0.55345563E-01 0.12500000E+03</pdfrwt>
<totfact> 0.50051807E+06</totfact>
</mgrwt>
</event>
<event>
 3    1  0.1595726E-001  0.1250000E+03  0.7546771E-02  0.1235069E+00
         21   -1    0    0  502  501  0.00000000000E+00  0.00000000000E+00  0.40618521311E+02  0.40618521311E+02  0.00000000000E+00 0. -1.
         21   -1    0    0  501  502 -0.00000000000E+00 -0.00000000000E+00 -0.96169182775E+02  0.96169182775E+02  0.00000000000E+00 0. -1.
         25    1    1    2    0    0  0.00000000000E+00  0.00000000000E+00 -0.55550661463E+02  0.13678770409E+03  0.12500000000E+03 0.  0.
<mgrwt>
<rscale>  0 0.12500000E+03</rscale>
<asrwt>0</asrwt>
<pdfrwt beam="1">  1       21 0.62490034E-02 0.12500000E+03</pdfrwt>
<pdfrwt beam="2">  1       21 0.14795259E-01 0.12500000E+03</pdfrwt>
<totfact> 0.72460623E+06</totfact>
</mgrwt>
</event>
<event>
 3    1  0.1595726E-001  0.1250000E+03  0.7546771E-02  0.1235069E+00
         21   -1    0    0  502  501  0.00000000000E+00  0.00000000000E+00  0.34509650072E+02  0.34509650072E+02  0.00000000000E+00 0.  1.
         21   -1    0    0  501  502 -0.00000000000E+00 -0.00000000000E+00 -0.11319297622E+03  0.11319297622E+03  0.00000000000E+00 0.  1.
         25    1    1    2    0    0  0.00000000000E+00  0.00000000000E+00 -0.78683326148E+02  0.14770262629E+03  0.12500000000E+03 0.  0.
<mgrwt>
<rscale>  0 0.12500000E+03</rscale>
<asrwt>0</asrwt>
<pdfrwt beam="1">  1       21 0.53091769E-02 0.12500000E+03</pdfrwt>
<pdfrwt beam="2">  1       21 0.17414304E-01 0.12500000E+03</pdfrwt>
<totfact> 0.71048999E+06</totfact>
</mgrwt>
</event>
<event>
 3    1  0.1595726E-001  0.1250000E+03  0.7546771E-02  0.1235069E+00
         21   -1    0    0  502  501  0.00000000000E+00  0.00000000000E+00  0.23935274119E+03  0.23935274119E+03  0.00000000000E+00 0. -1.
         21   -1    0    0  501  502 -0.00000000000E+00 -0.00000000000E+00 -0.16320055415E+02  0.16320055415E+02  0.00000000000E+00 0. -1.
         25    1    1    2    0    0  0.00000000000E+00  0.00000000000E+00  0.22303268577E+03  0.25567279660E+03  0.12500000000E+03 0.  0.
<mgrwt>
<rscale>  0 0.12500000E+03</rscale>
<asrwt>0</asrwt>
<pdfrwt beam="1">  1       21 0.36823496E-01 0.12500000E+03</pdfrwt>
<pdfrwt beam="2">  1       21 0.25107779E-02 0.12500000E+03</pdfrwt>
<totfact> 0.59348178E+06</totfact>
</mgrwt>
</event>
<event>
 3    1  0.1595726E-001  0.1250000E+03  0.7546771E-02  0.1235069E+00
         21   -1    0    0  502  501  0.00000000000E+00  0.00000000000E+00  0.10527141947E+03  0.10527141947E+03  0.00000000000E+00 0.  1.
         21   -1    0    0  501  502 -0.00000000000E+00 -0.00000000000E+00 -0.37106462700E+02  0.37106462700E+02  0.00000000000E+00 0.  1.
         25    1    1    2    0    0  0.00000000000E+00  0.00000000000E+00  0.68164956772E+02  0.14237788217E+03  0.12500000000E+03 0.  0.
<mgrwt>
<rscale>  0 0.12500000E+03</rscale>
<asrwt>0</asrwt>
<pdfrwt beam="1">  1       21 0.16195603E-01 0.12500000E+03</pdfrwt>
<pdfrwt beam="2">  1       21 0.57086866E-02 0.12500000E+03</pdfrwt>
<totfact> 0.71730381E+06</totfact>
</mgrwt>
</event>
<event>
 3    1  0.1595726E-001  0.1250000E+03  0.7546771E-02  0.1235069E+00
         21   -1    0    0  502  501  0.00000000000E+00  0.00000000000E+00  0.10050353065E+02  0.10050353065E+02  0.00000000000E+00 0. -1.
         21   -1    0    0  501  502 -0.00000000000E+00 -0.00000000000E+00 -0.38866793781E+03  0.38866793781E+03  0.00000000000E+00 0. -1.
         25    1    1    2    0    0  0.00000000000E+00  0.00000000000E+00 -0.37861758475E+03  0.39871829088E+03  0.12500000000E+03 0.  0.
<mgrwt>
<rscale>  0 0.12500000E+03</rscale>
<asrwt>0</asrwt>
<pdfrwt beam="1">  1       21 0.15462080E-02 0.12500000E+03</pdfrwt>
<pdfrwt beam="2">  1       21 0.59795074E-01 0.12500000E+03</pdfrwt>
<totfact> 0.48126478E+06</totfact>
</mgrwt>
</event>
<event>
 3    1  0.1595726E-001  0.1250000E+03  0.7546771E-02  0.1235069E+00
         21   -1    0    0  502  501  0.00000000000E+00  0.00000000000E+00  0.29520734549E+01  0.29520734549E+01  0.00000000000E+00 0. -1.
         21   -1    0    0  501  502 -0.00000000000E+00 -0.00000000000E+00 -0.13232224942E+04  0.13232224942E+04  0.00000000000E+00 0. -1.
         25    1    1    2    0    0  0.00000000000E+00  0.00000000000E+00 -0.13202704207E+04  0.13261745676E+04  0.12500000000E+03 0.  0.
<mgrwt>
<rscale>  0 0.12500000E+03</rscale>
<asrwt>0</asrwt>
<pdfrwt beam="1">  1       21 0.45416556E-03 0.12500000E+03</pdfrwt>
<pdfrwt beam="2">  1       21 0.20357251E+00 0.12500000E+03</pdfrwt>
<totfact> 0.16788855E+06</totfact>
</mgrwt>
</event>
<event>
 3    1  0.1595726E-001  0.1250000E+03  0.7546771E-02  0.1235069E+00
         21   -1    0    0  502  501  0.00000000000E+00  0.00000000000E+00  0.41123445809E+03  0.41123445809E+03  0.00000000000E+00 0.  1.
         21   -1    0    0  501  502 -0.00000000000E+00 -0.00000000000E+00 -0.94988392220E+01  0.94988392220E+01  0.00000000000E+00 0.  1.
         25    1    1    2    0    0  0.00000000000E+00  0.00000000000E+00  0.40173561887E+03  0.42073329732E+03  0.12500000000E+03 0.  0.
<mgrwt>
<rscale>  0 0.12500000E+03</rscale>
<asrwt>0</asrwt>
<pdfrwt beam="1">  1       21 0.63266826E-01 0.12500000E+03</pdfrwt>
<pdfrwt beam="2">  1       21 0.14613602E-02 0.12500000E+03</pdfrwt>
<totfact> 0.46695872E+06</totfact>
</mgrwt>
</event>
<event>
 3    1  0.1595726E-001  0.1250000E+03  0.7546771E-02  0.1235069E+00
         21   -1    0    0  502  501  0.00000000000E+00  0.00000000000E+00  0.12026084803E+02  0.12026084803E+02  0.00000000000E+00 0. -1.
         21   -1    0    0  501  502 -0.00000000000E+00 -0.00000000000E+00 -0.32481477257E+03  0.32481477257E+03  0.00000000000E+00 0. -1.
         25    1    1    2    0    0  0.00000000000E+00  0.00000000000E+00 -0.31278868776E+03  0.33684085737E+03  0.12500000000E+03 0.  0.
<mgrwt>
<rscale>  0 0.12500000E+03</rscale>
<asrwt>0</asrwt>
<pdfrwt beam="1">  1       21 0.18501667E-02 0.12500000E+03</pdfrwt>
<pdfrwt beam="2">  1       21 0.49971509E-01 0.12500000E+03</pdfrwt>
<totfact> 0.52525200E+06</totfact>
</mgrwt>
</event>
<event>
 3    1  0.1595726E-001  0.1250000E+03  0.7546771E-02  0.1235069E+00
         21   -1    0    0  502  501  0.00000000000E+00  0.00000000000E+00  0.76603535157E+01  0.76603535157E+01  0.00000000000E+00 0. -1.
         21   -1    0    0  501  502 -0.00000000000E+00 -0.00000000000E+00 -0.50993077434E+03  0.50993077434E+03  0.00000000000E+00 0. -1.
         25    1    1    2    0    0  0.00000000000E+00  0.00000000000E+00 -0.50227042083E+03  0.51759112786E+03  0.12500000000E+03 0.  0.
<mgrwt>
<rscale>  0 0.12500000E+03</rscale>
<asrwt>0</asrwt>
<pdfrwt beam="1">  1       21 0.11785156E-02 0.12500000E+03</pdfrwt>
<pdfrwt beam="2">  1       21 0.78450912E-01 0.12500000E+03</pdfrwt>
<totfact> 0.41105847E+06</totfact>
</mgrwt>
</event>
<event>
 3    1  0.1595726E-001  0.1250000E+03  0.7546771E-02  0.1235069E+00
         21   -1    0    0  502  501  0.00000000000E+00  0.00000000000E+00  0.60020113180E+02  0.60020113180E+02  0.00000000000E+00 0. -1.
         21   -1    0    0  501  502 -0.00000000000E+00 -0.00000000000E+00 -0.65082349783E+02  0.65082349783E+02  0.00000000000E+00 0. -1.
         25    1    1    2    0    0  0.00000000000E+00  0.00000000000E+00 -0.50622366037E+01  0.12510246296E+03  0.12500000000E+03 0.  0.
<mgrwt>
<rscale>  0 0.12500000E+03</rscale>
<asrwt>0</asrwt>
<pdfrwt beam="1">  1       21 0.92338636E-02 0.12500000E+03</pdfrwt>
<pdfrwt beam="2">  1       21 0.10012669E-01 0.12500000E+03</pdfrwt>
<totfact> 0.74029743E+06</totfact>
</mgrwt>
</event>
<event>
 3    1  0.1595726E-001  0.1250000E+03  0.7546771E-02  0.1235069E+00
         21   -1    0    0  502  501  0.00000000000E+00  0.00000000000E+00  0.70958360644E+02  0.70958360644E+02  0.00000000000E+00 0.  1.
         21   -1    0    0  501  502 -0.00000000000E+00 -0.00000000000E+00 -0.55049890732E+02  0.55049890732E+02  0.00000000000E+00 0.  1.
         25    1    1    2    0    0  0.00000000000E+00  0.00000000000E+00  0.15908469912E+02  0.12600825138E+03  0.12500000000E+03 0.  0.
<mgrwt>
<rscale>  0 0.12500000E+03</rscale>
<asrwt>0</asrwt>
<pdfrwt beam="1">  1       21 0.10916671E-01 0.12500000E+03</pdfrwt>
<pdfrwt beam="2">  1       21 0.84692139E-02 0.12500000E+03</pdfrwt>
<totfact> 0.73904901E+06</totfact>
</mgrwt>
</event>
<event>
 3    1  0.1595726E-001  0.1250000E+03  0.7546771E-02  0.1235069E+00
         21   -1    0    0  502  501  0.00000000000E+00  0.00000000000E+00  0.12738799141E+04  0.12738799141E+04  0.00000000000E+00 0. -1.
         21   -1    0    0  501  502 -0.00000000000E+00 -0.00000000000E+00 -0.30664193358E+01  0.30664193358E+01  0.00000000000E+00 0. -1.
         25    1    1    2    0    0  0.00000000000E+00  0.00000000000E+00  0.12708134947E+04  0.12769463334E+04  0.12500000000E+03 0.  0.
<mgrwt>
<rscale>  0 0.12500000E+03</rscale>
<asrwt>0</asrwt>
<pdfrwt beam="1">  1       21 0.19598110E+00 0.12500000E+03</pdfrwt>
<pdfrwt beam="2">  1       21 0.47175784E-03 0.12500000E+03</pdfrwt>
<totfact> 0.17671477E+06</totfact>
</mgrwt>
</event>
<event>
 3    1  0.1595726E-001  0.1250000E+03  0.7546771E-02  0.1235069E+00
         21   -1    0    0  502  501  0.00000000000E+00  0.00000000000E+00  0.73483829232E+01  0.73483829232E+01  0.00000000000E+00 0. -1.
         21   -1    0    0  501  502 -0.00000000000E+00 -0.00000000000E+00 -0.53157953808E+03  0.53157953808E+03  0.00000000000E+00 0. -1.
         25    1    1    2    0    0  0.00000000000E+00  0.00000000000E+00 -0.52423115516E+03  0.53892792101E+03  0.12500000000E+03 0.  0.
<mgrwt>
<rscale>  0 0.12500000E+03</rscale>
<asrwt>0</asrwt>
<pdfrwt beam="1">  1       21 0.11305203E-02 0.12500000E+03</pdfrwt>
<pdfrwt beam="2">  1       21 0.81781476E-01 0.12500000E+03</pdfrwt>
<totfact> 0.40008663E+06</totfact>
</mgrwt>
</event>
<event>
 3    1  0.1595726E-001  0.1250000E+03  0.7546771E-02  0.1235069E+00
         21   -1    0    0  502  501  0.00000000000E+00  0.00000000000E+00  0.96934665250E+03  0.96934665250E+03  0.00000000000E+00 0.  1.
         21   -1    0    0  501  502 -0.00000000000E+00 -0.00000000000E+00 -0.40297761280E+01  0.40297761280E+01  0.00000000000E+00 0.  1.
         25    1    1    2    0    0  0.00000000000E+00  0.00000000000E+00  0.96531687637E+03  0.97337642863E+03  0.12500000000E+03 0.  0.
<mgrwt>
<rscale>  0 0.12500000E+03</rscale>
<asrwt>0</asrwt>
<pdfrwt beam="1">  1       21 0.14913007E+00 0.12500000E+03</pdfrwt>
<pdfrwt beam="2">  1       21 0.61996633E-03 0.12500000E+03</pdfrwt>
<totfact> 0.24295837E+06</totfact>
</mgrwt>
</event>
<event>
 3    1  0.1595726E-001  0.1250000E+03  0.7546771E-02  0.1235069E+00
         21   -1    0    0  502  501  0.00000000000E+00  0.00000000000E+00  0.37140865593E+02  0.37140865593E+02  0.00000000000E+00 0. -1.
         21   -1    0    0  501  502 -0.00000000000E+00 -0.00000000000E+00 -0.10517390851E+03  0.10517390851E+03  0.00000000000E+00 0. -1.
         25    1    1    2    0    0  0.00000000000E+00  0.00000000000E+00 -0.68033042920E+02  0.14231477411E+03  0.12500000000E+03 0.  0.
<mgrwt>
<rscale>  0 0.12500000E+03</rscale>
<asrwt>0</asrwt>
<pdfrwt beam="1">  1       21 0.57139793E-02 0.12500000E+03</pdfrwt>
<pdfrwt beam="2">  1       21 0.16180601E-01 0.12500000E+03</pdfrwt>
<totfact> 0.71738542E+06</totfact>
</mgrwt>
</event>
<event>
 3    1  0.1595726E-001  0.1250000E+03  0.7546771E-02  0.1235069E+00
         21   -1    0    0  502  501  0.00000000000E+00  0.00000000000E+00  0.59955480275E+03  0.59955480275E+03  0.00000000000E+00 0.  1.
         21   -1    0    0  501  502 -0.00000000000E+00 -0.00000000000E+00 -0.65152509530E+01  0.65152509530E+01  0.00000000000E+00 0.  1.
         25    1    1    2    0    0  0.00000000000E+00  0.00000000000E+00  0.59303955179E+03  0.60607005370E+03  0.12500000000E+03 0.  0.
<mgrwt>
<rscale>  0 0.12500000E+03</rscale>
<asrwt>0</asrwt>
<pdfrwt beam="1">  1       21 0.92239157E-01 0.12500000E+03</pdfrwt>
<pdfrwt beam="2">  1       21 0.10023468E-02 0.12500000E+03</pdfrwt>
<totfact> 0.36819564E+06</totfact>
</mgrwt>
</event>
<event>
 3    1  0.1595726E-001  0.1250000E+03  0.7546771E-02  0.1235069E+00
         21   -1    0    0  502  501  0.00000000000E+00  0.00000000000E+00  0.84894045665E+01  0.84894045665E+01  0.00000000000E+00 0.  1.
         21   -1    0    0  501  502 -0.00000000000E+00 -0.00000000000E+00 -0.46013238849E+03  0.46013238849E+03  0.00000000000E+00 0.  1.
         25    1    1    2    0    0  0.00000000000E+00  0.00000000000E+00 -0.45164298392E+03  0.46862179305E+03  0.12500000000E+03 0.  0.
<mgrwt>
<rscale>  0 0.12500000E+03</rscale>
<asrwt>0</asrwt>
<pdfrwt beam="1">  1       21 0.13060621E-02 0.12500000E+03</pdfrwt>
<pdfrwt beam="2">  1       21 0.70789604E-01 0.12500000E+03</pdfrwt>
<totfact> 0.43798548E+06</totfact>
</mgrwt>
</event>
<event>
 3    1  0.1595726E-001  0.1250000E+03  0.7546771E-02  0.1235069E+00
         21   -1    0    0  502  501  0.00000000000E+00  0.00000000000E+00  0.53693411578E+01  0.53693411578E+01  0.00000000000E+00 0. -1.
         21   -1    0    0  501  502 -0.00000000000E+00 -0.00000000000E+00 -0.72751011441E+03  0.72751011441E+03  0.00000000000E+00 0. -1.
         25    1    1    2    0    0  0.00000000000E+00  0.00000000000E+00 -0.72214077325E+03  0.73287945557E+03  0.12500000000E+03 0.  0.
<mgrwt>
<rscale>  0 0.12500000E+03</rscale>
<asrwt>0</asrwt>
<pdfrwt beam="1">  1       21 0.82605256E-03 0.12500000E+03</pdfrwt>
<pdfrwt beam="2">  1       21 0.11192462E+00 0.12500000E+03</pdfrwt>
<totfact> 0.31680382E+06</totfact>
</mgrwt>
</event>
<event>
 3    1  0.1595726E-001  0.1250000E+03  0.7546771E-02  0.1235069E+00
         21   -1    0    0  502  501  0.00000000000E+00  0.00000000000E+00  0.13649110987E+02  0.13649110987E+02  0.00000000000E+00 0. -1.
         21   -1    0    0  501  502 -0.00000000000E+00 -0.00000000000E+00 -0.28619080054E+03  0.28619080054E+03  0.00000000000E+00 0. -1.
         25    1    1    2    0    0  0.00000000000E+00  0.00000000000E+00 -0.27254168955E+03  0.29983991152E+03  0.12500000000E+03 0.  0.
<mgrwt>
<rscale>  0 0.12500000E+03</rscale>
<asrwt>0</asrwt>
<pdfrwt beam="1">  1       21 0.20998633E-02 0.12500000E+03</pdfrwt>
<pdfrwt beam="2">  1       21 0.44029352E-01 0.12500000E+03</pdfrwt>
<totfact> 0.55469481E+06</totfact>
</mgrwt>
</event>
<event>
 3    1  0.1595726E-001  0.1250000E+03  0.7546771E-02  0.1235069E+00
         21   -1    0    0  502  501  0.00000000000E+00  0.00000000000E+00  0.90275563023E+03  0.90275563023E+03  0.00000000000E+00 0. -1.
         21   -1    0    0  501  502 -0.00000000000E+00 -0.00000000000E+00 -0.43270292305E+01  0.43270292305E+01  0.00000000000E+00 0. -1.
         25    1    1    2    0    0  0.00000000000E+00  0.00000000000E+00  0.89842860100E+03  0.90708265946E+03  0.12500000000E+03 0.  0.
<mgrwt>
<rscale>  0 0.12500000E+03</rscale>
<asrwt>0</asrwt>
<pdfrwt beam="1">  1       21 0.13888533E+00 0.12500000E+03</pdfrwt>
<pdfrwt beam="2">  1       21 0.66569752E-03 0.12500000E+03</pdfrwt>
<totfact> 0.26096515E+06</totfact>
</mgrwt>
</event>
<event>
 3    1  0.1595726E-001  0.1250000E+03  0.7546771E-02  0.1235069E+00
         21   -1    0    0  502  501  0.00000000000E+00  0.00000000000E+00  0.31362190417E+03  0.31362190417E+03  0.00000000000E+00 0. -1.
         21   -1    0    0  501  502 -0.00000000000E+00 -0.00000000000E+00 -0.12455284367E+02  0.12455284367E+02  0.00000000000E+00 0. -1.
         25    1    1    2    0    0  0.00000000000E+00  0.00000000000E+00  0.30116661980E+03  0.32607718853E+03  0.12500000000E+03 0.  0.
<mgrwt>
<rscale>  0 0.12500000E+03</rscale>
<asrwt>0</asrwt>
<pdfrwt beam="1">  1       21 0.48249518E-01 0.12500000E+03</pdfrwt>
<pdfrwt beam="2">  1       21 0.19161978E-02 0.12500000E+03</pdfrwt>
<totfact> 0.53355246E+06</totfact>
</mgrwt>
</event>
<event>
 3    1  0.1595726E-001  0.1250000E+03  0.7546771E-02  0.1235069E+00
         21   -1    0    0  502  501  0.00000000000E+00  0.00000000000E+00  0.35555504308E+03  0.35555504308E+03  0.00000000000E+00 0.  1.
         21   -1    0    0  501  502 -0.00000000000E+00 -0.00000000000E+00 -0.10986343960E+02  0.10986343960E+02  0.00000000000E+00 0.  1.
         25    1    1    2    0    0  0.00000000000E+00  0.00000000000E+00  0.34456869912E+03  0.36654138704E+03  0.12500000000E+03 0.  0.
<mgrwt>
<rscale>  0 0.12500000E+03</rscale>
<asrwt>0</asrwt>
<pdfrwt beam="1">  1       21 0.54700767E-01 0.12500000E+03</pdfrwt>
<pdfrwt beam="2">  1       21 0.16902070E-02 0.12500000E+03</pdfrwt>
<totfact> 0.50339531E+06</totfact>
</mgrwt>
</event>
<event>
 3    1  0.1595726E-001  0.1250000E+03  0.7546771E-02  0.1235069E+00
         21   -1    0    0  502  501  0.00000000000E+00  0.00000000000E+00  0.42452197927E+03  0.42452197927E+03  0.00000000000E+00 0.  1.
         21   -1    0    0  501  502 -0.00000000000E+00 -0.00000000000E+00 -0.92015259298E+01  0.92015259298E+01  0.00000000000E+00 0.  1.
         25    1    1    2    0    0  0.00000000000E+00  0.00000000000E+00  0.41532045334E+03  0.43372350520E+03  0.12500000000E+03 0.  0.
<mgrwt>
<rscale>  0 0.12500000E+03</rscale>
<asrwt>0</asrwt>
<pdfrwt beam="1">  1       21 0.65311059E-01 0.12500000E+03</pdfrwt>
<pdfrwt beam="2">  1       21 0.14156197E-02 0.12500000E+03</pdfrwt>
<totfact> 0.45882097E+06</totfact>
</mgrwt>
</event>
<event>
 3    1  0.1595726E-001  0.1250000E+03  0.7546771E-02  0.1235069E+00
         21   -1    0    0  502  501  0.00000000000E+00  0.00000000000E+00  0.12373187101E+03  0.12373187101E+03  0.00000000000E+00 0. -1.
         21   -1    0    0  501  502 -0.00000000000E+00 -0.00000000000E+00 -0.31570281515E+02  0.31570281515E+02  0.00000000000E+00 0. -1.
         25    1    1    2    0    0  0.00000000000E+00  0.00000000000E+00  0.92161589492E+02  0.15530215252E+03  0.12500000000E+03 0.  0.
<mgrwt>
<rscale>  0 0.12500000E+03</rscale>
<asrwt>0</asrwt>
<pdfrwt beam="1">  1       21 0.19035672E-01 0.12500000E+03</pdfrwt>
<pdfrwt beam="2">  1       21 0.48569665E-02 0.12500000E+03</pdfrwt>
<totfact> 0.70098125E+06</totfact>
</mgrwt>
</event>
<event>
 3    1  0.1595726E-001  0.1250000E+03  0.7546771E-02  0.1235069E+00
         21   -1    0    0  502  501  0.00000000000E+00  0.00000000000E+00  0.20374991161E+02  0.20374991161E+02  0.00000000000E+00 0. -1.
         21   -1    0    0  501  502 -0.00000000000E+00 -0.00000000000E+00 -0.19171787458E+03  0.19171787458E+03  0.00000000000E+00 0. -1.
         25    1    1    2    0    0  0.00000000000E+00  0.00000000000E+00 -0.17134288342E+03  0.21209286575E+03  0.12500000000E+03 0.  0.
<mgrwt>
<rscale>  0 0.12500000E+03</rscale>
<asrwt>0</asrwt>
<pdfrwt beam="1">  1       21 0.31346140E-02 0.12500000E+03</pdfrwt>
<pdfrwt beam="2">  1       21 0.29495058E-01 0.12500000E+03</pdfrwt>
<totfact> 0.63640013E+06</totfact>
</mgrwt>
</event>
<event>
 3    1  0.1595726E-001  0.1250000E+03  0.7546771E-02  0.1235069E+00
         21   -1    0    0  502  501  0.00000000000E+00  0.00000000000E+00  0.88900072390E+01  0.88900072390E+01  0.00000000000E+00 0.  1.
         21   -1    0    0  501  502 -0.00000000000E+00 -0.00000000000E+00 -0.43939784243E+03  0.43939784243E+03  0.00000000000E+00 0.  1.
         25    1    1    2    0    0  0.00000000000E+00  0.00000000000E+00 -0.43050783519E+03  0.44828784967E+03  0.12500000000E+03 0.  0.
<mgrwt>
<rscale>  0 0.12500000E+03</rscale>
<asrwt>0</asrwt>
<pdfrwt beam="1">  1       21 0.13676932E-02 0.12500000E+03</pdfrwt>
<pdfrwt beam="2">  1       21 0.67599678E-01 0.12500000E+03</pdfrwt>
<totfact> 0.44994894E+06</totfact>
</mgrwt>
</event>
<event>
 3    1  0.1595726E-001  0.1250000E+03  0.7546771E-02  0.1235069E+00
         21   -1    0    0  502  501  0.00000000000E+00  0.00000000000E+00  0.81582805392E+02  0.81582805392E+02  0.00000000000E+00 0. -1.
         21   -1    0    0  501  502 -0.00000000000E+00 -0.00000000000E+00 -0.47880800142E+02  0.47880800142E+02  0.00000000000E+00 0. -1.
         25    1    1    2    0    0  0.00000000000E+00  0.00000000000E+00  0.33702005250E+02  0.12946360553E+03  0.12500000000E+03 0.  0.
<mgrwt>
<rscale>  0 0.12500000E+03</rscale>
<asrwt>0</asrwt>
<pdfrwt beam="1">  1       21 0.12551201E-01 0.12500000E+03</pdfrwt>
<pdfrwt beam="2">  1       21 0.73662770E-02 0.12500000E+03</pdfrwt>
<totfact> 0.73436692E+06</totfact>
</mgrwt>
</event>
<event>
 3    1  0.1595726E-001  0.1250000E+03  0.7546771E-02  0.1235069E+00
         21   -1    0    0  502  501  0.00000000000E+00  0.00000000000E+00  0.14284078364E+03  0.14284078364E+03  0.00000000000E+00 0.  1.
         21   -1    0    0  501  502 -0.00000000000E+00 -0.00000000000E+00 -0.27346881615E+02  0.27346881615E+02  0.00000000000E+00 0.  1.
         25    1    1    2    0    0  0.00000000000E+00  0.00000000000E+00  0.11549390202E+03  0.17018766525E+03  0.12500000000E+03 0.  0.
<mgrwt>
<rscale>  0 0.12500000E+03</rscale>
<asrwt>0</asrwt>
<pdfrwt beam="1">  1       21 0.21975505E-01 0.12500000E+03</pdfrwt>
<pdfrwt beam="2">  1       21 0.42072127E-02 0.12500000E+03</pdfrwt>
<totfact> 0.68295396E+06</totfact>
</mgrwt>
</event>
<event>
 3    1  0.1595726E-001  0.1250000E+03  0.7546771E-02  0.1235069E+00
         21   -1    0    0  502  501  0.00000000000E+00  0.00000000000E+00  0.13953057708E+03  0.13953057708E+03  0.00000000000E+00 0. -1.
         21   -1    0    0  501  502 -0.00000000000E+00 -0.00000000000E+00 -0.27995655731E+02  0.27995655731E+02  0.00000000000E+00 0. -1.
         25    1    1    2    0    0  0.00000000000E+00  0.00000000000E+00  0.11153492135E+03  0.16752623282E+03  0.12500000000E+03 0.  0.
<mgrwt>
<rscale>  0 0.12500000E+03</rscale>
<asrwt>0</asrwt>
<pdfrwt beam="1">  1       21 0.21466242E-01 0.12500000E+03</pdfrwt>
<pdfrwt beam="2">  1       21 0.43070241E-02 0.12500000E+03</pdfrwt>
<totfact> 0.68611365E+06</totfact>
</mgrwt>
</event>
<event>
 3    1  0.1595726E-001  0.1250000E+03  0.7546771E-02  0.1235069E+00
         21   -1    0    0  502  501  0.00000000000E+00  0.00000000000E+00  0.24724662726E+02  0.24724662726E+02  0.00000000000E+00 0.  1.
         21   -1    0    0  501  502 -0.00000000000E+00 -0.00000000000E+00 -0.15799002168E+03  0.15799002168E+03  0.00000000000E+00 0.  1.
         25    1    1    2    0    0  0.00000000000E+00  0.00000000000E+00 -0.13326535895E+03  0.18271468440E+03  0.12500000000E+03 0.  0.
<mgrwt>
<rscale>  0 0.12500000E+03</rscale>
<asrwt>0</asrwt>
<pdfrwt beam="1">  1       21 0.38037944E-02 0.12500000E+03</pdfrwt>
<pdfrwt beam="2">  1       21 0.24306157E-01 0.12500000E+03</pdfrwt>
<totfact> 0.66841474E+06</totfact>
</mgrwt>
</event>
<event>
 3    1  0.1595726E-001  0.1250000E+03  0.7546771E-02  0.1235069E+00
         21   -1    0    0  502  501  0.00000000000E+00  0.00000000000E+00  0.62853576368E+03  0.62853576368E+03  0.00000000000E+00 0.  1.
         21   -1    0    0  501  502 -0.00000000000E+00 -0.00000000000E+00 -0.62148412640E+01  0.62148412640E+01  0.00000000000E+00 0.  1.
         25    1    1    2    0    0  0.00000000000E+00  0.00000000000E+00  0.62232092242E+03  0.63475060494E+03  0.12500000000E+03 0.  0.
<mgrwt>
<rscale>  0 0.12500000E+03</rscale>
<asrwt>0</asrwt>
<pdfrwt beam="1">  1       21 0.96697760E-01 0.12500000E+03</pdfrwt>
<pdfrwt beam="2">  1       21 0.95612992E-03 0.12500000E+03</pdfrwt>
<totfact> 0.35566799E+06</totfact>
</mgrwt>
</event>
<event>
 3    1  0.1595726E-001  0.1250000E+03  0.7546771E-02  0.1235069E+00
         21   -1    0    0  502  501  0.00000000000E+00  0.00000000000E+00  0.17314137395E+03  0.17314137395E+03  0.00000000000E+00 0. -1.
         21   -1    0    0  501  502 -0.00000000000E+00 -0.00000000000E+00 -0.22561043100E+02  0.22561043100E+02  0.00000000000E+00 0. -1.
         25    1    1    2    0    0  0.00000000000E+00  0.00000000000E+00  0.15058033085E+03  0.19570241705E+03  0.12500000000E+03 0.  0.
<mgrwt>
<rscale>  0 0.12500000E+03</rscale>
<asrwt>0</asrwt>
<pdfrwt beam="1">  1       21 0.26637134E-01 0.12500000E+03</pdfrwt>
<pdfrwt beam="2">  1       21 0.34709298E-02 0.12500000E+03</pdfrwt>
<totfact> 0.65394227E+06</totfact>
</mgrwt>
</event>
<event>
 3    1  0.1595726E-001  0.1250000E+03  0.7546771E-02  0.1235069E+00
         21   -1    0    0  502  501  0.00000000000E+00  0.00000000000E+00  0.84039405959E+02  0.84039405959E+02  0.00000000000E+00 0. -1.
         21   -1    0    0  501  502 -0.00000000000E+00 -0.00000000000E+00 -0.46481171010E+02  0.46481171010E+02  0.00000000000E+00 0. -1.
         25    1    1    2    0    0  0.00000000000E+00  0.00000000000E+00  0.37558234949E+02  0.13052057697E+03  0.12500000000E+03 0.  0.
<mgrwt>
<rscale>  0 0.12500000E+03</rscale>
<asrwt>0</asrwt>
<pdfrwt beam="1">  1       21 0.12929139E-01 0.12500000E+03</pdfrwt>
<pdfrwt beam="2">  1       21 0.71509494E-02 0.12500000E+03</pdfrwt>
<totfact> 0.73295352E+06</totfact>
</mgrwt>
</event>
<event>
 3    1  0.1595726E-001  0.1250000E+03  0.7546771E-02  0.1235069E+00
         21   -1    0    0  502  501  0.00000000000E+00  0.00000000000E+00  0.79020320850E+02  0.79020320850E+02  0.00000000000E+00 0.  1.
         21   -1    0    0  501  502 -0.00000000000E+00 -0.00000000000E+00 -0.49433486956E+02  0.49433486956E+02  0.00000000000E+00 0.  1.
         25    1    1    2    0    0  0.00000000000E+00  0.00000000000E+00  0.29586833894E+02  0.12845380781E+03  0.12500000000E+03 0.  0.
<mgrwt>
<rscale>  0 0.12500000E+03</rscale>
<asrwt>0</asrwt>
<pdfrwt beam="1">  1       21 0.12156972E-01 0.12500000E+03</pdfrwt>
<pdfrwt beam="2">  1       21 0.76051518E-02 0.12500000E+03</pdfrwt>
<totfact> 0.73572344E+06</totfact>
</mgrwt>
</event>
<event>
 3    1  0.1595726E-001  0.1250000E+03  0.7546771E-02  0.1235069E+00
         21   -1    0    0  502  501  0.00000000000E+00  0.00000000000E+00  0.10250441836E+04  0.10250441836E+04  0.00000000000E+00 0.  1.
         21   -1    0    0  501  502 -0.00000000000E+00 -0.00000000000E+00 -0.38108113412E+01  0.38108113412E+01  0.00000000000E+00 0.  1.
         25    1    1    2    0    0  0.00000000000E+00  0.00000000000E+00  0.10212333722E+04  0.10288549949E+04  0.12500000000E+03 0.  0.
<mgrwt>
<rscale>  0 0.12500000E+03</rscale>
<asrwt>0</asrwt>
<pdfrwt beam="1">  1       21 0.15769889E+00 0.12500000E+03</pdfrwt>
<pdfrwt beam="2">  1       21 0.58627948E-03 0.12500000E+03</pdfrwt>
<totfact> 0.22906765E+06</totfact>
</mgrwt>
</event>
<event>
 3    1  0.1595726E-001  0.1250000E+03  0.7546771E-02  0.1235069E+00
         21   -1    0    0  502  501  0.00000000000E+00  0.00000000000E+00  0.54399046996E+02  0.54399046996E+02  0.00000000000E+00 0.  1.
         21   -1    0    0  501  502 -0.00000000000E+00 -0.00000000000E+00 -0.71807324130E+02  0.71807324130E+02  0.00000000000E+00 0.  1.
         25    1    1    2    0    0  0.00000000000E+00  0.00000000000E+00 -0.17408277134E+02  0.12620637113E+03  0.12500000000E+03 0.  0.
<mgrwt>
<rscale>  0 0.12500000E+03</rscale>
<asrwt>0</asrwt>
<pdfrwt beam="1">  1       21 0.83690842E-02 0.12500000E+03</pdfrwt>
<pdfrwt beam="2">  1       21 0.11047281E-01 0.12500000E+03</pdfrwt>
<totfact> 0.73877634E+06</totfact>
</mgrwt>
</event>
<event>
 3    1  0.1595726E-001  0.1250000E+03  0.7546771E-02  0.1235069E+00
         21   -1    0    0  502  501  0.00000000000E+00  0.00000000000E+00  0.30272156559E+03  0.30272156559E+03  0.00000000000E+00 0. -1.
         21   -1    0    0  501  502 -0.00000000000E+00 -0.00000000000E+00 -0.12903771795E+02  0.12903771795E+02  0.00000000000E+00 0. -1.
         25    1    1    2    0    0  0.00000000000E+00  0.00000000000E+00  0.28981779380E+03  0.31562533739E+03  0.12500000000E+03 0.  0.
<mgrwt>
<rscale>  0 0.12500000E+03</rscale>
<asrwt>0</asrwt>
<pdfrwt beam="1">  1       21 0.46572543E-01 0.12500000E+03</pdfrwt>
<pdfrwt beam="2">  1       21 0.19851959E-02 0.12500000E+03</pdfrwt>
<totfact> 0.54181846E+06</totfact>
</mgrwt>
</event>
<event>
 3    1  0.1595726E-001  0.1250000E+03  0.7546771E-02  0.1235069E+00
         21   -1    0    0  502  501  0.00000000000E+00  0.00000000000E+00  0.19318628869E+02  0.19318628869E+02  0.00000000000E+00 0.  1.
         21   -1    0    0  501  502 -0.00000000000E+00 -0.00000000000E+00 -0.20220120312E+03  0.20220120312E+03  0.00000000000E+00 0.  1.
         25    1    1    2    0    0  0.00000000000E+00  0.00000000000E+00 -0.18288257426E+03  0.22151983199E+03  0.12500000000E+03 0.  0.
<mgrwt>
<rscale>  0 0.12500000E+03</rscale>
<asrwt>0</asrwt>
<pdfrwt beam="1">  1       21 0.29720967E-02 0.12500000E+03</pdfrwt>
<pdfrwt beam="2">  1       21 0.31107878E-01 0.12500000E+03</pdfrwt>
<totfact> 0.62667525E+06</totfact>
</mgrwt>
</event>
<event>
 3    1  0.1595726E-001  0.1250000E+03  0.7546771E-02  0.1235069E+00
         21   -1    0    0  502  501  0.00000000000E+00  0.00000000000E+00  0.20181848116E+03  0.20181848116E+03  0.00000000000E+00 0. -1.
         21   -1    0    0  501  502 -0.00000000000E+00 -0.00000000000E+00 -0.19355264085E+02  0.19355264085E+02  0.00000000000E+00 0. -1.
         25    1    1    2    0    0  0.00000000000E+00  0.00000000000E+00  0.18246321707E+03  0.22117374524E+03  0.12500000000E+03 0.  0.
<mgrwt>
<rscale>  0 0.12500000E+03</rscale>
<asrwt>0</asrwt>
<pdfrwt beam="1">  1       21 0.31048996E-01 0.12500000E+03</pdfrwt>
<pdfrwt beam="2">  1       21 0.29777331E-02 0.12500000E+03</pdfrwt>
<totfact> 0.62702765E+06</totfact>
</mgrwt>
</event>
<event>
 3    1  0.1595726E-001  0.1250000E+03  0.7546771E-02  0.1235069E+00
         21   -1    0    0  502  501  0.00000000000E+00  0.00000000000E+00  0.19613175241E+02  0.19613175241E+02  0.00000000000E+00 0. -1.
         21   -1    0    0  501  502 -0.00000000000E+00 -0.00000000000E+00 -0.19916458972E+03  0.19916458972E+03  0.00000000000E+00 0. -1.
         25    1    1    2    0    0  0.00000000000E+00  0.00000000000E+00 -0.17955141448E+03  0.21877776496E+03  0.12500000000E+03 0.  0.
<mgrwt>
<rscale>  0 0.12500000E+03</rscale>
<asrwt>0</asrwt>
<pdfrwt beam="1">  1       21 0.30174118E-02 0.12500000E+03</pdfrwt>
<pdfrwt beam="2">  1       21 0.30640704E-01 0.12500000E+03</pdfrwt>
<totfact> 0.62947684E+06</totfact>
</mgrwt>
</event>
<event>
 3    1  0.1595726E-001  0.1250000E+03  0.7546771E-02  0.1235069E+00
         21   -1    0    0  502  501  0.00000000000E+00  0.00000000000E+00  0.16825101466E+02  0.16825101466E+02  0.00000000000E+00 0. -1.
         21   -1    0    0  501  502 -0.00000000000E+00 -0.00000000000E+00 -0.23216799065E+03  0.23216799065E+03  0.00000000000E+00 0. -1.
         25    1    1    2    0    0  0.00000000000E+00  0.00000000000E+00 -0.21534288919E+03  0.24899309212E+03  0.12500000000E+03 0.  0.
<mgrwt>
<rscale>  0 0.12500000E+03</rscale>
<asrwt>0</asrwt>
<pdfrwt beam="1">  1       21 0.25884770E-02 0.12500000E+03</pdfrwt>
<pdfrwt beam="2">  1       21 0.35718154E-01 0.12500000E+03</pdfrwt>
<totfact> 0.59973116E+06</totfact>
</mgrwt>
</event>
<event>
 3    1  0.1595726E-001  0.1250000E+03  0.7546771E-02  0.1235069E+00
         21   -1    0    0  502  501  0.00000000000E+00  0.00000000000E+00  0.73041430424E+02  0.73041430424E+02  0.00000000000E+00 0. -1.
         21   -1    0    0  501  502 -0.00000000000E+00 -0.00000000000E+00 -0.53479921975E+02  0.53479921975E+02  0.00000000000E+00 0. -1.
         25    1    1    2    0    0  0.00000000000E+00  0.00000000000E+00  0.19561508449E+02  0.12652135240E+03  0.12500000000E+03 0.  0.
<mgrwt>
<rscale>  0 0.12500000E+03</rscale>
<asrwt>0</asrwt>
<pdfrwt beam="1">  1       21 0.11237143E-01 0.12500000E+03</pdfrwt>
<pdfrwt beam="2">  1       21 0.82276802E-02 0.12500000E+03</pdfrwt>
<totfact> 0.73834451E+06</totfact>
</mgrwt>
</event>
<event>
 3    1  0.1595726E-001  0.1250000E+03  0.7546771E-02  0.1235069E+00
         21   -1    0    0  502  501  0.00000000000E+00  0.00000000000E+00  0.75687957728E+03  0.75687957728E+03  0.00000000000E+00 0. -1.
         21   -1    0    0  501  502 -0.00000000000E+00 -0.00000000000E+00 -0.51609927355E+01  0.51609927355E+01  0.00000000000E+00 0. -1.
         25    1    1    2    0    0  0.00000000000E+00  0.00000000000E+00  0.75171858454E+03  0.76204057001E+03  0.12500000000E+03 0.  0.
<mgrwt>
<rscale>  0 0.12500000E+03</rscale>
<asrwt>0</asrwt>
<pdfrwt beam="1">  1       21 0.11644292E+00 0.12500000E+03</pdfrwt>
<pdfrwt beam="2">  1       21 0.79399948E-03 0.12500000E+03</pdfrwt>
<totfact> 0.30649854E+06</totfact>
</mgrwt>
</event>
<event>
 3    1  0.1595726E-001  0.1250000E+03  0.7546771E-02  0.1235069E+00
         21   -1    0    0  502  501  0.00000000000E+00  0.00000000000E+00  0.45180516044E+03  0.45180516044E+03  0.00000000000E+00 0.  1.
         21   -1    0    0  501  502 -0.00000000000E+00 -0.00000000000E+00 -0.86458729161E+01  0.86458729161E+01  0.00000000000E+00 0.  1.
         25    1    1    2    0    0  0.00000000000E+00  0.00000000000E+00  0.44315928753E+03  0.46045103336E+03  0.12500000000E+03 0.  0.
<mgrwt>
<rscale>  0 0.12500000E+03</rscale>
<asrwt>0</asrwt>
<pdfrwt beam="1">  1       21 0.69508467E-01 0.12500000E+03</pdfrwt>
<pdfrwt beam="2">  1       21 0.13301347E-02 0.12500000E+03</pdfrwt>
<totfact> 0.44273442E+06</totfact>
</mgrwt>
</event>
<event>
 3    1  0.1595726E-001  0.1250000E+03  0.7546771E-02  0.1235069E+00
         21   -1    0    0  502  501  0.00000000000E+00  0.00000000000E+00  0.24942140292E+03  0.24942140292E+03  0.00000000000E+00 0. -1.
         21   -1    0    0  501  502 -0.00000000000E+00 -0.00000000000E+00 -0.15661246205E+02  0.15661246205E+02  0.00000000000E+00 0. -1.
         25    1    1    2    0    0  0.00000000000E+00  0.00000000000E+00  0.23376015671E+03  0.26508264912E+03  0.12500000000E+03 0.  0.
<mgrwt>
<rscale>  0 0.12500000E+03</rscale>
<asrwt>0</asrwt>
<pdfrwt beam="1">  1       21 0.38372521E-01 0.12500000E+03</pdfrwt>
<pdfrwt beam="2">  1       21 0.24094227E-02 0.12500000E+03</pdfrwt>
<totfact> 0.58486530E+06</totfact>
</mgrwt>
</event>
<event>
 3    1  0.1595726E-001  0.1250000E+03  0.7546771E-02  0.1235069E+00
         21   -1    0    0  502  501  0.00000000000E+00  0.00000000000E+00  0.41942598915E+02  0.41942598915E+02  0.00000000000E+00 0.  1.
         21   -1    0    0  501  502 -0.00000000000E+00 -0.00000000000E+00 -0.93133236878E+02  0.93133236878E+02  0.00000000000E+00 0.  1.
         25    1    1    2    0    0  0.00000000000E+00  0.00000000000E+00 -0.51190637964E+02  0.13507583579E+03  0.12500000000E+03 0.  0.
<mgrwt>
<rscale>  0 0.12500000E+03</rscale>
<asrwt>0</asrwt>
<pdfrwt beam="1">  1       21 0.64527076E-02 0.12500000E+03</pdfrwt>
<pdfrwt beam="2">  1       21 0.14328190E-01 0.12500000E+03</pdfrwt>
<totfact> 0.72686432E+06</totfact>
</mgrwt>
</event>
<event>
 3    1  0.1595726E-001  0.1250000E+03  0.7546771E-02  0.1235069E+00
         21   -1    0    0  502  501  0.00000000000E+00  0.00000000000E+00  0.10567907379E+02  0.10567907379E+02  0.00000000000E+00 0.  1.
         21   -1    0    0  501  502 -0.00000000000E+00 -0.00000000000E+00 -0.36963325470E+03  0.36963325470E+03  0.00000000000E+00 0.  1.
         25    1    1    2    0    0  0.00000000000E+00  0.00000000000E+00 -0.35906534732E+03  0.38020116208E+03  0.12500000000E+03 0.  0.
<mgrwt>
<rscale>  0 0.12500000E+03</rscale>
<asrwt>0</asrwt>
<pdfrwt beam="1">  1       21 0.16258318E-02 0.12500000E+03</pdfrwt>
<pdfrwt beam="2">  1       21 0.56866657E-01 0.12500000E+03</pdfrwt>
<totfact> 0.49382450E+06</totfact>
</mgrwt>
</event>
<event>
 3    1  0.1595726E-001  0.1250000E+03  0.7546771E-02  0.1235069E+00
         21   -1    0    0  502  501  0.00000000000E+00  0.00000000000E+00  0.13495520521E+02  0.13495520521E+02  0.00000000000E+00 0.  1.
         21   -1    0    0  501  502 -0.00000000000E+00 -0.00000000000E+00 -0.28944789451E+03  0.28944789451E+03  0.00000000000E+00 0.  1.
         25    1    1    2    0    0  0.00000000000E+00  0.00000000000E+00 -0.27595237399E+03  0.30294341503E+03  0.12500000000E+03 0.  0.
<mgrwt>
<rscale>  0 0.12500000E+03</rscale>
<asrwt>0</asrwt>
<pdfrwt beam="1">  1       21 0.20762339E-02 0.12500000E+03</pdfrwt>
<pdfrwt beam="2">  1       21 0.44530446E-01 0.12500000E+03</pdfrwt>
<totfact> 0.55212447E+06</totfact>
</mgrwt>
</event>
<event>
 3    1  0.1595726E-001  0.1250000E+03  0.7546771E-02  0.1235069E+00
         21   -1    0    0  502  501  0.00000000000E+00  0.00000000000E+00  0.14450725922E+03  0.14450725922E+03  0.00000000000E+00 0.  1.
         21   -1    0    0  501  502 -0.00000000000E+00 -0.00000000000E+00 -0.27031513996E+02  0.27031513996E+02  0.00000000000E+00 0.  1.
         25    1    1    2    0    0  0.00000000000E+00  0.00000000000E+00  0.11747574522E+03  0.17153877321E+03  0.12500000000E+03 0.  0.
<mgrwt>
<rscale>  0 0.12500000E+03</rscale>
<asrwt>0</asrwt>
<pdfrwt beam="1">  1       21 0.22231886E-01 0.12500000E+03</pdfrwt>
<pdfrwt beam="2">  1       21 0.41586945E-02 0.12500000E+03</pdfrwt>
<totfact> 0.68135690E+06</totfact>
</mgrwt>
</event>
<event>
 3    1  0.1595726E-001  0.1250000E+03  0.7546771E-02  0.1235069E+00
         21   -1    0    0  502  501  0.00000000000E+00  0.00000000000E+00  0.46293427216E+03  0.46293427216E+03  0.00000000000E+00 0.  1.
         21   -1    0    0  501  502 -0.00000000000E+00 -0.00000000000E+00 -0.84380229223E+01  0.84380229223E+01  0.00000000000E+00 0.  1.
         25    1    1    2    0    0  0.00000000000E+00  0.00000000000E+00  0.45449624924E+03  0.47137229508E+03  0.12500000000E+03 0.  0.
<mgrwt>
<rscale>  0 0.12500000E+03</rscale>
<asrwt>0</asrwt>
<pdfrwt beam="1">  1       21 0.71220637E-01 0.12500000E+03</pdfrwt>
<pdfrwt beam="2">  1       21 0.12981577E-02 0.12500000E+03</pdfrwt>
<totfact> 0.43640423E+06</totfact>
</mgrwt>
</event>
<event>
 3    1  0.1595726E-001  0.1250000E+03  0.7546771E-02  0.1235069E+00
         21   -1    0    0  502  501  0.00000000000E+00  0.00000000000E+00  0.63906017372E+02  0.63906017372E+02  0.00000000000E+00 0. -1.
         21   -1    0    0  501  502 -0.00000000000E+00 -0.00000000000E+00 -0.61124916880E+02  0.61124916880E+02  0.00000000000E+00 0. -1.
         25    1    1    2    0    0  0.00000000000E+00  0.00000000000E+00  0.27811004925E+01  0.12503093425E+03  0.12500000000E+03 0.  0.
<mgrwt>
<rscale>  0 0.12500000E+03</rscale>
<asrwt>0</asrwt>
<pdfrwt beam="1">  1       21 0.98316949E-02 0.12500000E+03</pdfrwt>
<pdfrwt beam="2">  1       21 0.94038334E-02 0.12500000E+03</pdfrwt>
<totfact> 0.74039403E+06</totfact>
</mgrwt>
</event>
<event>
 3    1  0.1595726E-001  0.1250000E+03  0.7546771E-02  0.1235069E+00
         21   -1    0    0  502  501  0.00000000000E+00  0.00000000000E+00  0.15428565122E+02  0.15428565122E+02  0.00000000000E+00 0. -1.
         21   -1    0    0  501  502 -0.00000000000E+00 -0.00000000000E+00 -0.25318297386E+03  0.25318297386E+03  0.00000000000E+00 0. -1.
         25    1    1    2    0    0  0.00000000000E+00  0.00000000000E+00 -0.23775440874E+03  0.26861153898E+03  0.12500000000E+03 0.  0.
<mgrwt>
<rscale>  0 0.12500000E+03</rscale>
<asrwt>0</asrwt>
<pdfrwt beam="1">  1       21 0.23736254E-02 0.12500000E+03</pdfrwt>
<pdfrwt beam="2">  1       21 0.38951227E-01 0.12500000E+03</pdfrwt>
<totfact> 0.58168856E+06</totfact>
</mgrwt>
</event>
<event>
 3    1  0.1595726E-001  0.1250000E+03  0.7546771E-02  0.1235069E+00
         21   -1    0    0  502  501  0.00000000000E+00  0.00000000000E+00  0.75371358721E+03  0.75371358721E+03  0.00000000000E+00 0. -1.
         21   -1    0    0  501  502 -0.00000000000E+00 -0.00000000000E+00 -0.51826715960E+01  0.51826715960E+01  0.00000000000E+00 0. -1.
         25    1    1    2    0    0  0.00000000000E+00  0.00000000000E+00  0.74853091562E+03  0.75889625881E+03  0.12500000000E+03 0.  0.
<mgrwt>
<rscale>  0 0.12500000E+03</rscale>
<asrwt>0</asrwt>
<pdfrwt beam="1">  1       21 0.11595585E+00 0.12500000E+03</pdfrwt>
<pdfrwt beam="2">  1       21 0.79733469E-03 0.12500000E+03</pdfrwt>
<totfact> 0.30758431E+06</totfact>
</mgrwt>
</event>
<event>
 3    1  0.1595726E-001  0.1250000E+03  0.7546771E-02  0.1235069E+00
         21   -1    0    0  502  501  0.00000000000E+00  0.00000000000E+00  0.24264465999E+02  0.24264465999E+02  0.00000000000E+00 0.  1.
         21   -1    0    0  501  502 -0.00000000000E+00 -0.00000000000E+00 -0.16098644001E+03  0.16098644001E+03  0.00000000000E+00 0.  1.
         25    1    1    2    0    0  0.00000000000E+00  0.00000000000E+00 -0.13672197401E+03  0.18525090601E+03  0.12500000000E+03 0.  0.
<mgrwt>
<rscale>  0 0.12500000E+03</rscale>
<asrwt>0</asrwt>
<pdfrwt beam="1">  1       21 0.37329946E-02 0.12500000E+03</pdfrwt>
<pdfrwt beam="2">  1       21 0.24767146E-01 0.12500000E+03</pdfrwt>
<totfact> 0.66554214E+06</totfact>
</mgrwt>
</event>
<event>
 3    1  0.1595726E-001  0.1250000E+03  0.7546771E-02  0.1235069E+00
         21   -1    0    0  502  501  0.00000000000E+00  0.00000000000E+00  0.19091884597E+02  0.19091884597E+02  0.00000000000E+00 0. -1.
         21   -1    0    0  501  502 -0.00000000000E+00 -0.00000000000E+00 -0.20460264046E+03  0.20460264046E+03  0.00000000000E+00 0. -1.
         25    1    1    2    0    0  0.00000000000E+00  0.00000000000E+00 -0.18551075587E+03  0.22369452506E+03  0.12500000000E+03 0.  0.
<mgrwt>
<rscale>  0 0.12500000E+03</rscale>
<asrwt>0</asrwt>
<pdfrwt beam="1">  1       21 0.29372128E-02 0.12500000E+03</pdfrwt>
<pdfrwt beam="2">  1       21 0.31477332E-01 0.12500000E+03</pdfrwt>
<totfact> 0.62446888E+06</totfact>
</mgrwt>
</event>
<event>
 3    1  0.1595726E-001  0.1250000E+03  0.7546771E-02  0.1235069E+00
         21   -1    0    0  502  501  0.00000000000E+00  0.00000000000E+00  0.67382395444E+01  0.67382395444E+01  0.00000000000E+00 0.  1.
         21   -1    0    0  501  502 -0.00000000000E+00 -0.00000000000E+00 -0.57971373298E+03  0.57971373298E+03  0.00000000000E+00 0.  1.
         25    1    1    2    0    0  0.00000000000E+00  0.00000000000E+00 -0.57297549343E+03  0.58645197252E+03  0.12500000000E+03 0.  0.
<mgrwt>
<rscale>  0 0.12500000E+03</rscale>
<asrwt>0</asrwt>
<pdfrwt beam="1">  1       21 0.10366525E-02 0.12500000E+03</pdfrwt>
<pdfrwt beam="2">  1       21 0.89186708E-01 0.12500000E+03</pdfrwt>
<totfact> 0.37712584E+06</totfact>
</mgrwt>
</event>
<event>
 3    1  0.1595726E-001  0.1250000E+03  0.7546771E-02  0.1235069E+00
         21   -1    0    0  502  501  0.00000000000E+00  0.00000000000E+00  0.13672650159E+04  0.13672650159E+04  0.00000000000E+00 0. -1.
         21   -1    0    0  501  502 -0.00000000000E+00 -0.00000000000E+00 -0.28569808738E+01  0.28569808738E+01  0.00000000000E+00 0. -1.
         25    1    1    2    0    0  0.00000000000E+00  0.00000000000E+00  0.13644080351E+04  0.13701219968E+04  0.12500000000E+03 0.  0.
<mgrwt>
<rscale>  0 0.12500000E+03</rscale>
<asrwt>0</asrwt>
<pdfrwt beam="1">  1       21 0.21034794E+00 0.12500000E+03</pdfrwt>
<pdfrwt beam="2">  1       21 0.43953661E-03 0.12500000E+03</pdfrwt>
<totfact> 0.16038377E+06</totfact>
</mgrwt>
</event>
<event>
 3    1  0.1595726E-001  0.1250000E+03  0.7546771E-02  0.1235069E+00
         21   -1    0    0  502  501  0.00000000000E+00  0.00000000000E+00  0.21272926736E+01  0.21272926736E+01  0.00000000000E+00 0.  1.
         21   -1    0    0  501  502 -0.00000000000E+00 -0.00000000000E+00 -0.18362541499E+04  0.18362541499E+04  0.00000000000E+00 0.  1.
         25    1    1    2    0    0  0.00000000000E+00  0.00000000000E+00 -0.18341268573E+04  0.18383814426E+04  0.12500000000E+03 0.  0.
<mgrwt>
<rscale>  0 0.12500000E+03</rscale>
<asrwt>0</asrwt>
<pdfrwt beam="1">  1       21 0.32727502E-03 0.12500000E+03</pdfrwt>
<pdfrwt beam="2">  1       21 0.28250131E+00 0.12500000E+03</pdfrwt>
<totfact> 0.96352298E+05</totfact>
</mgrwt>
</event>
<event>
 3    1  0.1595726E-001  0.1250000E+03  0.7546771E-02  0.1235069E+00
         21   -1    0    0  502  501  0.00000000000E+00  0.00000000000E+00  0.52032022929E+02  0.52032022929E+02  0.00000000000E+00 0. -1.
         21   -1    0    0  501  502 -0.00000000000E+00 -0.00000000000E+00 -0.75073959845E+02  0.75073959845E+02  0.00000000000E+00 0. -1.
         25    1    1    2    0    0  0.00000000000E+00  0.00000000000E+00 -0.23041936916E+02  0.12710598277E+03  0.12500000000E+03 0.  0.
<mgrwt>
<rscale>  0 0.12500000E+03</rscale>
<asrwt>0</asrwt>
<pdfrwt beam="1">  1       21 0.80049266E-02 0.12500000E+03</pdfrwt>
<pdfrwt beam="2">  1       21 0.11549840E-01 0.12500000E+03</pdfrwt>
<totfact> 0.73754716E+06</totfact>
</mgrwt>
</event>
<event>
 3    1  0.1595726E-001  0.1250000E+03  0.7546771E-02  0.1235069E+00
         21   -1    0    0  502  501  0.00000000000E+00  0.00000000000E+00  0.14790307969E+04  0.14790307969E+04  0.00000000000E+00 0.  1.
         21   -1    0    0  501  502 -0.00000000000E+00 -0.00000000000E+00 -0.26410876692E+01  0.26410876692E+01  0.00000000000E+00 0.  1.
         25    1    1    2    0    0  0.00000000000E+00  0.00000000000E+00  0.14763897092E+04  0.14816718845E+04  0.12500000000E+03 0.  0.
<mgrwt>
<rscale>  0 0.12500000E+03</rscale>
<asrwt>0</asrwt>
<pdfrwt beam="1">  1       21 0.22754254E+00 0.12500000E+03</pdfrwt>
<pdfrwt beam="2">  1       21 0.40632236E-03 0.12500000E+03</pdfrwt>
<totfact> 0.14267155E+06</totfact>
</mgrwt>
</event>
<event>
 3    1  0.1595726E-001  0.1250000E+03  0.7546771E-02  0.1235069E+00
         21   -1    0    0  502  501  0.00000000000E+00  0.00000000000E+00  0.35248503539E+03  0.35248503539E+03  0.00000000000E+00 0.  1.
         21   -1    0    0  501  502 -0.00000000000E+00 -0.00000000000E+00 -0.11082030747E+02  0.11082030747E+02  0.00000000000E+00 0.  1.
         25    1    1    2    0    0  0.00000000000E+00  0.00000000000E+00  0.34140300465E+03  0.36356706614E+03  0.12500000000E+03 0.  0.
<mgrwt>
<rscale>  0 0.12500000E+03</rscale>
<asrwt>0</asrwt>
<pdfrwt beam="1">  1       21 0.54228458E-01 0.12500000E+03</pdfrwt>
<pdfrwt beam="2">  1       21 0.17049281E-02 0.12500000E+03</pdfrwt>
<totfact> 0.50551813E+06</totfact>
</mgrwt>
</event>
<event>
 3    1  0.1595726E-001  0.1250000E+03  0.7546771E-02  0.1235069E+00
         21   -1    0    0  502  501  0.00000000000E+00  0.00000000000E+00  0.86100309322E+01  0.86100309322E+01  0.00000000000E+00 0.  1.
         21   -1    0    0  501  502 -0.00000000000E+00 -0.00000000000E+00 -0.45368594268E+03  0.45368594268E+03  0.00000000000E+00 0.  1.
         25    1    1    2    0    0  0.00000000000E+00  0.00000000000E+00 -0.44507591175E+03  0.46229597361E+03  0.12500000000E+03 0.  0.
<mgrwt>
<rscale>  0 0.12500000E+03</rscale>
<asrwt>0</asrwt>
<pdfrwt beam="1">  1       21 0.13246205E-02 0.12500000E+03</pdfrwt>
<pdfrwt beam="2">  1       21 0.69797819E-01 0.12500000E+03</pdfrwt>
<totfact> 0.44165538E+06</totfact>
</mgrwt>
</event>
<event>
 3    1  0.1595726E-001  0.1250000E+03  0.7546771E-02  0.1235069E+00
         21   -1    0    0  502  501  0.00000000000E+00  0.00000000000E+00  0.13352254253E+03  0.13352254253E+03  0.00000000000E+00 0. -1.
         21   -1    0    0  501  502 -0.00000000000E+00 -0.00000000000E+00 -0.29255359627E+02  0.29255359627E+02  0.00000000000E+00 0. -1.
         25    1    1    2    0    0  0.00000000000E+00  0.00000000000E+00  0.10426718290E+03  0.16277790215E+03  0.12500000000E+03 0.  0.
<mgrwt>
<rscale>  0 0.12500000E+03</rscale>
<asrwt>0</asrwt>
<pdfrwt beam="1">  1       21 0.20541929E-01 0.12500000E+03</pdfrwt>
<pdfrwt beam="2">  1       21 0.45008246E-02 0.12500000E+03</pdfrwt>
<totfact> 0.69181650E+06</totfact>
</mgrwt>
</event>
<event>
 3    1  0.1595726E-001  0.1250000E+03  0.7546771E-02  0.1235069E+00
         21   -1    0    0  502  501  0.00000000000E+00  0.00000000000E+00  0.80929019415E+02  0.80929019415E+02  0.00000000000E+00 0.  1.
         21   -1    0    0  501  502 -0.00000000000E+00 -0.00000000000E+00 -0.48267605714E+02  0.48267605714E+02  0.00000000000E+00 0.  1.
         25    1    1    2    0    0  0.00000000000E+00  0.00000000000E+00  0.32661413701E+02  0.12919662513E+03  0.12500000000E+03 0.  0.
<mgrwt>
<rscale>  0 0.12500000E+03</rscale>
<asrwt>0</asrwt>
<pdfrwt beam="1">  1       21 0.12450618E-01 0.12500000E+03</pdfrwt>
<pdfrwt beam="2">  1       21 0.74257855E-02 0.12500000E+03</pdfrwt>
<totfact> 0.73472487E+06</totfact>
</mgrwt>
</event>
<event>
 3    1  0.1595726E-001  0.1250000E+03  0.7546771E-02  0.1235069E+00
         21   -1    0    0  502  501  0.00000000000E+00  0.00000000000E+00  0.84758216572E+01  0.84758216572E+01  0.00000000000E+00 0.  1.
         21   -1    0    0  501  502 -0.00000000000E+00 -0.00000000000E+00 -0.46086977263E+03  0.46086977263E+03  0.00000000000E+00 0.  1.
         25    1    1    2    0    0  0.00000000000E+00  0.00000000000E+00 -0.45239395097E+03  0.46934559429E+03  0.12500000000E+03 0.  0.
<mgrwt>
<rscale>  0 0.12500000E+03</rscale>
<asrwt>0</asrwt>
<pdfrwt beam="1">  1       21 0.13039724E-02 0.12500000E+03</pdfrwt>
<pdfrwt beam="2">  1       21 0.70903048E-01 0.12500000E+03</pdfrwt>
<totfact> 0.43756851E+06</totfact>
</mgrwt>
</event>
<event>
 3    1  0.1595726E-001  0.1250000E+03  0.7546771E-02  0.1235069E+00
         21   -1    0    0  502  501  0.00000000000E+00  0.00000000000E+00  0.14316162961E+03  0.14316162961E+03  0.00000000000E+00 0. -1.
         21   -1    0    0  501  502 -0.00000000000E+00 -0.00000000000E+00 -0.27285593289E+02  0.27285593289E+02  0.00000000000E+00 0. -1.
         25    1    1    2    0    0  0.00000000000E+00  0.00000000000E+00  0.11587603632E+03  0.17044722290E+03  0.12500000000E+03 0.  0.
<mgrwt>
<rscale>  0 0.12500000E+03</rscale>
<asrwt>0</asrwt>
<pdfrwt beam="1">  1       21 0.22024866E-01 0.12500000E+03</pdfrwt>
<pdfrwt beam="2">  1       21 0.41977837E-02 0.12500000E+03</pdfrwt>
<totfact> 0.68264659E+06</totfact>
</mgrwt>
</event>
<event>
 3    1  0.1595726E-001  0.1250000E+03  0.7546771E-02  0.1235069E+00
         21   -1    0    0  502  501  0.00000000000E+00  0.00000000000E+00  0.35375493094E+01  0.35375493094E+01  0.00000000000E+00 0.  1.
         21   -1    0    0  501  502 -0.00000000000E+00 -0.00000000000E+00 -0.11042248908E+04  0.11042248908E+04  0.00000000000E+00 0.  1.
         25    1    1    2    0    0  0.00000000000E+00  0.00000000000E+00 -0.11006873415E+04  0.11077624401E+04  0.12500000000E+03 0.  0.
<mgrwt>
<rscale>  0 0.12500000E+03</rscale>
<asrwt>0</asrwt>
<pdfrwt beam="1">  1       21 0.54423776E-03 0.12500000E+03</pdfrwt>
<pdfrwt beam="2">  1       21 0.16988094E+00 0.12500000E+03</pdfrwt>
<totfact> 0.21079569E+06</totfact>
</mgrwt>
</event>
<event>
 3    1  0.1595726E-001  0.1250000E+03  0.7546771E-02  0.1235069E+00
         21   -1    0    0  502  501  0.00000000000E+00  0.00000000000E+00  0.21878236879E+02  0.21878236879E+02  0.00000000000E+00 0. -1.
         21   -1    0    0  501  502 -0.00000000000E+00 -0.00000000000E+00 -0.17854500898E+03  0.17854500898E+03  0.00000000000E+00 0. -1.
         25    1    1    2    0    0  0.00000000000E+00  0.00000000000E+00 -0.15666677210E+03  0.20042324586E+03  0.12500000000E+03 0.  0.
<mgrwt>
<rscale>  0 0.12500000E+03</rscale>
<asrwt>0</asrwt>
<pdfrwt beam="1">  1       21 0.33658826E-02 0.12500000E+03</pdfrwt>
<pdfrwt beam="2">  1       21 0.27468463E-01 0.12500000E+03</pdfrwt>
<totfact> 0.64881420E+06</totfact>
</mgrwt>
</event>
<event>
 3    1  0.1595726E-001  0.1250000E+03  0.7546771E-02  0.1235069E+00
         21   -1    0    0  502  501  0.00000000000E+00  0.00000000000E+00  0.79478554178E+02  0.79478554178E+02  0.00000000000E+00 0.  1.
         21   -1    0    0  501  502 -0.00000000000E+00 -0.00000000000E+00 -0.49148478359E+02  0.49148478359E+02  0.00000000000E+00 0.  1.
         25    1    1    2    0    0  0.00000000000E+00  0.00000000000E+00  0.30330075819E+02  0.12862703254E+03  0.12500000000E+03 0.  0.
<mgrwt>
<rscale>  0 0.12500000E+03</rscale>
<asrwt>0</asrwt>
<pdfrwt beam="1">  1       21 0.12227470E-01 0.12500000E+03</pdfrwt>
<pdfrwt beam="2">  1       21 0.75613044E-02 0.12500000E+03</pdfrwt>
<totfact> 0.73549021E+06</totfact>
</mgrwt>
</event>
<event>
 3    1  0.1595726E-001  0.1250000E+03  0.7546771E-02  0.1235069E+00
         21   -1    0    0  502  501  0.00000000000E+00  0.00000000000E+00  0.67097104073E+01  0.67097104073E+01  0.00000000000E+00 0.  1.
         21   -1    0    0  501  502 -0.00000000000E+00 -0.00000000000E+00 -0.58217862812E+03  0.58217862812E+03  0.00000000000E+00 0.  1.
         25    1    1    2    0    0  0.00000000000E+00  0.00000000000E+00 -0.57546891771E+03  0.58888833852E+03  0.12500000000E+03 0.  0.
<mgrwt>
<rscale>  0 0.12500000E+03</rscale>
<asrwt>0</asrwt>
<pdfrwt beam="1">  1       21 0.10322627E-02 0.12500000E+03</pdfrwt>
<pdfrwt beam="2">  1       21 0.89565982E-01 0.12500000E+03</pdfrwt>
<totfact> 0.37599999E+06</totfact>
</mgrwt>
</event>
<event>
 3    1  0.1595726E-001  0.1250000E+03  0.7546771E-02  0.1235069E+00
         21   -1    0    0  502  501  0.00000000000E+00  0.00000000000E+00  0.34605964422E+02  0.34605964422E+02  0.00000000000E+00 0.  1.
         21   -1    0    0  501  502 -0.00000000000E+00 -0.00000000000E+00 -0.11287794070E+03  0.11287794070E+03  0.00000000000E+00 0.  1.
         25    1    1    2    0    0  0.00000000000E+00  0.00000000000E+00 -0.78271976280E+02  0.14748390512E+03  0.12500000000E+03 0.  0.
<mgrwt>
<rscale>  0 0.12500000E+03</rscale>
<asrwt>0</asrwt>
<pdfrwt beam="1">  1       21 0.53239946E-02 0.12500000E+03</pdfrwt>
<pdfrwt beam="2">  1       21 0.17365837E-01 0.12500000E+03</pdfrwt>
<totfact> 0.71076717E+06</totfact>
</mgrwt>
</event>
<event>
 3    1  0.1595726E-001  0.1250000E+03  0.7546771E-02  0.1235069E+00
         21   -1    0    0  502  501  0.00000000000E+00  0.00000000000E+00  0.35199040234E+03  0.35199040234E+03  0.00000000000E+00 0.  1.
         21   -1    0    0  501  502 -0.00000000000E+00 -0.00000000000E+00 -0.11097603724E+02  0.11097603724E+02  0.00000000000E+00 0.  1.
         25    1    1    2    0    0  0.00000000000E+00  0.00000000000E+00  0.34089279862E+03  0.36308800607E+03  0.12500000000E+03 0.  0.
<mgrwt>
<rscale>  0 0.12500000E+03</rscale>
<asrwt>0</asrwt>
<pdfrwt beam="1">  1       21 0.54152361E-01 0.12500000E+03</pdfrwt>
<pdfrwt beam="2">  1       21 0.17073239E-02 0.12500000E+03</pdfrwt>
<totfact> 0.50586137E+06</totfact>
</mgrwt>
</event>
<event>
 3    1  0.1595726E-001  0.1250000E+03  0.7546771E-02  0.1235069E+00
         21   -1    0    0  502  501  0.00000000000E+00  0.00000000000E+00  0.65405816798E+01  0.65405816798E+01  0.00000000000E+00 0. -1.
         21   -1    0    0  501  502 -0.00000000000E+00 -0.00000000000E+00 -0.59723281372E+03  0.59723281372E+03  0.00000000000E+00 0. -1.
         25    1    1    2    0    0  0.00000000000E+00  0.00000000000E+00 -0.59069223204E+03  0.60377339540E+03  0.12500000000E+03 0.  0.
<mgrwt>
<rscale>  0 0.12500000E+03</rscale>
<asrwt>0</asrwt>
<pdfrwt beam="1">  1       21 0.10062429E-02 0.12500000E+03</pdfrwt>
<pdfrwt beam="2">  1       21 0.91882015E-01 0.12500000E+03</pdfrwt>
<totfact> 0.36922526E+06</totfact>
</mgrwt>
</event>
<event>
 3    1  0.1595726E-001  0.1250000E+03  0.7546771E-02  0.1235069E+00
         21   -1    0    0  502  501  0.00000000000E+00  0.00000000000E+00  0.70181121999E+02  0.70181121999E+02  0.00000000000E+00 0.  1.
         21   -1    0    0  501  502 -0.00000000000E+00 -0.00000000000E+00 -0.55659554717E+02  0.55659554717E+02  0.00000000000E+00 0.  1.
         25    1    1    2    0    0  0.00000000000E+00  0.00000000000E+00  0.14521567282E+02  0.12584067672E+03  0.12500000000E+03 0.  0.
<mgrwt>
<rscale>  0 0.12500000E+03</rscale>
<asrwt>0</asrwt>
<pdfrwt beam="1">  1       21 0.10797096E-01 0.12500000E+03</pdfrwt>
<pdfrwt beam="2">  1       21 0.85630084E-02 0.12500000E+03</pdfrwt>
<totfact> 0.73928042E+06</totfact>
</mgrwt>
</event>
<event>
 3    1  0.1595726E-001  0.1250000E+03  0.7546771E-02  0.1235069E+00
         21   -1    0    0  502  501  0.00000000000E+00  0.00000000000E+00  0.86756864962E+03  0.86756864962E+03  0.00000000000E+00 0.  1.
         21   -1    0    0  501  502 -0.00000000000E+00 -0.00000000000E+00 -0.45025255370E+01  0.45025255370E+01  0.00000000000E+00 0.  1.
         25    1    1    2    0    0  0.00000000000E+00  0.00000000000E+00  0.86306612408E+03  0.87207117516E+03  0.12500000000E+03 0.  0.
<mgrwt>
<rscale>  0 0.12500000E+03</rscale>
<asrwt>0</asrwt>
<pdfrwt beam="1">  1       21 0.13347197E+00 0.12500000E+03</pdfrwt>
<pdfrwt beam="2">  1       21 0.69269692E-03 0.12500000E+03</pdfrwt>
<totfact> 0.27109145E+06</totfact>
</mgrwt>
</event>
<event>
 3    1  0.1595726E-001  0.1250000E+03  0.7546771E-02  0.1235069E+00
         21   -1    0    0  502  501  0.00000000000E+00  0.00000000000E+00  0.41417539121E+01  0.41417539121E+01  0.00000000000E+00 0. -1.
         21   -1    0    0  501  502 -0.00000000000E+00 -0.00000000000E+00 -0.94313908622E+03  0.94313908622E+03  0.00000000000E+00 0. -1.
         25    1    1    2    0    0  0.00000000000E+00  0.00000000000E+00 -0.93899733231E+03  0.94728084013E+03  0.12500000000E+03 0.  0.
<mgrwt>
<rscale>  0 0.12500000E+03</rscale>
<asrwt>0</asrwt>
<pdfrwt beam="1">  1       21 0.63719352E-03 0.12500000E+03</pdfrwt>
<pdfrwt beam="2">  1       21 0.14509818E+00 0.12500000E+03</pdfrwt>
<totfact> 0.24984372E+06</totfact>
</mgrwt>
</event>
<event>
 3    1  0.1595726E-001  0.1250000E+03  0.7546771E-02  0.1235069E+00
         21   -1    0    0  502  501  0.00000000000E+00  0.00000000000E+00  0.32414187587E+01  0.32414187587E+01  0.00000000000E+00 0.  1.
         21   -1    0    0  501  502 -0.00000000000E+00 -0.00000000000E+00 -0.12051050144E+04  0.12051050144E+04  0.00000000000E+00 0.  1.
         25    1    1    2    0    0  0.00000000000E+00  0.00000000000E+00 -0.12018635957E+04  0.12083464332E+04  0.12500000000E+03 0.  0.
<mgrwt>
<rscale>  0 0.12500000E+03</rscale>
<asrwt>0</asrwt>
<pdfrwt beam="1">  1       21 0.49867889E-03 0.12500000E+03</pdfrwt>
<pdfrwt beam="2">  1       21 0.18540111E+00 0.12500000E+03</pdfrwt>
<totfact> 0.18977783E+06</totfact>
</mgrwt>
</event>
<event>
 3    1  0.1595726E-001  0.1250000E+03  0.7546771E-02  0.1235069E+00
         21   -1    0    0  502  501  0.00000000000E+00  0.00000000000E+00  0.99950736833E+02  0.99950736833E+02  0.00000000000E+00 0. -1.
         21   -1    0    0  501  502 -0.00000000000E+00 -0.00000000000E+00 -0.39081752909E+02  0.39081752909E+02  0.00000000000E+00 0. -1.
         25    1    1    2    0    0  0.00000000000E+00  0.00000000000E+00  0.60868983923E+02  0.13903248974E+03  0.12500000000E+03 0.  0.
<mgrwt>
<rscale>  0 0.12500000E+03</rscale>
<asrwt>0</asrwt>
<pdfrwt beam="1">  1       21 0.15377036E-01 0.12500000E+03</pdfrwt>
<pdfrwt beam="2">  1       21 0.60125774E-02 0.12500000E+03</pdfrwt>
<totfact> 0.72165867E+06</totfact>
</mgrwt>
</event>
<event>
 3    1  0.1595726E-001  0.1250000E+03  0.7546771E-02  0.1235069E+00
         21   -1    0    0  502  501  0.00000000000E+00  0.00000000000E+00  0.69121624105E+03  0.69121624105E+03  0.00000000000E+00 0.  1.
         21   -1    0    0  501  502 -0.00000000000E+00 -0.00000000000E+00 -0.56512705692E+01  0.56512705692E+01  0.00000000000E+00 0.  1.
         25    1    1    2    0    0  0.00000000000E+00  0.00000000000E+00  0.68556497048E+03  0.69686751162E+03  0.12500000000E+03 0.  0.
<mgrwt>
<rscale>  0 0.12500000E+03</rscale>
<asrwt>0</asrwt>
<pdfrwt beam="1">  1       21 0.10634089E+00 0.12500000E+03</pdfrwt>
<pdfrwt beam="2">  1       21 0.86942679E-03 0.12500000E+03</pdfrwt>
<totfact> 0.33031274E+06</totfact>
</mgrwt>
</event>
<event>
 3    1  0.1595726E-001  0.1250000E+03  0.7546771E-02  0.1235069E+00
         21   -1    0    0  502  501  0.00000000000E+00  0.00000000000E+00  0.33807277805E+02  0.33807277805E+02  0.00000000000E+00 0. -1.
         21   -1    0    0  501  502 -0.00000000000E+00 -0.00000000000E+00 -0.11554464759E+03  0.11554464759E+03  0.00000000000E+00 0. -1.
         25    1    1    2    0    0  0.00000000000E+00  0.00000000000E+00 -0.81737369787E+02  0.14935192540E+03  0.12500000000E+03 0.  0.
<mgrwt>
<rscale>  0 0.12500000E+03</rscale>
<asrwt>0</asrwt>
<pdfrwt beam="1">  1       21 0.52011197E-02 0.12500000E+03</pdfrwt>
<pdfrwt beam="2">  1       21 0.17776100E-01 0.12500000E+03</pdfrwt>
<totfact> 0.70840706E+06</totfact>
</mgrwt>
</event>
<event>
 3    1  0.1595726E-001  0.1250000E+03  0.7546771E-02  0.1235069E+00
         21   -1    0    0  502  501  0.00000000000E+00  0.00000000000E+00  0.45176197049E+03  0.45176197049E+03  0.00000000000E+00 0. -1.
         21   -1    0    0  501  502 -0.00000000000E+00 -0.00000000000E+00 -0.86466994904E+01  0.86466994904E+01  0.00000000000E+00 0. -1.
         25    1    1    2    0    0  0.00000000000E+00  0.00000000000E+00  0.44311527100E+03  0.46040866998E+03  0.12500000000E+03 0.  0.
<mgrwt>
<rscale>  0 0.12500000E+03</rscale>
<asrwt>0</asrwt>
<pdfrwt beam="1">  1       21 0.69501823E-01 0.12500000E+03</pdfrwt>
<pdfrwt beam="2">  1       21 0.13302618E-02 0.12500000E+03</pdfrwt>
<totfact> 0.44275924E+06</totfact>
</mgrwt>
</event>
<event>
 3    1  0.1595726E-001  0.1250000E+03  0.7546771E-02  0.1235069E+00
         21   -1    0    0  502  501  0.00000000000E+00  0.00000000000E+00  0.12781349921E+04  0.12781349921E+04  0.00000000000E+00 0. -1.
         21   -1    0    0  501  502 -0.00000000000E+00 -0.00000000000E+00 -0.30562108260E+01  0.30562108260E+01  0.00000000000E+00 0. -1.
         25    1    1    2    0    0  0.00000000000E+00  0.00000000000E+00  0.12750787813E+04  0.12811912030E+04  0.12500000000E+03 0.  0.
<mgrwt>
<rscale>  0 0.12500000E+03</rscale>
<asrwt>0</asrwt>
<pdfrwt beam="1">  1       21 0.19663573E+00 0.12500000E+03</pdfrwt>
<pdfrwt beam="2">  1       21 0.47018730E-03 0.12500000E+03</pdfrwt>
<totfact> 0.17593531E+06</totfact>
</mgrwt>
</event>
<event>
 3    1  0.1595726E-001  0.1250000E+03  0.7546771E-02  0.1235069E+00
         21   -1    0    0  502  501  0.00000000000E+00  0.00000000000E+00  0.46053801525E+03  0.46053801525E+03  0.00000000000E+00 0.  1.
         21   -1    0    0  501  502 -0.00000000000E+00 -0.00000000000E+00 -0.84819273776E+01  0.84819273776E+01  0.00000000000E+00 0.  1.
         25    1    1    2    0    0  0.00000000000E+00  0.00000000000E+00  0.45205608787E+03  0.46901994263E+03  0.12500000000E+03 0.  0.
<mgrwt>
<rscale>  0 0.12500000E+03</rscale>
<asrwt>0</asrwt>
<pdfrwt beam="1">  1       21 0.70851982E-01 0.12500000E+03</pdfrwt>
<pdfrwt beam="2">  1       21 0.13049123E-02 0.12500000E+03</pdfrwt>
<totfact> 0.43775613E+06</totfact>
</mgrwt>
</event>
<event>
 3    1  0.1595726E-001  0.1250000E+03  0.7546771E-02  0.1235069E+00
         21   -1    0    0  502  501  0.00000000000E+00  0.00000000000E+00  0.80798962525E+03  0.80798962525E+03  0.00000000000E+00 0. -1.
         21   -1    0    0  501  502 -0.00000000000E+00 -0.00000000000E+00 -0.48345298973E+01  0.48345298973E+01  0.00000000000E+00 0. -1.
         25    1    1    2    0    0  0.00000000000E+00  0.00000000000E+00  0.80315509535E+03  0.81282415515E+03  0.12500000000E+03 0.  0.
<mgrwt>
<rscale>  0 0.12500000E+03</rscale>
<asrwt>0</asrwt>
<pdfrwt beam="1">  1       21 0.12430599E+00 0.12500000E+03</pdfrwt>
<pdfrwt beam="2">  1       21 0.74377447E-03 0.12500000E+03</pdfrwt>
<totfact> 0.28942324E+06</totfact>
</mgrwt>
</event>
<event>
 3    1  0.1595726E-001  0.1250000E+03  0.7546771E-02  0.1235069E+00
         21   -1    0    0  502  501  0.00000000000E+00  0.00000000000E+00  0.65383646605E+01  0.65383646605E+01  0.00000000000E+00 0. -1.
         21   -1    0    0  501  502 -0.00000000000E+00 -0.00000000000E+00 -0.59743532257E+03  0.59743532257E+03  0.00000000000E+00 0. -1.
         25    1    1    2    0    0  0.00000000000E+00  0.00000000000E+00 -0.59089695791E+03  0.60397368723E+03  0.12500000000E+03 0.  0.
<mgrwt>
<rscale>  0 0.12500000E+03</rscale>
<asrwt>0</asrwt>
<pdfrwt beam="1">  1       21 0.10059020E-02 0.12500000E+03</pdfrwt>
<pdfrwt beam="2">  1       21 0.91913147E-01 0.12500000E+03</pdfrwt>
<totfact> 0.36913535E+06</totfact>
</mgrwt>
</event>
<event>
 3    1  0.1595726E-001  0.1250000E+03  0.7546771E-02  0.1235069E+00
         21   -1    0    0  502  501  0.00000000000E+00  0.00000000000E+00  0.48372866221E+03  0.48372866221E+03  0.00000000000E+00 0.  1.
         21   -1    0    0  501  502 -0.00000000000E+00 -0.00000000000E+00 -0.80752915946E+01  0.80752915946E+01  0.00000000000E+00 0.  1.
         25    1    1    2    0    0  0.00000000000E+00  0.00000000000E+00  0.47565337061E+03  0.49180395380E+03  0.12500000000E+03 0.  0.
<mgrwt>
<rscale>  0 0.12500000E+03</rscale>
<asrwt>0</asrwt>
<pdfrwt beam="1">  1       21 0.74419772E-01 0.12500000E+03</pdfrwt>
<pdfrwt beam="2">  1       21 0.12423529E-02 0.12500000E+03</pdfrwt>
<totfact> 0.42492085E+06</totfact>
</mgrwt>
</event>
<event>
 3    1  0.1595726E-001  0.1250000E+03  0.7546771E-02  0.1235069E+00
         21   -1    0    0  502  501  0.00000000000E+00  0.00000000000E+00  0.50961520897E+03  0.50961520897E+03  0.00000000000E+00 0. -1.
         21   -1    0    0  501  502 -0.00000000000E+00 -0.00000000000E+00 -0.76650969815E+01  0.76650969815E+01  0.00000000000E+00 0. -1.
         25    1    1    2    0    0  0.00000000000E+00  0.00000000000E+00  0.50195011199E+03  0.51728030595E+03  0.12500000000E+03 0.  0.
<mgrwt>
<rscale>  0 0.12500000E+03</rscale>
<asrwt>0</asrwt>
<pdfrwt beam="1">  1       21 0.78402313E-01 0.12500000E+03</pdfrwt>
<pdfrwt beam="2">  1       21 0.11792461E-02 0.12500000E+03</pdfrwt>
<totfact> 0.41122172E+06</totfact>
</mgrwt>
</event>
<event>
 3    1  0.1595726E-001  0.1250000E+03  0.7546771E-02  0.1235069E+00
         21   -1    0    0  502  501  0.00000000000E+00  0.00000000000E+00  0.51842950568E+03  0.51842950568E+03  0.00000000000E+00 0. -1.
         21   -1    0    0  501  502 -0.00000000000E+00 -0.00000000000E+00 -0.75347756199E+01  0.75347756199E+01  0.00000000000E+00 0. -1.
         25    1    1    2    0    0  0.00000000000E+00  0.00000000000E+00  0.51089473006E+03  0.52596428130E+03  0.12500000000E+03 0.  0.
<mgrwt>
<rscale>  0 0.12500000E+03</rscale>
<asrwt>0</asrwt>
<pdfrwt beam="1">  1       21 0.79758358E-01 0.12500000E+03</pdfrwt>
<pdfrwt beam="2">  1       21 0.11591967E-02 0.12500000E+03</pdfrwt>
<totfact> 0.40670100E+06</totfact>
</mgrwt>
</event>
<event>
 3    1  0.1595726E-001  0.1250000E+03  0.7546771E-02  0.1235069E+00
         21   -1    0    0  502  501  0.00000000000E+00  0.00000000000E+00  0.81271360804E+02  0.81271360804E+02  0.00000000000E+00 0.  1.
         21   -1    0    0  501  502 -0.00000000000E+00 -0.00000000000E+00 -0.48064286870E+02  0.48064286870E+02  0.00000000000E+00 0.  1.
         25    1    1    2    0    0  0.00000000000E+00  0.00000000000E+00  0.33207073934E+02  0.12933564767E+03  0.12500000000E+03 0.  0.
<mgrwt>
<rscale>  0 0.12500000E+03</rscale>
<asrwt>0</asrwt>
<pdfrwt beam="1">  1       21 0.12503286E-01 0.12500000E+03</pdfrwt>
<pdfrwt beam="2">  1       21 0.73945057E-02 0.12500000E+03</pdfrwt>
<totfact> 0.73453842E+06</totfact>
</mgrwt>
</event>
<event>
 3    1  0.1595726E-001  0.1250000E+03  0.7546771E-02  0.1235069E+00
         21   -1    0    0  502  501  0.00000000000E+00  0.00000000000E+00  0.32310639417E+03  0.32310639417E+03  0.00000000000E+00 0.  1.
         21   -1    0    0  501  502 -0.00000000000E+00 -0.00000000000E+00 -0.12089670989E+02  0.12089670989E+02  0.00000000000E+00 0.  1.
         25    1    1    2    0    0  0.00000000000E+00  0.00000000000E+00  0.31101672318E+03  0.33519606516E+03  0.12500000000E+03 0.  0.
<mgrwt>
<rscale>  0 0.12500000E+03</rscale>
<asrwt>0</asrwt>
<pdfrwt beam="1">  1       21 0.49708669E-01 0.12500000E+03</pdfrwt>
<pdfrwt beam="2">  1       21 0.18599496E-02 0.12500000E+03</pdfrwt>
<totfact> 0.52650685E+06</totfact>
</mgrwt>
</event>
<event>
 3    1  0.1595726E-001  0.1250000E+03  0.7546771E-02  0.1235069E+00
         21   -1    0    0  502  501  0.00000000000E+00  0.00000000000E+00  0.12726684689E+03  0.12726684689E+03  0.00000000000E+00 0. -1.
         21   -1    0    0  501  502 -0.00000000000E+00 -0.00000000000E+00 -0.30693382411E+02  0.30693382411E+02  0.00000000000E+00 0. -1.
         25    1    1    2    0    0  0.00000000000E+00  0.00000000000E+00  0.96573464483E+02  0.15796022931E+03  0.12500000000E+03 0.  0.
<mgrwt>
<rscale>  0 0.12500000E+03</rscale>
<asrwt>0</asrwt>
<pdfrwt beam="1">  1       21 0.19579515E-01 0.12500000E+03</pdfrwt>
<pdfrwt beam="2">  1       21 0.47220589E-02 0.12500000E+03</pdfrwt>
<totfact> 0.69769597E+06</totfact>
</mgrwt>
</event>
<event>
 3    1  0.1595726E-001  0.1250000E+03  0.7546771E-02  0.1235069E+00
         21   -1    0    0  502  501  0.00000000000E+00  0.00000000000E+00  0.12619677975E+04  0.12619677975E+04  0.00000000000E+00 0. -1.
         21   -1    0    0  501  502 -0.00000000000E+00 -0.00000000000E+00 -0.30953642460E+01  0.30953642460E+01  0.00000000000E+00 0. -1.
         25    1    1    2    0    0  0.00000000000E+00  0.00000000000E+00  0.12588724332E+04  0.12650631617E+04  0.12500000000E+03 0.  0.
<mgrwt>
<rscale>  0 0.12500000E+03</rscale>
<asrwt>0</asrwt>
<pdfrwt beam="1">  1       21 0.19414848E+00 0.12500000E+03</pdfrwt>
<pdfrwt beam="2">  1       21 0.47621089E-03 0.12500000E+03</pdfrwt>
<totfact> 0.17891579E+06</totfact>
</mgrwt>
</event>
<event>
 3    1  0.1595726E-001  0.1250000E+03  0.7546771E-02  0.1235069E+00
         21   -1    0    0  502  501  0.00000000000E+00  0.00000000000E+00  0.21269911485E+02  0.21269911485E+02  0.00000000000E+00 0. -1.
         21   -1    0    0  501  502 -0.00000000000E+00 -0.00000000000E+00 -0.18365144597E+03  0.18365144597E+03  0.00000000000E+00 0. -1.
         25    1    1    2    0    0  0.00000000000E+00  0.00000000000E+00 -0.16238153449E+03  0.20492135746E+03  0.12500000000E+03 0.  0.
<mgrwt>
<rscale>  0 0.12500000E+03</rscale>
<asrwt>0</asrwt>
<pdfrwt beam="1">  1       21 0.32722942E-02 0.12500000E+03</pdfrwt>
<pdfrwt beam="2">  1       21 0.28254068E-01 0.12500000E+03</pdfrwt>
<totfact> 0.64397860E+06</totfact>
</mgrwt>
</event>
<event>
 3    1  0.1595726E-001  0.1250000E+03  0.7546771E-02  0.1235069E+00
         21   -1    0    0  502  501  0.00000000000E+00  0.00000000000E+00  0.10809700875E+02  0.10809700875E+02  0.00000000000E+00 0.  1.
         21   -1    0    0  501  502 -0.00000000000E+00 -0.00000000000E+00 -0.36136522604E+03  0.36136522604E+03  0.00000000000E+00 0.  1.
         25    1    1    2    0    0  0.00000000000E+00  0.00000000000E+00 -0.35055552516E+03  0.37217492691E+03  0.12500000000E+03 0.  0.
<mgrwt>
<rscale>  0 0.12500000E+03</rscale>
<asrwt>0</asrwt>
<pdfrwt beam="1">  1       21 0.16630312E-02 0.12500000E+03</pdfrwt>
<pdfrwt beam="2">  1       21 0.55594639E-01 0.12500000E+03</pdfrwt>
<totfact> 0.49941303E+06</totfact>
</mgrwt>
</event>
<event>
 3    1  0.1595726E-001  0.1250000E+03  0.7546771E-02  0.1235069E+00
         21   -1    0    0  502  501  0.00000000000E+00  0.00000000000E+00  0.46505366439E+02  0.46505366439E+02  0.00000000000E+00 0. -1.
         21   -1    0    0  501  502 -0.00000000000E+00 -0.00000000000E+00 -0.83995682630E+02  0.83995682630E+02  0.00000000000E+00 0. -1.
         25    1    1    2    0    0  0.00000000000E+00  0.00000000000E+00 -0.37490316191E+02  0.13050104907E+03  0.12500000000E+03 0.  0.
<mgrwt>
<rscale>  0 0.12500000E+03</rscale>
<asrwt>0</asrwt>
<pdfrwt beam="1">  1       21 0.71546718E-02 0.12500000E+03</pdfrwt>
<pdfrwt beam="2">  1       21 0.12922413E-01 0.12500000E+03</pdfrwt>
<totfact> 0.73297990E+06</totfact>
</mgrwt>
</event>
<event>
 3    1  0.1595726E-001  0.1250000E+03  0.7546771E-02  0.1235069E+00
         21   -1    0    0  502  501  0.00000000000E+00  0.00000000000E+00  0.60991277032E+03  0.60991277032E+03  0.00000000000E+00 0. -1.
         21   -1    0    0  501  502 -0.00000000000E+00 -0.00000000000E+00 -0.64046043796E+01  0.64046043796E+01  0.00000000000E+00 0. -1.
         25    1    1    2    0    0  0.00000000000E+00  0.00000000000E+00  0.60350816594E+03  0.61631737470E+03  0.12500000000E+03 0.  0.
<mgrwt>
<rscale>  0 0.12500000E+03</rscale>
<asrwt>0</asrwt>
<pdfrwt beam="1">  1       21 0.93832688E-01 0.12500000E+03</pdfrwt>
<pdfrwt beam="2">  1       21 0.98532423E-03 0.12500000E+03</pdfrwt>
<totfact> 0.36364956E+06</totfact>
</mgrwt>
</event>
<event>
 3    1  0.1595726E-001  0.1250000E+03  0.7546771E-02  0.1235069E+00
         21   -1    0    0  502  501  0.00000000000E+00  0.00000000000E+00  0.16430814932E+02  0.16430814932E+02  0.00000000000E+00 0. -1.
         21   -1    0    0  501  502 -0.00000000000E+00 -0.00000000000E+00 -0.23773927320E+03  0.23773927320E+03  0.00000000000E+00 0. -1.
         25    1    1    2    0    0  0.00000000000E+00  0.00000000000E+00 -0.22130845826E+03  0.25417008813E+03  0.12500000000E+03 0.  0.
<mgrwt>
<rscale>  0 0.12500000E+03</rscale>
<asrwt>0</asrwt>
<pdfrwt beam="1">  1       21 0.25278178E-02 0.12500000E+03</pdfrwt>
<pdfrwt beam="2">  1       21 0.36575271E-01 0.12500000E+03</pdfrwt>
<totfact> 0.59487789E+06</totfact>
</mgrwt>
</event>
<event>
 3    1  0.1595726E-001  0.1250000E+03  0.7546771E-02  0.1235069E+00
         21   -1    0    0  502  501  0.00000000000E+00  0.00000000000E+00  0.10333144460E+02  0.10333144460E+02  0.00000000000E+00 0.  1.
         21   -1    0    0  501  502 -0.00000000000E+00 -0.00000000000E+00 -0.37803110323E+03  0.37803110323E+03  0.00000000000E+00 0.  1.
         25    1    1    2    0    0  0.00000000000E+00  0.00000000000E+00 -0.36769795877E+03  0.38836424769E+03  0.12500000000E+03 0.  0.
<mgrwt>
<rscale>  0 0.12500000E+03</rscale>
<asrwt>0</asrwt>
<pdfrwt beam="1">  1       21 0.15897144E-02 0.12500000E+03</pdfrwt>
<pdfrwt beam="2">  1       21 0.58158636E-01 0.12500000E+03</pdfrwt>
<totfact> 0.48822833E+06</totfact>
</mgrwt>
</event>
<event>
 3    1  0.1595726E-001  0.1250000E+03  0.7546771E-02  0.1235069E+00
         21   -1    0    0  502  501  0.00000000000E+00  0.00000000000E+00  0.34220837154E+01  0.34220837154E+01  0.00000000000E+00 0.  1.
         21   -1    0    0  501  502 -0.00000000000E+00 -0.00000000000E+00 -0.11414828873E+04  0.11414828873E+04  0.00000000000E+00 0.  1.
         25    1    1    2    0    0  0.00000000000E+00  0.00000000000E+00 -0.11380608036E+04  0.11449049710E+04  0.12500000000E+03 0.  0.
<mgrwt>
<rscale>  0 0.12500000E+03</rscale>
<asrwt>0</asrwt>
<pdfrwt beam="1">  1       21 0.52647460E-03 0.12500000E+03</pdfrwt>
<pdfrwt beam="2">  1       21 0.17561269E+00 0.12500000E+03</pdfrwt>
<totfact> 0.20277071E+06</totfact>
</mgrwt>
</event>
<event>
 3    1  0.1595726E-001  0.1250000E+03  0.7546771E-02  0.1235069E+00
         21   -1    0    0  502  501  0.00000000000E+00  0.00000000000E+00  0.85717201768E+02  0.85717201768E+02  0.00000000000E+00 0. -1.
         21   -1    0    0  501  502 -0.00000000000E+00 -0.00000000000E+00 -0.45571366300E+02  0.45571366300E+02  0.00000000000E+00 0. -1.
         25    1    1    2    0    0  0.00000000000E+00  0.00000000000E+00  0.40145835467E+02  0.13128856807E+03  0.12500000000E+03 0.  0.
<mgrwt>
<rscale>  0 0.12500000E+03</rscale>
<asrwt>0</asrwt>
<pdfrwt beam="1">  1       21 0.13187262E-01 0.12500000E+03</pdfrwt>
<pdfrwt beam="2">  1       21 0.70109794E-02 0.12500000E+03</pdfrwt>
<totfact> 0.73191811E+06</totfact>
</mgrwt>
</event>
<event>
 3    1  0.1595726E-001  0.1250000E+03  0.7546771E-02  0.1235069E+00
         21   -1    0    0  502  501  0.00000000000E+00  0.00000000000E+00  0.12715496958E+03  0.12715496958E+03  0.00000000000E+00 0. -1.
         21   -1    0    0  501  502 -0.00000000000E+00 -0.00000000000E+00 -0.30720387988E+02  0.30720387988E+02  0.00000000000E+00 0. -1.
         25    1    1    2    0    0  0.00000000000E+00  0.00000000000E+00  0.96434581591E+02  0.15787535757E+03  0.12500000000E+03 0.  0.
<mgrwt>
<rscale>  0 0.12500000E+03</rscale>
<asrwt>0</asrwt>
<pdfrwt beam="1">  1       21 0.19562303E-01 0.12500000E+03</pdfrwt>
<pdfrwt beam="2">  1       21 0.47262136E-02 0.12500000E+03</pdfrwt>
<totfact> 0.69780041E+06</totfact>
</mgrwt>
</event>
<event>
 3    1  0.1595726E-001  0.1250000E+03  0.7546771E-02  0.1235069E+00
         21   -1    0    0  502  501  0.00000000000E+00  0.00000000000E+00  0.36570476924E+02  0.36570476924E+02  0.00000000000E+00 0. -1.
         21   -1    0    0  501  502 -0.00000000000E+00 -0.00000000000E+00 -0.10681430292E+03  0.10681430292E+03  0.00000000000E+00 0. -1.
         25    1    1    2    0    0  0.00000000000E+00  0.00000000000E+00 -0.70243825993E+02  0.14338477984E+03  0.12500000000E+03 0.  0.
<mgrwt>
<rscale>  0 0.12500000E+03</rscale>
<asrwt>0</asrwt>
<pdfrwt beam="1">  1       21 0.56262273E-02 0.12500000E+03</pdfrwt>
<pdfrwt beam="2">  1       21 0.16432970E-01 0.12500000E+03</pdfrwt>
<totfact> 0.71600454E+06</totfact>
</mgrwt>
</event>
<event>
 3    1  0.1595726E-001  0.1250000E+03  0.7546771E-02  0.1235069E+00
         21   -1    0    0  502  501  0.00000000000E+00  0.00000000000E+00  0.10360992497E+02  0.10360992497E+02  0.00000000000E+00 0. -1.
         21   -1    0    0  501  502 -0.00000000000E+00 -0.00000000000E+00 -0.37701503994E+03  0.37701503994E+03  0.00000000000E+00 0. -1.
         25    1    1    2    0    0  0.00000000000E+00  0.00000000000E+00 -0.36665404745E+03  0.38737603244E+03  0.12500000000E+03 0.  0.
<mgrwt>
<rscale>  0 0.12500000E+03</rscale>
<asrwt>0</asrwt>
<pdfrwt beam="1">  1       21 0.15939988E-02 0.12500000E+03</pdfrwt>
<pdfrwt beam="2">  1       21 0.58002315E-01 0.12500000E+03</pdfrwt>
<totfact> 0.48890112E+06</totfact>
</mgrwt>
</event>
<event>
 3    1  0.1595726E-001  0.1250000E+03  0.7546771E-02  0.1235069E+00
         21   -1    0    0  502  501  0.00000000000E+00  0.00000000000E+00  0.22666519650E+02  0.22666519650E+02  0.00000000000E+00 0.  1.
         21   -1    0    0  501  502 -0.00000000000E+00 -0.00000000000E+00 -0.17233567660E+03  0.17233567660E+03  0.00000000000E+00 0.  1.
         25    1    1    2    0    0  0.00000000000E+00  0.00000000000E+00 -0.14966915695E+03  0.19500219625E+03  0.12500000000E+03 0.  0.
<mgrwt>
<rscale>  0 0.12500000E+03</rscale>
<asrwt>0</asrwt>
<pdfrwt beam="1">  1       21 0.34871568E-02 0.12500000E+03</pdfrwt>
<pdfrwt beam="2">  1       21 0.26513181E-01 0.12500000E+03</pdfrwt>
<totfact> 0.65470782E+06</totfact>
</mgrwt>
</event>
<event>
 3    1  0.1595726E-001  0.1250000E+03  0.7546771E-02  0.1235069E+00
         21   -1    0    0  502  501  0.00000000000E+00  0.00000000000E+00  0.27550120641E+02  0.27550120641E+02  0.00000000000E+00 0. -1.
         21   -1    0    0  501  502 -0.00000000000E+00 -0.00000000000E+00 -0.14178703792E+03  0.14178703792E+03  0.00000000000E+00 0. -1.
         25    1    1    2    0    0  0.00000000000E+00  0.00000000000E+00 -0.11423691728E+03  0.16933715856E+03  0.12500000000E+03 0.  0.
<mgrwt>
<rscale>  0 0.12500000E+03</rscale>
<asrwt>0</asrwt>
<pdfrwt beam="1">  1       21 0.42384802E-02 0.12500000E+03</pdfrwt>
<pdfrwt beam="2">  1       21 0.21813390E-01 0.12500000E+03</pdfrwt>
<totfact> 0.68396211E+06</totfact>
</mgrwt>
</event>
<event>
 3    1  0.1595726E-001  0.1250000E+03  0.7546771E-02  0.1235069E+00
         21   -1    0    0  502  501  0.00000000000E+00  0.00000000000E+00  0.49967717675E+01  0.49967717675E+01  0.00000000000E+00 0. -1.
         21   -1    0    0  501  502 -0.00000000000E+00 -0.00000000000E+00 -0.78175473720E+03  0.78175473720E+03  0.00000000000E+00 0. -1.
         25    1    1    2    0    0  0.00000000000E+00  0.00000000000E+00 -0.77675796544E+03  0.78675150897E+03  0.12500000000E+03 0.  0.
<mgrwt>
<rscale>  0 0.12500000E+03</rscale>
<asrwt>0</asrwt>
<pdfrwt beam="1">  1       21 0.76873424E-03 0.12500000E+03</pdfrwt>
<pdfrwt beam="2">  1       21 0.12026994E+00 0.12500000E+03</pdfrwt>
<totfact> 0.29806502E+06</totfact>
</mgrwt>
</event>
<event>
 3    1  0.1595726E-001  0.1250000E+03  0.7546771E-02  0.1235069E+00
         21   -1    0    0  502  501  0.00000000000E+00  0.00000000000E+00  0.32081914568E+03  0.32081914568E+03  0.00000000000E+00 0.  1.
         21   -1    0    0  501  502 -0.00000000000E+00 -0.00000000000E+00 -0.12175863107E+02  0.12175863107E+02  0.00000000000E+00 0.  1.
         25    1    1    2    0    0  0.00000000000E+00  0.00000000000E+00  0.30864328258E+03  0.33299500879E+03  0.12500000000E+03 0.  0.
<mgrwt>
<rscale>  0 0.12500000E+03</rscale>
<asrwt>0</asrwt>
<pdfrwt beam="1">  1       21 0.49356785E-01 0.12500000E+03</pdfrwt>
<pdfrwt beam="2">  1       21 0.18732100E-02 0.12500000E+03</pdfrwt>
<totfact> 0.52819361E+06</totfact>
</mgrwt>
</event>
<event>
 3    1  0.1595726E-001  0.1250000E+03  0.7546771E-02  0.1235069E+00
         21   -1    0    0  502  501  0.00000000000E+00  0.00000000000E+00  0.17736802277E+02  0.17736802277E+02  0.00000000000E+00 0. -1.
         21   -1    0    0  501  502 -0.00000000000E+00 -0.00000000000E+00 -0.22023417406E+03  0.22023417406E+03  0.00000000000E+00 0. -1.
         25    1    1    2    0    0  0.00000000000E+00  0.00000000000E+00 -0.20249737179E+03  0.23797097634E+03  0.12500000000E+03 0.  0.
<mgrwt>
<rscale>  0 0.12500000E+03</rscale>
<asrwt>0</asrwt>
<pdfrwt beam="1">  1       21 0.27287388E-02 0.12500000E+03</pdfrwt>
<pdfrwt beam="2">  1       21 0.33882181E-01 0.12500000E+03</pdfrwt>
<totfact> 0.61029561E+06</totfact>
</mgrwt>
</event>
<event>
 3    1  0.1595726E-001  0.1250000E+03  0.7546771E-02  0.1235069E+00
         21   -1    0    0  502  501  0.00000000000E+00  0.00000000000E+00  0.30812766141E+01  0.30812766141E+01  0.00000000000E+00 0.  1.
         21   -1    0    0  501  502 -0.00000000000E+00 -0.00000000000E+00 -0.12677375287E+04  0.12677375287E+04  0.00000000000E+00 0.  1.
         25    1    1    2    0    0  0.00000000000E+00  0.00000000000E+00 -0.12646562521E+04  0.12708188053E+04  0.12500000000E+03 0.  0.
<mgrwt>
<rscale>  0 0.12500000E+03</rscale>
<asrwt>0</asrwt>
<pdfrwt beam="1">  1       21 0.47404256E-03 0.12500000E+03</pdfrwt>
<pdfrwt beam="2">  1       21 0.19503654E+00 0.12500000E+03</pdfrwt>
<totfact> 0.17784572E+06</totfact>
</mgrwt>
</event>
<event>
 3    1  0.1595726E-001  0.1250000E+03  0.7546771E-02  0.1235069E+00
         21   -1    0    0  502  501  0.00000000000E+00  0.00000000000E+00  0.85318193643E+01  0.85318193643E+01  0.00000000000E+00 0.  1.
         21   -1    0    0  501  502 -0.00000000000E+00 -0.00000000000E+00 -0.45784490192E+03  0.45784490192E+03  0.00000000000E+00 0.  1.
         25    1    1    2    0    0  0.00000000000E+00  0.00000000000E+00 -0.44931308255E+03  0.46637672128E+03  0.12500000000E+03 0.  0.
<mgrwt>
<rscale>  0 0.12500000E+03</rscale>
<asrwt>0</asrwt>
<pdfrwt beam="1">  1       21 0.13125879E-02 0.12500000E+03</pdfrwt>
<pdfrwt beam="2">  1       21 0.70437662E-01 0.12500000E+03</pdfrwt>
<totfact> 0.43928272E+06</totfact>
</mgrwt>
</event>
<event>
 3    1  0.1595726E-001  0.1250000E+03  0.7546771E-02  0.1235069E+00
         21   -1    0    0  502  501  0.00000000000E+00  0.00000000000E+00  0.23464121538E+02  0.23464121538E+02  0.00000000000E+00 0.  1.
         21   -1    0    0  501  502 -0.00000000000E+00 -0.00000000000E+00 -0.16647757273E+03  0.16647757273E+03  0.00000000000E+00 0.  1.
         25    1    1    2    0    0  0.00000000000E+00  0.00000000000E+00 -0.14301345119E+03  0.18994169427E+03  0.12500000000E+03 0.  0.
<mgrwt>
<rscale>  0 0.12500000E+03</rscale>
<asrwt>0</asrwt>
<pdfrwt beam="1">  1       21 0.36098649E-02 0.12500000E+03</pdfrwt>
<pdfrwt beam="2">  1       21 0.25611934E-01 0.12500000E+03</pdfrwt>
<totfact> 0.66028945E+06</totfact>
</mgrwt>
</event>
<event>
 3    1  0.1595726E-001  0.1250000E+03  0.7546771E-02  0.1235069E+00
         21   -1    0    0  502  501  0.00000000000E+00  0.00000000000E+00  0.45122167744E+02  0.45122167744E+02  0.00000000000E+00 0.  1.
         21   -1    0    0  501  502 -0.00000000000E+00 -0.00000000000E+00 -0.86570530524E+02  0.86570530524E+02  0.00000000000E+00 0.  1.
         25    1    1    2    0    0  0.00000000000E+00  0.00000000000E+00 -0.41448362780E+02  0.13169269827E+03  0.12500000000E+03 0.  0.
<mgrwt>
<rscale>  0 0.12500000E+03</rscale>
<asrwt>0</asrwt>
<pdfrwt beam="1">  1       21 0.69418720E-02 0.12500000E+03</pdfrwt>
<pdfrwt beam="2">  1       21 0.13318543E-01 0.12500000E+03</pdfrwt>
<totfact> 0.73137477E+06</totfact>
</mgrwt>
</event>
<event>
 3    1  0.1595726E-001  0.1250000E+03  0.7546771E-02  0.1235069E+00
         21   -1    0    0  502  501  0.00000000000E+00  0.00000000000E+00  0.39623782581E+02  0.39623782581E+02  0.00000000000E+00 0. -1.
         21   -1    0    0  501  502 -0.00000000000E+00 -0.00000000000E+00 -0.98583470471E+02  0.98583470471E+02  0.00000000000E+00 0. -1.
         25    1    1    2    0    0  0.00000000000E+00  0.00000000000E+00 -0.58959687890E+02  0.13820725305E+03  0.12500000000E+03 0.  0.
<mgrwt>
<rscale>  0 0.12500000E+03</rscale>
<asrwt>0</asrwt>
<pdfrwt beam="1">  1       21 0.60959666E-02 0.12500000E+03</pdfrwt>
<pdfrwt beam="2">  1       21 0.15166688E-01 0.12500000E+03</pdfrwt>
<totfact> 0.72274220E+06</totfact>
</mgrwt>
</event>
<event>
 3    1  0.1595726E-001  0.1250000E+03  0.7546771E-02  0.1235069E+00
         21   -1    0    0  502  501  0.00000000000E+00  0.00000000000E+00  0.26561249477E+02  0.26561249477E+02  0.00000000000E+00 0.  1.
         21   -1    0    0  501  502 -0.00000000000E+00 -0.00000000000E+00 -0.14706574716E+03  0.14706574716E+03  0.00000000000E+00 0.  1.
         25    1    1    2    0    0  0.00000000000E+00  0.00000000000E+00 -0.12050449769E+03  0.17362699664E+03  0.12500000000E+03 0.  0.
<mgrwt>
<rscale>  0 0.12500000E+03</rscale>
<asrwt>0</asrwt>
<pdfrwt beam="1">  1       21 0.40863462E-02 0.12500000E+03</pdfrwt>
<pdfrwt beam="2">  1       21 0.22625499E-01 0.12500000E+03</pdfrwt>
<totfact> 0.67890256E+06</totfact>
</mgrwt>
</event>
<event>
 3    1  0.1595726E-001  0.1250000E+03  0.7546771E-02  0.1235069E+00
         21   -1    0    0  502  501  0.00000000000E+00  0.00000000000E+00  0.75177646280E+03  0.75177646280E+03  0.00000000000E+00 0.  1.
         21   -1    0    0  501  502 -0.00000000000E+00 -0.00000000000E+00 -0.51960259376E+01  0.51960259376E+01  0.00000000000E+00 0.  1.
         25    1    1    2    0    0  0.00000000000E+00  0.00000000000E+00  0.74658043686E+03  0.75697248874E+03  0.12500000000E+03 0.  0.
<mgrwt>
<rscale>  0 0.12500000E+03</rscale>
<asrwt>0</asrwt>
<pdfrwt beam="1">  1       21 0.11565783E+00 0.12500000E+03</pdfrwt>
<pdfrwt beam="2">  1       21 0.79938920E-03 0.12500000E+03</pdfrwt>
<totfact> 0.30825153E+06</totfact>
</mgrwt>
</event>
<event>
 3    1  0.1595726E-001  0.1250000E+03  0.7546771E-02  0.1235069E+00
         21   -1    0    0  502  501  0.00000000000E+00  0.00000000000E+00  0.53114334846E+03  0.53114334846E+03  0.00000000000E+00 0.  1.
         21   -1    0    0  501  502 -0.00000000000E+00 -0.00000000000E+00 -0.73544176187E+01  0.73544176187E+01  0.00000000000E+00 0.  1.
         25    1    1    2    0    0  0.00000000000E+00  0.00000000000E+00  0.52378893084E+03  0.53849776608E+03  0.12500000000E+03 0.  0.
<mgrwt>
<rscale>  0 0.12500000E+03</rscale>
<asrwt>0</asrwt>
<pdfrwt beam="1">  1       21 0.81714331E-01 0.12500000E+03</pdfrwt>
<pdfrwt beam="2">  1       21 0.11314493E-02 0.12500000E+03</pdfrwt>
<totfact> 0.40030369E+06</totfact>
</mgrwt>
</event>
<event>
 3    1  0.1595726E-001  0.1250000E+03  0.7546771E-02  0.1235069E+00
         21   -1    0    0  502  501  0.00000000000E+00  0.00000000000E+00  0.64010537897E+02  0.64010537897E+02  0.00000000000E+00 0. -1.
         21   -1    0    0  501  502 -0.00000000000E+00 -0.00000000000E+00 -0.61025108183E+02  0.61025108183E+02  0.00000000000E+00 0. -1.
         25    1    1    2    0    0  0.00000000000E+00  0.00000000000E+00  0.29854297140E+01  0.12503564608E+03  0.12500000000E+03 0.  0.
<mgrwt>
<rscale>  0 0.12500000E+03</rscale>
<asrwt>0</asrwt>
<pdfrwt beam="1">  1       21 0.98477750E-02 0.12500000E+03</pdfrwt>
<pdfrwt beam="2">  1       21 0.93884782E-02 0.12500000E+03</pdfrwt>
<totfact> 0.74038767E+06</totfact>
</mgrwt>
</event>
<event>
 3    1  0.1595726E-001  0.1250000E+03  0.7546771E-02  0.1235069E+00
         21   -1    0    0  502  501  0.00000000000E+00  0.00000000000E+00  0.43830714383E+02  0.43830714383E+02  0.00000000000E+00 0. -1.
         21   -1    0    0  501  502 -0.00000000000E+00 -0.00000000000E+00 -0.89121294394E+02  0.89121294394E+02  0.00000000000E+00 0. -1.
         25    1    1    2    0    0  0.00000000000E+00  0.00000000000E+00 -0.45290580011E+02  0.13295200878E+03  0.12500000000E+03 0.  0.
<mgrwt>
<rscale>  0 0.12500000E+03</rscale>
<asrwt>0</asrwt>
<pdfrwt beam="1">  1       21 0.67431868E-02 0.12500000E+03</pdfrwt>
<pdfrwt beam="2">  1       21 0.13710968E-01 0.12500000E+03</pdfrwt>
<totfact> 0.72968807E+06</totfact>
</mgrwt>
</event>
<event>
 3    1  0.1595726E-001  0.1250000E+03  0.7546771E-02  0.1235069E+00
         21   -1    0    0  502  501  0.00000000000E+00  0.00000000000E+00  0.16193722898E+03  0.16193722898E+03  0.00000000000E+00 0.  1.
         21   -1    0    0  501  502 -0.00000000000E+00 -0.00000000000E+00 -0.24122001004E+02  0.24122001004E+02  0.00000000000E+00 0.  1.
         25    1    1    2    0    0  0.00000000000E+00  0.00000000000E+00  0.13781522797E+03  0.18605922998E+03  0.12500000000E+03 0.  0.
<mgrwt>
<rscale>  0 0.12500000E+03</rscale>
<asrwt>0</asrwt>
<pdfrwt beam="1">  1       21 0.24913419E-01 0.12500000E+03</pdfrwt>
<pdfrwt beam="2">  1       21 0.37110772E-02 0.12500000E+03</pdfrwt>
<totfact> 0.66463147E+06</totfact>
</mgrwt>
</event>
<event>
 3    1  0.1595726E-001  0.1250000E+03  0.7546771E-02  0.1235069E+00
         21   -1    0    0  502  501  0.00000000000E+00  0.00000000000E+00  0.60196826499E+01  0.60196826499E+01  0.00000000000E+00 0. -1.
         21   -1    0    0  501  502 -0.00000000000E+00 -0.00000000000E+00 -0.64891294561E+03  0.64891294561E+03  0.00000000000E+00 0. -1.
         25    1    1    2    0    0  0.00000000000E+00  0.00000000000E+00 -0.64289326296E+03  0.65493262826E+03  0.12500000000E+03 0.  0.
<mgrwt>
<rscale>  0 0.12500000E+03</rscale>
<asrwt>0</asrwt>
<pdfrwt beam="1">  1       21 0.92610544E-03 0.12500000E+03</pdfrwt>
<pdfrwt beam="2">  1       21 0.99832715E-01 0.12500000E+03</pdfrwt>
<totfact> 0.34720230E+06</totfact>
</mgrwt>
</event>
<event>
 3    1  0.1595726E-001  0.1250000E+03  0.7546771E-02  0.1235069E+00
         21   -1    0    0  502  501  0.00000000000E+00  0.00000000000E+00  0.14482743696E+03  0.14482743696E+03  0.00000000000E+00 0. -1.
         21   -1    0    0  501  502 -0.00000000000E+00 -0.00000000000E+00 -0.26971753985E+02  0.26971753985E+02  0.00000000000E+00 0. -1.
         25    1    1    2    0    0  0.00000000000E+00  0.00000000000E+00  0.11785568297E+03  0.17179919095E+03  0.12500000000E+03 0.  0.
<mgrwt>
<rscale>  0 0.12500000E+03</rscale>
<asrwt>0</asrwt>
<pdfrwt beam="1">  1       21 0.22281144E-01 0.12500000E+03</pdfrwt>
<pdfrwt beam="2">  1       21 0.41495007E-02 0.12500000E+03</pdfrwt>
<totfact> 0.68104990E+06</totfact>
</mgrwt>
</event>
<event>
 3    1  0.1595726E-001  0.1250000E+03  0.7546771E-02  0.1235069E+00
         21   -1    0    0  502  501  0.00000000000E+00  0.00000000000E+00  0.20803088960E+03  0.20803088960E+03  0.00000000000E+00 0. -1.
         21   -1    0    0  501  502 -0.00000000000E+00 -0.00000000000E+00 -0.18777259509E+02  0.18777259509E+02  0.00000000000E+00 0. -1.
         25    1    1    2    0    0  0.00000000000E+00  0.00000000000E+00  0.18925363010E+03  0.22680814911E+03  0.12500000000E+03 0.  0.
<mgrwt>
<rscale>  0 0.12500000E+03</rscale>
<asrwt>0</asrwt>
<pdfrwt beam="1">  1       21 0.32004751E-01 0.12500000E+03</pdfrwt>
<pdfrwt beam="2">  1       21 0.28888093E-02 0.12500000E+03</pdfrwt>
<totfact> 0.62133066E+06</totfact>
</mgrwt>
</event>
<event>
 3    1  0.1595726E-001  0.1250000E+03  0.7546771E-02  0.1235069E+00
         21   -1    0    0  502  501  0.00000000000E+00  0.00000000000E+00  0.40827257419E+02  0.40827257419E+02  0.00000000000E+00 0. -1.
         21   -1    0    0  501  502 -0.00000000000E+00 -0.00000000000E+00 -0.95677501918E+02  0.95677501918E+02  0.00000000000E+00 0. -1.
         25    1    1    2    0    0  0.00000000000E+00  0.00000000000E+00 -0.54850244499E+02  0.13650475934E+03  0.12500000000E+03 0.  0.
<mgrwt>
<rscale>  0 0.12500000E+03</rscale>
<asrwt>0</asrwt>
<pdfrwt beam="1">  1       21 0.62811166E-02 0.12500000E+03</pdfrwt>
<pdfrwt beam="2">  1       21 0.14719615E-01 0.12500000E+03</pdfrwt>
<totfact> 0.72497840E+06</totfact>
</mgrwt>
</event>
<event>
 3    1  0.1595726E-001  0.1250000E+03  0.7546771E-02  0.1235069E+00
         21   -1    0    0  502  501  0.00000000000E+00  0.00000000000E+00  0.29667692558E+03  0.29667692558E+03  0.00000000000E+00 0. -1.
         21   -1    0    0  501  502 -0.00000000000E+00 -0.00000000000E+00 -0.13166679520E+02  0.13166679520E+02  0.00000000000E+00 0. -1.
         25    1    1    2    0    0  0.00000000000E+00  0.00000000000E+00  0.28351024606E+03  0.30984360510E+03  0.12500000000E+03 0.  0.
<mgrwt>
<rscale>  0 0.12500000E+03</rscale>
<asrwt>0</asrwt>
<pdfrwt beam="1">  1       21 0.45642599E-01 0.12500000E+03</pdfrwt>
<pdfrwt beam="2">  1       21 0.20256432E-02 0.12500000E+03</pdfrwt>
<totfact> 0.54647927E+06</totfact>
</mgrwt>
</event>
<event>
 3    1  0.1595726E-001  0.1250000E+03  0.7546771E-02  0.1235069E+00
         21   -1    0    0  502  501  0.00000000000E+00  0.00000000000E+00  0.58312494431E+01  0.58312494431E+01  0.00000000000E+00 0. -1.
         21   -1    0    0  501  502 -0.00000000000E+00 -0.00000000000E+00 -0.66988216473E+03  0.66988216473E+03  0.00000000000E+00 0. -1.
         25    1    1    2    0    0  0.00000000000E+00  0.00000000000E+00 -0.66405091528E+03  0.67571341417E+03  0.12500000000E+03 0.  0.
<mgrwt>
<rscale>  0 0.12500000E+03</rscale>
<asrwt>0</asrwt>
<pdfrwt beam="1">  1       21 0.89711545E-03 0.12500000E+03</pdfrwt>
<pdfrwt beam="2">  1       21 0.10305878E+00 0.12500000E+03</pdfrwt>
<totfact> 0.33867670E+06</totfact>
</mgrwt>
</event>
<event>
 3    1  0.1595726E-001  0.1250000E+03  0.7546771E-02  0.1235069E+00
         21   -1    0    0  502  501  0.00000000000E+00  0.00000000000E+00  0.38957110488E+02  0.38957110488E+02  0.00000000000E+00 0. -1.
         21   -1    0    0  501  502 -0.00000000000E+00 -0.00000000000E+00 -0.10027052702E+03  0.10027052702E+03  0.00000000000E+00 0. -1.
         25    1    1    2    0    0  0.00000000000E+00  0.00000000000E+00 -0.61313416537E+02  0.13922763751E+03  0.12500000000E+03 0.  0.
<mgrwt>
<rscale>  0 0.12500000E+03</rscale>
<asrwt>0</asrwt>
<pdfrwt beam="1">  1       21 0.59934016E-02 0.12500000E+03</pdfrwt>
<pdfrwt beam="2">  1       21 0.15426235E-01 0.12500000E+03</pdfrwt>
<totfact> 0.72140299E+06</totfact>
</mgrwt>
</event>
<event>
 3    1  0.1595726E-001  0.1250000E+03  0.7546771E-02  0.1235069E+00
         21   -1    0    0  502  501  0.00000000000E+00  0.00000000000E+00  0.14984518147E+03  0.14984518147E+03  0.00000000000E+00 0.  1.
         21   -1    0    0  501  502 -0.00000000000E+00 -0.00000000000E+00 -0.26068572655E+02  0.26068572655E+02  0.00000000000E+00 0.  1.
         25    1    1    2    0    0  0.00000000000E+00  0.00000000000E+00  0.12377660881E+03  0.17591375412E+03  0.12500000000E+03 0.  0.
<mgrwt>
<rscale>  0 0.12500000E+03</rscale>
<asrwt>0</asrwt>
<pdfrwt beam="1">  1       21 0.23053104E-01 0.12500000E+03</pdfrwt>
<pdfrwt beam="2">  1       21 0.40105497E-02 0.12500000E+03</pdfrwt>
<totfact> 0.67623418E+06</totfact>
</mgrwt>
</event>
<event>
 3    1  0.1595726E-001  0.1250000E+03  0.7546771E-02  0.1235069E+00
         21   -1    0    0  502  501  0.00000000000E+00  0.00000000000E+00  0.15745358999E+03  0.15745358999E+03  0.00000000000E+00 0. -1.
         21   -1    0    0  501  502 -0.00000000000E+00 -0.00000000000E+00 -0.24808897658E+02  0.24808897658E+02  0.00000000000E+00 0. -1.
         25    1    1    2    0    0  0.00000000000E+00  0.00000000000E+00  0.13264469233E+03  0.18226248765E+03  0.12500000000E+03 0.  0.
<mgrwt>
<rscale>  0 0.12500000E+03</rscale>
<asrwt>0</asrwt>
<pdfrwt beam="1">  1       21 0.24223629E-01 0.12500000E+03</pdfrwt>
<pdfrwt beam="2">  1       21 0.38167536E-02 0.12500000E+03</pdfrwt>
<totfact> 0.66892935E+06</totfact>
</mgrwt>
</event>
<event>
 3    1  0.1595726E-001  0.1250000E+03  0.7546771E-02  0.1235069E+00
         21   -1    0    0  502  501  0.00000000000E+00  0.00000000000E+00  0.83157508448E+03  0.83157508448E+03  0.00000000000E+00 0.  1.
         21   -1    0    0  501  502 -0.00000000000E+00 -0.00000000000E+00 -0.46974110612E+01  0.46974110612E+01  0.00000000000E+00 0.  1.
         25    1    1    2    0    0  0.00000000000E+00  0.00000000000E+00  0.82687767342E+03  0.83627249554E+03  0.12500000000E+03 0.  0.
<mgrwt>
<rscale>  0 0.12500000E+03</rscale>
<asrwt>0</asrwt>
<pdfrwt beam="1">  1       21 0.12793451E+00 0.12500000E+03</pdfrwt>
<pdfrwt beam="2">  1       21 0.72267928E-03 0.12500000E+03</pdfrwt>
<totfact> 0.28195783E+06</totfact>
</mgrwt>
</event>
<event>
 3    1  0.1595726E-001  0.1250000E+03  0.7546771E-02  0.1235069E+00
         21   -1    0    0  502  501  0.00000000000E+00  0.00000000000E+00  0.62916940387E+02  0.62916940387E+02  0.00000000000E+00 0.  1.
         21   -1    0    0  501  502 -0.00000000000E+00 -0.00000000000E+00 -0.62085822609E+02  0.62085822609E+02  0.00000000000E+00 0.  1.
         25    1    1    2    0    0  0.00000000000E+00  0.00000000000E+00  0.83111777767E+00  0.12500276300E+03  0.12500000000E+03 0.  0.
<mgrwt>
<rscale>  0 0.12500000E+03</rscale>
<asrwt>0</asrwt>
<pdfrwt beam="1">  1       21 0.96795293E-02 0.12500000E+03</pdfrwt>
<pdfrwt beam="2">  1       21 0.95516650E-02 0.12500000E+03</pdfrwt>
<totfact> 0.74043208E+06</totfact>
</mgrwt>
</event>
<event>
 3    1  0.1595726E-001  0.1250000E+03  0.7546771E-02  0.1235069E+00
         21   -1    0    0  502  501  0.00000000000E+00  0.00000000000E+00  0.17455087383E+03  0.17455087383E+03  0.00000000000E+00 0.  1.
         21   -1    0    0  501  502 -0.00000000000E+00 -0.00000000000E+00 -0.22378862473E+02  0.22378862473E+02  0.00000000000E+00 0.  1.
         25    1    1    2    0    0  0.00000000000E+00  0.00000000000E+00  0.15217201136E+03  0.19692973630E+03  0.12500000000E+03 0.  0.
<mgrwt>
<rscale>  0 0.12500000E+03</rscale>
<asrwt>0</asrwt>
<pdfrwt beam="1">  1       21 0.26853980E-01 0.12500000E+03</pdfrwt>
<pdfrwt beam="2">  1       21 0.34429020E-02 0.12500000E+03</pdfrwt>
<totfact> 0.65260436E+06</totfact>
</mgrwt>
</event>
<event>
 3    1  0.1595726E-001  0.1250000E+03  0.7546771E-02  0.1235069E+00
         21   -1    0    0  502  501  0.00000000000E+00  0.00000000000E+00  0.47618785605E+01  0.47618785605E+01  0.00000000000E+00 0.  1.
         21   -1    0    0  501  502 -0.00000000000E+00 -0.00000000000E+00 -0.82031701362E+03  0.82031701362E+03  0.00000000000E+00 0.  1.
         25    1    1    2    0    0  0.00000000000E+00  0.00000000000E+00 -0.81555513506E+03  0.82507889218E+03  0.12500000000E+03 0.  0.
<mgrwt>
<rscale>  0 0.12500000E+03</rscale>
<asrwt>0</asrwt>
<pdfrwt beam="1">  1       21 0.73259592E-03 0.12500000E+03</pdfrwt>
<pdfrwt beam="2">  1       21 0.12620275E+00 0.12500000E+03</pdfrwt>
<totfact> 0.28548554E+06</totfact>
</mgrwt>
</event>
<event>
 3    1  0.1595726E-001  0.1250000E+03  0.7546771E-02  0.1235069E+00
         21   -1    0    0  502  501  0.00000000000E+00  0.00000000000E+00  0.84302235144E+01  0.84302235144E+01  0.00000000000E+00 0. -1.
         21   -1    0    0  501  502 -0.00000000000E+00 -0.00000000000E+00 -0.46336256605E+03  0.46336256605E+03  0.00000000000E+00 0. -1.
         25    1    1    2    0    0  0.00000000000E+00  0.00000000000E+00 -0.45493234253E+03  0.47179278956E+03  0.12500000000E+03 0.  0.
<mgrwt>
<rscale>  0 0.12500000E+03</rscale>
<asrwt>0</asrwt>
<pdfrwt beam="1">  1       21 0.12969571E-02 0.12500000E+03</pdfrwt>
<pdfrwt beam="2">  1       21 0.71286571E-01 0.12500000E+03</pdfrwt>
<totfact> 0.43616307E+06</totfact>
</mgrwt>
</event>
<event>
 3    1  0.1595726E-001  0.1250000E+03  0.7546771E-02  0.1235069E+00
         21   -1    0    0  502  501  0.00000000000E+00  0.00000000000E+00  0.20785554237E+02  0.20785554237E+02  0.00000000000E+00 0.  1.
         21   -1    0    0  501  502 -0.00000000000E+00 -0.00000000000E+00 -0.18793100032E+03  0.18793100032E+03  0.00000000000E+00 0.  1.
         25    1    1    2    0    0  0.00000000000E+00  0.00000000000E+00 -0.16714544608E+03  0.20871655456E+03  0.12500000000E+03 0.  0.
<mgrwt>
<rscale>  0 0.12500000E+03</rscale>
<asrwt>0</asrwt>
<pdfrwt beam="1">  1       21 0.31977776E-02 0.12500000E+03</pdfrwt>
<pdfrwt beam="2">  1       21 0.28912461E-01 0.12500000E+03</pdfrwt>
<totfact> 0.63994822E+06</totfact>
</mgrwt>
</event>
<event>
 3    1  0.1595726E-001  0.1250000E+03  0.7546771E-02  0.1235069E+00
         21   -1    0    0  502  501  0.00000000000E+00  0.00000000000E+00  0.18825662490E+03  0.18825662490E+03  0.00000000000E+00 0.  1.
         21   -1    0    0  501  502 -0.00000000000E+00 -0.00000000000E+00 -0.20749601785E+02  0.20749601785E+02  0.00000000000E+00 0.  1.
         25    1    1    2    0    0  0.00000000000E+00  0.00000000000E+00  0.16750702311E+03  0.20900622668E+03  0.12500000000E+03 0.  0.
<mgrwt>
<rscale>  0 0.12500000E+03</rscale>
<asrwt>0</asrwt>
<pdfrwt beam="1">  1       21 0.28962557E-01 0.12500000E+03</pdfrwt>
<pdfrwt beam="2">  1       21 0.31922466E-02 0.12500000E+03</pdfrwt>
<totfact> 0.63964244E+06</totfact>
</mgrwt>
</event>
<event>
 3    1  0.1595726E-001  0.1250000E+03  0.7546771E-02  0.1235069E+00
         21   -1    0    0  502  501  0.00000000000E+00  0.00000000000E+00  0.53538044203E+03  0.53538044203E+03  0.00000000000E+00 0. -1.
         21   -1    0    0  501  502 -0.00000000000E+00 -0.00000000000E+00 -0.72962134836E+01  0.72962134836E+01  0.00000000000E+00 0. -1.
         25    1    1    2    0    0  0.00000000000E+00  0.00000000000E+00  0.52808422854E+03  0.54267665551E+03  0.12500000000E+03 0.  0.
<mgrwt>
<rscale>  0 0.12500000E+03</rscale>
<asrwt>0</asrwt>
<pdfrwt beam="1">  1       21 0.82366191E-01 0.12500000E+03</pdfrwt>
<pdfrwt beam="2">  1       21 0.11224948E-02 0.12500000E+03</pdfrwt>
<totfact> 0.39820336E+06</totfact>
</mgrwt>
</event>
<event>
 3    1  0.1595726E-001  0.1250000E+03  0.7546771E-02  0.1235069E+00
         21   -1    0    0  502  501  0.00000000000E+00  0.00000000000E+00  0.12492949781E+03  0.12492949781E+03  0.00000000000E+00 0. -1.
         21   -1    0    0  501  502 -0.00000000000E+00 -0.00000000000E+00 -0.31267635495E+02  0.31267635495E+02  0.00000000000E+00 0. -1.
         25    1    1    2    0    0  0.00000000000E+00  0.00000000000E+00  0.93661862312E+02  0.15619713330E+03  0.12500000000E+03 0.  0.
<mgrwt>
<rscale>  0 0.12500000E+03</rscale>
<asrwt>0</asrwt>
<pdfrwt beam="1">  1       21 0.19219923E-01 0.12500000E+03</pdfrwt>
<pdfrwt beam="2">  1       21 0.48104055E-02 0.12500000E+03</pdfrwt>
<totfact> 0.69987175E+06</totfact>
</mgrwt>
</event>
<event>
 3    1  0.1595726E-001  0.1250000E+03  0.7546771E-02  0.1235069E+00
         21   -1    0    0  502  501  0.00000000000E+00  0.00000000000E+00  0.22646964691E+03  0.22646964691E+03  0.00000000000E+00 0. -1.
         21   -1    0    0  501  502 -0.00000000000E+00 -0.00000000000E+00 -0.17248448316E+02  0.17248448316E+02  0.00000000000E+00 0. -1.
         25    1    1    2    0    0  0.00000000000E+00  0.00000000000E+00  0.20922119859E+03  0.24371809523E+03  0.12500000000E+03 0.  0.
<mgrwt>
<rscale>  0 0.12500000E+03</rscale>
<asrwt>0</asrwt>
<pdfrwt beam="1">  1       21 0.34841482E-01 0.12500000E+03</pdfrwt>
<pdfrwt beam="2">  1       21 0.26536076E-02 0.12500000E+03</pdfrwt>
<totfact> 0.60474716E+06</totfact>
</mgrwt>
</event>
<event>
 3    1  0.1595726E-001  0.1250000E+03  0.7546771E-02  0.1235069E+00
         21   -1    0    0  502  501  0.00000000000E+00  0.00000000000E+00  0.16839799602E+03  0.16839799602E+03  0.00000000000E+00 0.  1.
         21   -1    0    0  501  502 -0.00000000000E+00 -0.00000000000E+00 -0.23196534949E+02  0.23196534949E+02  0.00000000000E+00 0.  1.
         25    1    1    2    0    0  0.00000000000E+00  0.00000000000E+00  0.14520146107E+03  0.19159453097E+03  0.12500000000E+03 0.  0.
<mgrwt>
<rscale>  0 0.12500000E+03</rscale>
<asrwt>0</asrwt>
<pdfrwt beam="1">  1       21 0.25907383E-01 0.12500000E+03</pdfrwt>
<pdfrwt beam="2">  1       21 0.35686978E-02 0.12500000E+03</pdfrwt>
<totfact> 0.65845684E+06</totfact>
</mgrwt>
</event>
<event>
 3    1  0.1595726E-001  0.1250000E+03  0.7546771E-02  0.1235069E+00
         21   -1    0    0  502  501  0.00000000000E+00  0.00000000000E+00  0.25021314537E+03  0.25021314537E+03  0.00000000000E+00 0. -1.
         21   -1    0    0  501  502 -0.00000000000E+00 -0.00000000000E+00 -0.15611689762E+02  0.15611689762E+02  0.00000000000E+00 0. -1.
         25    1    1    2    0    0  0.00000000000E+00  0.00000000000E+00  0.23460145561E+03  0.26582483514E+03  0.12500000000E+03 0.  0.
<mgrwt>
<rscale>  0 0.12500000E+03</rscale>
<asrwt>0</asrwt>
<pdfrwt beam="1">  1       21 0.38494327E-01 0.12500000E+03</pdfrwt>
<pdfrwt beam="2">  1       21 0.24017986E-02 0.12500000E+03</pdfrwt>
<totfact> 0.58419475E+06</totfact>
</mgrwt>
</event>
<event>
 3    1  0.1595726E-001  0.1250000E+03  0.7546771E-02  0.1235069E+00
         21   -1    0    0  502  501  0.00000000000E+00  0.00000000000E+00  0.15857668087E+03  0.15857668087E+03  0.00000000000E+00 0. -1.
         21   -1    0    0  501  502 -0.00000000000E+00 -0.00000000000E+00 -0.24633193094E+02  0.24633193094E+02  0.00000000000E+00 0. -1.
         25    1    1    2    0    0  0.00000000000E+00  0.00000000000E+00  0.13394348777E+03  0.18320987396E+03  0.12500000000E+03 0.  0.
<mgrwt>
<rscale>  0 0.12500000E+03</rscale>
<asrwt>0</asrwt>
<pdfrwt beam="1">  1       21 0.24396412E-01 0.12500000E+03</pdfrwt>
<pdfrwt beam="2">  1       21 0.37897221E-02 0.12500000E+03</pdfrwt>
<totfact> 0.66785205E+06</totfact>
</mgrwt>
</event>
<event>
 3    1  0.1595726E-001  0.1250000E+03  0.7546771E-02  0.1235069E+00
         21   -1    0    0  502  501  0.00000000000E+00  0.00000000000E+00  0.15953630067E+03  0.15953630067E+03  0.00000000000E+00 0.  1.
         21   -1    0    0  501  502 -0.00000000000E+00 -0.00000000000E+00 -0.24485023055E+02  0.24485023055E+02  0.00000000000E+00 0.  1.
         25    1    1    2    0    0  0.00000000000E+00  0.00000000000E+00  0.13505127761E+03  0.18402132372E+03  0.12500000000E+03 0.  0.
<mgrwt>
<rscale>  0 0.12500000E+03</rscale>
<asrwt>0</asrwt>
<pdfrwt beam="1">  1       21 0.24544046E-01 0.12500000E+03</pdfrwt>
<pdfrwt beam="2">  1       21 0.37669267E-02 0.12500000E+03</pdfrwt>
<totfact> 0.66693191E+06</totfact>
</mgrwt>
</event>
<event>
 3    1  0.1595726E-001  0.1250000E+03  0.7546771E-02  0.1235069E+00
         21   -1    0    0  502  501  0.00000000000E+00  0.00000000000E+00  0.10016760181E+03  0.10016760181E+03  0.00000000000E+00 0. -1.
         21   -1    0    0  501  502 -0.00000000000E+00 -0.00000000000E+00 -0.38997140089E+02  0.38997140089E+02  0.00000000000E+00 0. -1.
         25    1    1    2    0    0  0.00000000000E+00  0.00000000000E+00  0.61170461716E+02  0.13916474189E+03  0.12500000000E+03 0.  0.
<mgrwt>
<rscale>  0 0.12500000E+03</rscale>
<asrwt>0</asrwt>
<pdfrwt beam="1">  1       21 0.15410400E-01 0.12500000E+03</pdfrwt>
<pdfrwt beam="2">  1       21 0.59995600E-02 0.12500000E+03</pdfrwt>
<totfact> 0.72148538E+06</totfact>
</mgrwt>
</event>
<event>
 3    1  0.1595726E-001  0.1250000E+03  0.7546771E-02  0.1235069E+00
         21   -1    0    0  502  501  0.00000000000E+00  0.00000000000E+00  0.61653978675E+02  0.61653978675E+02  0.00000000000E+00 0.  1.
         21   -1    0    0  501  502 -0.00000000000E+00 -0.00000000000E+00 -0.63357630505E+02  0.63357630505E+02  0.00000000000E+00 0.  1.
         25    1    1    2    0    0  0.00000000000E+00  0.00000000000E+00 -0.17036518300E+01  0.12501160918E+03  0.12500000000E+03 0.  0.
<mgrwt>
<rscale>  0 0.12500000E+03</rscale>
<asrwt>0</asrwt>
<pdfrwt beam="1">  1       21 0.94852275E-02 0.12500000E+03</pdfrwt>
<pdfrwt beam="2">  1       21 0.97473278E-02 0.12500000E+03</pdfrwt>
<totfact> 0.74042013E+06</totfact>
</mgrwt>
</event>
<event>
 3    1  0.1595726E-001  0.1250000E+03  0.7546771E-02  0.1235069E+00
         21   -1    0    0  502  501  0.00000000000E+00  0.00000000000E+00  0.68304573810E+01  0.68304573810E+01  0.00000000000E+00 0.  1.
         21   -1    0    0  501  502 -0.00000000000E+00 -0.00000000000E+00 -0.57188703218E+03  0.57188703218E+03  0.00000000000E+00 0.  1.
         25    1    1    2    0    0  0.00000000000E+00  0.00000000000E+00 -0.56505657479E+03  0.57871748956E+03  0.12500000000E+03 0.  0.
<mgrwt>
<rscale>  0 0.12500000E+03</rscale>
<asrwt>0</asrwt>
<pdfrwt beam="1">  1       21 0.10508393E-02 0.12500000E+03</pdfrwt>
<pdfrwt beam="2">  1       21 0.87982648E-01 0.12500000E+03</pdfrwt>
<totfact> 0.38073130E+06</totfact>
</mgrwt>
</event>
<event>
 3    1  0.1595726E-001  0.1250000E+03  0.7546771E-02  0.1235069E+00
         21   -1    0    0  502  501  0.00000000000E+00  0.00000000000E+00  0.21346636449E+02  0.21346636449E+02  0.00000000000E+00 0. -1.
         21   -1    0    0  501  502 -0.00000000000E+00 -0.00000000000E+00 -0.18299135835E+03  0.18299135835E+03  0.00000000000E+00 0. -1.
         25    1    1    2    0    0  0.00000000000E+00  0.00000000000E+00 -0.16164472190E+03  0.20433799480E+03  0.12500000000E+03 0.  0.
<mgrwt>
<rscale>  0 0.12500000E+03</rscale>
<asrwt>0</asrwt>
<pdfrwt beam="1">  1       21 0.32840979E-02 0.12500000E+03</pdfrwt>
<pdfrwt beam="2">  1       21 0.28152517E-01 0.12500000E+03</pdfrwt>
<totfact> 0.64460211E+06</totfact>
</mgrwt>
</event>
<event>
 3    1  0.1595726E-001  0.1250000E+03  0.7546771E-02  0.1235069E+00
         21   -1    0    0  502  501  0.00000000000E+00  0.00000000000E+00  0.11800208225E+04  0.11800208225E+04  0.00000000000E+00 0.  1.
         21   -1    0    0  501  502 -0.00000000000E+00 -0.00000000000E+00 -0.33103229413E+01  0.33103229413E+01  0.00000000000E+00 0.  1.
         25    1    1    2    0    0  0.00000000000E+00  0.00000000000E+00  0.11767104996E+04  0.11833311455E+04  0.12500000000E+03 0.  0.
<mgrwt>
<rscale>  0 0.12500000E+03</rscale>
<asrwt>0</asrwt>
<pdfrwt beam="1">  1       21 0.18154133E+00 0.12500000E+03</pdfrwt>
<pdfrwt beam="2">  1       21 0.50928139E-03 0.12500000E+03</pdfrwt>
<totfact> 0.19478798E+06</totfact>
</mgrwt>
</event>
<event>
 3    1  0.1595726E-001  0.1250000E+03  0.7546771E-02  0.1235069E+00
         21   -1    0    0  502  501  0.00000000000E+00  0.00000000000E+00  0.14730592006E+03  0.14730592006E+03  0.00000000000E+00 0.  1.
         21   -1    0    0  501  502 -0.00000000000E+00 -0.00000000000E+00 -0.26517943056E+02  0.26517943056E+02  0.00000000000E+00 0.  1.
         25    1    1    2    0    0  0.00000000000E+00  0.00000000000E+00  0.12078797701E+03  0.17382386312E+03  0.12500000000E+03 0.  0.
<mgrwt>
<rscale>  0 0.12500000E+03</rscale>
<asrwt>0</asrwt>
<pdfrwt beam="1">  1       21 0.22662449E-01 0.12500000E+03</pdfrwt>
<pdfrwt beam="2">  1       21 0.40796836E-02 0.12500000E+03</pdfrwt>
<totfact> 0.67867205E+06</totfact>
</mgrwt>
</event>
<event>
 3    1  0.1595726E-001  0.1250000E+03  0.7546771E-02  0.1235069E+00
         21   -1    0    0  502  501  0.00000000000E+00  0.00000000000E+00  0.12677285413E+03  0.12677285413E+03  0.00000000000E+00 0.  1.
         21   -1    0    0  501  502 -0.00000000000E+00 -0.00000000000E+00 -0.30812984584E+02  0.30812984584E+02  0.00000000000E+00 0.  1.
         25    1    1    2    0    0  0.00000000000E+00  0.00000000000E+00  0.95959869549E+02  0.15758583872E+03  0.12500000000E+03 0.  0.
<mgrwt>
<rscale>  0 0.12500000E+03</rscale>
<asrwt>0</asrwt>
<pdfrwt beam="1">  1       21 0.19503516E-01 0.12500000E+03</pdfrwt>
<pdfrwt beam="2">  1       21 0.47404592E-02 0.12500000E+03</pdfrwt>
<totfact> 0.69815690E+06</totfact>
</mgrwt>
</event>
<event>
 3    1  0.1595726E-001  0.1250000E+03  0.7546771E-02  0.1235069E+00
         21   -1    0    0  502  501  0.00000000000E+00  0.00000000000E+00  0.35838747540E+01  0.35838747540E+01  0.00000000000E+00 0.  1.
         21   -1    0    0  501  502 -0.00000000000E+00 -0.00000000000E+00 -0.10899515938E+04  0.10899515938E+04  0.00000000000E+00 0.  1.
         25    1    1    2    0    0  0.00000000000E+00  0.00000000000E+00 -0.10863677190E+04  0.10935354685E+04  0.12500000000E+03 0.  0.
<mgrwt>
<rscale>  0 0.12500000E+03</rscale>
<asrwt>0</asrwt>
<pdfrwt beam="1">  1       21 0.55136555E-03 0.12500000E+03</pdfrwt>
<pdfrwt beam="2">  1       21 0.16768480E+00 0.12500000E+03</pdfrwt>
<totfact> 0.21395757E+06</totfact>
</mgrwt>
</event>
<event>
 3    1  0.1595726E-001  0.1250000E+03  0.7546771E-02  0.1235069E+00
         21   -1    0    0  502  501  0.00000000000E+00  0.00000000000E+00  0.11157977348E+02  0.11157977348E+02  0.00000000000E+00 0.  1.
         21   -1    0    0  501  502 -0.00000000000E+00 -0.00000000000E+00 -0.35008585141E+03  0.35008585141E+03  0.00000000000E+00 0.  1.
         25    1    1    2    0    0  0.00000000000E+00  0.00000000000E+00 -0.33892787406E+03  0.36124382876E+03  0.12500000000E+03 0.  0.
<mgrwt>
<rscale>  0 0.12500000E+03</rscale>
<asrwt>0</asrwt>
<pdfrwt beam="1">  1       21 0.17166122E-02 0.12500000E+03</pdfrwt>
<pdfrwt beam="2">  1       21 0.53859354E-01 0.12500000E+03</pdfrwt>
<totfact> 0.50718617E+06</totfact>
</mgrwt>
</event>
<event>
 3    1  0.1595726E-001  0.1250000E+03  0.7546771E-02  0.1235069E+00
         21   -1    0    0  502  501  0.00000000000E+00  0.00000000000E+00  0.34346984825E+01  0.34346984825E+01  0.00000000000E+00 0. -1.
         21   -1    0    0  501  502 -0.00000000000E+00 -0.00000000000E+00 -0.11372905132E+04  0.11372905132E+04  0.00000000000E+00 0. -1.
         25    1    1    2    0    0  0.00000000000E+00  0.00000000000E+00 -0.11338558148E+04  0.11407252117E+04  0.12500000000E+03 0.  0.
<mgrwt>
<rscale>  0 0.12500000E+03</rscale>
<asrwt>0</asrwt>
<pdfrwt beam="1">  1       21 0.52841492E-03 0.12500000E+03</pdfrwt>
<pdfrwt beam="2">  1       21 0.17496785E+00 0.12500000E+03</pdfrwt>
<totfact> 0.20366055E+06</totfact>
</mgrwt>
</event>
<event>
 3    1  0.1595726E-001  0.1250000E+03  0.7546771E-02  0.1235069E+00
         21   -1    0    0  502  501  0.00000000000E+00  0.00000000000E+00  0.12378526113E+03  0.12378526113E+03  0.00000000000E+00 0. -1.
         21   -1    0    0  501  502 -0.00000000000E+00 -0.00000000000E+00 -0.31556664859E+02  0.31556664859E+02  0.00000000000E+00 0. -1.
         25    1    1    2    0    0  0.00000000000E+00  0.00000000000E+00  0.92228596273E+02  0.15534192599E+03  0.12500000000E+03 0.  0.
<mgrwt>
<rscale>  0 0.12500000E+03</rscale>
<asrwt>0</asrwt>
<pdfrwt beam="1">  1       21 0.19043886E-01 0.12500000E+03</pdfrwt>
<pdfrwt beam="2">  1       21 0.48548716E-02 0.12500000E+03</pdfrwt>
<totfact> 0.70093187E+06</totfact>
</mgrwt>
</event>
<event>
 3    1  0.1595726E-001  0.1250000E+03  0.7546771E-02  0.1235069E+00
         21   -1    0    0  502  501  0.00000000000E+00  0.00000000000E+00  0.11674964558E+03  0.11674964558E+03  0.00000000000E+00 0.  1.
         21   -1    0    0  501  502 -0.00000000000E+00 -0.00000000000E+00 -0.33458345682E+02  0.33458345682E+02  0.00000000000E+00 0.  1.
         25    1    1    2    0    0  0.00000000000E+00  0.00000000000E+00  0.83291299895E+02  0.15020799126E+03  0.12500000000E+03 0.  0.
<mgrwt>
<rscale>  0 0.12500000E+03</rscale>
<asrwt>0</asrwt>
<pdfrwt beam="1">  1       21 0.17961484E-01 0.12500000E+03</pdfrwt>
<pdfrwt beam="2">  1       21 0.51474379E-02 0.12500000E+03</pdfrwt>
<totfact> 0.70733083E+06</totfact>
</mgrwt>
</event>
<event>
 3    1  0.1595726E-001  0.1250000E+03  0.7546771E-02  0.1235069E+00
         21   -1    0    0  502  501  0.00000000000E+00  0.00000000000E+00  0.32316644754E+03  0.32316644754E+03  0.00000000000E+00 0.  1.
         21   -1    0    0  501  502 -0.00000000000E+00 -0.00000000000E+00 -0.12087424390E+02  0.12087424390E+02  0.00000000000E+00 0.  1.
         25    1    1    2    0    0  0.00000000000E+00  0.00000000000E+00  0.31107902315E+03  0.33525387193E+03  0.12500000000E+03 0.  0.
<mgrwt>
<rscale>  0 0.12500000E+03</rscale>
<asrwt>0</asrwt>
<pdfrwt beam="1">  1       21 0.49717909E-01 0.12500000E+03</pdfrwt>
<pdfrwt beam="2">  1       21 0.18596040E-02 0.12500000E+03</pdfrwt>
<totfact> 0.52646266E+06</totfact>
</mgrwt>
</event>
<event>
 3    1  0.1595726E-001  0.1250000E+03  0.7546771E-02  0.1235069E+00
         21   -1    0    0  502  501  0.00000000000E+00  0.00000000000E+00  0.89031594565E+02  0.89031594565E+02  0.00000000000E+00 0.  1.
         21   -1    0    0  501  502 -0.00000000000E+00 -0.00000000000E+00 -0.43874874072E+02  0.43874874072E+02  0.00000000000E+00 0.  1.
         25    1    1    2    0    0  0.00000000000E+00  0.00000000000E+00  0.45156720493E+02  0.13290646864E+03  0.12500000000E+03 0.  0.
<mgrwt>
<rscale>  0 0.12500000E+03</rscale>
<asrwt>0</asrwt>
<pdfrwt beam="1">  1       21 0.13697168E-01 0.12500000E+03</pdfrwt>
<pdfrwt beam="2">  1       21 0.67499806E-02 0.12500000E+03</pdfrwt>
<totfact> 0.72974890E+06</totfact>
</mgrwt>
</event>
<event>
 3    1  0.1595726E-001  0.1250000E+03  0.7546771E-02  0.1235069E+00
         21   -1    0    0  502  501  0.00000000000E+00  0.00000000000E+00  0.20853815834E+03  0.20853815834E+03  0.00000000000E+00 0.  1.
         21   -1    0    0  501  502 -0.00000000000E+00 -0.00000000000E+00 -0.18731583856E+02  0.18731583856E+02  0.00000000000E+00 0.  1.
         25    1    1    2    0    0  0.00000000000E+00  0.00000000000E+00  0.18980657448E+03  0.22726974219E+03  0.12500000000E+03 0.  0.
<mgrwt>
<rscale>  0 0.12500000E+03</rscale>
<asrwt>0</asrwt>
<pdfrwt beam="1">  1       21 0.32082792E-01 0.12500000E+03</pdfrwt>
<pdfrwt beam="2">  1       21 0.28817823E-02 0.12500000E+03</pdfrwt>
<totfact> 0.62086742E+06</totfact>
</mgrwt>
</event>
<event>
 3    1  0.1595726E-001  0.1250000E+03  0.7546771E-02  0.1235069E+00
         21   -1    0    0  502  501  0.00000000000E+00  0.00000000000E+00  0.37649850212E+02  0.37649850212E+02  0.00000000000E+00 0.  1.
         21   -1    0    0  501  502 -0.00000000000E+00 -0.00000000000E+00 -0.10375207280E+03  0.10375207280E+03  0.00000000000E+00 0.  1.
         25    1    1    2    0    0  0.00000000000E+00  0.00000000000E+00 -0.66102222586E+02  0.14140192301E+03  0.12500000000E+03 0.  0.
<mgrwt>
<rscale>  0 0.12500000E+03</rscale>
<asrwt>0</asrwt>
<pdfrwt beam="1">  1       21 0.57922847E-02 0.12500000E+03</pdfrwt>
<pdfrwt beam="2">  1       21 0.15961857E-01 0.12500000E+03</pdfrwt>
<totfact> 0.71856815E+06</totfact>
</mgrwt>
</event>
<event>
 3    1  0.1595726E-001  0.1250000E+03  0.7546771E-02  0.1235069E+00
         21   -1    0    0  502  501  0.00000000000E+00  0.00000000000E+00  0.46161382807E+02  0.46161382807E+02  0.00000000000E+00 0. -1.
         21   -1    0    0  501  502 -0.00000000000E+00 -0.00000000000E+00 -0.84621598455E+02  0.84621598455E+02  0.00000000000E+00 0. -1.
         25    1    1    2    0    0  0.00000000000E+00  0.00000000000E+00 -0.38460215649E+02  0.13078298126E+03  0.12500000000E+03 0.  0.
<mgrwt>
<rscale>  0 0.12500000E+03</rscale>
<asrwt>0</asrwt>
<pdfrwt beam="1">  1       21 0.71017512E-02 0.12500000E+03</pdfrwt>
<pdfrwt beam="2">  1       21 0.13018707E-01 0.12500000E+03</pdfrwt>
<totfact> 0.73259931E+06</totfact>
</mgrwt>
</event>
<event>
 3    1  0.1595726E-001  0.1250000E+03  0.7546771E-02  0.1235069E+00
         21   -1    0    0  502  501  0.00000000000E+00  0.00000000000E+00  0.30243200523E+02  0.30243200523E+02  0.00000000000E+00 0. -1.
         21   -1    0    0  501  502 -0.00000000000E+00 -0.00000000000E+00 -0.12916126377E+03  0.12916126377E+03  0.00000000000E+00 0. -1.
         25    1    1    2    0    0  0.00000000000E+00  0.00000000000E+00 -0.98918063247E+02  0.15940446429E+03  0.12500000000E+03 0.  0.
<mgrwt>
<rscale>  0 0.12500000E+03</rscale>
<asrwt>0</asrwt>
<pdfrwt beam="1">  1       21 0.46528001E-02 0.12500000E+03</pdfrwt>
<pdfrwt beam="2">  1       21 0.19870964E-01 0.12500000E+03</pdfrwt>
<totfact> 0.69592337E+06</totfact>
</mgrwt>
</event>
<event>
 3    1  0.1595726E-001  0.1250000E+03  0.7546771E-02  0.1235069E+00
         21   -1    0    0  502  501  0.00000000000E+00  0.00000000000E+00  0.32609859063E+03  0.32609859063E+03  0.00000000000E+00 0. -1.
         21   -1    0    0  501  502 -0.00000000000E+00 -0.00000000000E+00 -0.11978739290E+02  0.11978739290E+02  0.00000000000E+00 0. -1.
         25    1    1    2    0    0  0.00000000000E+00  0.00000000000E+00  0.31411985134E+03  0.33807732992E+03  0.12500000000E+03 0.  0.
<mgrwt>
<rscale>  0 0.12500000E+03</rscale>
<asrwt>0</asrwt>
<pdfrwt beam="1">  1       21 0.50169007E-01 0.12500000E+03</pdfrwt>
<pdfrwt beam="2">  1       21 0.18428832E-02 0.12500000E+03</pdfrwt>
<totfact> 0.52431195E+06</totfact>
</mgrwt>
</event>
<event>
 3    1  0.1595726E-001  0.1250000E+03  0.7546771E-02  0.1235069E+00
         21   -1    0    0  502  501  0.00000000000E+00  0.00000000000E+00  0.18954298787E+03  0.18954298787E+03  0.00000000000E+00 0.  1.
         21   -1    0    0  501  502 -0.00000000000E+00 -0.00000000000E+00 -0.20608781385E+02  0.20608781385E+02  0.00000000000E+00 0.  1.
         25    1    1    2    0    0  0.00000000000E+00  0.00000000000E+00  0.16893420648E+03  0.21015176925E+03  0.12500000000E+03 0.  0.
<mgrwt>
<rscale>  0 0.12500000E+03</rscale>
<asrwt>0</asrwt>
<pdfrwt beam="1">  1       21 0.29160459E-01 0.12500000E+03</pdfrwt>
<pdfrwt beam="2">  1       21 0.31705819E-02 0.12500000E+03</pdfrwt>
<totfact> 0.63843572E+06</totfact>
</mgrwt>
</event>
<event>
 3    1  0.1595726E-001  0.1250000E+03  0.7546771E-02  0.1235069E+00
         21   -1    0    0  502  501  0.00000000000E+00  0.00000000000E+00  0.11268641265E+03  0.11268641265E+03  0.00000000000E+00 0.  1.
         21   -1    0    0  501  502 -0.00000000000E+00 -0.00000000000E+00 -0.34664782632E+02  0.34664782632E+02  0.00000000000E+00 0.  1.
         25    1    1    2    0    0  0.00000000000E+00  0.00000000000E+00  0.78021630016E+02  0.14735119528E+03  0.12500000000E+03 0.  0.
<mgrwt>
<rscale>  0 0.12500000E+03</rscale>
<asrwt>0</asrwt>
<pdfrwt beam="1">  1       21 0.17336371E-01 0.12500000E+03</pdfrwt>
<pdfrwt beam="2">  1       21 0.53330435E-02 0.12500000E+03</pdfrwt>
<totfact> 0.71093546E+06</totfact>
</mgrwt>
</event>
<event>
 3    1  0.1595726E-001  0.1250000E+03  0.7546771E-02  0.1235069E+00
         21   -1    0    0  502  501  0.00000000000E+00  0.00000000000E+00  0.84318887317E+01  0.84318887317E+01  0.00000000000E+00 0.  1.
         21   -1    0    0  501  502 -0.00000000000E+00 -0.00000000000E+00 -0.46327105638E+03  0.46327105638E+03  0.00000000000E+00 0.  1.
         25    1    1    2    0    0  0.00000000000E+00  0.00000000000E+00 -0.45483916765E+03  0.47170294511E+03  0.12500000000E+03 0.  0.
<mgrwt>
<rscale>  0 0.12500000E+03</rscale>
<asrwt>0</asrwt>
<pdfrwt beam="1">  1       21 0.12972134E-02 0.12500000E+03</pdfrwt>
<pdfrwt beam="2">  1       21 0.71272482E-01 0.12500000E+03</pdfrwt>
<totfact> 0.43621459E+06</totfact>
</mgrwt>
</event>
<event>
 3    1  0.1595726E-001  0.1250000E+03  0.7546771E-02  0.1235069E+00
         21   -1    0    0  502  501  0.00000000000E+00  0.00000000000E+00  0.48885630896E+03  0.48885630896E+03  0.00000000000E+00 0.  1.
         21   -1    0    0  501  502 -0.00000000000E+00 -0.00000000000E+00 -0.79905893171E+01  0.79905893171E+01  0.00000000000E+00 0.  1.
         25    1    1    2    0    0  0.00000000000E+00  0.00000000000E+00  0.48086571965E+03  0.49684689828E+03  0.12500000000E+03 0.  0.
<mgrwt>
<rscale>  0 0.12500000E+03</rscale>
<asrwt>0</asrwt>
<pdfrwt beam="1">  1       21 0.75208640E-01 0.12500000E+03</pdfrwt>
<pdfrwt beam="2">  1       21 0.12293218E-02 0.12500000E+03</pdfrwt>
<totfact> 0.42215596E+06</totfact>
</mgrwt>
</event>
<event>
 3    1  0.1595726E-001  0.1250000E+03  0.7546771E-02  0.1235069E+00
         21   -1    0    0  502  501  0.00000000000E+00  0.00000000000E+00  0.57244499754E+02  0.57244499754E+02  0.00000000000E+00 0. -1.
         21   -1    0    0  501  502 -0.00000000000E+00 -0.00000000000E+00 -0.68237996957E+02  0.68237996957E+02  0.00000000000E+00 0. -1.
         25    1    1    2    0    0  0.00000000000E+00  0.00000000000E+00 -0.10993497203E+02  0.12548249671E+03  0.12500000000E+03 0.  0.
<mgrwt>
<rscale>  0 0.12500000E+03</rscale>
<asrwt>0</asrwt>
<pdfrwt beam="1">  1       21 0.88068461E-02 0.12500000E+03</pdfrwt>
<pdfrwt beam="2">  1       21 0.10498153E-01 0.12500000E+03</pdfrwt>
<totfact> 0.73977845E+06</totfact>
</mgrwt>
</event>
<event>
 3    1  0.1595726E-001  0.1250000E+03  0.7546771E-02  0.1235069E+00
         21   -1    0    0  502  501  0.00000000000E+00  0.00000000000E+00  0.29586120179E+01  0.29586120179E+01  0.00000000000E+00 0.  1.
         21   -1    0    0  501  502 -0.00000000000E+00 -0.00000000000E+00 -0.13202981589E+04  0.13202981589E+04  0.00000000000E+00 0.  1.
         25    1    1    2    0    0  0.00000000000E+00  0.00000000000E+00 -0.13173395468E+04  0.13232567709E+04  0.12500000000E+03 0.  0.
<mgrwt>
<rscale>  0 0.12500000E+03</rscale>
<asrwt>0</asrwt>
<pdfrwt beam="1">  1       21 0.45517168E-03 0.12500000E+03</pdfrwt>
<pdfrwt beam="2">  1       21 0.20312253E+00 0.12500000E+03</pdfrwt>
<totfact> 0.16839900E+06</totfact>
</mgrwt>
</event>
<event>
 3    1  0.1595726E-001  0.1250000E+03  0.7546771E-02  0.1235069E+00
         21   -1    0    0  502  501  0.00000000000E+00  0.00000000000E+00  0.11832292585E+02  0.11832292585E+02  0.00000000000E+00 0. -1.
         21   -1    0    0  501  502 -0.00000000000E+00 -0.00000000000E+00 -0.33013466933E+03  0.33013466933E+03  0.00000000000E+00 0. -1.
         25    1    1    2    0    0  0.00000000000E+00  0.00000000000E+00 -0.31830237675E+03  0.34196696192E+03  0.12500000000E+03 0.  0.
<mgrwt>
<rscale>  0 0.12500000E+03</rscale>
<asrwt>0</asrwt>
<pdfrwt beam="1">  1       21 0.18203528E-02 0.12500000E+03</pdfrwt>
<pdfrwt beam="2">  1       21 0.50789948E-01 0.12500000E+03</pdfrwt>
<totfact> 0.52137222E+06</totfact>
</mgrwt>
</event>
<event>
 3    1  0.1595726E-001  0.1250000E+03  0.7546771E-02  0.1235069E+00
         21   -1    0    0  502  501  0.00000000000E+00  0.00000000000E+00  0.96241271001E+02  0.96241271001E+02  0.00000000000E+00 0. -1.
         21   -1    0    0  501  502 -0.00000000000E+00 -0.00000000000E+00 -0.40588096555E+02  0.40588096555E+02  0.00000000000E+00 0. -1.
         25    1    1    2    0    0  0.00000000000E+00  0.00000000000E+00  0.55653174446E+02  0.13682936756E+03  0.12500000000E+03 0.  0.
<mgrwt>
<rscale>  0 0.12500000E+03</rscale>
<asrwt>0</asrwt>
<pdfrwt beam="1">  1       21 0.14806349E-01 0.12500000E+03</pdfrwt>
<pdfrwt beam="2">  1       21 0.62443226E-02 0.12500000E+03</pdfrwt>
<totfact> 0.72455147E+06</totfact>
</mgrwt>
</event>
<event>
 3    1  0.1595726E-001  0.1250000E+03  0.7546771E-02  0.1235069E+00
         21   -1    0    0  502  501  0.00000000000E+00  0.00000000000E+00  0.10168792001E+02  0.10168792001E+02  0.00000000000E+00 0. -1.
         21   -1    0    0  501  502 -0.00000000000E+00 -0.00000000000E+00 -0.38414100706E+03  0.38414100706E+03  0.00000000000E+00 0. -1.
         25    1    1    2    0    0  0.00000000000E+00  0.00000000000E+00 -0.37397221506E+03  0.39430979906E+03  0.12500000000E+03 0.  0.
<mgrwt>
<rscale>  0 0.12500000E+03</rscale>
<asrwt>0</asrwt>
<pdfrwt beam="1">  1       21 0.15644301E-02 0.12500000E+03</pdfrwt>
<pdfrwt beam="2">  1       21 0.59098597E-01 0.12500000E+03</pdfrwt>
<totfact> 0.48421088E+06</totfact>
</mgrwt>
</event>
<event>
 3    1  0.1595726E-001  0.1250000E+03  0.7546771E-02  0.1235069E+00
         21   -1    0    0  502  501  0.00000000000E+00  0.00000000000E+00  0.31797948640E+03  0.31797948640E+03  0.00000000000E+00 0.  1.
         21   -1    0    0  501  502 -0.00000000000E+00 -0.00000000000E+00 -0.12284597489E+02  0.12284597489E+02  0.00000000000E+00 0.  1.
         25    1    1    2    0    0  0.00000000000E+00  0.00000000000E+00  0.30569488891E+03  0.33026408389E+03  0.12500000000E+03 0.  0.
<mgrwt>
<rscale>  0 0.12500000E+03</rscale>
<asrwt>0</asrwt>
<pdfrwt beam="1">  1       21 0.48919915E-01 0.12500000E+03</pdfrwt>
<pdfrwt beam="2">  1       21 0.18899383E-02 0.12500000E+03</pdfrwt>
<totfact> 0.53029862E+06</totfact>
</mgrwt>
</event>
<event>
 3    1  0.1595726E-001  0.1250000E+03  0.7546771E-02  0.1235069E+00
         21   -1    0    0  502  501  0.00000000000E+00  0.00000000000E+00  0.26352546897E+03  0.26352546897E+03  0.00000000000E+00 0.  1.
         21   -1    0    0  501  502 -0.00000000000E+00 -0.00000000000E+00 -0.14823045436E+02  0.14823045436E+02  0.00000000000E+00 0.  1.
         25    1    1    2    0    0  0.00000000000E+00  0.00000000000E+00  0.24870242353E+03  0.27834851440E+03  0.12500000000E+03 0.  0.
<mgrwt>
<rscale>  0 0.12500000E+03</rscale>
<asrwt>0</asrwt>
<pdfrwt beam="1">  1       21 0.40542376E-01 0.12500000E+03</pdfrwt>
<pdfrwt beam="2">  1       21 0.22804687E-02 0.12500000E+03</pdfrwt>
<totfact> 0.57304905E+06</totfact>
</mgrwt>
</event>
<event>
 3    1  0.1595726E-001  0.1250000E+03  0.7546771E-02  0.1235069E+00
         21   -1    0    0  502  501  0.00000000000E+00  0.00000000000E+00  0.30608179584E+03  0.30608179584E+03  0.00000000000E+00 0. -1.
         21   -1    0    0  501  502 -0.00000000000E+00 -0.00000000000E+00 -0.12762111478E+02  0.12762111478E+02  0.00000000000E+00 0. -1.
         25    1    1    2    0    0  0.00000000000E+00  0.00000000000E+00  0.29331968437E+03  0.31884390732E+03  0.12500000000E+03 0.  0.
<mgrwt>
<rscale>  0 0.12500000E+03</rscale>
<asrwt>0</asrwt>
<pdfrwt beam="1">  1       21 0.47089501E-01 0.12500000E+03</pdfrwt>
<pdfrwt beam="2">  1       21 0.19634020E-02 0.12500000E+03</pdfrwt>
<totfact> 0.53925087E+06</totfact>
</mgrwt>
</event>
<event>
 3    1  0.1595726E-001  0.1250000E+03  0.7546771E-02  0.1235069E+00
         21   -1    0    0  502  501  0.00000000000E+00  0.00000000000E+00  0.16142108352E+01  0.16142108352E+01  0.00000000000E+00 0.  1.
         21   -1    0    0  501  502 -0.00000000000E+00 -0.00000000000E+00 -0.24199131332E+04  0.24199131332E+04  0.00000000000E+00 0.  1.
         25    1    1    2    0    0  0.00000000000E+00  0.00000000000E+00 -0.24182989224E+04  0.24215273441E+04  0.12500000000E+03 0.  0.
<mgrwt>
<rscale>  0 0.12500000E+03</rscale>
<asrwt>0</asrwt>
<pdfrwt beam="1">  1       21 0.24833912E-03 0.12500000E+03</pdfrwt>
<pdfrwt beam="2">  1       21 0.37229583E+00 0.12500000E+03</pdfrwt>
<totfact> 0.45203023E+05</totfact>
</mgrwt>
</event>
<event>
 3    1  0.1595726E-001  0.1250000E+03  0.7546771E-02  0.1235069E+00
         21   -1    0    0  502  501  0.00000000000E+00  0.00000000000E+00  0.14694231677E+02  0.14694231677E+02  0.00000000000E+00 0. -1.
         21   -1    0    0  501  502 -0.00000000000E+00 -0.00000000000E+00 -0.26583560720E+03  0.26583560720E+03  0.00000000000E+00 0. -1.
         25    1    1    2    0    0  0.00000000000E+00  0.00000000000E+00 -0.25114137552E+03  0.28052983887E+03  0.12500000000E+03 0.  0.
<mgrwt>
<rscale>  0 0.12500000E+03</rscale>
<asrwt>0</asrwt>
<pdfrwt beam="1">  1       21 0.22606511E-02 0.12500000E+03</pdfrwt>
<pdfrwt beam="2">  1       21 0.40897784E-01 0.12500000E+03</pdfrwt>
<totfact> 0.57114057E+06</totfact>
</mgrwt>
</event>
<event>
 3    1  0.1595726E-001  0.1250000E+03  0.7546771E-02  0.1235069E+00
         21   -1    0    0  502  501  0.00000000000E+00  0.00000000000E+00  0.40574503612E+01  0.40574503612E+01  0.00000000000E+00 0. -1.
         21   -1    0    0  501  502 -0.00000000000E+00 -0.00000000000E+00 -0.96273512977E+03  0.96273512977E+03  0.00000000000E+00 0. -1.
         25    1    1    2    0    0  0.00000000000E+00  0.00000000000E+00 -0.95867767941E+03  0.96679258014E+03  0.12500000000E+03 0.  0.
<mgrwt>
<rscale>  0 0.12500000E+03</rscale>
<asrwt>0</asrwt>
<pdfrwt beam="1">  1       21 0.62422314E-03 0.12500000E+03</pdfrwt>
<pdfrwt beam="2">  1       21 0.14811309E+00 0.12500000E+03</pdfrwt>
<totfact> 0.24467133E+06</totfact>
</mgrwt>
</event>
<event>
 3    1  0.1595726E-001  0.1250000E+03  0.7546771E-02  0.1235069E+00
         21   -1    0    0  502  501  0.00000000000E+00  0.00000000000E+00  0.51134793043E+02  0.51134793043E+02  0.00000000000E+00 0. -1.
         21   -1    0    0  501  502 -0.00000000000E+00 -0.00000000000E+00 -0.76391235155E+02  0.76391235155E+02  0.00000000000E+00 0. -1.
         25    1    1    2    0    0  0.00000000000E+00  0.00000000000E+00 -0.25256442112E+02  0.12752602820E+03  0.12500000000E+03 0.  0.
<mgrwt>
<rscale>  0 0.12500000E+03</rscale>
<asrwt>0</asrwt>
<pdfrwt beam="1">  1       21 0.78668912E-02 0.12500000E+03</pdfrwt>
<pdfrwt beam="2">  1       21 0.11752498E-01 0.12500000E+03</pdfrwt>
<totfact> 0.73697690E+06</totfact>
</mgrwt>
</event>
<event>
 3    1  0.1595726E-001  0.1250000E+03  0.7546771E-02  0.1235069E+00
         21   -1    0    0  502  501  0.00000000000E+00  0.00000000000E+00  0.32715979578E+02  0.32715979578E+02  0.00000000000E+00 0.  1.
         21   -1    0    0  501  502 -0.00000000000E+00 -0.00000000000E+00 -0.11939883966E+03  0.11939883966E+03  0.00000000000E+00 0.  1.
         25    1    1    2    0    0  0.00000000000E+00  0.00000000000E+00 -0.86682860084E+02  0.15211481924E+03  0.12500000000E+03 0.  0.
<mgrwt>
<rscale>  0 0.12500000E+03</rscale>
<asrwt>0</asrwt>
<pdfrwt beam="1">  1       21 0.50332276E-02 0.12500000E+03</pdfrwt>
<pdfrwt beam="2">  1       21 0.18369052E-01 0.12500000E+03</pdfrwt>
<totfact> 0.70494541E+06</totfact>
</mgrwt>
</event>
<event>
 3    1  0.1595726E-001  0.1250000E+03  0.7546771E-02  0.1235069E+00
         21   -1    0    0  502  501  0.00000000000E+00  0.00000000000E+00  0.14531881933E+03  0.14531881933E+03  0.00000000000E+00 0.  1.
         21   -1    0    0  501  502 -0.00000000000E+00 -0.00000000000E+00 -0.26880551452E+02  0.26880551452E+02  0.00000000000E+00 0.  1.
         25    1    1    2    0    0  0.00000000000E+00  0.00000000000E+00  0.11843826788E+03  0.17219937078E+03  0.12500000000E+03 0.  0.
<mgrwt>
<rscale>  0 0.12500000E+03</rscale>
<asrwt>0</asrwt>
<pdfrwt beam="1">  1       21 0.22356741E-01 0.12500000E+03</pdfrwt>
<pdfrwt beam="2">  1       21 0.41354695E-02 0.12500000E+03</pdfrwt>
<totfact> 0.68057865E+06</totfact>
</mgrwt>
</event>
<event>
 3    1  0.1595726E-001  0.1250000E+03  0.7546771E-02  0.1235069E+00
         21   -1    0    0  502  501  0.00000000000E+00  0.00000000000E+00  0.13227198854E+03  0.13227198854E+03  0.00000000000E+00 0.  1.
         21   -1    0    0  501  502 -0.00000000000E+00 -0.00000000000E+00 -0.29531951875E+02  0.29531951875E+02  0.00000000000E+00 0.  1.
         25    1    1    2    0    0  0.00000000000E+00  0.00000000000E+00  0.10274003666E+03  0.16180394042E+03  0.12500000000E+03 0.  0.
<mgrwt>
<rscale>  0 0.12500000E+03</rscale>
<asrwt>0</asrwt>
<pdfrwt beam="1">  1       21 0.20349536E-01 0.12500000E+03</pdfrwt>
<pdfrwt beam="2">  1       21 0.45433773E-02 0.12500000E+03</pdfrwt>
<totfact> 0.69299743E+06</totfact>
</mgrwt>
</event>
<event>
 3    1  0.1595726E-001  0.1250000E+03  0.7546771E-02  0.1235069E+00
         21   -1    0    0  502  501  0.00000000000E+00  0.00000000000E+00  0.12029462598E+03  0.12029462598E+03  0.00000000000E+00 0. -1.
         21   -1    0    0  501  502 -0.00000000000E+00 -0.00000000000E+00 -0.32472356669E+02  0.32472356669E+02  0.00000000000E+00 0. -1.
         25    1    1    2    0    0  0.00000000000E+00  0.00000000000E+00  0.87822269307E+02  0.15276698264E+03  0.12500000000E+03 0.  0.
<mgrwt>
<rscale>  0 0.12500000E+03</rscale>
<asrwt>0</asrwt>
<pdfrwt beam="1">  1       21 0.18506865E-01 0.12500000E+03</pdfrwt>
<pdfrwt beam="2">  1       21 0.49957472E-02 0.12500000E+03</pdfrwt>
<totfact> 0.70413324E+06</totfact>
</mgrwt>
</event>
<event>
 3    1  0.1595726E-001  0.1250000E+03  0.7546771E-02  0.1235069E+00
         21   -1    0    0  502  501  0.00000000000E+00  0.00000000000E+00  0.10248452025E+03  0.10248452025E+03  0.00000000000E+00 0.  1.
         21   -1    0    0  501  502 -0.00000000000E+00 -0.00000000000E+00 -0.38115512377E+02  0.38115512377E+02  0.00000000000E+00 0.  1.
         25    1    1    2    0    0  0.00000000000E+00  0.00000000000E+00  0.64369007872E+02  0.14060003263E+03  0.12500000000E+03 0.  0.
<mgrwt>
<rscale>  0 0.12500000E+03</rscale>
<asrwt>0</asrwt>
<pdfrwt beam="1">  1       21 0.15766849E-01 0.12500000E+03</pdfrwt>
<pdfrwt beam="2">  1       21 0.58639250E-02 0.12500000E+03</pdfrwt>
<totfact> 0.71961072E+06</totfact>
</mgrwt>
</event>
<event>
 3    1  0.1595726E-001  0.1250000E+03  0.7546771E-02  0.1235069E+00
         21   -1    0    0  502  501  0.00000000000E+00  0.00000000000E+00  0.77950667049E+03  0.77950667049E+03  0.00000000000E+00 0. -1.
         21   -1    0    0  501  502 -0.00000000000E+00 -0.00000000000E+00 -0.50111822616E+01  0.50111822616E+01  0.00000000000E+00 0. -1.
         25    1    1    2    0    0  0.00000000000E+00  0.00000000000E+00  0.77449548823E+03  0.78451785276E+03  0.12500000000E+03 0.  0.
<mgrwt>
<rscale>  0 0.12500000E+03</rscale>
<asrwt>0</asrwt>
<pdfrwt beam="1">  1       21 0.11992401E+00 0.12500000E+03</pdfrwt>
<pdfrwt beam="2">  1       21 0.77095174E-03 0.12500000E+03</pdfrwt>
<totfact> 0.29882256E+06</totfact>
</mgrwt>
</event>
<event>
 3    1  0.1595726E-001  0.1250000E+03  0.7546771E-02  0.1235069E+00
         21   -1    0    0  502  501  0.00000000000E+00  0.00000000000E+00  0.43073726923E+03  0.43073726923E+03  0.00000000000E+00 0. -1.
         21   -1    0    0  501  502 -0.00000000000E+00 -0.00000000000E+00 -0.90687532262E+01  0.90687532262E+01  0.00000000000E+00 0. -1.
         25    1    1    2    0    0  0.00000000000E+00  0.00000000000E+00  0.42166851601E+03  0.43980602246E+03  0.12500000000E+03 0.  0.
<mgrwt>
<rscale>  0 0.12500000E+03</rscale>
<asrwt>0</asrwt>
<pdfrwt beam="1">  1       21 0.66267256E-01 0.12500000E+03</pdfrwt>
<pdfrwt beam="2">  1       21 0.13951931E-02 0.12500000E+03</pdfrwt>
<totfact> 0.45508470E+06</totfact>
</mgrwt>
</event>
<event>
 3    1  0.1595726E-001  0.1250000E+03  0.7546771E-02  0.1235069E+00
         21   -1    0    0  502  501  0.00000000000E+00  0.00000000000E+00  0.79950928328E+02  0.79950928328E+02  0.00000000000E+00 0.  1.
         21   -1    0    0  501  502 -0.00000000000E+00 -0.00000000000E+00 -0.48858094355E+02  0.48858094355E+02  0.00000000000E+00 0.  1.
         25    1    1    2    0    0  0.00000000000E+00  0.00000000000E+00  0.31092833973E+02  0.12880902268E+03  0.12500000000E+03 0.  0.
<mgrwt>
<rscale>  0 0.12500000E+03</rscale>
<asrwt>0</asrwt>
<pdfrwt beam="1">  1       21 0.12300143E-01 0.12500000E+03</pdfrwt>
<pdfrwt beam="2">  1       21 0.75166299E-02 0.12500000E+03</pdfrwt>
<totfact> 0.73524542E+06</totfact>
</mgrwt>
</event>
<event>
 3    1  0.1595726E-001  0.1250000E+03  0.7546771E-02  0.1235069E+00
         21   -1    0    0  502  501  0.00000000000E+00  0.00000000000E+00  0.75844069964E+01  0.75844069964E+01  0.00000000000E+00 0. -1.
         21   -1    0    0  501  502 -0.00000000000E+00 -0.00000000000E+00 -0.51503697018E+03  0.51503697018E+03  0.00000000000E+00 0. -1.
         25    1    1    2    0    0  0.00000000000E+00  0.00000000000E+00 -0.50745256318E+03  0.52262137717E+03  0.12500000000E+03 0.  0.
<mgrwt>
<rscale>  0 0.12500000E+03</rscale>
<asrwt>0</asrwt>
<pdfrwt beam="1">  1       21 0.11668314E-02 0.12500000E+03</pdfrwt>
<pdfrwt beam="2">  1       21 0.79236488E-01 0.12500000E+03</pdfrwt>
<totfact> 0.40843237E+06</totfact>
</mgrwt>
</event>
<event>
 3    1  0.1595726E-001  0.1250000E+03  0.7546771E-02  0.1235069E+00
         21   -1    0    0  502  501  0.00000000000E+00  0.00000000000E+00  0.26270650355E+02  0.26270650355E+02  0.00000000000E+00 0. -1.
         21   -1    0    0  501  502 -0.00000000000E+00 -0.00000000000E+00 -0.14869255033E+03  0.14869255033E+03  0.00000000000E+00 0. -1.
         25    1    1    2    0    0  0.00000000000E+00  0.00000000000E+00 -0.12242189997E+03  0.17496320068E+03  0.12500000000E+03 0.  0.
<mgrwt>
<rscale>  0 0.12500000E+03</rscale>
<asrwt>0</asrwt>
<pdfrwt beam="1">  1       21 0.40416386E-02 0.12500000E+03</pdfrwt>
<pdfrwt beam="2">  1       21 0.22875777E-01 0.12500000E+03</pdfrwt>
<totfact> 0.67734093E+06</totfact>
</mgrwt>
</event>
<event>
 3    1  0.1595726E-001  0.1250000E+03  0.7546771E-02  0.1235069E+00
         21   -1    0    0  502  501  0.00000000000E+00  0.00000000000E+00  0.79345364755E+01  0.79345364755E+01  0.00000000000E+00 0. -1.
         21   -1    0    0  501  502 -0.00000000000E+00 -0.00000000000E+00 -0.49230979176E+03  0.49230979176E+03  0.00000000000E+00 0. -1.
         25    1    1    2    0    0  0.00000000000E+00  0.00000000000E+00 -0.48437525529E+03  0.50024432824E+03  0.12500000000E+03 0.  0.
<mgrwt>
<rscale>  0 0.12500000E+03</rscale>
<asrwt>0</asrwt>
<pdfrwt beam="1">  1       21 0.12206975E-02 0.12500000E+03</pdfrwt>
<pdfrwt beam="2">  1       21 0.75739994E-01 0.12500000E+03</pdfrwt>
<totfact> 0.42030814E+06</totfact>
</mgrwt>
</event>
<event>
 3    1  0.1595726E-001  0.1250000E+03  0.7546771E-02  0.1235069E+00
         21   -1    0    0  502  501  0.00000000000E+00  0.00000000000E+00  0.27124221418E+01  0.27124221418E+01  0.00000000000E+00 0.  1.
         21   -1    0    0  501  502 -0.00000000000E+00 -0.00000000000E+00 -0.14401335027E+04  0.14401335027E+04  0.00000000000E+00 0.  1.
         25    1    1    2    0    0  0.00000000000E+00  0.00000000000E+00 -0.14374210806E+04  0.14428459249E+04  0.12500000000E+03 0.  0.
<mgrwt>
<rscale>  0 0.12500000E+03</rscale>
<asrwt>0</asrwt>
<pdfrwt beam="1">  1       21 0.41729536E-03 0.12500000E+03</pdfrwt>
<pdfrwt beam="2">  1       21 0.22155919E+00 0.12500000E+03</pdfrwt>
<totfact> 0.14861909E+06</totfact>
</mgrwt>
</event>
<event>
 3    1  0.1595726E-001  0.1250000E+03  0.7546771E-02  0.1235069E+00
         21   -1    0    0  502  501  0.00000000000E+00  0.00000000000E+00  0.95362121887E+02  0.95362121887E+02  0.00000000000E+00 0.  1.
         21   -1    0    0  501  502 -0.00000000000E+00 -0.00000000000E+00 -0.40962280649E+02  0.40962280649E+02  0.00000000000E+00 0.  1.
         25    1    1    2    0    0  0.00000000000E+00  0.00000000000E+00  0.54399841238E+02  0.13632440254E+03  0.12500000000E+03 0.  0.
<mgrwt>
<rscale>  0 0.12500000E+03</rscale>
<asrwt>0</asrwt>
<pdfrwt beam="1">  1       21 0.14671096E-01 0.12500000E+03</pdfrwt>
<pdfrwt beam="2">  1       21 0.63018894E-02 0.12500000E+03</pdfrwt>
<totfact> 0.72521584E+06</totfact>
</mgrwt>
</event>
<event>
 3    1  0.1595726E-001  0.1250000E+03  0.7546771E-02  0.1235069E+00
         21   -1    0    0  502  501  0.00000000000E+00  0.00000000000E+00  0.65035942489E+02  0.65035942489E+02  0.00000000000E+00 0. -1.
         21   -1    0    0  501  502 -0.00000000000E+00 -0.00000000000E+00 -0.60062941360E+02  0.60062941360E+02  0.00000000000E+00 0. -1.
         25    1    1    2    0    0  0.00000000000E+00  0.00000000000E+00  0.49730011285E+01  0.12509888385E+03  0.12500000000E+03 0.  0.
<mgrwt>
<rscale>  0 0.12500000E+03</rscale>
<asrwt>0</asrwt>
<pdfrwt beam="1">  1       21 0.10005530E-01 0.12500000E+03</pdfrwt>
<pdfrwt beam="2">  1       21 0.92404525E-02 0.12500000E+03</pdfrwt>
<totfact> 0.74030226E+06</totfact>
</mgrwt>
</event>
<event>
 3    1  0.1595726E-001  0.1250000E+03  0.7546771E-02  0.1235069E+00
         21   -1    0    0  502  501  0.00000000000E+00  0.00000000000E+00  0.62365146582E+03  0.62365146582E+03  0.00000000000E+00 0. -1.
         21   -1    0    0  501  502 -0.00000000000E+00 -0.00000000000E+00 -0.62635145014E+01  0.62635145014E+01  0.00000000000E+00 0. -1.
         25    1    1    2    0    0  0.00000000000E+00  0.00000000000E+00  0.61738795132E+03  0.62991498032E+03  0.12500000000E+03 0.  0.
<mgrwt>
<rscale>  0 0.12500000E+03</rscale>
<asrwt>0</asrwt>
<pdfrwt beam="1">  1       21 0.95946330E-01 0.12500000E+03</pdfrwt>
<pdfrwt beam="2">  1       21 0.96361811E-03 0.12500000E+03</pdfrwt>
<totfact> 0.35773794E+06</totfact>
</mgrwt>
</event>
<event>
 3    1  0.1595726E-001  0.1250000E+03  0.7546771E-02  0.1235069E+00
         21   -1    0    0  502  501  0.00000000000E+00  0.00000000000E+00  0.29203574333E+02  0.29203574333E+02  0.00000000000E+00 0.  1.
         21   -1    0    0  501  502 -0.00000000000E+00 -0.00000000000E+00 -0.13375931164E+03  0.13375931164E+03  0.00000000000E+00 0.  1.
         25    1    1    2    0    0  0.00000000000E+00  0.00000000000E+00 -0.10455573730E+03  0.16296288597E+03  0.12500000000E+03 0.  0.
<mgrwt>
<rscale>  0 0.12500000E+03</rscale>
<asrwt>0</asrwt>
<pdfrwt beam="1">  1       21 0.44928576E-02 0.12500000E+03</pdfrwt>
<pdfrwt beam="2">  1       21 0.20578356E-01 0.12500000E+03</pdfrwt>
<totfact> 0.69159263E+06</totfact>
</mgrwt>
</event>
<event>
 3    1  0.1595726E-001  0.1250000E+03  0.7546771E-02  0.1235069E+00
         21   -1    0    0  502  501  0.00000000000E+00  0.00000000000E+00  0.34956026381E+02  0.34956026381E+02  0.00000000000E+00 0. -1.
         21   -1    0    0  501  502 -0.00000000000E+00 -0.00000000000E+00 -0.11174754125E+03  0.11174754125E+03  0.00000000000E+00 0. -1.
         25    1    1    2    0    0  0.00000000000E+00  0.00000000000E+00 -0.76791514870E+02  0.14670356763E+03  0.12500000000E+03 0.  0.
<mgrwt>
<rscale>  0 0.12500000E+03</rscale>
<asrwt>0</asrwt>
<pdfrwt beam="1">  1       21 0.53778502E-02 0.12500000E+03</pdfrwt>
<pdfrwt beam="2">  1       21 0.17191929E-01 0.12500000E+03</pdfrwt>
<totfact> 0.71175792E+06</totfact>
</mgrwt>
</event>
<event>
 3    1  0.1595726E-001  0.1250000E+03  0.7546771E-02  0.1235069E+00
         21   -1    0    0  502  501  0.00000000000E+00  0.00000000000E+00  0.46902043565E+02  0.46902043565E+02  0.00000000000E+00 0. -1.
         21   -1    0    0  501  502 -0.00000000000E+00 -0.00000000000E+00 -0.83285283606E+02  0.83285283606E+02  0.00000000000E+00 0. -1.
         25    1    1    2    0    0  0.00000000000E+00  0.00000000000E+00 -0.36383240040E+02  0.13018732717E+03  0.12500000000E+03 0.  0.
<mgrwt>
<rscale>  0 0.12500000E+03</rscale>
<asrwt>0</asrwt>
<pdfrwt beam="1">  1       21 0.72156990E-02 0.12500000E+03</pdfrwt>
<pdfrwt beam="2">  1       21 0.12813121E-01 0.12500000E+03</pdfrwt>
<totfact> 0.73339889E+06</totfact>
</mgrwt>
</event>
<event>
 3    1  0.1595726E-001  0.1250000E+03  0.7546771E-02  0.1235069E+00
         21   -1    0    0  502  501  0.00000000000E+00  0.00000000000E+00  0.33368021521E+02  0.33368021521E+02  0.00000000000E+00 0. -1.
         21   -1    0    0  501  502 -0.00000000000E+00 -0.00000000000E+00 -0.11706567612E+03  0.11706567612E+03  0.00000000000E+00 0. -1.
         25    1    1    2    0    0  0.00000000000E+00  0.00000000000E+00 -0.83697654596E+02  0.15043369764E+03  0.12500000000E+03 0.  0.
<mgrwt>
<rscale>  0 0.12500000E+03</rscale>
<asrwt>0</asrwt>
<pdfrwt beam="1">  1       21 0.51335417E-02 0.12500000E+03</pdfrwt>
<pdfrwt beam="2">  1       21 0.18010104E-01 0.12500000E+03</pdfrwt>
<totfact> 0.70704763E+06</totfact>
</mgrwt>
</event>
<event>
 3    1  0.1595726E-001  0.1250000E+03  0.7546771E-02  0.1235069E+00
         21   -1    0    0  502  501  0.00000000000E+00  0.00000000000E+00  0.83784977710E+03  0.83784977710E+03  0.00000000000E+00 0.  1.
         21   -1    0    0  501  502 -0.00000000000E+00 -0.00000000000E+00 -0.46622319499E+01  0.46622319499E+01  0.00000000000E+00 0.  1.
         25    1    1    2    0    0  0.00000000000E+00  0.00000000000E+00  0.83318754515E+03  0.84251200905E+03  0.12500000000E+03 0.  0.
<mgrwt>
<rscale>  0 0.12500000E+03</rscale>
<asrwt>0</asrwt>
<pdfrwt beam="1">  1       21 0.12889985E+00 0.12500000E+03</pdfrwt>
<pdfrwt beam="2">  1       21 0.71726712E-03 0.12500000E+03</pdfrwt>
<totfact> 0.28001880E+06</totfact>
</mgrwt>
</event>
<event>
 3    1  0.1595726E-001  0.1250000E+03  0.7546771E-02  0.1235069E+00
         21   -1    0    0  502  501  0.00000000000E+00  0.00000000000E+00  0.32410194859E+01  0.32410194859E+01  0.00000000000E+00 0.  1.
         21   -1    0    0  501  502 -0.00000000000E+00 -0.00000000000E+00 -0.12052534756E+04  0.12052534756E+04  0.00000000000E+00 0.  1.
         25    1    1    2    0    0  0.00000000000E+00  0.00000000000E+00 -0.12020124561E+04  0.12084944951E+04  0.12500000000E+03 0.  0.
<mgrwt>
<rscale>  0 0.12500000E+03</rscale>
<asrwt>0</asrwt>
<pdfrwt beam="1">  1       21 0.49861857E-03 0.12500000E+03</pdfrwt>
<pdfrwt beam="2">  1       21 0.18542354E+00 0.12500000E+03</pdfrwt>
<totfact> 0.18974913E+06</totfact>
</mgrwt>
</event>
<event>
 3    1  0.1595726E-001  0.1250000E+03  0.7546771E-02  0.1235069E+00
         21   -1    0    0  502  501  0.00000000000E+00  0.00000000000E+00  0.10699635203E+02  0.10699635203E+02  0.00000000000E+00 0.  1.
         21   -1    0    0  501  502 -0.00000000000E+00 -0.00000000000E+00 -0.36508254028E+03  0.36508254028E+03  0.00000000000E+00 0.  1.
         25    1    1    2    0    0  0.00000000000E+00  0.00000000000E+00 -0.35438290508E+03  0.37578217548E+03  0.12500000000E+03 0.  0.
<mgrwt>
<rscale>  0 0.12500000E+03</rscale>
<asrwt>0</asrwt>
<pdfrwt beam="1">  1       21 0.16460974E-02 0.12500000E+03</pdfrwt>
<pdfrwt beam="2">  1       21 0.56166555E-01 0.12500000E+03</pdfrwt>
<totfact> 0.49688905E+06</totfact>
</mgrwt>
</event>
<event>
 3    1  0.1595726E-001  0.1250000E+03  0.7546771E-02  0.1235069E+00
         21   -1    0    0  502  501  0.00000000000E+00  0.00000000000E+00  0.69552183179E+02  0.69552183179E+02  0.00000000000E+00 0.  1.
         21   -1    0    0  501  502 -0.00000000000E+00 -0.00000000000E+00 -0.56162866807E+02  0.56162866807E+02  0.00000000000E+00 0.  1.
         25    1    1    2    0    0  0.00000000000E+00  0.00000000000E+00  0.13389316372E+02  0.12571504999E+03  0.12500000000E+03 0.  0.
<mgrwt>
<rscale>  0 0.12500000E+03</rscale>
<asrwt>0</asrwt>
<pdfrwt beam="1">  1       21 0.10700336E-01 0.12500000E+03</pdfrwt>
<pdfrwt beam="2">  1       21 0.86404411E-02 0.12500000E+03</pdfrwt>
<totfact> 0.73945448E+06</totfact>
</mgrwt>
</event>
<event>
 3    1  0.1595726E-001  0.1250000E+03  0.7546771E-02  0.1235069E+00
         21   -1    0    0  502  501  0.00000000000E+00  0.00000000000E+00  0.15538800330E+02  0.15538800330E+02  0.00000000000E+00 0. -1.
         21   -1    0    0  501  502 -0.00000000000E+00 -0.00000000000E+00 -0.25138684565E+03  0.25138684565E+03  0.00000000000E+00 0. -1.
         25    1    1    2    0    0  0.00000000000E+00  0.00000000000E+00 -0.23584804532E+03  0.26692564598E+03  0.12500000000E+03 0.  0.
<mgrwt>
<rscale>  0 0.12500000E+03</rscale>
<asrwt>0</asrwt>
<pdfrwt beam="1">  1       21 0.23905850E-02 0.12500000E+03</pdfrwt>
<pdfrwt beam="2">  1       21 0.38674894E-01 0.12500000E+03</pdfrwt>
<totfact> 0.58320260E+06</totfact>
</mgrwt>
</event>
<event>
 3    1  0.1595726E-001  0.1250000E+03  0.7546771E-02  0.1235069E+00
         21   -1    0    0  502  501  0.00000000000E+00  0.00000000000E+00  0.93528443509E+02  0.93528443509E+02  0.00000000000E+00 0. -1.
         21   -1    0    0  501  502 -0.00000000000E+00 -0.00000000000E+00 -0.41765369479E+02  0.41765369479E+02  0.00000000000E+00 0. -1.
         25    1    1    2    0    0  0.00000000000E+00  0.00000000000E+00  0.51763074030E+02  0.13529381299E+03  0.12500000000E+03 0.  0.
<mgrwt>
<rscale>  0 0.12500000E+03</rscale>
<asrwt>0</asrwt>
<pdfrwt beam="1">  1       21 0.14388991E-01 0.12500000E+03</pdfrwt>
<pdfrwt beam="2">  1       21 0.64254415E-02 0.12500000E+03</pdfrwt>
<totfact> 0.72657593E+06</totfact>
</mgrwt>
</event>
<event>
 3    1  0.1595726E-001  0.1250000E+03  0.7546771E-02  0.1235069E+00
         21   -1    0    0  502  501  0.00000000000E+00  0.00000000000E+00  0.89402748326E+03  0.89402748326E+03  0.00000000000E+00 0. -1.
         21   -1    0    0  501  502 -0.00000000000E+00 -0.00000000000E+00 -0.43692728391E+01  0.43692728391E+01  0.00000000000E+00 0. -1.
         25    1    1    2    0    0  0.00000000000E+00  0.00000000000E+00  0.88965821042E+03  0.89839675610E+03  0.12500000000E+03 0.  0.
<mgrwt>
<rscale>  0 0.12500000E+03</rscale>
<asrwt>0</asrwt>
<pdfrwt beam="1">  1       21 0.13754254E+00 0.12500000E+03</pdfrwt>
<pdfrwt beam="2">  1       21 0.67219653E-03 0.12500000E+03</pdfrwt>
<totfact> 0.26345289E+06</totfact>
</mgrwt>
</event>
<event>
 3    1  0.1595726E-001  0.1250000E+03  0.7546771E-02  0.1235069E+00
         21   -1    0    0  502  501  0.00000000000E+00  0.00000000000E+00  0.18255959918E+02  0.18255959918E+02  0.00000000000E+00 0. -1.
         21   -1    0    0  501  502 -0.00000000000E+00 -0.00000000000E+00 -0.21397121913E+03  0.21397121913E+03  0.00000000000E+00 0. -1.
         25    1    1    2    0    0  0.00000000000E+00  0.00000000000E+00 -0.19571525921E+03  0.23222717905E+03  0.12500000000E+03 0.  0.
<mgrwt>
<rscale>  0 0.12500000E+03</rscale>
<asrwt>0</asrwt>
<pdfrwt beam="1">  1       21 0.28086094E-02 0.12500000E+03</pdfrwt>
<pdfrwt beam="2">  1       21 0.32918647E-01 0.12500000E+03</pdfrwt>
<totfact> 0.61593033E+06</totfact>
</mgrwt>
</event>
<event>
 3    1  0.1595726E-001  0.1250000E+03  0.7546771E-02  0.1235069E+00
         21   -1    0    0  502  501  0.00000000000E+00  0.00000000000E+00  0.10869413275E+02  0.10869413275E+02  0.00000000000E+00 0.  1.
         21   -1    0    0  501  502 -0.00000000000E+00 -0.00000000000E+00 -0.35938002365E+03  0.35938002365E+03  0.00000000000E+00 0.  1.
         25    1    1    2    0    0  0.00000000000E+00  0.00000000000E+00 -0.34851061038E+03  0.37024943693E+03  0.12500000000E+03 0.  0.
<mgrwt>
<rscale>  0 0.12500000E+03</rscale>
<asrwt>0</asrwt>
<pdfrwt beam="1">  1       21 0.16722174E-02 0.12500000E+03</pdfrwt>
<pdfrwt beam="2">  1       21 0.55289235E-01 0.12500000E+03</pdfrwt>
<totfact> 0.50076847E+06</totfact>
</mgrwt>
</event>
<event>
 3    1  0.1595726E-001  0.1250000E+03  0.7546771E-02  0.1235069E+00
         21   -1    0    0  502  501  0.00000000000E+00  0.00000000000E+00  0.68275168969E+02  0.68275168969E+02  0.00000000000E+00 0.  1.
         21   -1    0    0  501  502 -0.00000000000E+00 -0.00000000000E+00 -0.57213333324E+02  0.57213333324E+02  0.00000000000E+00 0.  1.
         25    1    1    2    0    0  0.00000000000E+00  0.00000000000E+00  0.11061835645E+02  0.12548850229E+03  0.12500000000E+03 0.  0.
<mgrwt>
<rscale>  0 0.12500000E+03</rscale>
<asrwt>0</asrwt>
<pdfrwt beam="1">  1       21 0.10503872E-01 0.12500000E+03</pdfrwt>
<pdfrwt beam="2">  1       21 0.88020513E-02 0.12500000E+03</pdfrwt>
<totfact> 0.73977004E+06</totfact>
</mgrwt>
</event>
<event>
 3    1  0.1595726E-001  0.1250000E+03  0.7546771E-02  0.1235069E+00
         21   -1    0    0  502  501  0.00000000000E+00  0.00000000000E+00  0.52192398564E+01  0.52192398564E+01  0.00000000000E+00 0.  1.
         21   -1    0    0  501  502 -0.00000000000E+00 -0.00000000000E+00 -0.74843274259E+03  0.74843274259E+03  0.00000000000E+00 0.  1.
         25    1    1    2    0    0  0.00000000000E+00  0.00000000000E+00 -0.74321350273E+03  0.75365198245E+03  0.12500000000E+03 0.  0.
<mgrwt>
<rscale>  0 0.12500000E+03</rscale>
<asrwt>0</asrwt>
<pdfrwt beam="1">  1       21 0.80295998E-03 0.12500000E+03</pdfrwt>
<pdfrwt beam="2">  1       21 0.11514350E+00 0.12500000E+03</pdfrwt>
<totfact> 0.30940829E+06</totfact>
</mgrwt>
</event>
<event>
 3    1  0.1595726E-001  0.1250000E+03  0.7546771E-02  0.1235069E+00
         21   -1    0    0  502  501  0.00000000000E+00  0.00000000000E+00  0.79921364146E+02  0.79921364146E+02  0.00000000000E+00 0.  1.
         21   -1    0    0  501  502 -0.00000000000E+00 -0.00000000000E+00 -0.48876167740E+02  0.48876167740E+02  0.00000000000E+00 0.  1.
         25    1    1    2    0    0  0.00000000000E+00  0.00000000000E+00  0.31045196406E+02  0.12879753189E+03  0.12500000000E+03 0.  0.
<mgrwt>
<rscale>  0 0.12500000E+03</rscale>
<asrwt>0</asrwt>
<pdfrwt beam="1">  1       21 0.12295594E-01 0.12500000E+03</pdfrwt>
<pdfrwt beam="2">  1       21 0.75194104E-02 0.12500000E+03</pdfrwt>
<totfact> 0.73526087E+06</totfact>
</mgrwt>
</event>
<event>
 3    1  0.1595726E-001  0.1250000E+03  0.7546771E-02  0.1235069E+00
         21   -1    0    0  502  501  0.00000000000E+00  0.00000000000E+00  0.19918255140E+02  0.19918255140E+02  0.00000000000E+00 0. -1.
         21   -1    0    0  501  502 -0.00000000000E+00 -0.00000000000E+00 -0.19611406585E+03  0.19611406585E+03  0.00000000000E+00 0. -1.
         25    1    1    2    0    0  0.00000000000E+00  0.00000000000E+00 -0.17619581071E+03  0.21603232099E+03  0.12500000000E+03 0.  0.
<mgrwt>
<rscale>  0 0.12500000E+03</rscale>
<asrwt>0</asrwt>
<pdfrwt beam="1">  1       21 0.30643469E-02 0.12500000E+03</pdfrwt>
<pdfrwt beam="2">  1       21 0.30171395E-01 0.12500000E+03</pdfrwt>
<totfact> 0.63230402E+06</totfact>
</mgrwt>
</event>
<event>
 3    1  0.1595726E-001  0.1250000E+03  0.7546771E-02  0.1235069E+00
         21   -1    0    0  502  501  0.00000000000E+00  0.00000000000E+00  0.29484670222E+03  0.29484670222E+03  0.00000000000E+00 0. -1.
         21   -1    0    0  501  502 -0.00000000000E+00 -0.00000000000E+00 -0.13248410006E+02  0.13248410006E+02  0.00000000000E+00 0. -1.
         25    1    1    2    0    0  0.00000000000E+00  0.00000000000E+00  0.28159829222E+03  0.30809511223E+03  0.12500000000E+03 0.  0.
<mgrwt>
<rscale>  0 0.12500000E+03</rscale>
<asrwt>0</asrwt>
<pdfrwt beam="1">  1       21 0.45361026E-01 0.12500000E+03</pdfrwt>
<pdfrwt beam="2">  1       21 0.20382171E-02 0.12500000E+03</pdfrwt>
<totfact> 0.54790079E+06</totfact>
</mgrwt>
</event>
<event>
 3    1  0.1595726E-001  0.1250000E+03  0.7546771E-02  0.1235069E+00
         21   -1    0    0  502  501  0.00000000000E+00  0.00000000000E+00  0.12246142368E+04  0.12246142368E+04  0.00000000000E+00 0.  1.
         21   -1    0    0  501  502 -0.00000000000E+00 -0.00000000000E+00 -0.31897799998E+01  0.31897799998E+01  0.00000000000E+00 0.  1.
         25    1    1    2    0    0  0.00000000000E+00  0.00000000000E+00  0.12214244568E+04  0.12278040168E+04  0.12500000000E+03 0.  0.
<mgrwt>
<rscale>  0 0.12500000E+03</rscale>
<asrwt>0</asrwt>
<pdfrwt beam="1">  1       21 0.18840181E+00 0.12500000E+03</pdfrwt>
<pdfrwt beam="2">  1       21 0.49073636E-03 0.12500000E+03</pdfrwt>
<totfact> 0.18598010E+06</totfact>
</mgrwt>
</event>
<event>
 3    1  0.1595726E-001  0.1250000E+03  0.7546771E-02  0.1235069E+00
         21   -1    0    0  502  501  0.00000000000E+00  0.00000000000E+00  0.48963827914E+02  0.48963827914E+02  0.00000000000E+00 0.  1.
         21   -1    0    0  501  502 -0.00000000000E+00 -0.00000000000E+00 -0.79778280548E+02  0.79778280548E+02  0.00000000000E+00 0.  1.
         25    1    1    2    0    0  0.00000000000E+00  0.00000000000E+00 -0.30814452634E+02  0.12874210846E+03  0.12500000000E+03 0.  0.
<mgrwt>
<rscale>  0 0.12500000E+03</rscale>
<asrwt>0</asrwt>
<pdfrwt beam="1">  1       21 0.75328967E-02 0.12500000E+03</pdfrwt>
<pdfrwt beam="2">  1       21 0.12273581E-01 0.12500000E+03</pdfrwt>
<totfact> 0.73533539E+06</totfact>
</mgrwt>
</event>
<event>
 3    1  0.1595726E-001  0.1250000E+03  0.7546771E-02  0.1235069E+00
         21   -1    0    0  502  501  0.00000000000E+00  0.00000000000E+00  0.13924345193E+04  0.13924345193E+04  0.00000000000E+00 0.  1.
         21   -1    0    0  501  502 -0.00000000000E+00 -0.00000000000E+00 -0.28053383810E+01  0.28053383810E+01  0.00000000000E+00 0.  1.
         25    1    1    2    0    0  0.00000000000E+00  0.00000000000E+00  0.13896291809E+04  0.13952398577E+04  0.12500000000E+03 0.  0.
<mgrwt>
<rscale>  0 0.12500000E+03</rscale>
<asrwt>0</asrwt>
<pdfrwt beam="1">  1       21 0.21422014E+00 0.12500000E+03</pdfrwt>
<pdfrwt beam="2">  1       21 0.43159163E-03 0.12500000E+03</pdfrwt>
<totfact> 0.15622490E+06</totfact>
</mgrwt>
</event>
<event>
 3    1  0.1595726E-001  0.1250000E+03  0.7546771E-02  0.1235069E+00
         21   -1    0    0  502  501  0.00000000000E+00  0.00000000000E+00  0.37882493929E+02  0.37882493929E+02  0.00000000000E+00 0. -1.
         21   -1    0    0  501  502 -0.00000000000E+00 -0.00000000000E+00 -0.10311491127E+03  0.10311491127E+03  0.00000000000E+00 0. -1.
         25    1    1    2    0    0  0.00000000000E+00  0.00000000000E+00 -0.65232417337E+02  0.14099740519E+03  0.12500000000E+03 0.  0.
<mgrwt>
<rscale>  0 0.12500000E+03</rscale>
<asrwt>0</asrwt>
<pdfrwt beam="1">  1       21 0.58280760E-02 0.12500000E+03</pdfrwt>
<pdfrwt beam="2">  1       21 0.15863833E-01 0.12500000E+03</pdfrwt>
<totfact> 0.71909365E+06</totfact>
</mgrwt>
</event>
<event>
 3    1  0.1595726E-001  0.1250000E+03  0.7546771E-02  0.1235069E+00
         21   -1    0    0  502  501  0.00000000000E+00  0.00000000000E+00  0.41565701059E+02  0.41565701059E+02  0.00000000000E+00 0. -1.
         21   -1    0    0  501  502 -0.00000000000E+00 -0.00000000000E+00 -0.93977724434E+02  0.93977724434E+02  0.00000000000E+00 0. -1.
         25    1    1    2    0    0  0.00000000000E+00  0.00000000000E+00 -0.52412023376E+02  0.13554342549E+03  0.12500000000E+03 0.  0.
<mgrwt>
<rscale>  0 0.12500000E+03</rscale>
<asrwt>0</asrwt>
<pdfrwt beam="1">  1       21 0.63947234E-02 0.12500000E+03</pdfrwt>
<pdfrwt beam="2">  1       21 0.14458111E-01 0.12500000E+03</pdfrwt>
<totfact> 0.72624599E+06</totfact>
</mgrwt>
</event>
<event>
 3    1  0.1595726E-001  0.1250000E+03  0.7546771E-02  0.1235069E+00
         21   -1    0    0  502  501  0.00000000000E+00  0.00000000000E+00  0.67865277131E+02  0.67865277131E+02  0.00000000000E+00 0.  1.
         21   -1    0    0  501  502 -0.00000000000E+00 -0.00000000000E+00 -0.57558889688E+02  0.57558889688E+02  0.00000000000E+00 0.  1.
         25    1    1    2    0    0  0.00000000000E+00  0.00000000000E+00  0.10306387443E+02  0.12542416682E+03  0.12500000000E+03 0.  0.
<mgrwt>
<rscale>  0 0.12500000E+03</rscale>
<asrwt>0</asrwt>
<pdfrwt beam="1">  1       21 0.10440812E-01 0.12500000E+03</pdfrwt>
<pdfrwt beam="2">  1       21 0.88552138E-02 0.12500000E+03</pdfrwt>
<totfact> 0.73986018E+06</totfact>
</mgrwt>
</event>
<event>
 3    1  0.1595726E-001  0.1250000E+03  0.7546771E-02  0.1235069E+00
         21   -1    0    0  502  501  0.00000000000E+00  0.00000000000E+00  0.12837026784E+02  0.12837026784E+02  0.00000000000E+00 0.  1.
         21   -1    0    0  501  502 -0.00000000000E+00 -0.00000000000E+00 -0.30429554021E+03  0.30429554021E+03  0.00000000000E+00 0.  1.
         25    1    1    2    0    0  0.00000000000E+00  0.00000000000E+00 -0.29145851343E+03  0.31713256700E+03  0.12500000000E+03 0.  0.
<mgrwt>
<rscale>  0 0.12500000E+03</rscale>
<asrwt>0</asrwt>
<pdfrwt beam="1">  1       21 0.19749272E-02 0.12500000E+03</pdfrwt>
<pdfrwt beam="2">  1       21 0.46814698E-01 0.12500000E+03</pdfrwt>
<totfact> 0.54061357E+06</totfact>
</mgrwt>
</event>
<event>
 3    1  0.1595726E-001  0.1250000E+03  0.7546771E-02  0.1235069E+00
         21   -1    0    0  502  501  0.00000000000E+00  0.00000000000E+00  0.48533167074E+02  0.48533167074E+02  0.00000000000E+00 0. -1.
         21   -1    0    0  501  502 -0.00000000000E+00 -0.00000000000E+00 -0.80486196049E+02  0.80486196049E+02  0.00000000000E+00 0. -1.
         25    1    1    2    0    0  0.00000000000E+00  0.00000000000E+00 -0.31953028975E+02  0.12901936312E+03  0.12500000000E+03 0.  0.
<mgrwt>
<rscale>  0 0.12500000E+03</rscale>
<asrwt>0</asrwt>
<pdfrwt beam="1">  1       21 0.74666412E-02 0.12500000E+03</pdfrwt>
<pdfrwt beam="2">  1       21 0.12382492E-01 0.12500000E+03</pdfrwt>
<totfact> 0.73496280E+06</totfact>
</mgrwt>
</event>
<event>
 3    1  0.1595726E-001  0.1250000E+03  0.7546771E-02  0.1235069E+00
         21   -1    0    0  502  501  0.00000000000E+00  0.00000000000E+00  0.68411514357E+03  0.68411514357E+03  0.00000000000E+00 0.  1.
         21   -1    0    0  501  502 -0.00000000000E+00 -0.00000000000E+00 -0.57099306114E+01  0.57099306114E+01  0.00000000000E+00 0.  1.
         25    1    1    2    0    0  0.00000000000E+00  0.00000000000E+00  0.67840521296E+03  0.68982507418E+03  0.12500000000E+03 0.  0.
<mgrwt>
<rscale>  0 0.12500000E+03</rscale>
<asrwt>0</asrwt>
<pdfrwt beam="1">  1       21 0.10524842E+00 0.12500000E+03</pdfrwt>
<pdfrwt beam="2">  1       21 0.87845140E-03 0.12500000E+03</pdfrwt>
<totfact> 0.33306139E+06</totfact>
</mgrwt>
</event>
<event>
 3    1  0.1595726E-001  0.1250000E+03  0.7546771E-02  0.1235069E+00
         21   -1    0    0  502  501  0.00000000000E+00  0.00000000000E+00  0.12430268070E+03  0.12430268070E+03  0.00000000000E+00 0.  1.
         21   -1    0    0  501  502 -0.00000000000E+00 -0.00000000000E+00 -0.31425307788E+02  0.31425307788E+02  0.00000000000E+00 0.  1.
         25    1    1    2    0    0  0.00000000000E+00  0.00000000000E+00  0.92877372916E+02  0.15572798849E+03  0.12500000000E+03 0.  0.
<mgrwt>
<rscale>  0 0.12500000E+03</rscale>
<asrwt>0</asrwt>
<pdfrwt beam="1">  1       21 0.19123489E-01 0.12500000E+03</pdfrwt>
<pdfrwt beam="2">  1       21 0.48346628E-02 0.12500000E+03</pdfrwt>
<totfact> 0.70045292E+06</totfact>
</mgrwt>
</event>
<event>
 3    1  0.1595726E-001  0.1250000E+03  0.7546771E-02  0.1235069E+00
         21   -1    0    0  502  501  0.00000000000E+00  0.00000000000E+00  0.58705532533E+02  0.58705532533E+02  0.00000000000E+00 0.  1.
         21   -1    0    0  501  502 -0.00000000000E+00 -0.00000000000E+00 -0.66539725158E+02  0.66539725158E+02  0.00000000000E+00 0.  1.
         25    1    1    2    0    0  0.00000000000E+00  0.00000000000E+00 -0.78341926249E+01  0.12524525769E+03  0.12500000000E+03 0.  0.
<mgrwt>
<rscale>  0 0.12500000E+03</rscale>
<asrwt>0</asrwt>
<pdfrwt beam="1">  1       21 0.90316204E-02 0.12500000E+03</pdfrwt>
<pdfrwt beam="2">  1       21 0.10236881E-01 0.12500000E+03</pdfrwt>
<totfact> 0.74010462E+06</totfact>
</mgrwt>
</event>
<event>
 3    1  0.1595726E-001  0.1250000E+03  0.7546771E-02  0.1235069E+00
         21   -1    0    0  502  501  0.00000000000E+00  0.00000000000E+00  0.86486124560E+02  0.86486124560E+02  0.00000000000E+00 0. -1.
         21   -1    0    0  501  502 -0.00000000000E+00 -0.00000000000E+00 -0.45166204635E+02  0.45166204635E+02  0.00000000000E+00 0. -1.
         25    1    1    2    0    0  0.00000000000E+00  0.00000000000E+00  0.41319919925E+02  0.13165232920E+03  0.12500000000E+03 0.  0.
<mgrwt>
<rscale>  0 0.12500000E+03</rscale>
<asrwt>0</asrwt>
<pdfrwt beam="1">  1       21 0.13305558E-01 0.12500000E+03</pdfrwt>
<pdfrwt beam="2">  1       21 0.69486469E-02 0.12500000E+03</pdfrwt>
<totfact> 0.73142900E+06</totfact>
</mgrwt>
</event>
<event>
 3    1  0.1595726E-001  0.1250000E+03  0.7546771E-02  0.1235069E+00
         21   -1    0    0  502  501  0.00000000000E+00  0.00000000000E+00  0.22248381285E+04  0.22248381285E+04  0.00000000000E+00 0. -1.
         21   -1    0    0  501  502 -0.00000000000E+00 -0.00000000000E+00 -0.17557457102E+01  0.17557457102E+01  0.00000000000E+00 0. -1.
         25    1    1    2    0    0  0.00000000000E+00  0.00000000000E+00  0.22230823828E+04  0.22265938742E+04  0.12500000000E+03 0.  0.
<mgrwt>
<rscale>  0 0.12500000E+03</rscale>
<asrwt>0</asrwt>
<pdfrwt beam="1">  1       21 0.34228053E+00 0.12500000E+03</pdfrwt>
<pdfrwt beam="2">  1       21 0.27011651E-03 0.12500000E+03</pdfrwt>
<totfact> 0.59422174E+05</totfact>
</mgrwt>
</event>
<event>
 3    1  0.1595726E-001  0.1250000E+03  0.7546771E-02  0.1235069E+00
         21   -1    0    0  502  501  0.00000000000E+00  0.00000000000E+00  0.12119263834E+02  0.12119263834E+02  0.00000000000E+00 0. -1.
         21   -1    0    0  501  502 -0.00000000000E+00 -0.00000000000E+00 -0.32231743227E+03  0.32231743227E+03  0.00000000000E+00 0. -1.
         25    1    1    2    0    0  0.00000000000E+00  0.00000000000E+00 -0.31019816843E+03  0.33443669610E+03  0.12500000000E+03 0.  0.
<mgrwt>
<rscale>  0 0.12500000E+03</rscale>
<asrwt>0</asrwt>
<pdfrwt beam="1">  1       21 0.18645023E-02 0.12500000E+03</pdfrwt>
<pdfrwt beam="2">  1       21 0.49587292E-01 0.12500000E+03</pdfrwt>
<totfact> 0.52708779E+06</totfact>
</mgrwt>
</event>
<event>
 3    1  0.1595726E-001  0.1250000E+03  0.7546771E-02  0.1235069E+00
         21   -1    0    0  502  501  0.00000000000E+00  0.00000000000E+00  0.44132212888E+03  0.44132212888E+03  0.00000000000E+00 0. -1.
         21   -1    0    0  501  502 -0.00000000000E+00 -0.00000000000E+00 -0.88512443505E+01  0.88512443505E+01  0.00000000000E+00 0. -1.
         25    1    1    2    0    0  0.00000000000E+00  0.00000000000E+00  0.43247088453E+03  0.45017337323E+03  0.12500000000E+03 0.  0.
<mgrwt>
<rscale>  0 0.12500000E+03</rscale>
<asrwt>0</asrwt>
<pdfrwt beam="1">  1       21 0.67895695E-01 0.12500000E+03</pdfrwt>
<pdfrwt beam="2">  1       21 0.13617302E-02 0.12500000E+03</pdfrwt>
<totfact> 0.44881903E+06</totfact>
</mgrwt>
</event>
<event>
 3    1  0.1595726E-001  0.1250000E+03  0.7546771E-02  0.1235069E+00
         21   -1    0    0  502  501  0.00000000000E+00  0.00000000000E+00  0.10224572455E+02  0.10224572455E+02  0.00000000000E+00 0. -1.
         21   -1    0    0  501  502 -0.00000000000E+00 -0.00000000000E+00 -0.38204531459E+03  0.38204531459E+03  0.00000000000E+00 0. -1.
         25    1    1    2    0    0  0.00000000000E+00  0.00000000000E+00 -0.37182074214E+03  0.39226988705E+03  0.12500000000E+03 0.  0.
<mgrwt>
<rscale>  0 0.12500000E+03</rscale>
<asrwt>0</asrwt>
<pdfrwt beam="1">  1       21 0.15730112E-02 0.12500000E+03</pdfrwt>
<pdfrwt beam="2">  1       21 0.58776200E-01 0.12500000E+03</pdfrwt>
<totfact> 0.48558343E+06</totfact>
</mgrwt>
</event>
<event>
 3    1  0.1595726E-001  0.1250000E+03  0.7546771E-02  0.1235069E+00
         21   -1    0    0  502  501  0.00000000000E+00  0.00000000000E+00  0.94879307886E+03  0.94879307886E+03  0.00000000000E+00 0. -1.
         21   -1    0    0  501  502 -0.00000000000E+00 -0.00000000000E+00 -0.41170726126E+01  0.41170726126E+01  0.00000000000E+00 0. -1.
         25    1    1    2    0    0  0.00000000000E+00  0.00000000000E+00  0.94467600625E+03  0.95291015148E+03  0.12500000000E+03 0.  0.
<mgrwt>
<rscale>  0 0.12500000E+03</rscale>
<asrwt>0</asrwt>
<pdfrwt beam="1">  1       21 0.14596799E+00 0.12500000E+03</pdfrwt>
<pdfrwt beam="2">  1       21 0.63339654E-03 0.12500000E+03</pdfrwt>
<totfact> 0.24833679E+06</totfact>
</mgrwt>
</event>
<event>
 3    1  0.1595726E-001  0.1250000E+03  0.7546771E-02  0.1235069E+00
         21   -1    0    0  502  501  0.00000000000E+00  0.00000000000E+00  0.40182509054E+02  0.40182509054E+02  0.00000000000E+00 0.  1.
         21   -1    0    0  501  502 -0.00000000000E+00 -0.00000000000E+00 -0.97212695075E+02  0.97212695075E+02  0.00000000000E+00 0.  1.
         25    1    1    2    0    0  0.00000000000E+00  0.00000000000E+00 -0.57030186021E+02  0.13739520413E+03  0.12500000000E+03 0.  0.
<mgrwt>
<rscale>  0 0.12500000E+03</rscale>
<asrwt>0</asrwt>
<pdfrwt beam="1">  1       21 0.61819246E-02 0.12500000E+03</pdfrwt>
<pdfrwt beam="2">  1       21 0.14955799E-01 0.12500000E+03</pdfrwt>
<totfact> 0.72380857E+06</totfact>
</mgrwt>
</event>
<event>
 3    1  0.1595726E-001  0.1250000E+03  0.7546771E-02  0.1235069E+00
         21   -1    0    0  502  501  0.00000000000E+00  0.00000000000E+00  0.92373626586E+03  0.92373626586E+03  0.00000000000E+00 0.  1.
         21   -1    0    0  501  502 -0.00000000000E+00 -0.00000000000E+00 -0.42287502877E+01  0.42287502877E+01  0.00000000000E+00 0.  1.
         25    1    1    2    0    0  0.00000000000E+00  0.00000000000E+00  0.91950751558E+03  0.92796501615E+03  0.12500000000E+03 0.  0.
<mgrwt>
<rscale>  0 0.12500000E+03</rscale>
<asrwt>0</asrwt>
<pdfrwt beam="1">  1       21 0.14211311E+00 0.12500000E+03</pdfrwt>
<pdfrwt beam="2">  1       21 0.65057770E-03 0.12500000E+03</pdfrwt>
<totfact> 0.25510814E+06</totfact>
</mgrwt>
</event>
<event>
 3    1  0.1595726E-001  0.1250000E+03  0.7546771E-02  0.1235069E+00
         21   -1    0    0  502  501  0.00000000000E+00  0.00000000000E+00  0.80458725469E+01  0.80458725469E+01  0.00000000000E+00 0.  1.
         21   -1    0    0  501  502 -0.00000000000E+00 -0.00000000000E+00 -0.48549737486E+03  0.48549737486E+03  0.00000000000E+00 0.  1.
         25    1    1    2    0    0  0.00000000000E+00  0.00000000000E+00 -0.47745150232E+03  0.49354324741E+03  0.12500000000E+03 0.  0.
<mgrwt>
<rscale>  0 0.12500000E+03</rscale>
<asrwt>0</asrwt>
<pdfrwt beam="1">  1       21 0.12378265E-02 0.12500000E+03</pdfrwt>
<pdfrwt beam="2">  1       21 0.74691909E-01 0.12500000E+03</pdfrwt>
<totfact> 0.42396411E+06</totfact>
</mgrwt>
</event>
<event>
 3    1  0.1595726E-001  0.1250000E+03  0.7546771E-02  0.1235069E+00
         21   -1    0    0  502  501  0.00000000000E+00  0.00000000000E+00  0.18813390130E+02  0.18813390130E+02  0.00000000000E+00 0. -1.
         21   -1    0    0  501  502 -0.00000000000E+00 -0.00000000000E+00 -0.20763137175E+03  0.20763137175E+03  0.00000000000E+00 0. -1.
         25    1    1    2    0    0  0.00000000000E+00  0.00000000000E+00 -0.18881798162E+03  0.22644476188E+03  0.12500000000E+03 0.  0.
<mgrwt>
<rscale>  0 0.12500000E+03</rscale>
<asrwt>0</asrwt>
<pdfrwt beam="1">  1       21 0.28943677E-02 0.12500000E+03</pdfrwt>
<pdfrwt beam="2">  1       21 0.31943288E-01 0.12500000E+03</pdfrwt>
<totfact> 0.62169576E+06</totfact>
</mgrwt>
</event>
<event>
 3    1  0.1595726E-001  0.1250000E+03  0.7546771E-02  0.1235069E+00
         21   -1    0    0  502  501  0.00000000000E+00  0.00000000000E+00  0.40365834653E+02  0.40365834653E+02  0.00000000000E+00 0.  1.
         21   -1    0    0  501  502 -0.00000000000E+00 -0.00000000000E+00 -0.96771193600E+02  0.96771193600E+02  0.00000000000E+00 0.  1.
         25    1    1    2    0    0  0.00000000000E+00  0.00000000000E+00 -0.56405358948E+02  0.13713702825E+03  0.12500000000E+03 0.  0.
<mgrwt>
<rscale>  0 0.12500000E+03</rscale>
<asrwt>0</asrwt>
<pdfrwt beam="1">  1       21 0.62101284E-02 0.12500000E+03</pdfrwt>
<pdfrwt beam="2">  1       21 0.14887876E-01 0.12500000E+03</pdfrwt>
<totfact> 0.72414733E+06</totfact>
</mgrwt>
</event>
<event>
 3    1  0.1595726E-001  0.1250000E+03  0.7546771E-02  0.1235069E+00
         21   -1    0    0  502  501  0.00000000000E+00  0.00000000000E+00  0.58169007520E+01  0.58169007520E+01  0.00000000000E+00 0.  1.
         21   -1    0    0  501  502 -0.00000000000E+00 -0.00000000000E+00 -0.67153457942E+03  0.67153457942E+03  0.00000000000E+00 0.  1.
         25    1    1    2    0    0  0.00000000000E+00  0.00000000000E+00 -0.66571767867E+03  0.67735148017E+03  0.12500000000E+03 0.  0.
<mgrwt>
<rscale>  0 0.12500000E+03</rscale>
<asrwt>0</asrwt>
<pdfrwt beam="1">  1       21 0.89490803E-03 0.12500000E+03</pdfrwt>
<pdfrwt beam="2">  1       21 0.10331299E+00 0.12500000E+03</pdfrwt>
<totfact> 0.33801750E+06</totfact>
</mgrwt>
</event>
<event>
 3    1  0.1595726E-001  0.1250000E+03  0.7546771E-02  0.1235069E+00
         21   -1    0    0  502  501  0.00000000000E+00  0.00000000000E+00  0.55873152504E+02  0.55873152504E+02  0.00000000000E+00 0. -1.
         21   -1    0    0  501  502 -0.00000000000E+00 -0.00000000000E+00 -0.69912826195E+02  0.69912826195E+02  0.00000000000E+00 0. -1.
         25    1    1    2    0    0  0.00000000000E+00  0.00000000000E+00 -0.14039673691E+02  0.12578597870E+03  0.12500000000E+03 0.  0.
<mgrwt>
<rscale>  0 0.12500000E+03</rscale>
<asrwt>0</asrwt>
<pdfrwt beam="1">  1       21 0.85958696E-02 0.12500000E+03</pdfrwt>
<pdfrwt beam="2">  1       21 0.10755819E-01 0.12500000E+03</pdfrwt>
<totfact> 0.73935614E+06</totfact>
</mgrwt>
</event>
<event>
 3    1  0.1595726E-001  0.1250000E+03  0.7546771E-02  0.1235069E+00
         21   -1    0    0  502  501  0.00000000000E+00  0.00000000000E+00  0.28658347451E+03  0.28658347451E+03  0.00000000000E+00 0.  1.
         21   -1    0    0  501  502 -0.00000000000E+00 -0.00000000000E+00 -0.13630409104E+02  0.13630409104E+02  0.00000000000E+00 0.  1.
         25    1    1    2    0    0  0.00000000000E+00  0.00000000000E+00  0.27295306540E+03  0.30021388361E+03  0.12500000000E+03 0.  0.
<mgrwt>
<rscale>  0 0.12500000E+03</rscale>
<asrwt>0</asrwt>
<pdfrwt beam="1">  1       21 0.44089761E-01 0.12500000E+03</pdfrwt>
<pdfrwt beam="2">  1       21 0.20969862E-02 0.12500000E+03</pdfrwt>
<totfact> 0.55438406E+06</totfact>
</mgrwt>
</event>
<event>
 3    1  0.1595726E-001  0.1250000E+03  0.7546771E-02  0.1235069E+00
         21   -1    0    0  502  501  0.00000000000E+00  0.00000000000E+00  0.17967643156E+02  0.17967643156E+02  0.00000000000E+00 0. -1.
         21   -1    0    0  501  502 -0.00000000000E+00 -0.00000000000E+00 -0.21740469611E+03  0.21740469611E+03  0.00000000000E+00 0. -1.
         25    1    1    2    0    0  0.00000000000E+00  0.00000000000E+00 -0.19943705295E+03  0.23537233926E+03  0.12500000000E+03 0.  0.
<mgrwt>
<rscale>  0 0.12500000E+03</rscale>
<asrwt>0</asrwt>
<pdfrwt beam="1">  1       21 0.27642527E-02 0.12500000E+03</pdfrwt>
<pdfrwt beam="2">  1       21 0.33446878E-01 0.12500000E+03</pdfrwt>
<totfact> 0.61283366E+06</totfact>
</mgrwt>
</event>
<event>
 3    1  0.1595726E-001  0.1250000E+03  0.7546771E-02  0.1235069E+00
         21   -1    0    0  502  501  0.00000000000E+00  0.00000000000E+00  0.11195528471E+02  0.11195528471E+02  0.00000000000E+00 0. -1.
         21   -1    0    0  501  502 -0.00000000000E+00 -0.00000000000E+00 -0.34891162219E+03  0.34891162219E+03  0.00000000000E+00 0. -1.
         25    1    1    2    0    0  0.00000000000E+00  0.00000000000E+00 -0.33771609372E+03  0.36010715066E+03  0.12500000000E+03 0.  0.
<mgrwt>
<rscale>  0 0.12500000E+03</rscale>
<asrwt>0</asrwt>
<pdfrwt beam="1">  1       21 0.17223892E-02 0.12500000E+03</pdfrwt>
<pdfrwt beam="2">  1       21 0.53678706E-01 0.12500000E+03</pdfrwt>
<totfact> 0.50800546E+06</totfact>
</mgrwt>
</event>
<event>
 3    1  0.1595726E-001  0.1250000E+03  0.7546771E-02  0.1235069E+00
         21   -1    0    0  502  501  0.00000000000E+00  0.00000000000E+00  0.57304238197E+02  0.57304238197E+02  0.00000000000E+00 0.  1.
         21   -1    0    0  501  502 -0.00000000000E+00 -0.00000000000E+00 -0.68166860304E+02  0.68166860304E+02  0.00000000000E+00 0.  1.
         25    1    1    2    0    0  0.00000000000E+00  0.00000000000E+00 -0.10862622107E+02  0.12547109850E+03  0.12500000000E+03 0.  0.
<mgrwt>
<rscale>  0 0.12500000E+03</rscale>
<asrwt>0</asrwt>
<pdfrwt beam="1">  1       21 0.88160367E-02 0.12500000E+03</pdfrwt>
<pdfrwt beam="2">  1       21 0.10487209E-01 0.12500000E+03</pdfrwt>
<totfact> 0.73979440E+06</totfact>
</mgrwt>
</event>
<event>
 3    1  0.1595726E-001  0.1250000E+03  0.7546771E-02  0.1235069E+00
         21   -1    0    0  502  501  0.00000000000E+00  0.00000000000E+00  0.57942484556E+02  0.57942484556E+02  0.00000000000E+00 0.  1.
         21   -1    0    0  501  502 -0.00000000000E+00 -0.00000000000E+00 -0.67415990701E+02  0.67415990701E+02  0.00000000000E+00 0.  1.
         25    1    1    2    0    0  0.00000000000E+00  0.00000000000E+00 -0.94735061455E+01  0.12535847526E+03  0.12500000000E+03 0.  0.
<mgrwt>
<rscale>  0 0.12500000E+03</rscale>
<asrwt>0</asrwt>
<pdfrwt beam="1">  1       21 0.89142284E-02 0.12500000E+03</pdfrwt>
<pdfrwt beam="2">  1       21 0.10371691E-01 0.12500000E+03</pdfrwt>
<totfact> 0.73995178E+06</totfact>
</mgrwt>
</event>
<event>
 3    1  0.1595726E-001  0.1250000E+03  0.7546771E-02  0.1235069E+00
         21   -1    0    0  502  501  0.00000000000E+00  0.00000000000E+00  0.25652560359E+02  0.25652560359E+02  0.00000000000E+00 0.  1.
         21   -1    0    0  501  502 -0.00000000000E+00 -0.00000000000E+00 -0.15227524837E+03  0.15227524837E+03  0.00000000000E+00 0.  1.
         25    1    1    2    0    0  0.00000000000E+00  0.00000000000E+00 -0.12662268801E+03  0.17792780873E+03  0.12500000000E+03 0.  0.
<mgrwt>
<rscale>  0 0.12500000E+03</rscale>
<asrwt>0</asrwt>
<pdfrwt beam="1">  1       21 0.39465478E-02 0.12500000E+03</pdfrwt>
<pdfrwt beam="2">  1       21 0.23426961E-01 0.12500000E+03</pdfrwt>
<totfact> 0.67390050E+06</totfact>
</mgrwt>
</event>
<event>
 3    1  0.1595726E-001  0.1250000E+03  0.7546771E-02  0.1235069E+00
         21   -1    0    0  502  501  0.00000000000E+00  0.00000000000E+00  0.99440215665E+03  0.99440215665E+03  0.00000000000E+00 0.  1.
         21   -1    0    0  501  502 -0.00000000000E+00 -0.00000000000E+00 -0.39282396703E+01  0.39282396703E+01  0.00000000000E+00 0.  1.
         25    1    1    2    0    0  0.00000000000E+00  0.00000000000E+00  0.99047391698E+03  0.99833039632E+03  0.12500000000E+03 0.  0.
<mgrwt>
<rscale>  0 0.12500000E+03</rscale>
<asrwt>0</asrwt>
<pdfrwt beam="1">  1       21 0.15298475E+00 0.12500000E+03</pdfrwt>
<pdfrwt beam="2">  1       21 0.60434536E-03 0.12500000E+03</pdfrwt>
<totfact> 0.23660472E+06</totfact>
</mgrwt>
</event>
<event>
 3    1  0.1595726E-001  0.1250000E+03  0.7546771E-02  0.1235069E+00
         21   -1    0    0  502  501  0.00000000000E+00  0.00000000000E+00  0.33805027961E+03  0.33805027961E+03  0.00000000000E+00 0. -1.
         21   -1    0    0  501  502 -0.00000000000E+00 -0.00000000000E+00 -0.11555233750E+02  0.11555233750E+02  0.00000000000E+00 0. -1.
         25    1    1    2    0    0  0.00000000000E+00  0.00000000000E+00  0.32649504586E+03  0.34960551336E+03  0.12500000000E+03 0.  0.
<mgrwt>
<rscale>  0 0.12500000E+03</rscale>
<asrwt>0</asrwt>
<pdfrwt beam="1">  1       21 0.52007728E-01 0.12500000E+03</pdfrwt>
<pdfrwt beam="2">  1       21 0.17777285E-02 0.12500000E+03</pdfrwt>
<totfact> 0.51567582E+06</totfact>
</mgrwt>
</event>
<event>
 3    1  0.1595726E-001  0.1250000E+03  0.7546771E-02  0.1235069E+00
         21   -1    0    0  502  501  0.00000000000E+00  0.00000000000E+00  0.25591405691E+03  0.25591405691E+03  0.00000000000E+00 0. -1.
         21   -1    0    0  501  502 -0.00000000000E+00 -0.00000000000E+00 -0.15263913390E+02  0.15263913390E+02  0.00000000000E+00 0. -1.
         25    1    1    2    0    0  0.00000000000E+00  0.00000000000E+00  0.24065014352E+03  0.27117797030E+03  0.12500000000E+03 0.  0.
<mgrwt>
<rscale>  0 0.12500000E+03</rscale>
<asrwt>0</asrwt>
<pdfrwt beam="1">  1       21 0.39371390E-01 0.12500000E+03</pdfrwt>
<pdfrwt beam="2">  1       21 0.23482945E-02 0.12500000E+03</pdfrwt>
<totfact> 0.57939650E+06</totfact>
</mgrwt>
</event>
<event>
 3    1  0.1595726E-001  0.1250000E+03  0.7546771E-02  0.1235069E+00
         21   -1    0    0  502  501  0.00000000000E+00  0.00000000000E+00  0.27945928292E+03  0.27945928292E+03  0.00000000000E+00 0.  1.
         21   -1    0    0  501  502 -0.00000000000E+00 -0.00000000000E+00 -0.13977886006E+02  0.13977886006E+02  0.00000000000E+00 0.  1.
         25    1    1    2    0    0  0.00000000000E+00  0.00000000000E+00  0.26548139691E+03  0.29343716892E+03  0.12500000000E+03 0.  0.
<mgrwt>
<rscale>  0 0.12500000E+03</rscale>
<asrwt>0</asrwt>
<pdfrwt beam="1">  1       21 0.42993732E-01 0.12500000E+03</pdfrwt>
<pdfrwt beam="2">  1       21 0.21504442E-02 0.12500000E+03</pdfrwt>
<totfact> 0.56006020E+06</totfact>
</mgrwt>
</event>
<event>
 3    1  0.1595726E-001  0.1250000E+03  0.7546771E-02  0.1235069E+00
         21   -1    0    0  502  501  0.00000000000E+00  0.00000000000E+00  0.26703411048E+03  0.26703411048E+03  0.00000000000E+00 0. -1.
         21   -1    0    0  501  502 -0.00000000000E+00 -0.00000000000E+00 -0.14628280982E+02  0.14628280982E+02  0.00000000000E+00 0. -1.
         25    1    1    2    0    0  0.00000000000E+00  0.00000000000E+00  0.25240582950E+03  0.28166239147E+03  0.12500000000E+03 0.  0.
<mgrwt>
<rscale>  0 0.12500000E+03</rscale>
<asrwt>0</asrwt>
<pdfrwt beam="1">  1       21 0.41082167E-01 0.12500000E+03</pdfrwt>
<pdfrwt beam="2">  1       21 0.22505050E-02 0.12500000E+03</pdfrwt>
<totfact> 0.57015385E+06</totfact>
</mgrwt>
</event>
<event>
 3    1  0.1595726E-001  0.1250000E+03  0.7546771E-02  0.1235069E+00
         21   -1    0    0  502  501  0.00000000000E+00  0.00000000000E+00  0.58058507393E+01  0.58058507393E+01  0.00000000000E+00 0. -1.
         21   -1    0    0  501  502 -0.00000000000E+00 -0.00000000000E+00 -0.67281268076E+03  0.67281268076E+03  0.00000000000E+00 0. -1.
         25    1    1    2    0    0  0.00000000000E+00  0.00000000000E+00 -0.66700683002E+03  0.67861853150E+03  0.12500000000E+03 0.  0.
<mgrwt>
<rscale>  0 0.12500000E+03</rscale>
<asrwt>0</asrwt>
<pdfrwt beam="1">  1       21 0.89320750E-03 0.12500000E+03</pdfrwt>
<pdfrwt beam="2">  1       21 0.10350968E+00 0.12500000E+03</pdfrwt>
<totfact> 0.33750876E+06</totfact>
</mgrwt>
</event>
<event>
 3    1  0.1595726E-001  0.1250000E+03  0.7546771E-02  0.1235069E+00
         21   -1    0    0  502  501  0.00000000000E+00  0.00000000000E+00  0.58624943084E+03  0.58624943084E+03  0.00000000000E+00 0.  1.
         21   -1    0    0  501  502 -0.00000000000E+00 -0.00000000000E+00 -0.66631194753E+01  0.66631194753E+01  0.00000000000E+00 0.  1.
         25    1    1    2    0    0  0.00000000000E+00  0.00000000000E+00  0.57958631136E+03  0.59291255031E+03  0.12500000000E+03 0.  0.
<mgrwt>
<rscale>  0 0.12500000E+03</rscale>
<asrwt>0</asrwt>
<pdfrwt beam="1">  1       21 0.90192179E-01 0.12500000E+03</pdfrwt>
<pdfrwt beam="2">  1       21 0.10250958E-02 0.12500000E+03</pdfrwt>
<totfact> 0.37415137E+06</totfact>
</mgrwt>
</event>
<event>
 3    1  0.1595726E-001  0.1250000E+03  0.7546771E-02  0.1235069E+00
         21   -1    0    0  502  501  0.00000000000E+00  0.00000000000E+00  0.76484729460E+02  0.76484729460E+02  0.00000000000E+00 0. -1.
         21   -1    0    0  501  502 -0.00000000000E+00 -0.00000000000E+00 -0.51072286293E+02  0.51072286293E+02  0.00000000000E+00 0. -1.
         25    1    1    2    0    0  0.00000000000E+00  0.00000000000E+00  0.25412443167E+02  0.12755701575E+03  0.12500000000E+03 0.  0.
<mgrwt>
<rscale>  0 0.12500000E+03</rscale>
<asrwt>0</asrwt>
<pdfrwt beam="1">  1       21 0.11766881E-01 0.12500000E+03</pdfrwt>
<pdfrwt beam="2">  1       21 0.78572748E-02 0.12500000E+03</pdfrwt>
<totfact> 0.73693491E+06</totfact>
</mgrwt>
</event>
<event>
 3    1  0.1595726E-001  0.1250000E+03  0.7546771E-02  0.1235069E+00
         21   -1    0    0  502  501  0.00000000000E+00  0.00000000000E+00  0.53198041481E+01  0.53198041481E+01  0.00000000000E+00 0. -1.
         21   -1    0    0  501  502 -0.00000000000E+00 -0.00000000000E+00 -0.73428455094E+03  0.73428455094E+03  0.00000000000E+00 0. -1.
         25    1    1    2    0    0  0.00000000000E+00  0.00000000000E+00 -0.72896474679E+03  0.73960435509E+03  0.12500000000E+03 0.  0.
<mgrwt>
<rscale>  0 0.12500000E+03</rscale>
<asrwt>0</asrwt>
<pdfrwt beam="1">  1       21 0.81843167E-03 0.12500000E+03</pdfrwt>
<pdfrwt beam="2">  1       21 0.11296682E+00 0.12500000E+03</pdfrwt>
<totfact> 0.31437921E+06</totfact>
</mgrwt>
</event>
<event>
 3    1  0.1595726E-001  0.1250000E+03  0.7546771E-02  0.1235069E+00
         21   -1    0    0  502  501  0.00000000000E+00  0.00000000000E+00  0.12695295690E+03  0.12695295690E+03  0.00000000000E+00 0. -1.
         21   -1    0    0  501  502 -0.00000000000E+00 -0.00000000000E+00 -0.30769271512E+02  0.30769271512E+02  0.00000000000E+00 0. -1.
         25    1    1    2    0    0  0.00000000000E+00  0.00000000000E+00  0.96183685385E+02  0.15772222841E+03  0.12500000000E+03 0.  0.
<mgrwt>
<rscale>  0 0.12500000E+03</rscale>
<asrwt>0</asrwt>
<pdfrwt beam="1">  1       21 0.19531224E-01 0.12500000E+03</pdfrwt>
<pdfrwt beam="2">  1       21 0.47337342E-02 0.12500000E+03</pdfrwt>
<totfact> 0.69798892E+06</totfact>
</mgrwt>
</event>
<event>
 3    1  0.1595726E-001  0.1250000E+03  0.7546771E-02  0.1235069E+00
         21   -1    0    0  502  501  0.00000000000E+00  0.00000000000E+00  0.16403274546E+03  0.16403274546E+03  0.00000000000E+00 0.  1.
         21   -1    0    0  501  502 -0.00000000000E+00 -0.00000000000E+00 -0.23813842713E+02  0.23813842713E+02  0.00000000000E+00 0.  1.
         25    1    1    2    0    0  0.00000000000E+00  0.00000000000E+00  0.14021890274E+03  0.18784658817E+03  0.12500000000E+03 0.  0.
<mgrwt>
<rscale>  0 0.12500000E+03</rscale>
<asrwt>0</asrwt>
<pdfrwt beam="1">  1       21 0.25235806E-01 0.12500000E+03</pdfrwt>
<pdfrwt beam="2">  1       21 0.36636682E-02 0.12500000E+03</pdfrwt>
<totfact> 0.66262599E+06</totfact>
</mgrwt>
</event>
<event>
 3    1  0.1595726E-001  0.1250000E+03  0.7546771E-02  0.1235069E+00
         21   -1    0    0  502  501  0.00000000000E+00  0.00000000000E+00  0.21271884855E+04  0.21271884855E+04  0.00000000000E+00 0. -1.
         21   -1    0    0  501  502 -0.00000000000E+00 -0.00000000000E+00 -0.18363440883E+01  0.18363440883E+01  0.00000000000E+00 0. -1.
         25    1    1    2    0    0  0.00000000000E+00  0.00000000000E+00  0.21253521414E+04  0.21290248296E+04  0.12500000000E+03 0.  0.
<mgrwt>
<rscale>  0 0.12500000E+03</rscale>
<asrwt>0</asrwt>
<pdfrwt beam="1">  1       21 0.32725780E+00 0.12500000E+03</pdfrwt>
<pdfrwt beam="2">  1       21 0.28251618E-03 0.12500000E+03</pdfrwt>
<totfact> 0.67571518E+05</totfact>
</mgrwt>
</event>
<event>
 3    1  0.1595726E-001  0.1250000E+03  0.7546771E-02  0.1235069E+00
         21   -1    0    0  502  501  0.00000000000E+00  0.00000000000E+00  0.46192830086E+03  0.46192830086E+03  0.00000000000E+00 0.  1.
         21   -1    0    0  501  502 -0.00000000000E+00 -0.00000000000E+00 -0.84563989535E+01  0.84563989535E+01  0.00000000000E+00 0.  1.
         25    1    1    2    0    0  0.00000000000E+00  0.00000000000E+00  0.45347190191E+03  0.47038469982E+03  0.12500000000E+03 0.  0.
<mgrwt>
<rscale>  0 0.12500000E+03</rscale>
<asrwt>0</asrwt>
<pdfrwt beam="1">  1       21 0.71065873E-01 0.12500000E+03</pdfrwt>
<pdfrwt beam="2">  1       21 0.13009848E-02 0.12500000E+03</pdfrwt>
<totfact> 0.43697104E+06</totfact>
</mgrwt>
</event>
<event>
 3    1  0.1595726E-001  0.1250000E+03  0.7546771E-02  0.1235069E+00
         21   -1    0    0  502  501  0.00000000000E+00  0.00000000000E+00  0.17146614723E+02  0.17146614723E+02  0.00000000000E+00 0. -1.
         21   -1    0    0  501  502 -0.00000000000E+00 -0.00000000000E+00 -0.22781464814E+03  0.22781464814E+03  0.00000000000E+00 0. -1.
         25    1    1    2    0    0  0.00000000000E+00  0.00000000000E+00 -0.21066803342E+03  0.24496126287E+03  0.12500000000E+03 0.  0.
<mgrwt>
<rscale>  0 0.12500000E+03</rscale>
<asrwt>0</asrwt>
<pdfrwt beam="1">  1       21 0.26379409E-02 0.12500000E+03</pdfrwt>
<pdfrwt beam="2">  1       21 0.35048405E-01 0.12500000E+03</pdfrwt>
<totfact> 0.60355850E+06</totfact>
</mgrwt>
</event>
<event>
 3    1  0.1595726E-001  0.1250000E+03  0.7546771E-02  0.1235069E+00
         21   -1    0    0  502  501  0.00000000000E+00  0.00000000000E+00  0.12795378195E+04  0.12795378195E+04  0.00000000000E+00 0. -1.
         21   -1    0    0  501  502 -0.00000000000E+00 -0.00000000000E+00 -0.30528601348E+01  0.30528601348E+01  0.00000000000E+00 0. -1.
         25    1    1    2    0    0  0.00000000000E+00  0.00000000000E+00  0.12764849593E+04  0.12825906796E+04  0.12500000000E+03 0.  0.
<mgrwt>
<rscale>  0 0.12500000E+03</rscale>
<asrwt>0</asrwt>
<pdfrwt beam="1">  1       21 0.19685154E+00 0.12500000E+03</pdfrwt>
<pdfrwt beam="2">  1       21 0.46967181E-03 0.12500000E+03</pdfrwt>
<totfact> 0.17567911E+06</totfact>
</mgrwt>
</event>
<event>
 3    1  0.1595726E-001  0.1250000E+03  0.7546771E-02  0.1235069E+00
         21   -1    0    0  502  501  0.00000000000E+00  0.00000000000E+00  0.11345215521E+03  0.11345215521E+03  0.00000000000E+00 0. -1.
         21   -1    0    0  501  502 -0.00000000000E+00 -0.00000000000E+00 -0.34430813523E+02  0.34430813523E+02  0.00000000000E+00 0. -1.
         25    1    1    2    0    0  0.00000000000E+00  0.00000000000E+00  0.79021341692E+02  0.14788296874E+03  0.12500000000E+03 0.  0.
<mgrwt>
<rscale>  0 0.12500000E+03</rscale>
<asrwt>0</asrwt>
<pdfrwt beam="1">  1       21 0.17454178E-01 0.12500000E+03</pdfrwt>
<pdfrwt beam="2">  1       21 0.52970483E-02 0.12500000E+03</pdfrwt>
<totfact> 0.71026162E+06</totfact>
</mgrwt>
</event>
<event>
 3    1  0.1595726E-001  0.1250000E+03  0.7546771E-02  0.1235069E+00
         21   -1    0    0  502  501  0.00000000000E+00  0.00000000000E+00  0.29757450941E+03  0.29757450941E+03  0.00000000000E+00 0.  1.
         21   -1    0    0  501  502 -0.00000000000E+00 -0.00000000000E+00 -0.13126964429E+02  0.13126964429E+02  0.00000000000E+00 0.  1.
         25    1    1    2    0    0  0.00000000000E+00  0.00000000000E+00  0.28444754498E+03  0.31070147384E+03  0.12500000000E+03 0.  0.
<mgrwt>
<rscale>  0 0.12500000E+03</rscale>
<asrwt>0</asrwt>
<pdfrwt beam="1">  1       21 0.45780689E-01 0.12500000E+03</pdfrwt>
<pdfrwt beam="2">  1       21 0.20195332E-02 0.12500000E+03</pdfrwt>
<totfact> 0.54578403E+06</totfact>
</mgrwt>
</event>
<event>
 3    1  0.1595726E-001  0.1250000E+03  0.7546771E-02  0.1235069E+00
         21   -1    0    0  502  501  0.00000000000E+00  0.00000000000E+00  0.27967771078E+02  0.27967771078E+02  0.00000000000E+00 0. -1.
         21   -1    0    0  501  502 -0.00000000000E+00 -0.00000000000E+00 -0.13966969299E+03  0.13966969299E+03  0.00000000000E+00 0. -1.
         25    1    1    2    0    0  0.00000000000E+00  0.00000000000E+00 -0.11170192191E+03  0.16763746407E+03  0.12500000000E+03 0.  0.
<mgrwt>
<rscale>  0 0.12500000E+03</rscale>
<asrwt>0</asrwt>
<pdfrwt beam="1">  1       21 0.43027340E-02 0.12500000E+03</pdfrwt>
<pdfrwt beam="2">  1       21 0.21487645E-01 0.12500000E+03</pdfrwt>
<totfact> 0.68598113E+06</totfact>
</mgrwt>
</event>
<event>
 3    1  0.1595726E-001  0.1250000E+03  0.7546771E-02  0.1235069E+00
         21   -1    0    0  502  501  0.00000000000E+00  0.00000000000E+00  0.13542191201E+04  0.13542191201E+04  0.00000000000E+00 0. -1.
         21   -1    0    0  501  502 -0.00000000000E+00 -0.00000000000E+00 -0.28845036538E+01  0.28845036538E+01  0.00000000000E+00 0. -1.
         25    1    1    2    0    0  0.00000000000E+00  0.00000000000E+00  0.13513346164E+04  0.13571036238E+04  0.12500000000E+03 0.  0.
<mgrwt>
<rscale>  0 0.12500000E+03</rscale>
<asrwt>0</asrwt>
<pdfrwt beam="1">  1       21 0.20834090E+00 0.12500000E+03</pdfrwt>
<pdfrwt beam="2">  1       21 0.44377087E-03 0.12500000E+03</pdfrwt>
<totfact> 0.16257235E+06</totfact>
</mgrwt>
</event>
<event>
 3    1  0.1595726E-001  0.1250000E+03  0.7546771E-02  0.1235069E+00
         21   -1    0    0  502  501  0.00000000000E+00  0.00000000000E+00  0.15809126493E+03  0.15809126493E+03  0.00000000000E+00 0.  1.
         21   -1    0    0  501  502 -0.00000000000E+00 -0.00000000000E+00 -0.24708828801E+02  0.24708828801E+02  0.00000000000E+00 0.  1.
         25    1    1    2    0    0  0.00000000000E+00  0.00000000000E+00  0.13338243613E+03  0.18280009373E+03  0.12500000000E+03 0.  0.
<mgrwt>
<rscale>  0 0.12500000E+03</rscale>
<asrwt>0</asrwt>
<pdfrwt beam="1">  1       21 0.24321732E-01 0.12500000E+03</pdfrwt>
<pdfrwt beam="2">  1       21 0.38013584E-02 0.12500000E+03</pdfrwt>
<totfact> 0.66831762E+06</totfact>
</mgrwt>
</event>
<event>
 3    1  0.1595726E-001  0.1250000E+03  0.7546771E-02  0.1235069E+00
         21   -1    0    0  502  501  0.00000000000E+00  0.00000000000E+00  0.25051197448E+03  0.25051197448E+03  0.00000000000E+00 0.  1.
         21   -1    0    0  501  502 -0.00000000000E+00 -0.00000000000E+00 -0.15593066991E+02  0.15593066991E+02  0.00000000000E+00 0.  1.
         25    1    1    2    0    0  0.00000000000E+00  0.00000000000E+00  0.23491890749E+03  0.26610504147E+03  0.12500000000E+03 0.  0.
<mgrwt>
<rscale>  0 0.12500000E+03</rscale>
<asrwt>0</asrwt>
<pdfrwt beam="1">  1       21 0.38540301E-01 0.12500000E+03</pdfrwt>
<pdfrwt beam="2">  1       21 0.23989336E-02 0.12500000E+03</pdfrwt>
<totfact> 0.58394193E+06</totfact>
</mgrwt>
</event>
<event>
 3    1  0.1595726E-001  0.1250000E+03  0.7546771E-02  0.1235069E+00
         21   -1    0    0  502  501  0.00000000000E+00  0.00000000000E+00  0.27296333474E+03  0.27296333474E+03  0.00000000000E+00 0. -1.
         21   -1    0    0  501  502 -0.00000000000E+00 -0.00000000000E+00 -0.14310530034E+02  0.14310530034E+02  0.00000000000E+00 0. -1.
         25    1    1    2    0    0  0.00000000000E+00  0.00000000000E+00  0.25865280471E+03  0.28727386478E+03  0.12500000000E+03 0.  0.
<mgrwt>
<rscale>  0 0.12500000E+03</rscale>
<asrwt>0</asrwt>
<pdfrwt beam="1">  1       21 0.41994355E-01 0.12500000E+03</pdfrwt>
<pdfrwt beam="2">  1       21 0.22016202E-02 0.12500000E+03</pdfrwt>
<totfact> 0.56530632E+06</totfact>
</mgrwt>
</event>
<event>
 3    1  0.1595726E-001  0.1250000E+03  0.7546771E-02  0.1235069E+00
         21   -1    0    0  502  501  0.00000000000E+00  0.00000000000E+00  0.14327858988E+02  0.14327858988E+02  0.00000000000E+00 0. -1.
         21   -1    0    0  501  502 -0.00000000000E+00 -0.00000000000E+00 -0.27263319686E+03  0.27263319686E+03  0.00000000000E+00 0. -1.
         25    1    1    2    0    0  0.00000000000E+00  0.00000000000E+00 -0.25830533788E+03  0.28696105585E+03  0.12500000000E+03 0.  0.
<mgrwt>
<rscale>  0 0.12500000E+03</rscale>
<asrwt>0</asrwt>
<pdfrwt beam="1">  1       21 0.22042858E-02 0.12500000E+03</pdfrwt>
<pdfrwt beam="2">  1       21 0.41943572E-01 0.12500000E+03</pdfrwt>
<totfact> 0.56557471E+06</totfact>
</mgrwt>
</event>
<event>
 3    1  0.1595726E-001  0.1250000E+03  0.7546771E-02  0.1235069E+00
         21   -1    0    0  502  501  0.00000000000E+00  0.00000000000E+00  0.15117298005E+02  0.15117298005E+02  0.00000000000E+00 0. -1.
         21   -1    0    0  501  502 -0.00000000000E+00 -0.00000000000E+00 -0.25839604398E+03  0.25839604398E+03  0.00000000000E+00 0. -1.
         25    1    1    2    0    0  0.00000000000E+00  0.00000000000E+00 -0.24327874597E+03  0.27351334198E+03  0.12500000000E+03 0.  0.
<mgrwt>
<rscale>  0 0.12500000E+03</rscale>
<asrwt>0</asrwt>
<pdfrwt beam="1">  1       21 0.23257382E-02 0.12500000E+03</pdfrwt>
<pdfrwt beam="2">  1       21 0.39753238E-01 0.12500000E+03</pdfrwt>
<totfact> 0.57731739E+06</totfact>
</mgrwt>
</event>
<event>
 3    1  0.1595726E-001  0.1250000E+03  0.7546771E-02  0.1235069E+00
         21   -1    0    0  502  501  0.00000000000E+00  0.00000000000E+00  0.25294436234E+03  0.25294436234E+03  0.00000000000E+00 0. -1.
         21   -1    0    0  501  502 -0.00000000000E+00 -0.00000000000E+00 -0.15443119443E+02  0.15443119443E+02  0.00000000000E+00 0. -1.
         25    1    1    2    0    0  0.00000000000E+00  0.00000000000E+00  0.23750124289E+03  0.26838748178E+03  0.12500000000E+03 0.  0.
<mgrwt>
<rscale>  0 0.12500000E+03</rscale>
<asrwt>0</asrwt>
<pdfrwt beam="1">  1       21 0.38914514E-01 0.12500000E+03</pdfrwt>
<pdfrwt beam="2">  1       21 0.23758647E-02 0.12500000E+03</pdfrwt>
<totfact> 0.58188941E+06</totfact>
</mgrwt>
</event>
<event>
 3    1  0.1595726E-001  0.1250000E+03  0.7546771E-02  0.1235069E+00
         21   -1    0    0  502  501  0.00000000000E+00  0.00000000000E+00  0.15831398547E+02  0.15831398547E+02  0.00000000000E+00 0. -1.
         21   -1    0    0  501  502 -0.00000000000E+00 -0.00000000000E+00 -0.24674067730E+03  0.24674067730E+03  0.00000000000E+00 0. -1.
         25    1    1    2    0    0  0.00000000000E+00  0.00000000000E+00 -0.23090927875E+03  0.26257207585E+03  0.12500000000E+03 0.  0.
<mgrwt>
<rscale>  0 0.12500000E+03</rscale>
<asrwt>0</asrwt>
<pdfrwt beam="1">  1       21 0.24355996E-02 0.12500000E+03</pdfrwt>
<pdfrwt beam="2">  1       21 0.37960107E-01 0.12500000E+03</pdfrwt>
<totfact> 0.58714324E+06</totfact>
</mgrwt>
</event>
<event>
 3    1  0.1595726E-001  0.1250000E+03  0.7546771E-02  0.1235069E+00
         21   -1    0    0  502  501  0.00000000000E+00  0.00000000000E+00  0.14237257473E+02  0.14237257473E+02  0.00000000000E+00 0. -1.
         21   -1    0    0  501  502 -0.00000000000E+00 -0.00000000000E+00 -0.27436815043E+03  0.27436815043E+03  0.00000000000E+00 0. -1.
         25    1    1    2    0    0  0.00000000000E+00  0.00000000000E+00 -0.26013089296E+03  0.28860540790E+03  0.12500000000E+03 0.  0.
<mgrwt>
<rscale>  0 0.12500000E+03</rscale>
<asrwt>0</asrwt>
<pdfrwt beam="1">  1       21 0.21903472E-02 0.12500000E+03</pdfrwt>
<pdfrwt beam="2">  1       21 0.42210486E-01 0.12500000E+03</pdfrwt>
<totfact> 0.56416604E+06</totfact>
</mgrwt>
</event>
<event>
 3    1  0.1595726E-001  0.1250000E+03  0.7546771E-02  0.1235069E+00
         21   -1    0    0  502  501  0.00000000000E+00  0.00000000000E+00  0.88780974947E+02  0.88780974947E+02  0.00000000000E+00 0.  1.
         21   -1    0    0  501  502 -0.00000000000E+00 -0.00000000000E+00 -0.43998728357E+02  0.43998728357E+02  0.00000000000E+00 0.  1.
         25    1    1    2    0    0  0.00000000000E+00  0.00000000000E+00  0.44782246590E+02  0.13277970330E+03  0.12500000000E+03 0.  0.
<mgrwt>
<rscale>  0 0.12500000E+03</rscale>
<asrwt>0</asrwt>
<pdfrwt beam="1">  1       21 0.13658612E-01 0.12500000E+03</pdfrwt>
<pdfrwt beam="2">  1       21 0.67690351E-02 0.12500000E+03</pdfrwt>
<totfact> 0.72991829E+06</totfact>
</mgrwt>
</event>
<event>
 3    1  0.1595726E-001  0.1250000E+03  0.7546771E-02  0.1235069E+00
         21   -1    0    0  502  501  0.00000000000E+00  0.00000000000E+00  0.47349282608E+03  0.47349282608E+03  0.00000000000E+00 0.  1.
         21   -1    0    0  501  502 -0.00000000000E+00 -0.00000000000E+00 -0.82498610007E+01  0.82498610007E+01  0.00000000000E+00 0.  1.
         25    1    1    2    0    0  0.00000000000E+00  0.00000000000E+00  0.46524296508E+03  0.48174268708E+03  0.12500000000E+03 0.  0.
<mgrwt>
<rscale>  0 0.12500000E+03</rscale>
<asrwt>0</asrwt>
<pdfrwt beam="1">  1       21 0.72845029E-01 0.12500000E+03</pdfrwt>
<pdfrwt beam="2">  1       21 0.12692098E-02 0.12500000E+03</pdfrwt>
<totfact> 0.43051841E+06</totfact>
</mgrwt>
</event>
<event>
 3    1  0.1595726E-001  0.1250000E+03  0.7546771E-02  0.1235069E+00
         21   -1    0    0  502  501  0.00000000000E+00  0.00000000000E+00  0.81534394187E+03  0.81534394187E+03  0.00000000000E+00 0. -1.
         21   -1    0    0  501  502 -0.00000000000E+00 -0.00000000000E+00 -0.47909229460E+01  0.47909229460E+01  0.00000000000E+00 0. -1.
         25    1    1    2    0    0  0.00000000000E+00  0.00000000000E+00  0.81055301893E+03  0.82013486482E+03  0.12500000000E+03 0.  0.
<mgrwt>
<rscale>  0 0.12500000E+03</rscale>
<asrwt>0</asrwt>
<pdfrwt beam="1">  1       21 0.12543742E+00 0.12500000E+03</pdfrwt>
<pdfrwt beam="2">  1       21 0.73706572E-03 0.12500000E+03</pdfrwt>
<totfact> 0.28706500E+06</totfact>
</mgrwt>
</event>
<event>
 3    1  0.1595726E-001  0.1250000E+03  0.7546771E-02  0.1235069E+00
         21   -1    0    0  502  501  0.00000000000E+00  0.00000000000E+00  0.62824142890E+02  0.62824142890E+02  0.00000000000E+00 0.  1.
         21   -1    0    0  501  502 -0.00000000000E+00 -0.00000000000E+00 -0.62177529534E+02  0.62177529534E+02  0.00000000000E+00 0.  1.
         25    1    1    2    0    0  0.00000000000E+00  0.00000000000E+00  0.64661335662E+00  0.12500167242E+03  0.12500000000E+03 0.  0.
<mgrwt>
<rscale>  0 0.12500000E+03</rscale>
<asrwt>0</asrwt>
<pdfrwt beam="1">  1       21 0.96652528E-02 0.12500000E+03</pdfrwt>
<pdfrwt beam="2">  1       21 0.95657737E-02 0.12500000E+03</pdfrwt>
<totfact> 0.74043356E+06</totfact>
</mgrwt>
</event>
<event>
 3    1  0.1595726E-001  0.1250000E+03  0.7546771E-02  0.1235069E+00
         21   -1    0    0  502  501  0.00000000000E+00  0.00000000000E+00  0.90179813190E+01  0.90179813190E+01  0.00000000000E+00 0. -1.
         21   -1    0    0  501  502 -0.00000000000E+00 -0.00000000000E+00 -0.43316235217E+03  0.43316235217E+03  0.00000000000E+00 0. -1.
         25    1    1    2    0    0  0.00000000000E+00  0.00000000000E+00 -0.42414437085E+03  0.44218033349E+03  0.12500000000E+03 0.  0.
<mgrwt>
<rscale>  0 0.12500000E+03</rscale>
<asrwt>0</asrwt>
<pdfrwt beam="1">  1       21 0.13873816E-02 0.12500000E+03</pdfrwt>
<pdfrwt beam="2">  1       21 0.66640368E-01 0.12500000E+03</pdfrwt>
<totfact> 0.45363870E+06</totfact>
</mgrwt>
</event>
<event>
 3    1  0.1595726E-001  0.1250000E+03  0.7546771E-02  0.1235069E+00
         21   -1    0    0  502  501  0.00000000000E+00  0.00000000000E+00  0.88182139585E+02  0.88182139585E+02  0.00000000000E+00 0. -1.
         21   -1    0    0  501  502 -0.00000000000E+00 -0.00000000000E+00 -0.44297518958E+02  0.44297518958E+02  0.00000000000E+00 0. -1.
         25    1    1    2    0    0  0.00000000000E+00  0.00000000000E+00  0.43884620627E+02  0.13247965854E+03  0.12500000000E+03 0.  0.
<mgrwt>
<rscale>  0 0.12500000E+03</rscale>
<asrwt>0</asrwt>
<pdfrwt beam="1">  1       21 0.13566483E-01 0.12500000E+03</pdfrwt>
<pdfrwt beam="2">  1       21 0.68150029E-02 0.12500000E+03</pdfrwt>
<totfact> 0.73031961E+06</totfact>
</mgrwt>
</event>
<event>
 3    1  0.1595726E-001  0.1250000E+03  0.7546771E-02  0.1235069E+00
         21   -1    0    0  502  501  0.00000000000E+00  0.00000000000E+00  0.22445834629E+02  0.22445834629E+02  0.00000000000E+00 0. -1.
         21   -1    0    0  501  502 -0.00000000000E+00 -0.00000000000E+00 -0.17403006235E+03  0.17403006235E+03  0.00000000000E+00 0. -1.
         25    1    1    2    0    0  0.00000000000E+00  0.00000000000E+00 -0.15158422772E+03  0.19647589698E+03  0.12500000000E+03 0.  0.
<mgrwt>
<rscale>  0 0.12500000E+03</rscale>
<asrwt>0</asrwt>
<pdfrwt beam="1">  1       21 0.34532053E-02 0.12500000E+03</pdfrwt>
<pdfrwt beam="2">  1       21 0.26773856E-01 0.12500000E+03</pdfrwt>
<totfact> 0.65309851E+06</totfact>
</mgrwt>
</event>
<event>
 3    1  0.1595726E-001  0.1250000E+03  0.7546771E-02  0.1235069E+00
         21   -1    0    0  502  501  0.00000000000E+00  0.00000000000E+00  0.31484077496E+02  0.31484077496E+02  0.00000000000E+00 0.  1.
         21   -1    0    0  501  502 -0.00000000000E+00 -0.00000000000E+00 -0.12407065128E+03  0.12407065128E+03  0.00000000000E+00 0.  1.
         25    1    1    2    0    0  0.00000000000E+00  0.00000000000E+00 -0.92586573789E+02  0.15555472878E+03  0.12500000000E+03 0.  0.
<mgrwt>
<rscale>  0 0.12500000E+03</rscale>
<asrwt>0</asrwt>
<pdfrwt beam="1">  1       21 0.48437042E-02 0.12500000E+03</pdfrwt>
<pdfrwt beam="2">  1       21 0.19087792E-01 0.12500000E+03</pdfrwt>
<totfact> 0.70066779E+06</totfact>
</mgrwt>
</event>
<event>
 3    1  0.1595726E-001  0.1250000E+03  0.7546771E-02  0.1235069E+00
         21   -1    0    0  502  501  0.00000000000E+00  0.00000000000E+00  0.29291378993E+02  0.29291378993E+02  0.00000000000E+00 0. -1.
         21   -1    0    0  501  502 -0.00000000000E+00 -0.00000000000E+00 -0.13335835096E+03  0.13335835096E+03  0.00000000000E+00 0. -1.
         25    1    1    2    0    0  0.00000000000E+00  0.00000000000E+00 -0.10406697197E+03  0.16264972996E+03  0.12500000000E+03 0.  0.
<mgrwt>
<rscale>  0 0.12500000E+03</rscale>
<asrwt>0</asrwt>
<pdfrwt beam="1">  1       21 0.45063660E-02 0.12500000E+03</pdfrwt>
<pdfrwt beam="2">  1       21 0.20516669E-01 0.12500000E+03</pdfrwt>
<totfact> 0.69197168E+06</totfact>
</mgrwt>
</event>
<event>
 3    1  0.1595726E-001  0.1250000E+03  0.7546771E-02  0.1235069E+00
         21   -1    0    0  502  501  0.00000000000E+00  0.00000000000E+00  0.13068216824E+02  0.13068216824E+02  0.00000000000E+00 0.  1.
         21   -1    0    0  501  502 -0.00000000000E+00 -0.00000000000E+00 -0.29891224278E+03  0.29891224278E+03  0.00000000000E+00 0.  1.
         25    1    1    2    0    0  0.00000000000E+00  0.00000000000E+00 -0.28584402596E+03  0.31198045960E+03  0.12500000000E+03 0.  0.
<mgrwt>
<rscale>  0 0.12500000E+03</rscale>
<asrwt>0</asrwt>
<pdfrwt beam="1">  1       21 0.20104951E-02 0.12500000E+03</pdfrwt>
<pdfrwt beam="2">  1       21 0.45986495E-01 0.12500000E+03</pdfrwt>
<totfact> 0.54475018E+06</totfact>
</mgrwt>
</event>
<event>
 3    1  0.1595726E-001  0.1250000E+03  0.7546771E-02  0.1235069E+00
         21   -1    0    0  502  501  0.00000000000E+00  0.00000000000E+00  0.37555440538E+01  0.37555440538E+01  0.00000000000E+00 0.  1.
         21   -1    0    0  501  502 -0.00000000000E+00 -0.00000000000E+00 -0.10401289252E+04  0.10401289252E+04  0.00000000000E+00 0.  1.
         25    1    1    2    0    0  0.00000000000E+00  0.00000000000E+00 -0.10363733811E+04  0.10438844692E+04  0.12500000000E+03 0.  0.
<mgrwt>
<rscale>  0 0.12500000E+03</rscale>
<asrwt>0</asrwt>
<pdfrwt beam="1">  1       21 0.57777560E-03 0.12500000E+03</pdfrwt>
<pdfrwt beam="2">  1       21 0.16001995E+00 0.12500000E+03</pdfrwt>
<totfact> 0.22544434E+06</totfact>
</mgrwt>
</event>
<event>
 3    1  0.1595726E-001  0.1250000E+03  0.7546771E-02  0.1235069E+00
         21   -1    0    0  502  501  0.00000000000E+00  0.00000000000E+00  0.33116234431E+01  0.33116234431E+01  0.00000000000E+00 0.  1.
         21   -1    0    0  501  502 -0.00000000000E+00 -0.00000000000E+00 -0.11795574186E+04  0.11795574186E+04  0.00000000000E+00 0.  1.
         25    1    1    2    0    0  0.00000000000E+00  0.00000000000E+00 -0.11762457952E+04  0.11828690421E+04  0.12500000000E+03 0.  0.
<mgrwt>
<rscale>  0 0.12500000E+03</rscale>
<asrwt>0</asrwt>
<pdfrwt beam="1">  1       21 0.50948028E-03 0.12500000E+03</pdfrwt>
<pdfrwt beam="2">  1       21 0.18147046E+00 0.12500000E+03</pdfrwt>
<totfact> 0.19488132E+06</totfact>
</mgrwt>
</event>
<event>
 3    1  0.1595726E-001  0.1250000E+03  0.7546771E-02  0.1235069E+00
         21   -1    0    0  502  501  0.00000000000E+00  0.00000000000E+00  0.17129967700E+02  0.17129967700E+02  0.00000000000E+00 0. -1.
         21   -1    0    0  501  502 -0.00000000000E+00 -0.00000000000E+00 -0.22803604003E+03  0.22803604003E+03  0.00000000000E+00 0. -1.
         25    1    1    2    0    0  0.00000000000E+00  0.00000000000E+00 -0.21090607233E+03  0.24516600773E+03  0.12500000000E+03 0.  0.
<mgrwt>
<rscale>  0 0.12500000E+03</rscale>
<asrwt>0</asrwt>
<pdfrwt beam="1">  1       21 0.26353796E-02 0.12500000E+03</pdfrwt>
<pdfrwt beam="2">  1       21 0.35082468E-01 0.12500000E+03</pdfrwt>
<totfact> 0.60336311E+06</totfact>
</mgrwt>
</event>
<event>
 3    1  0.1595726E-001  0.1250000E+03  0.7546771E-02  0.1235069E+00
         21   -1    0    0  502  501  0.00000000000E+00  0.00000000000E+00  0.72062121952E+01  0.72062121952E+01  0.00000000000E+00 0. -1.
         21   -1    0    0  501  502 -0.00000000000E+00 -0.00000000000E+00 -0.54206702415E+03  0.54206702415E+03  0.00000000000E+00 0. -1.
         25    1    1    2    0    0  0.00000000000E+00  0.00000000000E+00 -0.53486081195E+03  0.54927323634E+03  0.12500000000E+03 0.  0.
<mgrwt>
<rscale>  0 0.12500000E+03</rscale>
<asrwt>0</asrwt>
<pdfrwt beam="1">  1       21 0.11086485E-02 0.12500000E+03</pdfrwt>
<pdfrwt beam="2">  1       21 0.83394889E-01 0.12500000E+03</pdfrwt>
<totfact> 0.39492021E+06</totfact>
</mgrwt>
</event>
<event>
 3    1  0.1595726E-001  0.1250000E+03  0.7546771E-02  0.1235069E+00
         21   -1    0    0  502  501  0.00000000000E+00  0.00000000000E+00  0.35268446578E+03  0.35268446578E+03  0.00000000000E+00 0.  1.
         21   -1    0    0  501  502 -0.00000000000E+00 -0.00000000000E+00 -0.11075764257E+02  0.11075764257E+02  0.00000000000E+00 0.  1.
         25    1    1    2    0    0  0.00000000000E+00  0.00000000000E+00  0.34160870152E+03  0.36376023003E+03  0.12500000000E+03 0.  0.
<mgrwt>
<rscale>  0 0.12500000E+03</rscale>
<asrwt>0</asrwt>
<pdfrwt beam="1">  1       21 0.54259140E-01 0.12500000E+03</pdfrwt>
<pdfrwt beam="2">  1       21 0.17039640E-02 0.12500000E+03</pdfrwt>
<totfact> 0.50537984E+06</totfact>
</mgrwt>
</event>
<event>
 3    1  0.1595726E-001  0.1250000E+03  0.7546771E-02  0.1235069E+00
         21   -1    0    0  502  501  0.00000000000E+00  0.00000000000E+00  0.66316376727E+02  0.66316376727E+02  0.00000000000E+00 0. -1.
         21   -1    0    0  501  502 -0.00000000000E+00 -0.00000000000E+00 -0.58903248229E+02  0.58903248229E+02  0.00000000000E+00 0. -1.
         25    1    1    2    0    0  0.00000000000E+00  0.00000000000E+00  0.74131284984E+01  0.12521962496E+03  0.12500000000E+03 0.  0.
<mgrwt>
<rscale>  0 0.12500000E+03</rscale>
<asrwt>0</asrwt>
<pdfrwt beam="1">  1       21 0.10202520E-01 0.12500000E+03</pdfrwt>
<pdfrwt beam="2">  1       21 0.90620381E-02 0.12500000E+03</pdfrwt>
<totfact> 0.74013922E+06</totfact>
</mgrwt>
</event>
<event>
 3    1  0.1595726E-001  0.1250000E+03  0.7546771E-02  0.1235069E+00
         21   -1    0    0  502  501  0.00000000000E+00  0.00000000000E+00  0.25376392488E+02  0.25376392488E+02  0.00000000000E+00 0.  1.
         21   -1    0    0  501  502 -0.00000000000E+00 -0.00000000000E+00 -0.15393243945E+03  0.15393243945E+03  0.00000000000E+00 0.  1.
         25    1    1    2    0    0  0.00000000000E+00  0.00000000000E+00 -0.12855604696E+03  0.17930883193E+03  0.12500000000E+03 0.  0.
<mgrwt>
<rscale>  0 0.12500000E+03</rscale>
<asrwt>0</asrwt>
<pdfrwt beam="1">  1       21 0.39040604E-02 0.12500000E+03</pdfrwt>
<pdfrwt beam="2">  1       21 0.23681913E-01 0.12500000E+03</pdfrwt>
<totfact> 0.67230914E+06</totfact>
</mgrwt>
</event>
<event>
 3    1  0.1595726E-001  0.1250000E+03  0.7546771E-02  0.1235069E+00
         21   -1    0    0  502  501  0.00000000000E+00  0.00000000000E+00  0.31317344077E+02  0.31317344077E+02  0.00000000000E+00 0. -1.
         21   -1    0    0  501  502 -0.00000000000E+00 -0.00000000000E+00 -0.12473120295E+03  0.12473120295E+03  0.00000000000E+00 0. -1.
         25    1    1    2    0    0  0.00000000000E+00  0.00000000000E+00 -0.93413858874E+02  0.15604854703E+03  0.12500000000E+03 0.  0.
<mgrwt>
<rscale>  0 0.12500000E+03</rscale>
<asrwt>0</asrwt>
<pdfrwt beam="1">  1       21 0.48180528E-02 0.12500000E+03</pdfrwt>
<pdfrwt beam="2">  1       21 0.19189416E-01 0.12500000E+03</pdfrwt>
<totfact> 0.70005572E+06</totfact>
</mgrwt>
</event>
<event>
 3    1  0.1595726E-001  0.1250000E+03  0.7546771E-02  0.1235069E+00
         21   -1    0    0  502  501  0.00000000000E+00  0.00000000000E+00  0.47521342243E+02  0.47521342243E+02  0.00000000000E+00 0. -1.
         21   -1    0    0  501  502 -0.00000000000E+00 -0.00000000000E+00 -0.82199908832E+02  0.82199908832E+02  0.00000000000E+00 0. -1.
         25    1    1    2    0    0  0.00000000000E+00  0.00000000000E+00 -0.34678566589E+02  0.12972125108E+03  0.12500000000E+03 0.  0.
<mgrwt>
<rscale>  0 0.12500000E+03</rscale>
<asrwt>0</asrwt>
<pdfrwt beam="1">  1       21 0.73109758E-02 0.12500000E+03</pdfrwt>
<pdfrwt beam="2">  1       21 0.12646140E-01 0.12500000E+03</pdfrwt>
<totfact> 0.73402193E+06</totfact>
</mgrwt>
</event>
<event>
 3    1  0.1595726E-001  0.1250000E+03  0.7546771E-02  0.1235069E+00
         21   -1    0    0  502  501  0.00000000000E+00  0.00000000000E+00  0.75812204269E+03  0.75812204269E+03  0.00000000000E+00 0.  1.
         21   -1    0    0  501  502 -0.00000000000E+00 -0.00000000000E+00 -0.51525345262E+01  0.51525345262E+01  0.00000000000E+00 0.  1.
         25    1    1    2    0    0  0.00000000000E+00  0.00000000000E+00  0.75296950816E+03  0.76327457722E+03  0.12500000000E+03 0.  0.
<mgrwt>
<rscale>  0 0.12500000E+03</rscale>
<asrwt>0</asrwt>
<pdfrwt beam="1">  1       21 0.11663407E+00 0.12500000E+03</pdfrwt>
<pdfrwt beam="2">  1       21 0.79269822E-03 0.12500000E+03</pdfrwt>
<totfact> 0.30607403E+06</totfact>
</mgrwt>
</event>
<event>
 3    1  0.1595726E-001  0.1250000E+03  0.7546771E-02  0.1235069E+00
         21   -1    0    0  502  501  0.00000000000E+00  0.00000000000E+00  0.24225393899E+01  0.24225393899E+01  0.00000000000E+00 0. -1.
         21   -1    0    0  501  502 -0.00000000000E+00 -0.00000000000E+00 -0.16124608815E+04  0.16124608815E+04  0.00000000000E+00 0. -1.
         25    1    1    2    0    0  0.00000000000E+00  0.00000000000E+00 -0.16100383421E+04  0.16148834209E+04  0.12500000000E+03 0.  0.
<mgrwt>
<rscale>  0 0.12500000E+03</rscale>
<asrwt>0</asrwt>
<pdfrwt beam="1">  1       21 0.37269744E-03 0.12500000E+03</pdfrwt>
<pdfrwt beam="2">  1       21 0.24807153E+00 0.12500000E+03</pdfrwt>
<totfact> 0.12372682E+06</totfact>
</mgrwt>
</event>
<event>
 3    1  0.1595726E-001  0.1250000E+03  0.7546771E-02  0.1235069E+00
         21   -1    0    0  502  501  0.00000000000E+00  0.00000000000E+00  0.50431311427E+03  0.50431311427E+03  0.00000000000E+00 0.  1.
         21   -1    0    0  501  502 -0.00000000000E+00 -0.00000000000E+00 -0.77456839599E+01  0.77456839599E+01  0.00000000000E+00 0.  1.
         25    1    1    2    0    0  0.00000000000E+00  0.00000000000E+00  0.49656743031E+03  0.51205879823E+03  0.12500000000E+03 0.  0.
<mgrwt>
<rscale>  0 0.12500000E+03</rscale>
<asrwt>0</asrwt>
<pdfrwt beam="1">  1       21 0.77586607E-01 0.12500000E+03</pdfrwt>
<pdfrwt beam="2">  1       21 0.11916441E-02 0.12500000E+03</pdfrwt>
<totfact> 0.41397565E+06</totfact>
</mgrwt>
</event>
<event>
 3    1  0.1595726E-001  0.1250000E+03  0.7546771E-02  0.1235069E+00
         21   -1    0    0  502  501  0.00000000000E+00  0.00000000000E+00  0.64425504247E+02  0.64425504247E+02  0.00000000000E+00 0.  1.
         21   -1    0    0  501  502 -0.00000000000E+00 -0.00000000000E+00 -0.60632043873E+02  0.60632043873E+02  0.00000000000E+00 0.  1.
         25    1    1    2    0    0  0.00000000000E+00  0.00000000000E+00  0.37934603739E+01  0.12505754812E+03  0.12500000000E+03 0.  0.
<mgrwt>
<rscale>  0 0.12500000E+03</rscale>
<asrwt>0</asrwt>
<pdfrwt beam="1">  1       21 0.99116160E-02 0.12500000E+03</pdfrwt>
<pdfrwt beam="2">  1       21 0.93280068E-02 0.12500000E+03</pdfrwt>
<totfact> 0.74035809E+06</totfact>
</mgrwt>
</event>
<event>
 3    1  0.1595726E-001  0.1250000E+03  0.7546771E-02  0.1235069E+00
         21   -1    0    0  502  501  0.00000000000E+00  0.00000000000E+00  0.23457391312E+02  0.23457391312E+02  0.00000000000E+00 0.  1.
         21   -1    0    0  501  502 -0.00000000000E+00 -0.00000000000E+00 -0.16652533728E+03  0.16652533728E+03  0.00000000000E+00 0.  1.
         25    1    1    2    0    0  0.00000000000E+00  0.00000000000E+00 -0.14306794597E+03  0.18998272859E+03  0.12500000000E+03 0.  0.
<mgrwt>
<rscale>  0 0.12500000E+03</rscale>
<asrwt>0</asrwt>
<pdfrwt beam="1">  1       21 0.36088293E-02 0.12500000E+03</pdfrwt>
<pdfrwt beam="2">  1       21 0.25619284E-01 0.12500000E+03</pdfrwt>
<totfact> 0.66024383E+06</totfact>
</mgrwt>
</event>
<event>
 3    1  0.1595726E-001  0.1250000E+03  0.7546771E-02  0.1235069E+00
         21   -1    0    0  502  501  0.00000000000E+00  0.00000000000E+00  0.10218573102E+02  0.10218573102E+02  0.00000000000E+00 0. -1.
         21   -1    0    0  501  502 -0.00000000000E+00 -0.00000000000E+00 -0.38226961445E+03  0.38226961445E+03  0.00000000000E+00 0. -1.
         25    1    1    2    0    0  0.00000000000E+00  0.00000000000E+00 -0.37205104134E+03  0.39248818755E+03  0.12500000000E+03 0.  0.
<mgrwt>
<rscale>  0 0.12500000E+03</rscale>
<asrwt>0</asrwt>
<pdfrwt beam="1">  1       21 0.15720883E-02 0.12500000E+03</pdfrwt>
<pdfrwt beam="2">  1       21 0.58810706E-01 0.12500000E+03</pdfrwt>
<totfact> 0.48543626E+06</totfact>
</mgrwt>
</event>
<event>
 3    1  0.1595726E-001  0.1250000E+03  0.7546771E-02  0.1235069E+00
         21   -1    0    0  502  501  0.00000000000E+00  0.00000000000E+00  0.62644809416E+02  0.62644809416E+02  0.00000000000E+00 0.  1.
         21   -1    0    0  501  502 -0.00000000000E+00 -0.00000000000E+00 -0.62355525325E+02  0.62355525325E+02  0.00000000000E+00 0.  1.
         25    1    1    2    0    0  0.00000000000E+00  0.00000000000E+00  0.28928409072E+00  0.12500033474E+03  0.12500000000E+03 0.  0.
<mgrwt>
<rscale>  0 0.12500000E+03</rscale>
<asrwt>0</asrwt>
<pdfrwt beam="1">  1       21 0.96376630E-02 0.12500000E+03</pdfrwt>
<pdfrwt beam="2">  1       21 0.95931577E-02 0.12500000E+03</pdfrwt>
<totfact> 0.74043536E+06</totfact>
</mgrwt>
</event>
<event>
 3    1  0.1595726E-001  0.1250000E+03  0.7546771E-02  0.1235069E+00
         21   -1    0    0  502  501  0.00000000000E+00  0.00000000000E+00  0.34134261677E+01  0.34134261677E+01  0.00000000000E+00 0. -1.
         21   -1    0    0  501  502 -0.00000000000E+00 -0.00000000000E+00 -0.11443780554E+04  0.11443780554E+04  0.00000000000E+00 0. -1.
         25    1    1    2    0    0  0.00000000000E+00  0.00000000000E+00 -0.11409646292E+04  0.11477914816E+04  0.12500000000E+03 0.  0.
<mgrwt>
<rscale>  0 0.12500000E+03</rscale>
<asrwt>0</asrwt>
<pdfrwt beam="1">  1       21 0.52514218E-03 0.12500000E+03</pdfrwt>
<pdfrwt beam="2">  1       21 0.17605827E+00 0.12500000E+03</pdfrwt>
<totfact> 0.20215835E+06</totfact>
</mgrwt>
</event>
<event>
 3    1  0.1595726E-001  0.1250000E+03  0.7546771E-02  0.1235069E+00
         21   -1    0    0  502  501  0.00000000000E+00  0.00000000000E+00  0.11321379475E+03  0.11321379475E+03  0.00000000000E+00 0. -1.
         21   -1    0    0  501  502 -0.00000000000E+00 -0.00000000000E+00 -0.34503304201E+02  0.34503304201E+02  0.00000000000E+00 0. -1.
         25    1    1    2    0    0  0.00000000000E+00  0.00000000000E+00  0.78710490551E+02  0.14771709895E+03  0.12500000000E+03 0.  0.
<mgrwt>
<rscale>  0 0.12500000E+03</rscale>
<asrwt>0</asrwt>
<pdfrwt beam="1">  1       21 0.17417507E-01 0.12500000E+03</pdfrwt>
<pdfrwt beam="2">  1       21 0.53082007E-02 0.12500000E+03</pdfrwt>
<totfact> 0.71047166E+06</totfact>
</mgrwt>
</event>
<event>
 3    1  0.1595726E-001  0.1250000E+03  0.7546771E-02  0.1235069E+00
         21   -1    0    0  502  501  0.00000000000E+00  0.00000000000E+00  0.33806729872E+02  0.33806729872E+02  0.00000000000E+00 0. -1.
         21   -1    0    0  501  502 -0.00000000000E+00 -0.00000000000E+00 -0.11554652032E+03  0.11554652032E+03  0.00000000000E+00 0. -1.
         25    1    1    2    0    0  0.00000000000E+00  0.00000000000E+00 -0.81739790444E+02  0.14935325019E+03  0.12500000000E+03 0.  0.
<mgrwt>
<rscale>  0 0.12500000E+03</rscale>
<asrwt>0</asrwt>
<pdfrwt beam="1">  1       21 0.52010354E-02 0.12500000E+03</pdfrwt>
<pdfrwt beam="2">  1       21 0.17776387E-01 0.12500000E+03</pdfrwt>
<totfact> 0.70840539E+06</totfact>
</mgrwt>
</event>
<event>
 3    1  0.1595726E-001  0.1250000E+03  0.7546771E-02  0.1235069E+00
         21   -1    0    0  502  501  0.00000000000E+00  0.00000000000E+00  0.82378595039E+02  0.82378595039E+02  0.00000000000E+00 0.  1.
         21   -1    0    0  501  502 -0.00000000000E+00 -0.00000000000E+00 -0.47418264394E+02  0.47418264394E+02  0.00000000000E+00 0.  1.
         25    1    1    2    0    0  0.00000000000E+00  0.00000000000E+00  0.34960330645E+02  0.12979685943E+03  0.12500000000E+03 0.  0.
<mgrwt>
<rscale>  0 0.12500000E+03</rscale>
<asrwt>0</asrwt>
<pdfrwt beam="1">  1       21 0.12673630E-01 0.12500000E+03</pdfrwt>
<pdfrwt beam="2">  1       21 0.72951176E-02 0.12500000E+03</pdfrwt>
<totfact> 0.73392077E+06</totfact>
</mgrwt>
</event>
<event>
 3    1  0.1595726E-001  0.1250000E+03  0.7546771E-02  0.1235069E+00
         21   -1    0    0  502  501  0.00000000000E+00  0.00000000000E+00  0.33235657868E+02  0.33235657868E+02  0.00000000000E+00 0. -1.
         21   -1    0    0  501  502 -0.00000000000E+00 -0.00000000000E+00 -0.11753189949E+03  0.11753189949E+03  0.00000000000E+00 0. -1.
         25    1    1    2    0    0  0.00000000000E+00  0.00000000000E+00 -0.84296241622E+02  0.15076755736E+03  0.12500000000E+03 0.  0.
<mgrwt>
<rscale>  0 0.12500000E+03</rscale>
<asrwt>0</asrwt>
<pdfrwt beam="1">  1       21 0.51131783E-02 0.12500000E+03</pdfrwt>
<pdfrwt beam="2">  1       21 0.18081830E-01 0.12500000E+03</pdfrwt>
<totfact> 0.70662915E+06</totfact>
</mgrwt>
</event>
<event>
 3    1  0.1595726E-001  0.1250000E+03  0.7546771E-02  0.1235069E+00
         21   -1    0    0  502  501  0.00000000000E+00  0.00000000000E+00  0.68488286669E+02  0.68488286669E+02  0.00000000000E+00 0. -1.
         21   -1    0    0  501  502 -0.00000000000E+00 -0.00000000000E+00 -0.57035300341E+02  0.57035300341E+02  0.00000000000E+00 0. -1.
         25    1    1    2    0    0  0.00000000000E+00  0.00000000000E+00  0.11452986328E+02  0.12552358701E+03  0.12500000000E+03 0.  0.
<mgrwt>
<rscale>  0 0.12500000E+03</rscale>
<asrwt>0</asrwt>
<pdfrwt beam="1">  1       21 0.10536660E-01 0.12500000E+03</pdfrwt>
<pdfrwt beam="2">  1       21 0.87746616E-02 0.12500000E+03</pdfrwt>
<totfact> 0.73972100E+06</totfact>
</mgrwt>
</event>
<event>
 3    1  0.1595726E-001  0.1250000E+03  0.7546771E-02  0.1235069E+00
         21   -1    0    0  502  501  0.00000000000E+00  0.00000000000E+00  0.31647609653E+02  0.31647609653E+02  0.00000000000E+00 0. -1.
         21   -1    0    0  501  502 -0.00000000000E+00 -0.00000000000E+00 -0.12342954311E+03  0.12342954311E+03  0.00000000000E+00 0. -1.
         25    1    1    2    0    0  0.00000000000E+00  0.00000000000E+00 -0.91781933456E+02  0.15507715276E+03  0.12500000000E+03 0.  0.
<mgrwt>
<rscale>  0 0.12500000E+03</rscale>
<asrwt>0</asrwt>
<pdfrwt beam="1">  1       21 0.48688630E-02 0.12500000E+03</pdfrwt>
<pdfrwt beam="2">  1       21 0.18989161E-01 0.12500000E+03</pdfrwt>
<totfact> 0.70126071E+06</totfact>
</mgrwt>
</event>
<event>
 3    1  0.1595726E-001  0.1250000E+03  0.7546771E-02  0.1235069E+00
         21   -1    0    0  502  501  0.00000000000E+00  0.00000000000E+00  0.38476566189E+02  0.38476566189E+02  0.00000000000E+00 0. -1.
         21   -1    0    0  501  502 -0.00000000000E+00 -0.00000000000E+00 -0.10152283291E+03  0.10152283291E+03  0.00000000000E+00 0. -1.
         25    1    1    2    0    0  0.00000000000E+00  0.00000000000E+00 -0.63046266718E+02  0.13999939910E+03  0.12500000000E+03 0.  0.
<mgrwt>
<rscale>  0 0.12500000E+03</rscale>
<asrwt>0</asrwt>
<pdfrwt beam="1">  1       21 0.59194717E-02 0.12500000E+03</pdfrwt>
<pdfrwt beam="2">  1       21 0.15618897E-01 0.12500000E+03</pdfrwt>
<totfact> 0.72039387E+06</totfact>
</mgrwt>
</event>
<event>
 3    1  0.1595726E-001  0.1250000E+03  0.7546771E-02  0.1235069E+00
         21   -1    0    0  502  501  0.00000000000E+00  0.00000000000E+00  0.20835997770E+02  0.20835997770E+02  0.00000000000E+00 0.  1.
         21   -1    0    0  501  502 -0.00000000000E+00 -0.00000000000E+00 -0.18747602314E+03  0.18747602314E+03  0.00000000000E+00 0.  1.
         25    1    1    2    0    0  0.00000000000E+00  0.00000000000E+00 -0.16664002537E+03  0.20831202091E+03  0.12500000000E+03 0.  0.
<mgrwt>
<rscale>  0 0.12500000E+03</rscale>
<asrwt>0</asrwt>
<pdfrwt beam="1">  1       21 0.32055380E-02 0.12500000E+03</pdfrwt>
<pdfrwt beam="2">  1       21 0.28842466E-01 0.12500000E+03</pdfrwt>
<totfact> 0.64037568E+06</totfact>
</mgrwt>
</event>
<event>
 3    1  0.1595726E-001  0.1250000E+03  0.7546771E-02  0.1235069E+00
         21   -1    0    0  502  501  0.00000000000E+00  0.00000000000E+00  0.36415514576E+03  0.36415514576E+03  0.00000000000E+00 0. -1.
         21   -1    0    0  501  502 -0.00000000000E+00 -0.00000000000E+00 -0.10726883982E+02  0.10726883982E+02  0.00000000000E+00 0. -1.
         25    1    1    2    0    0  0.00000000000E+00  0.00000000000E+00  0.35342826178E+03  0.37488202974E+03  0.12500000000E+03 0.  0.
<mgrwt>
<rscale>  0 0.12500000E+03</rscale>
<asrwt>0</asrwt>
<pdfrwt beam="1">  1       21 0.56023859E-01 0.12500000E+03</pdfrwt>
<pdfrwt beam="2">  1       21 0.16502901E-02 0.12500000E+03</pdfrwt>
<totfact> 0.49751706E+06</totfact>
</mgrwt>
</event>
<event>
 3    1  0.1595726E-001  0.1250000E+03  0.7546771E-02  0.1235069E+00
         21   -1    0    0  502  501  0.00000000000E+00  0.00000000000E+00  0.36618805690E+03  0.36618805690E+03  0.00000000000E+00 0.  1.
         21   -1    0    0  501  502 -0.00000000000E+00 -0.00000000000E+00 -0.10667333154E+02  0.10667333154E+02  0.00000000000E+00 0.  1.
         25    1    1    2    0    0  0.00000000000E+00  0.00000000000E+00  0.35552072374E+03  0.37685539005E+03  0.12500000000E+03 0.  0.
<mgrwt>
<rscale>  0 0.12500000E+03</rscale>
<asrwt>0</asrwt>
<pdfrwt beam="1">  1       21 0.56336615E-01 0.12500000E+03</pdfrwt>
<pdfrwt beam="2">  1       21 0.16411285E-02 0.12500000E+03</pdfrwt>
<totfact> 0.49614212E+06</totfact>
</mgrwt>
</event>
<event>
 3    1  0.1595726E-001  0.1250000E+03  0.7546771E-02  0.1235069E+00
         21   -1    0    0  502  501  0.00000000000E+00  0.00000000000E+00  0.94435184305E+03  0.94435184305E+03  0.00000000000E+00 0. -1.
         21   -1    0    0  501  502 -0.00000000000E+00 -0.00000000000E+00 -0.41364349832E+01  0.41364349832E+01  0.00000000000E+00 0. -1.
         25    1    1    2    0    0  0.00000000000E+00  0.00000000000E+00  0.94021540807E+03  0.94848827803E+03  0.12500000000E+03 0.  0.
<mgrwt>
<rscale>  0 0.12500000E+03</rscale>
<asrwt>0</asrwt>
<pdfrwt beam="1">  1       21 0.14528473E+00 0.12500000E+03</pdfrwt>
<pdfrwt beam="2">  1       21 0.63637536E-03 0.12500000E+03</pdfrwt>
<totfact> 0.24951952E+06</totfact>
</mgrwt>
</event>
<event>
 3    1  0.1595726E-001  0.1250000E+03  0.7546771E-02  0.1235069E+00
         21   -1    0    0  502  501  0.00000000000E+00  0.00000000000E+00  0.28285716933E+03  0.28285716933E+03  0.00000000000E+00 0. -1.
         21   -1    0    0  501  502 -0.00000000000E+00 -0.00000000000E+00 -0.13809973455E+02  0.13809973455E+02  0.00000000000E+00 0. -1.
         25    1    1    2    0    0  0.00000000000E+00  0.00000000000E+00  0.26904719587E+03  0.29666714278E+03  0.12500000000E+03 0.  0.
<mgrwt>
<rscale>  0 0.12500000E+03</rscale>
<asrwt>0</asrwt>
<pdfrwt beam="1">  1       21 0.43516483E-01 0.12500000E+03</pdfrwt>
<pdfrwt beam="2">  1       21 0.21246115E-02 0.12500000E+03</pdfrwt>
<totfact> 0.55734291E+06</totfact>
</mgrwt>
</event>
<event>
 3    1  0.1595726E-001  0.1250000E+03  0.7546771E-02  0.1235069E+00
         21   -1    0    0  502  501  0.00000000000E+00  0.00000000000E+00  0.34472082104E+01  0.34472082104E+01  0.00000000000E+00 0.  1.
         21   -1    0    0  501  502 -0.00000000000E+00 -0.00000000000E+00 -0.11331633489E+04  0.11331633489E+04  0.00000000000E+00 0.  1.
         25    1    1    2    0    0  0.00000000000E+00  0.00000000000E+00 -0.11297161407E+04  0.11366105571E+04  0.12500000000E+03 0.  0.
<mgrwt>
<rscale>  0 0.12500000E+03</rscale>
<asrwt>0</asrwt>
<pdfrwt beam="1">  1       21 0.53033856E-03 0.12500000E+03</pdfrwt>
<pdfrwt beam="2">  1       21 0.17433321E+00 0.12500000E+03</pdfrwt>
<totfact> 0.20454051E+06</totfact>
</mgrwt>
</event>
<event>
 3    1  0.1595726E-001  0.1250000E+03  0.7546771E-02  0.1235069E+00
         21   -1    0    0  502  501  0.00000000000E+00  0.00000000000E+00  0.55848983044E+03  0.55848983044E+03  0.00000000000E+00 0.  1.
         21   -1    0    0  501  502 -0.00000000000E+00 -0.00000000000E+00 -0.69943081988E+01  0.69943081988E+01  0.00000000000E+00 0.  1.
         25    1    1    2    0    0  0.00000000000E+00  0.00000000000E+00  0.55149552224E+03  0.56548413864E+03  0.12500000000E+03 0.  0.
<mgrwt>
<rscale>  0 0.12500000E+03</rscale>
<asrwt>0</asrwt>
<pdfrwt beam="1">  1       21 0.85921477E-01 0.12500000E+03</pdfrwt>
<pdfrwt beam="2">  1       21 0.10760479E-02 0.12500000E+03</pdfrwt>
<totfact> 0.38701599E+06</totfact>
</mgrwt>
</event>
<event>
 3    1  0.1595726E-001  0.1250000E+03  0.7546771E-02  0.1235069E+00
         21   -1    0    0  502  501  0.00000000000E+00  0.00000000000E+00  0.14309914697E+03  0.14309914697E+03  0.00000000000E+00 0.  1.
         21   -1    0    0  501  502 -0.00000000000E+00 -0.00000000000E+00 -0.27297507236E+02  0.27297507236E+02  0.00000000000E+00 0.  1.
         25    1    1    2    0    0  0.00000000000E+00  0.00000000000E+00  0.11580163974E+03  0.17039665421E+03  0.12500000000E+03 0.  0.
<mgrwt>
<rscale>  0 0.12500000E+03</rscale>
<asrwt>0</asrwt>
<pdfrwt beam="1">  1       21 0.22015253E-01 0.12500000E+03</pdfrwt>
<pdfrwt beam="2">  1       21 0.41996166E-02 0.12500000E+03</pdfrwt>
<totfact> 0.68270646E+06</totfact>
</mgrwt>
</event>
<event>
 3    1  0.1595726E-001  0.1250000E+03  0.7546771E-02  0.1235069E+00
         21   -1    0    0  502  501  0.00000000000E+00  0.00000000000E+00  0.61597013907E+01  0.61597013907E+01  0.00000000000E+00 0. -1.
         21   -1    0    0  501  502 -0.00000000000E+00 -0.00000000000E+00 -0.63416223486E+03  0.63416223486E+03  0.00000000000E+00 0. -1.
         25    1    1    2    0    0  0.00000000000E+00  0.00000000000E+00 -0.62800253347E+03  0.64032193625E+03  0.12500000000E+03 0.  0.
<mgrwt>
<rscale>  0 0.12500000E+03</rscale>
<asrwt>0</asrwt>
<pdfrwt beam="1">  1       21 0.94764667E-03 0.12500000E+03</pdfrwt>
<pdfrwt beam="2">  1       21 0.97563390E-01 0.12500000E+03</pdfrwt>
<totfact> 0.35330275E+06</totfact>
</mgrwt>
</event>
