<event>
 4    1  0.4832791E-002  0.4039765E+03  0.7818608E-02  0.1042411E+00
         21   -1    0    0  501  502  0.00000000000E+00  0.00000000000E+00  0.12061624070E+04  0.12061624070E+04  0.00000000000E+00 0. -1.
         21   -1    0    0  502  503 -0.00000000000E+00 -0.00000000000E+00 -0.15562707062E+03  0.15562707062E+03  0.00000000000E+00 0. -1.
    9000007    1    1    2  501    0  0.56513326207E+02 -0.18011050483E+01  0.77133061920E+03  0.87071690240E+03  0.40000000000E+03 0. -1.
   -9000007    1    1    2    0  503 -0.56513326207E+02  0.18011050483E+01  0.27920471716E+03  0.49107257519E+03  0.40000000000E+03 0. -1.
<mgrwt>
<rscale>  2 0.40397648E+03</rscale>
<asrwt>0</asrwt>
<pdfrwt beam="1">  1       21 0.18556344E+00 0.40397648E+03</pdfrwt>
<pdfrwt beam="2">  1       21 0.23942627E-01 0.40397648E+03</pdfrwt>
<totfact> 0.23841718E+03</totfact>
</mgrwt>
</event>
<event>
 4    1  0.4832791E-002  0.8333956E+03  0.7818608E-02  0.9512898E-01
         21   -1    0    0  503  502  0.00000000000E+00  0.00000000000E+00  0.18231146694E+04  0.18231146694E+04  0.00000000000E+00 0. -1.
         21   -1    0    0  501  503 -0.00000000000E+00 -0.00000000000E+00 -0.42721118162E+03  0.42721118162E+03  0.00000000000E+00 0.  1.
    9000007    1    1    2  501    0  0.72425624106E+03  0.10000535950E+03  0.32776708963E+03  0.89553304779E+03  0.40000000000E+03 0. -1.
   -9000007    1    1    2    0  502 -0.72425624106E+03 -0.10000535950E+03  0.10681363982E+04  0.13547928032E+04  0.40000000000E+03 0.  1.
<mgrwt>
<rscale>  2 0.83339557E+03</rscale>
<asrwt>0</asrwt>
<pdfrwt beam="1">  1       21 0.28047918E+00 0.83339557E+03</pdfrwt>
<pdfrwt beam="2">  1       21 0.65724798E-01 0.83339557E+03</pdfrwt>
<totfact> 0.61068532E+01</totfact>
</mgrwt>
</event>
<event>
 4    1  0.4832791E-002  0.4815818E+03  0.7818608E-02  0.1018701E+00
         21   -1    0    0  501  502  0.00000000000E+00  0.00000000000E+00  0.44658007022E+03  0.44658007022E+03  0.00000000000E+00 0. -1.
         21   -1    0    0  502  503 -0.00000000000E+00 -0.00000000000E+00 -0.11073149474E+04  0.11073149474E+04  0.00000000000E+00 0. -1.
    9000007    1    1    2  501    0  0.10228028764E+03  0.24791087716E+03  0.23579406026E+03  0.53620882043E+03  0.40000000000E+03 0. -1.
   -9000007    1    1    2    0  503 -0.10228028764E+03 -0.24791087716E+03 -0.89652893743E+03  0.10176861972E+04  0.40000000000E+03 0. -1.
<mgrwt>
<rscale>  2 0.48158183E+03</rscale>
<asrwt>0</asrwt>
<pdfrwt beam="1">  1       21 0.68704627E-01 0.48158183E+03</pdfrwt>
<pdfrwt beam="2">  1       21 0.17035614E+00 0.48158183E+03</pdfrwt>
<totfact> 0.33196969E+02</totfact>
</mgrwt>
</event>
<event>
 4    1  0.4832791E-002  0.6003338E+03  0.7818608E-02  0.9904714E-01
         21   -1    0    0  501  502  0.00000000000E+00  0.00000000000E+00  0.18958792272E+04  0.18958792272E+04  0.00000000000E+00 0.  1.
         21   -1    0    0  502  503 -0.00000000000E+00 -0.00000000000E+00 -0.20432592532E+03  0.20432592532E+03  0.00000000000E+00 0.  1.
    9000007    1    1    2  501    0  0.44601396148E+03  0.38368858417E+02  0.11228907966E+04  0.12732966521E+04  0.40000000000E+03 0.  1.
   -9000007    1    1    2    0  503 -0.44601396148E+03 -0.38368858417E+02  0.56866250522E+03  0.82690850036E+03  0.40000000000E+03 0.  1.
<mgrwt>
<rscale>  2 0.60033376E+03</rscale>
<asrwt>0</asrwt>
<pdfrwt beam="1">  1       21 0.29167372E+00 0.60033376E+03</pdfrwt>
<pdfrwt beam="2">  1       21 0.31434759E-01 0.60033376E+03</pdfrwt>
<totfact> 0.27203814E+02</totfact>
</mgrwt>
</event>
<event>
 4    1  0.4832791E-002  0.4231532E+03  0.7818608E-02  0.1036045E+00
         21   -1    0    0  503  502  0.00000000000E+00  0.00000000000E+00  0.11734935052E+04  0.11734935052E+04  0.00000000000E+00 0.  1.
         21   -1    0    0  501  503 -0.00000000000E+00 -0.00000000000E+00 -0.15992981462E+03  0.15992981462E+03  0.00000000000E+00 0.  1.
    9000007    1    1    2  501    0 -0.13787251308E+03  0.70598368465E+01  0.36391402839E+03  0.55811476527E+03  0.40000000000E+03 0.  1.
   -9000007    1    1    2    0  502  0.13787251308E+03 -0.70598368465E+01  0.64964966215E+03  0.77530855450E+03  0.40000000000E+03 0.  1.
<mgrwt>
<rscale>  2 0.42315325E+03</rscale>
<asrwt>0</asrwt>
<pdfrwt beam="1">  1       21 0.18053746E+00 0.42315325E+03</pdfrwt>
<pdfrwt beam="2">  1       21 0.24604588E-01 0.42315325E+03</pdfrwt>
<totfact> 0.24304094E+03</totfact>
</mgrwt>
</event>
<event>
 4    1  0.4832791E-002  0.4291016E+03  0.7818608E-02  0.1034144E+00
         21   -1    0    0  503  502  0.00000000000E+00  0.00000000000E+00  0.11392608836E+04  0.11392608836E+04  0.00000000000E+00 0. -1.
         21   -1    0    0  501  503 -0.00000000000E+00 -0.00000000000E+00 -0.18796840860E+03  0.18796840860E+03  0.00000000000E+00 0. -1.
    9000007    1    1    2  501    0  0.52303601291E+02  0.14626179031E+03  0.22719298202E+03  0.48553561053E+03  0.40000000000E+03 0. -1.
   -9000007    1    1    2    0  502 -0.52303601291E+02 -0.14626179031E+03  0.72409949295E+03  0.84169368164E+03  0.40000000000E+03 0. -1.
<mgrwt>
<rscale>  2 0.42910159E+03</rscale>
<asrwt>0</asrwt>
<pdfrwt beam="1">  1       21 0.17527090E+00 0.42910159E+03</pdfrwt>
<pdfrwt beam="2">  1       21 0.28918217E-01 0.42910159E+03</pdfrwt>
<totfact> 0.19254685E+03</totfact>
</mgrwt>
</event>
<event>
 4    1  0.4832791E-002  0.4840109E+03  0.7818608E-02  0.1018039E+00
         21   -1    0    0  501  502  0.00000000000E+00  0.00000000000E+00  0.91538629816E+03  0.91538629816E+03  0.00000000000E+00 0.  1.
         21   -1    0    0  502  503 -0.00000000000E+00 -0.00000000000E+00 -0.30040315257E+03  0.30040315257E+03  0.00000000000E+00 0.  1.
    9000007    1    1    2  501    0  0.62038385860E+02 -0.26536341917E+03  0.54141267938E+03  0.72621910946E+03  0.40000000000E+03 0.  1.
   -9000007    1    1    2    0  503 -0.62038385860E+02  0.26536341917E+03  0.73570466209E+02  0.48957034127E+03  0.40000000000E+03 0.  1.
<mgrwt>
<rscale>  2 0.48401085E+03</rscale>
<asrwt>0</asrwt>
<pdfrwt beam="1">  1       21 0.14082866E+00 0.48401085E+03</pdfrwt>
<pdfrwt beam="2">  1       21 0.46215870E-01 0.48401085E+03</pdfrwt>
<totfact> 0.13273282E+03</totfact>
</mgrwt>
</event>
<event>
 4    1  0.4832791E-002  0.6205194E+03  0.7818608E-02  0.9863726E-01
         21   -1    0    0  501  502  0.00000000000E+00  0.00000000000E+00  0.51126543233E+03  0.51126543233E+03  0.00000000000E+00 0. -1.
         21   -1    0    0  502  503 -0.00000000000E+00 -0.00000000000E+00 -0.10046639996E+04  0.10046639996E+04  0.00000000000E+00 0.  1.
    9000007    1    1    2  501    0  0.43316859804E+03 -0.19341489872E+03  0.13256794845E+03  0.63452235448E+03  0.40000000000E+03 0. -1.
   -9000007    1    1    2    0  503 -0.43316859804E+03  0.19341489872E+03 -0.62596651570E+03  0.88140707743E+03  0.40000000000E+03 0. -1.
<mgrwt>
<rscale>  2 0.62051943E+03</rscale>
<asrwt>0</asrwt>
<pdfrwt beam="1">  1       21 0.78656221E-01 0.62051943E+03</pdfrwt>
<pdfrwt beam="2">  1       21 0.15456369E+00 0.62051943E+03</pdfrwt>
<totfact> 0.30348852E+02</totfact>
</mgrwt>
</event>
<event>
 4    1  0.4832791E-002  0.4791414E+03  0.7818608E-02  0.1019371E+00
         21   -1    0    0  501  502  0.00000000000E+00  0.00000000000E+00  0.33140034418E+03  0.33140034418E+03  0.00000000000E+00 0.  1.
         21   -1    0    0  502  503 -0.00000000000E+00 -0.00000000000E+00 -0.70785462828E+03  0.70785462828E+03  0.00000000000E+00 0.  1.
    9000007    1    1    2  501    0  0.42420859918E+02  0.26034004648E+03 -0.11231283237E+03  0.49212868386E+03  0.40000000000E+03 0.  1.
   -9000007    1    1    2    0  503 -0.42420859918E+02 -0.26034004648E+03 -0.26414145173E+03  0.54712628860E+03  0.40000000000E+03 0.  1.
<mgrwt>
<rscale>  2 0.47914139E+03</rscale>
<asrwt>0</asrwt>
<pdfrwt beam="1">  1       21 0.50984668E-01 0.47914139E+03</pdfrwt>
<pdfrwt beam="2">  1       21 0.10890071E+00 0.47914139E+03</pdfrwt>
<totfact> 0.20893056E+03</totfact>
</mgrwt>
</event>
<event>
 4    1  0.4832791E-002  0.5393008E+03  0.7818608E-02  0.1004001E+00
         21   -1    0    0  501  502  0.00000000000E+00  0.00000000000E+00  0.94055453723E+03  0.94055453723E+03  0.00000000000E+00 0. -1.
         21   -1    0    0  502  503 -0.00000000000E+00 -0.00000000000E+00 -0.32142825020E+03  0.32142825020E+03  0.00000000000E+00 0. -1.
    9000007    1    1    2  501    0 -0.71015496541E+02 -0.35468596346E+03  0.43249787073E+03  0.69130293042E+03  0.40000000000E+03 0. -1.
   -9000007    1    1    2    0  503  0.71015496541E+02  0.35468596346E+03  0.18662841630E+03  0.57067985701E+03  0.40000000000E+03 0. -1.
<mgrwt>
<rscale>  2 0.53930078E+03</rscale>
<asrwt>0</asrwt>
<pdfrwt beam="1">  1       21 0.14470070E+00 0.53930078E+03</pdfrwt>
<pdfrwt beam="2">  1       21 0.49450500E-01 0.53930078E+03</pdfrwt>
<totfact> 0.10479819E+03</totfact>
</mgrwt>
</event>
<event>
 4    1  0.4832791E-002  0.4624294E+03  0.7818608E-02  0.1024079E+00
         21   -1    0    0  501  502  0.00000000000E+00  0.00000000000E+00  0.81838581360E+03  0.81838581360E+03  0.00000000000E+00 0.  1.
         21   -1    0    0  502  503 -0.00000000000E+00 -0.00000000000E+00 -0.45718152913E+03  0.45718152913E+03  0.00000000000E+00 0. -1.
    9000007    1    1    2  501    0 -0.85466445904E+00 -0.23203503827E+03  0.59807684838E+03  0.75600059921E+03  0.40000000000E+03 0.  1.
   -9000007    1    1    2    0  503  0.85466445904E+00  0.23203503827E+03 -0.23687256392E+03  0.51956674352E+03  0.40000000000E+03 0. -1.
<mgrwt>
<rscale>  2 0.46242944E+03</rscale>
<asrwt>0</asrwt>
<pdfrwt beam="1">  1       21 0.12590551E+00 0.46242944E+03</pdfrwt>
<pdfrwt beam="2">  1       21 0.70335620E-01 0.46242944E+03</pdfrwt>
<totfact> 0.71971755E+02</totfact>
</mgrwt>
</event>
<event>
 4    1  0.4832791E-002  0.4344638E+03  0.7818608E-02  0.1032459E+00
         21   -1    0    0  501  502  0.00000000000E+00  0.00000000000E+00  0.54262606798E+03  0.54262606798E+03  0.00000000000E+00 0. -1.
         21   -1    0    0  502  503 -0.00000000000E+00 -0.00000000000E+00 -0.44490561049E+03  0.44490561049E+03  0.00000000000E+00 0. -1.
    9000007    1    1    2  501    0 -0.13695950804E+03  0.10000455050E+03  0.27946658975E+03  0.51658531895E+03  0.40000000000E+03 0. -1.
   -9000007    1    1    2    0  503  0.13695950804E+03 -0.10000455050E+03 -0.18174613226E+03  0.47094635953E+03  0.40000000000E+03 0. -1.
<mgrwt>
<rscale>  2 0.43446383E+03</rscale>
<asrwt>0</asrwt>
<pdfrwt beam="1">  1       21 0.83480933E-01 0.43446383E+03</pdfrwt>
<pdfrwt beam="2">  1       21 0.68447017E-01 0.43446383E+03</pdfrwt>
<totfact> 0.21131588E+03</totfact>
</mgrwt>
</event>
<event>
 4    1  0.4832791E-002  0.6036732E+03  0.7818608E-02  0.9897814E-01
         21   -1    0    0  501  502  0.00000000000E+00  0.00000000000E+00  0.55000823287E+03  0.55000823287E+03  0.00000000000E+00 0.  1.
         21   -1    0    0  502  503 -0.00000000000E+00 -0.00000000000E+00 -0.70383986704E+03  0.70383986704E+03  0.00000000000E+00 0.  1.
    9000007    1    1    2  501    0  0.36609854645E+03  0.26531720258E+03  0.74884084040E+02  0.60830008198E+03  0.40000000000E+03 0.  1.
   -9000007    1    1    2    0  503 -0.36609854645E+03 -0.26531720258E+03 -0.22871571821E+03  0.64554801793E+03  0.40000000000E+03 0.  1.
<mgrwt>
<rscale>  2 0.60367323E+03</rscale>
<asrwt>0</asrwt>
<pdfrwt beam="1">  1       21 0.84616651E-01 0.60367323E+03</pdfrwt>
<pdfrwt beam="2">  1       21 0.10828306E+00 0.60367323E+03</pdfrwt>
<totfact> 0.65404307E+02</totfact>
</mgrwt>
</event>
<event>
 4    1  0.4832791E-002  0.4545947E+03  0.7818608E-02  0.1026361E+00
         21   -1    0    0  501  502  0.00000000000E+00  0.00000000000E+00  0.32316063734E+03  0.32316063734E+03  0.00000000000E+00 0.  1.
         21   -1    0    0  502  503 -0.00000000000E+00 -0.00000000000E+00 -0.12332987054E+04  0.12332987054E+04  0.00000000000E+00 0.  1.
    9000007    1    1    2  501    0 -0.16705244018E+03  0.13692991454E+03  0.84937263581E+02  0.46246152057E+03  0.40000000000E+03 0.  1.
   -9000007    1    1    2    0  503  0.16705244018E+03 -0.13692991454E+03 -0.99507533164E+03  0.10939978222E+04  0.40000000000E+03 0.  1.
<mgrwt>
<rscale>  2 0.45459468E+03</rscale>
<asrwt>0</asrwt>
<pdfrwt beam="1">  1       21 0.49717022E-01 0.45459468E+03</pdfrwt>
<pdfrwt beam="2">  1       21 0.18973826E+00 0.45459468E+03</pdfrwt>
<totfact> 0.49735572E+02</totfact>
</mgrwt>
</event>
<event>
 4    1  0.4832791E-002  0.5672248E+03  0.7818608E-02  0.9975839E-01
         21   -1    0    0  501  502  0.00000000000E+00  0.00000000000E+00  0.13939422798E+04  0.13939422798E+04  0.00000000000E+00 0. -1.
         21   -1    0    0  502  503 -0.00000000000E+00 -0.00000000000E+00 -0.23778577528E+03  0.23778577528E+03  0.00000000000E+00 0.  1.
    9000007    1    1    2  501    0  0.28684715636E+03  0.28189134611E+03  0.71775939984E+03  0.91483472725E+03  0.40000000000E+03 0.  1.
   -9000007    1    1    2    0  503 -0.28684715636E+03 -0.28189134611E+03  0.43839710471E+03  0.71689332787E+03  0.40000000000E+03 0. -1.
<mgrwt>
<rscale>  2 0.56722484E+03</rscale>
<asrwt>0</asrwt>
<pdfrwt beam="1">  1       21 0.21445265E+00 0.56722484E+03</pdfrwt>
<pdfrwt beam="2">  1       21 0.36582428E-01 0.56722484E+03</pdfrwt>
<totfact> 0.61441812E+02</totfact>
</mgrwt>
</event>
<event>
 4    1  0.4832791E-002  0.8482565E+03  0.7818608E-02  0.9492680E-01
         21   -1    0    0  501  502  0.00000000000E+00  0.00000000000E+00  0.11642657144E+04  0.11642657144E+04  0.00000000000E+00 0. -1.
         21   -1    0    0  502  503 -0.00000000000E+00 -0.00000000000E+00 -0.69495170818E+03  0.69495170818E+03  0.00000000000E+00 0.  1.
    9000007    1    1    2  501    0  0.14416934173E+03 -0.73399881514E+03  0.54395465203E+03  0.10076833447E+04  0.40000000000E+03 0. -1.
   -9000007    1    1    2    0  503 -0.14416934173E+03  0.73399881514E+03 -0.74640645857E+02  0.85153407784E+03  0.40000000000E+03 0.  1.
<mgrwt>
<rscale>  2 0.84825648E+03</rscale>
<asrwt>0</asrwt>
<pdfrwt beam="1">  1       21 0.17911780E+00 0.84825648E+03</pdfrwt>
<pdfrwt beam="2">  1       21 0.10691565E+00 0.84825648E+03</pdfrwt>
<totfact> 0.88257829E+01</totfact>
</mgrwt>
</event>
<event>
 4    1  0.4832791E-002  0.4600846E+03  0.7818608E-02  0.1024757E+00
         21   -1    0    0  501  502  0.00000000000E+00  0.00000000000E+00  0.93466109417E+03  0.93466109417E+03  0.00000000000E+00 0. -1.
         21   -1    0    0  502  503 -0.00000000000E+00 -0.00000000000E+00 -0.17106643477E+04  0.17106643477E+04  0.00000000000E+00 0.  1.
    9000007    1    1    2  501    0  0.20785009659E+03 -0.92066299938E+02  0.84400002108E+03  0.96125641835E+03  0.40000000000E+03 0. -1.
   -9000007    1    1    2    0  503 -0.20785009659E+03  0.92066299938E+02 -0.16200032746E+04  0.16840690235E+04  0.40000000000E+03 0.  1.
<mgrwt>
<rscale>  2 0.46008463E+03</rscale>
<asrwt>0</asrwt>
<pdfrwt beam="1">  1       21 0.14379402E+00 0.46008463E+03</pdfrwt>
<pdfrwt beam="2">  1       21 0.26317913E+00 0.46008463E+03</pdfrwt>
<totfact> 0.13764160E+01</totfact>
</mgrwt>
</event>
<event>
 4    1  0.4832791E-002  0.5635342E+03  0.7818608E-02  0.9984089E-01
         21   -1    0    0  501  502  0.00000000000E+00  0.00000000000E+00  0.48768260458E+03  0.48768260458E+03  0.00000000000E+00 0. -1.
         21   -1    0    0  502  503 -0.00000000000E+00 -0.00000000000E+00 -0.76884304901E+03  0.76884304901E+03  0.00000000000E+00 0. -1.
    9000007    1    1    2  501    0  0.30413604204E+03 -0.25509231041E+03  0.10519397338E+03  0.57326834112E+03  0.40000000000E+03 0. -1.
   -9000007    1    1    2    0  503 -0.30413604204E+03  0.25509231041E+03 -0.38635441781E+03  0.68325731248E+03  0.40000000000E+03 0. -1.
<mgrwt>
<rscale>  2 0.56353422E+03</rscale>
<asrwt>0</asrwt>
<pdfrwt beam="1">  1       21 0.75028092E-01 0.56353422E+03</pdfrwt>
<pdfrwt beam="2">  1       21 0.11828355E+00 0.56353422E+03</pdfrwt>
<totfact> 0.70200118E+02</totfact>
</mgrwt>
</event>
<event>
 4    1  0.4832791E-002  0.4874630E+03  0.7818608E-02  0.1017104E+00
         21   -1    0    0  501  502  0.00000000000E+00  0.00000000000E+00  0.30797772787E+03  0.30797772787E+03  0.00000000000E+00 0.  1.
         21   -1    0    0  502  503 -0.00000000000E+00 -0.00000000000E+00 -0.10672184514E+04  0.10672184514E+04  0.00000000000E+00 0.  1.
    9000007    1    1    2  501    0 -0.16868882068E+03  0.22173007291E+03 -0.17701960381E+02  0.48778427902E+03  0.40000000000E+03 0.  1.
   -9000007    1    1    2    0  503  0.16868882068E+03 -0.22173007291E+03 -0.74153876311E+03  0.88741190021E+03  0.40000000000E+03 0.  1.
<mgrwt>
<rscale>  2 0.48746297E+03</rscale>
<asrwt>0</asrwt>
<pdfrwt beam="1">  1       21 0.47381190E-01 0.48746297E+03</pdfrwt>
<pdfrwt beam="2">  1       21 0.16418745E+00 0.48746297E+03</pdfrwt>
<totfact> 0.82580750E+02</totfact>
</mgrwt>
</event>
<event>
 4    1  0.4832791E-002  0.4037138E+03  0.7818608E-02  0.1042501E+00
         21   -1    0    0  501  502  0.00000000000E+00  0.00000000000E+00  0.34024692559E+03  0.34024692559E+03  0.00000000000E+00 0.  1.
         21   -1    0    0  502  503 -0.00000000000E+00 -0.00000000000E+00 -0.54253643847E+03  0.54253643847E+03  0.00000000000E+00 0. -1.
    9000007    1    1    2  501    0 -0.12708953945E+02 -0.53134855585E+02 -0.25217199749E+03  0.47599952385E+03  0.40000000000E+03 0. -1.
   -9000007    1    1    2    0  503  0.12708953945E+02  0.53134855585E+02  0.49882484608E+02  0.40678384021E+03  0.40000000000E+03 0.  1.
<mgrwt>
<rscale>  2 0.40371380E+03</rscale>
<asrwt>0</asrwt>
<pdfrwt beam="1">  1       21 0.52345681E-01 0.40371380E+03</pdfrwt>
<pdfrwt beam="2">  1       21 0.83467144E-01 0.40371380E+03</pdfrwt>
<totfact> 0.38461111E+03</totfact>
</mgrwt>
</event>
<event>
 4    1  0.4832791E-002  0.6301542E+03  0.7818608E-02  0.9844748E-01
         21   -1    0    0  501  502  0.00000000000E+00  0.00000000000E+00  0.71359557502E+03  0.71359557502E+03  0.00000000000E+00 0.  1.
         21   -1    0    0  502  503 -0.00000000000E+00 -0.00000000000E+00 -0.58042851865E+03  0.58042851865E+03  0.00000000000E+00 0. -1.
    9000007    1    1    2  501    0  0.41148944964E+03 -0.26032818384E+03  0.19803652947E+03  0.66053977736E+03  0.40000000000E+03 0.  1.
   -9000007    1    1    2    0  503 -0.41148944964E+03  0.26032818384E+03 -0.64869473093E+02  0.63348431631E+03  0.40000000000E+03 0.  1.
<mgrwt>
<rscale>  2 0.63015421E+03</rscale>
<asrwt>0</asrwt>
<pdfrwt beam="1">  1       21 0.10978393E+00 0.63015421E+03</pdfrwt>
<pdfrwt beam="2">  1       21 0.89296695E-01 0.63015421E+03</pdfrwt>
<totfact> 0.55171177E+02</totfact>
</mgrwt>
</event>
<event>
 4    1  0.4832791E-002  0.4768190E+03  0.7818608E-02  0.1020013E+00
         21   -1    0    0  503  502  0.00000000000E+00  0.00000000000E+00  0.26307765178E+03  0.26307765178E+03  0.00000000000E+00 0.  1.
         21   -1    0    0  501  503 -0.00000000000E+00 -0.00000000000E+00 -0.10612633569E+04  0.10612633569E+04  0.00000000000E+00 0. -1.
    9000007    1    1    2  501    0  0.16239299061E+03 -0.20244710850E+03 -0.68441920311E+03  0.83413785475E+03  0.40000000000E+03 0. -1.
   -9000007    1    1    2    0  502 -0.16239299061E+03  0.20244710850E+03 -0.11376650200E+03  0.49020315392E+03  0.40000000000E+03 0.  1.
<mgrwt>
<rscale>  2 0.47681895E+03</rscale>
<asrwt>0</asrwt>
<pdfrwt beam="1">  1       21 0.40473486E-01 0.47681895E+03</pdfrwt>
<pdfrwt beam="2">  1       21 0.16327128E+00 0.47681895E+03</pdfrwt>
<totfact> 0.11712678E+03</totfact>
</mgrwt>
</event>
<event>
 4    1  0.4832791E-002  0.4926993E+03  0.7818608E-02  0.1015702E+00
         21   -1    0    0  501  502  0.00000000000E+00  0.00000000000E+00  0.13673099906E+04  0.13673099906E+04  0.00000000000E+00 0. -1.
         21   -1    0    0  502  503 -0.00000000000E+00 -0.00000000000E+00 -0.17889805878E+03  0.17889805878E+03  0.00000000000E+00 0.  1.
    9000007    1    1    2  501    0 -0.21562922988E+03  0.19041169702E+03  0.66155818370E+03  0.82487078356E+03  0.40000000000E+03 0. -1.
   -9000007    1    1    2    0  503  0.21562922988E+03 -0.19041169702E+03  0.52685374808E+03  0.72133726578E+03  0.40000000000E+03 0.  1.
<mgrwt>
<rscale>  2 0.49269928E+03</rscale>
<asrwt>0</asrwt>
<pdfrwt beam="1">  1       21 0.21035538E+00 0.49269928E+03</pdfrwt>
<pdfrwt beam="2">  1       21 0.27522779E-01 0.49269928E+03</pdfrwt>
<totfact> 0.11916000E+03</totfact>
</mgrwt>
</event>
<event>
 4    1  0.4832791E-002  0.4566837E+03  0.7818608E-02  0.1025747E+00
         21   -1    0    0  501  502  0.00000000000E+00  0.00000000000E+00  0.41399098826E+03  0.41399098826E+03  0.00000000000E+00 0. -1.
         21   -1    0    0  502  503 -0.00000000000E+00 -0.00000000000E+00 -0.50468121350E+03  0.50468121350E+03  0.00000000000E+00 0. -1.
    9000007    1    1    2  501    0  0.89017656802E+02  0.20158341485E+03 -0.64765032382E+02  0.46125321222E+03  0.40000000000E+03 0. -1.
   -9000007    1    1    2    0  503 -0.89017656802E+02 -0.20158341485E+03 -0.25925192859E+02  0.45741898954E+03  0.40000000000E+03 0. -1.
<mgrwt>
<rscale>  2 0.45668372E+03</rscale>
<asrwt>0</asrwt>
<pdfrwt beam="1">  1       21 0.63690922E-01 0.45668372E+03</pdfrwt>
<pdfrwt beam="2">  1       21 0.77643263E-01 0.45668372E+03</pdfrwt>
<totfact> 0.29099229E+03</totfact>
</mgrwt>
</event>
<event>
 4    1  0.4832791E-002  0.4428184E+03  0.7818608E-02  0.1029886E+00
         21   -1    0    0  503  502  0.00000000000E+00  0.00000000000E+00  0.46229822921E+03  0.46229822921E+03  0.00000000000E+00 0. -1.
         21   -1    0    0  501  503 -0.00000000000E+00 -0.00000000000E+00 -0.55034414126E+03  0.55034414126E+03  0.00000000000E+00 0. -1.
    9000007    1    1    2  501    0 -0.16522859790E+03  0.93742635481E+02 -0.28646739562E+03  0.52740092911E+03  0.40000000000E+03 0. -1.
   -9000007    1    1    2    0  502  0.16522859790E+03 -0.93742635481E+02  0.19842148356E+03  0.48524144136E+03  0.40000000000E+03 0. -1.
<mgrwt>
<rscale>  2 0.44281844E+03</rscale>
<asrwt>0</asrwt>
<pdfrwt beam="1">  1       21 0.71122804E-01 0.44281844E+03</pdfrwt>
<pdfrwt beam="2">  1       21 0.84668330E-01 0.44281844E+03</pdfrwt>
<totfact> 0.18696717E+03</totfact>
</mgrwt>
</event>
<event>
 4    1  0.4832791E-002  0.5507973E+03  0.7818608E-02  0.1001310E+00
         21   -1    0    0  503  502  0.00000000000E+00  0.00000000000E+00  0.36818178610E+03  0.36818178610E+03  0.00000000000E+00 0. -1.
         21   -1    0    0  501  503 -0.00000000000E+00 -0.00000000000E+00 -0.82542995116E+03  0.82542995116E+03  0.00000000000E+00 0. -1.
    9000007    1    1    2  501    0 -0.87915536536E+02 -0.36830499513E+03 -0.25356027751E+03  0.60635841326E+03  0.40000000000E+03 0. -1.
   -9000007    1    1    2    0  502  0.87915536536E+02  0.36830499513E+03 -0.20368788755E+03  0.58725332399E+03  0.40000000000E+03 0. -1.
<mgrwt>
<rscale>  2 0.55079734E+03</rscale>
<asrwt>0</asrwt>
<pdfrwt beam="1">  1       21 0.56643353E-01 0.55079734E+03</pdfrwt>
<pdfrwt beam="2">  1       21 0.12698922E+00 0.55079734E+03</pdfrwt>
<totfact> 0.11005101E+03</totfact>
</mgrwt>
</event>
<event>
 4    1  0.4832791E-002  0.5615540E+03  0.7818608E-02  0.9988545E-01
         21   -1    0    0  501  502  0.00000000000E+00  0.00000000000E+00  0.39404288282E+03  0.39404288282E+03  0.00000000000E+00 0.  1.
         21   -1    0    0  502  503 -0.00000000000E+00 -0.00000000000E+00 -0.83302882385E+03  0.83302882385E+03  0.00000000000E+00 0.  1.
    9000007    1    1    2  501    0 -0.21513199443E+03 -0.33024395538E+03 -0.34115021013E+03  0.65705883372E+03  0.40000000000E+03 0.  1.
   -9000007    1    1    2    0  503  0.21513199443E+03  0.33024395538E+03 -0.97835730895E+02  0.57001287296E+03  0.40000000000E+03 0.  1.
<mgrwt>
<rscale>  2 0.56155396E+03</rscale>
<asrwt>0</asrwt>
<pdfrwt beam="1">  1       21 0.60621983E-01 0.56155396E+03</pdfrwt>
<pdfrwt beam="2">  1       21 0.12815828E+00 0.56155396E+03</pdfrwt>
<totfact> 0.92263063E+02</totfact>
</mgrwt>
</event>
<event>
 4    1  0.4832791E-002  0.4058725E+03  0.7818608E-02  0.1041765E+00
         21   -1    0    0  501  502  0.00000000000E+00  0.00000000000E+00  0.14512955390E+03  0.14512955390E+03  0.00000000000E+00 0. -1.
         21   -1    0    0  502  503 -0.00000000000E+00 -0.00000000000E+00 -0.20107532872E+04  0.20107532872E+04  0.00000000000E+00 0. -1.
    9000007    1    1    2  501    0 -0.62819361500E+02 -0.28040135563E+02 -0.22145299411E+03  0.46235695083E+03  0.40000000000E+03 0. -1.
   -9000007    1    1    2    0  503  0.62819361500E+02  0.28040135563E+02 -0.16441707392E+04  0.16935258903E+04  0.40000000000E+03 0. -1.
<mgrwt>
<rscale>  2 0.40587254E+03</rscale>
<asrwt>0</asrwt>
<pdfrwt beam="1">  1       21 0.22327623E-01 0.40587254E+03</pdfrwt>
<pdfrwt beam="2">  1       21 0.30934667E+00 0.40587254E+03</pdfrwt>
<totfact> 0.46122808E+02</totfact>
</mgrwt>
</event>
<event>
 4    1  0.4832791E-002  0.4482899E+03  0.7818608E-02  0.1028233E+00
         21   -1    0    0  503  502  0.00000000000E+00  0.00000000000E+00  0.33509445599E+03  0.33509445599E+03  0.00000000000E+00 0.  1.
         21   -1    0    0  501  503 -0.00000000000E+00 -0.00000000000E+00 -0.84577414581E+03  0.84577414581E+03  0.00000000000E+00 0.  1.
    9000007    1    1    2  501    0 -0.16099823778E+03  0.12265149360E+03 -0.57380150485E+03  0.72815656862E+03  0.40000000000E+03 0.  1.
   -9000007    1    1    2    0  502  0.16099823778E+03 -0.12265149360E+03  0.63121815034E+02  0.45271203318E+03  0.40000000000E+03 0.  1.
<mgrwt>
<rscale>  2 0.44828989E+03</rscale>
<asrwt>0</asrwt>
<pdfrwt beam="1">  1       21 0.51552994E-01 0.44828989E+03</pdfrwt>
<pdfrwt beam="2">  1       21 0.13011910E+00 0.44828989E+03</pdfrwt>
<totfact> 0.13145834E+03</totfact>
</mgrwt>
</event>
<event>
 4    1  0.4832791E-002  0.4444500E+03  0.7818608E-02  0.1029390E+00
         21   -1    0    0  501  502  0.00000000000E+00  0.00000000000E+00  0.31610981669E+03  0.31610981669E+03  0.00000000000E+00 0. -1.
         21   -1    0    0  502  503 -0.00000000000E+00 -0.00000000000E+00 -0.69555131215E+03  0.69555131215E+03  0.00000000000E+00 0. -1.
    9000007    1    1    2  501    0  0.28990753060E+02  0.19156025950E+03 -0.28503117613E+02  0.44536302551E+03  0.40000000000E+03 0. -1.
   -9000007    1    1    2    0  503 -0.28990753060E+02 -0.19156025950E+03 -0.35093837786E+03  0.56629810333E+03  0.40000000000E+03 0. -1.
<mgrwt>
<rscale>  2 0.44444999E+03</rscale>
<asrwt>0</asrwt>
<pdfrwt beam="1">  1       21 0.48632280E-01 0.44444999E+03</pdfrwt>
<pdfrwt beam="2">  1       21 0.10700789E+00 0.44444999E+03</pdfrwt>
<totfact> 0.24433756E+03</totfact>
</mgrwt>
</event>
<event>
 4    1  0.4832791E-002  0.4532816E+03  0.7818608E-02  0.1026748E+00
         21   -1    0    0  503  502  0.00000000000E+00  0.00000000000E+00  0.14168781535E+04  0.14168781535E+04  0.00000000000E+00 0. -1.
         21   -1    0    0  501  503 -0.00000000000E+00 -0.00000000000E+00 -0.19982977298E+03  0.19982977298E+03  0.00000000000E+00 0. -1.
    9000007    1    1    2  501    0 -0.11794339228E+03 -0.17763335596E+03  0.18514218328E+03  0.48963443605E+03  0.40000000000E+03 0. -1.
   -9000007    1    1    2    0  502  0.11794339228E+03  0.17763335596E+03  0.10319061972E+04  0.11270734904E+04  0.40000000000E+03 0. -1.
<mgrwt>
<rscale>  2 0.45328165E+03</rscale>
<asrwt>0</asrwt>
<pdfrwt beam="1">  1       21 0.21798125E+00 0.45328165E+03</pdfrwt>
<pdfrwt beam="2">  1       21 0.30743043E-01 0.45328165E+03</pdfrwt>
<totfact> 0.86921632E+02</totfact>
</mgrwt>
</event>
<event>
 4    1  0.4832791E-002  0.5043502E+03  0.7818608E-02  0.1012650E+00
         21   -1    0    0  503  502  0.00000000000E+00  0.00000000000E+00  0.64998959561E+03  0.64998959561E+03  0.00000000000E+00 0. -1.
         21   -1    0    0  501  503 -0.00000000000E+00 -0.00000000000E+00 -0.81499949808E+03  0.81499949808E+03  0.00000000000E+00 0. -1.
    9000007    1    1    2  501    0  0.18618348201E+03  0.24434580497E+03 -0.61062473652E+03  0.79197962741E+03  0.40000000000E+03 0. -1.
   -9000007    1    1    2    0  502 -0.18618348201E+03 -0.24434580497E+03  0.44561483405E+03  0.67300946628E+03  0.40000000000E+03 0. -1.
<mgrwt>
<rscale>  2 0.50435024E+03</rscale>
<asrwt>0</asrwt>
<pdfrwt beam="1">  1       21 0.99998399E-01 0.50435024E+03</pdfrwt>
<pdfrwt beam="2">  1       21 0.12538454E+00 0.50435024E+03</pdfrwt>
<totfact> 0.31373449E+02</totfact>
</mgrwt>
</event>
<event>
 4    1  0.4832791E-002  0.4666108E+03  0.7818608E-02  0.1022881E+00
         21   -1    0    0  501  502  0.00000000000E+00  0.00000000000E+00  0.80615007024E+03  0.80615007024E+03  0.00000000000E+00 0. -1.
         21   -1    0    0  502  503 -0.00000000000E+00 -0.00000000000E+00 -0.49056594869E+03  0.49056594869E+03  0.00000000000E+00 0.  1.
    9000007    1    1    2  501    0  0.23870269972E+03 -0.27325651915E+02  0.59245822437E+03  0.75414349943E+03  0.40000000000E+03 0. -1.
   -9000007    1    1    2    0  503 -0.23870269972E+03  0.27325651915E+02 -0.27687410282E+03  0.54257251950E+03  0.40000000000E+03 0.  1.
<mgrwt>
<rscale>  2 0.46661083E+03</rscale>
<asrwt>0</asrwt>
<pdfrwt beam="1">  1       21 0.12402309E+00 0.46661083E+03</pdfrwt>
<pdfrwt beam="2">  1       21 0.75471684E-01 0.46661083E+03</pdfrwt>
<totfact> 0.63640233E+02</totfact>
</mgrwt>
</event>
<event>
 4    1  0.4832791E-002  0.4525420E+03  0.7818608E-02  0.1026967E+00
         21   -1    0    0  503  502  0.00000000000E+00  0.00000000000E+00  0.16029760004E+04  0.16029760004E+04  0.00000000000E+00 0.  1.
         21   -1    0    0  501  503 -0.00000000000E+00 -0.00000000000E+00 -0.12789060763E+03  0.12789060763E+03  0.00000000000E+00 0.  1.
    9000007    1    1    2  501    0 -0.18907431895E+03 -0.95106287607E+02  0.76532513627E+03  0.88911015528E+03  0.40000000000E+03 0.  1.
   -9000007    1    1    2    0  502  0.18907431895E+03  0.95106287607E+02  0.70976025655E+03  0.84175645279E+03  0.40000000000E+03 0.  1.
<mgrwt>
<rscale>  2 0.45254205E+03</rscale>
<asrwt>0</asrwt>
<pdfrwt beam="1">  1       21 0.24661168E+00 0.45254205E+03</pdfrwt>
<pdfrwt beam="2">  1       21 0.19675479E-01 0.45254205E+03</pdfrwt>
<totfact> 0.13689334E+03</totfact>
</mgrwt>
</event>
<event>
 4    1  0.4832791E-002  0.4044053E+03  0.7818608E-02  0.1042265E+00
         21   -1    0    0  503  502  0.00000000000E+00  0.00000000000E+00  0.60964897551E+03  0.60964897551E+03  0.00000000000E+00 0.  1.
         21   -1    0    0  501  503 -0.00000000000E+00 -0.00000000000E+00 -0.31224170228E+03  0.31224170228E+03  0.00000000000E+00 0.  1.
    9000007    1    1    2  501    0 -0.31911408047E+02 -0.50252820328E+02 -0.24296349292E+02  0.40513454124E+03  0.40000000000E+03 0.  1.
   -9000007    1    1    2    0  502  0.31911408047E+02  0.50252820328E+02  0.32170362252E+03  0.51675613655E+03  0.40000000000E+03 0.  1.
<mgrwt>
<rscale>  2 0.40440535E+03</rscale>
<asrwt>0</asrwt>
<pdfrwt beam="1">  1       21 0.93792150E-01 0.40440535E+03</pdfrwt>
<pdfrwt beam="2">  1       21 0.48037185E-01 0.40440535E+03</pdfrwt>
<totfact> 0.35066342E+03</totfact>
</mgrwt>
</event>
<event>
 4    1  0.4832791E-002  0.4864465E+03  0.7818608E-02  0.1017378E+00
         21   -1    0    0  501  502  0.00000000000E+00  0.00000000000E+00  0.14956348722E+04  0.14956348722E+04  0.00000000000E+00 0.  1.
         21   -1    0    0  502  503 -0.00000000000E+00 -0.00000000000E+00 -0.26273746536E+03  0.26273746536E+03  0.00000000000E+00 0.  1.
    9000007    1    1    2  501    0 -0.78438727293E+02  0.26547607634E+03  0.61916190427E+02  0.49037107957E+03  0.40000000000E+03 0.  1.
   -9000007    1    1    2    0  503  0.78438727293E+02 -0.26547607634E+03  0.11709812164E+04  0.12680012580E+04  0.40000000000E+03 0.  1.
<mgrwt>
<rscale>  2 0.48644648E+03</rscale>
<asrwt>0</asrwt>
<pdfrwt beam="1">  1       21 0.23009767E+00 0.48644648E+03</pdfrwt>
<pdfrwt beam="2">  1       21 0.40421149E-01 0.48644648E+03</pdfrwt>
<totfact> 0.41116258E+02</totfact>
</mgrwt>
</event>
<event>
 4    1  0.4832791E-002  0.5316228E+03  0.7818608E-02  0.1005839E+00
         21   -1    0    0  503  502  0.00000000000E+00  0.00000000000E+00  0.66133123595E+03  0.66133123595E+03  0.00000000000E+00 0.  1.
         21   -1    0    0  501  503 -0.00000000000E+00 -0.00000000000E+00 -0.81826897903E+03  0.81826897903E+03  0.00000000000E+00 0.  1.
    9000007    1    1    2  501    0 -0.30119850369E+03  0.17861199579E+03 -0.58980597311E+03  0.79403644097E+03  0.40000000000E+03 0.  1.
   -9000007    1    1    2    0  502  0.30119850369E+03 -0.17861199579E+03  0.43286823004E+03  0.68556377401E+03  0.40000000000E+03 0.  1.
<mgrwt>
<rscale>  2 0.53162278E+03</rscale>
<asrwt>0</asrwt>
<pdfrwt beam="1">  1       21 0.10174327E+00 0.53162278E+03</pdfrwt>
<pdfrwt beam="2">  1       21 0.12588753E+00 0.53162278E+03</pdfrwt>
<totfact> 0.29430134E+02</totfact>
</mgrwt>
</event>
<event>
 4    1  0.4832791E-002  0.5475849E+03  0.7818608E-02  0.1002054E+00
         21   -1    0    0  503  502  0.00000000000E+00  0.00000000000E+00  0.19875009441E+04  0.19875009441E+04  0.00000000000E+00 0.  1.
         21   -1    0    0  501  503 -0.00000000000E+00 -0.00000000000E+00 -0.42324637126E+03  0.42324637126E+03  0.00000000000E+00 0.  1.
    9000007    1    1    2  501    0  0.37394147088E+03 -0.41242986483E+01 -0.18484005982E+03  0.57794037858E+03  0.40000000000E+03 0.  1.
   -9000007    1    1    2    0  502 -0.37394147088E+03  0.41242986483E+01  0.17490946326E+04  0.18328069368E+04  0.40000000000E+03 0.  1.
<mgrwt>
<rscale>  2 0.54758491E+03</rscale>
<asrwt>0</asrwt>
<pdfrwt beam="1">  1       21 0.30576937E+00 0.54758491E+03</pdfrwt>
<pdfrwt beam="2">  1       21 0.65114828E-01 0.54758491E+03</pdfrwt>
<totfact> 0.49252109E+01</totfact>
</mgrwt>
</event>
<event>
 4    1  0.4832791E-002  0.4085884E+03  0.7818608E-02  0.1040846E+00
         21   -1    0    0  501  502  0.00000000000E+00  0.00000000000E+00  0.14651726714E+04  0.14651726714E+04  0.00000000000E+00 0. -1.
         21   -1    0    0  502  503 -0.00000000000E+00 -0.00000000000E+00 -0.14775965430E+03  0.14775965430E+03  0.00000000000E+00 0. -1.
    9000007    1    1    2  501    0 -0.28424945316E+02  0.78335996749E+02  0.27288998122E+03  0.49133842487E+03  0.40000000000E+03 0.  1.
   -9000007    1    1    2    0  503  0.28424945316E+02 -0.78335996749E+02  0.10445230359E+04  0.11215939009E+04  0.40000000000E+03 0.  1.
<mgrwt>
<rscale>  2 0.40858843E+03</rscale>
<asrwt>0</asrwt>
<pdfrwt beam="1">  1       21 0.22541117E+00 0.40858843E+03</pdfrwt>
<pdfrwt beam="2">  1       21 0.22732256E-01 0.40858843E+03</pdfrwt>
<totfact> 0.14384656E+03</totfact>
</mgrwt>
</event>
<event>
 4    1  0.4832791E-002  0.4688973E+03  0.7818608E-02  0.1022232E+00
         21   -1    0    0  503  502  0.00000000000E+00  0.00000000000E+00  0.25458744466E+03  0.25458744466E+03  0.00000000000E+00 0.  1.
         21   -1    0    0  501  503 -0.00000000000E+00 -0.00000000000E+00 -0.14704251888E+04  0.14704251888E+04  0.00000000000E+00 0.  1.
    9000007    1    1    2  501    0 -0.14406106885E+03 -0.19776520844E+03 -0.11619937610E+04  0.12530339859E+04  0.40000000000E+03 0.  1.
   -9000007    1    1    2    0  502  0.14406106885E+03  0.19776520844E+03 -0.53843983147E+02  0.47197864756E+03  0.40000000000E+03 0.  1.
<mgrwt>
<rscale>  2 0.46889729E+03</rscale>
<asrwt>0</asrwt>
<pdfrwt beam="1">  1       21 0.39167298E-01 0.46889729E+03</pdfrwt>
<pdfrwt beam="2">  1       21 0.22621926E+00 0.46889729E+03</pdfrwt>
<totfact> 0.46829088E+02</totfact>
</mgrwt>
</event>
<event>
 4    1  0.4832791E-002  0.4129712E+03  0.7818608E-02  0.1039379E+00
         21   -1    0    0  501  502  0.00000000000E+00  0.00000000000E+00  0.19655467524E+03  0.19655467524E+03  0.00000000000E+00 0. -1.
         21   -1    0    0  502  503 -0.00000000000E+00 -0.00000000000E+00 -0.10333071931E+04  0.10333071931E+04  0.00000000000E+00 0. -1.
    9000007    1    1    2  501    0 -0.20869178137E+02 -0.10054688479E+03 -0.66457539238E+03  0.78243571671E+03  0.40000000000E+03 0. -1.
   -9000007    1    1    2    0  503  0.20869178137E+02  0.10054688479E+03 -0.17217712550E+03  0.44742615165E+03  0.40000000000E+03 0. -1.
<mgrwt>
<rscale>  2 0.41297118E+03</rscale>
<asrwt>0</asrwt>
<pdfrwt beam="1">  1       21 0.30239181E-01 0.41297118E+03</pdfrwt>
<pdfrwt beam="2">  1       21 0.15897034E+00 0.41297118E+03</pdfrwt>
<totfact> 0.23377026E+03</totfact>
</mgrwt>
</event>
<event>
 4    1  0.4832791E-002  0.5036829E+03  0.7818608E-02  0.1012822E+00
         21   -1    0    0  503  502  0.00000000000E+00  0.00000000000E+00  0.88086445421E+03  0.88086445421E+03  0.00000000000E+00 0. -1.
         21   -1    0    0  501  503 -0.00000000000E+00 -0.00000000000E+00 -0.28855472573E+03  0.28855472573E+03  0.00000000000E+00 0.  1.
    9000007    1    1    2  501    0 -0.30605822103E+03  0.49877741629E+01  0.27071680118E+03  0.57182523466E+03  0.40000000000E+03 0. -1.
   -9000007    1    1    2    0  502  0.30605822103E+03 -0.49877741629E+01  0.32159292730E+03  0.59759394528E+03  0.40000000000E+03 0.  1.
<mgrwt>
<rscale>  2 0.50368295E+03</rscale>
<asrwt>0</asrwt>
<pdfrwt beam="1">  1       21 0.13551761E+00 0.50368295E+03</pdfrwt>
<pdfrwt beam="2">  1       21 0.44393035E-01 0.50368295E+03</pdfrwt>
<totfact> 0.15881723E+03</totfact>
</mgrwt>
</event>
<event>
 4    1  0.4832791E-002  0.4067401E+03  0.7818608E-02  0.1041470E+00
         21   -1    0    0  501  502  0.00000000000E+00  0.00000000000E+00  0.18434282689E+03  0.18434282689E+03  0.00000000000E+00 0.  1.
         21   -1    0    0  502  503 -0.00000000000E+00 -0.00000000000E+00 -0.90529633976E+03  0.90529633976E+03  0.00000000000E+00 0.  1.
    9000007    1    1    2  501    0 -0.16740583681E+02 -0.71814002370E+02 -0.30973835915E+03  0.51124881341E+03  0.40000000000E+03 0.  1.
   -9000007    1    1    2    0  503  0.16740583681E+02  0.71814002370E+02 -0.41121515372E+03  0.57839035324E+03  0.40000000000E+03 0.  1.
<mgrwt>
<rscale>  2 0.40674009E+03</rscale>
<asrwt>0</asrwt>
<pdfrwt beam="1">  1       21 0.28360435E-01 0.40674009E+03</pdfrwt>
<pdfrwt beam="2">  1       21 0.13927636E+00 0.40674009E+03</pdfrwt>
<totfact> 0.38047040E+03</totfact>
</mgrwt>
</event>
<event>
 4    1  0.4832791E-002  0.5123498E+03  0.7818608E-02  0.1010605E+00
         21   -1    0    0  501  502  0.00000000000E+00  0.00000000000E+00  0.15250105375E+03  0.15250105375E+03  0.00000000000E+00 0.  1.
         21   -1    0    0  502  503 -0.00000000000E+00 -0.00000000000E+00 -0.17259068582E+04  0.17259068582E+04  0.00000000000E+00 0.  1.
    9000007    1    1    2  501    0 -0.27146948021E+03  0.16972528707E+03 -0.73825830624E+03  0.89862543838E+03  0.40000000000E+03 0.  1.
   -9000007    1    1    2    0  503  0.27146948021E+03 -0.16972528707E+03 -0.83514749821E+03  0.97978247357E+03  0.40000000000E+03 0.  1.
<mgrwt>
<rscale>  2 0.51234983E+03</rscale>
<asrwt>0</asrwt>
<pdfrwt beam="1">  1       21 0.23461701E-01 0.51234983E+03</pdfrwt>
<pdfrwt beam="2">  1       21 0.26552412E+00 0.51234983E+03</pdfrwt>
<totfact> 0.72705755E+02</totfact>
</mgrwt>
</event>
<event>
 4    1  0.4832791E-002  0.5265619E+03  0.7818608E-02  0.1007069E+00
         21   -1    0    0  501  502  0.00000000000E+00  0.00000000000E+00  0.81805568573E+03  0.81805568573E+03  0.00000000000E+00 0.  1.
         21   -1    0    0  502  503 -0.00000000000E+00 -0.00000000000E+00 -0.33895317020E+03  0.33895317020E+03  0.00000000000E+00 0. -1.
    9000007    1    1    2  501    0 -0.32669332039E+03  0.10265913350E+03  0.23527585301E+03  0.57673403774E+03  0.40000000000E+03 0. -1.
   -9000007    1    1    2    0  503  0.32669332039E+03 -0.10265913350E+03  0.24382666252E+03  0.58027481820E+03  0.40000000000E+03 0. -1.
<mgrwt>
<rscale>  2 0.52656189E+03</rscale>
<asrwt>0</asrwt>
<pdfrwt beam="1">  1       21 0.12585472E+00 0.52656189E+03</pdfrwt>
<pdfrwt beam="2">  1       21 0.52146642E-01 0.52656189E+03</pdfrwt>
<totfact> 0.13581352E+03</totfact>
</mgrwt>
</event>
<event>
 4    1  0.4832791E-002  0.5449654E+03  0.7818608E-02  0.1002666E+00
         21   -1    0    0  501  502  0.00000000000E+00  0.00000000000E+00  0.40543567565E+03  0.40543567565E+03  0.00000000000E+00 0. -1.
         21   -1    0    0  502  503 -0.00000000000E+00 -0.00000000000E+00 -0.74480406344E+03  0.74480406344E+03  0.00000000000E+00 0. -1.
    9000007    1    1    2  501    0 -0.24270729541E+03  0.27942889828E+03 -0.95806552071E+02  0.55332290379E+03  0.40000000000E+03 0. -1.
   -9000007    1    1    2    0  503  0.24270729541E+03 -0.27942889828E+03 -0.24356183572E+03  0.59691683530E+03  0.40000000000E+03 0. -1.
<mgrwt>
<rscale>  2 0.54496545E+03</rscale>
<asrwt>0</asrwt>
<pdfrwt beam="1">  1       21 0.62374719E-01 0.54496545E+03</pdfrwt>
<pdfrwt beam="2">  1       21 0.11458524E+00 0.54496545E+03</pdfrwt>
<totfact> 0.11604205E+03</totfact>
</mgrwt>
</event>
<event>
 4    1  0.4832791E-002  0.4105112E+03  0.7818608E-02  0.1040200E+00
         21   -1    0    0  501  502  0.00000000000E+00  0.00000000000E+00  0.69785766105E+03  0.69785766105E+03  0.00000000000E+00 0. -1.
         21   -1    0    0  502  503 -0.00000000000E+00 -0.00000000000E+00 -0.24933444977E+03  0.24933444977E+03  0.00000000000E+00 0. -1.
    9000007    1    1    2  501    0 -0.17605388221E+02  0.90606426728E+02  0.14021060807E+03  0.43379544589E+03  0.40000000000E+03 0. -1.
   -9000007    1    1    2    0  503  0.17605388221E+02 -0.90606426728E+02  0.30831260322E+03  0.51339666493E+03  0.40000000000E+03 0. -1.
<mgrwt>
<rscale>  2 0.41051124E+03</rscale>
<asrwt>0</asrwt>
<pdfrwt beam="1">  1       21 0.10736272E+00 0.41051124E+03</pdfrwt>
<pdfrwt beam="2">  1       21 0.38359146E-01 0.41051124E+03</pdfrwt>
<totfact> 0.40215435E+03</totfact>
</mgrwt>
</event>
<event>
 4    1  0.4832791E-002  0.5640370E+03  0.7818608E-02  0.9982961E-01
         21   -1    0    0  503  502  0.00000000000E+00  0.00000000000E+00  0.12535889712E+04  0.12535889712E+04  0.00000000000E+00 0.  1.
         21   -1    0    0  501  503 -0.00000000000E+00 -0.00000000000E+00 -0.41062438161E+03  0.41062438161E+03  0.00000000000E+00 0.  1.
    9000007    1    1    2  501    0  0.19917741544E+03 -0.34418904901E+03 -0.92785094885E+02  0.57161772026E+03  0.40000000000E+03 0.  1.
   -9000007    1    1    2    0  502 -0.19917741544E+03  0.34418904901E+03  0.93574968447E+03  0.10925956326E+04  0.40000000000E+03 0.  1.
<mgrwt>
<rscale>  2 0.56403701E+03</rscale>
<asrwt>0</asrwt>
<pdfrwt beam="1">  1       21 0.19285984E+00 0.56403701E+03</pdfrwt>
<pdfrwt beam="2">  1       21 0.63172982E-01 0.56403701E+03</pdfrwt>
<totfact> 0.26814435E+02</totfact>
</mgrwt>
</event>
<event>
 4    1  0.4832791E-002  0.4783563E+03  0.7818608E-02  0.1019588E+00
         21   -1    0    0  503  502  0.00000000000E+00  0.00000000000E+00  0.37059904932E+03  0.37059904932E+03  0.00000000000E+00 0.  1.
         21   -1    0    0  501  503 -0.00000000000E+00 -0.00000000000E+00 -0.11241352907E+04  0.11241352907E+04  0.00000000000E+00 0.  1.
    9000007    1    1    2  501    0 -0.21456971985E+03  0.15094572365E+03  0.12499152721E+03  0.49441648237E+03  0.40000000000E+03 0.  1.
   -9000007    1    1    2    0  502  0.21456971985E+03 -0.15094572365E+03 -0.87852776856E+03  0.10003178576E+04  0.40000000000E+03 0.  1.
<mgrwt>
<rscale>  2 0.47835633E+03</rscale>
<asrwt>0</asrwt>
<pdfrwt beam="1">  1       21 0.57015239E-01 0.47835633E+03</pdfrwt>
<pdfrwt beam="2">  1       21 0.17294389E+00 0.47835633E+03</pdfrwt>
<totfact> 0.48094066E+02</totfact>
</mgrwt>
</event>
<event>
 4    1  0.4832791E-002  0.5400585E+03  0.7818608E-02  0.1003822E+00
         21   -1    0    0  501  502  0.00000000000E+00  0.00000000000E+00  0.22573370903E+03  0.22573370903E+03  0.00000000000E+00 0. -1.
         21   -1    0    0  502  503 -0.00000000000E+00 -0.00000000000E+00 -0.12921593631E+04  0.12921593631E+04  0.00000000000E+00 0.  1.
    9000007    1    1    2  501    0  0.12868742802E+02 -0.36262594716E+03 -0.52681257556E+03  0.75444991342E+03  0.40000000000E+03 0. -1.
   -9000007    1    1    2    0  503 -0.12868742802E+02  0.36262594716E+03 -0.53961307852E+03  0.76344315872E+03  0.40000000000E+03 0.  1.
<mgrwt>
<rscale>  2 0.54005850E+03</rscale>
<asrwt>0</asrwt>
<pdfrwt beam="1">  1       21 0.34728264E-01 0.54005850E+03</pdfrwt>
<pdfrwt beam="2">  1       21 0.19879374E+00 0.54005850E+03</pdfrwt>
<totfact> 0.87652880E+02</totfact>
</mgrwt>
</event>
<event>
 4    1  0.4832791E-002  0.4151538E+03  0.7818608E-02  0.1038655E+00
         21   -1    0    0  503  502  0.00000000000E+00  0.00000000000E+00  0.11363166781E+04  0.11363166781E+04  0.00000000000E+00 0. -1.
         21   -1    0    0  501  503 -0.00000000000E+00 -0.00000000000E+00 -0.89042396222E+03  0.89042396222E+03  0.00000000000E+00 0.  1.
    9000007    1    1    2  501    0 -0.10952360974E+03  0.18901794159E+02 -0.80008768766E+03  0.90138393976E+03  0.40000000000E+03 0.  1.
   -9000007    1    1    2    0  502  0.10952360974E+03 -0.18901794159E+02  0.10459804036E+04  0.11253567006E+04  0.40000000000E+03 0. -1.
<mgrwt>
<rscale>  2 0.41515383E+03</rscale>
<asrwt>0</asrwt>
<pdfrwt beam="1">  1       21 0.17481795E+00 0.41515383E+03</pdfrwt>
<pdfrwt beam="2">  1       21 0.13698830E+00 0.41515383E+03</pdfrwt>
<totfact> 0.60236470E+01</totfact>
</mgrwt>
</event>
<event>
 4    1  0.4832791E-002  0.4054849E+03  0.7818608E-02  0.1041897E+00
         21   -1    0    0  503  502  0.00000000000E+00  0.00000000000E+00  0.36164735064E+03  0.36164735064E+03  0.00000000000E+00 0.  1.
         21   -1    0    0  501  503 -0.00000000000E+00 -0.00000000000E+00 -0.55551955809E+03  0.55551955809E+03  0.00000000000E+00 0.  1.
    9000007    1    1    2  501    0  0.52940502311E+02 -0.40191316485E+02 -0.29236019616E+03  0.49989251145E+03  0.40000000000E+03 0. -1.
   -9000007    1    1    2    0  502 -0.52940502311E+02  0.40191316485E+02  0.98487988705E+02  0.41727439728E+03  0.40000000000E+03 0. -1.
<mgrwt>
<rscale>  2 0.40548494E+03</rscale>
<asrwt>0</asrwt>
<pdfrwt beam="1">  1       21 0.55638054E-01 0.40548494E+03</pdfrwt>
<pdfrwt beam="2">  1       21 0.85464548E-01 0.40548494E+03</pdfrwt>
<totfact> 0.31907923E+03</totfact>
</mgrwt>
</event>
<event>
 4    1  0.4832791E-002  0.6399014E+03  0.7818608E-02  0.9825915E-01
         21   -1    0    0  503  502  0.00000000000E+00  0.00000000000E+00  0.16777252980E+04  0.16777252980E+04  0.00000000000E+00 0.  1.
         21   -1    0    0  501  503 -0.00000000000E+00 -0.00000000000E+00 -0.26256944115E+03  0.26256944115E+03  0.00000000000E+00 0. -1.
    9000007    1    1    2  501    0  0.45252042866E+03  0.21142163876E+03  0.45003190632E+03  0.78230592763E+03  0.40000000000E+03 0.  1.
   -9000007    1    1    2    0  502 -0.45252042866E+03 -0.21142163876E+03  0.96512395052E+03  0.11579888115E+04  0.40000000000E+03 0. -1.
<mgrwt>
<rscale>  2 0.63990144E+03</rscale>
<asrwt>0</asrwt>
<pdfrwt beam="1">  1       21 0.25811158E+00 0.63990144E+03</pdfrwt>
<pdfrwt beam="2">  1       21 0.40395300E-01 0.63990144E+03</pdfrwt>
<totfact> 0.25771370E+02</totfact>
</mgrwt>
</event>
<event>
 4    1  0.4832791E-002  0.6448066E+03  0.7818608E-02  0.9816573E-01
         21   -1    0    0  503  502  0.00000000000E+00  0.00000000000E+00  0.89589075108E+03  0.89589075108E+03  0.00000000000E+00 0. -1.
         21   -1    0    0  501  503 -0.00000000000E+00 -0.00000000000E+00 -0.55660588149E+03  0.55660588149E+03  0.00000000000E+00 0. -1.
    9000007    1    1    2  501    0 -0.55517125619E+02 -0.50268624852E+03 -0.12644160311E+03  0.65708682431E+03  0.40000000000E+03 0. -1.
   -9000007    1    1    2    0  502  0.55517125619E+02  0.50268624852E+03  0.46572647271E+03  0.79540980826E+03  0.40000000000E+03 0. -1.
<mgrwt>
<rscale>  2 0.64480665E+03</rscale>
<asrwt>0</asrwt>
<pdfrwt beam="1">  1       21 0.13782935E+00 0.64480665E+03</pdfrwt>
<pdfrwt beam="2">  1       21 0.85631674E-01 0.64480665E+03</pdfrwt>
<totfact> 0.33713699E+02</totfact>
</mgrwt>
</event>
<event>
 4    1  0.4832791E-002  0.4452446E+03  0.7818608E-02  0.1029150E+00
         21   -1    0    0  503  502  0.00000000000E+00  0.00000000000E+00  0.38950430799E+03  0.38950430799E+03  0.00000000000E+00 0. -1.
         21   -1    0    0  501  503 -0.00000000000E+00 -0.00000000000E+00 -0.75723996742E+03  0.75723996742E+03  0.00000000000E+00 0.  1.
    9000007    1    1    2  501    0  0.19313610081E+03 -0.30679124427E+02 -0.51218167861E+03  0.67865516577E+03  0.40000000000E+03 0.  1.
   -9000007    1    1    2    0  502 -0.19313610081E+03  0.30679124427E+02  0.14444601918E+03  0.46808910965E+03  0.40000000000E+03 0. -1.
<mgrwt>
<rscale>  2 0.44524461E+03</rscale>
<asrwt>0</asrwt>
<pdfrwt beam="1">  1       21 0.59923741E-01 0.44524461E+03</pdfrwt>
<pdfrwt beam="2">  1       21 0.11649845E+00 0.44524461E+03</pdfrwt>
<totfact> 0.12614400E+03</totfact>
</mgrwt>
</event>
<event>
 4    1  0.4832791E-002  0.4183573E+03  0.7818608E-02  0.1037602E+00
         21   -1    0    0  501  502  0.00000000000E+00  0.00000000000E+00  0.67941474666E+03  0.67941474666E+03  0.00000000000E+00 0. -1.
         21   -1    0    0  502  503 -0.00000000000E+00 -0.00000000000E+00 -0.29425354808E+03  0.29425354808E+03  0.00000000000E+00 0.  1.
    9000007    1    1    2  501    0 -0.75697969417E+02 -0.96398213306E+02  0.36438318961E+03  0.55479537397E+03  0.40000000000E+03 0. -1.
   -9000007    1    1    2    0  503  0.75697969417E+02  0.96398213306E+02  0.20778008963E+02  0.41887292078E+03  0.40000000000E+03 0.  1.
<mgrwt>
<rscale>  2 0.41835726E+03</rscale>
<asrwt>0</asrwt>
<pdfrwt beam="1">  1       21 0.10452535E+00 0.41835726E+03</pdfrwt>
<pdfrwt beam="2">  1       21 0.45269777E-01 0.41835726E+03</pdfrwt>
<totfact> 0.30401376E+03</totfact>
</mgrwt>
</event>
<event>
 4    1  0.4832791E-002  0.4348887E+03  0.7818608E-02  0.1032327E+00
         21   -1    0    0  503  502  0.00000000000E+00  0.00000000000E+00  0.11500460669E+04  0.11500460669E+04  0.00000000000E+00 0. -1.
         21   -1    0    0  501  503 -0.00000000000E+00 -0.00000000000E+00 -0.25734458701E+03  0.25734458701E+03  0.00000000000E+00 0. -1.
    9000007    1    1    2  501    0  0.43224746956E+02  0.16510542169E+03  0.23569172616E+02  0.43552690493E+03  0.40000000000E+03 0. -1.
   -9000007    1    1    2    0  502 -0.43224746956E+02 -0.16510542169E+03  0.86913230723E+03  0.97186374893E+03  0.40000000000E+03 0. -1.
<mgrwt>
<rscale>  2 0.43488870E+03</rscale>
<asrwt>0</asrwt>
<pdfrwt beam="1">  1       21 0.17693016E+00 0.43488870E+03</pdfrwt>
<pdfrwt beam="2">  1       21 0.39591475E-01 0.43488870E+03</pdfrwt>
<totfact> 0.99259630E+02</totfact>
</mgrwt>
</event>
<event>
 4    1  0.4832791E-002  0.4018356E+03  0.7818608E-02  0.1043146E+00
         21   -1    0    0  503  502  0.00000000000E+00  0.00000000000E+00  0.22516575442E+04  0.22516575442E+04  0.00000000000E+00 0. -1.
         21   -1    0    0  501  503 -0.00000000000E+00 -0.00000000000E+00 -0.16205088605E+03  0.16205088605E+03  0.00000000000E+00 0. -1.
    9000007    1    1    2  501    0  0.35345016635E+01  0.38201227157E+02  0.14371897970E+03  0.42676336720E+03  0.40000000000E+03 0. -1.
   -9000007    1    1    2    0  502 -0.35345016635E+01 -0.38201227157E+02  0.19458876784E+04  0.19869450630E+04  0.40000000000E+03 0. -1.
<mgrwt>
<rscale>  2 0.40183557E+03</rscale>
<asrwt>0</asrwt>
<pdfrwt beam="1">  1       21 0.34640883E+00 0.40183557E+03</pdfrwt>
<pdfrwt beam="2">  1       21 0.24930907E-01 0.40183557E+03</pdfrwt>
<totfact> 0.22343179E+02</totfact>
</mgrwt>
</event>
<event>
 4    1  0.4832791E-002  0.4512719E+03  0.7818608E-02  0.1027343E+00
         21   -1    0    0  503  502  0.00000000000E+00  0.00000000000E+00  0.53390447783E+03  0.53390447783E+03  0.00000000000E+00 0. -1.
         21   -1    0    0  501  503 -0.00000000000E+00 -0.00000000000E+00 -0.47850782235E+03  0.47850782235E+03  0.00000000000E+00 0. -1.
    9000007    1    1    2  501    0 -0.18986198743E+03  0.87170930139E+02  0.25570440718E+03  0.51868206947E+03  0.40000000000E+03 0. -1.
   -9000007    1    1    2    0  502  0.18986198743E+03 -0.87170930139E+02 -0.20030775170E+03  0.49373023071E+03  0.40000000000E+03 0. -1.
<mgrwt>
<rscale>  2 0.45127192E+03</rscale>
<asrwt>0</asrwt>
<pdfrwt beam="1">  1       21 0.82139150E-01 0.45127192E+03</pdfrwt>
<pdfrwt beam="2">  1       21 0.73616588E-01 0.45127192E+03</pdfrwt>
<totfact> 0.18498977E+03</totfact>
</mgrwt>
</event>
<event>
 4    1  0.4832791E-002  0.4542934E+03  0.7818608E-02  0.1026449E+00
         21   -1    0    0  501  502  0.00000000000E+00  0.00000000000E+00  0.40936727040E+03  0.40936727040E+03  0.00000000000E+00 0.  1.
         21   -1    0    0  502  503 -0.00000000000E+00 -0.00000000000E+00 -0.64370628562E+03  0.64370628562E+03  0.00000000000E+00 0. -1.
    9000007    1    1    2  501    0 -0.19636154311E+03 -0.88456729691E+02  0.12799622538E+03  0.47198038344E+03  0.40000000000E+03 0.  1.
   -9000007    1    1    2    0  503  0.19636154311E+03  0.88456729691E+02 -0.36233524060E+03  0.58109317258E+03  0.40000000000E+03 0. -1.
<mgrwt>
<rscale>  2 0.45429335E+03</rscale>
<asrwt>0</asrwt>
<pdfrwt beam="1">  1       21 0.62979580E-01 0.45429335E+03</pdfrwt>
<pdfrwt beam="2">  1       21 0.99031736E-01 0.45429335E+03</pdfrwt>
<totfact> 0.16826934E+03</totfact>
</mgrwt>
</event>
<event>
 4    1  0.4832791E-002  0.4477293E+03  0.7818608E-02  0.1028401E+00
         21   -1    0    0  501  502  0.00000000000E+00  0.00000000000E+00  0.54760639830E+03  0.54760639830E+03  0.00000000000E+00 0.  1.
         21   -1    0    0  502  503 -0.00000000000E+00 -0.00000000000E+00 -0.40309363615E+03  0.40309363615E+03  0.00000000000E+00 0. -1.
    9000007    1    1    2  501    0  0.10345654810E+03 -0.17250596648E+03  0.21632110954E+03  0.49724881925E+03  0.40000000000E+03 0.  1.
   -9000007    1    1    2    0  503 -0.10345654810E+03  0.17250596648E+03 -0.71808347395E+02  0.45345121520E+03  0.40000000000E+03 0. -1.
<mgrwt>
<rscale>  2 0.44772934E+03</rscale>
<asrwt>0</asrwt>
<pdfrwt beam="1">  1       21 0.84247138E-01 0.44772934E+03</pdfrwt>
<pdfrwt beam="2">  1       21 0.62014406E-01 0.44772934E+03</pdfrwt>
<totfact> 0.25631251E+03</totfact>
</mgrwt>
</event>
<event>
 4    1  0.4832791E-002  0.4041724E+03  0.7818608E-02  0.1042344E+00
         21   -1    0    0  503  502  0.00000000000E+00  0.00000000000E+00  0.74632937860E+03  0.74632937860E+03  0.00000000000E+00 0. -1.
         21   -1    0    0  501  503 -0.00000000000E+00 -0.00000000000E+00 -0.21893386283E+03  0.21893386283E+03  0.00000000000E+00 0. -1.
    9000007    1    1    2  501    0  0.56977200300E+02 -0.10436761385E+02  0.27138441937E+03  0.48683141889E+03  0.40000000000E+03 0.  1.
   -9000007    1    1    2    0  502 -0.56977200300E+02  0.10436761385E+02  0.25601109639E+03  0.47843182254E+03  0.40000000000E+03 0.  1.
<mgrwt>
<rscale>  2 0.40417240E+03</rscale>
<asrwt>0</asrwt>
<pdfrwt beam="1">  1       21 0.11481990E+00 0.40417240E+03</pdfrwt>
<pdfrwt beam="2">  1       21 0.33682133E-01 0.40417240E+03</pdfrwt>
<totfact> 0.44421730E+03</totfact>
</mgrwt>
</event>
<event>
 4    1  0.4832791E-002  0.4172666E+03  0.7818608E-02  0.1037960E+00
         21   -1    0    0  503  502  0.00000000000E+00  0.00000000000E+00  0.68898741970E+02  0.68898741970E+02  0.00000000000E+00 0. -1.
         21   -1    0    0  501  503 -0.00000000000E+00 -0.00000000000E+00 -0.25642116492E+04  0.25642116492E+04  0.00000000000E+00 0. -1.
    9000007    1    1    2  501    0  0.11752950576E+03 -0.17268725787E+02 -0.14061236652E+04  0.14667294077E+04  0.40000000000E+03 0. -1.
   -9000007    1    1    2    0  502 -0.11752950576E+03  0.17268725787E+02 -0.10891892420E+04  0.11663809834E+04  0.40000000000E+03 0. -1.
<mgrwt>
<rscale>  2 0.41726657E+03</rscale>
<asrwt>0</asrwt>
<pdfrwt beam="1">  1       21 0.10599805E-01 0.41726657E+03</pdfrwt>
<pdfrwt beam="2">  1       21 0.39449415E+00 0.41726657E+03</pdfrwt>
<totfact> 0.54792392E+02</totfact>
</mgrwt>
</event>
<event>
 4    1  0.4832791E-002  0.4866952E+03  0.7818608E-02  0.1017311E+00
         21   -1    0    0  503  502  0.00000000000E+00  0.00000000000E+00  0.66929051730E+03  0.66929051730E+03  0.00000000000E+00 0.  1.
         21   -1    0    0  501  503 -0.00000000000E+00 -0.00000000000E+00 -0.55755544498E+03  0.55755544498E+03  0.00000000000E+00 0.  1.
    9000007    1    1    2  501    0  0.25180685256E+03 -0.11604123326E+03 -0.31485376753E+03  0.57965951535E+03  0.40000000000E+03 0.  1.
   -9000007    1    1    2    0  502 -0.25180685256E+03  0.11604123326E+03  0.42658883984E+03  0.64718644693E+03  0.40000000000E+03 0.  1.
<mgrwt>
<rscale>  2 0.48669524E+03</rscale>
<asrwt>0</asrwt>
<pdfrwt beam="1">  1       21 0.10296777E+00 0.48669524E+03</pdfrwt>
<pdfrwt beam="2">  1       21 0.85777761E-01 0.48669524E+03</pdfrwt>
<totfact> 0.74771178E+02</totfact>
</mgrwt>
</event>
<event>
 4    1  0.4832791E-002  0.4564970E+03  0.7818608E-02  0.1025802E+00
         21   -1    0    0  503  502  0.00000000000E+00  0.00000000000E+00  0.77524803210E+03  0.77524803210E+03  0.00000000000E+00 0.  1.
         21   -1    0    0  501  503 -0.00000000000E+00 -0.00000000000E+00 -0.28584330867E+03  0.28584330867E+03  0.00000000000E+00 0. -1.
    9000007    1    1    2  501    0 -0.21110406154E+03 -0.61842872073E+02  0.37423815270E+03  0.59029116592E+03  0.40000000000E+03 0.  1.
   -9000007    1    1    2    0  502  0.21110406154E+03  0.61842872073E+02  0.11516657073E+03  0.47080017485E+03  0.40000000000E+03 0. -1.
<mgrwt>
<rscale>  2 0.45649695E+03</rscale>
<asrwt>0</asrwt>
<pdfrwt beam="1">  1       21 0.11926893E+00 0.45649695E+03</pdfrwt>
<pdfrwt beam="2">  1       21 0.43975894E-01 0.45649695E+03</pdfrwt>
<totfact> 0.22930620E+03</totfact>
</mgrwt>
</event>
<event>
 4    1  0.4832791E-002  0.4138962E+03  0.7818608E-02  0.1039071E+00
         21   -1    0    0  501  502  0.00000000000E+00  0.00000000000E+00  0.78099492570E+03  0.78099492570E+03  0.00000000000E+00 0. -1.
         21   -1    0    0  502  503 -0.00000000000E+00 -0.00000000000E+00 -0.37502369303E+03  0.37502369303E+03  0.00000000000E+00 0. -1.
    9000007    1    1    2  501    0 -0.10172275310E+03 -0.31024641932E+02  0.57539037313E+03  0.70879060970E+03  0.40000000000E+03 0. -1.
   -9000007    1    1    2    0  503  0.10172275310E+03  0.31024641932E+02 -0.16941914046E+03  0.44722800903E+03  0.40000000000E+03 0. -1.
<mgrwt>
<rscale>  2 0.41389618E+03</rscale>
<asrwt>0</asrwt>
<pdfrwt beam="1">  1       21 0.12015307E+00 0.41389618E+03</pdfrwt>
<pdfrwt beam="2">  1       21 0.57695953E-01 0.41389618E+03</pdfrwt>
<totfact> 0.12843407E+03</totfact>
</mgrwt>
</event>
<event>
 4    1  0.4832791E-002  0.5122068E+03  0.7818608E-02  0.1010641E+00
         21   -1    0    0  501  502  0.00000000000E+00  0.00000000000E+00  0.74138014166E+03  0.74138014166E+03  0.00000000000E+00 0.  1.
         21   -1    0    0  502  503 -0.00000000000E+00 -0.00000000000E+00 -0.40517024960E+03  0.40517024960E+03  0.00000000000E+00 0.  1.
    9000007    1    1    2  501    0  0.17359851945E+03  0.26873659182E+03  0.37208302528E+03  0.63308891907E+03  0.40000000000E+03 0.  1.
   -9000007    1    1    2    0  503 -0.17359851945E+03 -0.26873659182E+03 -0.35873133227E+02  0.51346147219E+03  0.40000000000E+03 0.  1.
<mgrwt>
<rscale>  2 0.51220680E+03</rscale>
<asrwt>0</asrwt>
<pdfrwt beam="1">  1       21 0.11405848E+00 0.51220680E+03</pdfrwt>
<pdfrwt beam="2">  1       21 0.62333884E-01 0.51220680E+03</pdfrwt>
<totfact> 0.11888214E+03</totfact>
</mgrwt>
</event>
<event>
 4    1  0.4832791E-002  0.4525357E+03  0.7818608E-02  0.1026969E+00
         21   -1    0    0  503  502  0.00000000000E+00  0.00000000000E+00  0.79226503159E+03  0.79226503159E+03  0.00000000000E+00 0. -1.
         21   -1    0    0  501  503 -0.00000000000E+00 -0.00000000000E+00 -0.26529993099E+03  0.26529993099E+03  0.00000000000E+00 0. -1.
    9000007    1    1    2  501    0 -0.60705148346E+02  0.20273983442E+03  0.17873208629E+03  0.48655288938E+03  0.40000000000E+03 0.  1.
   -9000007    1    1    2    0  502  0.60705148346E+02 -0.20273983442E+03  0.34823301431E+03  0.57101207321E+03  0.40000000000E+03 0.  1.
<mgrwt>
<rscale>  2 0.45253570E+03</rscale>
<asrwt>0</asrwt>
<pdfrwt beam="1">  1       21 0.12188693E+00 0.45253570E+03</pdfrwt>
<pdfrwt beam="2">  1       21 0.40815374E-01 0.45253570E+03</pdfrwt>
<totfact> 0.25368448E+03</totfact>
</mgrwt>
</event>
<event>
 4    1  0.4832791E-002  0.5358125E+03  0.7818608E-02  0.1004832E+00
         21   -1    0    0  503  502  0.00000000000E+00  0.00000000000E+00  0.29640977201E+03  0.29640977201E+03  0.00000000000E+00 0. -1.
         21   -1    0    0  501  503 -0.00000000000E+00 -0.00000000000E+00 -0.10285845623E+04  0.10285845623E+04  0.00000000000E+00 0. -1.
    9000007    1    1    2  501    0 -0.31691168322E+03 -0.16328522238E+03 -0.52610746332E+03  0.75092219422E+03  0.40000000000E+03 0. -1.
   -9000007    1    1    2    0  502  0.31691168322E+03  0.16328522238E+03 -0.20606732699E+03  0.57407214012E+03  0.40000000000E+03 0. -1.
<mgrwt>
<rscale>  2 0.53581254E+03</rscale>
<asrwt>0</asrwt>
<pdfrwt beam="1">  1       21 0.45601503E-01 0.53581254E+03</pdfrwt>
<pdfrwt beam="2">  1       21 0.15824378E+00 0.53581254E+03</pdfrwt>
<totfact> 0.97478319E+02</totfact>
</mgrwt>
</event>
<event>
 4    1  0.4832791E-002  0.4725633E+03  0.7818608E-02  0.1021199E+00
         21   -1    0    0  503  502  0.00000000000E+00  0.00000000000E+00  0.51744640940E+03  0.51744640940E+03  0.00000000000E+00 0. -1.
         21   -1    0    0  501  503 -0.00000000000E+00 -0.00000000000E+00 -0.56060868492E+03  0.56060868492E+03  0.00000000000E+00 0. -1.
    9000007    1    1    2  501    0 -0.22545398674E+03  0.11174333771E+03 -0.28018523307E+03  0.54938132339E+03  0.40000000000E+03 0. -1.
   -9000007    1    1    2    0  502  0.22545398674E+03 -0.11174333771E+03  0.23702295755E+03  0.52867377093E+03  0.40000000000E+03 0. -1.
<mgrwt>
<rscale>  2 0.47256330E+03</rscale>
<asrwt>0</asrwt>
<pdfrwt beam="1">  1       21 0.79607140E-01 0.47256330E+03</pdfrwt>
<pdfrwt beam="2">  1       21 0.86247490E-01 0.47256330E+03</pdfrwt>
<totfact> 0.13685613E+03</totfact>
</mgrwt>
</event>
<event>
 4    1  0.4832791E-002  0.4465184E+03  0.7818608E-02  0.1028765E+00
         21   -1    0    0  503  502  0.00000000000E+00  0.00000000000E+00  0.16492885858E+03  0.16492885858E+03  0.00000000000E+00 0. -1.
         21   -1    0    0  501  503 -0.00000000000E+00 -0.00000000000E+00 -0.12393322960E+04  0.12393322960E+04  0.00000000000E+00 0. -1.
    9000007    1    1    2  501    0  0.87486675018E+02 -0.17811450509E+03 -0.64726837789E+03  0.78634283124E+03  0.40000000000E+03 0. -1.
   -9000007    1    1    2    0  502 -0.87486675018E+02  0.17811450509E+03 -0.42713505949E+03  0.61791832330E+03  0.40000000000E+03 0. -1.
<mgrwt>
<rscale>  2 0.44651842E+03</rscale>
<asrwt>0</asrwt>
<pdfrwt beam="1">  1       21 0.25373670E-01 0.44651842E+03</pdfrwt>
<pdfrwt beam="2">  1       21 0.19066651E+00 0.44651842E+03</pdfrwt>
<totfact> 0.19287876E+03</totfact>
</mgrwt>
</event>
<event>
 4    1  0.4832791E-002  0.5646694E+03  0.7818608E-02  0.9981544E-01
         21   -1    0    0  503  502  0.00000000000E+00  0.00000000000E+00  0.24378182415E+04  0.24378182415E+04  0.00000000000E+00 0.  1.
         21   -1    0    0  501  503 -0.00000000000E+00 -0.00000000000E+00 -0.21566949870E+03  0.21566949870E+03  0.00000000000E+00 0.  1.
    9000007    1    1    2  501    0 -0.35605985662E+03 -0.17908900115E+03  0.27876568496E+03  0.62973152926E+03  0.40000000000E+03 0.  1.
   -9000007    1    1    2    0  502  0.35605985662E+03  0.17908900115E+03  0.19433830578E+04  0.20237562110E+04  0.40000000000E+03 0.  1.
<mgrwt>
<rscale>  2 0.56466937E+03</rscale>
<asrwt>0</asrwt>
<pdfrwt beam="1">  1       21 0.37504894E+00 0.56466937E+03</pdfrwt>
<pdfrwt beam="2">  1       21 0.33179925E-01 0.56466937E+03</pdfrwt>
<totfact> 0.76112148E+01</totfact>
</mgrwt>
</event>
<event>
 4    1  0.4832791E-002  0.5933066E+03  0.7818608E-02  0.9919391E-01
         21   -1    0    0  501  502  0.00000000000E+00  0.00000000000E+00  0.58523639020E+03  0.58523639020E+03  0.00000000000E+00 0.  1.
         21   -1    0    0  502  503 -0.00000000000E+00 -0.00000000000E+00 -0.63176018689E+03  0.63176018689E+03  0.00000000000E+00 0. -1.
    9000007    1    1    2  501    0  0.32128842250E+03  0.29797053015E+03  0.10993829951E+03  0.60340626196E+03  0.40000000000E+03 0.  1.
   -9000007    1    1    2    0  503 -0.32128842250E+03 -0.29797053015E+03 -0.15646209621E+03  0.61359031513E+03  0.40000000000E+03 0. -1.
<mgrwt>
<rscale>  2 0.59330657E+03</rscale>
<asrwt>0</asrwt>
<pdfrwt beam="1">  1       21 0.90036368E-01 0.59330657E+03</pdfrwt>
<pdfrwt beam="2">  1       21 0.97193875E-01 0.59330657E+03</pdfrwt>
<totfact> 0.73923135E+02</totfact>
</mgrwt>
</event>
<event>
 4    1  0.4832791E-002  0.4321494E+03  0.7818608E-02  0.1033183E+00
         21   -1    0    0  501  502  0.00000000000E+00  0.00000000000E+00  0.13828278874E+03  0.13828278874E+03  0.00000000000E+00 0.  1.
         21   -1    0    0  502  503 -0.00000000000E+00 -0.00000000000E+00 -0.21522218679E+04  0.21522218679E+04  0.00000000000E+00 0. -1.
    9000007    1    1    2  501    0 -0.15110552539E+03  0.62611688677E+02 -0.30798877455E+03  0.53066956631E+03  0.40000000000E+03 0.  1.
   -9000007    1    1    2    0  503  0.15110552539E+03 -0.62611688677E+02 -0.17059503046E+04  0.17598350903E+04  0.40000000000E+03 0. -1.
<mgrwt>
<rscale>  2 0.43214940E+03</rscale>
<asrwt>0</asrwt>
<pdfrwt beam="1">  1       21 0.21274275E-01 0.43214940E+03</pdfrwt>
<pdfrwt beam="2">  1       21 0.33111105E+00 0.43214940E+03</pdfrwt>
<totfact> 0.36802294E+02</totfact>
</mgrwt>
</event>
<event>
 4    1  0.4832791E-002  0.4815968E+03  0.7818608E-02  0.1018697E+00
         21   -1    0    0  503  502  0.00000000000E+00  0.00000000000E+00  0.48798078891E+03  0.48798078891E+03  0.00000000000E+00 0.  1.
         21   -1    0    0  501  503 -0.00000000000E+00 -0.00000000000E+00 -0.16404027560E+04  0.16404027560E+04  0.00000000000E+00 0. -1.
    9000007    1    1    2  501    0  0.20802451166E+03  0.16929651191E+03 -0.14730767346E+04  0.15498033980E+04  0.40000000000E+03 0. -1.
   -9000007    1    1    2    0  502 -0.20802451166E+03 -0.16929651191E+03  0.32065476756E+03  0.57858014687E+03  0.40000000000E+03 0.  1.
<mgrwt>
<rscale>  2 0.48159683E+03</rscale>
<asrwt>0</asrwt>
<pdfrwt beam="1">  1       21 0.75073966E-01 0.48159683E+03</pdfrwt>
<pdfrwt beam="2">  1       21 0.25236966E+00 0.48159683E+03</pdfrwt>
<totfact> 0.78269823E+01</totfact>
</mgrwt>
</event>
<event>
 4    1  0.4832791E-002  0.4581374E+03  0.7818608E-02  0.1025323E+00
         21   -1    0    0  503  502  0.00000000000E+00  0.00000000000E+00  0.22097365550E+03  0.22097365550E+03  0.00000000000E+00 0. -1.
         21   -1    0    0  501  503 -0.00000000000E+00 -0.00000000000E+00 -0.10266002131E+04  0.10266002131E+04  0.00000000000E+00 0.  1.
    9000007    1    1    2  501    0 -0.64315830638E+02 -0.21390024155E+03 -0.23224399080E+03  0.51364103289E+03  0.40000000000E+03 0. -1.
   -9000007    1    1    2    0  502  0.64315830638E+02  0.21390024155E+03 -0.57338256677E+03  0.73393283567E+03  0.40000000000E+03 0.  1.
<mgrwt>
<rscale>  2 0.45813736E+03</rscale>
<asrwt>0</asrwt>
<pdfrwt beam="1">  1       21 0.33995947E-01 0.45813736E+03</pdfrwt>
<pdfrwt beam="2">  1       21 0.15793849E+00 0.45813736E+03</pdfrwt>
<totfact> 0.18483802E+03</totfact>
</mgrwt>
</event>
<event>
 4    1  0.4832791E-002  0.4028412E+03  0.7818608E-02  0.1042800E+00
         21   -1    0    0  503  502  0.00000000000E+00  0.00000000000E+00  0.18719388288E+03  0.18719388288E+03  0.00000000000E+00 0. -1.
         21   -1    0    0  501  503 -0.00000000000E+00 -0.00000000000E+00 -0.12486052067E+04  0.12486052067E+04  0.00000000000E+00 0. -1.
    9000007    1    1    2  501    0 -0.17968854968E+02  0.44250755441E+02 -0.92762947083E+03  0.10113245989E+04  0.40000000000E+03 0. -1.
   -9000007    1    1    2    0  502  0.17968854968E+02 -0.44250755441E+02 -0.13378185304E+03  0.42447449076E+03  0.40000000000E+03 0. -1.
<mgrwt>
<rscale>  2 0.40284117E+03</rscale>
<asrwt>0</asrwt>
<pdfrwt beam="1">  1       21 0.28799059E-01 0.40284117E+03</pdfrwt>
<pdfrwt beam="2">  1       21 0.19209311E+00 0.40284117E+03</pdfrwt>
<totfact> 0.15010609E+03</totfact>
</mgrwt>
</event>
<event>
 4    1  0.4832791E-002  0.5533279E+03  0.7818608E-02  0.1000727E+00
         21   -1    0    0  503  502  0.00000000000E+00  0.00000000000E+00  0.15861122260E+04  0.15861122260E+04  0.00000000000E+00 0.  1.
         21   -1    0    0  501  503 -0.00000000000E+00 -0.00000000000E+00 -0.28045626316E+03  0.28045626316E+03  0.00000000000E+00 0. -1.
    9000007    1    1    2  501    0 -0.37521579129E+02  0.38047855042E+03  0.11738969262E+04  0.12977695440E+04  0.40000000000E+03 0.  1.
   -9000007    1    1    2    0  502  0.37521579129E+02 -0.38047855042E+03  0.13175903672E+03  0.56879894514E+03  0.40000000000E+03 0. -1.
<mgrwt>
<rscale>  2 0.55332793E+03</rscale>
<asrwt>0</asrwt>
<pdfrwt beam="1">  1       21 0.24401726E+00 0.55332793E+03</pdfrwt>
<pdfrwt beam="2">  1       21 0.43147119E-01 0.55332793E+03</pdfrwt>
<totfact> 0.28476433E+02</totfact>
</mgrwt>
</event>
<event>
 4    1  0.4832791E-002  0.4002510E+03  0.7818608E-02  0.1043693E+00
         21   -1    0    0  503  502  0.00000000000E+00  0.00000000000E+00  0.31783159466E+03  0.31783159466E+03  0.00000000000E+00 0. -1.
         21   -1    0    0  501  503 -0.00000000000E+00 -0.00000000000E+00 -0.87989979283E+03  0.87989979283E+03  0.00000000000E+00 0. -1.
    9000007    1    1    2  501    0  0.70608185735E+01  0.12290006689E+02 -0.67243681160E+03  0.78254211709E+03  0.40000000000E+03 0. -1.
   -9000007    1    1    2    0  502 -0.70608185735E+01 -0.12290006689E+02  0.11036861343E+03  0.41518927040E+03  0.40000000000E+03 0. -1.
<mgrwt>
<rscale>  2 0.40025105E+03</rscale>
<asrwt>0</asrwt>
<pdfrwt beam="1">  1       21 0.48897169E-01 0.40025105E+03</pdfrwt>
<pdfrwt beam="2">  1       21 0.13536920E+00 0.40025105E+03</pdfrwt>
<totfact> 0.13550965E+03</totfact>
</mgrwt>
</event>
<event>
 4    1  0.4832791E-002  0.4609824E+03  0.7818608E-02  0.1024497E+00
         21   -1    0    0  503  502  0.00000000000E+00  0.00000000000E+00  0.21025362110E+04  0.21025362110E+04  0.00000000000E+00 0.  1.
         21   -1    0    0  501  503 -0.00000000000E+00 -0.00000000000E+00 -0.28957488895E+03  0.28957488895E+03  0.00000000000E+00 0.  1.
    9000007    1    1    2  501    0 -0.20874256702E+02  0.22818645109E+03 -0.58528447773E+02  0.46468308582E+03  0.40000000000E+03 0.  1.
   -9000007    1    1    2    0  502  0.20874256702E+02 -0.22818645109E+03  0.18714897698E+04  0.19274280141E+04  0.40000000000E+03 0.  1.
<mgrwt>
<rscale>  2 0.46098242E+03</rscale>
<asrwt>0</asrwt>
<pdfrwt beam="1">  1       21 0.32346710E+00 0.46098242E+03</pdfrwt>
<pdfrwt beam="2">  1       21 0.44549984E-01 0.46098242E+03</pdfrwt>
<totfact> 0.91948108E+01</totfact>
</mgrwt>
</event>
<event>
 4    1  0.4832791E-002  0.4347844E+03  0.7818608E-02  0.1032359E+00
         21   -1    0    0  501  502  0.00000000000E+00  0.00000000000E+00  0.45984558237E+03  0.45984558237E+03  0.00000000000E+00 0. -1.
         21   -1    0    0  502  503 -0.00000000000E+00 -0.00000000000E+00 -0.15836829469E+04  0.15836829469E+04  0.00000000000E+00 0. -1.
    9000007    1    1    2  501    0  0.13725452711E+03 -0.10098826401E+03  0.31728687360E+03  0.53824566402E+03  0.40000000000E+03 0. -1.
   -9000007    1    1    2    0  503 -0.13725452711E+03  0.10098826401E+03 -0.14411242381E+04  0.15052828652E+04  0.40000000000E+03 0. -1.
<mgrwt>
<rscale>  2 0.43478435E+03</rscale>
<asrwt>0</asrwt>
<pdfrwt beam="1">  1       21 0.70745475E-01 0.43478435E+03</pdfrwt>
<pdfrwt beam="2">  1       21 0.24364353E+00 0.43478435E+03</pdfrwt>
<totfact> 0.10426764E+02</totfact>
</mgrwt>
</event>
<event>
 4    1  0.4832791E-002  0.4257591E+03  0.7818608E-02  0.1035208E+00
         21   -1    0    0  501  502  0.00000000000E+00  0.00000000000E+00  0.15549034317E+03  0.15549034317E+03  0.00000000000E+00 0. -1.
         21   -1    0    0  502  503 -0.00000000000E+00 -0.00000000000E+00 -0.19106254048E+04  0.19106254048E+04  0.00000000000E+00 0. -1.
    9000007    1    1    2  501    0 -0.50556385591E+01  0.14575764686E+03 -0.23256157186E+03  0.48513476046E+03  0.40000000000E+03 0. -1.
   -9000007    1    1    2    0  503  0.50556385591E+01 -0.14575764686E+03 -0.15225734898E+04  0.15809809875E+04  0.40000000000E+03 0. -1.
<mgrwt>
<rscale>  2 0.42575915E+03</rscale>
<asrwt>0</asrwt>
<pdfrwt beam="1">  1       21 0.23921591E-01 0.42575915E+03</pdfrwt>
<pdfrwt beam="2">  1       21 0.29394237E+00 0.42575915E+03</pdfrwt>
<totfact> 0.49336262E+02</totfact>
</mgrwt>
</event>
<event>
 4    1  0.4832791E-002  0.8802267E+03  0.7818608E-02  0.9450642E-01
         21   -1    0    0  501  502  0.00000000000E+00  0.00000000000E+00  0.40552617338E+03  0.40552617338E+03  0.00000000000E+00 0. -1.
         21   -1    0    0  502  503 -0.00000000000E+00 -0.00000000000E+00 -0.19304005268E+04  0.19304005268E+04  0.00000000000E+00 0.  1.
    9000007    1    1    2  501    0  0.78404275310E+03  0.87149492373E+01 -0.88072101955E+03  0.12451781010E+04  0.40000000000E+03 0.  1.
   -9000007    1    1    2    0  503 -0.78404275310E+03 -0.87149492373E+01 -0.64415333390E+03  0.10907485992E+04  0.40000000000E+03 0. -1.
<mgrwt>
<rscale>  2 0.88022667E+03</rscale>
<asrwt>0</asrwt>
<pdfrwt beam="1">  1       21 0.62388642E-01 0.88022667E+03</pdfrwt>
<pdfrwt beam="2">  1       21 0.29698470E+00 0.88022667E+03</pdfrwt>
<totfact> 0.53447747E+01</totfact>
</mgrwt>
</event>
<event>
 4    1  0.4832791E-002  0.4093870E+03  0.7818608E-02  0.1040577E+00
         21   -1    0    0  501  502  0.00000000000E+00  0.00000000000E+00  0.12273655614E+04  0.12273655614E+04  0.00000000000E+00 0.  1.
         21   -1    0    0  502  503 -0.00000000000E+00 -0.00000000000E+00 -0.17552346161E+03  0.17552346161E+03  0.00000000000E+00 0. -1.
    9000007    1    1    2  501    0 -0.77797390485E+02  0.39310194963E+02  0.85644723846E+03  0.94926266000E+03  0.40000000000E+03 0.  1.
   -9000007    1    1    2    0  503  0.77797390485E+02 -0.39310194963E+02  0.19539486135E+03  0.45362636303E+03  0.40000000000E+03 0. -1.
<mgrwt>
<rscale>  2 0.40938701E+03</rscale>
<asrwt>0</asrwt>
<pdfrwt beam="1">  1       21 0.18882547E+00 0.40938701E+03</pdfrwt>
<pdfrwt beam="2">  1       21 0.27003610E-01 0.40938701E+03</pdfrwt>
<totfact> 0.17872758E+03</totfact>
</mgrwt>
</event>
<event>
 4    1  0.4832791E-002  0.4180345E+03  0.7818608E-02  0.1037708E+00
         21   -1    0    0  501  502  0.00000000000E+00  0.00000000000E+00  0.11330117151E+04  0.11330117151E+04  0.00000000000E+00 0.  1.
         21   -1    0    0  502  503 -0.00000000000E+00 -0.00000000000E+00 -0.15471821437E+03  0.15471821437E+03  0.00000000000E+00 0.  1.
    9000007    1    1    2  501    0 -0.97080012030E+02  0.72995402344E+02  0.45325601673E+03  0.61659863299E+03  0.40000000000E+03 0.  1.
   -9000007    1    1    2    0  503  0.97080012030E+02 -0.72995402344E+02  0.52503748398E+03  0.67113129646E+03  0.40000000000E+03 0.  1.
<mgrwt>
<rscale>  2 0.41803452E+03</rscale>
<asrwt>0</asrwt>
<pdfrwt beam="1">  1       21 0.17430949E+00 0.41803452E+03</pdfrwt>
<pdfrwt beam="2">  1       21 0.23802803E-01 0.41803452E+03</pdfrwt>
<totfact> 0.28752033E+03</totfact>
</mgrwt>
</event>
<event>
 4    1  0.4832791E-002  0.4430658E+03  0.7818608E-02  0.1029810E+00
         21   -1    0    0  503  502  0.00000000000E+00  0.00000000000E+00  0.36183615969E+03  0.36183615969E+03  0.00000000000E+00 0. -1.
         21   -1    0    0  501  503 -0.00000000000E+00 -0.00000000000E+00 -0.65526336297E+03  0.65526336297E+03  0.00000000000E+00 0. -1.
    9000007    1    1    2  501    0 -0.19036251187E+03  0.83340424020E+01 -0.35764914733E+03  0.56940342006E+03  0.40000000000E+03 0. -1.
   -9000007    1    1    2    0  502  0.19036251187E+03 -0.83340424020E+01  0.64221944049E+02  0.44769610260E+03  0.40000000000E+03 0. -1.
<mgrwt>
<rscale>  2 0.44306584E+03</rscale>
<asrwt>0</asrwt>
<pdfrwt beam="1">  1       21 0.55667101E-01 0.44306584E+03</pdfrwt>
<pdfrwt beam="2">  1       21 0.10080975E+00 0.44306584E+03</pdfrwt>
<totfact> 0.21197726E+03</totfact>
</mgrwt>
</event>
<event>
 4    1  0.4832791E-002  0.4807782E+03  0.7818608E-02  0.1018922E+00
         21   -1    0    0  501  502  0.00000000000E+00  0.00000000000E+00  0.53308299435E+03  0.53308299435E+03  0.00000000000E+00 0.  1.
         21   -1    0    0  502  503 -0.00000000000E+00 -0.00000000000E+00 -0.66619734306E+03  0.66619734306E+03  0.00000000000E+00 0. -1.
    9000007    1    1    2  501    0 -0.49751214779E+01 -0.26668884969E+03  0.28775538857E+03  0.56031317853E+03  0.40000000000E+03 0.  1.
   -9000007    1    1    2    0  503  0.49751214779E+01  0.26668884969E+03 -0.42086973728E+03  0.63896715889E+03  0.40000000000E+03 0. -1.
<mgrwt>
<rscale>  2 0.48077822E+03</rscale>
<asrwt>0</asrwt>
<pdfrwt beam="1">  1       21 0.82012768E-01 0.48077822E+03</pdfrwt>
<pdfrwt beam="2">  1       21 0.10249190E+00 0.48077822E+03</pdfrwt>
<totfact> 0.84190521E+02</totfact>
</mgrwt>
</event>
<event>
 4    1  0.4832791E-002  0.4378278E+03  0.7818608E-02  0.1031415E+00
         21   -1    0    0  503  502  0.00000000000E+00  0.00000000000E+00  0.87394805662E+03  0.87394805662E+03  0.00000000000E+00 0.  1.
         21   -1    0    0  501  503 -0.00000000000E+00 -0.00000000000E+00 -0.23510927505E+03  0.23510927505E+03  0.00000000000E+00 0.  1.
    9000007    1    1    2  501    0  0.16627528421E+03  0.63605741378E+02  0.17581324609E+03  0.47180870909E+03  0.40000000000E+03 0.  1.
   -9000007    1    1    2    0  502 -0.16627528421E+03 -0.63605741378E+02  0.46302553547E+03  0.63724862258E+03  0.40000000000E+03 0.  1.
<mgrwt>
<rscale>  2 0.43782777E+03</rscale>
<asrwt>0</asrwt>
<pdfrwt beam="1">  1       21 0.13445355E+00 0.43782777E+03</pdfrwt>
<pdfrwt beam="2">  1       21 0.36170658E-01 0.43782777E+03</pdfrwt>
<totfact> 0.25352501E+03</totfact>
</mgrwt>
</event>
<event>
 4    1  0.4832791E-002  0.4575793E+03  0.7818608E-02  0.1025486E+00
         21   -1    0    0  503  502  0.00000000000E+00  0.00000000000E+00  0.55110971777E+03  0.55110971777E+03  0.00000000000E+00 0.  1.
         21   -1    0    0  501  503 -0.00000000000E+00 -0.00000000000E+00 -0.38883131488E+03  0.38883131488E+03  0.00000000000E+00 0. -1.
    9000007    1    1    2  501    0  0.11882195837E+03  0.18777681302E+03  0.15227831925E+03  0.48225250213E+03  0.40000000000E+03 0.  1.
   -9000007    1    1    2    0  502 -0.11882195837E+03 -0.18777681302E+03  0.10000083647E+02  0.45768853052E+03  0.40000000000E+03 0. -1.
<mgrwt>
<rscale>  2 0.45757927E+03</rscale>
<asrwt>0</asrwt>
<pdfrwt beam="1">  1       21 0.84786110E-01 0.45757927E+03</pdfrwt>
<pdfrwt beam="2">  1       21 0.59820202E-01 0.45757927E+03</pdfrwt>
<totfact> 0.27235949E+03</totfact>
</mgrwt>
</event>
<event>
 4    1  0.4832791E-002  0.4545237E+03  0.7818608E-02  0.1026382E+00
         21   -1    0    0  501  502  0.00000000000E+00  0.00000000000E+00  0.14814046570E+03  0.14814046570E+03  0.00000000000E+00 0.  1.
         21   -1    0    0  502  503 -0.00000000000E+00 -0.00000000000E+00 -0.14517667902E+04  0.14517667902E+04  0.00000000000E+00 0.  1.
    9000007    1    1    2  501    0  0.90254638287E+02 -0.19607634540E+03 -0.81059940801E+03  0.92933483375E+03  0.40000000000E+03 0. -1.
   -9000007    1    1    2    0  503 -0.90254638287E+02  0.19607634540E+03 -0.49302691645E+03  0.67057242212E+03  0.40000000000E+03 0. -1.
<mgrwt>
<rscale>  2 0.45452374E+03</rscale>
<asrwt>0</asrwt>
<pdfrwt beam="1">  1       21 0.22790841E-01 0.45452374E+03</pdfrwt>
<pdfrwt beam="2">  1       21 0.22334874E+00 0.45452374E+03</pdfrwt>
<totfact> 0.14429604E+03</totfact>
</mgrwt>
</event>
<event>
 4    1  0.4832791E-002  0.4508600E+03  0.7818608E-02  0.1027466E+00
         21   -1    0    0  501  502  0.00000000000E+00  0.00000000000E+00  0.83152625554E+03  0.83152625554E+03  0.00000000000E+00 0. -1.
         21   -1    0    0  502  503 -0.00000000000E+00 -0.00000000000E+00 -0.26148776070E+03  0.26148776070E+03  0.00000000000E+00 0. -1.
    9000007    1    1    2  501    0  0.85520139399E+02  0.18963393638E+03  0.42447988583E+03  0.61923977387E+03  0.40000000000E+03 0. -1.
   -9000007    1    1    2    0  503 -0.85520139399E+02 -0.18963393638E+03  0.14555860902E+03  0.47377424237E+03  0.40000000000E+03 0. -1.
<mgrwt>
<rscale>  2 0.45085998E+03</rscale>
<asrwt>0</asrwt>
<pdfrwt beam="1">  1       21 0.12792711E+00 0.45085998E+03</pdfrwt>
<pdfrwt beam="2">  1       21 0.40228887E-01 0.45085998E+03</pdfrwt>
<totfact> 0.23095646E+03</totfact>
</mgrwt>
</event>
<event>
 4    1  0.4832791E-002  0.5141131E+03  0.7818608E-02  0.1010159E+00
         21   -1    0    0  503  502  0.00000000000E+00  0.00000000000E+00  0.99532024271E+03  0.99532024271E+03  0.00000000000E+00 0.  1.
         21   -1    0    0  501  503 -0.00000000000E+00 -0.00000000000E+00 -0.27830814663E+03  0.27830814663E+03  0.00000000000E+00 0. -1.
    9000007    1    1    2  501    0 -0.27819747411E+03 -0.16406847193E+03  0.22218656782E+03  0.56007068215E+03  0.40000000000E+03 0. -1.
   -9000007    1    1    2    0  502  0.27819747411E+03  0.16406847193E+03  0.49482552826E+03  0.71355770720E+03  0.40000000000E+03 0.  1.
<mgrwt>
<rscale>  2 0.51411312E+03</rscale>
<asrwt>0</asrwt>
<pdfrwt beam="1">  1       21 0.15312619E+00 0.51411312E+03</pdfrwt>
<pdfrwt beam="2">  1       21 0.42816639E-01 0.51411312E+03</pdfrwt>
<totfact> 0.12280429E+03</totfact>
</mgrwt>
</event>
<event>
 4    1  0.4832791E-002  0.4433296E+03  0.7818608E-02  0.1029730E+00
         21   -1    0    0  503  502  0.00000000000E+00  0.00000000000E+00  0.21660482580E+03  0.21660482580E+03  0.00000000000E+00 0. -1.
         21   -1    0    0  501  503 -0.00000000000E+00 -0.00000000000E+00 -0.18197094023E+04  0.18197094023E+04  0.00000000000E+00 0. -1.
    9000007    1    1    2  501    0 -0.56895788147E+02 -0.18249387624E+03 -0.15224796845E+04  0.15857129423E+04  0.40000000000E+03 0. -1.
   -9000007    1    1    2    0  502  0.56895788147E+02  0.18249387624E+03 -0.80624891997E+02  0.45060128582E+03  0.40000000000E+03 0. -1.
<mgrwt>
<rscale>  2 0.44332961E+03</rscale>
<asrwt>0</asrwt>
<pdfrwt beam="1">  1       21 0.33323819E-01 0.44332961E+03</pdfrwt>
<pdfrwt beam="2">  1       21 0.27995529E+00 0.44332961E+03</pdfrwt>
<totfact> 0.30821778E+02</totfact>
</mgrwt>
</event>
<event>
 4    1  0.4832791E-002  0.4528215E+03  0.7818608E-02  0.1026884E+00
         21   -1    0    0  501  502  0.00000000000E+00  0.00000000000E+00  0.84478065732E+03  0.84478065732E+03  0.00000000000E+00 0. -1.
         21   -1    0    0  502  503 -0.00000000000E+00 -0.00000000000E+00 -0.25180585178E+03  0.25180585178E+03  0.00000000000E+00 0. -1.
    9000007    1    1    2  501    0 -0.20703722006E+03  0.46721522539E+02  0.40062366452E+03  0.60460452507E+03  0.40000000000E+03 0. -1.
   -9000007    1    1    2    0  503  0.20703722006E+03 -0.46721522539E+02  0.19235114101E+03  0.49198198403E+03  0.40000000000E+03 0. -1.
<mgrwt>
<rscale>  2 0.45282150E+03</rscale>
<asrwt>0</asrwt>
<pdfrwt beam="1">  1       21 0.12996625E+00 0.45282150E+03</pdfrwt>
<pdfrwt beam="2">  1       21 0.38739362E-01 0.45282150E+03</pdfrwt>
<totfact> 0.23939533E+03</totfact>
</mgrwt>
</event>
<event>
 4    1  0.4832791E-002  0.6743967E+03  0.7818608E-02  0.9762048E-01
         21   -1    0    0  503  502  0.00000000000E+00  0.00000000000E+00  0.24172191801E+04  0.24172191801E+04  0.00000000000E+00 0. -1.
         21   -1    0    0  501  503 -0.00000000000E+00 -0.00000000000E+00 -0.27410040048E+03  0.27410040048E+03  0.00000000000E+00 0.  1.
    9000007    1    1    2  501    0  0.41321516826E+03 -0.35222743761E+03  0.18250758333E+04  0.19456908132E+04  0.40000000000E+03 0. -1.
   -9000007    1    1    2    0  502 -0.41321516826E+03  0.35222743761E+03  0.31804294628E+03  0.74562876739E+03  0.40000000000E+03 0.  1.
<mgrwt>
<rscale>  2 0.67439673E+03</rscale>
<asrwt>0</asrwt>
<pdfrwt beam="1">  1       21 0.37187986E+00 0.67439673E+03</pdfrwt>
<pdfrwt beam="2">  1       21 0.42169294E-01 0.67439673E+03</pdfrwt>
<totfact> 0.46097780E+01</totfact>
</mgrwt>
</event>
<event>
 4    1  0.4832791E-002  0.5370507E+03  0.7818608E-02  0.1004536E+00
         21   -1    0    0  503  502  0.00000000000E+00  0.00000000000E+00  0.73430612534E+03  0.73430612534E+03  0.00000000000E+00 0. -1.
         21   -1    0    0  501  503 -0.00000000000E+00 -0.00000000000E+00 -0.43429133029E+03  0.43429133029E+03  0.00000000000E+00 0. -1.
    9000007    1    1    2  501    0 -0.30336057695E+03  0.19077679021E+03 -0.30630434406E+02  0.53792345816E+03  0.40000000000E+03 0.  1.
   -9000007    1    1    2    0  502  0.30336057695E+03 -0.19077679021E+03  0.33064522945E+03  0.63067399747E+03  0.40000000000E+03 0.  1.
<mgrwt>
<rscale>  2 0.53705067E+03</rscale>
<asrwt>0</asrwt>
<pdfrwt beam="1">  1       21 0.11297017E+00 0.53705067E+03</pdfrwt>
<pdfrwt beam="2">  1       21 0.66814051E-01 0.53705067E+03</pdfrwt>
<totfact> 0.10343937E+03</totfact>
</mgrwt>
</event>
<event>
 4    1  0.4832791E-002  0.4195881E+03  0.7818608E-02  0.1037200E+00
         21   -1    0    0  501  502  0.00000000000E+00  0.00000000000E+00  0.27795327568E+03  0.27795327568E+03  0.00000000000E+00 0.  1.
         21   -1    0    0  502  503 -0.00000000000E+00 -0.00000000000E+00 -0.80007148406E+03  0.80007148406E+03  0.00000000000E+00 0.  1.
    9000007    1    1    2  501    0 -0.11341795578E+03  0.56484502741E+02 -0.15038262467E+02  0.41985745329E+03  0.40000000000E+03 0.  1.
   -9000007    1    1    2    0  503  0.11341795578E+03 -0.56484502741E+02 -0.50707994591E+03  0.65816730646E+03  0.40000000000E+03 0.  1.
<mgrwt>
<rscale>  2 0.41958805E+03</rscale>
<asrwt>0</asrwt>
<pdfrwt beam="1">  1       21 0.42762042E-01 0.41958805E+03</pdfrwt>
<pdfrwt beam="2">  1       21 0.12308792E+00 0.41958805E+03</pdfrwt>
<totfact> 0.22752006E+03</totfact>
</mgrwt>
</event>
<event>
 4    1  0.4832791E-002  0.5368274E+03  0.7818608E-02  0.1004590E+00
         21   -1    0    0  503  502  0.00000000000E+00  0.00000000000E+00  0.60776248325E+03  0.60776248325E+03  0.00000000000E+00 0. -1.
         21   -1    0    0  501  503 -0.00000000000E+00 -0.00000000000E+00 -0.51303564277E+03  0.51303564277E+03  0.00000000000E+00 0. -1.
    9000007    1    1    2  501    0  0.34748618483E+03  0.86237931659E+02 -0.10687705359E+03  0.54736307337E+03  0.40000000000E+03 0. -1.
   -9000007    1    1    2    0  502 -0.34748618483E+03 -0.86237931659E+02  0.20160389406E+03  0.57343505265E+03  0.40000000000E+03 0. -1.
<mgrwt>
<rscale>  2 0.53682737E+03</rscale>
<asrwt>0</asrwt>
<pdfrwt beam="1">  1       21 0.93501920E-01 0.53682737E+03</pdfrwt>
<pdfrwt beam="2">  1       21 0.78928561E-01 0.53682737E+03</pdfrwt>
<totfact> 0.11264652E+03</totfact>
</mgrwt>
</event>
<event>
 4    1  0.4832791E-002  0.4807017E+03  0.7818608E-02  0.1018942E+00
         21   -1    0    0  501  502  0.00000000000E+00  0.00000000000E+00  0.36418058441E+03  0.36418058441E+03  0.00000000000E+00 0. -1.
         21   -1    0    0  502  503 -0.00000000000E+00 -0.00000000000E+00 -0.77592320376E+03  0.77592320376E+03  0.00000000000E+00 0. -1.
    9000007    1    1    2  501    0  0.77235646250E+02 -0.25516424123E+03  0.37494074968E+02  0.48216173709E+03  0.40000000000E+03 0. -1.
   -9000007    1    1    2    0  503 -0.77235646250E+02  0.25516424123E+03 -0.44923669432E+03  0.65794205108E+03  0.40000000000E+03 0. -1.
<mgrwt>
<rscale>  2 0.48070171E+03</rscale>
<asrwt>0</asrwt>
<pdfrwt beam="1">  1       21 0.56027783E-01 0.48070171E+03</pdfrwt>
<pdfrwt beam="2">  1       21 0.11937280E+00 0.48070171E+03</pdfrwt>
<totfact> 0.13543724E+03</totfact>
</mgrwt>
</event>
<event>
 4    1  0.4832791E-002  0.4126586E+03  0.7818608E-02  0.1039483E+00
         21   -1    0    0  503  502  0.00000000000E+00  0.00000000000E+00  0.38001336183E+03  0.38001336183E+03  0.00000000000E+00 0.  1.
         21   -1    0    0  501  503 -0.00000000000E+00 -0.00000000000E+00 -0.95525426511E+03  0.95525426511E+03  0.00000000000E+00 0.  1.
    9000007    1    1    2  501    0  0.60059669797E+02 -0.81731114152E+02 -0.77407841994E+03  0.87720267850E+03  0.40000000000E+03 0.  1.
   -9000007    1    1    2    0  502 -0.60059669797E+02  0.81731114152E+02  0.19883751666E+03  0.45806494844E+03  0.40000000000E+03 0.  1.
<mgrwt>
<rscale>  2 0.41265862E+03</rscale>
<asrwt>0</asrwt>
<pdfrwt beam="1">  1       21 0.58463594E-01 0.41265862E+03</pdfrwt>
<pdfrwt beam="2">  1       21 0.14696220E+00 0.41265862E+03</pdfrwt>
<totfact> 0.73812127E+02</totfact>
</mgrwt>
</event>
<event>
 4    1  0.4832791E-002  0.4136058E+03  0.7818608E-02  0.1039168E+00
         21   -1    0    0  503  502  0.00000000000E+00  0.00000000000E+00  0.28251817823E+03  0.28251817823E+03  0.00000000000E+00 0. -1.
         21   -1    0    0  501  503 -0.00000000000E+00 -0.00000000000E+00 -0.65055467281E+03  0.65055467281E+03  0.00000000000E+00 0. -1.
    9000007    1    1    2  501    0  0.88643850127E+02  0.56675030779E+02 -0.30676999277E+03  0.51495399769E+03  0.40000000000E+03 0.  1.
   -9000007    1    1    2    0  502 -0.88643850127E+02 -0.56675030779E+02 -0.61266501817E+02  0.41811885335E+03  0.40000000000E+03 0.  1.
<mgrwt>
<rscale>  2 0.41360584E+03</rscale>
<asrwt>0</asrwt>
<pdfrwt beam="1">  1       21 0.43464336E-01 0.41360584E+03</pdfrwt>
<pdfrwt beam="2">  1       21 0.10008533E+00 0.41360584E+03</pdfrwt>
<totfact> 0.36865773E+03</totfact>
</mgrwt>
</event>
<event>
 4    1  0.4832791E-002  0.4403810E+03  0.7818608E-02  0.1030630E+00
         21   -1    0    0  501  502  0.00000000000E+00  0.00000000000E+00  0.11278688255E+04  0.11278688255E+04  0.00000000000E+00 0. -1.
         21   -1    0    0  502  503 -0.00000000000E+00 -0.00000000000E+00 -0.18094951445E+03  0.18094951445E+03  0.00000000000E+00 0. -1.
    9000007    1    1    2  501    0 -0.88074620558E+02  0.16179702875E+03  0.32750598746E+03  0.54881289081E+03  0.40000000000E+03 0.  1.
   -9000007    1    1    2    0  503  0.88074620558E+02 -0.16179702875E+03  0.61941332362E+03  0.76000544918E+03  0.40000000000E+03 0.  1.
<mgrwt>
<rscale>  2 0.44038099E+03</rscale>
<asrwt>0</asrwt>
<pdfrwt beam="1">  1       21 0.17351828E+00 0.44038099E+03</pdfrwt>
<pdfrwt beam="2">  1       21 0.27838388E-01 0.44038099E+03</pdfrwt>
<totfact> 0.21264222E+03</totfact>
</mgrwt>
</event>
<event>
 4    1  0.4832791E-002  0.4271392E+03  0.7818608E-02  0.1034767E+00
         21   -1    0    0  503  502  0.00000000000E+00  0.00000000000E+00  0.29749279064E+03  0.29749279064E+03  0.00000000000E+00 0. -1.
         21   -1    0    0  501  503 -0.00000000000E+00 -0.00000000000E+00 -0.67275521003E+03  0.67275521003E+03  0.00000000000E+00 0. -1.
    9000007    1    1    2  501    0 -0.54164343436E+02  0.13969309671E+03 -0.43395403141E+02  0.42933797687E+03  0.40000000000E+03 0. -1.
   -9000007    1    1    2    0  502  0.54164343436E+02 -0.13969309671E+03 -0.33186701626E+03  0.54091002380E+03  0.40000000000E+03 0. -1.
<mgrwt>
<rscale>  2 0.42713925E+03</rscale>
<asrwt>0</asrwt>
<pdfrwt beam="1">  1       21 0.45768122E-01 0.42713925E+03</pdfrwt>
<pdfrwt beam="2">  1       21 0.10350080E+00 0.42713925E+03</pdfrwt>
<totfact> 0.30336963E+03</totfact>
</mgrwt>
</event>
<event>
 4    1  0.4832791E-002  0.5212368E+03  0.7818608E-02  0.1008380E+00
         21   -1    0    0  501  502  0.00000000000E+00  0.00000000000E+00  0.25071078562E+03  0.25071078562E+03  0.00000000000E+00 0. -1.
         21   -1    0    0  502  503 -0.00000000000E+00 -0.00000000000E+00 -0.11210759737E+04  0.11210759737E+04  0.00000000000E+00 0. -1.
    9000007    1    1    2  501    0  0.17749594014E+03 -0.28316595535E+03 -0.30989463362E+03  0.60640122937E+03  0.40000000000E+03 0. -1.
   -9000007    1    1    2    0  503 -0.17749594014E+03  0.28316595535E+03 -0.56047055444E+03  0.76538552993E+03  0.40000000000E+03 0. -1.
<mgrwt>
<rscale>  2 0.52123677E+03</rscale>
<asrwt>0</asrwt>
<pdfrwt beam="1">  1       21 0.38570891E-01 0.52123677E+03</pdfrwt>
<pdfrwt beam="2">  1       21 0.17247322E+00 0.52123677E+03</pdfrwt>
<totfact> 0.10878443E+03</totfact>
</mgrwt>
</event>
<event>
 4    1  0.4832791E-002  0.5016472E+03  0.7818608E-02  0.1013350E+00
         21   -1    0    0  503  502  0.00000000000E+00  0.00000000000E+00  0.21059470852E+04  0.21059470852E+04  0.00000000000E+00 0. -1.
         21   -1    0    0  501  503 -0.00000000000E+00 -0.00000000000E+00 -0.16687245173E+03  0.16687245173E+03  0.00000000000E+00 0. -1.
    9000007    1    1    2  501    0 -0.18294491599E+03 -0.24120757030E+03  0.36401668318E+03  0.61980487243E+03  0.40000000000E+03 0. -1.
   -9000007    1    1    2    0  502  0.18294491599E+03  0.24120757030E+03  0.15750579503E+04  0.16530146645E+04  0.40000000000E+03 0. -1.
<mgrwt>
<rscale>  2 0.50164722E+03</rscale>
<asrwt>0</asrwt>
<pdfrwt beam="1">  1       21 0.32399184E+00 0.50164722E+03</pdfrwt>
<pdfrwt beam="2">  1       21 0.25672686E-01 0.50164722E+03</pdfrwt>
<totfact> 0.27124461E+02</totfact>
</mgrwt>
</event>
<event>
 4    1  0.4832791E-002  0.4103654E+03  0.7818608E-02  0.1040248E+00
         21   -1    0    0  501  502  0.00000000000E+00  0.00000000000E+00  0.70564290835E+03  0.70564290835E+03  0.00000000000E+00 0.  1.
         21   -1    0    0  502  503 -0.00000000000E+00 -0.00000000000E+00 -0.30682105190E+03  0.30682105190E+03  0.00000000000E+00 0.  1.
    9000007    1    1    2  501    0  0.30753790793E+02 -0.86336259372E+02  0.43803581269E+03  0.60022922166E+03  0.40000000000E+03 0.  1.
   -9000007    1    1    2    0  503 -0.30753790793E+02  0.86336259372E+02 -0.39213956245E+02  0.41223473858E+03  0.40000000000E+03 0.  1.
<mgrwt>
<rscale>  2 0.41036538E+03</rscale>
<asrwt>0</asrwt>
<pdfrwt beam="1">  1       21 0.10856045E+00 0.41036538E+03</pdfrwt>
<pdfrwt beam="2">  1       21 0.47203239E-01 0.41036538E+03</pdfrwt>
<totfact> 0.25446538E+03</totfact>
</mgrwt>
</event>
<event>
 4    1  0.4832791E-002  0.4590244E+03  0.7818608E-02  0.1025065E+00
         21   -1    0    0  501  502  0.00000000000E+00  0.00000000000E+00  0.99344666873E+02  0.99344666873E+02  0.00000000000E+00 0. -1.
         21   -1    0    0  502  503 -0.00000000000E+00 -0.00000000000E+00 -0.21209975968E+04  0.21209975968E+04  0.00000000000E+00 0. -1.
    9000007    1    1    2  501    0 -0.23007837348E+02 -0.22399568431E+03 -0.10169317107E+04  0.11157300442E+04  0.40000000000E+03 0. -1.
   -9000007    1    1    2    0  503  0.23007837348E+02  0.22399568431E+03 -0.10047212192E+04  0.11046122195E+04  0.40000000000E+03 0. -1.
<mgrwt>
<rscale>  2 0.45902443E+03</rscale>
<asrwt>0</asrwt>
<pdfrwt beam="1">  1       21 0.15283795E-01 0.45902443E+03</pdfrwt>
<pdfrwt beam="2">  1       21 0.32630733E+00 0.45902443E+03</pdfrwt>
<totfact> 0.72231550E+02</totfact>
</mgrwt>
</event>
<event>
 4    1  0.4832791E-002  0.4491223E+03  0.7818608E-02  0.1027984E+00
         21   -1    0    0  503  502  0.00000000000E+00  0.00000000000E+00  0.11789846554E+03  0.11789846554E+03  0.00000000000E+00 0. -1.
         21   -1    0    0  501  503 -0.00000000000E+00 -0.00000000000E+00 -0.17111712952E+04  0.17111712952E+04  0.00000000000E+00 0. -1.
    9000007    1    1    2  501    0 -0.69184778365E+02  0.19215698318E+03 -0.78482873864E+03  0.90424940627E+03  0.40000000000E+03 0. -1.
   -9000007    1    1    2    0  502  0.69184778365E+02 -0.19215698318E+03 -0.80844409103E+03  0.92482035448E+03  0.40000000000E+03 0. -1.
<mgrwt>
<rscale>  2 0.44912230E+03</rscale>
<asrwt>0</asrwt>
<pdfrwt beam="1">  1       21 0.18138225E-01 0.44912230E+03</pdfrwt>
<pdfrwt beam="2">  1       21 0.26325714E+00 0.44912230E+03</pdfrwt>
<totfact> 0.12652067E+03</totfact>
</mgrwt>
</event>
<event>
 4    1  0.4832791E-002  0.4435612E+03  0.7818608E-02  0.1029660E+00
         21   -1    0    0  501  502  0.00000000000E+00  0.00000000000E+00  0.98861360331E+03  0.98861360331E+03  0.00000000000E+00 0. -1.
         21   -1    0    0  502  503 -0.00000000000E+00 -0.00000000000E+00 -0.22425144062E+03  0.22425144062E+03  0.00000000000E+00 0. -1.
    9000007    1    1    2  501    0  0.90497402361E+02  0.16898746492E+03  0.58562735583E+03  0.73464681516E+03  0.40000000000E+03 0.  1.
   -9000007    1    1    2    0  503 -0.90497402361E+02 -0.16898746492E+03  0.17873480686E+03  0.47821822876E+03  0.40000000000E+03 0.  1.
<mgrwt>
<rscale>  2 0.44356121E+03</rscale>
<asrwt>0</asrwt>
<pdfrwt beam="1">  1       21 0.15209440E+00 0.44356121E+03</pdfrwt>
<pdfrwt beam="2">  1       21 0.34500222E-01 0.44356121E+03</pdfrwt>
<totfact> 0.20019073E+03</totfact>
</mgrwt>
</event>
<event>
 4    1  0.4832791E-002  0.4512752E+03  0.7818608E-02  0.1027342E+00
         21   -1    0    0  501  502  0.00000000000E+00  0.00000000000E+00  0.13965794898E+03  0.13965794898E+03  0.00000000000E+00 0.  1.
         21   -1    0    0  502  503 -0.00000000000E+00 -0.00000000000E+00 -0.21290038611E+04  0.21290038611E+04  0.00000000000E+00 0.  1.
    9000007    1    1    2  501    0  0.18958240212E+03 -0.87794151932E+02 -0.35795201491E+03  0.57600255666E+03  0.40000000000E+03 0.  1.
   -9000007    1    1    2    0  503 -0.18958240212E+03  0.87794151932E+02 -0.16313938972E+04  0.16926592534E+04  0.40000000000E+03 0.  1.
<mgrwt>
<rscale>  2 0.45127519E+03</rscale>
<asrwt>0</asrwt>
<pdfrwt beam="1">  1       21 0.21485837E-01 0.45127519E+03</pdfrwt>
<pdfrwt beam="2">  1       21 0.32753908E+00 0.45127519E+03</pdfrwt>
<totfact> 0.37511936E+02</totfact>
</mgrwt>
</event>
<event>
 4    1  0.4832791E-002  0.5715852E+03  0.7818608E-02  0.9966177E-01
         21   -1    0    0  501  502  0.00000000000E+00  0.00000000000E+00  0.31125986373E+03  0.31125986373E+03  0.00000000000E+00 0.  1.
         21   -1    0    0  502  503 -0.00000000000E+00 -0.00000000000E+00 -0.15396370220E+04  0.15396370220E+04  0.00000000000E+00 0.  1.
    9000007    1    1    2  501    0  0.77577794237E+02  0.40086324166E+03 -0.92103339715E+02  0.57895826953E+03  0.40000000000E+03 0.  1.
   -9000007    1    1    2    0  503 -0.77577794237E+02 -0.40086324166E+03 -0.11362738186E+04  0.12719386162E+04  0.40000000000E+03 0.  1.
<mgrwt>
<rscale>  2 0.57158521E+03</rscale>
<asrwt>0</asrwt>
<pdfrwt beam="1">  1       21 0.47886132E-01 0.57158521E+03</pdfrwt>
<pdfrwt beam="2">  1       21 0.23686724E+00 0.57158521E+03</pdfrwt>
<totfact> 0.25144454E+02</totfact>
</mgrwt>
</event>
<event>
 4    1  0.4832791E-002  0.4150539E+03  0.7818608E-02  0.1038688E+00
         21   -1    0    0  503  502  0.00000000000E+00  0.00000000000E+00  0.53361591002E+03  0.53361591002E+03  0.00000000000E+00 0.  1.
         21   -1    0    0  501  503 -0.00000000000E+00 -0.00000000000E+00 -0.32423067958E+03  0.32423067958E+03  0.00000000000E+00 0.  1.
    9000007    1    1    2  501    0 -0.32703855129E+02 -0.10583086905E+03  0.76547881852E+02  0.42205366152E+03  0.40000000000E+03 0. -1.
   -9000007    1    1    2    0  502  0.32703855129E+02  0.10583086905E+03  0.13283734858E+03  0.43579292808E+03  0.40000000000E+03 0. -1.
<mgrwt>
<rscale>  2 0.41505387E+03</rscale>
<asrwt>0</asrwt>
<pdfrwt beam="1">  1       21 0.82094755E-01 0.41505387E+03</pdfrwt>
<pdfrwt beam="2">  1       21 0.49881643E-01 0.41505387E+03</pdfrwt>
<totfact> 0.44104620E+03</totfact>
</mgrwt>
</event>
<event>
 4    1  0.4832791E-002  0.4870436E+03  0.7818608E-02  0.1017217E+00
         21   -1    0    0  503  502  0.00000000000E+00  0.00000000000E+00  0.25187288458E+03  0.25187288458E+03  0.00000000000E+00 0.  1.
         21   -1    0    0  501  503 -0.00000000000E+00 -0.00000000000E+00 -0.94220458953E+03  0.94220458953E+03  0.00000000000E+00 0.  1.
    9000007    1    1    2  501    0 -0.12136945657E+03 -0.24996189156E+03 -0.33264966067E+03  0.58980275429E+03  0.40000000000E+03 0.  1.
   -9000007    1    1    2    0  502  0.12136945657E+03  0.24996189156E+03 -0.35768204427E+03  0.60427471982E+03  0.40000000000E+03 0.  1.
<mgrwt>
<rscale>  2 0.48704362E+03</rscale>
<asrwt>0</asrwt>
<pdfrwt beam="1">  1       21 0.38749674E-01 0.48704362E+03</pdfrwt>
<pdfrwt beam="2">  1       21 0.14495455E+00 0.48704362E+03</pdfrwt>
<totfact> 0.17701120E+03</totfact>
</mgrwt>
</event>
<event>
 4    1  0.4832791E-002  0.4106016E+03  0.7818608E-02  0.1040169E+00
         21   -1    0    0  503  502  0.00000000000E+00  0.00000000000E+00  0.57593952056E+03  0.57593952056E+03  0.00000000000E+00 0.  1.
         21   -1    0    0  501  503 -0.00000000000E+00 -0.00000000000E+00 -0.65313058606E+03  0.65313058606E+03  0.00000000000E+00 0.  1.
    9000007    1    1    2  501    0 -0.29437334146E+02  0.87904124458E+02 -0.49509526542E+03  0.64320526551E+03  0.40000000000E+03 0.  1.
   -9000007    1    1    2    0  502  0.29437334146E+02 -0.87904124458E+02  0.41790419992E+03  0.58586484111E+03  0.40000000000E+03 0.  1.
<mgrwt>
<rscale>  2 0.41060162E+03</rscale>
<asrwt>0</asrwt>
<pdfrwt beam="1">  1       21 0.88606080E-01 0.41060162E+03</pdfrwt>
<pdfrwt beam="2">  1       21 0.10048163E+00 0.41060162E+03</pdfrwt>
<totfact> 0.75997300E+02</totfact>
</mgrwt>
</event>
<event>
 4    1  0.4832791E-002  0.4874251E+03  0.7818608E-02  0.1017114E+00
         21   -1    0    0  503  502  0.00000000000E+00  0.00000000000E+00  0.16059253016E+04  0.16059253016E+04  0.00000000000E+00 0.  1.
         21   -1    0    0  501  503 -0.00000000000E+00 -0.00000000000E+00 -0.48897190299E+03  0.48897190299E+03  0.00000000000E+00 0. -1.
    9000007    1    1    2  501    0  0.25031328173E+01 -0.27852637779E+03 -0.31627991456E+03  0.58104749647E+03  0.40000000000E+03 0. -1.
   -9000007    1    1    2    0  502 -0.25031328173E+01  0.27852637779E+03  0.14332333132E+04  0.15138497082E+04  0.40000000000E+03 0.  1.
<mgrwt>
<rscale>  2 0.48742508E+03</rscale>
<asrwt>0</asrwt>
<pdfrwt beam="1">  1       21 0.24706543E+00 0.48742508E+03</pdfrwt>
<pdfrwt beam="2">  1       21 0.75226447E-01 0.48742508E+03</pdfrwt>
<totfact> 0.83719802E+01</totfact>
</mgrwt>
</event>
<event>
 4    1  0.4832791E-002  0.4413053E+03  0.7818608E-02  0.1030347E+00
         21   -1    0    0  503  502  0.00000000000E+00  0.00000000000E+00  0.92691254606E+02  0.92691254606E+02  0.00000000000E+00 0. -1.
         21   -1    0    0  501  503 -0.00000000000E+00 -0.00000000000E+00 -0.21355944661E+04  0.21355944661E+04  0.00000000000E+00 0. -1.
    9000007    1    1    2  501    0 -0.18360514111E+03  0.32241709241E+02 -0.87978263541E+03  0.98426005772E+03  0.40000000000E+03 0. -1.
   -9000007    1    1    2    0  502  0.18360514111E+03 -0.32241709241E+02 -0.11631205761E+04  0.12440256630E+04  0.40000000000E+03 0. -1.
<mgrwt>
<rscale>  2 0.44130531E+03</rscale>
<asrwt>0</asrwt>
<pdfrwt beam="1">  1       21 0.14260192E-01 0.44130531E+03</pdfrwt>
<pdfrwt beam="2">  1       21 0.32855301E+00 0.44130531E+03</pdfrwt>
<totfact> 0.80409060E+02</totfact>
</mgrwt>
</event>
<event>
 4    1  0.4832791E-002  0.5226233E+03  0.7818608E-02  0.1008037E+00
         21   -1    0    0  503  502  0.00000000000E+00  0.00000000000E+00  0.61449809512E+03  0.61449809512E+03  0.00000000000E+00 0.  1.
         21   -1    0    0  501  503 -0.00000000000E+00 -0.00000000000E+00 -0.45238488593E+03  0.45238488593E+03  0.00000000000E+00 0. -1.
    9000007    1    1    2  501    0  0.28384633512E+03 -0.18046145256E+03  0.15154992848E+03  0.54415297357E+03  0.40000000000E+03 0. -1.
   -9000007    1    1    2    0  502 -0.28384633512E+03  0.18046145256E+03  0.10563280718E+02  0.52273000748E+03  0.40000000000E+03 0.  1.
<mgrwt>
<rscale>  2 0.52262327E+03</rscale>
<asrwt>0</asrwt>
<pdfrwt beam="1">  1       21 0.94538168E-01 0.52262327E+03</pdfrwt>
<pdfrwt beam="2">  1       21 0.69597675E-01 0.52262327E+03</pdfrwt>
<totfact> 0.14693459E+03</totfact>
</mgrwt>
</event>
<event>
 4    1  0.4832791E-002  0.4874334E+03  0.7818608E-02  0.1017112E+00
         21   -1    0    0  501  502  0.00000000000E+00  0.00000000000E+00  0.11457744919E+04  0.11457744919E+04  0.00000000000E+00 0. -1.
         21   -1    0    0  502  503 -0.00000000000E+00 -0.00000000000E+00 -0.24733606686E+03  0.24733606686E+03  0.00000000000E+00 0. -1.
    9000007    1    1    2  501    0  0.25096539779E+03  0.12086236709E+03  0.72924310755E+03  0.87714699599E+03  0.40000000000E+03 0. -1.
   -9000007    1    1    2    0  503 -0.25096539779E+03 -0.12086236709E+03  0.16919531753E+03  0.51596356280E+03  0.40000000000E+03 0. -1.
<mgrwt>
<rscale>  2 0.48743342E+03</rscale>
<asrwt>0</asrwt>
<pdfrwt beam="1">  1       21 0.17627300E+00 0.48743342E+03</pdfrwt>
<pdfrwt beam="2">  1       21 0.38051703E-01 0.48743342E+03</pdfrwt>
<totfact> 0.10639222E+03</totfact>
</mgrwt>
</event>
<event>
 4    1  0.4832791E-002  0.4389387E+03  0.7818608E-02  0.1031073E+00
         21   -1    0    0  503  502  0.00000000000E+00  0.00000000000E+00  0.15086336353E+03  0.15086336353E+03  0.00000000000E+00 0.  1.
         21   -1    0    0  501  503 -0.00000000000E+00 -0.00000000000E+00 -0.12776971017E+04  0.12776971017E+04  0.00000000000E+00 0.  1.
    9000007    1    1    2  501    0  0.55863523913E+01 -0.18065421514E+03 -0.54793733108E+03  0.70207013295E+03  0.40000000000E+03 0.  1.
   -9000007    1    1    2    0  502 -0.55863523913E+01  0.18065421514E+03 -0.57889640712E+03  0.72649033232E+03  0.40000000000E+03 0.  1.
<mgrwt>
<rscale>  2 0.43893867E+03</rscale>
<asrwt>0</asrwt>
<pdfrwt beam="1">  1       21 0.23209748E-01 0.43893867E+03</pdfrwt>
<pdfrwt beam="2">  1       21 0.19656879E+00 0.43893867E+03</pdfrwt>
<totfact> 0.20978368E+03</totfact>
</mgrwt>
</event>
<event>
 4    1  0.4832791E-002  0.8395430E+03  0.7818608E-02  0.9504480E-01
         21   -1    0    0  503  502  0.00000000000E+00  0.00000000000E+00  0.39648794971E+03  0.39648794971E+03  0.00000000000E+00 0. -1.
         21   -1    0    0  501  503 -0.00000000000E+00 -0.00000000000E+00 -0.18537098850E+04  0.18537098850E+04  0.00000000000E+00 0. -1.
    9000007    1    1    2  501    0  0.63446045392E+03 -0.37721672205E+03 -0.95645331114E+03  0.12726489930E+04  0.40000000000E+03 0. -1.
   -9000007    1    1    2    0  502 -0.63446045392E+03  0.37721672205E+03 -0.50076862411E+03  0.97754884168E+03  0.40000000000E+03 0. -1.
<mgrwt>
<rscale>  2 0.83954304E+03</rscale>
<asrwt>0</asrwt>
<pdfrwt beam="1">  1       21 0.60998146E-01 0.83954304E+03</pdfrwt>
<pdfrwt beam="2">  1       21 0.28518614E+00 0.83954304E+03</pdfrwt>
<totfact> 0.67373137E+01</totfact>
</mgrwt>
</event>
<event>
 4    1  0.4832791E-002  0.5802061E+03  0.7818608E-02  0.9947345E-01
         21   -1    0    0  503  502  0.00000000000E+00  0.00000000000E+00  0.82655983443E+03  0.82655983443E+03  0.00000000000E+00 0.  1.
         21   -1    0    0  501  503 -0.00000000000E+00 -0.00000000000E+00 -0.80492877964E+03  0.80492877964E+03  0.00000000000E+00 0.  1.
    9000007    1    1    2  501    0 -0.19704130922E+03 -0.37123284278E+03 -0.56254342309E+03  0.80814244039E+03  0.40000000000E+03 0.  1.
   -9000007    1    1    2    0  502  0.19704130922E+03  0.37123284278E+03  0.58417447788E+03  0.82334617368E+03  0.40000000000E+03 0.  1.
<mgrwt>
<rscale>  2 0.58020609E+03</rscale>
<asrwt>0</asrwt>
<pdfrwt beam="1">  1       21 0.12716305E+00 0.58020609E+03</pdfrwt>
<pdfrwt beam="2">  1       21 0.12383520E+00 0.58020609E+03</pdfrwt>
<totfact> 0.17165501E+02</totfact>
</mgrwt>
</event>
<event>
 4    1  0.4832791E-002  0.5473964E+03  0.7818608E-02  0.1002098E+00
         21   -1    0    0  501  502  0.00000000000E+00  0.00000000000E+00  0.29739448967E+03  0.29739448967E+03  0.00000000000E+00 0.  1.
         21   -1    0    0  502  503 -0.00000000000E+00 -0.00000000000E+00 -0.10102845975E+04  0.10102845975E+04  0.00000000000E+00 0.  1.
    9000007    1    1    2  501    0  0.37296397891E+02 -0.37182229010E+03 -0.32249124371E+03  0.63532939408E+03  0.40000000000E+03 0.  1.
   -9000007    1    1    2    0  503 -0.37296397891E+02  0.37182229010E+03 -0.39039886415E+03  0.67234969312E+03  0.40000000000E+03 0.  1.
<mgrwt>
<rscale>  2 0.54739642E+03</rscale>
<asrwt>0</asrwt>
<pdfrwt beam="1">  1       21 0.45752998E-01 0.54739642E+03</pdfrwt>
<pdfrwt beam="2">  1       21 0.15542840E+00 0.54739642E+03</pdfrwt>
<totfact> 0.10134614E+03</totfact>
</mgrwt>
</event>
<event>
 4    1  0.4832791E-002  0.4850091E+03  0.7818608E-02  0.1017768E+00
         21   -1    0    0  501  502  0.00000000000E+00  0.00000000000E+00  0.37896710846E+03  0.37896710846E+03  0.00000000000E+00 0.  1.
         21   -1    0    0  502  503 -0.00000000000E+00 -0.00000000000E+00 -0.72971875930E+03  0.72971875930E+03  0.00000000000E+00 0.  1.
    9000007    1    1    2  501    0 -0.27390701414E+03 -0.14448665385E+02 -0.38961773285E+03  0.62212200900E+03  0.40000000000E+03 0.  1.
   -9000007    1    1    2    0  503  0.27390701414E+03  0.14448665385E+02  0.38866082012E+02  0.48656385877E+03  0.40000000000E+03 0.  1.
<mgrwt>
<rscale>  2 0.48500909E+03</rscale>
<asrwt>0</asrwt>
<pdfrwt beam="1">  1       21 0.58302632E-01 0.48500909E+03</pdfrwt>
<pdfrwt beam="2">  1       21 0.11226443E+00 0.48500909E+03</pdfrwt>
<totfact> 0.14468123E+03</totfact>
</mgrwt>
</event>
<event>
 4    1  0.4832791E-002  0.4393602E+03  0.7818608E-02  0.1030943E+00
         21   -1    0    0  503  502  0.00000000000E+00  0.00000000000E+00  0.47151464905E+03  0.47151464905E+03  0.00000000000E+00 0. -1.
         21   -1    0    0  501  503 -0.00000000000E+00 -0.00000000000E+00 -0.45039187792E+03  0.45039187792E+03  0.00000000000E+00 0. -1.
    9000007    1    1    2  501    0 -0.23781595072E+02  0.18019928832E+03 -0.12850396889E+03  0.45776699072E+03  0.40000000000E+03 0. -1.
   -9000007    1    1    2    0  502  0.23781595072E+02 -0.18019928832E+03  0.14962674002E+03  0.46413953625E+03  0.40000000000E+03 0. -1.
<mgrwt>
<rscale>  2 0.43936016E+03</rscale>
<asrwt>0</asrwt>
<pdfrwt beam="1">  1       21 0.72540715E-01 0.43936016E+03</pdfrwt>
<pdfrwt beam="2">  1       21 0.69291059E-01 0.43936016E+03</pdfrwt>
<totfact> 0.28332131E+03</totfact>
</mgrwt>
</event>
<event>
 4    1  0.4832791E-002  0.5515895E+03  0.7818608E-02  0.1001127E+00
         21   -1    0    0  503  502  0.00000000000E+00  0.00000000000E+00  0.20532225879E+03  0.20532225879E+03  0.00000000000E+00 0.  1.
         21   -1    0    0  501  503 -0.00000000000E+00 -0.00000000000E+00 -0.14890014486E+04  0.14890014486E+04  0.00000000000E+00 0.  1.
    9000007    1    1    2  501    0  0.37936753273E+03 -0.18199904928E+02 -0.70066649664E+03  0.89173118200E+03  0.40000000000E+03 0.  1.
   -9000007    1    1    2    0  502 -0.37936753273E+03  0.18199904928E+02 -0.58301269318E+03  0.80259252541E+03  0.40000000000E+03 0.  1.
<mgrwt>
<rscale>  2 0.55158949E+03</rscale>
<asrwt>0</asrwt>
<pdfrwt beam="1">  1       21 0.31588038E-01 0.55158949E+03</pdfrwt>
<pdfrwt beam="2">  1       21 0.22907716E+00 0.55158949E+03</pdfrwt>
<totfact> 0.67010517E+02</totfact>
</mgrwt>
</event>
<event>
 4    1  0.4832791E-002  0.4711408E+03  0.7818608E-02  0.1021599E+00
         21   -1    0    0  501  502  0.00000000000E+00  0.00000000000E+00  0.29761148898E+03  0.29761148898E+03  0.00000000000E+00 0.  1.
         21   -1    0    0  502  503 -0.00000000000E+00 -0.00000000000E+00 -0.14125534780E+04  0.14125534780E+04  0.00000000000E+00 0.  1.
    9000007    1    1    2  501    0  0.45955035382E+02 -0.24466673165E+03  0.29980159556E+02  0.47209372462E+03  0.40000000000E+03 0.  1.
   -9000007    1    1    2    0  503 -0.45955035382E+02  0.24466673165E+03 -0.11449221486E+04  0.12380712423E+04  0.40000000000E+03 0.  1.
<mgrwt>
<rscale>  2 0.47114082E+03</rscale>
<asrwt>0</asrwt>
<pdfrwt beam="1">  1       21 0.45786384E-01 0.47114082E+03</pdfrwt>
<pdfrwt beam="2">  1       21 0.21731592E+00 0.47114082E+03</pdfrwt>
<totfact> 0.38539943E+02</totfact>
</mgrwt>
</event>
<event>
 4    1  0.4832791E-002  0.4741892E+03  0.7818608E-02  0.1020744E+00
         21   -1    0    0  501  502  0.00000000000E+00  0.00000000000E+00  0.96362230177E+03  0.96362230177E+03  0.00000000000E+00 0.  1.
         21   -1    0    0  502  503 -0.00000000000E+00 -0.00000000000E+00 -0.24154253743E+03  0.24154253743E+03  0.00000000000E+00 0.  1.
    9000007    1    1    2  501    0  0.21106890194E+03  0.14249682477E+03  0.47205685334E+03  0.66909872158E+03  0.40000000000E+03 0.  1.
   -9000007    1    1    2    0  503 -0.21106890194E+03 -0.14249682477E+03  0.25002291100E+03  0.53606611762E+03  0.40000000000E+03 0.  1.
<mgrwt>
<rscale>  2 0.47418923E+03</rscale>
<asrwt>0</asrwt>
<pdfrwt beam="1">  1       21 0.14824958E+00 0.47418923E+03</pdfrwt>
<pdfrwt beam="2">  1       21 0.37160391E-01 0.47418923E+03</pdfrwt>
<totfact> 0.18237041E+03</totfact>
</mgrwt>
</event>
<event>
 4    1  0.4832791E-002  0.4125901E+03  0.7818608E-02  0.1039505E+00
         21   -1    0    0  503  502  0.00000000000E+00  0.00000000000E+00  0.14401141364E+04  0.14401141364E+04  0.00000000000E+00 0.  1.
         21   -1    0    0  501  503 -0.00000000000E+00 -0.00000000000E+00 -0.11900401562E+03  0.11900401562E+03  0.00000000000E+00 0.  1.
    9000007    1    1    2  501    0 -0.25890541737E+02 -0.97776518974E+02  0.59672996334E+03  0.72547723394E+03  0.40000000000E+03 0. -1.
   -9000007    1    1    2    0  502  0.25890541737E+02  0.97776518974E+02  0.72438015740E+03  0.83364091805E+03  0.40000000000E+03 0. -1.
<mgrwt>
<rscale>  2 0.41259007E+03</rscale>
<asrwt>0</asrwt>
<pdfrwt beam="1">  1       21 0.22155601E+00 0.41259007E+03</pdfrwt>
<pdfrwt beam="2">  1       21 0.18308311E-01 0.41259007E+03</pdfrwt>
<totfact> 0.22927883E+03</totfact>
</mgrwt>
</event>
<event>
 4    1  0.4832791E-002  0.4329171E+03  0.7818608E-02  0.1032942E+00
         21   -1    0    0  503  502  0.00000000000E+00  0.00000000000E+00  0.11066866487E+04  0.11066866487E+04  0.00000000000E+00 0. -1.
         21   -1    0    0  501  503 -0.00000000000E+00 -0.00000000000E+00 -0.19486560458E+03  0.19486560458E+03  0.00000000000E+00 0. -1.
    9000007    1    1    2  501    0  0.12100773550E+03 -0.11302368581E+03  0.22042285489E+03  0.48580187377E+03  0.40000000000E+03 0. -1.
   -9000007    1    1    2    0  502 -0.12100773550E+03  0.11302368581E+03  0.69139818925E+03  0.81575037953E+03  0.40000000000E+03 0. -1.
<mgrwt>
<rscale>  2 0.43291711E+03</rscale>
<asrwt>0</asrwt>
<pdfrwt beam="1">  1       21 0.17025948E+00 0.43291711E+03</pdfrwt>
<pdfrwt beam="2">  1       21 0.29979324E-01 0.43291711E+03</pdfrwt>
<totfact> 0.19449022E+03</totfact>
</mgrwt>
</event>
<event>
 4    1  0.4832791E-002  0.4547792E+03  0.7818608E-02  0.1026306E+00
         21   -1    0    0  501  502  0.00000000000E+00  0.00000000000E+00  0.45625336938E+03  0.45625336938E+03  0.00000000000E+00 0.  1.
         21   -1    0    0  502  503 -0.00000000000E+00 -0.00000000000E+00 -0.79957569139E+03  0.79957569139E+03  0.00000000000E+00 0.  1.
    9000007    1    1    2  501    0 -0.16495676556E+03 -0.14004778514E+03  0.24155339193E+03  0.51494869432E+03  0.40000000000E+03 0.  1.
   -9000007    1    1    2    0  503  0.16495676556E+03  0.14004778514E+03 -0.58487571395E+03  0.74088036645E+03  0.40000000000E+03 0.  1.
<mgrwt>
<rscale>  2 0.45477920E+03</rscale>
<asrwt>0</asrwt>
<pdfrwt beam="1">  1       21 0.70192827E-01 0.45477920E+03</pdfrwt>
<pdfrwt beam="2">  1       21 0.12301164E+00 0.45477920E+03</pdfrwt>
<totfact> 0.77006919E+02</totfact>
</mgrwt>
</event>
<event>
 4    1  0.4832791E-002  0.4256767E+03  0.7818608E-02  0.1035234E+00
         21   -1    0    0  503  502  0.00000000000E+00  0.00000000000E+00  0.12305393123E+03  0.12305393123E+03  0.00000000000E+00 0.  1.
         21   -1    0    0  501  503 -0.00000000000E+00 -0.00000000000E+00 -0.27893440691E+04  0.27893440691E+04  0.00000000000E+00 0.  1.
    9000007    1    1    2  501    0 -0.13584501517E+03  0.52409742674E+02 -0.23336790762E+04  0.23721843689E+04  0.40000000000E+03 0.  1.
   -9000007    1    1    2    0  502  0.13584501517E+03 -0.52409742674E+02 -0.33261106169E+03  0.54021363148E+03  0.40000000000E+03 0.  1.
<mgrwt>
<rscale>  2 0.42567670E+03</rscale>
<asrwt>0</asrwt>
<pdfrwt beam="1">  1       21 0.18931374E-01 0.42567670E+03</pdfrwt>
<pdfrwt beam="2">  1       21 0.42912986E+00 0.42567670E+03</pdfrwt>
<totfact> 0.11140945E+02</totfact>
</mgrwt>
</event>
<event>
 4    1  0.4832791E-002  0.4011781E+03  0.7818608E-02  0.1043373E+00
         21   -1    0    0  501  502  0.00000000000E+00  0.00000000000E+00  0.33584931668E+03  0.33584931668E+03  0.00000000000E+00 0. -1.
         21   -1    0    0  502  503 -0.00000000000E+00 -0.00000000000E+00 -0.63573965132E+03  0.63573965132E+03  0.00000000000E+00 0. -1.
    9000007    1    1    2  501    0  0.30572386201E+02  0.30309974472E+01 -0.39099399009E+03  0.56019653519E+03  0.40000000000E+03 0. -1.
   -9000007    1    1    2    0  503 -0.30572386201E+02 -0.30309974472E+01  0.91103655447E+02  0.41139243282E+03  0.40000000000E+03 0. -1.
<mgrwt>
<rscale>  2 0.40117809E+03</rscale>
<asrwt>0</asrwt>
<pdfrwt beam="1">  1       21 0.51669126E-01 0.40117809E+03</pdfrwt>
<pdfrwt beam="2">  1       21 0.97806100E-01 0.40117809E+03</pdfrwt>
<totfact> 0.27211041E+03</totfact>
</mgrwt>
</event>
<event>
 4    1  0.4832791E-002  0.4412858E+03  0.7818608E-02  0.1030353E+00
         21   -1    0    0  503  502  0.00000000000E+00  0.00000000000E+00  0.25048517941E+03  0.25048517941E+03  0.00000000000E+00 0. -1.
         21   -1    0    0  501  503 -0.00000000000E+00 -0.00000000000E+00 -0.95060640438E+03  0.95060640438E+03  0.00000000000E+00 0. -1.
    9000007    1    1    2  501    0 -0.51132363317E+02  0.17921676045E+03 -0.60638962494E+03  0.74996102768E+03  0.40000000000E+03 0. -1.
   -9000007    1    1    2    0  502  0.51132363317E+02 -0.17921676045E+03 -0.93731600033E+02  0.45113055610E+03  0.40000000000E+03 0. -1.
<mgrwt>
<rscale>  2 0.44128581E+03</rscale>
<asrwt>0</asrwt>
<pdfrwt beam="1">  1       21 0.38536181E-01 0.44128581E+03</pdfrwt>
<pdfrwt beam="2">  1       21 0.14624714E+00 0.44128581E+03</pdfrwt>
<totfact> 0.17793646E+03</totfact>
</mgrwt>
</event>
<event>
 4    1  0.4832791E-002  0.4544021E+03  0.7818608E-02  0.1026417E+00
         21   -1    0    0  501  502  0.00000000000E+00  0.00000000000E+00  0.13007500924E+03  0.13007500924E+03  0.00000000000E+00 0.  1.
         21   -1    0    0  502  503 -0.00000000000E+00 -0.00000000000E+00 -0.15874232680E+04  0.15874232680E+04  0.00000000000E+00 0. -1.
    9000007    1    1    2  501    0 -0.21301132598E+03  0.33278561138E+02 -0.72550697018E+03  0.85606171005E+03  0.40000000000E+03 0.  1.
   -9000007    1    1    2    0  503  0.21301132598E+03 -0.33278561138E+02 -0.73184128858E+03  0.86143656719E+03  0.40000000000E+03 0. -1.
<mgrwt>
<rscale>  2 0.45440212E+03</rscale>
<asrwt>0</asrwt>
<pdfrwt beam="1">  1       21 0.20011541E-01 0.45440212E+03</pdfrwt>
<pdfrwt beam="2">  1       21 0.24421895E+00 0.45440212E+03</pdfrwt>
<totfact> 0.13701288E+03</totfact>
</mgrwt>
</event>
<event>
 4    1  0.4832791E-002  0.5022801E+03  0.7818608E-02  0.1013185E+00
         21   -1    0    0  501  502  0.00000000000E+00  0.00000000000E+00  0.19773377933E+04  0.19773377933E+04  0.00000000000E+00 0.  1.
         21   -1    0    0  502  503 -0.00000000000E+00 -0.00000000000E+00 -0.12778382410E+03  0.12778382410E+03  0.00000000000E+00 0. -1.
    9000007    1    1    2  501    0 -0.26936341718E+03  0.14045880649E+03  0.96594120808E+03  0.10887275804E+04  0.40000000000E+03 0. -1.
   -9000007    1    1    2    0  503  0.26936341718E+03 -0.14045880649E+03  0.88361276107E+03  0.10163940370E+04  0.40000000000E+03 0.  1.
<mgrwt>
<rscale>  2 0.50228013E+03</rscale>
<asrwt>0</asrwt>
<pdfrwt beam="1">  1       21 0.30420579E+00 0.50228013E+03</pdfrwt>
<pdfrwt beam="2">  1       21 0.19659051E-01 0.50228013E+03</pdfrwt>
<totfact> 0.59802499E+02</totfact>
</mgrwt>
</event>
<event>
 4    1  0.4832791E-002  0.5139182E+03  0.7818608E-02  0.1010209E+00
         21   -1    0    0  501  502  0.00000000000E+00  0.00000000000E+00  0.47100975731E+03  0.47100975731E+03  0.00000000000E+00 0. -1.
         21   -1    0    0  502  503 -0.00000000000E+00 -0.00000000000E+00 -0.81701329651E+03  0.81701329651E+03  0.00000000000E+00 0. -1.
    9000007    1    1    2  501    0  0.20968679882E+03  0.24524144372E+03  0.18768857729E+03  0.54711874521E+03  0.40000000000E+03 0. -1.
   -9000007    1    1    2    0  503 -0.20968679882E+03 -0.24524144372E+03 -0.53369211648E+03  0.74090430861E+03  0.40000000000E+03 0. -1.
<mgrwt>
<rscale>  2 0.51391820E+03</rscale>
<asrwt>0</asrwt>
<pdfrwt beam="1">  1       21 0.72463040E-01 0.51391820E+03</pdfrwt>
<pdfrwt beam="2">  1       21 0.12569435E+00 0.51391820E+03</pdfrwt>
<totfact> 0.66182846E+02</totfact>
</mgrwt>
</event>
<event>
 4    1  0.4832791E-002  0.7613754E+03  0.7818608E-02  0.9617671E-01
         21   -1    0    0  503  502  0.00000000000E+00  0.00000000000E+00  0.32266421729E+03  0.32266421729E+03  0.00000000000E+00 0.  1.
         21   -1    0    0  501  503 -0.00000000000E+00 -0.00000000000E+00 -0.19981800539E+04  0.19981800539E+04  0.00000000000E+00 0. -1.
    9000007    1    1    2  501    0 -0.39560349147E+03  0.51302083204E+03 -0.46916870246E+03  0.89432195989E+03  0.40000000000E+03 0.  1.
   -9000007    1    1    2    0  502  0.39560349147E+03 -0.51302083204E+03 -0.12063471342E+04  0.14265223113E+04  0.40000000000E+03 0. -1.
<mgrwt>
<rscale>  2 0.76137540E+03</rscale>
<asrwt>0</asrwt>
<pdfrwt beam="1">  1       21 0.49640648E-01 0.76137540E+03</pdfrwt>
<pdfrwt beam="2">  1       21 0.30741232E+00 0.76137540E+03</pdfrwt>
<totfact> 0.79222934E+01</totfact>
</mgrwt>
</event>
<event>
 4    1  0.4832791E-002  0.8545666E+03  0.7818608E-02  0.9484228E-01
         21   -1    0    0  503  502  0.00000000000E+00  0.00000000000E+00  0.10384349043E+04  0.10384349043E+04  0.00000000000E+00 0. -1.
         21   -1    0    0  501  503 -0.00000000000E+00 -0.00000000000E+00 -0.71316597931E+03  0.71316597931E+03  0.00000000000E+00 0.  1.
    9000007    1    1    2  501    0 -0.67346155864E+03 -0.34166288146E+03  0.26588197445E+03  0.89497330679E+03  0.40000000000E+03 0. -1.
   -9000007    1    1    2    0  502  0.67346155864E+03  0.34166288146E+03  0.59386950594E+02  0.85662757686E+03  0.40000000000E+03 0.  1.
<mgrwt>
<rscale>  2 0.85456655E+03</rscale>
<asrwt>0</asrwt>
<pdfrwt beam="1">  1       21 0.15975922E+00 0.85456655E+03</pdfrwt>
<pdfrwt beam="2">  1       21 0.10971784E+00 0.85456655E+03</pdfrwt>
<totfact> 0.11515154E+02</totfact>
</mgrwt>
</event>
<event>
 4    1  0.4832791E-002  0.4088390E+03  0.7818608E-02  0.1040761E+00
         21   -1    0    0  501  502  0.00000000000E+00  0.00000000000E+00  0.20051715290E+03  0.20051715290E+03  0.00000000000E+00 0.  1.
         21   -1    0    0  502  503 -0.00000000000E+00 -0.00000000000E+00 -0.11963891042E+04  0.11963891042E+04  0.00000000000E+00 0.  1.
    9000007    1    1    2  501    0 -0.66376346332E+02  0.52378559638E+02 -0.11331458754E+03  0.42425172788E+03  0.40000000000E+03 0.  1.
   -9000007    1    1    2    0  503  0.66376346332E+02 -0.52378559638E+02 -0.88255736381E+03  0.97265452925E+03  0.40000000000E+03 0.  1.
<mgrwt>
<rscale>  2 0.40883901E+03</rscale>
<asrwt>0</asrwt>
<pdfrwt beam="1">  1       21 0.30848794E-01 0.40883901E+03</pdfrwt>
<pdfrwt beam="2">  1       21 0.18405985E+00 0.40883901E+03</pdfrwt>
<totfact> 0.14823881E+03</totfact>
</mgrwt>
</event>
<event>
 4    1  0.4832791E-002  0.4192634E+03  0.7818608E-02  0.1037306E+00
         21   -1    0    0  501  502  0.00000000000E+00  0.00000000000E+00  0.30340496572E+03  0.30340496572E+03  0.00000000000E+00 0. -1.
         21   -1    0    0  502  503 -0.00000000000E+00 -0.00000000000E+00 -0.61663160891E+03  0.61663160891E+03  0.00000000000E+00 0. -1.
    9000007    1    1    2  501    0 -0.47675090664E+02 -0.11622772609E+03 -0.43521761000E+02  0.42151624199E+03  0.40000000000E+03 0. -1.
   -9000007    1    1    2    0  503  0.47675090664E+02  0.11622772609E+03 -0.26970488219E+03  0.49852033264E+03  0.40000000000E+03 0. -1.
<mgrwt>
<rscale>  2 0.41926340E+03</rscale>
<asrwt>0</asrwt>
<pdfrwt beam="1">  1       21 0.46677688E-01 0.41926340E+03</pdfrwt>
<pdfrwt beam="2">  1       21 0.94866400E-01 0.41926340E+03</pdfrwt>
<totfact> 0.36047505E+03</totfact>
</mgrwt>
</event>
<event>
 4    1  0.4832791E-002  0.4774908E+03  0.7818608E-02  0.1019827E+00
         21   -1    0    0  503  502  0.00000000000E+00  0.00000000000E+00  0.86916907883E+03  0.86916907883E+03  0.00000000000E+00 0.  1.
         21   -1    0    0  501  503 -0.00000000000E+00 -0.00000000000E+00 -0.26965870103E+03  0.26965870103E+03  0.00000000000E+00 0. -1.
    9000007    1    1    2  501    0  0.21640313388E+03  0.14548927808E+03  0.20579755374E+03  0.51995199732E+03  0.40000000000E+03 0. -1.
   -9000007    1    1    2    0  502 -0.21640313388E+03 -0.14548927808E+03  0.39371282405E+03  0.61887578254E+03  0.40000000000E+03 0.  1.
<mgrwt>
<rscale>  2 0.47749078E+03</rscale>
<asrwt>0</asrwt>
<pdfrwt beam="1">  1       21 0.13371832E+00 0.47749078E+03</pdfrwt>
<pdfrwt beam="2">  1       21 0.41485955E-01 0.47749078E+03</pdfrwt>
<totfact> 0.19123058E+03</totfact>
</mgrwt>
</event>
<event>
 4    1  0.4832791E-002  0.7517112E+03  0.7818608E-02  0.9632670E-01
         21   -1    0    0  501  502  0.00000000000E+00  0.00000000000E+00  0.76989582830E+03  0.76989582830E+03  0.00000000000E+00 0.  1.
         21   -1    0    0  502  503 -0.00000000000E+00 -0.00000000000E+00 -0.86244873830E+03  0.86244873830E+03  0.00000000000E+00 0.  1.
    9000007    1    1    2  501    0 -0.49029113874E+03  0.40581312325E+03 -0.36130827696E+03  0.83403438942E+03  0.40000000000E+03 0.  1.
   -9000007    1    1    2    0  503  0.49029113874E+03 -0.40581312325E+03  0.26875536695E+03  0.79831017718E+03  0.40000000000E+03 0.  1.
<mgrwt>
<rscale>  2 0.75171118E+03</rscale>
<asrwt>0</asrwt>
<pdfrwt beam="1">  1       21 0.11844551E+00 0.75171118E+03</pdfrwt>
<pdfrwt beam="2">  1       21 0.13268442E+00 0.75171118E+03</pdfrwt>
<totfact> 0.16248238E+02</totfact>
</mgrwt>
</event>
<event>
 4    1  0.4832791E-002  0.4126402E+03  0.7818608E-02  0.1039489E+00
         21   -1    0    0  501  502  0.00000000000E+00  0.00000000000E+00  0.15806872382E+03  0.15806872382E+03  0.00000000000E+00 0.  1.
         21   -1    0    0  502  503 -0.00000000000E+00 -0.00000000000E+00 -0.17788871061E+04  0.17788871061E+04  0.00000000000E+00 0.  1.
    9000007    1    1    2  501    0 -0.83640755043E+02 -0.57237939097E+02 -0.20215286657E+03  0.45949726772E+03  0.40000000000E+03 0.  1.
   -9000007    1    1    2    0  503  0.83640755043E+02  0.57237939097E+02 -0.14186655157E+04  0.14774585622E+04  0.40000000000E+03 0.  1.
<mgrwt>
<rscale>  2 0.41264023E+03</rscale>
<asrwt>0</asrwt>
<pdfrwt beam="1">  1       21 0.24318266E-01 0.41264023E+03</pdfrwt>
<pdfrwt beam="2">  1       21 0.27367493E+00 0.41264023E+03</pdfrwt>
<totfact> 0.63732538E+02</totfact>
</mgrwt>
</event>
<event>
 4    1  0.4832791E-002  0.4117916E+03  0.7818608E-02  0.1039771E+00
         21   -1    0    0  503  502  0.00000000000E+00  0.00000000000E+00  0.32218059738E+04  0.32218059738E+04  0.00000000000E+00 0. -1.
         21   -1    0    0  501  503 -0.00000000000E+00 -0.00000000000E+00 -0.12029489688E+03  0.12029489688E+03  0.00000000000E+00 0.  1.
    9000007    1    1    2  501    0 -0.59080095125E+02 -0.77986446396E+02  0.28040092714E+04  0.28340854499E+04  0.40000000000E+03 0. -1.
   -9000007    1    1    2    0  502  0.59080095125E+02  0.77986446396E+02  0.29750180561E+03  0.50801542083E+03  0.40000000000E+03 0.  1.
<mgrwt>
<rscale>  2 0.41179163E+03</rscale>
<asrwt>0</asrwt>
<pdfrwt beam="1">  1       21 0.49566239E+00 0.41179163E+03</pdfrwt>
<pdfrwt beam="2">  1       21 0.18506910E-01 0.41179163E+03</pdfrwt>
<totfact> 0.41142013E+01</totfact>
</mgrwt>
</event>
<event>
 4    1  0.4832791E-002  0.4358960E+03  0.7818608E-02  0.1032014E+00
         21   -1    0    0  503  502  0.00000000000E+00  0.00000000000E+00  0.99387597195E+03  0.99387597195E+03  0.00000000000E+00 0.  1.
         21   -1    0    0  501  503 -0.00000000000E+00 -0.00000000000E+00 -0.34291698594E+03  0.34291698594E+03  0.00000000000E+00 0.  1.
    9000007    1    1    2  501    0  0.12730350812E+03 -0.11746956623E+03 -0.11914259536E+03  0.45188520688E+03  0.40000000000E+03 0.  1.
   -9000007    1    1    2    0  502 -0.12730350812E+03  0.11746956623E+03  0.77010158137E+03  0.88490775101E+03  0.40000000000E+03 0.  1.
<mgrwt>
<rscale>  2 0.43589595E+03</rscale>
<asrwt>0</asrwt>
<pdfrwt beam="1">  1       21 0.15290399E+00 0.43589595E+03</pdfrwt>
<pdfrwt beam="2">  1       21 0.52756460E-01 0.43589595E+03</pdfrwt>
<totfact> 0.81871647E+02</totfact>
</mgrwt>
</event>
<event>
 4    1  0.4832791E-002  0.4474399E+03  0.7818608E-02  0.1028488E+00
         21   -1    0    0  503  502  0.00000000000E+00  0.00000000000E+00  0.92161814723E+03  0.92161814723E+03  0.00000000000E+00 0.  1.
         21   -1    0    0  501  503 -0.00000000000E+00 -0.00000000000E+00 -0.53636428178E+03  0.53636428178E+03  0.00000000000E+00 0.  1.
    9000007    1    1    2  501    0 -0.14826846424E+03  0.13497747805E+03 -0.36968795453E+03  0.58040644448E+03  0.40000000000E+03 0.  1.
   -9000007    1    1    2    0  502  0.14826846424E+03 -0.13497747805E+03  0.75494181998E+03  0.87757598453E+03  0.40000000000E+03 0.  1.
<mgrwt>
<rscale>  2 0.44743989E+03</rscale>
<asrwt>0</asrwt>
<pdfrwt beam="1">  1       21 0.14178741E+00 0.44743989E+03</pdfrwt>
<pdfrwt beam="2">  1       21 0.82517582E-01 0.44743989E+03</pdfrwt>
<totfact> 0.36829723E+02</totfact>
</mgrwt>
</event>
<event>
 4    1  0.4832791E-002  0.4783406E+03  0.7818608E-02  0.1019592E+00
         21   -1    0    0  503  502  0.00000000000E+00  0.00000000000E+00  0.92899577486E+03  0.92899577486E+03  0.00000000000E+00 0.  1.
         21   -1    0    0  501  503 -0.00000000000E+00 -0.00000000000E+00 -0.24644383117E+03  0.24644383117E+03  0.00000000000E+00 0. -1.
    9000007    1    1    2  501    0  0.26490232497E+02  0.26097512999E+03  0.32697658520E+03  0.57941646349E+03  0.40000000000E+03 0.  1.
   -9000007    1    1    2    0  502 -0.26490232497E+02 -0.26097512999E+03  0.35557535848E+03  0.59602314255E+03  0.40000000000E+03 0. -1.
<mgrwt>
<rscale>  2 0.47834062E+03</rscale>
<asrwt>0</asrwt>
<pdfrwt beam="1">  1       21 0.14292243E+00 0.47834062E+03</pdfrwt>
<pdfrwt beam="2">  1       21 0.37914436E-01 0.47834062E+03</pdfrwt>
<totfact> 0.19288659E+03</totfact>
</mgrwt>
</event>
<event>
 4    1  0.4832791E-002  0.4575999E+03  0.7818608E-02  0.1025480E+00
         21   -1    0    0  501  502  0.00000000000E+00  0.00000000000E+00  0.31557660802E+03  0.31557660802E+03  0.00000000000E+00 0. -1.
         21   -1    0    0  502  503 -0.00000000000E+00 -0.00000000000E+00 -0.78722361782E+03  0.78722361782E+03  0.00000000000E+00 0. -1.
    9000007    1    1    2  501    0  0.10718531859E+03 -0.19470236831E+03 -0.17261900198E+02  0.45792540653E+03  0.40000000000E+03 0. -1.
   -9000007    1    1    2    0  503 -0.10718531859E+03  0.19470236831E+03 -0.45438510961E+03  0.64487481931E+03  0.40000000000E+03 0. -1.
<mgrwt>
<rscale>  2 0.45759994E+03</rscale>
<asrwt>0</asrwt>
<pdfrwt beam="1">  1       21 0.48550247E-01 0.45759994E+03</pdfrwt>
<pdfrwt beam="2">  1       21 0.12111133E+00 0.45759994E+03</pdfrwt>
<totfact> 0.17900236E+03</totfact>
</mgrwt>
</event>
<event>
 4    1  0.4832791E-002  0.4218910E+03  0.7818608E-02  0.1036453E+00
         21   -1    0    0  501  502  0.00000000000E+00  0.00000000000E+00  0.59065929856E+02  0.59065929856E+02  0.00000000000E+00 0.  1.
         21   -1    0    0  502  503 -0.00000000000E+00 -0.00000000000E+00 -0.30138365456E+04  0.30138365456E+04  0.00000000000E+00 0.  1.
    9000007    1    1    2  501    0 -0.13375374335E+03 -0.10098294337E+02 -0.14948567913E+04  0.15532510634E+04  0.40000000000E+03 0.  1.
   -9000007    1    1    2    0  503  0.13375374335E+03  0.10098294337E+02 -0.14599138244E+04  0.15196514120E+04  0.40000000000E+03 0.  1.
<mgrwt>
<rscale>  2 0.42189103E+03</rscale>
<asrwt>0</asrwt>
<pdfrwt beam="1">  1       21 0.90870683E-02 0.42189103E+03</pdfrwt>
<pdfrwt beam="2">  1       21 0.46366705E+00 0.42189103E+03</pdfrwt>
<totfact> 0.25135733E+02</totfact>
</mgrwt>
</event>
<event>
 4    1  0.4832791E-002  0.5020547E+03  0.7818608E-02  0.1013244E+00
         21   -1    0    0  501  502  0.00000000000E+00  0.00000000000E+00  0.17100695601E+03  0.17100695601E+03  0.00000000000E+00 0. -1.
         21   -1    0    0  502  503 -0.00000000000E+00 -0.00000000000E+00 -0.14824950875E+04  0.14824950875E+04  0.00000000000E+00 0.  1.
    9000007    1    1    2  501    0 -0.10665274746E+03 -0.28404956417E+03 -0.59304641217E+03  0.77702188543E+03  0.40000000000E+03 0. -1.
   -9000007    1    1    2    0  503  0.10665274746E+03  0.28404956417E+03 -0.71844171932E+03  0.87648015808E+03  0.40000000000E+03 0. -1.
<mgrwt>
<rscale>  2 0.50205474E+03</rscale>
<asrwt>0</asrwt>
<pdfrwt beam="1">  1       21 0.26308763E-01 0.50205474E+03</pdfrwt>
<pdfrwt beam="2">  1       21 0.22807616E+00 0.50205474E+03</pdfrwt>
<totfact> 0.99747186E+02</totfact>
</mgrwt>
</event>
<event>
 4    1  0.4832791E-002  0.6917440E+03  0.7818608E-02  0.9731456E-01
         21   -1    0    0  503  502  0.00000000000E+00  0.00000000000E+00  0.12451277170E+04  0.12451277170E+04  0.00000000000E+00 0.  1.
         21   -1    0    0  501  503 -0.00000000000E+00 -0.00000000000E+00 -0.58660022575E+03  0.58660022575E+03  0.00000000000E+00 0. -1.
    9000007    1    1    2  501    0 -0.52887910608E+03 -0.19696873046E+03 -0.20857468601E+03  0.72250480224E+03  0.40000000000E+03 0. -1.
   -9000007    1    1    2    0  502  0.52887910608E+03  0.19696873046E+03  0.86710217722E+03  0.11092231405E+04  0.40000000000E+03 0.  1.
<mgrwt>
<rscale>  2 0.69174402E+03</rscale>
<asrwt>0</asrwt>
<pdfrwt beam="1">  1       21 0.19155811E+00 0.69174402E+03</pdfrwt>
<pdfrwt beam="2">  1       21 0.90246188E-01 0.69174402E+03</pdfrwt>
<totfact> 0.11472187E+02</totfact>
</mgrwt>
</event>
<event>
 4    1  0.4832791E-002  0.4823211E+03  0.7818608E-02  0.1018499E+00
         21   -1    0    0  501  502  0.00000000000E+00  0.00000000000E+00  0.94665540911E+03  0.94665540911E+03  0.00000000000E+00 0. -1.
         21   -1    0    0  502  503 -0.00000000000E+00 -0.00000000000E+00 -0.26849204262E+03  0.26849204262E+03  0.00000000000E+00 0. -1.
    9000007    1    1    2  501    0  0.25946246522E+03 -0.72889568253E+02  0.51593681359E+03  0.70627505665E+03  0.40000000000E+03 0. -1.
   -9000007    1    1    2    0  503 -0.25946246522E+03  0.72889568253E+02  0.16222655290E+03  0.50887239509E+03  0.40000000000E+03 0. -1.
<mgrwt>
<rscale>  2 0.48232112E+03</rscale>
<asrwt>0</asrwt>
<pdfrwt beam="1">  1       21 0.14563929E+00 0.48232112E+03</pdfrwt>
<pdfrwt beam="2">  1       21 0.41306469E-01 0.48232112E+03</pdfrwt>
<totfact> 0.15345716E+03</totfact>
</mgrwt>
</event>
<event>
 4    1  0.4832791E-002  0.5913364E+03  0.7818608E-02  0.9923545E-01
         21   -1    0    0  501  502  0.00000000000E+00  0.00000000000E+00  0.13793826544E+04  0.13793826544E+04  0.00000000000E+00 0.  1.
         21   -1    0    0  502  503 -0.00000000000E+00 -0.00000000000E+00 -0.25369193474E+03  0.25369193474E+03  0.00000000000E+00 0. -1.
    9000007    1    1    2  501    0  0.17531294722E+03  0.39867787707E+03  0.58508418882E+03  0.83186668832E+03  0.40000000000E+03 0. -1.
   -9000007    1    1    2    0  503 -0.17531294722E+03 -0.39867787707E+03  0.54060653080E+03  0.80120790078E+03  0.40000000000E+03 0.  1.
<mgrwt>
<rscale>  2 0.59133635E+03</rscale>
<asrwt>0</asrwt>
<pdfrwt beam="1">  1       21 0.21221271E+00 0.59133635E+03</pdfrwt>
<pdfrwt beam="2">  1       21 0.39029529E-01 0.59133635E+03</pdfrwt>
<totfact> 0.55130693E+02</totfact>
</mgrwt>
</event>
<event>
 4    1  0.4832791E-002  0.4178214E+03  0.7818608E-02  0.1037778E+00
         21   -1    0    0  503  502  0.00000000000E+00  0.00000000000E+00  0.16108479025E+03  0.16108479025E+03  0.00000000000E+00 0. -1.
         21   -1    0    0  501  503 -0.00000000000E+00 -0.00000000000E+00 -0.11116809200E+04  0.11116809200E+04  0.00000000000E+00 0. -1.
    9000007    1    1    2  501    0  0.36252837378E+02 -0.11515410874E+03 -0.57618029216E+03  0.71172920838E+03  0.40000000000E+03 0. -1.
   -9000007    1    1    2    0  502 -0.36252837378E+02  0.11515410874E+03 -0.37441583755E+03  0.56103650183E+03  0.40000000000E+03 0. -1.
<mgrwt>
<rscale>  2 0.41782142E+03</rscale>
<asrwt>0</asrwt>
<pdfrwt beam="1">  1       21 0.24782275E-01 0.41782142E+03</pdfrwt>
<pdfrwt beam="2">  1       21 0.17102784E+00 0.41782142E+03</pdfrwt>
<totfact> 0.28078594E+03</totfact>
</mgrwt>
</event>
<event>
 4    1  0.4832791E-002  0.5475058E+03  0.7818608E-02  0.1002073E+00
         21   -1    0    0  503  502  0.00000000000E+00  0.00000000000E+00  0.64402159445E+03  0.64402159445E+03  0.00000000000E+00 0. -1.
         21   -1    0    0  501  503 -0.00000000000E+00 -0.00000000000E+00 -0.14728513917E+04  0.14728513917E+04  0.00000000000E+00 0.  1.
    9000007    1    1    2  501    0 -0.85782250328E+02 -0.36387368321E+03 -0.12897728405E+04  0.14011697370E+04  0.40000000000E+03 0.  1.
   -9000007    1    1    2    0  502  0.85782250328E+02  0.36387368321E+03  0.46094304321E+03  0.71570324918E+03  0.40000000000E+03 0. -1.
<mgrwt>
<rscale>  2 0.54750585E+03</rscale>
<asrwt>0</asrwt>
<pdfrwt beam="1">  1       21 0.99080245E-01 0.54750585E+03</pdfrwt>
<pdfrwt beam="2">  1       21 0.22659252E+00 0.54750585E+03</pdfrwt>
<totfact> 0.56969438E+01</totfact>
</mgrwt>
</event>
<event>
 4    1  0.4832791E-002  0.4360138E+03  0.7818608E-02  0.1031977E+00
         21   -1    0    0  503  502  0.00000000000E+00  0.00000000000E+00  0.58458547069E+03  0.58458547069E+03  0.00000000000E+00 0. -1.
         21   -1    0    0  501  503 -0.00000000000E+00 -0.00000000000E+00 -0.32635496488E+03  0.32635496488E+03  0.00000000000E+00 0.  1.
    9000007    1    1    2  501    0  0.17298224546E+03  0.13607567462E+02  0.15619426264E+03  0.46314648959E+03  0.40000000000E+03 0.  1.
   -9000007    1    1    2    0  502 -0.17298224546E+03 -0.13607567462E+02  0.10203624318E+03  0.44779394598E+03  0.40000000000E+03 0.  1.
<mgrwt>
<rscale>  2 0.43601379E+03</rscale>
<asrwt>0</asrwt>
<pdfrwt beam="1">  1       21 0.89936227E-01 0.43601379E+03</pdfrwt>
<pdfrwt beam="2">  1       21 0.50208456E-01 0.43601379E+03</pdfrwt>
<totfact> 0.34864777E+03</totfact>
</mgrwt>
</event>
<event>
 4    1  0.4832791E-002  0.4143724E+03  0.7818608E-02  0.1038914E+00
         21   -1    0    0  503  502  0.00000000000E+00  0.00000000000E+00  0.18567738354E+03  0.18567738354E+03  0.00000000000E+00 0. -1.
         21   -1    0    0  501  503 -0.00000000000E+00 -0.00000000000E+00 -0.92491616468E+03  0.92491616468E+03  0.00000000000E+00 0. -1.
    9000007    1    1    2  501    0 -0.80520096730E+02  0.72256468158E+02 -0.37714355712E+03  0.56030504714E+03  0.40000000000E+03 0. -1.
   -9000007    1    1    2    0  502  0.80520096730E+02 -0.72256468158E+02 -0.36209522402E+03  0.55028850108E+03  0.40000000000E+03 0. -1.
<mgrwt>
<rscale>  2 0.41437240E+03</rscale>
<asrwt>0</asrwt>
<pdfrwt beam="1">  1       21 0.28565751E-01 0.41437240E+03</pdfrwt>
<pdfrwt beam="2">  1       21 0.14229480E+00 0.41437240E+03</pdfrwt>
<totfact> 0.35323547E+03</totfact>
</mgrwt>
</event>
<event>
 4    1  0.4832791E-002  0.4302819E+03  0.7818608E-02  0.1033771E+00
         21   -1    0    0  503  502  0.00000000000E+00  0.00000000000E+00  0.26406177405E+03  0.26406177405E+03  0.00000000000E+00 0. -1.
         21   -1    0    0  501  503 -0.00000000000E+00 -0.00000000000E+00 -0.71098303576E+03  0.71098303576E+03  0.00000000000E+00 0. -1.
    9000007    1    1    2  501    0 -0.72731088997E+02 -0.14089965420E+03 -0.28084260851E+03  0.51382399186E+03  0.40000000000E+03 0. -1.
   -9000007    1    1    2    0  502  0.72731088997E+02  0.14089965420E+03 -0.16607865320E+03  0.46122081795E+03  0.40000000000E+03 0. -1.
<mgrwt>
<rscale>  2 0.43028191E+03</rscale>
<asrwt>0</asrwt>
<pdfrwt beam="1">  1       21 0.40624888E-01 0.43028191E+03</pdfrwt>
<pdfrwt beam="2">  1       21 0.10938201E+00 0.43028191E+03</pdfrwt>
<totfact> 0.33885981E+03</totfact>
</mgrwt>
</event>
<event>
 4    1  0.4832791E-002  0.6062815E+03  0.7818608E-02  0.9892459E-01
         21   -1    0    0  503  502  0.00000000000E+00  0.00000000000E+00  0.62408597087E+03  0.62408597087E+03  0.00000000000E+00 0. -1.
         21   -1    0    0  501  503 -0.00000000000E+00 -0.00000000000E+00 -0.62603949424E+03  0.62603949424E+03  0.00000000000E+00 0.  1.
    9000007    1    1    2  501    0 -0.37125446179E+03  0.26409734669E+03 -0.15304660783E+03  0.62530036630E+03  0.40000000000E+03 0. -1.
   -9000007    1    1    2    0  502  0.37125446179E+03 -0.26409734669E+03  0.15109308446E+03  0.62482509881E+03  0.40000000000E+03 0.  1.
<mgrwt>
<rscale>  2 0.60628152E+03</rscale>
<asrwt>0</asrwt>
<pdfrwt beam="1">  1       21 0.96013226E-01 0.60628152E+03</pdfrwt>
<pdfrwt beam="2">  1       21 0.96313769E-01 0.60628152E+03</pdfrwt>
<totfact> 0.64493718E+02</totfact>
</mgrwt>
</event>
<event>
 4    1  0.4832791E-002  0.8988631E+03  0.7818608E-02  0.9427004E-01
         21   -1    0    0  503  502  0.00000000000E+00  0.00000000000E+00  0.57924306023E+03  0.57924306023E+03  0.00000000000E+00 0. -1.
         21   -1    0    0  501  503 -0.00000000000E+00 -0.00000000000E+00 -0.16492724241E+04  0.16492724241E+04  0.00000000000E+00 0.  1.
    9000007    1    1    2  501    0  0.75719859096E+03  0.27313958882E+03 -0.97265815640E+03  0.13243937596E+04  0.40000000000E+03 0.  1.
   -9000007    1    1    2    0  502 -0.75719859096E+03 -0.27313958882E+03 -0.97371207451E+02  0.90412172475E+03  0.40000000000E+03 0. -1.
<mgrwt>
<rscale>  2 0.89886314E+03</rscale>
<asrwt>0</asrwt>
<pdfrwt beam="1">  1       21 0.89114318E-01 0.89886314E+03</pdfrwt>
<pdfrwt beam="2">  1       21 0.25373422E+00 0.89886314E+03</pdfrwt>
<totfact> 0.43270693E+01</totfact>
</mgrwt>
</event>
<event>
 4    1  0.4832791E-002  0.4622922E+03  0.7818608E-02  0.1024119E+00
         21   -1    0    0  501  502  0.00000000000E+00  0.00000000000E+00  0.12389222966E+04  0.12389222966E+04  0.00000000000E+00 0. -1.
         21   -1    0    0  502  503 -0.00000000000E+00 -0.00000000000E+00 -0.42721599159E+03  0.42721599159E+03  0.00000000000E+00 0.  1.
    9000007    1    1    2  501    0 -0.23119254955E+03 -0.16251573452E+02  0.10491114484E+04  0.11464505832E+04  0.40000000000E+03 0. -1.
   -9000007    1    1    2    0  503  0.23119254955E+03  0.16251573452E+02 -0.23740514338E+03  0.51968770498E+03  0.40000000000E+03 0.  1.
<mgrwt>
<rscale>  2 0.46229223E+03</rscale>
<asrwt>0</asrwt>
<pdfrwt beam="1">  1       21 0.19060343E+00 0.46229223E+03</pdfrwt>
<pdfrwt beam="2">  1       21 0.65725538E-01 0.46229223E+03</pdfrwt>
<totfact> 0.26633039E+02</totfact>
</mgrwt>
</event>
<event>
 4    1  0.4832791E-002  0.4130603E+03  0.7818608E-02  0.1039349E+00
         21   -1    0    0  503  502  0.00000000000E+00  0.00000000000E+00  0.17122841472E+04  0.17122841472E+04  0.00000000000E+00 0. -1.
         21   -1    0    0  501  503 -0.00000000000E+00 -0.00000000000E+00 -0.12138385101E+03  0.12138385101E+03  0.00000000000E+00 0. -1.
    9000007    1    1    2  501    0  0.42453568867E+01 -0.10296029530E+03  0.40744408414E+03  0.58019783450E+03  0.40000000000E+03 0. -1.
   -9000007    1    1    2    0  502 -0.42453568867E+01  0.10296029530E+03  0.11834562121E+04  0.12534701637E+04  0.40000000000E+03 0. -1.
<mgrwt>
<rscale>  2 0.41306034E+03</rscale>
<asrwt>0</asrwt>
<pdfrwt beam="1">  1       21 0.26342831E+00 0.41306034E+03</pdfrwt>
<pdfrwt beam="2">  1       21 0.18674440E-01 0.41306034E+03</pdfrwt>
<totfact> 0.12172197E+03</totfact>
</mgrwt>
</event>
<event>
 4    1  0.4832791E-002  0.4148180E+03  0.7818608E-02  0.1038766E+00
         21   -1    0    0  501  502  0.00000000000E+00  0.00000000000E+00  0.96652029932E+03  0.96652029932E+03  0.00000000000E+00 0.  1.
         21   -1    0    0  502  503 -0.00000000000E+00 -0.00000000000E+00 -0.17811614973E+03  0.17811614973E+03  0.00000000000E+00 0.  1.
    9000007    1    1    2  501    0 -0.10828295461E+03  0.18675774310E+02  0.38195039442E+03  0.56387949652E+03  0.40000000000E+03 0.  1.
   -9000007    1    1    2    0  503  0.10828295461E+03 -0.18675774310E+02  0.40645375517E+03  0.58075695252E+03  0.40000000000E+03 0.  1.
<mgrwt>
<rscale>  2 0.41481801E+03</rscale>
<asrwt>0</asrwt>
<pdfrwt beam="1">  1       21 0.14869543E+00 0.41481801E+03</pdfrwt>
<pdfrwt beam="2">  1       21 0.27402485E-01 0.41481801E+03</pdfrwt>
<totfact> 0.34059110E+03</totfact>
</mgrwt>
</event>
<event>
 4    1  0.4832791E-002  0.6722942E+03  0.7818608E-02  0.9765822E-01
         21   -1    0    0  501  502  0.00000000000E+00  0.00000000000E+00  0.51414821373E+03  0.51414821373E+03  0.00000000000E+00 0. -1.
         21   -1    0    0  502  503 -0.00000000000E+00 -0.00000000000E+00 -0.88374888278E+03  0.88374888278E+03  0.00000000000E+00 0.  1.
    9000007    1    1    2  501    0  0.39416120416E+03 -0.36961661673E+03 -0.13401966435E+03  0.68552225979E+03  0.40000000000E+03 0.  1.
   -9000007    1    1    2    0  503 -0.39416120416E+03  0.36961661673E+03 -0.23558100469E+03  0.71237483672E+03  0.40000000000E+03 0. -1.
<mgrwt>
<rscale>  2 0.67229421E+03</rscale>
<asrwt>0</asrwt>
<pdfrwt beam="1">  1       21 0.79099725E-01 0.67229421E+03</pdfrwt>
<pdfrwt beam="2">  1       21 0.13596137E+00 0.67229421E+03</pdfrwt>
<totfact> 0.41754592E+02</totfact>
</mgrwt>
</event>
<event>
 4    1  0.4832791E-002  0.4506422E+03  0.7818608E-02  0.1027531E+00
         21   -1    0    0  503  502  0.00000000000E+00  0.00000000000E+00  0.15074943253E+04  0.15074943253E+04  0.00000000000E+00 0. -1.
         21   -1    0    0  501  503 -0.00000000000E+00 -0.00000000000E+00 -0.17592676889E+03  0.17592676889E+03  0.00000000000E+00 0. -1.
    9000007    1    1    2  501    0  0.20392737123E+03  0.38626770714E+02  0.25838440319E+03  0.51946212563E+03  0.40000000000E+03 0. -1.
   -9000007    1    1    2    0  502 -0.20392737123E+03 -0.38626770714E+02  0.10731831532E+04  0.11639589686E+04  0.40000000000E+03 0. -1.
<mgrwt>
<rscale>  2 0.45064221E+03</rscale>
<asrwt>0</asrwt>
<pdfrwt beam="1">  1       21 0.23192220E+00 0.45064221E+03</pdfrwt>
<pdfrwt beam="2">  1       21 0.27065658E-01 0.45064221E+03</pdfrwt>
<totfact> 0.91348675E+02</totfact>
</mgrwt>
</event>
<event>
 4    1  0.4832791E-002  0.4155641E+03  0.7818608E-02  0.1038520E+00
         21   -1    0    0  503  502  0.00000000000E+00  0.00000000000E+00  0.89719329620E+03  0.89719329620E+03  0.00000000000E+00 0.  1.
         21   -1    0    0  501  503 -0.00000000000E+00 -0.00000000000E+00 -0.25193009769E+03  0.25193009769E+03  0.00000000000E+00 0.  1.
    9000007    1    1    2  501    0  0.99322682125E+02  0.53183768889E+02  0.43527744992E+02  0.41783749597E+03  0.40000000000E+03 0. -1.
   -9000007    1    1    2    0  502 -0.99322682125E+02 -0.53183768889E+02  0.60173545352E+03  0.73128589791E+03  0.40000000000E+03 0. -1.
<mgrwt>
<rscale>  2 0.41556408E+03</rscale>
<asrwt>0</asrwt>
<pdfrwt beam="1">  1       21 0.13802974E+00 0.41556408E+03</pdfrwt>
<pdfrwt beam="2">  1       21 0.38758477E-01 0.41556408E+03</pdfrwt>
<totfact> 0.20739413E+03</totfact>
</mgrwt>
</event>
<event>
 4    1  0.4832791E-002  0.4561445E+03  0.7818608E-02  0.1025905E+00
         21   -1    0    0  503  502  0.00000000000E+00  0.00000000000E+00  0.11934733423E+04  0.11934733423E+04  0.00000000000E+00 0.  1.
         21   -1    0    0  501  503 -0.00000000000E+00 -0.00000000000E+00 -0.19361220427E+03  0.19361220427E+03  0.00000000000E+00 0.  1.
    9000007    1    1    2  501    0  0.19454166351E+03 -0.10110046660E+03  0.28110652361E+03  0.53580653300E+03  0.40000000000E+03 0.  1.
   -9000007    1    1    2    0  502 -0.19454166351E+03  0.10110046660E+03  0.71875461440E+03  0.85127901355E+03  0.40000000000E+03 0.  1.
<mgrwt>
<rscale>  2 0.45614445E+03</rscale>
<asrwt>0</asrwt>
<pdfrwt beam="1">  1       21 0.18361128E+00 0.45614445E+03</pdfrwt>
<pdfrwt beam="2">  1       21 0.29786494E-01 0.45614445E+03</pdfrwt>
<totfact> 0.15674113E+03</totfact>
</mgrwt>
</event>
<event>
 4    1  0.4832791E-002  0.4079249E+03  0.7818608E-02  0.1041070E+00
         21   -1    0    0  503  502  0.00000000000E+00  0.00000000000E+00  0.68944799480E+03  0.68944799480E+03  0.00000000000E+00 0. -1.
         21   -1    0    0  501  503 -0.00000000000E+00 -0.00000000000E+00 -0.24555108696E+03  0.24555108696E+03  0.00000000000E+00 0. -1.
    9000007    1    1    2  501    0 -0.60042648235E+02 -0.52892379626E+02  0.16084620053E+03  0.43849084786E+03  0.40000000000E+03 0. -1.
   -9000007    1    1    2    0  502  0.60042648235E+02  0.52892379626E+02  0.28305070730E+03  0.49650823390E+03  0.40000000000E+03 0. -1.
<mgrwt>
<rscale>  2 0.40792490E+03</rscale>
<asrwt>0</asrwt>
<pdfrwt beam="1">  1       21 0.10606892E+00 0.40792490E+03</pdfrwt>
<pdfrwt beam="2">  1       21 0.37777091E-01 0.40792490E+03</pdfrwt>
<totfact> 0.42789827E+03</totfact>
</mgrwt>
</event>
<event>
 4    1  0.4832791E-002  0.4354860E+03  0.7818608E-02  0.1032141E+00
         21   -1    0    0  501  502  0.00000000000E+00  0.00000000000E+00  0.35413593281E+03  0.35413593281E+03  0.00000000000E+00 0. -1.
         21   -1    0    0  502  503 -0.00000000000E+00 -0.00000000000E+00 -0.55707567329E+03  0.55707567329E+03  0.00000000000E+00 0.  1.
    9000007    1    1    2  501    0  0.10217335945E+03  0.13859520407E+03 -0.11854976171E+02  0.43564729591E+03  0.40000000000E+03 0. -1.
   -9000007    1    1    2    0  503 -0.10217335945E+03 -0.13859520407E+03 -0.19108476431E+03  0.47556431019E+03  0.40000000000E+03 0. -1.
<mgrwt>
<rscale>  2 0.43548597E+03</rscale>
<asrwt>0</asrwt>
<pdfrwt beam="1">  1       21 0.54482452E-01 0.43548597E+03</pdfrwt>
<pdfrwt beam="2">  1       21 0.85703949E-01 0.43548597E+03</pdfrwt>
<totfact> 0.32795153E+03</totfact>
</mgrwt>
</event>
<event>
 4    1  0.4832791E-002  0.4018335E+03  0.7818608E-02  0.1043147E+00
         21   -1    0    0  501  502  0.00000000000E+00  0.00000000000E+00  0.26418054940E+03  0.26418054940E+03  0.00000000000E+00 0.  1.
         21   -1    0    0  502  503 -0.00000000000E+00 -0.00000000000E+00 -0.65184509574E+03  0.65184509574E+03  0.00000000000E+00 0.  1.
    9000007    1    1    2  501    0  0.37594719326E+02  0.75381650877E+01 -0.79479125260E+02  0.40961825912E+03  0.40000000000E+03 0.  1.
   -9000007    1    1    2    0  503 -0.37594719326E+02 -0.75381650877E+01 -0.30818542108E+03  0.50640738602E+03  0.40000000000E+03 0.  1.
<mgrwt>
<rscale>  2 0.40183353E+03</rscale>
<asrwt>0</asrwt>
<pdfrwt beam="1">  1       21 0.40643162E-01 0.40183353E+03</pdfrwt>
<pdfrwt beam="2">  1       21 0.10028386E+00 0.40183353E+03</pdfrwt>
<totfact> 0.42348973E+03</totfact>
</mgrwt>
</event>
<event>
 4    1  0.4832791E-002  0.5350454E+03  0.7818608E-02  0.1005016E+00
         21   -1    0    0  501  502  0.00000000000E+00  0.00000000000E+00  0.91131464131E+03  0.91131464131E+03  0.00000000000E+00 0.  1.
         21   -1    0    0  502  503 -0.00000000000E+00 -0.00000000000E+00 -0.41136163309E+03  0.41136163309E+03  0.00000000000E+00 0.  1.
    9000007    1    1    2  501    0  0.29958811331E+03  0.19110354996E+03  0.57149779803E+03  0.78286865923E+03  0.40000000000E+03 0.  1.
   -9000007    1    1    2    0  503 -0.29958811331E+03 -0.19110354996E+03 -0.71544789819E+02  0.53980761517E+03  0.40000000000E+03 0.  1.
<mgrwt>
<rscale>  2 0.53504542E+03</rscale>
<asrwt>0</asrwt>
<pdfrwt beam="1">  1       21 0.14020225E+00 0.53504542E+03</pdfrwt>
<pdfrwt beam="2">  1       21 0.63286405E-01 0.53504542E+03</pdfrwt>
<totfact> 0.66824146E+02</totfact>
</mgrwt>
</event>
<event>
 4    1  0.4832791E-002  0.4169599E+03  0.7818608E-02  0.1038060E+00
         21   -1    0    0  503  502  0.00000000000E+00  0.00000000000E+00  0.25687331742E+03  0.25687331742E+03  0.00000000000E+00 0.  1.
         21   -1    0    0  501  503 -0.00000000000E+00 -0.00000000000E+00 -0.91238113354E+03  0.91238113354E+03  0.00000000000E+00 0.  1.
    9000007    1    1    2  501    0 -0.10685990085E+03 -0.49360728849E+02 -0.62481653169E+03  0.75116657156E+03  0.40000000000E+03 0.  1.
   -9000007    1    1    2    0  502  0.10685990085E+03  0.49360728849E+02 -0.30691284427E+02  0.41808787940E+03  0.40000000000E+03 0.  1.
<mgrwt>
<rscale>  2 0.41695985E+03</rscale>
<asrwt>0</asrwt>
<pdfrwt beam="1">  1       21 0.39518972E-01 0.41695985E+03</pdfrwt>
<pdfrwt beam="2">  1       21 0.14036633E+00 0.41695985E+03</pdfrwt>
<totfact> 0.19050980E+03</totfact>
</mgrwt>
</event>
<event>
 4    1  0.4832791E-002  0.6143389E+03  0.7818608E-02  0.9876096E-01
         21   -1    0    0  503  502  0.00000000000E+00  0.00000000000E+00  0.49240107662E+03  0.49240107662E+03  0.00000000000E+00 0. -1.
         21   -1    0    0  501  503 -0.00000000000E+00 -0.00000000000E+00 -0.12202127682E+04  0.12202127682E+04  0.00000000000E+00 0.  1.
    9000007    1    1    2  501    0 -0.44972480191E+03 -0.12312541366E+03 -0.88607950948E+03  0.10782157308E+04  0.40000000000E+03 0.  1.
   -9000007    1    1    2    0  502  0.44972480191E+03  0.12312541366E+03  0.15826781790E+03  0.63439811406E+03  0.40000000000E+03 0. -1.
<mgrwt>
<rscale>  2 0.61433888E+03</rscale>
<asrwt>0</asrwt>
<pdfrwt beam="1">  1       21 0.75754013E-01 0.61433888E+03</pdfrwt>
<pdfrwt beam="2">  1       21 0.18772504E+00 0.61433888E+03</pdfrwt>
<totfact> 0.18919247E+02</totfact>
</mgrwt>
</event>
<event>
 4    1  0.4832791E-002  0.5518273E+03  0.7818608E-02  0.1001072E+00
         21   -1    0    0  501  502  0.00000000000E+00  0.00000000000E+00  0.37680850280E+03  0.37680850280E+03  0.00000000000E+00 0. -1.
         21   -1    0    0  502  503 -0.00000000000E+00 -0.00000000000E+00 -0.10972671821E+04  0.10972671821E+04  0.00000000000E+00 0. -1.
    9000007    1    1    2  501    0 -0.37687022618E+03  0.49821707372E+02  0.18108131046E+02  0.55212432867E+03  0.40000000000E+03 0. -1.
   -9000007    1    1    2    0  503  0.37687022618E+03 -0.49821707372E+02 -0.73856681038E+03  0.92195135625E+03  0.40000000000E+03 0. -1.
<mgrwt>
<rscale>  2 0.55182730E+03</rscale>
<asrwt>0</asrwt>
<pdfrwt beam="1">  1       21 0.57970539E-01 0.55182730E+03</pdfrwt>
<pdfrwt beam="2">  1       21 0.16881033E+00 0.55182730E+03</pdfrwt>
<totfact> 0.48234181E+02</totfact>
</mgrwt>
</event>
<event>
 4    1  0.4832791E-002  0.4029090E+03  0.7818608E-02  0.1042777E+00
         21   -1    0    0  501  502  0.00000000000E+00  0.00000000000E+00  0.56788740956E+03  0.56788740956E+03  0.00000000000E+00 0.  1.
         21   -1    0    0  502  503 -0.00000000000E+00 -0.00000000000E+00 -0.36954346275E+03  0.36954346275E+03  0.00000000000E+00 0.  1.
    9000007    1    1    2  501    0 -0.34854525192E+02  0.33479017954E+02  0.32222037408E+03  0.51590856946E+03  0.40000000000E+03 0.  1.
   -9000007    1    1    2    0  503  0.34854525192E+02 -0.33479017954E+02 -0.12387642726E+03  0.42152230285E+03  0.40000000000E+03 0.  1.
<mgrwt>
<rscale>  2 0.40290903E+03</rscale>
<asrwt>0</asrwt>
<pdfrwt beam="1">  1       21 0.87367294E-01 0.40290903E+03</pdfrwt>
<pdfrwt beam="2">  1       21 0.56852840E-01 0.40290903E+03</pdfrwt>
<totfact> 0.28952229E+03</totfact>
</mgrwt>
</event>
<event>
 4    1  0.4832791E-002  0.4825969E+03  0.7818608E-02  0.1018424E+00
         21   -1    0    0  503  502  0.00000000000E+00  0.00000000000E+00  0.23117059895E+03  0.23117059895E+03  0.00000000000E+00 0. -1.
         21   -1    0    0  501  503 -0.00000000000E+00 -0.00000000000E+00 -0.10095000322E+04  0.10095000322E+04  0.00000000000E+00 0. -1.
    9000007    1    1    2  501    0  0.24323331442E+03 -0.11720643156E+03 -0.41691292190E+03  0.63774303391E+03  0.40000000000E+03 0. -1.
   -9000007    1    1    2    0  502 -0.24323331442E+03  0.11720643156E+03 -0.36141651134E+03  0.60292759724E+03  0.40000000000E+03 0. -1.
<mgrwt>
<rscale>  2 0.48259693E+03</rscale>
<asrwt>0</asrwt>
<pdfrwt beam="1">  1       21 0.35564708E-01 0.48259693E+03</pdfrwt>
<pdfrwt beam="2">  1       21 0.15530770E+00 0.48259693E+03</pdfrwt>
<totfact> 0.17507063E+03</totfact>
</mgrwt>
</event>
<event>
 4    1  0.4832791E-002  0.4764894E+03  0.7818608E-02  0.1020104E+00
         21   -1    0    0  501  502  0.00000000000E+00  0.00000000000E+00  0.31576146855E+03  0.31576146855E+03  0.00000000000E+00 0.  1.
         21   -1    0    0  502  503 -0.00000000000E+00 -0.00000000000E+00 -0.71911635273E+03  0.71911635273E+03  0.00000000000E+00 0.  1.
    9000007    1    1    2  501    0  0.20099131523E+03 -0.16323194269E+03 -0.19602883597E+03  0.51523730498E+03  0.40000000000E+03 0.  1.
   -9000007    1    1    2    0  503 -0.20099131523E+03  0.16323194269E+03 -0.20732604821E+03  0.51964051630E+03  0.40000000000E+03 0.  1.
<mgrwt>
<rscale>  2 0.47648943E+03</rscale>
<asrwt>0</asrwt>
<pdfrwt beam="1">  1       21 0.48578688E-01 0.47648943E+03</pdfrwt>
<pdfrwt beam="2">  1       21 0.11063328E+00 0.47648943E+03</pdfrwt>
<totfact> 0.22287752E+03</totfact>
</mgrwt>
</event>
<event>
 4    1  0.4832791E-002  0.4344832E+03  0.7818608E-02  0.1032453E+00
         21   -1    0    0  503  502  0.00000000000E+00  0.00000000000E+00  0.37680332110E+03  0.37680332110E+03  0.00000000000E+00 0. -1.
         21   -1    0    0  501  503 -0.00000000000E+00 -0.00000000000E+00 -0.62120656686E+03  0.62120656686E+03  0.00000000000E+00 0. -1.
    9000007    1    1    2  501    0 -0.13788127747E+03 -0.98815150613E+02  0.97313410986E+02  0.44524777442E+03  0.40000000000E+03 0. -1.
   -9000007    1    1    2    0  502  0.13788127747E+03  0.98815150613E+02 -0.34171665675E+03  0.55276211354E+03  0.40000000000E+03 0. -1.
<mgrwt>
<rscale>  2 0.43448323E+03</rscale>
<asrwt>0</asrwt>
<pdfrwt beam="1">  1       21 0.57969743E-01 0.43448323E+03</pdfrwt>
<pdfrwt beam="2">  1       21 0.95570239E-01 0.43448323E+03</pdfrwt>
<totfact> 0.22156733E+03</totfact>
</mgrwt>
</event>
<event>
 4    1  0.4832791E-002  0.4326239E+03  0.7818608E-02  0.1033034E+00
         21   -1    0    0  503  502  0.00000000000E+00  0.00000000000E+00  0.22232453757E+03  0.22232453757E+03  0.00000000000E+00 0.  1.
         21   -1    0    0  501  503 -0.00000000000E+00 -0.00000000000E+00 -0.84309854776E+03  0.84309854776E+03  0.00000000000E+00 0.  1.
    9000007    1    1    2  501    0  0.13079628942E+03 -0.10027845068E+03 -0.33090461395E+03  0.54466622855E+03  0.40000000000E+03 0.  1.
   -9000007    1    1    2    0  502 -0.13079628942E+03  0.10027845068E+03 -0.28986939624E+03  0.52075685677E+03  0.40000000000E+03 0.  1.
<mgrwt>
<rscale>  2 0.43262390E+03</rscale>
<asrwt>0</asrwt>
<pdfrwt beam="1">  1       21 0.34203775E-01 0.43262390E+03</pdfrwt>
<pdfrwt beam="2">  1       21 0.12970747E+00 0.43262390E+03</pdfrwt>
<totfact> 0.31233615E+03</totfact>
</mgrwt>
</event>
<event>
 4    1  0.4832791E-002  0.4373203E+03  0.7818608E-02  0.1031572E+00
         21   -1    0    0  501  502  0.00000000000E+00  0.00000000000E+00  0.38417276571E+03  0.38417276571E+03  0.00000000000E+00 0.  1.
         21   -1    0    0  502  503 -0.00000000000E+00 -0.00000000000E+00 -0.63086446853E+03  0.63086446853E+03  0.00000000000E+00 0. -1.
    9000007    1    1    2  501    0  0.50106137085E+02  0.16952415230E+03  0.10972158741E+03  0.45087458337E+03  0.40000000000E+03 0.  1.
   -9000007    1    1    2    0  503 -0.50106137085E+02 -0.16952415230E+03 -0.35641329023E+03  0.56416265087E+03  0.40000000000E+03 0. -1.
<mgrwt>
<rscale>  2 0.43732032E+03</rscale>
<asrwt>0</asrwt>
<pdfrwt beam="1">  1       21 0.59103503E-01 0.43732032E+03</pdfrwt>
<pdfrwt beam="2">  1       21 0.97056071E-01 0.43732032E+03</pdfrwt>
<totfact> 0.20445004E+03</totfact>
</mgrwt>
</event>
<event>
 4    1  0.4832791E-002  0.4280507E+03  0.7818608E-02  0.1034478E+00
         21   -1    0    0  503  502  0.00000000000E+00  0.00000000000E+00  0.43748939432E+03  0.43748939432E+03  0.00000000000E+00 0. -1.
         21   -1    0    0  501  503 -0.00000000000E+00 -0.00000000000E+00 -0.89782016291E+03  0.89782016291E+03  0.00000000000E+00 0.  1.
    9000007    1    1    2  501    0  0.12286544972E+03 -0.90174723475E+02 -0.71783656664E+03  0.83577313662E+03  0.40000000000E+03 0.  1.
   -9000007    1    1    2    0  502 -0.12286544972E+03  0.90174723475E+02  0.25750579805E+03  0.49953642061E+03  0.40000000000E+03 0. -1.
<mgrwt>
<rscale>  2 0.42805070E+03</rscale>
<asrwt>0</asrwt>
<pdfrwt beam="1">  1       21 0.67306061E-01 0.42805070E+03</pdfrwt>
<pdfrwt beam="2">  1       21 0.13812618E+00 0.42805070E+03</pdfrwt>
<totfact> 0.63380035E+02</totfact>
</mgrwt>
</event>
<event>
 4    1  0.4832791E-002  0.5474029E+03  0.7818608E-02  0.1002097E+00
         21   -1    0    0  501  502  0.00000000000E+00  0.00000000000E+00  0.32458628240E+03  0.32458628240E+03  0.00000000000E+00 0.  1.
         21   -1    0    0  502  503 -0.00000000000E+00 -0.00000000000E+00 -0.93860618075E+03  0.93860618075E+03  0.00000000000E+00 0.  1.
    9000007    1    1    2  501    0 -0.11826700325E+03  0.35448956748E+03 -0.38799364014E+03  0.67096125246E+03  0.40000000000E+03 0.  1.
   -9000007    1    1    2    0  503  0.11826700325E+03 -0.35448956748E+03 -0.22602625821E+03  0.59223121069E+03  0.40000000000E+03 0.  1.
<mgrwt>
<rscale>  2 0.54740290E+03</rscale>
<asrwt>0</asrwt>
<pdfrwt beam="1">  1       21 0.49936352E-01 0.54740290E+03</pdfrwt>
<pdfrwt beam="2">  1       21 0.14440095E+00 0.54740290E+03</pdfrwt>
<totfact> 0.10292217E+03</totfact>
</mgrwt>
</event>
<event>
 4    1  0.4832791E-002  0.4869113E+03  0.7818608E-02  0.1017253E+00
         21   -1    0    0  501  502  0.00000000000E+00  0.00000000000E+00  0.76185703440E+03  0.76185703440E+03  0.00000000000E+00 0. -1.
         21   -1    0    0  502  503 -0.00000000000E+00 -0.00000000000E+00 -0.31163325218E+03  0.31163325218E+03  0.00000000000E+00 0.  1.
    9000007    1    1    2  501    0 -0.26887236072E+03  0.69211571607E+02  0.20487795846E+03  0.52825899507E+03  0.40000000000E+03 0.  1.
   -9000007    1    1    2    0  503  0.26887236072E+03 -0.69211571607E+02  0.24534582376E+03  0.54523129151E+03  0.40000000000E+03 0. -1.
<mgrwt>
<rscale>  2 0.48691127E+03</rscale>
<asrwt>0</asrwt>
<pdfrwt beam="1">  1       21 0.11720877E+00 0.48691127E+03</pdfrwt>
<pdfrwt beam="2">  1       21 0.47943578E-01 0.48691127E+03</pdfrwt>
<totfact> 0.19762742E+03</totfact>
</mgrwt>
</event>
<event>
 4    1  0.4832791E-002  0.4452468E+03  0.7818608E-02  0.1029149E+00
         21   -1    0    0  501  502  0.00000000000E+00  0.00000000000E+00  0.54180292179E+03  0.54180292179E+03  0.00000000000E+00 0.  1.
         21   -1    0    0  502  503 -0.00000000000E+00 -0.00000000000E+00 -0.44879808394E+03  0.44879808394E+03  0.00000000000E+00 0.  1.
    9000007    1    1    2  501    0 -0.82656005787E+02 -0.17723631874E+03  0.25937521507E+03  0.51528655151E+03  0.40000000000E+03 0.  1.
   -9000007    1    1    2    0  503  0.82656005787E+02  0.17723631874E+03 -0.16637037722E+03  0.47531445422E+03  0.40000000000E+03 0.  1.
<mgrwt>
<rscale>  2 0.44524682E+03</rscale>
<asrwt>0</asrwt>
<pdfrwt beam="1">  1       21 0.83354296E-01 0.44524682E+03</pdfrwt>
<pdfrwt beam="2">  1       21 0.69045859E-01 0.44524682E+03</pdfrwt>
<totfact> 0.20710829E+03</totfact>
</mgrwt>
</event>
<event>
 4    1  0.4832791E-002  0.6183260E+03  0.7818608E-02  0.9868098E-01
         21   -1    0    0  501  502  0.00000000000E+00  0.00000000000E+00  0.37164020645E+03  0.37164020645E+03  0.00000000000E+00 0.  1.
         21   -1    0    0  502  503 -0.00000000000E+00 -0.00000000000E+00 -0.10287561355E+04  0.10287561355E+04  0.00000000000E+00 0.  1.
    9000007    1    1    2  501    0  0.39396398955E+03  0.25907407783E+03 -0.32813469058E+03  0.69999955574E+03  0.40000000000E+03 0.  1.
   -9000007    1    1    2    0  503 -0.39396398955E+03 -0.25907407783E+03 -0.32898123845E+03  0.70039678620E+03  0.40000000000E+03 0.  1.
<mgrwt>
<rscale>  2 0.61832597E+03</rscale>
<asrwt>0</asrwt>
<pdfrwt beam="1">  1       21 0.57175417E-01 0.61832597E+03</pdfrwt>
<pdfrwt beam="2">  1       21 0.15827017E+00 0.61832597E+03</pdfrwt>
<totfact> 0.58298502E+02</totfact>
</mgrwt>
</event>
<event>
 4    1  0.4832791E-002  0.4256809E+03  0.7818608E-02  0.1035233E+00
         21   -1    0    0  503  502  0.00000000000E+00  0.00000000000E+00  0.23923336601E+03  0.23923336601E+03  0.00000000000E+00 0. -1.
         21   -1    0    0  501  503 -0.00000000000E+00 -0.00000000000E+00 -0.87480313985E+03  0.87480313985E+03  0.00000000000E+00 0. -1.
    9000007    1    1    2  501    0  0.12047211219E+03 -0.81796839060E+02 -0.52181077963E+03  0.67341721275E+03  0.40000000000E+03 0. -1.
   -9000007    1    1    2    0  502 -0.12047211219E+03  0.81796839060E+02 -0.11375899420E+03  0.44061929311E+03  0.40000000000E+03 0. -1.
<mgrwt>
<rscale>  2 0.42568093E+03</rscale>
<asrwt>0</asrwt>
<pdfrwt beam="1">  1       21 0.36805133E-01 0.42568093E+03</pdfrwt>
<pdfrwt beam="2">  1       21 0.13458510E+00 0.42568093E+03</pdfrwt>
<totfact> 0.24526635E+03</totfact>
</mgrwt>
</event>
<event>
 4    1  0.4832791E-002  0.5519329E+03  0.7818608E-02  0.1001048E+00
         21   -1    0    0  503  502  0.00000000000E+00  0.00000000000E+00  0.13205015256E+04  0.13205015256E+04  0.00000000000E+00 0. -1.
         21   -1    0    0  501  503 -0.00000000000E+00 -0.00000000000E+00 -0.29662304167E+03  0.29662304167E+03  0.00000000000E+00 0. -1.
    9000007    1    1    2  501    0 -0.11305171951E+03  0.36311044996E+03  0.13073815543E+03  0.56720574349E+03  0.40000000000E+03 0. -1.
   -9000007    1    1    2    0  502  0.11305171951E+03 -0.36311044996E+03  0.89314032848E+03  0.10499188238E+04  0.40000000000E+03 0. -1.
<mgrwt>
<rscale>  2 0.55193287E+03</rscale>
<asrwt>0</asrwt>
<pdfrwt beam="1">  1       21 0.20315408E+00 0.55193287E+03</pdfrwt>
<pdfrwt beam="2">  1       21 0.45634315E-01 0.55193287E+03</pdfrwt>
<totfact> 0.46373569E+02</totfact>
</mgrwt>
</event>
<event>
 4    1  0.4832791E-002  0.4217979E+03  0.7818608E-02  0.1036483E+00
         21   -1    0    0  501  502  0.00000000000E+00  0.00000000000E+00  0.88803859581E+03  0.88803859581E+03  0.00000000000E+00 0.  1.
         21   -1    0    0  502  503 -0.00000000000E+00 -0.00000000000E+00 -0.21318917298E+03  0.21318917298E+03  0.00000000000E+00 0. -1.
    9000007    1    1    2  501    0  0.13327543406E+03  0.12292208180E+02  0.47257907937E+03  0.63343857316E+03  0.40000000000E+03 0.  1.
   -9000007    1    1    2    0  503 -0.13327543406E+03 -0.12292208180E+02  0.20227034346E+03  0.46778919563E+03  0.40000000000E+03 0.  1.
<mgrwt>
<rscale>  2 0.42179787E+03</rscale>
<asrwt>0</asrwt>
<pdfrwt beam="1">  1       21 0.13662132E+00 0.42179787E+03</pdfrwt>
<pdfrwt beam="2">  1       21 0.32798335E-01 0.42179787E+03</pdfrwt>
<totfact> 0.29808088E+03</totfact>
</mgrwt>
</event>
<event>
 4    1  0.4832791E-002  0.5003184E+03  0.7818608E-02  0.1013696E+00
         21   -1    0    0  503  502  0.00000000000E+00  0.00000000000E+00  0.20986701345E+03  0.20986701345E+03  0.00000000000E+00 0. -1.
         21   -1    0    0  501  503 -0.00000000000E+00 -0.00000000000E+00 -0.11928665369E+04  0.11928665369E+04  0.00000000000E+00 0.  1.
    9000007    1    1    2  501    0  0.26735529769E+03  0.13725774077E+03 -0.49847981286E+03  0.70625821513E+03  0.40000000000E+03 0.  1.
   -9000007    1    1    2    0  502 -0.26735529769E+03 -0.13725774077E+03 -0.48451971058E+03  0.69647533520E+03  0.40000000000E+03 0.  1.
<mgrwt>
<rscale>  2 0.50031844E+03</rscale>
<asrwt>0</asrwt>
<pdfrwt beam="1">  1       21 0.32287232E-01 0.50031844E+03</pdfrwt>
<pdfrwt beam="2">  1       21 0.18351793E+00 0.50031844E+03</pdfrwt>
<totfact> 0.13125006E+03</totfact>
</mgrwt>
</event>
<event>
 4    1  0.4832791E-002  0.5097776E+03  0.7818608E-02  0.1011258E+00
         21   -1    0    0  501  502  0.00000000000E+00  0.00000000000E+00  0.93019711376E+03  0.93019711376E+03  0.00000000000E+00 0. -1.
         21   -1    0    0  502  503 -0.00000000000E+00 -0.00000000000E+00 -0.32651277390E+03  0.32651277390E+03  0.00000000000E+00 0. -1.
    9000007    1    1    2  501    0 -0.31511039253E+03 -0.24055521256E+02  0.54059163642E+03  0.74304276119E+03  0.40000000000E+03 0. -1.
   -9000007    1    1    2    0  503  0.31511039253E+03  0.24055521256E+02  0.63092703439E+02  0.51366712647E+03  0.40000000000E+03 0. -1.
<mgrwt>
<rscale>  2 0.50977763E+03</rscale>
<asrwt>0</asrwt>
<pdfrwt beam="1">  1       21 0.14310725E+00 0.50977763E+03</pdfrwt>
<pdfrwt beam="2">  1       21 0.50232735E-01 0.50977763E+03</pdfrwt>
<totfact> 0.10552544E+03</totfact>
</mgrwt>
</event>
<event>
 4    1  0.4832791E-002  0.4658241E+03  0.7818608E-02  0.1023105E+00
         21   -1    0    0  501  502  0.00000000000E+00  0.00000000000E+00  0.17463140707E+04  0.17463140707E+04  0.00000000000E+00 0. -1.
         21   -1    0    0  502  503 -0.00000000000E+00 -0.00000000000E+00 -0.32828220465E+03  0.32828220465E+03  0.00000000000E+00 0. -1.
    9000007    1    1    2  501    0 -0.13735311876E+03  0.19525930072E+03  0.15267679797E+04  0.15962495223E+04  0.40000000000E+03 0. -1.
   -9000007    1    1    2    0  503  0.13735311876E+03 -0.19525930072E+03 -0.10873611360E+03  0.47834675305E+03  0.40000000000E+03 0. -1.
<mgrwt>
<rscale>  2 0.46582408E+03</rscale>
<asrwt>0</asrwt>
<pdfrwt beam="1">  1       21 0.26866370E+00 0.46582408E+03</pdfrwt>
<pdfrwt beam="2">  1       21 0.50504956E-01 0.46582408E+03</pdfrwt>
<totfact> 0.15058776E+02</totfact>
</mgrwt>
</event>
<event>
 4    1  0.4832791E-002  0.4120588E+03  0.7818608E-02  0.1039682E+00
         21   -1    0    0  503  502  0.00000000000E+00  0.00000000000E+00  0.15727797133E+04  0.15727797133E+04  0.00000000000E+00 0.  1.
         21   -1    0    0  501  503 -0.00000000000E+00 -0.00000000000E+00 -0.11848471060E+03  0.11848471060E+03  0.00000000000E+00 0.  1.
    9000007    1    1    2  501    0 -0.28758510533E+02 -0.94685945542E+02  0.47507896889E+03  0.62888194989E+03  0.40000000000E+03 0.  1.
   -9000007    1    1    2    0  502  0.28758510533E+02  0.94685945542E+02  0.97921603382E+03  0.10623824740E+04  0.40000000000E+03 0.  1.
<mgrwt>
<rscale>  2 0.41205883E+03</rscale>
<asrwt>0</asrwt>
<pdfrwt beam="1">  1       21 0.24196609E+00 0.41205883E+03</pdfrwt>
<pdfrwt beam="2">  1       21 0.18228418E-01 0.41205883E+03</pdfrwt>
<totfact> 0.17234500E+03</totfact>
</mgrwt>
</event>
<event>
 4    1  0.4832791E-002  0.4473514E+03  0.7818608E-02  0.1028515E+00
         21   -1    0    0  503  502  0.00000000000E+00  0.00000000000E+00  0.15694034944E+03  0.15694034944E+03  0.00000000000E+00 0.  1.
         21   -1    0    0  501  503 -0.00000000000E+00 -0.00000000000E+00 -0.13856201812E+04  0.13856201812E+04  0.00000000000E+00 0.  1.
    9000007    1    1    2  501    0  0.13590369796E+03  0.14715125088E+03 -0.83211209255E+03  0.94474009141E+03  0.40000000000E+03 0.  1.
   -9000007    1    1    2    0  502 -0.13590369796E+03 -0.14715125088E+03 -0.39656773919E+03  0.59782043919E+03  0.40000000000E+03 0.  1.
<mgrwt>
<rscale>  2 0.44735143E+03</rscale>
<asrwt>0</asrwt>
<pdfrwt beam="1">  1       21 0.24144669E-01 0.44735143E+03</pdfrwt>
<pdfrwt beam="2">  1       21 0.21317234E+00 0.44735143E+03</pdfrwt>
<totfact> 0.15049892E+03</totfact>
</mgrwt>
</event>
<event>
 4    1  0.4832791E-002  0.4905675E+03  0.7818608E-02  0.1016271E+00
         21   -1    0    0  501  502  0.00000000000E+00  0.00000000000E+00  0.14254685117E+04  0.14254685117E+04  0.00000000000E+00 0.  1.
         21   -1    0    0  502  503 -0.00000000000E+00 -0.00000000000E+00 -0.16920622055E+03  0.16920622055E+03  0.00000000000E+00 0.  1.
    9000007    1    1    2  501    0  0.27621552614E+03  0.66041327037E+02  0.66591626268E+03  0.82710394912E+03  0.40000000000E+03 0. -1.
   -9000007    1    1    2    0  503 -0.27621552614E+03 -0.66041327037E+02  0.59034602843E+03  0.76757078308E+03  0.40000000000E+03 0. -1.
<mgrwt>
<rscale>  2 0.49056750E+03</rscale>
<asrwt>0</asrwt>
<pdfrwt beam="1">  1       21 0.21930284E+00 0.49056750E+03</pdfrwt>
<pdfrwt beam="2">  1       21 0.26031727E-01 0.49056750E+03</pdfrwt>
<totfact> 0.11641005E+03</totfact>
</mgrwt>
</event>
<event>
 4    1  0.4832791E-002  0.4375659E+03  0.7818608E-02  0.1031496E+00
         21   -1    0    0  501  502  0.00000000000E+00  0.00000000000E+00  0.15625051550E+03  0.15625051550E+03  0.00000000000E+00 0. -1.
         21   -1    0    0  502  503 -0.00000000000E+00 -0.00000000000E+00 -0.24494486662E+04  0.24494486662E+04  0.00000000000E+00 0. -1.
    9000007    1    1    2  501    0  0.20107362590E+02 -0.17623747390E+03 -0.22558638241E+03  0.49229378339E+03  0.40000000000E+03 0. -1.
   -9000007    1    1    2    0  503 -0.20107362590E+02  0.17623747390E+03 -0.20676117683E+04  0.21134053983E+04  0.40000000000E+03 0. -1.
<mgrwt>
<rscale>  2 0.43756594E+03</rscale>
<asrwt>0</asrwt>
<pdfrwt beam="1">  1       21 0.24038542E-01 0.43756594E+03</pdfrwt>
<pdfrwt beam="2">  1       21 0.37683824E+00 0.43756594E+03</pdfrwt>
<totfact> 0.15168642E+02</totfact>
</mgrwt>
</event>
<event>
 4    1  0.4832791E-002  0.4498998E+03  0.7818608E-02  0.1027752E+00
         21   -1    0    0  501  502  0.00000000000E+00  0.00000000000E+00  0.21455424172E+04  0.21455424172E+04  0.00000000000E+00 0. -1.
         21   -1    0    0  502  503 -0.00000000000E+00 -0.00000000000E+00 -0.84105672123E+03  0.84105672123E+03  0.00000000000E+00 0. -1.
    9000007    1    1    2  501    0 -0.13208525714E+03  0.15799791775E+03  0.20593018807E+04  0.21078743067E+04  0.40000000000E+03 0. -1.
   -9000007    1    1    2    0  503  0.13208525714E+03 -0.15799791775E+03 -0.75481618471E+03  0.87872483171E+03  0.40000000000E+03 0. -1.
<mgrwt>
<rscale>  2 0.44989983E+03</rscale>
<asrwt>0</asrwt>
<pdfrwt beam="1">  1       21 0.33008345E+00 0.44989983E+03</pdfrwt>
<pdfrwt beam="2">  1       21 0.12939334E+00 0.44989983E+03</pdfrwt>
<totfact> 0.72310506E+00</totfact>
</mgrwt>
</event>
<event>
 4    1  0.4832791E-002  0.6181877E+03  0.7818608E-02  0.9868375E-01
         21   -1    0    0  503  502  0.00000000000E+00  0.00000000000E+00  0.14791282967E+04  0.14791282967E+04  0.00000000000E+00 0. -1.
         21   -1    0    0  501  503 -0.00000000000E+00 -0.00000000000E+00 -0.42776479687E+03  0.42776479687E+03  0.00000000000E+00 0. -1.
    9000007    1    1    2  501    0  0.19603600363E+03  0.42863257604E+03 -0.74315680262E+02  0.62263859525E+03  0.40000000000E+03 0. -1.
   -9000007    1    1    2    0  502 -0.19603600363E+03 -0.42863257604E+03  0.11256791801E+04  0.12842544984E+04  0.40000000000E+03 0. -1.
<mgrwt>
<rscale>  2 0.61818767E+03</rscale>
<asrwt>0</asrwt>
<pdfrwt beam="1">  1       21 0.22755820E+00 0.61818767E+03</pdfrwt>
<pdfrwt beam="2">  1       21 0.65809969E-01 0.61818767E+03</pdfrwt>
<totfact> 0.14126238E+02</totfact>
</mgrwt>
</event>
<event>
 4    1  0.4832791E-002  0.5293527E+03  0.7818608E-02  0.1006389E+00
         21   -1    0    0  503  502  0.00000000000E+00  0.00000000000E+00  0.15974658788E+04  0.15974658788E+04  0.00000000000E+00 0.  1.
         21   -1    0    0  501  503 -0.00000000000E+00 -0.00000000000E+00 -0.20280207418E+03  0.20280207418E+03  0.00000000000E+00 0.  1.
    9000007    1    1    2  501    0  0.23862029164E+03 -0.25154446809E+03  0.36652873746E+03  0.64386145900E+03  0.40000000000E+03 0.  1.
   -9000007    1    1    2    0  502 -0.23862029164E+03  0.25154446809E+03  0.10281350672E+04  0.11564064940E+04  0.40000000000E+03 0.  1.
<mgrwt>
<rscale>  2 0.52935268E+03</rscale>
<asrwt>0</asrwt>
<pdfrwt beam="1">  1       21 0.24576397E+00 0.52935268E+03</pdfrwt>
<pdfrwt beam="2">  1       21 0.31200320E-01 0.52935268E+03</pdfrwt>
<totfact> 0.54462643E+02</totfact>
</mgrwt>
</event>
<event>
 4    1  0.4832791E-002  0.4191071E+03  0.7818608E-02  0.1037357E+00
         21   -1    0    0  503  502  0.00000000000E+00  0.00000000000E+00  0.91823833455E+03  0.91823833455E+03  0.00000000000E+00 0.  1.
         21   -1    0    0  501  503 -0.00000000000E+00 -0.00000000000E+00 -0.21085822149E+03  0.21085822149E+03  0.00000000000E+00 0.  1.
    9000007    1    1    2  501    0 -0.11777816134E+03 -0.42179199838E+02  0.18171328871E+03  0.45680466228E+03  0.40000000000E+03 0. -1.
   -9000007    1    1    2    0  502  0.11777816134E+03  0.42179199838E+02  0.52566682435E+03  0.67229189376E+03  0.40000000000E+03 0. -1.
<mgrwt>
<rscale>  2 0.41910712E+03</rscale>
<asrwt>0</asrwt>
<pdfrwt beam="1">  1       21 0.14126743E+00 0.41910712E+03</pdfrwt>
<pdfrwt beam="2">  1       21 0.32439727E-01 0.41910712E+03</pdfrwt>
<totfact> 0.27917544E+03</totfact>
</mgrwt>
</event>
<event>
 4    1  0.4832791E-002  0.4694535E+03  0.7818608E-02  0.1022075E+00
         21   -1    0    0  501  502  0.00000000000E+00  0.00000000000E+00  0.30472830749E+03  0.30472830749E+03  0.00000000000E+00 0.  1.
         21   -1    0    0  502  503 -0.00000000000E+00 -0.00000000000E+00 -0.80818491508E+03  0.80818491508E+03  0.00000000000E+00 0.  1.
    9000007    1    1    2  501    0 -0.16075918466E+03 -0.18585767758E+03 -0.71307136893E+02  0.47483818248E+03  0.40000000000E+03 0.  1.
   -9000007    1    1    2    0  503  0.16075918466E+03  0.18585767758E+03 -0.43214947070E+03  0.63807504010E+03  0.40000000000E+03 0.  1.
<mgrwt>
<rscale>  2 0.46945350E+03</rscale>
<asrwt>0</asrwt>
<pdfrwt beam="1">  1       21 0.46881278E-01 0.46945350E+03</pdfrwt>
<pdfrwt beam="2">  1       21 0.12433614E+00 0.46945350E+03</pdfrwt>
<totfact> 0.17937705E+03</totfact>
</mgrwt>
</event>
<event>
 4    1  0.4832791E-002  0.4157868E+03  0.7818608E-02  0.1038446E+00
         21   -1    0    0  501  502  0.00000000000E+00  0.00000000000E+00  0.21560880474E+03  0.21560880474E+03  0.00000000000E+00 0. -1.
         21   -1    0    0  502  503 -0.00000000000E+00 -0.00000000000E+00 -0.98782165431E+03  0.98782165431E+03  0.00000000000E+00 0.  1.
    9000007    1    1    2  501    0 -0.90593935295E+02  0.68347424628E+02 -0.64721105743E+03  0.76925989394E+03  0.40000000000E+03 0.  1.
   -9000007    1    1    2    0  503  0.90593935295E+02 -0.68347424628E+02 -0.12500179214E+03  0.43417056511E+03  0.40000000000E+03 0. -1.
<mgrwt>
<rscale>  2 0.41578676E+03</rscale>
<asrwt>0</asrwt>
<pdfrwt beam="1">  1       21 0.33170586E-01 0.41578676E+03</pdfrwt>
<pdfrwt beam="2">  1       21 0.15197256E+00 0.41578676E+03</pdfrwt>
<totfact> 0.21965108E+03</totfact>
</mgrwt>
</event>
<event>
 4    1  0.4832791E-002  0.4371127E+03  0.7818608E-02  0.1031636E+00
         21   -1    0    0  501  502  0.00000000000E+00  0.00000000000E+00  0.24231587663E+03  0.24231587663E+03  0.00000000000E+00 0. -1.
         21   -1    0    0  502  503 -0.00000000000E+00 -0.00000000000E+00 -0.79247652119E+03  0.79247652119E+03  0.00000000000E+00 0. -1.
    9000007    1    1    2  501    0  0.10165434766E+03  0.14399263520E+03 -0.23845662430E+03  0.49792474036E+03  0.40000000000E+03 0.  1.
   -9000007    1    1    2    0  503 -0.10165434766E+03 -0.14399263520E+03 -0.31170402025E+03  0.53686765746E+03  0.40000000000E+03 0.  1.
<mgrwt>
<rscale>  2 0.43711267E+03</rscale>
<asrwt>0</asrwt>
<pdfrwt beam="1">  1       21 0.37279366E-01 0.43711267E+03</pdfrwt>
<pdfrwt beam="2">  1       21 0.12191946E+00 0.43711267E+03</pdfrwt>
<totfact> 0.30708425E+03</totfact>
</mgrwt>
</event>
<event>
 4    1  0.4832791E-002  0.6828829E+03  0.7818608E-02  0.9746961E-01
         21   -1    0    0  503  502  0.00000000000E+00  0.00000000000E+00  0.13367245076E+04  0.13367245076E+04  0.00000000000E+00 0. -1.
         21   -1    0    0  501  503 -0.00000000000E+00 -0.00000000000E+00 -0.52748165418E+03  0.52748165418E+03  0.00000000000E+00 0.  1.
    9000007    1    1    2  501    0  0.25554758265E+03 -0.49094247246E+03  0.94703168350E+03  0.11675607427E+04  0.40000000000E+03 0. -1.
   -9000007    1    1    2    0  502 -0.25554758265E+03  0.49094247246E+03 -0.13778883010E+03  0.69664541911E+03  0.40000000000E+03 0.  1.
<mgrwt>
<rscale>  2 0.68288292E+03</rscale>
<asrwt>0</asrwt>
<pdfrwt beam="1">  1       21 0.20564992E+00 0.68288292E+03</pdfrwt>
<pdfrwt beam="2">  1       21 0.81151024E-01 0.68288292E+03</pdfrwt>
<totfact> 0.11864986E+02</totfact>
</mgrwt>
</event>
<event>
 4    1  0.4832791E-002  0.4530938E+03  0.7818608E-02  0.1026803E+00
         21   -1    0    0  503  502  0.00000000000E+00  0.00000000000E+00  0.10718471145E+03  0.10718471145E+03  0.00000000000E+00 0. -1.
         21   -1    0    0  501  503 -0.00000000000E+00 -0.00000000000E+00 -0.47806514250E+04  0.47806514250E+04  0.00000000000E+00 0.  1.
    9000007    1    1    2  501    0 -0.10726992008E+03 -0.18381271729E+03 -0.42287714552E+04  0.42529756608E+04  0.40000000000E+03 0.  1.
   -9000007    1    1    2    0  502  0.10726992008E+03  0.18381271729E+03 -0.44469525835E+03  0.63486047569E+03  0.40000000000E+03 0. -1.
<mgrwt>
<rscale>  2 0.45309375E+03</rscale>
<asrwt>0</asrwt>
<pdfrwt beam="1">  1       21 0.16489955E-01 0.45309375E+03</pdfrwt>
<pdfrwt beam="2">  1       21 0.73548486E+00 0.45309375E+03</pdfrwt>
<totfact> 0.53393403E-01</totfact>
</mgrwt>
</event>
<event>
 4    1  0.4832791E-002  0.4425392E+03  0.7818608E-02  0.1029971E+00
         21   -1    0    0  501  502  0.00000000000E+00  0.00000000000E+00  0.36501112570E+03  0.36501112570E+03  0.00000000000E+00 0. -1.
         21   -1    0    0  502  503 -0.00000000000E+00 -0.00000000000E+00 -0.53707213749E+03  0.53707213749E+03  0.00000000000E+00 0. -1.
    9000007    1    1    2  501    0 -0.41033693685E+02  0.18481671322E+03 -0.71756891812E+02  0.44831911963E+03  0.40000000000E+03 0. -1.
   -9000007    1    1    2    0  503  0.41033693685E+02 -0.18481671322E+03 -0.10030411998E+03  0.45376414357E+03  0.40000000000E+03 0. -1.
<mgrwt>
<rscale>  2 0.44253924E+03</rscale>
<asrwt>0</asrwt>
<pdfrwt beam="1">  1       21 0.56155557E-01 0.44253924E+03</pdfrwt>
<pdfrwt beam="2">  1       21 0.82626483E-01 0.44253924E+03</pdfrwt>
<totfact> 0.33373868E+03</totfact>
</mgrwt>
</event>
<event>
 4    1  0.4832791E-002  0.4252559E+03  0.7818608E-02  0.1035369E+00
         21   -1    0    0  501  502  0.00000000000E+00  0.00000000000E+00  0.29623420129E+03  0.29623420129E+03  0.00000000000E+00 0. -1.
         21   -1    0    0  502  503 -0.00000000000E+00 -0.00000000000E+00 -0.62193139694E+03  0.62193139694E+03  0.00000000000E+00 0.  1.
    9000007    1    1    2  501    0  0.48586308777E+02  0.13594835684E+03 -0.10053152130E+03  0.43697731280E+03  0.40000000000E+03 0. -1.
   -9000007    1    1    2    0  503 -0.48586308777E+02 -0.13594835684E+03 -0.22516567435E+03  0.48118828543E+03  0.40000000000E+03 0. -1.
<mgrwt>
<rscale>  2 0.42525591E+03</rscale>
<asrwt>0</asrwt>
<pdfrwt beam="1">  1       21 0.45574493E-01 0.42525591E+03</pdfrwt>
<pdfrwt beam="2">  1       21 0.95681752E-01 0.42525591E+03</pdfrwt>
<totfact> 0.37052921E+03</totfact>
</mgrwt>
</event>
<event>
 4    1  0.4832791E-002  0.4134355E+03  0.7818608E-02  0.1039224E+00
         21   -1    0    0  501  502  0.00000000000E+00  0.00000000000E+00  0.10762248347E+03  0.10762248347E+03  0.00000000000E+00 0.  1.
         21   -1    0    0  502  503 -0.00000000000E+00 -0.00000000000E+00 -0.15893651072E+04  0.15893651072E+04  0.00000000000E+00 0.  1.
    9000007    1    1    2  501    0  0.99331369231E+02 -0.32590960838E+02 -0.71816202075E+03  0.82866493813E+03  0.40000000000E+03 0. -1.
   -9000007    1    1    2    0  503 -0.99331369231E+02  0.32590960838E+02 -0.76358060296E+03  0.86832265251E+03  0.40000000000E+03 0. -1.
<mgrwt>
<rscale>  2 0.41343547E+03</rscale>
<asrwt>0</asrwt>
<pdfrwt beam="1">  1       21 0.16557306E-01 0.41343547E+03</pdfrwt>
<pdfrwt beam="2">  1       21 0.24451770E+00 0.41343547E+03</pdfrwt>
<totfact> 0.19891930E+03</totfact>
</mgrwt>
</event>
<event>
 4    1  0.4832791E-002  0.5694760E+03  0.7818608E-02  0.9970839E-01
         21   -1    0    0  501  502  0.00000000000E+00  0.00000000000E+00  0.19483880597E+03  0.19483880597E+03  0.00000000000E+00 0. -1.
         21   -1    0    0  502  503 -0.00000000000E+00 -0.00000000000E+00 -0.16900700039E+04  0.16900700039E+04  0.00000000000E+00 0.  1.
    9000007    1    1    2  501    0 -0.35578694102E+03  0.19421272320E+03 -0.63161874266E+03  0.85043821959E+03  0.40000000000E+03 0. -1.
   -9000007    1    1    2    0  503  0.35578694102E+03 -0.19421272320E+03 -0.86361245526E+03  0.10344705903E+04  0.40000000000E+03 0.  1.
<mgrwt>
<rscale>  2 0.56947601E+03</rscale>
<asrwt>0</asrwt>
<pdfrwt beam="1">  1       21 0.29975200E-01 0.56947601E+03</pdfrwt>
<pdfrwt beam="2">  1       21 0.26001078E+00 0.56947601E+03</pdfrwt>
<totfact> 0.47351723E+02</totfact>
</mgrwt>
</event>
<event>
 4    1  0.4832791E-002  0.4298033E+03  0.7818608E-02  0.1033922E+00
         21   -1    0    0  501  502  0.00000000000E+00  0.00000000000E+00  0.10843872832E+04  0.10843872832E+04  0.00000000000E+00 0. -1.
         21   -1    0    0  502  503 -0.00000000000E+00 -0.00000000000E+00 -0.30244289901E+03  0.30244289901E+03  0.00000000000E+00 0. -1.
    9000007    1    1    2  501    0  0.14818805325E+03 -0.52642133175E+02  0.84922270646E+03  0.95179309646E+03  0.40000000000E+03 0. -1.
   -9000007    1    1    2    0  503 -0.14818805325E+03  0.52642133175E+02 -0.67278322294E+02  0.43503708573E+03  0.40000000000E+03 0. -1.
<mgrwt>
<rscale>  2 0.42980332E+03</rscale>
<asrwt>0</asrwt>
<pdfrwt beam="1">  1       21 0.16682881E+00 0.42980332E+03</pdfrwt>
<pdfrwt beam="2">  1       21 0.46529677E-01 0.42980332E+03</pdfrwt>
<totfact> 0.84127486E+02</totfact>
</mgrwt>
</event>
<event>
 4    1  0.4832791E-002  0.5187578E+03  0.7818608E-02  0.1008996E+00
         21   -1    0    0  501  502  0.00000000000E+00  0.00000000000E+00  0.84197941136E+03  0.84197941136E+03  0.00000000000E+00 0. -1.
         21   -1    0    0  502  503 -0.00000000000E+00 -0.00000000000E+00 -0.35170240232E+03  0.35170240232E+03  0.00000000000E+00 0.  1.
    9000007    1    1    2  501    0 -0.27801337571E+03 -0.17837648665E+03  0.42541342495E+03  0.67088463255E+03  0.40000000000E+03 0.  1.
   -9000007    1    1    2    0  503  0.27801337571E+03  0.17837648665E+03  0.64863584089E+02  0.52279718113E+03  0.40000000000E+03 0. -1.
<mgrwt>
<rscale>  2 0.51875775E+03</rscale>
<asrwt>0</asrwt>
<pdfrwt beam="1">  1       21 0.12953529E+00 0.51875775E+03</pdfrwt>
<pdfrwt beam="2">  1       21 0.54108062E-01 0.51875775E+03</pdfrwt>
<totfact> 0.11670211E+03</totfact>
</mgrwt>
</event>
<event>
 4    1  0.4832791E-002  0.5154258E+03  0.7818608E-02  0.1009829E+00
         21   -1    0    0  503  502  0.00000000000E+00  0.00000000000E+00  0.26623949781E+03  0.26623949781E+03  0.00000000000E+00 0. -1.
         21   -1    0    0  501  503 -0.00000000000E+00 -0.00000000000E+00 -0.10031934714E+04  0.10031934714E+04  0.00000000000E+00 0.  1.
    9000007    1    1    2  501    0  0.22717356752E+03  0.23249934550E+03 -0.41485406957E+03  0.66164013971E+03  0.40000000000E+03 0.  1.
   -9000007    1    1    2    0  502 -0.22717356752E+03 -0.23249934550E+03 -0.32209990406E+03  0.60779282954E+03  0.40000000000E+03 0.  1.
<mgrwt>
<rscale>  2 0.51542582E+03</rscale>
<asrwt>0</asrwt>
<pdfrwt beam="1">  1       21 0.40959922E-01 0.51542582E+03</pdfrwt>
<pdfrwt beam="2">  1       21 0.15433746E+00 0.51542582E+03</pdfrwt>
<totfact> 0.13171914E+03</totfact>
</mgrwt>
</event>
<event>
 4    1  0.4832791E-002  0.4782016E+03  0.7818608E-02  0.1019631E+00
         21   -1    0    0  501  502  0.00000000000E+00  0.00000000000E+00  0.41119525260E+03  0.41119525260E+03  0.00000000000E+00 0. -1.
         21   -1    0    0  502  503 -0.00000000000E+00 -0.00000000000E+00 -0.58778035477E+03  0.58778035477E+03  0.00000000000E+00 0. -1.
    9000007    1    1    2  501    0 -0.29079551588E+02  0.26044407300E+03  0.27619344381E+02  0.47899850069E+03  0.40000000000E+03 0. -1.
   -9000007    1    1    2    0  503  0.29079551588E+02 -0.26044407300E+03 -0.20420444655E+03  0.51997710668E+03  0.40000000000E+03 0. -1.
<mgrwt>
<rscale>  2 0.47820156E+03</rscale>
<asrwt>0</asrwt>
<pdfrwt beam="1">  1       21 0.63260808E-01 0.47820156E+03</pdfrwt>
<pdfrwt beam="2">  1       21 0.90427747E-01 0.47820156E+03</pdfrwt>
<totfact> 0.20536367E+03</totfact>
</mgrwt>
</event>
<event>
 4    1  0.4832791E-002  0.4421725E+03  0.7818608E-02  0.1030082E+00
         21   -1    0    0  503  502  0.00000000000E+00  0.00000000000E+00  0.22994154746E+03  0.22994154746E+03  0.00000000000E+00 0.  1.
         21   -1    0    0  501  503 -0.00000000000E+00 -0.00000000000E+00 -0.96625844165E+03  0.96625844165E+03  0.00000000000E+00 0.  1.
    9000007    1    1    2  501    0  0.18817829917E+03 -0.10269920209E+02 -0.57536370065E+03  0.72564449393E+03  0.40000000000E+03 0.  1.
   -9000007    1    1    2    0  502 -0.18817829917E+03  0.10269920209E+02 -0.16095319354E+03  0.47055549519E+03  0.40000000000E+03 0.  1.
<mgrwt>
<rscale>  2 0.44217253E+03</rscale>
<asrwt>0</asrwt>
<pdfrwt beam="1">  1       21 0.35375622E-01 0.44217253E+03</pdfrwt>
<pdfrwt beam="2">  1       21 0.14865515E+00 0.44217253E+03</pdfrwt>
<totfact> 0.20260473E+03</totfact>
</mgrwt>
</event>
<event>
 4    1  0.4832791E-002  0.4497919E+03  0.7818608E-02  0.1027784E+00
         21   -1    0    0  501  502  0.00000000000E+00  0.00000000000E+00  0.11247467220E+04  0.11247467220E+04  0.00000000000E+00 0.  1.
         21   -1    0    0  502  503 -0.00000000000E+00 -0.00000000000E+00 -0.28584109564E+03  0.28584109564E+03  0.00000000000E+00 0.  1.
    9000007    1    1    2  501    0  0.20005511707E+03  0.47861728511E+02  0.84888355098E+03  0.96068521278E+03  0.40000000000E+03 0.  1.
   -9000007    1    1    2    0  503 -0.20005511707E+03 -0.47861728511E+02 -0.99779245727E+01  0.44990260490E+03  0.40000000000E+03 0.  1.
<mgrwt>
<rscale>  2 0.44979195E+03</rscale>
<asrwt>0</asrwt>
<pdfrwt beam="1">  1       21 0.17303796E+00 0.44979195E+03</pdfrwt>
<pdfrwt beam="2">  1       21 0.43975554E-01 0.44979195E+03</pdfrwt>
<totfact> 0.84567710E+02</totfact>
</mgrwt>
</event>
<event>
 4    1  0.4832791E-002  0.4379731E+03  0.7818608E-02  0.1031371E+00
         21   -1    0    0  503  502  0.00000000000E+00  0.00000000000E+00  0.50050670816E+03  0.50050670816E+03  0.00000000000E+00 0. -1.
         21   -1    0    0  501  503 -0.00000000000E+00 -0.00000000000E+00 -0.89961398910E+03  0.89961398910E+03  0.00000000000E+00 0. -1.
    9000007    1    1    2  501    0 -0.61025702753E+02  0.16761955847E+03 -0.72993017026E+03  0.85124526797E+03  0.40000000000E+03 0. -1.
   -9000007    1    1    2    0  502  0.61025702753E+02 -0.16761955847E+03  0.33082288932E+03  0.54887542929E+03  0.40000000000E+03 0. -1.
<mgrwt>
<rscale>  2 0.43797312E+03</rscale>
<asrwt>0</asrwt>
<pdfrwt beam="1">  1       21 0.77001032E-01 0.43797312E+03</pdfrwt>
<pdfrwt beam="2">  1       21 0.13840215E+00 0.43797312E+03</pdfrwt>
<totfact> 0.46284534E+02</totfact>
</mgrwt>
</event>
<event>
 4    1  0.4832791E-002  0.5308709E+03  0.7818608E-02  0.1006021E+00
         21   -1    0    0  503  502  0.00000000000E+00  0.00000000000E+00  0.34332240199E+03  0.34332240199E+03  0.00000000000E+00 0. -1.
         21   -1    0    0  501  503 -0.00000000000E+00 -0.00000000000E+00 -0.86697447733E+03  0.86697447733E+03  0.00000000000E+00 0. -1.
    9000007    1    1    2  501    0  0.13720087122E+03  0.32093586017E+03 -0.40137246322E+03  0.66552517581E+03  0.40000000000E+03 0. -1.
   -9000007    1    1    2    0  502 -0.13720087122E+03 -0.32093586017E+03 -0.12227961211E+03  0.54477170351E+03  0.40000000000E+03 0. -1.
<mgrwt>
<rscale>  2 0.53087089E+03</rscale>
<asrwt>0</asrwt>
<pdfrwt beam="1">  1       21 0.52818832E-01 0.53087089E+03</pdfrwt>
<pdfrwt beam="2">  1       21 0.13338069E+00 0.53087089E+03</pdfrwt>
<totfact> 0.11340362E+03</totfact>
</mgrwt>
</event>
<event>
 4    1  0.4832791E-002  0.6179553E+03  0.7818608E-02  0.9868839E-01
         21   -1    0    0  501  502  0.00000000000E+00  0.00000000000E+00  0.79259038993E+03  0.79259038993E+03  0.00000000000E+00 0. -1.
         21   -1    0    0  502  503 -0.00000000000E+00 -0.00000000000E+00 -0.77043527318E+03  0.77043527318E+03  0.00000000000E+00 0.  1.
    9000007    1    1    2  501    0 -0.14535877783E+02  0.47080517540E+03  0.48942550888E+03  0.78829317748E+03  0.40000000000E+03 0. -1.
   -9000007    1    1    2    0  503  0.14535877783E+02 -0.47080517540E+03 -0.46727039213E+03  0.77473248563E+03  0.40000000000E+03 0.  1.
<mgrwt>
<rscale>  2 0.61795534E+03</rscale>
<asrwt>0</asrwt>
<pdfrwt beam="1">  1       21 0.12193698E+00 0.61795534E+03</pdfrwt>
<pdfrwt beam="2">  1       21 0.11852850E+00 0.61795534E+03</pdfrwt>
<totfact> 0.21121974E+02</totfact>
</mgrwt>
</event>
<event>
 4    1  0.4832791E-002  0.5058881E+03  0.7818608E-02  0.1012253E+00
         21   -1    0    0  501  502  0.00000000000E+00  0.00000000000E+00  0.17638250967E+03  0.17638250967E+03  0.00000000000E+00 0.  1.
         21   -1    0    0  502  503 -0.00000000000E+00 -0.00000000000E+00 -0.17852960060E+04  0.17852960060E+04  0.00000000000E+00 0.  1.
    9000007    1    1    2  501    0  0.30444624637E+03  0.56879459903E+02 -0.37999493008E+03  0.63270762345E+03  0.40000000000E+03 0.  1.
   -9000007    1    1    2    0  503 -0.30444624637E+03 -0.56879459903E+02 -0.12289185662E+04  0.13289708922E+04  0.40000000000E+03 0.  1.
<mgrwt>
<rscale>  2 0.50588812E+03</rscale>
<asrwt>0</asrwt>
<pdfrwt beam="1">  1       21 0.27135770E-01 0.50588812E+03</pdfrwt>
<pdfrwt beam="2">  1       21 0.27466093E+00 0.50588812E+03</pdfrwt>
<totfact> 0.48288194E+02</totfact>
</mgrwt>
</event>
<event>
 4    1  0.4832791E-002  0.4225053E+03  0.7818608E-02  0.1036254E+00
         21   -1    0    0  501  502  0.00000000000E+00  0.00000000000E+00  0.10195311258E+04  0.10195311258E+04  0.00000000000E+00 0.  1.
         21   -1    0    0  502  503 -0.00000000000E+00 -0.00000000000E+00 -0.20774032627E+03  0.20774032627E+03  0.00000000000E+00 0.  1.
    9000007    1    1    2  501    0  0.13590137492E+03 -0.64452804253E+01  0.16262608201E+03  0.45272283783E+03  0.40000000000E+03 0.  1.
   -9000007    1    1    2    0  503 -0.13590137492E+03  0.64452804253E+01  0.64916471752E+03  0.77454861424E+03  0.40000000000E+03 0.  1.
<mgrwt>
<rscale>  2 0.42250530E+03</rscale>
<asrwt>0</asrwt>
<pdfrwt beam="1">  1       21 0.15685094E+00 0.42250530E+03</pdfrwt>
<pdfrwt beam="2">  1       21 0.31960051E-01 0.42250530E+03</pdfrwt>
<totfact> 0.21641219E+03</totfact>
</mgrwt>
</event>
<event>
 4    1  0.4832791E-002  0.4027890E+03  0.7818608E-02  0.1042818E+00
         21   -1    0    0  501  502  0.00000000000E+00  0.00000000000E+00  0.18475079644E+03  0.18475079644E+03  0.00000000000E+00 0. -1.
         21   -1    0    0  502  503 -0.00000000000E+00 -0.00000000000E+00 -0.10731659164E+04  0.10731659164E+04  0.00000000000E+00 0. -1.
    9000007    1    1    2  501    0 -0.46155973932E+02  0.10420339611E+02 -0.17609126412E+03  0.43959878379E+03  0.40000000000E+03 0. -1.
   -9000007    1    1    2    0  503  0.46155973932E+02 -0.10420339611E+02 -0.71232385586E+03  0.81831792906E+03  0.40000000000E+03 0. -1.
<mgrwt>
<rscale>  2 0.40278897E+03</rscale>
<asrwt>0</asrwt>
<pdfrwt beam="1">  1       21 0.28423198E-01 0.40278897E+03</pdfrwt>
<pdfrwt beam="2">  1       21 0.16510245E+00 0.40278897E+03</pdfrwt>
<totfact> 0.23883302E+03</totfact>
</mgrwt>
</event>
<event>
 4    1  0.4832791E-002  0.4695815E+03  0.7818608E-02  0.1022038E+00
         21   -1    0    0  501  502  0.00000000000E+00  0.00000000000E+00  0.24584277936E+04  0.24584277936E+04  0.00000000000E+00 0. -1.
         21   -1    0    0  502  503 -0.00000000000E+00 -0.00000000000E+00 -0.47965849283E+03  0.47965849283E+03  0.00000000000E+00 0. -1.
    9000007    1    1    2  501    0 -0.21679534146E+03 -0.11621763829E+03  0.23139728820E+04  0.23611389748E+04  0.40000000000E+03 0. -1.
   -9000007    1    1    2    0  503  0.21679534146E+03  0.11621763829E+03 -0.33520358125E+03  0.57694731164E+03  0.40000000000E+03 0. -1.
<mgrwt>
<rscale>  2 0.46958147E+03</rscale>
<asrwt>0</asrwt>
<pdfrwt beam="1">  1       21 0.37821965E+00 0.46958147E+03</pdfrwt>
<pdfrwt beam="2">  1       21 0.73793616E-01 0.46958147E+03</pdfrwt>
<totfact> 0.14005229E+01</totfact>
</mgrwt>
</event>
<event>
 4    1  0.4832791E-002  0.4501735E+03  0.7818608E-02  0.1027670E+00
         21   -1    0    0  501  502  0.00000000000E+00  0.00000000000E+00  0.29104248075E+03  0.29104248075E+03  0.00000000000E+00 0.  1.
         21   -1    0    0  502  503 -0.00000000000E+00 -0.00000000000E+00 -0.87706640541E+03  0.87706640541E+03  0.00000000000E+00 0.  1.
    9000007    1    1    2  501    0  0.10182665407E+03  0.17968727509E+03 -0.27867651175E+02  0.45103524285E+03  0.40000000000E+03 0.  1.
   -9000007    1    1    2    0  503 -0.10182665407E+03 -0.17968727509E+03 -0.55815627348E+03  0.71707364332E+03  0.40000000000E+03 0.  1.
<mgrwt>
<rscale>  2 0.45017350E+03</rscale>
<asrwt>0</asrwt>
<pdfrwt beam="1">  1       21 0.44775766E-01 0.45017350E+03</pdfrwt>
<pdfrwt beam="2">  1       21 0.13493329E+00 0.45017350E+03</pdfrwt>
<totfact> 0.16098688E+03</totfact>
</mgrwt>
</event>
<event>
 4    1  0.4832791E-002  0.4214011E+03  0.7818608E-02  0.1036611E+00
         21   -1    0    0  501  502  0.00000000000E+00  0.00000000000E+00  0.30331032414E+03  0.30331032414E+03  0.00000000000E+00 0.  1.
         21   -1    0    0  502  503 -0.00000000000E+00 -0.00000000000E+00 -0.64394659806E+03  0.64394659806E+03  0.00000000000E+00 0.  1.
    9000007    1    1    2  501    0 -0.94676547285E+02  0.92818229620E+02 -0.27590969635E+02  0.42230336721E+03  0.40000000000E+03 0.  1.
   -9000007    1    1    2    0  503  0.94676547285E+02 -0.92818229620E+02 -0.31304530429E+03  0.52495355498E+03  0.40000000000E+03 0.  1.
<mgrwt>
<rscale>  2 0.42140108E+03</rscale>
<asrwt>0</asrwt>
<pdfrwt beam="1">  1       21 0.46663126E-01 0.42140108E+03</pdfrwt>
<pdfrwt beam="2">  1       21 0.99068708E-01 0.42140108E+03</pdfrwt>
<totfact> 0.32476237E+03</totfact>
</mgrwt>
</event>
<event>
 4    1  0.4832791E-002  0.4428299E+03  0.7818608E-02  0.1029882E+00
         21   -1    0    0  503  502  0.00000000000E+00  0.00000000000E+00  0.55772338261E+03  0.55772338261E+03  0.00000000000E+00 0.  1.
         21   -1    0    0  501  503 -0.00000000000E+00 -0.00000000000E+00 -0.35392270718E+03  0.35392270718E+03  0.00000000000E+00 0.  1.
    9000007    1    1    2  501    0  0.79541384634E+02 -0.17254416564E+03  0.65013378519E+02  0.44757687647E+03  0.40000000000E+03 0.  1.
   -9000007    1    1    2    0  502 -0.79541384634E+02  0.17254416564E+03  0.13878729691E+03  0.46406921332E+03  0.40000000000E+03 0.  1.
<mgrwt>
<rscale>  2 0.44282990E+03</rscale>
<asrwt>0</asrwt>
<pdfrwt beam="1">  1       21 0.85803597E-01 0.44282990E+03</pdfrwt>
<pdfrwt beam="2">  1       21 0.54449647E-01 0.44282990E+03</pdfrwt>
<totfact> 0.32662269E+03</totfact>
</mgrwt>
</event>
<event>
 4    1  0.4832791E-002  0.4740835E+03  0.7818608E-02  0.1020774E+00
         21   -1    0    0  503  502  0.00000000000E+00  0.00000000000E+00  0.30844829907E+03  0.30844829907E+03  0.00000000000E+00 0.  1.
         21   -1    0    0  501  503 -0.00000000000E+00 -0.00000000000E+00 -0.11986768135E+04  0.11986768135E+04  0.00000000000E+00 0. -1.
    9000007    1    1    2  501    0  0.18704794673E+03  0.17253474917E+03 -0.91698505708E+03  0.10322871543E+04  0.40000000000E+03 0. -1.
   -9000007    1    1    2    0  502 -0.18704794673E+03 -0.17253474917E+03  0.26756542629E+02  0.47483795828E+03  0.40000000000E+03 0.  1.
<mgrwt>
<rscale>  2 0.47408351E+03</rscale>
<asrwt>0</asrwt>
<pdfrwt beam="1">  1       21 0.47453584E-01 0.47408351E+03</pdfrwt>
<pdfrwt beam="2">  1       21 0.18441182E+00 0.47408351E+03</pdfrwt>
<totfact> 0.59207496E+02</totfact>
</mgrwt>
</event>
<event>
 4    1  0.4832791E-002  0.5031473E+03  0.7818608E-02  0.1012961E+00
         21   -1    0    0  503  502  0.00000000000E+00  0.00000000000E+00  0.15389747000E+03  0.15389747000E+03  0.00000000000E+00 0. -1.
         21   -1    0    0  501  503 -0.00000000000E+00 -0.00000000000E+00 -0.16947203794E+04  0.16947203794E+04  0.00000000000E+00 0. -1.
    9000007    1    1    2  501    0 -0.11903873649E+03 -0.28104623731E+03 -0.92877401141E+03  0.10563041099E+04  0.40000000000E+03 0. -1.
   -9000007    1    1    2    0  502  0.11903873649E+03  0.28104623731E+03 -0.61204889801E+03  0.79231373953E+03  0.40000000000E+03 0. -1.
<mgrwt>
<rscale>  2 0.50314730E+03</rscale>
<asrwt>0</asrwt>
<pdfrwt beam="1">  1       21 0.23676533E-01 0.50314730E+03</pdfrwt>
<pdfrwt beam="2">  1       21 0.26072622E+00 0.50314730E+03</pdfrwt>
<totfact> 0.76735368E+02</totfact>
</mgrwt>
</event>
<event>
 4    1  0.4832791E-002  0.4632503E+03  0.7818608E-02  0.1023843E+00
         21   -1    0    0  501  502  0.00000000000E+00  0.00000000000E+00  0.47562101617E+03  0.47562101617E+03  0.00000000000E+00 0. -1.
         21   -1    0    0  502  503 -0.00000000000E+00 -0.00000000000E+00 -0.46575502950E+03  0.46575502950E+03  0.00000000000E+00 0.  1.
    9000007    1    1    2  501    0  0.12678566593E+03  0.19628109351E+03  0.88136166651E+02  0.47156002442E+03  0.40000000000E+03 0.  1.
   -9000007    1    1    2    0  503 -0.12678566593E+03 -0.19628109351E+03 -0.78270179985E+02  0.46981602126E+03  0.40000000000E+03 0.  1.
<mgrwt>
<rscale>  2 0.46325033E+03</rscale>
<asrwt>0</asrwt>
<pdfrwt beam="1">  1       21 0.73172464E-01 0.46325033E+03</pdfrwt>
<pdfrwt beam="2">  1       21 0.71654620E-01 0.46325033E+03</pdfrwt>
<totfact> 0.25537024E+03</totfact>
</mgrwt>
</event>
<event>
 4    1  0.4832791E-002  0.6508970E+03  0.7818608E-02  0.9805097E-01
         21   -1    0    0  503  502  0.00000000000E+00  0.00000000000E+00  0.88696761666E+03  0.88696761666E+03  0.00000000000E+00 0. -1.
         21   -1    0    0  501  503 -0.00000000000E+00 -0.00000000000E+00 -0.63853789529E+03  0.63853789529E+03  0.00000000000E+00 0.  1.
    9000007    1    1    2  501    0 -0.43440449278E+03 -0.27378757720E+03 -0.25864669209E+03  0.70040346380E+03  0.40000000000E+03 0.  1.
   -9000007    1    1    2    0  502  0.43440449278E+03  0.27378757720E+03  0.50707641345E+03  0.82510204815E+03  0.40000000000E+03 0. -1.
<mgrwt>
<rscale>  2 0.65089700E+03</rscale>
<asrwt>0</asrwt>
<pdfrwt beam="1">  1       21 0.13645656E+00 0.65089700E+03</pdfrwt>
<pdfrwt beam="2">  1       21 0.98236599E-01 0.65089700E+03</pdfrwt>
<totfact> 0.24854716E+02</totfact>
</mgrwt>
</event>
<event>
 4    1  0.4832791E-002  0.4904064E+03  0.7818608E-02  0.1016314E+00
         21   -1    0    0  501  502  0.00000000000E+00  0.00000000000E+00  0.15352443785E+03  0.15352443785E+03  0.00000000000E+00 0. -1.
         21   -1    0    0  502  503 -0.00000000000E+00 -0.00000000000E+00 -0.15902915880E+04  0.15902915880E+04  0.00000000000E+00 0. -1.
    9000007    1    1    2  501    0  0.28344141909E+03  0.12625413609E+02 -0.61177286253E+03  0.78406917708E+03  0.40000000000E+03 0. -1.
   -9000007    1    1    2    0  503 -0.28344141909E+03 -0.12625413609E+02 -0.82499428765E+03  0.95974684880E+03  0.40000000000E+03 0. -1.
<mgrwt>
<rscale>  2 0.49040640E+03</rscale>
<asrwt>0</asrwt>
<pdfrwt beam="1">  1       21 0.23619144E-01 0.49040640E+03</pdfrwt>
<pdfrwt beam="2">  1       21 0.24466024E+00 0.49040640E+03</pdfrwt>
<totfact> 0.97376550E+02</totfact>
</mgrwt>
</event>
<event>
 4    1  0.4832791E-002  0.4082443E+03  0.7818608E-02  0.1040962E+00
         21   -1    0    0  503  502  0.00000000000E+00  0.00000000000E+00  0.15844352894E+03  0.15844352894E+03  0.00000000000E+00 0. -1.
         21   -1    0    0  501  503 -0.00000000000E+00 -0.00000000000E+00 -0.24447306220E+04  0.24447306220E+04  0.00000000000E+00 0. -1.
    9000007    1    1    2  501    0  0.42008461116E+02 -0.69990405913E+02 -0.21255929666E+04  0.21644419206E+04  0.40000000000E+03 0. -1.
   -9000007    1    1    2    0  502 -0.42008461116E+02  0.69990405913E+02 -0.16069412646E+03  0.43873223042E+03  0.40000000000E+03 0. -1.
<mgrwt>
<rscale>  2 0.40824425E+03</rscale>
<asrwt>0</asrwt>
<pdfrwt beam="1">  1       21 0.24375929E-01 0.40824425E+03</pdfrwt>
<pdfrwt beam="2">  1       21 0.37611238E+00 0.40824425E+03</pdfrwt>
<totfact> 0.15234143E+02</totfact>
</mgrwt>
</event>
<event>
 4    1  0.4832791E-002  0.4574335E+03  0.7818608E-02  0.1025528E+00
         21   -1    0    0  501  502  0.00000000000E+00  0.00000000000E+00  0.22778989263E+03  0.22778989263E+03  0.00000000000E+00 0.  1.
         21   -1    0    0  502  503 -0.00000000000E+00 -0.00000000000E+00 -0.10276562187E+04  0.10276562187E+04  0.00000000000E+00 0.  1.
    9000007    1    1    2  501    0 -0.10384414599E+03 -0.19611678343E+03 -0.19543457530E+03  0.49743348562E+03  0.40000000000E+03 0.  1.
   -9000007    1    1    2    0  503  0.10384414599E+03  0.19611678343E+03 -0.60443175077E+03  0.75801262571E+03  0.40000000000E+03 0.  1.
<mgrwt>
<rscale>  2 0.45743349E+03</rscale>
<asrwt>0</asrwt>
<pdfrwt beam="1">  1       21 0.35044599E-01 0.45743349E+03</pdfrwt>
<pdfrwt beam="2">  1       21 0.15810096E+00 0.45743349E+03</pdfrwt>
<totfact> 0.17338387E+03</totfact>
</mgrwt>
</event>
<event>
 4    1  0.4832791E-002  0.4149124E+03  0.7818608E-02  0.1038735E+00
         21   -1    0    0  503  502  0.00000000000E+00  0.00000000000E+00  0.38773381191E+03  0.38773381191E+03  0.00000000000E+00 0. -1.
         21   -1    0    0  501  503 -0.00000000000E+00 -0.00000000000E+00 -0.45084974783E+03  0.45084974783E+03  0.00000000000E+00 0. -1.
    9000007    1    1    2  501    0 -0.47683171426E+02  0.99391262476E+02 -0.83254416273E+02  0.42318270962E+03  0.40000000000E+03 0.  1.
   -9000007    1    1    2    0  502  0.47683171426E+02 -0.99391262476E+02  0.20138480350E+02  0.41540085013E+03  0.40000000000E+03 0.  1.
<mgrwt>
<rscale>  2 0.41491241E+03</rscale>
<asrwt>0</asrwt>
<pdfrwt beam="1">  1       21 0.59651356E-01 0.41491241E+03</pdfrwt>
<pdfrwt beam="2">  1       21 0.69361499E-01 0.41491241E+03</pdfrwt>
<totfact> 0.44071236E+03</totfact>
</mgrwt>
</event>
<event>
 4    1  0.4832791E-002  0.4261729E+03  0.7818608E-02  0.1035076E+00
         21   -1    0    0  503  502  0.00000000000E+00  0.00000000000E+00  0.18022736817E+04  0.18022736817E+04  0.00000000000E+00 0.  1.
         21   -1    0    0  501  503 -0.00000000000E+00 -0.00000000000E+00 -0.12309430979E+03  0.12309430979E+03  0.00000000000E+00 0.  1.
    9000007    1    1    2  501    0 -0.14654160560E+03 -0.12201818340E+02  0.42965989421E+03  0.60517018370E+03  0.40000000000E+03 0.  1.
   -9000007    1    1    2    0  502  0.14654160560E+03  0.12201818340E+02  0.12495194777E+04  0.13201978078E+04  0.40000000000E+03 0.  1.
<mgrwt>
<rscale>  2 0.42617288E+03</rscale>
<asrwt>0</asrwt>
<pdfrwt beam="1">  1       21 0.27727286E+00 0.42617288E+03</pdfrwt>
<pdfrwt beam="2">  1       21 0.18937587E-01 0.42617288E+03</pdfrwt>
<totfact> 0.97110166E+02</totfact>
</mgrwt>
</event>
<event>
 4    1  0.4832791E-002  0.4623834E+03  0.7818608E-02  0.1024092E+00
         21   -1    0    0  501  502  0.00000000000E+00  0.00000000000E+00  0.51139037865E+03  0.51139037865E+03  0.00000000000E+00 0.  1.
         21   -1    0    0  502  503 -0.00000000000E+00 -0.00000000000E+00 -0.13258001196E+04  0.13258001196E+04  0.00000000000E+00 0.  1.
    9000007    1    1    2  501    0  0.10249567774E+03 -0.20806972288E+03  0.35288139872E+03  0.58165595939E+03  0.40000000000E+03 0.  1.
   -9000007    1    1    2    0  503 -0.10249567774E+03  0.20806972288E+03 -0.11672911397E+04  0.12555345389E+04  0.40000000000E+03 0.  1.
<mgrwt>
<rscale>  2 0.46238336E+03</rscale>
<asrwt>0</asrwt>
<pdfrwt beam="1">  1       21 0.78675444E-01 0.46238336E+03</pdfrwt>
<pdfrwt beam="2">  1       21 0.20396925E+00 0.46238336E+03</pdfrwt>
<totfact> 0.14407736E+02</totfact>
</mgrwt>
</event>
<event>
 4    1  0.4832791E-002  0.5356265E+03  0.7818608E-02  0.1004877E+00
         21   -1    0    0  501  502  0.00000000000E+00  0.00000000000E+00  0.83626424921E+03  0.83626424921E+03  0.00000000000E+00 0. -1.
         21   -1    0    0  502  503 -0.00000000000E+00 -0.00000000000E+00 -0.37193669733E+03  0.37193669733E+03  0.00000000000E+00 0. -1.
    9000007    1    1    2  501    0  0.10290125153E+03 -0.34103830149E+03  0.63863173268E+02  0.53942033290E+03  0.40000000000E+03 0. -1.
   -9000007    1    1    2    0  503 -0.10290125153E+03  0.34103830149E+03  0.40046437861E+03  0.66878061364E+03  0.40000000000E+03 0. -1.
<mgrwt>
<rscale>  2 0.53562654E+03</rscale>
<asrwt>0</asrwt>
<pdfrwt beam="1">  1       21 0.12865604E+00 0.53562654E+03</pdfrwt>
<pdfrwt beam="2">  1       21 0.57221030E-01 0.53562654E+03</pdfrwt>
<totfact> 0.10459361E+03</totfact>
</mgrwt>
</event>
<event>
 4    1  0.4832791E-002  0.4484238E+03  0.7818608E-02  0.1028193E+00
         21   -1    0    0  503  502  0.00000000000E+00  0.00000000000E+00  0.91684397721E+03  0.91684397721E+03  0.00000000000E+00 0.  1.
         21   -1    0    0  501  503 -0.00000000000E+00 -0.00000000000E+00 -0.26683163542E+03  0.26683163542E+03  0.00000000000E+00 0.  1.
    9000007    1    1    2  501    0 -0.18860568442E+03 -0.74241634103E+02  0.75273395427E+02  0.45469771111E+03  0.40000000000E+03 0.  1.
   -9000007    1    1    2    0  502  0.18860568442E+03  0.74241634103E+02  0.57473894637E+03  0.72897790152E+03  0.40000000000E+03 0.  1.
<mgrwt>
<rscale>  2 0.44842382E+03</rscale>
<asrwt>0</asrwt>
<pdfrwt beam="1">  1       21 0.14105292E+00 0.44842382E+03</pdfrwt>
<pdfrwt beam="2">  1       21 0.41051021E-01 0.44842382E+03</pdfrwt>
<totfact> 0.17163556E+03</totfact>
</mgrwt>
</event>
<event>
 4    1  0.4832791E-002  0.4150955E+03  0.7818608E-02  0.1038674E+00
         21   -1    0    0  503  502  0.00000000000E+00  0.00000000000E+00  0.52119302758E+03  0.52119302758E+03  0.00000000000E+00 0.  1.
         21   -1    0    0  501  503 -0.00000000000E+00 -0.00000000000E+00 -0.54235030657E+03  0.54235030657E+03  0.00000000000E+00 0.  1.
    9000007    1    1    2  501    0  0.66155020598E+02 -0.89038275799E+02 -0.34285652020E+03  0.53838173701E+03  0.40000000000E+03 0.  1.
   -9000007    1    1    2    0  502 -0.66155020598E+02  0.89038275799E+02  0.32169924121E+03  0.52516159713E+03  0.40000000000E+03 0.  1.
<mgrwt>
<rscale>  2 0.41509553E+03</rscale>
<asrwt>0</asrwt>
<pdfrwt beam="1">  1       21 0.80183543E-01 0.41509553E+03</pdfrwt>
<pdfrwt beam="2">  1       21 0.83438508E-01 0.41509553E+03</pdfrwt>
<totfact> 0.14879890E+03</totfact>
</mgrwt>
</event>
<event>
 4    1  0.4832791E-002  0.5407480E+03  0.7818608E-02  0.1003658E+00
         21   -1    0    0  503  502  0.00000000000E+00  0.00000000000E+00  0.20776609607E+04  0.20776609607E+04  0.00000000000E+00 0. -1.
         21   -1    0    0  501  503 -0.00000000000E+00 -0.00000000000E+00 -0.15516553364E+03  0.15516553364E+03  0.00000000000E+00 0. -1.
    9000007    1    1    2  501    0 -0.36804650825E+02 -0.36201352405E+03  0.62083552446E+03  0.82331350186E+03  0.40000000000E+03 0. -1.
   -9000007    1    1    2    0  502  0.36804650825E+02  0.36201352405E+03  0.13016599026E+04  0.14095129925E+04  0.40000000000E+03 0. -1.
<mgrwt>
<rscale>  2 0.54074798E+03</rscale>
<asrwt>0</asrwt>
<pdfrwt beam="1">  1       21 0.31964013E+00 0.54074798E+03</pdfrwt>
<pdfrwt beam="2">  1       21 0.23871622E-01 0.54074798E+03</pdfrwt>
<totfact> 0.32563656E+02</totfact>
</mgrwt>
</event>
<event>
 4    1  0.4832791E-002  0.4380636E+03  0.7818608E-02  0.1031343E+00
         21   -1    0    0  503  502  0.00000000000E+00  0.00000000000E+00  0.10124974145E+04  0.10124974145E+04  0.00000000000E+00 0. -1.
         21   -1    0    0  501  503 -0.00000000000E+00 -0.00000000000E+00 -0.21648249359E+03  0.21648249359E+03  0.00000000000E+00 0. -1.
    9000007    1    1    2  501    0 -0.17749576602E+03 -0.19874027647E+02  0.61482489764E+03  0.75492342571E+03  0.40000000000E+03 0. -1.
   -9000007    1    1    2    0  502  0.17749576602E+03  0.19874027647E+02  0.18119002323E+03  0.47405648234E+03  0.40000000000E+03 0. -1.
<mgrwt>
<rscale>  2 0.43806361E+03</rscale>
<asrwt>0</asrwt>
<pdfrwt beam="1">  1       21 0.15576883E+00 0.43806361E+03</pdfrwt>
<pdfrwt beam="2">  1       21 0.33305000E-01 0.43806361E+03</pdfrwt>
<totfact> 0.20178626E+03</totfact>
</mgrwt>
</event>
<event>
 4    1  0.4832791E-002  0.6072065E+03  0.7818608E-02  0.9890567E-01
         21   -1    0    0  503  502  0.00000000000E+00  0.00000000000E+00  0.54027917247E+03  0.54027917247E+03  0.00000000000E+00 0.  1.
         21   -1    0    0  501  503 -0.00000000000E+00 -0.00000000000E+00 -0.83195459301E+03  0.83195459301E+03  0.00000000000E+00 0. -1.
    9000007    1    1    2  501    0  0.43014089300E+03  0.15387836820E+03 -0.43671686981E+03  0.74794476026E+03  0.40000000000E+03 0. -1.
   -9000007    1    1    2    0  502 -0.43014089300E+03 -0.15387836820E+03  0.14504144926E+03  0.62428900521E+03  0.40000000000E+03 0.  1.
<mgrwt>
<rscale>  2 0.60720651E+03</rscale>
<asrwt>0</asrwt>
<pdfrwt beam="1">  1       21 0.83119873E-01 0.60720651E+03</pdfrwt>
<pdfrwt beam="2">  1       21 0.12799301E+00 0.60720651E+03</pdfrwt>
<totfact> 0.44496448E+02</totfact>
</mgrwt>
</event>
<event>
 4    1  0.4832791E-002  0.4886523E+03  0.7818608E-02  0.1016784E+00
         21   -1    0    0  503  502  0.00000000000E+00  0.00000000000E+00  0.10647619584E+04  0.10647619584E+04  0.00000000000E+00 0. -1.
         21   -1    0    0  501  503 -0.00000000000E+00 -0.00000000000E+00 -0.57255708584E+03  0.57255708584E+03  0.00000000000E+00 0.  1.
    9000007    1    1    2  501    0 -0.17032182949E+03  0.22309536054E+03 -0.39241134677E+03  0.62671184014E+03  0.40000000000E+03 0.  1.
   -9000007    1    1    2    0  502  0.17032182949E+03 -0.22309536054E+03  0.88461621932E+03  0.10106072041E+04  0.40000000000E+03 0. -1.
<mgrwt>
<rscale>  2 0.48865230E+03</rscale>
<asrwt>0</asrwt>
<pdfrwt beam="1">  1       21 0.16380953E+00 0.48865230E+03</pdfrwt>
<pdfrwt beam="2">  1       21 0.88085706E-01 0.48865230E+03</pdfrwt>
<totfact> 0.20864247E+02</totfact>
</mgrwt>
</event>
<event>
 4    1  0.4832791E-002  0.4500970E+03  0.7818608E-02  0.1027693E+00
         21   -1    0    0  501  502  0.00000000000E+00  0.00000000000E+00  0.30912097209E+04  0.30912097209E+04  0.00000000000E+00 0.  1.
         21   -1    0    0  502  503 -0.00000000000E+00 -0.00000000000E+00 -0.14700717422E+03  0.14700717422E+03  0.00000000000E+00 0.  1.
    9000007    1    1    2  501    0  0.18172959913E+03  0.97783531006E+02  0.26774345770E+04  0.27150033481E+04  0.40000000000E+03 0.  1.
   -9000007    1    1    2    0  503 -0.18172959913E+03 -0.97783531006E+02  0.26676796970E+03  0.52321354703E+03  0.40000000000E+03 0.  1.
<mgrwt>
<rscale>  2 0.45009695E+03</rscale>
<asrwt>0</asrwt>
<pdfrwt beam="1">  1       21 0.47557068E+00 0.45009695E+03</pdfrwt>
<pdfrwt beam="2">  1       21 0.22616491E-01 0.45009695E+03</pdfrwt>
<totfact> 0.37718105E+01</totfact>
</mgrwt>
</event>
<event>
 4    1  0.4832791E-002  0.5859126E+03  0.7818608E-02  0.9935072E-01
         21   -1    0    0  503  502  0.00000000000E+00  0.00000000000E+00  0.12433825032E+04  0.12433825032E+04  0.00000000000E+00 0.  1.
         21   -1    0    0  501  503 -0.00000000000E+00 -0.00000000000E+00 -0.51525721803E+03  0.51525721803E+03  0.00000000000E+00 0. -1.
    9000007    1    1    2  501    0 -0.51012007659E+02  0.42507809397E+03 -0.23501032824E+03  0.63128714962E+03  0.40000000000E+03 0. -1.
   -9000007    1    1    2    0  502  0.51012007659E+02 -0.42507809397E+03  0.96313561344E+03  0.11273525716E+04  0.40000000000E+03 0.  1.
<mgrwt>
<rscale>  2 0.58591263E+03</rscale>
<asrwt>0</asrwt>
<pdfrwt beam="1">  1       21 0.19128962E+00 0.58591263E+03</pdfrwt>
<pdfrwt beam="2">  1       21 0.79270342E-01 0.58591263E+03</pdfrwt>
<totfact> 0.16274468E+02</totfact>
</mgrwt>
</event>
<event>
 4    1  0.4832791E-002  0.4040909E+03  0.7818608E-02  0.1042372E+00
         21   -1    0    0  503  502  0.00000000000E+00  0.00000000000E+00  0.32291780774E+03  0.32291780774E+03  0.00000000000E+00 0.  1.
         21   -1    0    0  501  503 -0.00000000000E+00 -0.00000000000E+00 -0.50583898056E+03  0.50583898056E+03  0.00000000000E+00 0.  1.
    9000007    1    1    2  501    0  0.31874869257E+02 -0.47681060410E+02 -0.83862128189E+02  0.41270128102E+03  0.40000000000E+03 0. -1.
   -9000007    1    1    2    0  502 -0.31874869257E+02  0.47681060410E+02 -0.99059044630E+02  0.41605550728E+03  0.40000000000E+03 0. -1.
<mgrwt>
<rscale>  2 0.40409094E+03</rscale>
<asrwt>0</asrwt>
<pdfrwt beam="1">  1       21 0.49679662E-01 0.40409094E+03</pdfrwt>
<pdfrwt beam="2">  1       21 0.77821382E-01 0.40409094E+03</pdfrwt>
<totfact> 0.50521396E+03</totfact>
</mgrwt>
</event>
<event>
 4    1  0.4832791E-002  0.4008565E+03  0.7818608E-02  0.1043483E+00
         21   -1    0    0  501  502  0.00000000000E+00  0.00000000000E+00  0.54411465970E+03  0.54411465970E+03  0.00000000000E+00 0. -1.
         21   -1    0    0  502  503 -0.00000000000E+00 -0.00000000000E+00 -0.52201406057E+03  0.52201406057E+03  0.00000000000E+00 0. -1.
    9000007    1    1    2  501    0  0.24993250413E+02 -0.78299947543E+01  0.36233730542E+03  0.54034645764E+03  0.40000000000E+03 0. -1.
   -9000007    1    1    2    0  503 -0.24993250413E+02  0.78299947543E+01 -0.34023670629E+03  0.52578226262E+03  0.40000000000E+03 0. -1.
<mgrwt>
<rscale>  2 0.40085655E+03</rscale>
<asrwt>0</asrwt>
<pdfrwt beam="1">  1       21 0.83709947E-01 0.40085655E+03</pdfrwt>
<pdfrwt beam="2">  1       21 0.80309856E-01 0.40085655E+03</pdfrwt>
<totfact> 0.14806046E+03</totfact>
</mgrwt>
</event>
<event>
 4    1  0.4832791E-002  0.5095504E+03  0.7818608E-02  0.1011316E+00
         21   -1    0    0  501  502  0.00000000000E+00  0.00000000000E+00  0.21670582425E+04  0.21670582425E+04  0.00000000000E+00 0.  1.
         21   -1    0    0  502  503 -0.00000000000E+00 -0.00000000000E+00 -0.20045973344E+03  0.20045973344E+03  0.00000000000E+00 0.  1.
    9000007    1    1    2  501    0  0.12590423291E+03 -0.28946457345E+03  0.17341321167E+04  0.18074445533E+04  0.40000000000E+03 0.  1.
   -9000007    1    1    2    0  503 -0.12590423291E+03  0.28946457345E+03  0.23246639236E+03  0.56007342262E+03  0.40000000000E+03 0.  1.
<mgrwt>
<rscale>  2 0.50955040E+03</rscale>
<asrwt>0</asrwt>
<pdfrwt beam="1">  1       21 0.33339356E+00 0.50955040E+03</pdfrwt>
<pdfrwt beam="2">  1       21 0.30839961E-01 0.50955040E+03</pdfrwt>
<totfact> 0.16474042E+02</totfact>
</mgrwt>
</event>
<event>
 4    1  0.4832791E-002  0.4772440E+03  0.7818608E-02  0.1019895E+00
         21   -1    0    0  501  502  0.00000000000E+00  0.00000000000E+00  0.62519348771E+03  0.62519348771E+03  0.00000000000E+00 0.  1.
         21   -1    0    0  502  503 -0.00000000000E+00 -0.00000000000E+00 -0.36443599518E+03  0.36443599518E+03  0.00000000000E+00 0.  1.
    9000007    1    1    2  501    0 -0.24019443878E+03 -0.10034154439E+03  0.13972092223E+03  0.49727631158E+03  0.40000000000E+03 0.  1.
   -9000007    1    1    2    0  503  0.24019443878E+03  0.10034154439E+03  0.12103657030E+03  0.49235317131E+03  0.40000000000E+03 0.  1.
<mgrwt>
<rscale>  2 0.47724396E+03</rscale>
<asrwt>0</asrwt>
<pdfrwt beam="1">  1       21 0.96183613E-01 0.47724396E+03</pdfrwt>
<pdfrwt beam="2">  1       21 0.56067076E-01 0.47724396E+03</pdfrwt>
<totfact> 0.23094603E+03</totfact>
</mgrwt>
</event>
<event>
 4    1  0.4832791E-002  0.4188154E+03  0.7818608E-02  0.1037453E+00
         21   -1    0    0  501  502  0.00000000000E+00  0.00000000000E+00  0.27734804411E+03  0.27734804411E+03  0.00000000000E+00 0.  1.
         21   -1    0    0  502  503 -0.00000000000E+00 -0.00000000000E+00 -0.64009698748E+03  0.64009698748E+03  0.00000000000E+00 0.  1.
    9000007    1    1    2  501    0  0.46503640897E+02 -0.11508150287E+03 -0.13120714404E+03  0.43888683686E+03  0.40000000000E+03 0.  1.
   -9000007    1    1    2    0  503 -0.46503640897E+02  0.11508150287E+03 -0.23154179933E+03  0.47855819474E+03  0.40000000000E+03 0.  1.
<mgrwt>
<rscale>  2 0.41881540E+03</rscale>
<asrwt>0</asrwt>
<pdfrwt beam="1">  1       21 0.42668930E-01 0.41881540E+03</pdfrwt>
<pdfrwt beam="2">  1       21 0.98476459E-01 0.41881540E+03</pdfrwt>
<totfact> 0.39761385E+03</totfact>
</mgrwt>
</event>
<event>
 4    1  0.4832791E-002  0.4855784E+03  0.7818608E-02  0.1017613E+00
         21   -1    0    0  503  502  0.00000000000E+00  0.00000000000E+00  0.91720079655E+03  0.91720079655E+03  0.00000000000E+00 0.  1.
         21   -1    0    0  501  503 -0.00000000000E+00 -0.00000000000E+00 -0.46400999673E+03  0.46400999673E+03  0.00000000000E+00 0.  1.
    9000007    1    1    2  501    0 -0.17115355844E+03 -0.21562207429E+03 -0.23460181432E+03  0.53928140221E+03  0.40000000000E+03 0.  1.
   -9000007    1    1    2    0  502  0.17115355844E+03  0.21562207429E+03  0.68779261414E+03  0.84192939107E+03  0.40000000000E+03 0.  1.
<mgrwt>
<rscale>  2 0.48557844E+03</rscale>
<asrwt>0</asrwt>
<pdfrwt beam="1">  1       21 0.14110781E+00 0.48557844E+03</pdfrwt>
<pdfrwt beam="2">  1       21 0.71386153E-01 0.48557844E+03</pdfrwt>
<totfact> 0.51122582E+02</totfact>
</mgrwt>
</event>
<event>
 4    1  0.4832791E-002  0.4028444E+03  0.7818608E-02  0.1042799E+00
         21   -1    0    0  501  502  0.00000000000E+00  0.00000000000E+00  0.52414648455E+03  0.52414648455E+03  0.00000000000E+00 0. -1.
         21   -1    0    0  502  503 -0.00000000000E+00 -0.00000000000E+00 -0.45680348585E+03  0.45680348585E+03  0.00000000000E+00 0. -1.
    9000007    1    1    2  501    0  0.14310249045E+02 -0.45594247145E+02  0.31208421307E+03  0.50958824030E+03  0.40000000000E+03 0. -1.
   -9000007    1    1    2    0  503 -0.14310249045E+02  0.45594247145E+02 -0.24474121437E+03  0.47136173011E+03  0.40000000000E+03 0. -1.
<mgrwt>
<rscale>  2 0.40284441E+03</rscale>
<asrwt>0</asrwt>
<pdfrwt beam="1">  1       21 0.80637921E-01 0.40284441E+03</pdfrwt>
<pdfrwt beam="2">  1       21 0.70277459E-01 0.40284441E+03</pdfrwt>
<totfact> 0.21856625E+03</totfact>
</mgrwt>
</event>
<event>
 4    1  0.4832791E-002  0.4043509E+03  0.7818608E-02  0.1042283E+00
         21   -1    0    0  503  502  0.00000000000E+00  0.00000000000E+00  0.11273961298E+04  0.11273961298E+04  0.00000000000E+00 0. -1.
         21   -1    0    0  501  503 -0.00000000000E+00 -0.00000000000E+00 -0.14978895782E+03  0.14978895782E+03  0.00000000000E+00 0. -1.
    9000007    1    1    2  501    0 -0.28991191228E+02  0.51566742153E+02  0.37490756480E+03  0.55141209654E+03  0.40000000000E+03 0. -1.
   -9000007    1    1    2    0  502  0.28991191228E+02 -0.51566742153E+02  0.60269960714E+03  0.72577299104E+03  0.40000000000E+03 0. -1.
<mgrwt>
<rscale>  2 0.40435086E+03</rscale>
<asrwt>0</asrwt>
<pdfrwt beam="1">  1       21 0.17344555E+00 0.40435086E+03</pdfrwt>
<pdfrwt beam="2">  1       21 0.23044456E-01 0.40435086E+03</pdfrwt>
<totfact> 0.31228480E+03</totfact>
</mgrwt>
</event>
<event>
 4    1  0.4832791E-002  0.5787255E+03  0.7818608E-02  0.9950554E-01
         21   -1    0    0  501  502  0.00000000000E+00  0.00000000000E+00  0.24160687927E+04  0.24160687927E+04  0.00000000000E+00 0.  1.
         21   -1    0    0  502  503 -0.00000000000E+00 -0.00000000000E+00 -0.33338297856E+03  0.33338297856E+03  0.00000000000E+00 0.  1.
    9000007    1    1    2  501    0 -0.13712340400E+03  0.39512064294E+03  0.20920799719E+04  0.21706500776E+04  0.40000000000E+03 0.  1.
   -9000007    1    1    2    0  503  0.13712340400E+03 -0.39512064294E+03 -0.93941577843E+01  0.57880169368E+03  0.40000000000E+03 0.  1.
<mgrwt>
<rscale>  2 0.57872545E+03</rscale>
<asrwt>0</asrwt>
<pdfrwt beam="1">  1       21 0.37170288E+00 0.57872545E+03</pdfrwt>
<pdfrwt beam="2">  1       21 0.51289691E-01 0.57872545E+03</pdfrwt>
<totfact> 0.32029085E+01</totfact>
</mgrwt>
</event>
<event>
 4    1  0.4832791E-002  0.4134166E+03  0.7818608E-02  0.1039231E+00
         21   -1    0    0  503  502  0.00000000000E+00  0.00000000000E+00  0.64486218894E+03  0.64486218894E+03  0.00000000000E+00 0.  1.
         21   -1    0    0  501  503 -0.00000000000E+00 -0.00000000000E+00 -0.29205700698E+03  0.29205700698E+03  0.00000000000E+00 0.  1.
    9000007    1    1    2  501    0 -0.10385563305E+03 -0.11281678655E+02  0.31888770001E+03  0.52211362174E+03  0.40000000000E+03 0.  1.
   -9000007    1    1    2    0  502  0.10385563305E+03  0.11281678655E+02  0.33917481942E+02  0.41480557418E+03  0.40000000000E+03 0.  1.
<mgrwt>
<rscale>  2 0.41341658E+03</rscale>
<asrwt>0</asrwt>
<pdfrwt beam="1">  1       21 0.99209567E-01 0.41341658E+03</pdfrwt>
<pdfrwt beam="2">  1       21 0.44931847E-01 0.41341658E+03</pdfrwt>
<totfact> 0.35140682E+03</totfact>
</mgrwt>
</event>
<event>
 4    1  0.4832791E-002  0.4541975E+03  0.7818608E-02  0.1026478E+00
         21   -1    0    0  501  502  0.00000000000E+00  0.00000000000E+00  0.11886573474E+03  0.11886573474E+03  0.00000000000E+00 0.  1.
         21   -1    0    0  502  503 -0.00000000000E+00 -0.00000000000E+00 -0.20573804105E+04  0.20573804105E+04  0.00000000000E+00 0.  1.
    9000007    1    1    2  501    0  0.19435676441E+03 -0.92308113268E+02 -0.53888326440E+03  0.70476273475E+03  0.40000000000E+03 0.  1.
   -9000007    1    1    2    0  503 -0.19435676441E+03  0.92308113268E+02 -0.13996314113E+04  0.14714834105E+04  0.40000000000E+03 0.  1.
<mgrwt>
<rscale>  2 0.45419747E+03</rscale>
<asrwt>0</asrwt>
<pdfrwt beam="1">  1       21 0.18287037E-01 0.45419747E+03</pdfrwt>
<pdfrwt beam="2">  1       21 0.31652004E+00 0.45419747E+03</pdfrwt>
<totfact> 0.59317027E+02</totfact>
</mgrwt>
</event>
<event>
 4    1  0.4832791E-002  0.4433564E+03  0.7818608E-02  0.1029722E+00
         21   -1    0    0  501  502  0.00000000000E+00  0.00000000000E+00  0.38424793079E+03  0.38424793079E+03  0.00000000000E+00 0.  1.
         21   -1    0    0  502  503 -0.00000000000E+00 -0.00000000000E+00 -0.68966785093E+03  0.68966785093E+03  0.00000000000E+00 0.  1.
    9000007    1    1    2  501    0 -0.19116117574E+03  0.47189409675E+01  0.12016580601E+03  0.45935246211E+03  0.40000000000E+03 0.  1.
   -9000007    1    1    2    0  503  0.19116117574E+03 -0.47189409675E+01 -0.42558572614E+03  0.61456331961E+03  0.40000000000E+03 0.  1.
<mgrwt>
<rscale>  2 0.44335636E+03</rscale>
<asrwt>0</asrwt>
<pdfrwt beam="1">  1       21 0.59115067E-01 0.44335636E+03</pdfrwt>
<pdfrwt beam="2">  1       21 0.10610274E+00 0.44335636E+03</pdfrwt>
<totfact> 0.16405654E+03</totfact>
</mgrwt>
</event>
<event>
 4    1  0.4832791E-002  0.4140028E+03  0.7818608E-02  0.1039036E+00
         21   -1    0    0  501  502  0.00000000000E+00  0.00000000000E+00  0.70347325927E+03  0.70347325927E+03  0.00000000000E+00 0.  1.
         21   -1    0    0  502  503 -0.00000000000E+00 -0.00000000000E+00 -0.67915912424E+03  0.67915912424E+03  0.00000000000E+00 0.  1.
    9000007    1    1    2  501    0  0.30658324416E+02  0.10226638936E+03  0.56575142178E+03  0.70105136652E+03  0.40000000000E+03 0.  1.
   -9000007    1    1    2    0  503 -0.30658324416E+02 -0.10226638936E+03 -0.54143728675E+03  0.68158101700E+03  0.40000000000E+03 0.  1.
<mgrwt>
<rscale>  2 0.41400283E+03</rscale>
<asrwt>0</asrwt>
<pdfrwt beam="1">  1       21 0.10822666E+00 0.41400283E+03</pdfrwt>
<pdfrwt beam="2">  1       21 0.10448602E+00 0.41400283E+03</pdfrwt>
<totfact> 0.42567305E+02</totfact>
</mgrwt>
</event>
<event>
 4    1  0.4832791E-002  0.4369009E+03  0.7818608E-02  0.1031702E+00
         21   -1    0    0  501  502  0.00000000000E+00  0.00000000000E+00  0.15027657506E+03  0.15027657506E+03  0.00000000000E+00 0.  1.
         21   -1    0    0  502  503 -0.00000000000E+00 -0.00000000000E+00 -0.16577039474E+04  0.16577039474E+04  0.00000000000E+00 0.  1.
    9000007    1    1    2  501    0 -0.15697481976E+03 -0.79001866993E+02 -0.31665043551E+03  0.53958306806E+03  0.40000000000E+03 0.  1.
   -9000007    1    1    2    0  503  0.15697481976E+03  0.79001866993E+02 -0.11907769368E+04  0.12683974544E+04  0.40000000000E+03 0.  1.
<mgrwt>
<rscale>  2 0.43690089E+03</rscale>
<asrwt>0</asrwt>
<pdfrwt beam="1">  1       21 0.23119473E-01 0.43690089E+03</pdfrwt>
<pdfrwt beam="2">  1       21 0.25503137E+00 0.43690089E+03</pdfrwt>
<totfact> 0.89941915E+02</totfact>
</mgrwt>
</event>
<event>
 4    1  0.4832791E-002  0.4466573E+03  0.7818608E-02  0.1028724E+00
         21   -1    0    0  501  502  0.00000000000E+00  0.00000000000E+00  0.99246886620E+03  0.99246886620E+03  0.00000000000E+00 0. -1.
         21   -1    0    0  502  503 -0.00000000000E+00 -0.00000000000E+00 -0.26967708260E+03  0.26967708260E+03  0.00000000000E+00 0. -1.
    9000007    1    1    2  501    0  0.19276847457E+03 -0.48405085497E+02  0.67982365302E+03  0.81342666313E+03  0.40000000000E+03 0. -1.
   -9000007    1    1    2    0  503 -0.19276847457E+03  0.48405085497E+02  0.42968130585E+02  0.44871928567E+03  0.40000000000E+03 0. -1.
<mgrwt>
<rscale>  2 0.44665729E+03</rscale>
<asrwt>0</asrwt>
<pdfrwt beam="1">  1       21 0.15268752E+00 0.44665729E+03</pdfrwt>
<pdfrwt beam="2">  1       21 0.41488782E-01 0.44665729E+03</pdfrwt>
<totfact> 0.13568473E+03</totfact>
</mgrwt>
</event>
<event>
 4    1  0.4832791E-002  0.4696895E+03  0.7818608E-02  0.1022008E+00
         21   -1    0    0  501  502  0.00000000000E+00  0.00000000000E+00  0.59214221967E+03  0.59214221967E+03  0.00000000000E+00 0.  1.
         21   -1    0    0  502  503 -0.00000000000E+00 -0.00000000000E+00 -0.38941392486E+03  0.38941392486E+03  0.00000000000E+00 0. -1.
    9000007    1    1    2  501    0 -0.20341491091E+03 -0.13867433378E+03  0.20346671219E+03  0.51186609558E+03  0.40000000000E+03 0.  1.
   -9000007    1    1    2    0  503  0.20341491091E+03  0.13867433378E+03 -0.73841738514E+00  0.46969004896E+03  0.40000000000E+03 0. -1.
<mgrwt>
<rscale>  2 0.46968947E+03</rscale>
<asrwt>0</asrwt>
<pdfrwt beam="1">  1       21 0.91098803E-01 0.46968947E+03</pdfrwt>
<pdfrwt beam="2">  1       21 0.59909834E-01 0.46968947E+03</pdfrwt>
<totfact> 0.22819239E+03</totfact>
</mgrwt>
</event>
<event>
 4    1  0.4832791E-002  0.5312240E+03  0.7818608E-02  0.1005936E+00
         21   -1    0    0  501  502  0.00000000000E+00  0.00000000000E+00  0.44209617044E+03  0.44209617044E+03  0.00000000000E+00 0. -1.
         21   -1    0    0  502  503 -0.00000000000E+00 -0.00000000000E+00 -0.85854699587E+03  0.85854699587E+03  0.00000000000E+00 0.  1.
    9000007    1    1    2  501    0  0.89601023288E+02 -0.33789144655E+03  0.12114234569E+03  0.54486185492E+03  0.40000000000E+03 0. -1.
   -9000007    1    1    2    0  503 -0.89601023288E+02  0.33789144655E+03 -0.53759317111E+03  0.75578131139E+03  0.40000000000E+03 0.  1.
<mgrwt>
<rscale>  2 0.53122403E+03</rscale>
<asrwt>0</asrwt>
<pdfrwt beam="1">  1       21 0.68014796E-01 0.53122403E+03</pdfrwt>
<pdfrwt beam="2">  1       21 0.13208415E+00 0.53122403E+03</pdfrwt>
<totfact> 0.66702165E+02</totfact>
</mgrwt>
</event>
<event>
 4    1  0.4832791E-002  0.4141904E+03  0.7818608E-02  0.1038974E+00
         21   -1    0    0  503  502  0.00000000000E+00  0.00000000000E+00  0.33688773704E+03  0.33688773704E+03  0.00000000000E+00 0. -1.
         21   -1    0    0  501  503 -0.00000000000E+00 -0.00000000000E+00 -0.94372621593E+03  0.94372621593E+03  0.00000000000E+00 0. -1.
    9000007    1    1    2  501    0  0.10739169303E+03  0.45516446181E+01 -0.73788714734E+03  0.84618622974E+03  0.40000000000E+03 0. -1.
   -9000007    1    1    2    0  502 -0.10739169303E+03 -0.45516446181E+01  0.13104866846E+03  0.43442772322E+03  0.40000000000E+03 0. -1.
<mgrwt>
<rscale>  2 0.41419041E+03</rscale>
<asrwt>0</asrwt>
<pdfrwt beam="1">  1       21 0.51828882E-01 0.41419041E+03</pdfrwt>
<pdfrwt beam="2">  1       21 0.14518865E+00 0.41419041E+03</pdfrwt>
<totfact> 0.98797099E+02</totfact>
</mgrwt>
</event>
<event>
 4    1  0.4832791E-002  0.4058615E+03  0.7818608E-02  0.1041769E+00
         21   -1    0    0  501  502  0.00000000000E+00  0.00000000000E+00  0.26281970006E+03  0.26281970006E+03  0.00000000000E+00 0.  1.
         21   -1    0    0  502  503 -0.00000000000E+00 -0.00000000000E+00 -0.64520751221E+03  0.64520751221E+03  0.00000000000E+00 0.  1.
    9000007    1    1    2  501    0 -0.25668063008E+02  0.63755096107E+02 -0.11441412257E+03  0.42168015507E+03  0.40000000000E+03 0.  1.
   -9000007    1    1    2    0  503  0.25668063008E+02 -0.63755096107E+02 -0.26797368957E+03  0.48634705719E+03  0.40000000000E+03 0.  1.
<mgrwt>
<rscale>  2 0.40586151E+03</rscale>
<asrwt>0</asrwt>
<pdfrwt beam="1">  1       21 0.40433801E-01 0.40586151E+03</pdfrwt>
<pdfrwt beam="2">  1       21 0.99262693E-01 0.40586151E+03</pdfrwt>
<totfact> 0.43807019E+03</totfact>
</mgrwt>
</event>
<event>
 4    1  0.4832791E-002  0.5921867E+03  0.7818608E-02  0.9921750E-01
         21   -1    0    0  501  502  0.00000000000E+00  0.00000000000E+00  0.73941178235E+03  0.73941178235E+03  0.00000000000E+00 0. -1.
         21   -1    0    0  502  503 -0.00000000000E+00 -0.00000000000E+00 -0.47804217841E+03  0.47804217841E+03  0.00000000000E+00 0.  1.
    9000007    1    1    2  501    0  0.41291377148E+03 -0.14208218126E+03  0.76652894097E+02  0.59712711803E+03  0.40000000000E+03 0.  1.
   -9000007    1    1    2    0  503 -0.41291377148E+03  0.14208218126E+03  0.18471670985E+03  0.62032684273E+03  0.40000000000E+03 0. -1.
<mgrwt>
<rscale>  2 0.59218673E+03</rscale>
<asrwt>0</asrwt>
<pdfrwt beam="1">  1       21 0.11375566E+00 0.59218673E+03</pdfrwt>
<pdfrwt beam="2">  1       21 0.73544950E-01 0.59218673E+03</pdfrwt>
<totfact> 0.80320767E+02</totfact>
</mgrwt>
</event>
<event>
 4    1  0.4832791E-002  0.4996642E+03  0.7818608E-02  0.1013867E+00
         21   -1    0    0  503  502  0.00000000000E+00  0.00000000000E+00  0.20136365550E+03  0.20136365550E+03  0.00000000000E+00 0.  1.
         21   -1    0    0  501  503 -0.00000000000E+00 -0.00000000000E+00 -0.12662480663E+04  0.12662480663E+04  0.00000000000E+00 0. -1.
    9000007    1    1    2  501    0 -0.19325177095E+03  0.22873136648E+03 -0.42652598056E+03  0.65695410577E+03  0.40000000000E+03 0. -1.
   -9000007    1    1    2    0  502  0.19325177095E+03 -0.22873136648E+03 -0.63835843024E+03  0.81065761604E+03  0.40000000000E+03 0. -1.
<mgrwt>
<rscale>  2 0.49966417E+03</rscale>
<asrwt>0</asrwt>
<pdfrwt beam="1">  1       21 0.30979025E-01 0.49966417E+03</pdfrwt>
<pdfrwt beam="2">  1       21 0.19480739E+00 0.49966417E+03</pdfrwt>
<totfact> 0.11924560E+03</totfact>
</mgrwt>
</event>
<event>
 4    1  0.4832791E-002  0.4675704E+03  0.7818608E-02  0.1022608E+00
         21   -1    0    0  501  502  0.00000000000E+00  0.00000000000E+00  0.75868976763E+03  0.75868976763E+03  0.00000000000E+00 0.  1.
         21   -1    0    0  502  503 -0.00000000000E+00 -0.00000000000E+00 -0.49755124132E+03  0.49755124132E+03  0.00000000000E+00 0. -1.
    9000007    1    1    2  501    0  0.69282649702E+02 -0.23199561448E+03  0.53804902473E+03  0.71282452518E+03  0.40000000000E+03 0.  1.
   -9000007    1    1    2    0  503 -0.69282649702E+02  0.23199561448E+03 -0.27691049843E+03  0.54341648377E+03  0.40000000000E+03 0. -1.
<mgrwt>
<rscale>  2 0.46757037E+03</rscale>
<asrwt>0</asrwt>
<pdfrwt beam="1">  1       21 0.11672150E+00 0.46757037E+03</pdfrwt>
<pdfrwt beam="2">  1       21 0.76546345E-01 0.46757037E+03</pdfrwt>
<totfact> 0.71878981E+02</totfact>
</mgrwt>
</event>
<event>
 4    1  0.4832791E-002  0.5224678E+03  0.7818608E-02  0.1008075E+00
         21   -1    0    0  501  502  0.00000000000E+00  0.00000000000E+00  0.55535637445E+03  0.55535637445E+03  0.00000000000E+00 0.  1.
         21   -1    0    0  502  503 -0.00000000000E+00 -0.00000000000E+00 -0.56555354620E+03  0.56555354620E+03  0.00000000000E+00 0. -1.
    9000007    1    1    2  501    0 -0.16484236123E+03 -0.29291567896E+03  0.19766869592E+03  0.55861034038E+03  0.40000000000E+03 0. -1.
   -9000007    1    1    2    0  503  0.16484236123E+03  0.29291567896E+03 -0.20786586767E+03  0.56229958027E+03  0.40000000000E+03 0. -1.
<mgrwt>
<rscale>  2 0.52246780E+03</rscale>
<asrwt>0</asrwt>
<pdfrwt beam="1">  1       21 0.85439442E-01 0.52246780E+03</pdfrwt>
<pdfrwt beam="2">  1       21 0.87008238E-01 0.52246780E+03</pdfrwt>
<totfact> 0.11166921E+03</totfact>
</mgrwt>
</event>
<event>
 4    1  0.4832791E-002  0.4769143E+03  0.7818608E-02  0.1019987E+00
         21   -1    0    0  501  502  0.00000000000E+00  0.00000000000E+00  0.14602563885E+03  0.14602563885E+03  0.00000000000E+00 0.  1.
         21   -1    0    0  502  503 -0.00000000000E+00 -0.00000000000E+00 -0.19249944677E+04  0.19249944677E+04  0.00000000000E+00 0. -1.
    9000007    1    1    2  501    0 -0.20746796523E+03 -0.15621867976E+03 -0.13418767125E+04  0.14241068584E+04  0.40000000000E+03 0. -1.
   -9000007    1    1    2    0  503  0.20746796523E+03  0.15621867976E+03 -0.43709211636E+03  0.64691324819E+03  0.40000000000E+03 0.  1.
<mgrwt>
<rscale>  2 0.47691428E+03</rscale>
<asrwt>0</asrwt>
<pdfrwt beam="1">  1       21 0.22465483E-01 0.47691428E+03</pdfrwt>
<pdfrwt beam="2">  1       21 0.29615300E+00 0.47691428E+03</pdfrwt>
<totfact> 0.52480634E+02</totfact>
</mgrwt>
</event>
<event>
 4    1  0.4832791E-002  0.4097945E+03  0.7818608E-02  0.1040440E+00
         21   -1    0    0  503  502  0.00000000000E+00  0.00000000000E+00  0.17225575349E+03  0.17225575349E+03  0.00000000000E+00 0.  1.
         21   -1    0    0  501  503 -0.00000000000E+00 -0.00000000000E+00 -0.13642975054E+04  0.13642975054E+04  0.00000000000E+00 0.  1.
    9000007    1    1    2  501    0 -0.86817294995E+02  0.19856686095E+02 -0.10064721573E+04  0.10867003883E+04  0.40000000000E+03 0. -1.
   -9000007    1    1    2    0  502  0.86817294995E+02 -0.19856686095E+02 -0.18556959470E+03  0.44985287058E+03  0.40000000000E+03 0. -1.
<mgrwt>
<rscale>  2 0.40979450E+03</rscale>
<asrwt>0</asrwt>
<pdfrwt beam="1">  1       21 0.26500884E-01 0.40979450E+03</pdfrwt>
<pdfrwt beam="2">  1       21 0.20989193E+00 0.40979450E+03</pdfrwt>
<totfact> 0.13421917E+03</totfact>
</mgrwt>
</event>
<event>
 4    1  0.4832791E-002  0.5037419E+03  0.7818608E-02  0.1012807E+00
         21   -1    0    0  501  502  0.00000000000E+00  0.00000000000E+00  0.14765680209E+04  0.14765680209E+04  0.00000000000E+00 0. -1.
         21   -1    0    0  502  503 -0.00000000000E+00 -0.00000000000E+00 -0.41387477854E+03  0.41387477854E+03  0.00000000000E+00 0. -1.
    9000007    1    1    2  501    0  0.30418506180E+03  0.35032967843E+02  0.12541569240E+04  0.13515418790E+04  0.40000000000E+03 0. -1.
   -9000007    1    1    2    0  503 -0.30418506180E+03 -0.35032967843E+02 -0.19146368165E+03  0.53890092044E+03  0.40000000000E+03 0. -1.
<mgrwt>
<rscale>  2 0.50374186E+03</rscale>
<asrwt>0</asrwt>
<pdfrwt beam="1">  1       21 0.22716431E+00 0.50374186E+03</pdfrwt>
<pdfrwt beam="2">  1       21 0.63673044E-01 0.50374186E+03</pdfrwt>
<totfact> 0.16099100E+02</totfact>
</mgrwt>
</event>
<event>
 4    1  0.4832791E-002  0.5848136E+03  0.7818608E-02  0.9937424E-01
         21   -1    0    0  501  502  0.00000000000E+00  0.00000000000E+00  0.18925580589E+04  0.18925580589E+04  0.00000000000E+00 0. -1.
         21   -1    0    0  502  503 -0.00000000000E+00 -0.00000000000E+00 -0.19056850804E+03  0.19056850804E+03  0.00000000000E+00 0. -1.
    9000007    1    1    2  501    0  0.38584059205E+03 -0.18202754601E+03  0.61411235450E+03  0.84802180038E+03  0.40000000000E+03 0. -1.
   -9000007    1    1    2    0  503 -0.38584059205E+03  0.18202754601E+03  0.10878771964E+04  0.12351047665E+04  0.40000000000E+03 0. -1.
<mgrwt>
<rscale>  2 0.58481364E+03</rscale>
<asrwt>0</asrwt>
<pdfrwt beam="1">  1       21 0.29116277E+00 0.58481364E+03</pdfrwt>
<pdfrwt beam="2">  1       21 0.29318233E-01 0.58481364E+03</pdfrwt>
<totfact> 0.31715055E+02</totfact>
</mgrwt>
</event>
<event>
 4    1  0.4832791E-002  0.4049135E+03  0.7818608E-02  0.1042091E+00
         21   -1    0    0  501  502  0.00000000000E+00  0.00000000000E+00  0.39358942730E+03  0.39358942730E+03  0.00000000000E+00 0. -1.
         21   -1    0    0  502  503 -0.00000000000E+00 -0.00000000000E+00 -0.54167053623E+03  0.54167053623E+03  0.00000000000E+00 0. -1.
    9000007    1    1    2  501    0 -0.60455772973E+02 -0.17322182097E+02  0.15069704911E+03  0.43204694084E+03  0.40000000000E+03 0. -1.
   -9000007    1    1    2    0  503  0.60455772973E+02  0.17322182097E+02 -0.29877815804E+03  0.50321302269E+03  0.40000000000E+03 0. -1.
<mgrwt>
<rscale>  2 0.40491352E+03</rscale>
<asrwt>0</asrwt>
<pdfrwt beam="1">  1       21 0.60552219E-01 0.40491352E+03</pdfrwt>
<pdfrwt beam="2">  1       21 0.83333929E-01 0.40491352E+03</pdfrwt>
<totfact> 0.28160272E+03</totfact>
</mgrwt>
</event>
<event>
 4    1  0.4832791E-002  0.4445210E+03  0.7818608E-02  0.1029369E+00
         21   -1    0    0  501  502  0.00000000000E+00  0.00000000000E+00  0.80981740171E+03  0.80981740171E+03  0.00000000000E+00 0.  1.
         21   -1    0    0  502  503 -0.00000000000E+00 -0.00000000000E+00 -0.47456481154E+03  0.47456481154E+03  0.00000000000E+00 0.  1.
    9000007    1    1    2  501    0 -0.63698473368E+02 -0.18314316177E+03  0.61524579904E+03  0.75902984556E+03  0.40000000000E+03 0.  1.
   -9000007    1    1    2    0  503  0.63698473368E+02  0.18314316177E+03 -0.27999320888E+03  0.52535236768E+03  0.40000000000E+03 0.  1.
<mgrwt>
<rscale>  2 0.44452099E+03</rscale>
<asrwt>0</asrwt>
<pdfrwt beam="1">  1       21 0.12458729E+00 0.44452099E+03</pdfrwt>
<pdfrwt beam="2">  1       21 0.73009971E-01 0.44452099E+03</pdfrwt>
<totfact> 0.68492491E+02</totfact>
</mgrwt>
</event>
<event>
 4    1  0.4832791E-002  0.4097200E+03  0.7818608E-02  0.1040465E+00
         21   -1    0    0  501  502  0.00000000000E+00  0.00000000000E+00  0.33748934520E+03  0.33748934520E+03  0.00000000000E+00 0.  1.
         21   -1    0    0  502  503 -0.00000000000E+00 -0.00000000000E+00 -0.51889964982E+03  0.51889964982E+03  0.00000000000E+00 0.  1.
    9000007    1    1    2  501    0  0.50086259565E+02  0.73224344508E+02 -0.35650290993E+01  0.40973546034E+03  0.40000000000E+03 0. -1.
   -9000007    1    1    2    0  503 -0.50086259565E+02 -0.73224344508E+02 -0.17784527552E+03  0.44665353469E+03  0.40000000000E+03 0. -1.
<mgrwt>
<rscale>  2 0.40971995E+03</rscale>
<asrwt>0</asrwt>
<pdfrwt beam="1">  1       21 0.51921437E-01 0.40971995E+03</pdfrwt>
<pdfrwt beam="2">  1       21 0.79830716E-01 0.40971995E+03</pdfrwt>
<totfact> 0.43285272E+03</totfact>
</mgrwt>
</event>
<event>
 4    1  0.4832791E-002  0.4510464E+03  0.7818608E-02  0.1027410E+00
         21   -1    0    0  501  502  0.00000000000E+00  0.00000000000E+00  0.12149727272E+04  0.12149727272E+04  0.00000000000E+00 0.  1.
         21   -1    0    0  502  503 -0.00000000000E+00 -0.00000000000E+00 -0.16749652462E+03  0.16749652462E+03  0.00000000000E+00 0.  1.
    9000007    1    1    2  501    0 -0.10692861263E+03  0.17891105746E+03  0.53568742559E+03  0.70028844958E+03  0.40000000000E+03 0.  1.
   -9000007    1    1    2    0  503  0.10692861263E+03 -0.17891105746E+03  0.51178877697E+03  0.68218080222E+03  0.40000000000E+03 0.  1.
<mgrwt>
<rscale>  2 0.45104644E+03</rscale>
<asrwt>0</asrwt>
<pdfrwt beam="1">  1       21 0.18691888E+00 0.45104644E+03</pdfrwt>
<pdfrwt beam="2">  1       21 0.25768697E-01 0.45104644E+03</pdfrwt>
<totfact> 0.19818608E+03</totfact>
</mgrwt>
</event>
<event>
 4    1  0.4832791E-002  0.6290342E+03  0.7818608E-02  0.9846935E-01
         21   -1    0    0  503  502  0.00000000000E+00  0.00000000000E+00  0.15547229169E+03  0.15547229169E+03  0.00000000000E+00 0.  1.
         21   -1    0    0  501  503 -0.00000000000E+00 -0.00000000000E+00 -0.25598662351E+04  0.25598662351E+04  0.00000000000E+00 0. -1.
    9000007    1    1    2  501    0 -0.17562734674E+03  0.45259144613E+03 -0.13055033711E+04  0.14491456221E+04  0.40000000000E+03 0. -1.
   -9000007    1    1    2    0  502  0.17562734674E+03 -0.45259144613E+03 -0.10988905723E+04  0.12661929047E+04  0.40000000000E+03 0.  1.
<mgrwt>
<rscale>  2 0.62903417E+03</rscale>
<asrwt>0</asrwt>
<pdfrwt beam="1">  1       21 0.23918812E-01 0.62903417E+03</pdfrwt>
<pdfrwt beam="2">  1       21 0.39382561E+00 0.62903417E+03</pdfrwt>
<totfact> 0.10702005E+02</totfact>
</mgrwt>
</event>
<event>
 4    1  0.4832791E-002  0.4158304E+03  0.7818608E-02  0.1038432E+00
         21   -1    0    0  501  502  0.00000000000E+00  0.00000000000E+00  0.17707763950E+04  0.17707763950E+04  0.00000000000E+00 0.  1.
         21   -1    0    0  502  503 -0.00000000000E+00 -0.00000000000E+00 -0.10243789779E+03  0.10243789779E+03  0.00000000000E+00 0.  1.
    9000007    1    1    2  501    0 -0.79803111216E+02  0.80909589321E+02  0.10366742984E+04  0.11169639650E+04  0.40000000000E+03 0.  1.
   -9000007    1    1    2    0  503  0.79803111216E+02 -0.80909589321E+02  0.63166419886E+03  0.75625032782E+03  0.40000000000E+03 0.  1.
<mgrwt>
<rscale>  2 0.41583037E+03</rscale>
<asrwt>0</asrwt>
<pdfrwt beam="1">  1       21 0.27242711E+00 0.41583037E+03</pdfrwt>
<pdfrwt beam="2">  1       21 0.15759678E-01 0.41583037E+03</pdfrwt>
<totfact> 0.14737564E+03</totfact>
</mgrwt>
</event>
<event>
 4    1  0.4832791E-002  0.4151618E+03  0.7818608E-02  0.1038653E+00
         21   -1    0    0  503  502  0.00000000000E+00  0.00000000000E+00  0.12446376470E+03  0.12446376470E+03  0.00000000000E+00 0.  1.
         21   -1    0    0  501  503 -0.00000000000E+00 -0.00000000000E+00 -0.21505567925E+04  0.21505567925E+04  0.00000000000E+00 0. -1.
    9000007    1    1    2  501    0 -0.62510161763E+02 -0.91933787109E+02 -0.16918138356E+04  0.17420084374E+04  0.40000000000E+03 0. -1.
   -9000007    1    1    2    0  502  0.62510161763E+02  0.91933787109E+02 -0.33427919215E+03  0.53301211979E+03  0.40000000000E+03 0.  1.
<mgrwt>
<rscale>  2 0.41516183E+03</rscale>
<asrwt>0</asrwt>
<pdfrwt beam="1">  1       21 0.19148272E-01 0.41516183E+03</pdfrwt>
<pdfrwt beam="2">  1       21 0.33085489E+00 0.41516183E+03</pdfrwt>
<totfact> 0.45613759E+02</totfact>
</mgrwt>
</event>
<event>
 4    1  0.4832791E-002  0.5984456E+03  0.7818608E-02  0.9908636E-01
         21   -1    0    0  503  502  0.00000000000E+00  0.00000000000E+00  0.15082425930E+04  0.15082425930E+04  0.00000000000E+00 0. -1.
         21   -1    0    0  501  503 -0.00000000000E+00 -0.00000000000E+00 -0.34353487848E+03  0.34353487848E+03  0.00000000000E+00 0.  1.
    9000007    1    1    2  501    0 -0.83951371131E+02 -0.43713763703E+03  0.67844336457E+02  0.60227900546E+03  0.40000000000E+03 0. -1.
   -9000007    1    1    2    0  502  0.83951371131E+02  0.43713763703E+03  0.10968633780E+04  0.12494984660E+04  0.40000000000E+03 0. -1.
<mgrwt>
<rscale>  2 0.59844561E+03</rscale>
<asrwt>0</asrwt>
<pdfrwt beam="1">  1       21 0.23203732E+00 0.59844561E+03</pdfrwt>
<pdfrwt beam="2">  1       21 0.52851521E-01 0.59844561E+03</pdfrwt>
<totfact> 0.21595058E+02</totfact>
</mgrwt>
</event>
<event>
 4    1  0.4832791E-002  0.4744455E+03  0.7818608E-02  0.1020673E+00
         21   -1    0    0  503  502  0.00000000000E+00  0.00000000000E+00  0.74670639727E+03  0.74670639727E+03  0.00000000000E+00 0.  1.
         21   -1    0    0  501  503 -0.00000000000E+00 -0.00000000000E+00 -0.42771480391E+03  0.42771480391E+03  0.00000000000E+00 0.  1.
    9000007    1    1    2  501    0  0.24872969693E+03  0.56851612062E+02 -0.15954693965E+03  0.50055348753E+03  0.40000000000E+03 0.  1.
   -9000007    1    1    2    0  502 -0.24872969693E+03 -0.56851612062E+02  0.47853853302E+03  0.67386771366E+03  0.40000000000E+03 0.  1.
<mgrwt>
<rscale>  2 0.47444554E+03</rscale>
<asrwt>0</asrwt>
<pdfrwt beam="1">  1       21 0.11487791E+00 0.47444554E+03</pdfrwt>
<pdfrwt beam="2">  1       21 0.65802278E-01 0.47444554E+03</pdfrwt>
<totfact> 0.10500107E+03</totfact>
</mgrwt>
</event>
<event>
 4    1  0.4832791E-002  0.4812114E+03  0.7818608E-02  0.1018803E+00
         21   -1    0    0  503  502  0.00000000000E+00  0.00000000000E+00  0.13715745410E+04  0.13715745410E+04  0.00000000000E+00 0. -1.
         21   -1    0    0  501  503 -0.00000000000E+00 -0.00000000000E+00 -0.39458373444E+03  0.39458373444E+03  0.00000000000E+00 0.  1.
    9000007    1    1    2  501    0 -0.14310038930E+03 -0.22602368115E+03 -0.17945844748E+03  0.51358520250E+03  0.40000000000E+03 0.  1.
   -9000007    1    1    2    0  502  0.14310038930E+03  0.22602368115E+03  0.11564492541E+04  0.12525730730E+04  0.40000000000E+03 0. -1.
<mgrwt>
<rscale>  2 0.48121141E+03</rscale>
<asrwt>0</asrwt>
<pdfrwt beam="1">  1       21 0.21101147E+00 0.48121141E+03</pdfrwt>
<pdfrwt beam="2">  1       21 0.60705191E-01 0.48121141E+03</pdfrwt>
<totfact> 0.22985223E+02</totfact>
</mgrwt>
</event>
<event>
 4    1  0.4832791E-002  0.4270202E+03  0.7818608E-02  0.1034805E+00
         21   -1    0    0  503  502  0.00000000000E+00  0.00000000000E+00  0.42499494798E+03  0.42499494798E+03  0.00000000000E+00 0. -1.
         21   -1    0    0  501  503 -0.00000000000E+00 -0.00000000000E+00 -0.95449908573E+03  0.95449908573E+03  0.00000000000E+00 0. -1.
    9000007    1    1    2  501    0 -0.54069909860E+01 -0.14938886310E+03 -0.77651080792E+03  0.88618017512E+03  0.40000000000E+03 0. -1.
   -9000007    1    1    2    0  502  0.54069909860E+01  0.14938886310E+03  0.24700667017E+03  0.49331385859E+03  0.40000000000E+03 0. -1.
<mgrwt>
<rscale>  2 0.42702022E+03</rscale>
<asrwt>0</asrwt>
<pdfrwt beam="1">  1       21 0.65383839E-01 0.42702022E+03</pdfrwt>
<pdfrwt beam="2">  1       21 0.14684601E+00 0.42702022E+03</pdfrwt>
<totfact> 0.57437025E+02</totfact>
</mgrwt>
</event>
<event>
 4    1  0.4832791E-002  0.4221950E+03  0.7818608E-02  0.1036354E+00
         21   -1    0    0  501  502  0.00000000000E+00  0.00000000000E+00  0.12713773890E+03  0.12713773890E+03  0.00000000000E+00 0. -1.
         21   -1    0    0  502  503 -0.00000000000E+00 -0.00000000000E+00 -0.14679675465E+04  0.14679675465E+04  0.00000000000E+00 0. -1.
    9000007    1    1    2  501    0 -0.10736712925E+03 -0.81981192849E+02 -0.83946961925E+03  0.93965837306E+03  0.40000000000E+03 0. -1.
   -9000007    1    1    2    0  503  0.10736712925E+03  0.81981192849E+02 -0.50136018834E+03  0.65544691232E+03  0.40000000000E+03 0. -1.
<mgrwt>
<rscale>  2 0.42219500E+03</rscale>
<asrwt>0</asrwt>
<pdfrwt beam="1">  1       21 0.19559651E-01 0.42219500E+03</pdfrwt>
<pdfrwt beam="2">  1       21 0.22584117E+00 0.42219500E+03</pdfrwt>
<totfact> 0.18922792E+03</totfact>
</mgrwt>
</event>
<event>
 4    1  0.4832791E-002  0.4319262E+03  0.7818608E-02  0.1033253E+00
         21   -1    0    0  503  502  0.00000000000E+00  0.00000000000E+00  0.15749642329E+04  0.15749642329E+04  0.00000000000E+00 0. -1.
         21   -1    0    0  501  503 -0.00000000000E+00 -0.00000000000E+00 -0.29399606181E+03  0.29399606181E+03  0.00000000000E+00 0. -1.
    9000007    1    1    2  501    0 -0.11485459959E+03 -0.11562282380E+03 -0.81604349174E+02  0.43956738532E+03  0.40000000000E+03 0. -1.
   -9000007    1    1    2    0  502  0.11485459959E+03  0.11562282380E+03  0.13625725203E+04  0.14293929094E+04  0.40000000000E+03 0. -1.
<mgrwt>
<rscale>  2 0.43192617E+03</rscale>
<asrwt>0</asrwt>
<pdfrwt beam="1">  1       21 0.24230219E+00 0.43192617E+03</pdfrwt>
<pdfrwt beam="2">  1       21 0.45230164E-01 0.43192617E+03</pdfrwt>
<totfact> 0.28101577E+02</totfact>
</mgrwt>
</event>
<event>
 4    1  0.4832791E-002  0.5012131E+03  0.7818608E-02  0.1013463E+00
         21   -1    0    0  501  502  0.00000000000E+00  0.00000000000E+00  0.21649855907E+04  0.21649855907E+04  0.00000000000E+00 0.  1.
         21   -1    0    0  502  503 -0.00000000000E+00 -0.00000000000E+00 -0.13559253276E+03  0.13559253276E+03  0.00000000000E+00 0. -1.
    9000007    1    1    2  501    0  0.29170455327E+03 -0.78249738696E+02  0.57783504970E+03  0.76492346850E+03  0.40000000000E+03 0. -1.
   -9000007    1    1    2    0  503 -0.29170455327E+03  0.78249738696E+02  0.14515580082E+04  0.15356546549E+04  0.40000000000E+03 0.  1.
<mgrwt>
<rscale>  2 0.50121310E+03</rscale>
<asrwt>0</asrwt>
<pdfrwt beam="1">  1       21 0.33307468E+00 0.50121310E+03</pdfrwt>
<pdfrwt beam="2">  1       21 0.20860391E-01 0.50121310E+03</pdfrwt>
<totfact> 0.35696052E+02</totfact>
</mgrwt>
</event>
<event>
 4    1  0.4832791E-002  0.4941092E+03  0.7818608E-02  0.1015328E+00
         21   -1    0    0  503  502  0.00000000000E+00  0.00000000000E+00  0.55985808332E+03  0.55985808332E+03  0.00000000000E+00 0. -1.
         21   -1    0    0  501  503 -0.00000000000E+00 -0.00000000000E+00 -0.59785935528E+03  0.59785935528E+03  0.00000000000E+00 0. -1.
    9000007    1    1    2  501    0 -0.81003485580E+02  0.27853605914E+03 -0.32011553608E+03  0.58874260705E+03  0.40000000000E+03 0. -1.
   -9000007    1    1    2    0  502  0.81003485580E+02 -0.27853605914E+03  0.28211426411E+03  0.56897483155E+03  0.40000000000E+03 0. -1.
<mgrwt>
<rscale>  2 0.49410920E+03</rscale>
<asrwt>0</asrwt>
<pdfrwt beam="1">  1       21 0.86132013E-01 0.49410920E+03</pdfrwt>
<pdfrwt beam="2">  1       21 0.91978363E-01 0.49410920E+03</pdfrwt>
<totfact> 0.97011362E+02</totfact>
</mgrwt>
</event>
<event>
 4    1  0.4832791E-002  0.4076749E+03  0.7818608E-02  0.1041154E+00
         21   -1    0    0  503  502  0.00000000000E+00  0.00000000000E+00  0.54679762101E+03  0.54679762101E+03  0.00000000000E+00 0.  1.
         21   -1    0    0  501  503 -0.00000000000E+00 -0.00000000000E+00 -0.46229937287E+03  0.46229937287E+03  0.00000000000E+00 0.  1.
    9000007    1    1    2  501    0  0.73845218176E+02  0.27307323375E+02 -0.25304191495E+03  0.47982185952E+03  0.40000000000E+03 0. -1.
   -9000007    1    1    2    0  502 -0.73845218176E+02 -0.27307323375E+02  0.33754016309E+03  0.52927513436E+03  0.40000000000E+03 0. -1.
<mgrwt>
<rscale>  2 0.40767488E+03</rscale>
<asrwt>0</asrwt>
<pdfrwt beam="1">  1       21 0.84122711E-01 0.40767488E+03</pdfrwt>
<pdfrwt beam="2">  1       21 0.71122981E-01 0.40767488E+03</pdfrwt>
<totfact> 0.19249052E+03</totfact>
</mgrwt>
</event>
<event>
 4    1  0.4832791E-002  0.5071258E+03  0.7818608E-02  0.1011936E+00
         21   -1    0    0  503  502  0.00000000000E+00  0.00000000000E+00  0.77478623876E+03  0.77478623876E+03  0.00000000000E+00 0. -1.
         21   -1    0    0  501  503 -0.00000000000E+00 -0.00000000000E+00 -0.60206404537E+03  0.60206404537E+03  0.00000000000E+00 0. -1.
    9000007    1    1    2  501    0 -0.24542540827E+03  0.19220541294E+03 -0.37476873254E+03  0.63057763572E+03  0.40000000000E+03 0. -1.
   -9000007    1    1    2    0  502  0.24542540827E+03 -0.19220541294E+03  0.54749092593E+03  0.74627264841E+03  0.40000000000E+03 0. -1.
<mgrwt>
<rscale>  2 0.50712578E+03</rscale>
<asrwt>0</asrwt>
<pdfrwt beam="1">  1       21 0.11919788E+00 0.50712578E+03</pdfrwt>
<pdfrwt beam="2">  1       21 0.92625238E-01 0.50712578E+03</pdfrwt>
<totfact> 0.42924149E+02</totfact>
</mgrwt>
</event>
<event>
 4    1  0.4832791E-002  0.5054035E+03  0.7818608E-02  0.1012378E+00
         21   -1    0    0  501  502  0.00000000000E+00  0.00000000000E+00  0.59934555542E+03  0.59934555542E+03  0.00000000000E+00 0.  1.
         21   -1    0    0  502  503 -0.00000000000E+00 -0.00000000000E+00 -0.14248071344E+04  0.14248071344E+04  0.00000000000E+00 0. -1.
    9000007    1    1    2  501    0  0.13280253399E+03  0.27891964081E+03  0.43456610058E+03  0.66654360311E+03  0.40000000000E+03 0.  1.
   -9000007    1    1    2    0  503 -0.13280253399E+03 -0.27891964081E+03 -0.12600276795E+04  0.13576090867E+04  0.40000000000E+03 0. -1.
<mgrwt>
<rscale>  2 0.50540348E+03</rscale>
<asrwt>0</asrwt>
<pdfrwt beam="1">  1       21 0.92207010E-01 0.50540348E+03</pdfrwt>
<pdfrwt beam="2">  1       21 0.21920110E+00 0.50540348E+03</pdfrwt>
<totfact> 0.77190414E+01</totfact>
</mgrwt>
</event>
<event>
 4    1  0.4832791E-002  0.4045121E+03  0.7818608E-02  0.1042228E+00
         21   -1    0    0  501  502  0.00000000000E+00  0.00000000000E+00  0.73256701925E+03  0.73256701925E+03  0.00000000000E+00 0. -1.
         21   -1    0    0  502  503 -0.00000000000E+00 -0.00000000000E+00 -0.29592513854E+03  0.29592513854E+03  0.00000000000E+00 0. -1.
    9000007    1    1    2  501    0 -0.14803989281E+02 -0.58402731923E+02  0.47296190657E+03  0.62235279565E+03  0.40000000000E+03 0. -1.
   -9000007    1    1    2    0  503  0.14803989281E+02  0.58402731923E+02 -0.36320025855E+02  0.40613936213E+03  0.40000000000E+03 0. -1.
<mgrwt>
<rscale>  2 0.40451210E+03</rscale>
<asrwt>0</asrwt>
<pdfrwt beam="1">  1       21 0.11270262E+00 0.40451210E+03</pdfrwt>
<pdfrwt beam="2">  1       21 0.45526945E-01 0.40451210E+03</pdfrwt>
<totfact> 0.25082198E+03</totfact>
</mgrwt>
</event>
<event>
 4    1  0.4832791E-002  0.4205330E+03  0.7818608E-02  0.1036893E+00
         21   -1    0    0  503  502  0.00000000000E+00  0.00000000000E+00  0.64788656806E+03  0.64788656806E+03  0.00000000000E+00 0. -1.
         21   -1    0    0  501  503 -0.00000000000E+00 -0.00000000000E+00 -0.27735085553E+03  0.27735085553E+03  0.00000000000E+00 0. -1.
    9000007    1    1    2  501    0 -0.11734742669E+03  0.55475762959E+02  0.12706862256E+03  0.43931129472E+03  0.40000000000E+03 0. -1.
   -9000007    1    1    2    0  502  0.11734742669E+03 -0.55475762959E+02  0.24346708997E+03  0.48592612887E+03  0.40000000000E+03 0. -1.
<mgrwt>
<rscale>  2 0.42053297E+03</rscale>
<asrwt>0</asrwt>
<pdfrwt beam="1">  1       21 0.99674856E-01 0.42053297E+03</pdfrwt>
<pdfrwt beam="2">  1       21 0.42669363E-01 0.42053297E+03</pdfrwt>
<totfact> 0.38591197E+03</totfact>
</mgrwt>
</event>
<event>
 4    1  0.4832791E-002  0.4602804E+03  0.7818608E-02  0.1024700E+00
         21   -1    0    0  503  502  0.00000000000E+00  0.00000000000E+00  0.20181119991E+04  0.20181119991E+04  0.00000000000E+00 0.  1.
         21   -1    0    0  501  503 -0.00000000000E+00 -0.00000000000E+00 -0.10592478852E+03  0.10592478852E+03  0.00000000000E+00 0. -1.
    9000007    1    1    2  501    0 -0.19298333871E+03  0.12089463537E+03  0.85570652187E+03  0.97164383056E+03  0.40000000000E+03 0.  1.
   -9000007    1    1    2    0  502  0.19298333871E+03 -0.12089463537E+03  0.10564806887E+04  0.11523929570E+04  0.40000000000E+03 0.  1.
<mgrwt>
<rscale>  2 0.46028044E+03</rscale>
<asrwt>0</asrwt>
<pdfrwt beam="1">  1       21 0.31047874E+00 0.46028044E+03</pdfrwt>
<pdfrwt beam="2">  1       21 0.16296123E-01 0.46028044E+03</pdfrwt>
<totfact> 0.79820647E+02</totfact>
</mgrwt>
</event>
<event>
 4    1  0.4832791E-002  0.6057151E+03  0.7818608E-02  0.9893619E-01
         21   -1    0    0  503  502  0.00000000000E+00  0.00000000000E+00  0.17975598697E+04  0.17975598697E+04  0.00000000000E+00 0.  1.
         21   -1    0    0  501  503 -0.00000000000E+00 -0.00000000000E+00 -0.21619890536E+03  0.21619890536E+03  0.00000000000E+00 0. -1.
    9000007    1    1    2  501    0 -0.77030793144E+02 -0.44828231701E+03  0.10288223576E+04  0.11938870224E+04  0.40000000000E+03 0.  1.
   -9000007    1    1    2    0  502  0.77030793144E+02  0.44828231701E+03  0.55253860679E+03  0.81987175267E+03  0.40000000000E+03 0. -1.
<mgrwt>
<rscale>  2 0.60571510E+03</rscale>
<asrwt>0</asrwt>
<pdfrwt beam="1">  1       21 0.27654766E+00 0.60571510E+03</pdfrwt>
<pdfrwt beam="2">  1       21 0.33261371E-01 0.60571510E+03</pdfrwt>
<totfact> 0.29957834E+02</totfact>
</mgrwt>
</event>
<event>
 4    1  0.4832791E-002  0.4032783E+03  0.7818608E-02  0.1042650E+00
         21   -1    0    0  503  502  0.00000000000E+00  0.00000000000E+00  0.44280083866E+03  0.44280083866E+03  0.00000000000E+00 0.  1.
         21   -1    0    0  501  503 -0.00000000000E+00 -0.00000000000E+00 -0.36729473248E+03  0.36729473248E+03  0.00000000000E+00 0.  1.
    9000007    1    1    2  501    0  0.46971042674E+01  0.51101000391E+02  0.40007985927E+02  0.40525795978E+03  0.40000000000E+03 0.  1.
   -9000007    1    1    2    0  502 -0.46971042674E+01 -0.51101000391E+02  0.35498120257E+02  0.40483761136E+03  0.40000000000E+03 0.  1.
<mgrwt>
<rscale>  2 0.40327828E+03</rscale>
<asrwt>0</asrwt>
<pdfrwt beam="1">  1       21 0.68123205E-01 0.40327828E+03</pdfrwt>
<pdfrwt beam="2">  1       21 0.56506882E-01 0.40327828E+03</pdfrwt>
<totfact> 0.51840962E+03</totfact>
</mgrwt>
</event>
<event>
 4    1  0.4832791E-002  0.5388769E+03  0.7818608E-02  0.1004102E+00
         21   -1    0    0  501  502  0.00000000000E+00  0.00000000000E+00  0.79463248614E+03  0.79463248614E+03  0.00000000000E+00 0.  1.
         21   -1    0    0  502  503 -0.00000000000E+00 -0.00000000000E+00 -0.36566063372E+03  0.36566063372E+03  0.00000000000E+00 0. -1.
    9000007    1    1    2  501    0  0.31902260288E+03 -0.16915336062E+03  0.22882631743E+03  0.58544834452E+03  0.40000000000E+03 0.  1.
   -9000007    1    1    2    0  503 -0.31902260288E+03  0.16915336062E+03  0.20014553498E+03  0.57484477534E+03  0.40000000000E+03 0. -1.
<mgrwt>
<rscale>  2 0.53887687E+03</rscale>
<asrwt>0</asrwt>
<pdfrwt beam="1">  1       21 0.12225115E+00 0.53887687E+03</pdfrwt>
<pdfrwt beam="2">  1       21 0.56255482E-01 0.53887687E+03</pdfrwt>
<totfact> 0.12373691E+03</totfact>
</mgrwt>
</event>
<event>
 4    1  0.4832791E-002  0.5148068E+03  0.7818608E-02  0.1009985E+00
         21   -1    0    0  503  502  0.00000000000E+00  0.00000000000E+00  0.13928820176E+04  0.13928820176E+04  0.00000000000E+00 0.  1.
         21   -1    0    0  501  503 -0.00000000000E+00 -0.00000000000E+00 -0.12494045072E+04  0.12494045072E+04  0.00000000000E+00 0.  1.
    9000007    1    1    2  501    0  0.19229340677E+03  0.26086261271E+03 -0.11446533323E+04  0.12550925496E+04  0.40000000000E+03 0.  1.
   -9000007    1    1    2    0  502 -0.19229340677E+03 -0.26086261271E+03  0.12881308427E+04  0.13871939752E+04  0.40000000000E+03 0.  1.
<mgrwt>
<rscale>  2 0.51480682E+03</rscale>
<asrwt>0</asrwt>
<pdfrwt beam="1">  1       21 0.21428954E+00 0.51480682E+03</pdfrwt>
<pdfrwt beam="2">  1       21 0.19221608E+00 0.51480682E+03</pdfrwt>
<totfact> 0.11769492E+01</totfact>
</mgrwt>
</event>
<event>
 4    1  0.4832791E-002  0.4228326E+03  0.7818608E-02  0.1036148E+00
         21   -1    0    0  501  502  0.00000000000E+00  0.00000000000E+00  0.24249334909E+03  0.24249334909E+03  0.00000000000E+00 0.  1.
         21   -1    0    0  502  503 -0.00000000000E+00 -0.00000000000E+00 -0.74020667038E+03  0.74020667038E+03  0.00000000000E+00 0.  1.
    9000007    1    1    2  501    0 -0.68606169492E+02  0.11866160234E+03 -0.27971151944E+03  0.50697723466E+03  0.40000000000E+03 0.  1.
   -9000007    1    1    2    0  503  0.68606169492E+02 -0.11866160234E+03 -0.21800180186E+03  0.47572278480E+03  0.40000000000E+03 0.  1.
<mgrwt>
<rscale>  2 0.42283257E+03</rscale>
<asrwt>0</asrwt>
<pdfrwt beam="1">  1       21 0.37306670E-01 0.42283257E+03</pdfrwt>
<pdfrwt beam="2">  1       21 0.11387795E+00 0.42283257E+03</pdfrwt>
<totfact> 0.36611958E+03</totfact>
</mgrwt>
</event>
<event>
 4    1  0.4832791E-002  0.4466286E+03  0.7818608E-02  0.1028732E+00
         21   -1    0    0  501  502  0.00000000000E+00  0.00000000000E+00  0.10433865831E+03  0.10433865831E+03  0.00000000000E+00 0.  1.
         21   -1    0    0  502  503 -0.00000000000E+00 -0.00000000000E+00 -0.22880952283E+04  0.22880952283E+04  0.00000000000E+00 0.  1.
    9000007    1    1    2  501    0 -0.35194727270E+02  0.19554646727E+03 -0.60678669325E+03  0.75343691229E+03  0.40000000000E+03 0.  1.
   -9000007    1    1    2    0  503  0.35194727270E+02 -0.19554646727E+03 -0.15769698768E+04  0.16389969743E+04  0.40000000000E+03 0.  1.
<mgrwt>
<rscale>  2 0.44662858E+03</rscale>
<asrwt>0</asrwt>
<pdfrwt beam="1">  1       21 0.16052101E-01 0.44662858E+03</pdfrwt>
<pdfrwt beam="2">  1       21 0.35201465E+00 0.44662858E+03</pdfrwt>
<totfact> 0.46293981E+02</totfact>
</mgrwt>
</event>
<event>
 4    1  0.4832791E-002  0.4137396E+03  0.7818608E-02  0.1039123E+00
         21   -1    0    0  503  502  0.00000000000E+00  0.00000000000E+00  0.43011346688E+03  0.43011346688E+03  0.00000000000E+00 0. -1.
         21   -1    0    0  501  503 -0.00000000000E+00 -0.00000000000E+00 -0.42091705254E+03  0.42091705254E+03  0.00000000000E+00 0.  1.
    9000007    1    1    2  501    0 -0.10567754238E+03 -0.35635752345E+01 -0.94713435792E+02  0.42444207726E+03  0.40000000000E+03 0.  1.
   -9000007    1    1    2    0  502  0.10567754238E+03  0.35635752345E+01  0.10390985014E+03  0.42658844216E+03  0.40000000000E+03 0. -1.
<mgrwt>
<rscale>  2 0.41373958E+03</rscale>
<asrwt>0</asrwt>
<pdfrwt beam="1">  1       21 0.66171303E-01 0.41373958E+03</pdfrwt>
<pdfrwt beam="2">  1       21 0.64756469E-01 0.41373958E+03</pdfrwt>
<totfact> 0.40882539E+03</totfact>
</mgrwt>
</event>
<event>
 4    1  0.4832791E-002  0.4950975E+03  0.7818608E-02  0.1015067E+00
         21   -1    0    0  503  502  0.00000000000E+00  0.00000000000E+00  0.12557831846E+04  0.12557831846E+04  0.00000000000E+00 0.  1.
         21   -1    0    0  501  503 -0.00000000000E+00 -0.00000000000E+00 -0.32573642940E+03  0.32573642940E+03  0.00000000000E+00 0.  1.
    9000007    1    1    2  501    0  0.28884637031E+03 -0.41100903209E+02 -0.35572242149E+02  0.49637374457E+03  0.40000000000E+03 0.  1.
   -9000007    1    1    2    0  502 -0.28884637031E+03  0.41100903209E+02  0.96561899731E+03  0.10851458694E+04  0.40000000000E+03 0.  1.
<mgrwt>
<rscale>  2 0.49509748E+03</rscale>
<asrwt>0</asrwt>
<pdfrwt beam="1">  1       21 0.19319741E+00 0.49509748E+03</pdfrwt>
<pdfrwt beam="2">  1       21 0.50113298E-01 0.49509748E+03</pdfrwt>
<totfact> 0.45446534E+02</totfact>
</mgrwt>
</event>
<event>
 4    1  0.4832791E-002  0.4159425E+03  0.7818608E-02  0.1038395E+00
         21   -1    0    0  501  502  0.00000000000E+00  0.00000000000E+00  0.22692483191E+04  0.22692483191E+04  0.00000000000E+00 0.  1.
         21   -1    0    0  502  503 -0.00000000000E+00 -0.00000000000E+00 -0.60976858500E+03  0.60976858500E+03  0.00000000000E+00 0.  1.
    9000007    1    1    2  501    0  0.93058337048E+02 -0.65941459271E+02  0.21762524868E+04  0.22156450565E+04  0.40000000000E+03 0.  1.
   -9000007    1    1    2    0  503 -0.93058337048E+02  0.65941459271E+02 -0.51677275274E+03  0.66337184755E+03  0.40000000000E+03 0.  1.
<mgrwt>
<rscale>  2 0.41594246E+03</rscale>
<asrwt>0</asrwt>
<pdfrwt beam="1">  1       21 0.34911512E+00 0.41594246E+03</pdfrwt>
<pdfrwt beam="2">  1       21 0.93810553E-01 0.41594246E+03</pdfrwt>
<totfact> 0.12663304E+01</totfact>
</mgrwt>
</event>
<event>
 4    1  0.4832791E-002  0.5880219E+03  0.7818608E-02  0.9930573E-01
         21   -1    0    0  503  502  0.00000000000E+00  0.00000000000E+00  0.97852607092E+02  0.97852607092E+02  0.00000000000E+00 0.  1.
         21   -1    0    0  501  503 -0.00000000000E+00 -0.00000000000E+00 -0.36690204542E+04  0.36690204542E+04  0.00000000000E+00 0. -1.
    9000007    1    1    2  501    0  0.10928145880E+03  0.41692607850E+03 -0.14237129233E+04  0.15403662812E+04  0.40000000000E+03 0.  1.
   -9000007    1    1    2    0  502 -0.10928145880E+03 -0.41692607850E+03 -0.21474549238E+04  0.22265067801E+04  0.40000000000E+03 0. -1.
<mgrwt>
<rscale>  2 0.58802193E+03</rscale>
<asrwt>0</asrwt>
<pdfrwt beam="1">  1       21 0.15054248E-01 0.58802193E+03</pdfrwt>
<pdfrwt beam="2">  1       21 0.56446465E+00 0.58802193E+03</pdfrwt>
<totfact> 0.16779556E+01</totfact>
</mgrwt>
</event>
<event>
 4    1  0.4832791E-002  0.4634327E+03  0.7818608E-02  0.1023790E+00
         21   -1    0    0  503  502  0.00000000000E+00  0.00000000000E+00  0.12084758173E+04  0.12084758173E+04  0.00000000000E+00 0. -1.
         21   -1    0    0  501  503 -0.00000000000E+00 -0.00000000000E+00 -0.38711582291E+03  0.38711582291E+03  0.00000000000E+00 0.  1.
    9000007    1    1    2  501    0  0.22374840404E+03 -0.68604395511E+02 -0.17607345661E+03  0.49575374282E+03  0.40000000000E+03 0.  1.
   -9000007    1    1    2    0  502 -0.22374840404E+03  0.68604395511E+02  0.99743345102E+03  0.10998378974E+04  0.40000000000E+03 0. -1.
<mgrwt>
<rscale>  2 0.46343275E+03</rscale>
<asrwt>0</asrwt>
<pdfrwt beam="1">  1       21 0.18591935E+00 0.46343275E+03</pdfrwt>
<pdfrwt beam="2">  1       21 0.59556281E-01 0.46343275E+03</pdfrwt>
<totfact> 0.35641331E+02</totfact>
</mgrwt>
</event>
<event>
 4    1  0.4832791E-002  0.4290160E+03  0.7818608E-02  0.1034171E+00
         21   -1    0    0  501  502  0.00000000000E+00  0.00000000000E+00  0.17964082811E+04  0.17964082811E+04  0.00000000000E+00 0.  1.
         21   -1    0    0  502  503 -0.00000000000E+00 -0.00000000000E+00 -0.10269272424E+03  0.10269272424E+03  0.00000000000E+00 0.  1.
    9000007    1    1    2  501    0  0.40219863471E+02 -0.14979002935E+03  0.80136884962E+03  0.90898114581E+03  0.40000000000E+03 0. -1.
   -9000007    1    1    2    0  503 -0.40219863471E+02  0.14979002935E+03  0.89234670726E+03  0.99011985955E+03  0.40000000000E+03 0. -1.
<mgrwt>
<rscale>  2 0.42901596E+03</rscale>
<asrwt>0</asrwt>
<pdfrwt beam="1">  1       21 0.27637048E+00 0.42901596E+03</pdfrwt>
<pdfrwt beam="2">  1       21 0.15798882E-01 0.42901596E+03</pdfrwt>
<totfact> 0.13792374E+03</totfact>
</mgrwt>
</event>
<event>
 4    1  0.4832791E-002  0.4321771E+03  0.7818608E-02  0.1033174E+00
         21   -1    0    0  503  502  0.00000000000E+00  0.00000000000E+00  0.80047518641E+03  0.80047518641E+03  0.00000000000E+00 0.  1.
         21   -1    0    0  501  503 -0.00000000000E+00 -0.00000000000E+00 -0.23487617770E+03  0.23487617770E+03  0.00000000000E+00 0.  1.
    9000007    1    1    2  501    0  0.88378629738E+02 -0.13771808138E+03  0.24083465044E+03  0.49475082717E+03  0.40000000000E+03 0.  1.
   -9000007    1    1    2    0  502 -0.88378629738E+02  0.13771808138E+03  0.32476435827E+03  0.54060053694E+03  0.40000000000E+03 0.  1.
<mgrwt>
<rscale>  2 0.43217711E+03</rscale>
<asrwt>0</asrwt>
<pdfrwt beam="1">  1       21 0.12315003E+00 0.43217711E+03</pdfrwt>
<pdfrwt beam="2">  1       21 0.36134797E-01 0.43217711E+03</pdfrwt>
<totfact> 0.31948994E+03</totfact>
</mgrwt>
</event>
<event>
 4    1  0.4832791E-002  0.6540338E+03  0.7818608E-02  0.9799239E-01
         21   -1    0    0  503  502  0.00000000000E+00  0.00000000000E+00  0.11625508196E+04  0.11625508196E+04  0.00000000000E+00 0.  1.
         21   -1    0    0  501  503 -0.00000000000E+00 -0.00000000000E+00 -0.43099355812E+03  0.43099355812E+03  0.00000000000E+00 0. -1.
    9000007    1    1    2  501    0 -0.33139190876E+03 -0.39741612148E+03  0.61045039230E+02  0.65687644776E+03  0.40000000000E+03 0.  1.
   -9000007    1    1    2    0  502  0.33139190876E+03  0.39741612148E+03  0.67051222224E+03  0.93666792994E+03  0.40000000000E+03 0. -1.
<mgrwt>
<rscale>  2 0.65403377E+03</rscale>
<asrwt>0</asrwt>
<pdfrwt beam="1">  1       21 0.17885397E+00 0.65403377E+03</pdfrwt>
<pdfrwt beam="2">  1       21 0.66306702E-01 0.65403377E+03</pdfrwt>
<totfact> 0.29182194E+02</totfact>
</mgrwt>
</event>
<event>
 4    1  0.4832791E-002  0.4981044E+03  0.7818608E-02  0.1014275E+00
         21   -1    0    0  501  502  0.00000000000E+00  0.00000000000E+00  0.34084627022E+03  0.34084627022E+03  0.00000000000E+00 0. -1.
         21   -1    0    0  502  503 -0.00000000000E+00 -0.00000000000E+00 -0.11683760291E+04  0.11683760291E+04  0.00000000000E+00 0. -1.
    9000007    1    1    2  501    0  0.17434432299E+03 -0.24023327034E+03  0.49558704943E+02  0.50056371460E+03  0.40000000000E+03 0. -1.
   -9000007    1    1    2    0  503 -0.17434432299E+03  0.24023327034E+03 -0.87708846378E+03  0.10086585847E+04  0.40000000000E+03 0. -1.
<mgrwt>
<rscale>  2 0.49810437E+03</rscale>
<asrwt>0</asrwt>
<pdfrwt beam="1">  1       21 0.52437888E-01 0.49810437E+03</pdfrwt>
<pdfrwt beam="2">  1       21 0.17975016E+00 0.49810437E+03</pdfrwt>
<totfact> 0.51064023E+02</totfact>
</mgrwt>
</event>
<event>
 4    1  0.4832791E-002  0.5103394E+03  0.7818608E-02  0.1011115E+00
         21   -1    0    0  503  502  0.00000000000E+00  0.00000000000E+00  0.95924281820E+03  0.95924281820E+03  0.00000000000E+00 0.  1.
         21   -1    0    0  501  503 -0.00000000000E+00 -0.00000000000E+00 -0.28842046848E+03  0.28842046848E+03  0.00000000000E+00 0. -1.
    9000007    1    1    2  501    0  0.27751295189E+03 -0.15307783889E+03  0.18436764825E+03  0.54262113205E+03  0.40000000000E+03 0. -1.
   -9000007    1    1    2    0  502 -0.27751295189E+03  0.15307783889E+03  0.48645470146E+03  0.70504215463E+03  0.40000000000E+03 0.  1.
<mgrwt>
<rscale>  2 0.51033936E+03</rscale>
<asrwt>0</asrwt>
<pdfrwt beam="1">  1       21 0.14757582E+00 0.51033936E+03</pdfrwt>
<pdfrwt beam="2">  1       21 0.44372380E-01 0.51033936E+03</pdfrwt>
<totfact> 0.12622432E+03</totfact>
</mgrwt>
</event>
<event>
 4    1  0.4832791E-002  0.4849617E+03  0.7818608E-02  0.1017780E+00
         21   -1    0    0  503  502  0.00000000000E+00  0.00000000000E+00  0.19282042473E+04  0.19282042473E+04  0.00000000000E+00 0. -1.
         21   -1    0    0  501  503 -0.00000000000E+00 -0.00000000000E+00 -0.12916512041E+03  0.12916512041E+03  0.00000000000E+00 0.  1.
    9000007    1    1    2  501    0 -0.14233112920E+03 -0.23437086566E+03  0.65677258274E+03  0.81641783325E+03  0.40000000000E+03 0.  1.
   -9000007    1    1    2    0  502  0.14233112920E+03  0.23437086566E+03  0.11422665441E+04  0.12409515344E+04  0.40000000000E+03 0. -1.
<mgrwt>
<rscale>  2 0.48496170E+03</rscale>
<asrwt>0</asrwt>
<pdfrwt beam="1">  1       21 0.29664679E+00 0.48496170E+03</pdfrwt>
<pdfrwt beam="2">  1       21 0.19871558E-01 0.48496170E+03</pdfrwt>
<totfact> 0.65655381E+02</totfact>
</mgrwt>
</event>
<event>
 4    1  0.4832791E-002  0.6688597E+03  0.7818608E-02  0.9772020E-01
         21   -1    0    0  501  502  0.00000000000E+00  0.00000000000E+00  0.11748755499E+04  0.11748755499E+04  0.00000000000E+00 0.  1.
         21   -1    0    0  502  503 -0.00000000000E+00 -0.00000000000E+00 -0.38218834372E+03  0.38218834372E+03  0.00000000000E+00 0.  1.
    9000007    1    1    2  501    0 -0.53195660700E+03  0.66298361780E+02  0.34914369742E+03  0.75450289990E+03  0.40000000000E+03 0.  1.
   -9000007    1    1    2    0  503  0.53195660700E+03 -0.66298361780E+02  0.44354350880E+03  0.80256099376E+03  0.40000000000E+03 0.  1.
<mgrwt>
<rscale>  2 0.66885970E+03</rscale>
<asrwt>0</asrwt>
<pdfrwt beam="1">  1       21 0.18075008E+00 0.66885970E+03</pdfrwt>
<pdfrwt beam="2">  1       21 0.58798207E-01 0.66885970E+03</pdfrwt>
<totfact> 0.36779006E+02</totfact>
</mgrwt>
</event>
<event>
 4    1  0.4832791E-002  0.5360544E+03  0.7818608E-02  0.1004774E+00
         21   -1    0    0  501  502  0.00000000000E+00  0.00000000000E+00  0.55086450098E+03  0.55086450098E+03  0.00000000000E+00 0.  1.
         21   -1    0    0  502  503 -0.00000000000E+00 -0.00000000000E+00 -0.95876045375E+03  0.95876045375E+03  0.00000000000E+00 0.  1.
    9000007    1    1    2  501    0  0.10385222554E+03  0.34142211117E+03  0.30571528645E+03  0.61710305389E+03  0.40000000000E+03 0.  1.
   -9000007    1    1    2    0  503 -0.10385222554E+03 -0.34142211117E+03 -0.71361123922E+03  0.89252190084E+03  0.40000000000E+03 0.  1.
<mgrwt>
<rscale>  2 0.53605442E+03</rscale>
<asrwt>0</asrwt>
<pdfrwt beam="1">  1       21 0.84748385E-01 0.53605442E+03</pdfrwt>
<pdfrwt beam="2">  1       21 0.14750161E+00 0.53605442E+03</pdfrwt>
<totfact> 0.29920168E+02</totfact>
</mgrwt>
</event>
<event>
 4    1  0.4832791E-002  0.4506979E+03  0.7818608E-02  0.1027514E+00
         21   -1    0    0  501  502  0.00000000000E+00  0.00000000000E+00  0.11065704632E+03  0.11065704632E+03  0.00000000000E+00 0.  1.
         21   -1    0    0  502  503 -0.00000000000E+00 -0.00000000000E+00 -0.26050355738E+04  0.26050355738E+04  0.00000000000E+00 0.  1.
    9000007    1    1    2  501    0  0.67041668234E+02 -0.19655545269E+03 -0.50926261471E+03  0.68005664617E+03  0.40000000000E+03 0.  1.
   -9000007    1    1    2    0  503 -0.67041668234E+02  0.19655545269E+03 -0.19851159127E+04  0.20356359739E+04  0.40000000000E+03 0.  1.
<mgrwt>
<rscale>  2 0.45069794E+03</rscale>
<asrwt>0</asrwt>
<pdfrwt beam="1">  1       21 0.17024160E-01 0.45069794E+03</pdfrwt>
<pdfrwt beam="2">  1       21 0.40077473E+00 0.45069794E+03</pdfrwt>
<totfact> 0.20451464E+02</totfact>
</mgrwt>
</event>
<event>
 4    1  0.4832791E-002  0.4710418E+03  0.7818608E-02  0.1021627E+00
         21   -1    0    0  501  502  0.00000000000E+00  0.00000000000E+00  0.95972651517E+03  0.95972651517E+03  0.00000000000E+00 0.  1.
         21   -1    0    0  502  503 -0.00000000000E+00 -0.00000000000E+00 -0.58011796332E+03  0.58011796332E+03  0.00000000000E+00 0.  1.
    9000007    1    1    2  501    0 -0.21574595464E+03  0.12383066027E+03  0.78691632190E+03  0.91712466276E+03  0.40000000000E+03 0.  1.
   -9000007    1    1    2    0  503  0.21574595464E+03 -0.12383066027E+03 -0.40730777005E+03  0.62271981574E+03  0.40000000000E+03 0.  1.
<mgrwt>
<rscale>  2 0.47104177E+03</rscale>
<asrwt>0</asrwt>
<pdfrwt beam="1">  1       21 0.14765023E+00 0.47104177E+03</pdfrwt>
<pdfrwt beam="2">  1       21 0.89248917E-01 0.47104177E+03</pdfrwt>
<totfact> 0.27170383E+02</totfact>
</mgrwt>
</event>
<event>
 4    1  0.4832791E-002  0.4356660E+03  0.7818608E-02  0.1032085E+00
         21   -1    0    0  503  502  0.00000000000E+00  0.00000000000E+00  0.72982690332E+03  0.72982690332E+03  0.00000000000E+00 0.  1.
         21   -1    0    0  501  503 -0.00000000000E+00 -0.00000000000E+00 -0.29884840594E+03  0.29884840594E+03  0.00000000000E+00 0.  1.
    9000007    1    1    2  501    0  0.77559235622E+02 -0.15423814902E+03  0.30209758543E+02  0.43671211473E+03  0.40000000000E+03 0.  1.
   -9000007    1    1    2    0  502 -0.77559235622E+02  0.15423814902E+03  0.40076873883E+03  0.59196319452E+03  0.40000000000E+03 0.  1.
<mgrwt>
<rscale>  2 0.43566597E+03</rscale>
<asrwt>0</asrwt>
<pdfrwt beam="1">  1       21 0.11228106E+00 0.43566597E+03</pdfrwt>
<pdfrwt beam="2">  1       21 0.45976678E-01 0.43566597E+03</pdfrwt>
<totfact> 0.24495405E+03</totfact>
</mgrwt>
</event>
<event>
 4    1  0.4832791E-002  0.4029951E+03  0.7818608E-02  0.1042747E+00
         21   -1    0    0  501  502  0.00000000000E+00  0.00000000000E+00  0.92423999733E+02  0.92423999733E+02  0.00000000000E+00 0. -1.
         21   -1    0    0  502  503 -0.00000000000E+00 -0.00000000000E+00 -0.19567564329E+04  0.19567564329E+04  0.00000000000E+00 0. -1.
    9000007    1    1    2  501    0 -0.12543231531E+02 -0.47410171965E+02 -0.12593885101E+04  0.13222951548E+04  0.40000000000E+03 0. -1.
   -9000007    1    1    2    0  503  0.12543231531E+02  0.47410171965E+02 -0.60494392309E+03  0.72688527784E+03  0.40000000000E+03 0. -1.
<mgrwt>
<rscale>  2 0.40299511E+03</rscale>
<asrwt>0</asrwt>
<pdfrwt beam="1">  1       21 0.14219078E-01 0.40299511E+03</pdfrwt>
<pdfrwt beam="2">  1       21 0.30103942E+00 0.40299511E+03</pdfrwt>
<totfact> 0.12100113E+03</totfact>
</mgrwt>
</event>
<event>
 4    1  0.4832791E-002  0.4082339E+03  0.7818608E-02  0.1040965E+00
         21   -1    0    0  501  502  0.00000000000E+00  0.00000000000E+00  0.42261514111E+03  0.42261514111E+03  0.00000000000E+00 0.  1.
         21   -1    0    0  502  503 -0.00000000000E+00 -0.00000000000E+00 -0.40982764732E+03  0.40982764732E+03  0.00000000000E+00 0.  1.
    9000007    1    1    2  501    0 -0.36213520925E+01 -0.81497345943E+02 -0.74513496867E+02  0.41497854499E+03  0.40000000000E+03 0. -1.
   -9000007    1    1    2    0  503  0.36213520925E+01  0.81497345943E+02  0.87300990657E+02  0.41746424345E+03  0.40000000000E+03 0. -1.
<mgrwt>
<rscale>  2 0.40823392E+03</rscale>
<asrwt>0</asrwt>
<pdfrwt beam="1">  1       21 0.65017714E-01 0.40823392E+03</pdfrwt>
<pdfrwt beam="2">  1       21 0.63050407E-01 0.40823392E+03</pdfrwt>
<totfact> 0.45187647E+03</totfact>
</mgrwt>
</event>
<event>
 4    1  0.4832791E-002  0.6865442E+03  0.7818608E-02  0.9740524E-01
         21   -1    0    0  501  502  0.00000000000E+00  0.00000000000E+00  0.43545283312E+03  0.43545283312E+03  0.00000000000E+00 0. -1.
         21   -1    0    0  502  503 -0.00000000000E+00 -0.00000000000E+00 -0.14845287676E+04  0.14845287676E+04  0.00000000000E+00 0.  1.
    9000007    1    1    2  501    0 -0.89220391542E+02  0.55080180035E+03 -0.24912604475E+02  0.68699602575E+03  0.40000000000E+03 0. -1.
   -9000007    1    1    2    0  503  0.89220391542E+02 -0.55080180035E+03 -0.10241633300E+04  0.12329855749E+04  0.40000000000E+03 0.  1.
<mgrwt>
<rscale>  2 0.68654417E+03</rscale>
<asrwt>0</asrwt>
<pdfrwt beam="1">  1       21 0.66992743E-01 0.68654417E+03</pdfrwt>
<pdfrwt beam="2">  1       21 0.22838904E+00 0.68654417E+03</pdfrwt>
<totfact> 0.13061090E+02</totfact>
</mgrwt>
</event>
<event>
 4    1  0.4832791E-002  0.4700402E+03  0.7818608E-02  0.1021909E+00
         21   -1    0    0  501  502  0.00000000000E+00  0.00000000000E+00  0.11391027770E+04  0.11391027770E+04  0.00000000000E+00 0. -1.
         21   -1    0    0  502  503 -0.00000000000E+00 -0.00000000000E+00 -0.22127231023E+03  0.22127231023E+03  0.00000000000E+00 0. -1.
    9000007    1    1    2  501    0  0.24636920095E+03 -0.15490684256E+02  0.69789587042E+03  0.84142521381E+03  0.40000000000E+03 0. -1.
   -9000007    1    1    2    0  503 -0.24636920095E+03  0.15490684256E+02  0.21993459638E+03  0.51894987346E+03  0.40000000000E+03 0. -1.
<mgrwt>
<rscale>  2 0.47004015E+03</rscale>
<asrwt>0</asrwt>
<pdfrwt beam="1">  1       21 0.17524658E+00 0.47004015E+03</pdfrwt>
<pdfrwt beam="2">  1       21 0.34041894E-01 0.47004015E+03</pdfrwt>
<totfact> 0.13668446E+03</totfact>
</mgrwt>
</event>
<event>
 4    1  0.4832791E-002  0.4756694E+03  0.7818608E-02  0.1020332E+00
         21   -1    0    0  503  502  0.00000000000E+00  0.00000000000E+00  0.43346066047E+03  0.43346066047E+03  0.00000000000E+00 0.  1.
         21   -1    0    0  501  503 -0.00000000000E+00 -0.00000000000E+00 -0.89413521309E+03  0.89413521309E+03  0.00000000000E+00 0.  1.
    9000007    1    1    2  501    0  0.23014757006E+03  0.11529721655E+03 -0.65858155019E+03  0.81239830772E+03  0.40000000000E+03 0.  1.
   -9000007    1    1    2    0  502 -0.23014757006E+03 -0.11529721655E+03  0.19790699757E+03  0.51519756583E+03  0.40000000000E+03 0.  1.
<mgrwt>
<rscale>  2 0.47566937E+03</rscale>
<asrwt>0</asrwt>
<pdfrwt beam="1">  1       21 0.66686256E-01 0.47566937E+03</pdfrwt>
<pdfrwt beam="2">  1       21 0.13755926E+00 0.47566937E+03</pdfrwt>
<totfact> 0.64040157E+02</totfact>
</mgrwt>
</event>
<event>
 4    1  0.4832791E-002  0.4388703E+03  0.7818608E-02  0.1031094E+00
         21   -1    0    0  503  502  0.00000000000E+00  0.00000000000E+00  0.55547646797E+03  0.55547646797E+03  0.00000000000E+00 0.  1.
         21   -1    0    0  501  503 -0.00000000000E+00 -0.00000000000E+00 -0.43663028016E+03  0.43663028016E+03  0.00000000000E+00 0.  1.
    9000007    1    1    2  501    0  0.11595264294E+03 -0.13842740824E+03 -0.16564938994E+03  0.46909155092E+03  0.40000000000E+03 0.  1.
   -9000007    1    1    2    0  502 -0.11595264294E+03  0.13842740824E+03  0.28449557776E+03  0.52301519722E+03  0.40000000000E+03 0.  1.
<mgrwt>
<rscale>  2 0.43887033E+03</rscale>
<asrwt>0</asrwt>
<pdfrwt beam="1">  1       21 0.85457919E-01 0.43887033E+03</pdfrwt>
<pdfrwt beam="2">  1       21 0.67173889E-01 0.43887033E+03</pdfrwt>
<totfact> 0.20830774E+03</totfact>
</mgrwt>
</event>
<event>
 4    1  0.4832791E-002  0.5998149E+03  0.7818608E-02  0.9905790E-01
         21   -1    0    0  503  502  0.00000000000E+00  0.00000000000E+00  0.45749906212E+03  0.45749906212E+03  0.00000000000E+00 0. -1.
         21   -1    0    0  501  503 -0.00000000000E+00 -0.00000000000E+00 -0.86041104610E+03  0.86041104610E+03  0.00000000000E+00 0. -1.
    9000007    1    1    2  501    0 -0.19100703789E+03  0.40409676380E+03 -0.39471827080E+03  0.71803927215E+03  0.40000000000E+03 0. -1.
   -9000007    1    1    2    0  502  0.19100703789E+03 -0.40409676380E+03 -0.81937131791E+01  0.59987083608E+03  0.40000000000E+03 0. -1.
<mgrwt>
<rscale>  2 0.59981487E+03</rscale>
<asrwt>0</asrwt>
<pdfrwt beam="1">  1       21 0.70384471E-01 0.59981487E+03</pdfrwt>
<pdfrwt beam="2">  1       21 0.13237093E+00 0.59981487E+03</pdfrwt>
<totfact> 0.59935459E+02</totfact>
</mgrwt>
</event>
<event>
 4    1  0.4832791E-002  0.8034096E+03  0.7818608E-02  0.9555095E-01
         21   -1    0    0  501  502  0.00000000000E+00  0.00000000000E+00  0.89205347693E+03  0.89205347693E+03  0.00000000000E+00 0. -1.
         21   -1    0    0  502  503 -0.00000000000E+00 -0.00000000000E+00 -0.76391625147E+03  0.76391625147E+03  0.00000000000E+00 0.  1.
    9000007    1    1    2  501    0 -0.56549314239E+03  0.40704367309E+03  0.25434176682E+03  0.84270800414E+03  0.40000000000E+03 0.  1.
   -9000007    1    1    2    0  503  0.56549314239E+03 -0.40704367309E+03 -0.12620454136E+03  0.81326172426E+03  0.40000000000E+03 0. -1.
<mgrwt>
<rscale>  2 0.80340964E+03</rscale>
<asrwt>0</asrwt>
<pdfrwt beam="1">  1       21 0.13723900E+00 0.80340964E+03</pdfrwt>
<pdfrwt beam="2">  1       21 0.11752558E+00 0.80340964E+03</pdfrwt>
<totfact> 0.14927832E+02</totfact>
</mgrwt>
</event>
<event>
 4    1  0.4832791E-002  0.4342837E+03  0.7818608E-02  0.1032515E+00
         21   -1    0    0  503  502  0.00000000000E+00  0.00000000000E+00  0.21944633022E+03  0.21944633022E+03  0.00000000000E+00 0.  1.
         21   -1    0    0  501  503 -0.00000000000E+00 -0.00000000000E+00 -0.16108364660E+04  0.16108364660E+04  0.00000000000E+00 0.  1.
    9000007    1    1    2  501    0 -0.15103582473E+03 -0.76095573438E+02 -0.13207169216E+04  0.13902861373E+04  0.40000000000E+03 0.  1.
   -9000007    1    1    2    0  502  0.15103582473E+03  0.76095573438E+02 -0.70673214193E+02  0.43999665891E+03  0.40000000000E+03 0.  1.
<mgrwt>
<rscale>  2 0.43428373E+03</rscale>
<asrwt>0</asrwt>
<pdfrwt beam="1">  1       21 0.33760975E-01 0.43428373E+03</pdfrwt>
<pdfrwt beam="2">  1       21 0.24782099E+00 0.43428373E+03</pdfrwt>
<totfact> 0.47299083E+02</totfact>
</mgrwt>
</event>
<event>
 4    1  0.4832791E-002  0.4139251E+03  0.7818608E-02  0.1039062E+00
         21   -1    0    0  501  502  0.00000000000E+00  0.00000000000E+00  0.90186488831E+03  0.90186488831E+03  0.00000000000E+00 0.  1.
         21   -1    0    0  502  503 -0.00000000000E+00 -0.00000000000E+00 -0.19159297604E+03  0.19159297604E+03  0.00000000000E+00 0. -1.
    9000007    1    1    2  501    0 -0.28037314574E+02  0.10270293302E+03  0.40534020545E+03  0.57933985330E+03  0.40000000000E+03 0.  1.
   -9000007    1    1    2    0  503  0.28037314574E+02 -0.10270293302E+03  0.30493170682E+03  0.51411801105E+03  0.40000000000E+03 0.  1.
<mgrwt>
<rscale>  2 0.41392509E+03</rscale>
<asrwt>0</asrwt>
<pdfrwt beam="1">  1       21 0.13874844E+00 0.41392509E+03</pdfrwt>
<pdfrwt beam="2">  1       21 0.29475843E-01 0.41392509E+03</pdfrwt>
<totfact> 0.35510717E+03</totfact>
</mgrwt>
</event>
<event>
 4    1  0.4832791E-002  0.4849320E+03  0.7818608E-02  0.1017788E+00
         21   -1    0    0  501  502  0.00000000000E+00  0.00000000000E+00  0.76654888104E+03  0.76654888104E+03  0.00000000000E+00 0.  1.
         21   -1    0    0  502  503 -0.00000000000E+00 -0.00000000000E+00 -0.30742917634E+03  0.30742917634E+03  0.00000000000E+00 0.  1.
    9000007    1    1    2  501    0 -0.25529889943E+03  0.99907621140E+02  0.20481443699E+03  0.52641049991E+03  0.40000000000E+03 0.  1.
   -9000007    1    1    2    0  503  0.25529889943E+03 -0.99907621140E+02  0.25430526770E+03  0.54756755747E+03  0.40000000000E+03 0.  1.
<mgrwt>
<rscale>  2 0.48493202E+03</rscale>
<asrwt>0</asrwt>
<pdfrwt beam="1">  1       21 0.11793060E+00 0.48493202E+03</pdfrwt>
<pdfrwt beam="2">  1       21 0.47296797E-01 0.48493202E+03</pdfrwt>
<totfact> 0.20041066E+03</totfact>
</mgrwt>
</event>
<event>
 4    1  0.4832791E-002  0.6011850E+03  0.7818608E-02  0.9902951E-01
         21   -1    0    0  501  502  0.00000000000E+00  0.00000000000E+00  0.46124079125E+03  0.46124079125E+03  0.00000000000E+00 0.  1.
         21   -1    0    0  502  503 -0.00000000000E+00 -0.00000000000E+00 -0.82821087535E+03  0.82821087535E+03  0.00000000000E+00 0. -1.
    9000007    1    1    2  501    0 -0.44815885013E+03  0.24021230565E+02 -0.33835019784E+02  0.60213634920E+03  0.40000000000E+03 0.  1.
   -9000007    1    1    2    0  503  0.44815885013E+03 -0.24021230565E+02 -0.33313506431E+03  0.68731531740E+03  0.40000000000E+03 0. -1.
<mgrwt>
<rscale>  2 0.60118498E+03</rscale>
<asrwt>0</asrwt>
<pdfrwt beam="1">  1       21 0.70960122E-01 0.60118498E+03</pdfrwt>
<pdfrwt beam="2">  1       21 0.12741706E+00 0.60118498E+03</pdfrwt>
<totfact> 0.64983527E+02</totfact>
</mgrwt>
</event>
<event>
 4    1  0.4832791E-002  0.7677849E+03  0.7818608E-02  0.9607855E-01
         21   -1    0    0  501  502  0.00000000000E+00  0.00000000000E+00  0.89665137370E+03  0.89665137370E+03  0.00000000000E+00 0. -1.
         21   -1    0    0  502  503 -0.00000000000E+00 -0.00000000000E+00 -0.66012798986E+03  0.66012798986E+03  0.00000000000E+00 0.  1.
    9000007    1    1    2  501    0  0.71046884025E+02 -0.65149520268E+03  0.68582937285E+02  0.77084192811E+03  0.40000000000E+03 0. -1.
   -9000007    1    1    2    0  503 -0.71046884025E+02  0.65149520268E+03  0.16794044655E+03  0.78593743545E+03  0.40000000000E+03 0.  1.
<mgrwt>
<rscale>  2 0.76778490E+03</rscale>
<asrwt>0</asrwt>
<pdfrwt beam="1">  1       21 0.13794636E+00 0.76778490E+03</pdfrwt>
<pdfrwt beam="2">  1       21 0.10155815E+00 0.76778490E+03</pdfrwt>
<totfact> 0.21468539E+02</totfact>
</mgrwt>
</event>
<event>
 4    1  0.4832791E-002  0.4845945E+03  0.7818608E-02  0.1017880E+00
         21   -1    0    0  503  502  0.00000000000E+00  0.00000000000E+00  0.16775664408E+03  0.16775664408E+03  0.00000000000E+00 0.  1.
         21   -1    0    0  501  503 -0.00000000000E+00 -0.00000000000E+00 -0.14000871540E+04  0.14000871540E+04  0.00000000000E+00 0. -1.
    9000007    1    1    2  501    0 -0.26108678966E+03  0.81642676206E+02 -0.60567190395E+03  0.77567408978E+03  0.40000000000E+03 0. -1.
   -9000007    1    1    2    0  502  0.26108678966E+03 -0.81642676206E+02 -0.62665860598E+03  0.79216970831E+03  0.40000000000E+03 0.  1.
<mgrwt>
<rscale>  2 0.48459451E+03</rscale>
<asrwt>0</asrwt>
<pdfrwt beam="1">  1       21 0.25808715E-01 0.48459451E+03</pdfrwt>
<pdfrwt beam="2">  1       21 0.21539802E+00 0.48459451E+03</pdfrwt>
<totfact> 0.12578081E+03</totfact>
</mgrwt>
</event>
<event>
 4    1  0.4832791E-002  0.4691224E+03  0.7818608E-02  0.1022168E+00
         21   -1    0    0  503  502  0.00000000000E+00  0.00000000000E+00  0.13832100586E+04  0.13832100586E+04  0.00000000000E+00 0.  1.
         21   -1    0    0  501  503 -0.00000000000E+00 -0.00000000000E+00 -0.26651447030E+03  0.26651447030E+03  0.00000000000E+00 0. -1.
    9000007    1    1    2  501    0 -0.50137755220E+02  0.23992084452E+03  0.34696623856E+02  0.47040372218E+03  0.40000000000E+03 0. -1.
   -9000007    1    1    2    0  502  0.50137755220E+02 -0.23992084452E+03  0.10819989645E+04  0.11793208068E+04  0.40000000000E+03 0.  1.
<mgrwt>
<rscale>  2 0.46912238E+03</rscale>
<asrwt>0</asrwt>
<pdfrwt beam="1">  1       21 0.21280154E+00 0.46912238E+03</pdfrwt>
<pdfrwt beam="2">  1       21 0.41002227E-01 0.46912238E+03</pdfrwt>
<totfact> 0.51941796E+02</totfact>
</mgrwt>
</event>
<event>
 4    1  0.4832791E-002  0.5213523E+03  0.7818608E-02  0.1008351E+00
         21   -1    0    0  501  502  0.00000000000E+00  0.00000000000E+00  0.93593688160E+03  0.93593688160E+03  0.00000000000E+00 0.  1.
         21   -1    0    0  502  503 -0.00000000000E+00 -0.00000000000E+00 -0.36762780009E+03  0.36762780009E+03  0.00000000000E+00 0. -1.
    9000007    1    1    2  501    0 -0.32916875361E+03 -0.58789074562E+02  0.58286383421E+03  0.78200925369E+03  0.40000000000E+03 0.  1.
   -9000007    1    1    2    0  503  0.32916875361E+03  0.58789074562E+02 -0.14554752697E+02  0.52155542799E+03  0.40000000000E+03 0. -1.
<mgrwt>
<rscale>  2 0.52135230E+03</rscale>
<asrwt>0</asrwt>
<pdfrwt beam="1">  1       21 0.14399029E+00 0.52135230E+03</pdfrwt>
<pdfrwt beam="2">  1       21 0.56558123E-01 0.52135230E+03</pdfrwt>
<totfact> 0.80044684E+02</totfact>
</mgrwt>
</event>
<event>
 4    1  0.4832791E-002  0.4075649E+03  0.7818608E-02  0.1041191E+00
         21   -1    0    0  501  502  0.00000000000E+00  0.00000000000E+00  0.19579179576E+04  0.19579179576E+04  0.00000000000E+00 0.  1.
         21   -1    0    0  502  503 -0.00000000000E+00 -0.00000000000E+00 -0.10284986258E+03  0.10284986258E+03  0.00000000000E+00 0.  1.
    9000007    1    1    2  501    0 -0.77106002263E+02 -0.12797609839E+02  0.13587118380E+04  0.14185228138E+04  0.40000000000E+03 0.  1.
   -9000007    1    1    2    0  503  0.77106002263E+02  0.12797609839E+02  0.49635625699E+03  0.64224500641E+03  0.40000000000E+03 0.  1.
<mgrwt>
<rscale>  2 0.40756486E+03</rscale>
<asrwt>0</asrwt>
<pdfrwt beam="1">  1       21 0.30121812E+00 0.40756486E+03</pdfrwt>
<pdfrwt beam="2">  1       21 0.15823057E-01 0.40756486E+03</pdfrwt>
<totfact> 0.98755891E+02</totfact>
</mgrwt>
</event>
<event>
 4    1  0.4832791E-002  0.6258807E+03  0.7818608E-02  0.9853120E-01
         21   -1    0    0  503  502  0.00000000000E+00  0.00000000000E+00  0.73439644086E+03  0.73439644086E+03  0.00000000000E+00 0.  1.
         21   -1    0    0  501  503 -0.00000000000E+00 -0.00000000000E+00 -0.63545443124E+03  0.63545443124E+03  0.00000000000E+00 0.  1.
    9000007    1    1    2  501    0  0.43468028780E+03 -0.20683264076E+03 -0.22501366085E+03  0.66509987330E+03  0.40000000000E+03 0.  1.
   -9000007    1    1    2    0  502 -0.43468028780E+03  0.20683264076E+03  0.32395567046E+03  0.70475099880E+03  0.40000000000E+03 0.  1.
<mgrwt>
<rscale>  2 0.62588073E+03</rscale>
<asrwt>0</asrwt>
<pdfrwt beam="1">  1       21 0.11298407E+00 0.62588073E+03</pdfrwt>
<pdfrwt beam="2">  1       21 0.97762220E-01 0.62588073E+03</pdfrwt>
<totfact> 0.41328604E+02</totfact>
</mgrwt>
</event>
<event>
 4    1  0.4832791E-002  0.6632353E+03  0.7818608E-02  0.9782256E-01
         21   -1    0    0  501  502  0.00000000000E+00  0.00000000000E+00  0.16158515700E+04  0.16158515700E+04  0.00000000000E+00 0.  1.
         21   -1    0    0  502  503 -0.00000000000E+00 -0.00000000000E+00 -0.30632133486E+03  0.30632133486E+03  0.00000000000E+00 0. -1.
    9000007    1    1    2  501    0 -0.34170550753E+03  0.40387925800E+03  0.33413496193E+03  0.74264882798E+03  0.40000000000E+03 0. -1.
   -9000007    1    1    2    0  503  0.34170550753E+03 -0.40387925800E+03  0.97539527320E+03  0.11795240769E+04  0.40000000000E+03 0.  1.
<mgrwt>
<rscale>  2 0.66323533E+03</rscale>
<asrwt>0</asrwt>
<pdfrwt beam="1">  1       21 0.24859254E+00 0.66323533E+03</pdfrwt>
<pdfrwt beam="2">  1       21 0.47126360E-01 0.66323533E+03</pdfrwt>
<totfact> 0.21178846E+02</totfact>
</mgrwt>
</event>
<event>
 4    1  0.4832791E-002  0.4468006E+03  0.7818608E-02  0.1028680E+00
         21   -1    0    0  503  502  0.00000000000E+00  0.00000000000E+00  0.45391356429E+03  0.45391356429E+03  0.00000000000E+00 0. -1.
         21   -1    0    0  501  503 -0.00000000000E+00 -0.00000000000E+00 -0.45545947985E+03  0.45545947985E+03  0.00000000000E+00 0. -1.
    9000007    1    1    2  501    0  0.17427055751E+03  0.96231815519E+02  0.83538766793E+02  0.45454319387E+03  0.40000000000E+03 0. -1.
   -9000007    1    1    2    0  502 -0.17427055751E+03 -0.96231815519E+02 -0.85084682350E+02  0.45482985028E+03  0.40000000000E+03 0. -1.
<mgrwt>
<rscale>  2 0.44680061E+03</rscale>
<asrwt>0</asrwt>
<pdfrwt beam="1">  1       21 0.69832856E-01 0.44680061E+03</pdfrwt>
<pdfrwt beam="2">  1       21 0.70070689E-01 0.44680061E+03</pdfrwt>
<totfact> 0.30025650E+03</totfact>
</mgrwt>
</event>
<event>
 4    1  0.4832791E-002  0.4389115E+03  0.7818608E-02  0.1031081E+00
         21   -1    0    0  503  502  0.00000000000E+00  0.00000000000E+00  0.83153447267E+03  0.83153447267E+03  0.00000000000E+00 0.  1.
         21   -1    0    0  501  503 -0.00000000000E+00 -0.00000000000E+00 -0.32545848747E+03  0.32545848747E+03  0.00000000000E+00 0.  1.
    9000007    1    1    2  501    0  0.82601857519E+02 -0.16068670804E+03 -0.57505883869E+02  0.44266263868E+03  0.40000000000E+03 0.  1.
   -9000007    1    1    2    0  502 -0.82601857519E+02  0.16068670804E+03  0.56358186908E+03  0.71433032146E+03  0.40000000000E+03 0.  1.
<mgrwt>
<rscale>  2 0.43891148E+03</rscale>
<asrwt>0</asrwt>
<pdfrwt beam="1">  1       21 0.12792838E+00 0.43891148E+03</pdfrwt>
<pdfrwt beam="2">  1       21 0.50070537E-01 0.43891148E+03</pdfrwt>
<totfact> 0.14674423E+03</totfact>
</mgrwt>
</event>
<event>
 4    1  0.4832791E-002  0.4066902E+03  0.7818608E-02  0.1041487E+00
         21   -1    0    0  503  502  0.00000000000E+00  0.00000000000E+00  0.12401588023E+03  0.12401588023E+03  0.00000000000E+00 0.  1.
         21   -1    0    0  501  503 -0.00000000000E+00 -0.00000000000E+00 -0.13467878584E+04  0.13467878584E+04  0.00000000000E+00 0.  1.
    9000007    1    1    2  501    0  0.32143901313E+02 -0.66057939940E+02 -0.68395036273E+03  0.79572921305E+03  0.40000000000E+03 0.  1.
   -9000007    1    1    2    0  502 -0.32143901313E+02  0.66057939940E+02 -0.53882161548E+03  0.67507452561E+03  0.40000000000E+03 0.  1.
<mgrwt>
<rscale>  2 0.40669015E+03</rscale>
<asrwt>0</asrwt>
<pdfrwt beam="1">  1       21 0.19079367E-01 0.40669015E+03</pdfrwt>
<pdfrwt beam="2">  1       21 0.20719812E+00 0.40669015E+03</pdfrwt>
<totfact> 0.26316507E+03</totfact>
</mgrwt>
</event>
<event>
 4    1  0.4832791E-002  0.4233606E+03  0.7818608E-02  0.1035978E+00
         21   -1    0    0  503  502  0.00000000000E+00  0.00000000000E+00  0.74021712179E+03  0.74021712179E+03  0.00000000000E+00 0. -1.
         21   -1    0    0  501  503 -0.00000000000E+00 -0.00000000000E+00 -0.26080195508E+03  0.26080195508E+03  0.00000000000E+00 0. -1.
    9000007    1    1    2  501    0  0.13159086197E+03 -0.43795472687E+02  0.37360326124E+03  0.56463580757E+03  0.40000000000E+03 0. -1.
   -9000007    1    1    2    0  502 -0.13159086197E+03  0.43795472687E+02  0.10581190547E+03  0.43638326930E+03  0.40000000000E+03 0. -1.
<mgrwt>
<rscale>  2 0.42336060E+03</rscale>
<asrwt>0</asrwt>
<pdfrwt beam="1">  1       21 0.11387956E+00 0.42336060E+03</pdfrwt>
<pdfrwt beam="2">  1       21 0.40123378E-01 0.42336060E+03</pdfrwt>
<totfact> 0.31535283E+03</totfact>
</mgrwt>
</event>
<event>
 4    1  0.4832791E-002  0.5197093E+03  0.7818608E-02  0.1008759E+00
         21   -1    0    0  501  502  0.00000000000E+00  0.00000000000E+00  0.19177419456E+03  0.19177419456E+03  0.00000000000E+00 0. -1.
         21   -1    0    0  502  503 -0.00000000000E+00 -0.00000000000E+00 -0.14107739587E+04  0.14107739587E+04  0.00000000000E+00 0.  1.
    9000007    1    1    2  501    0  0.64273566621E+02 -0.32552524677E+03 -0.57673924538E+03  0.77635425858E+03  0.40000000000E+03 0.  1.
   -9000007    1    1    2    0  503 -0.64273566621E+02  0.32552524677E+03 -0.64226051874E+03  0.82619389467E+03  0.40000000000E+03 0.  1.
<mgrwt>
<rscale>  2 0.51970932E+03</rscale>
<asrwt>0</asrwt>
<pdfrwt beam="1">  1       21 0.29503723E-01 0.51970932E+03</pdfrwt>
<pdfrwt beam="2">  1       21 0.21704214E+00 0.51970932E+03</pdfrwt>
<totfact> 0.92912358E+02</totfact>
</mgrwt>
</event>
<event>
 4    1  0.4832791E-002  0.4621346E+03  0.7818608E-02  0.1024164E+00
         21   -1    0    0  503  502  0.00000000000E+00  0.00000000000E+00  0.52037335721E+03  0.52037335721E+03  0.00000000000E+00 0. -1.
         21   -1    0    0  501  503 -0.00000000000E+00 -0.00000000000E+00 -0.46572608048E+03  0.46572608048E+03  0.00000000000E+00 0. -1.
    9000007    1    1    2  501    0 -0.20288929799E+03 -0.11137471458E+03  0.19724043573E+03  0.50246610211E+03  0.40000000000E+03 0. -1.
   -9000007    1    1    2    0  502  0.20288929799E+03  0.11137471458E+03 -0.14259315899E+03  0.48363333557E+03  0.40000000000E+03 0. -1.
<mgrwt>
<rscale>  2 0.46213461E+03</rscale>
<asrwt>0</asrwt>
<pdfrwt beam="1">  1       21 0.80057439E-01 0.46213461E+03</pdfrwt>
<pdfrwt beam="2">  1       21 0.71650166E-01 0.46213461E+03</pdfrwt>
<totfact> 0.20792303E+03</totfact>
</mgrwt>
</event>
<event>
 4    1  0.4832791E-002  0.4925795E+03  0.7818608E-02  0.1015734E+00
         21   -1    0    0  503  502  0.00000000000E+00  0.00000000000E+00  0.64262667465E+03  0.64262667465E+03  0.00000000000E+00 0.  1.
         21   -1    0    0  501  503 -0.00000000000E+00 -0.00000000000E+00 -0.43059799936E+03  0.43059799936E+03  0.00000000000E+00 0. -1.
    9000007    1    1    2  501    0  0.52875242593E+02 -0.28255756756E+03 -0.82302827556E+02  0.49940797520E+03  0.40000000000E+03 0. -1.
   -9000007    1    1    2    0  502 -0.52875242593E+02  0.28255756756E+03  0.29433150285E+03  0.57381669881E+03  0.40000000000E+03 0.  1.
<mgrwt>
<rscale>  2 0.49257951E+03</rscale>
<asrwt>0</asrwt>
<pdfrwt beam="1">  1       21 0.98865642E-01 0.49257951E+03</pdfrwt>
<pdfrwt beam="2">  1       21 0.66245846E-01 0.49257951E+03</pdfrwt>
<totfact> 0.14886512E+03</totfact>
</mgrwt>
</event>
<event>
 4    1  0.4832791E-002  0.5612052E+03  0.7818608E-02  0.9989331E-01
         21   -1    0    0  501  502  0.00000000000E+00  0.00000000000E+00  0.69650378975E+03  0.69650378975E+03  0.00000000000E+00 0.  1.
         21   -1    0    0  502  503 -0.00000000000E+00 -0.00000000000E+00 -0.85500597631E+03  0.85500597631E+03  0.00000000000E+00 0.  1.
    9000007    1    1    2  501    0  0.10949699015E+03 -0.37810272019E+03  0.45321737932E+03  0.72135792142E+03  0.40000000000E+03 0.  1.
   -9000007    1    1    2    0  503 -0.10949699015E+03  0.37810272019E+03 -0.61171956589E+03  0.83015184464E+03  0.40000000000E+03 0.  1.
<mgrwt>
<rscale>  2 0.56120518E+03</rscale>
<asrwt>0</asrwt>
<pdfrwt beam="1">  1       21 0.10715443E+00 0.56120518E+03</pdfrwt>
<pdfrwt beam="2">  1       21 0.13153938E+00 0.56120518E+03</pdfrwt>
<totfact> 0.22824108E+02</totfact>
</mgrwt>
</event>
<event>
 4    1  0.4832791E-002  0.4313000E+03  0.7818608E-02  0.1033450E+00
         21   -1    0    0  501  502  0.00000000000E+00  0.00000000000E+00  0.41376943763E+03  0.41376943763E+03  0.00000000000E+00 0. -1.
         21   -1    0    0  502  503 -0.00000000000E+00 -0.00000000000E+00 -0.46486768110E+03  0.46486768110E+03  0.00000000000E+00 0.  1.
    9000007    1    1    2  501    0  0.65854669228E+02 -0.14725107720E+03 -0.10523473998E+03  0.44395277642E+03  0.40000000000E+03 0. -1.
   -9000007    1    1    2    0  503 -0.65854669228E+02  0.14725107720E+03  0.54136496510E+02  0.43468434231E+03  0.40000000000E+03 0. -1.
<mgrwt>
<rscale>  2 0.43130003E+03</rscale>
<asrwt>0</asrwt>
<pdfrwt beam="1">  1       21 0.63656837E-01 0.43130003E+03</pdfrwt>
<pdfrwt beam="2">  1       21 0.71518105E-01 0.43130003E+03</pdfrwt>
<totfact> 0.35448366E+03</totfact>
</mgrwt>
</event>
<event>
 4    1  0.4832791E-002  0.4096575E+03  0.7818608E-02  0.1040486E+00
         21   -1    0    0  503  502  0.00000000000E+00  0.00000000000E+00  0.24173325241E+03  0.24173325241E+03  0.00000000000E+00 0. -1.
         21   -1    0    0  501  503 -0.00000000000E+00 -0.00000000000E+00 -0.90986471132E+03  0.90986471132E+03  0.00000000000E+00 0. -1.
    9000007    1    1    2  501    0 -0.65329573106E+01 -0.88185172760E+02 -0.61437558446E+03  0.73842850907E+03  0.40000000000E+03 0.  1.
   -9000007    1    1    2    0  502  0.65329573106E+01  0.88185172760E+02 -0.53755874448E+02  0.41316945466E+03  0.40000000000E+03 0.  1.
<mgrwt>
<rscale>  2 0.40965755E+03</rscale>
<asrwt>0</asrwt>
<pdfrwt beam="1">  1       21 0.37189732E-01 0.40965755E+03</pdfrwt>
<pdfrwt beam="2">  1       21 0.13997918E+00 0.40965755E+03</pdfrwt>
<totfact> 0.21795144E+03</totfact>
</mgrwt>
</event>
<event>
 4    1  0.4832791E-002  0.5155320E+03  0.7818608E-02  0.1009803E+00
         21   -1    0    0  501  502  0.00000000000E+00  0.00000000000E+00  0.15427091249E+04  0.15427091249E+04  0.00000000000E+00 0. -1.
         21   -1    0    0  502  503 -0.00000000000E+00 -0.00000000000E+00 -0.39096689266E+03  0.39096689266E+03  0.00000000000E+00 0. -1.
    9000007    1    1    2  501    0 -0.32100729093E+03  0.52225723216E+02  0.12989707464E+04  0.13975329001E+04  0.40000000000E+03 0. -1.
   -9000007    1    1    2    0  503  0.32100729093E+03 -0.52225723216E+02 -0.14722851413E+03  0.53614311743E+03  0.40000000000E+03 0. -1.
<mgrwt>
<rscale>  2 0.51553197E+03</rscale>
<asrwt>0</asrwt>
<pdfrwt beam="1">  1       21 0.23733986E+00 0.51553197E+03</pdfrwt>
<pdfrwt beam="2">  1       21 0.60148754E-01 0.51553197E+03</pdfrwt>
<totfact> 0.15657586E+02</totfact>
</mgrwt>
</event>
<event>
 4    1  0.4832791E-002  0.4559897E+03  0.7818608E-02  0.1025951E+00
         21   -1    0    0  503  502  0.00000000000E+00  0.00000000000E+00  0.19433512866E+03  0.19433512866E+03  0.00000000000E+00 0. -1.
         21   -1    0    0  501  503 -0.00000000000E+00 -0.00000000000E+00 -0.14393692022E+04  0.14393692022E+04  0.00000000000E+00 0. -1.
    9000007    1    1    2  501    0 -0.43152894263E+02 -0.21462628555E+03 -0.10363488929E+04  0.11322303840E+04  0.40000000000E+03 0. -1.
   -9000007    1    1    2    0  502  0.43152894263E+02  0.21462628555E+03 -0.20868518067E+03  0.50147394685E+03  0.40000000000E+03 0. -1.
<mgrwt>
<rscale>  2 0.45598971E+03</rscale>
<asrwt>0</asrwt>
<pdfrwt beam="1">  1       21 0.29897713E-01 0.45598971E+03</pdfrwt>
<pdfrwt beam="2">  1       21 0.22144141E+00 0.45598971E+03</pdfrwt>
<totfact> 0.87198922E+02</totfact>
</mgrwt>
</event>
<event>
 4    1  0.4832791E-002  0.5085655E+03  0.7818608E-02  0.1011567E+00
         21   -1    0    0  503  502  0.00000000000E+00  0.00000000000E+00  0.27624934294E+03  0.27624934294E+03  0.00000000000E+00 0.  1.
         21   -1    0    0  501  503 -0.00000000000E+00 -0.00000000000E+00 -0.99210808235E+03  0.99210808235E+03  0.00000000000E+00 0.  1.
    9000007    1    1    2  501    0  0.18703278345E+03 -0.25230463438E+03 -0.50840595905E+03  0.71910743968E+03  0.40000000000E+03 0.  1.
   -9000007    1    1    2    0  502 -0.18703278345E+03  0.25230463438E+03 -0.20745278036E+03  0.54924998561E+03  0.40000000000E+03 0.  1.
<mgrwt>
<rscale>  2 0.50856552E+03</rscale>
<asrwt>0</asrwt>
<pdfrwt beam="1">  1       21 0.42499898E-01 0.50856552E+03</pdfrwt>
<pdfrwt beam="2">  1       21 0.15263201E+00 0.50856552E+03</pdfrwt>
<totfact> 0.12608361E+03</totfact>
</mgrwt>
</event>
<event>
 4    1  0.4832791E-002  0.5311590E+03  0.7818608E-02  0.1005951E+00
         21   -1    0    0  503  502  0.00000000000E+00  0.00000000000E+00  0.33031809300E+03  0.33031809300E+03  0.00000000000E+00 0.  1.
         21   -1    0    0  501  503 -0.00000000000E+00 -0.00000000000E+00 -0.11669808156E+04  0.11669808156E+04  0.00000000000E+00 0. -1.
    9000007    1    1    2  501    0 -0.25587860943E+03  0.23802534896E+03 -0.80596824940E+03  0.96525372237E+03  0.40000000000E+03 0. -1.
   -9000007    1    1    2    0  502  0.25587860943E+03 -0.23802534896E+03 -0.30694473201E+02  0.53204518623E+03  0.40000000000E+03 0.  1.
<mgrwt>
<rscale>  2 0.53115904E+03</rscale>
<asrwt>0</asrwt>
<pdfrwt beam="1">  1       21 0.50818168E-01 0.53115904E+03</pdfrwt>
<pdfrwt beam="2">  1       21 0.17953551E+00 0.53115904E+03</pdfrwt>
<totfact> 0.54075355E+02</totfact>
</mgrwt>
</event>
<event>
 4    1  0.4832791E-002  0.4205084E+03  0.7818608E-02  0.1036901E+00
         21   -1    0    0  501  502  0.00000000000E+00  0.00000000000E+00  0.42932852285E+03  0.42932852285E+03  0.00000000000E+00 0.  1.
         21   -1    0    0  502  503 -0.00000000000E+00 -0.00000000000E+00 -0.42653345276E+03  0.42653345276E+03  0.00000000000E+00 0.  1.
    9000007    1    1    2  501    0  0.74494411498E+02 -0.10619754562E+03 -0.77947964663E+02  0.42767186164E+03  0.40000000000E+03 0.  1.
   -9000007    1    1    2    0  503 -0.74494411498E+02  0.10619754562E+03  0.80743034755E+02  0.42819011397E+03  0.40000000000E+03 0.  1.
<mgrwt>
<rscale>  2 0.42050843E+03</rscale>
<asrwt>0</asrwt>
<pdfrwt beam="1">  1       21 0.66050542E-01 0.42050843E+03</pdfrwt>
<pdfrwt beam="2">  1       21 0.65620531E-01 0.42050843E+03</pdfrwt>
<totfact> 0.39760945E+03</totfact>
</mgrwt>
</event>
<event>
 4    1  0.4832791E-002  0.4057846E+03  0.7818608E-02  0.1041795E+00
         21   -1    0    0  503  502  0.00000000000E+00  0.00000000000E+00  0.14425219936E+03  0.14425219936E+03  0.00000000000E+00 0. -1.
         21   -1    0    0  501  503 -0.00000000000E+00 -0.00000000000E+00 -0.15817002705E+04  0.15817002705E+04  0.00000000000E+00 0. -1.
    9000007    1    1    2  501    0 -0.62511897766E+02 -0.27448639936E+02 -0.11739963033E+04  0.12421467246E+04  0.40000000000E+03 0. -1.
   -9000007    1    1    2    0  502  0.62511897766E+02  0.27448639936E+02 -0.26345176781E+03  0.48380574528E+03  0.40000000000E+03 0. -1.
<mgrwt>
<rscale>  2 0.40578463E+03</rscale>
<asrwt>0</asrwt>
<pdfrwt beam="1">  1       21 0.22192648E-01 0.40578463E+03</pdfrwt>
<pdfrwt beam="2">  1       21 0.24333849E+00 0.40578463E+03</pdfrwt>
<totfact> 0.11666894E+03</totfact>
</mgrwt>
</event>
<event>
 4    1  0.4832791E-002  0.4453610E+03  0.7818608E-02  0.1029115E+00
         21   -1    0    0  501  502  0.00000000000E+00  0.00000000000E+00  0.37581685816E+03  0.37581685816E+03  0.00000000000E+00 0. -1.
         21   -1    0    0  502  503 -0.00000000000E+00 -0.00000000000E+00 -0.52947620695E+03  0.52947620695E+03  0.00000000000E+00 0. -1.
    9000007    1    1    2  501    0  0.19394213634E+03  0.27070802552E+02 -0.10249444379E+03  0.45700272604E+03  0.40000000000E+03 0. -1.
   -9000007    1    1    2    0  503 -0.19394213634E+03 -0.27070802552E+02 -0.51164905002E+02  0.44829033907E+03  0.40000000000E+03 0. -1.
<mgrwt>
<rscale>  2 0.44536096E+03</rscale>
<asrwt>0</asrwt>
<pdfrwt beam="1">  1       21 0.57817978E-01 0.44536096E+03</pdfrwt>
<pdfrwt beam="2">  1       21 0.81457878E-01 0.44536096E+03</pdfrwt>
<totfact> 0.32346222E+03</totfact>
</mgrwt>
</event>
<event>
 4    1  0.4832791E-002  0.4720367E+03  0.7818608E-02  0.1021347E+00
         21   -1    0    0  501  502  0.00000000000E+00  0.00000000000E+00  0.84428463604E+03  0.84428463604E+03  0.00000000000E+00 0. -1.
         21   -1    0    0  502  503 -0.00000000000E+00 -0.00000000000E+00 -0.26520465166E+03  0.26520465166E+03  0.00000000000E+00 0. -1.
    9000007    1    1    2  501    0 -0.10815513209E+03  0.22609984526E+03  0.25084277533E+03  0.53454725755E+03  0.40000000000E+03 0. -1.
   -9000007    1    1    2    0  503  0.10815513209E+03 -0.22609984526E+03  0.32823720906E+03  0.57494203015E+03  0.40000000000E+03 0. -1.
<mgrwt>
<rscale>  2 0.47203673E+03</rscale>
<asrwt>0</asrwt>
<pdfrwt beam="1">  1       21 0.12988994E+00 0.47203673E+03</pdfrwt>
<pdfrwt beam="2">  1       21 0.40800716E-01 0.47203673E+03</pdfrwt>
<totfact> 0.21394378E+03</totfact>
</mgrwt>
</event>
<event>
 4    1  0.4832791E-002  0.5092947E+03  0.7818608E-02  0.1011381E+00
         21   -1    0    0  501  502  0.00000000000E+00  0.00000000000E+00  0.41672926881E+03  0.41672926881E+03  0.00000000000E+00 0. -1.
         21   -1    0    0  502  503 -0.00000000000E+00 -0.00000000000E+00 -0.64916748191E+03  0.64916748191E+03  0.00000000000E+00 0.  1.
    9000007    1    1    2  501    0  0.27611292637E+03  0.15212748047E+03 -0.22439705205E+03  0.55653854798E+03  0.40000000000E+03 0.  1.
   -9000007    1    1    2    0  503 -0.27611292637E+03 -0.15212748047E+03 -0.80411610470E+01  0.50935820274E+03  0.40000000000E+03 0. -1.
<mgrwt>
<rscale>  2 0.50929473E+03</rscale>
<asrwt>0</asrwt>
<pdfrwt beam="1">  1       21 0.64112196E-01 0.50929473E+03</pdfrwt>
<pdfrwt beam="2">  1       21 0.99871920E-01 0.50929473E+03</pdfrwt>
<totfact> 0.15534437E+03</totfact>
</mgrwt>
</event>
<event>
 4    1  0.4832791E-002  0.4079025E+03  0.7818608E-02  0.1041077E+00
         21   -1    0    0  501  502  0.00000000000E+00  0.00000000000E+00  0.15579703905E+03  0.15579703905E+03  0.00000000000E+00 0. -1.
         21   -1    0    0  502  503 -0.00000000000E+00 -0.00000000000E+00 -0.11253388311E+04  0.11253388311E+04  0.00000000000E+00 0. -1.
    9000007    1    1    2  501    0 -0.47219175384E+02 -0.64457760587E+02 -0.34012277082E+03  0.53110069916E+03  0.40000000000E+03 0. -1.
   -9000007    1    1    2    0  503  0.47219175384E+02  0.64457760587E+02 -0.62941902122E+03  0.75003517098E+03  0.40000000000E+03 0. -1.
<mgrwt>
<rscale>  2 0.40790250E+03</rscale>
<asrwt>0</asrwt>
<pdfrwt beam="1">  1       21 0.23968774E-01 0.40790250E+03</pdfrwt>
<pdfrwt beam="2">  1       21 0.17312906E+00 0.40790250E+03</pdfrwt>
<totfact> 0.29052105E+03</totfact>
</mgrwt>
</event>
<event>
 4    1  0.4832791E-002  0.6131053E+03  0.7818608E-02  0.9878584E-01
         21   -1    0    0  501  502  0.00000000000E+00  0.00000000000E+00  0.18984332546E+03  0.18984332546E+03  0.00000000000E+00 0. -1.
         21   -1    0    0  502  503 -0.00000000000E+00 -0.00000000000E+00 -0.21688665700E+04  0.21688665700E+04  0.00000000000E+00 0.  1.
    9000007    1    1    2  501    0  0.42977368844E+03  0.17661461154E+03 -0.64153102665E+03  0.88738954380E+03  0.40000000000E+03 0. -1.
   -9000007    1    1    2    0  503 -0.42977368844E+03 -0.17661461154E+03 -0.13374922179E+04  0.14713203517E+04  0.40000000000E+03 0. -1.
<mgrwt>
<rscale>  2 0.61310533E+03</rscale>
<asrwt>0</asrwt>
<pdfrwt beam="1">  1       21 0.29206663E-01 0.61310533E+03</pdfrwt>
<pdfrwt beam="2">  1       21 0.33367181E+00 0.61310533E+03</pdfrwt>
<totfact> 0.17361304E+02</totfact>
</mgrwt>
</event>
<event>
 4    1  0.4832791E-002  0.5360450E+03  0.7818608E-02  0.1004777E+00
         21   -1    0    0  503  502  0.00000000000E+00  0.00000000000E+00  0.13073554517E+04  0.13073554517E+04  0.00000000000E+00 0. -1.
         21   -1    0    0  501  503 -0.00000000000E+00 -0.00000000000E+00 -0.22219346081E+03  0.22219346081E+03  0.00000000000E+00 0. -1.
    9000007    1    1    2  501    0  0.11482208805E+03  0.33787587023E+03  0.46304797119E+03  0.70834852948E+03  0.40000000000E+03 0. -1.
   -9000007    1    1    2    0  502 -0.11482208805E+03 -0.33787587023E+03  0.62211401971E+03  0.82120038304E+03  0.40000000000E+03 0. -1.
<mgrwt>
<rscale>  2 0.53604498E+03</rscale>
<asrwt>0</asrwt>
<pdfrwt beam="1">  1       21 0.20113160E+00 0.53604498E+03</pdfrwt>
<pdfrwt beam="2">  1       21 0.34183610E-01 0.53604498E+03</pdfrwt>
<totfact> 0.87425664E+02</totfact>
</mgrwt>
</event>
<event>
 4    1  0.4832791E-002  0.4620322E+03  0.7818608E-02  0.1024193E+00
         21   -1    0    0  501  502  0.00000000000E+00  0.00000000000E+00  0.10881183321E+04  0.10881183321E+04  0.00000000000E+00 0. -1.
         21   -1    0    0  502  503 -0.00000000000E+00 -0.00000000000E+00 -0.27739445673E+03  0.27739445673E+03  0.00000000000E+00 0. -1.
    9000007    1    1    2  501    0  0.15749361090E+03  0.16932075904E+03  0.77477911764E+03  0.90208449607E+03  0.40000000000E+03 0. -1.
   -9000007    1    1    2    0  503 -0.15749361090E+03 -0.16932075904E+03  0.35944757716E+02  0.46342829275E+03  0.40000000000E+03 0. -1.
<mgrwt>
<rscale>  2 0.46203220E+03</rscale>
<asrwt>0</asrwt>
<pdfrwt beam="1">  1       21 0.16740282E+00 0.46203220E+03</pdfrwt>
<pdfrwt beam="2">  1       21 0.42676071E-01 0.46203220E+03</pdfrwt>
<totfact> 0.98397939E+02</totfact>
</mgrwt>
</event>
<event>
 4    1  0.4832791E-002  0.9646892E+03  0.7818608E-02  0.9348144E-01
         21   -1    0    0  501  502  0.00000000000E+00  0.00000000000E+00  0.10595018860E+04  0.10595018860E+04  0.00000000000E+00 0.  1.
         21   -1    0    0  502  503 -0.00000000000E+00 -0.00000000000E+00 -0.10315925529E+04  0.10315925529E+04  0.00000000000E+00 0. -1.
    9000007    1    1    2  501    0  0.74913081934E+03  0.45763327758E+03  0.41691617767E+03  0.10509254495E+04  0.40000000000E+03 0. -1.
   -9000007    1    1    2    0  503 -0.74913081934E+03 -0.45763327758E+03 -0.38900684462E+03  0.10401689893E+04  0.40000000000E+03 0. -1.
<mgrwt>
<rscale>  2 0.96468917E+03</rscale>
<asrwt>0</asrwt>
<pdfrwt beam="1">  1       21 0.16300029E+00 0.96468917E+03</pdfrwt>
<pdfrwt beam="2">  1       21 0.15870655E+00 0.96468917E+03</pdfrwt>
<totfact> 0.39416115E+01</totfact>
</mgrwt>
</event>
<event>
 4    1  0.4832791E-002  0.4596738E+03  0.7818608E-02  0.1024876E+00
         21   -1    0    0  503  502  0.00000000000E+00  0.00000000000E+00  0.10500484736E+03  0.10500484736E+03  0.00000000000E+00 0.  1.
         21   -1    0    0  501  503 -0.00000000000E+00 -0.00000000000E+00 -0.20230626579E+04  0.20230626579E+04  0.00000000000E+00 0.  1.
    9000007    1    1    2  501    0  0.84899524503E+02 -0.20998121109E+03 -0.10366793666E+04  0.11340212288E+04  0.40000000000E+03 0.  1.
   -9000007    1    1    2    0  502 -0.84899524503E+02  0.20998121109E+03 -0.88137844395E+03  0.99404627646E+03  0.40000000000E+03 0.  1.
<mgrwt>
<rscale>  2 0.45967384E+03</rscale>
<asrwt>0</asrwt>
<pdfrwt beam="1">  1       21 0.16154592E-01 0.45967384E+03</pdfrwt>
<pdfrwt beam="2">  1       21 0.31124040E+00 0.45967384E+03</pdfrwt>
<totfact> 0.80305477E+02</totfact>
</mgrwt>
</event>
<event>
 4    1  0.4832791E-002  0.4833477E+03  0.7818608E-02  0.1018219E+00
         21   -1    0    0  501  502  0.00000000000E+00  0.00000000000E+00  0.54582091539E+03  0.54582091539E+03  0.00000000000E+00 0.  1.
         21   -1    0    0  502  503 -0.00000000000E+00 -0.00000000000E+00 -0.54137076487E+03  0.54137076487E+03  0.00000000000E+00 0.  1.
    9000007    1    1    2  501    0  0.15456059788E+03 -0.22301564619E+03  0.25095699151E+03  0.54461396278E+03  0.40000000000E+03 0.  1.
   -9000007    1    1    2    0  503 -0.15456059788E+03  0.22301564619E+03 -0.24650684098E+03  0.54257771749E+03  0.40000000000E+03 0.  1.
<mgrwt>
<rscale>  2 0.48334766E+03</rscale>
<asrwt>0</asrwt>
<pdfrwt beam="1">  1       21 0.83972448E-01 0.48334766E+03</pdfrwt>
<pdfrwt beam="2">  1       21 0.83287810E-01 0.48334766E+03</pdfrwt>
<totfact> 0.13066079E+03</totfact>
</mgrwt>
</event>
<event>
 4    1  0.4832791E-002  0.4225853E+03  0.7818608E-02  0.1036228E+00
         21   -1    0    0  501  502  0.00000000000E+00  0.00000000000E+00  0.25559022971E+04  0.25559022971E+04  0.00000000000E+00 0. -1.
         21   -1    0    0  502  503 -0.00000000000E+00 -0.00000000000E+00 -0.72893561817E+02  0.72893561817E+02  0.00000000000E+00 0. -1.
    9000007    1    1    2  501    0  0.23467162895E+02  0.13426693669E+03  0.15092448630E+04  0.15672901374E+04  0.40000000000E+03 0. -1.
   -9000007    1    1    2    0  503 -0.23467162895E+02 -0.13426693669E+03  0.97376387219E+03  0.10615057215E+04  0.40000000000E+03 0. -1.
<mgrwt>
<rscale>  2 0.42258528E+03</rscale>
<asrwt>0</asrwt>
<pdfrwt beam="1">  1       21 0.39321567E+00 0.42258528E+03</pdfrwt>
<pdfrwt beam="2">  1       21 0.11214396E-01 0.42258528E+03</pdfrwt>
<totfact> 0.50244492E+02</totfact>
</mgrwt>
</event>
<event>
 4    1  0.4832791E-002  0.5150910E+03  0.7818608E-02  0.1009913E+00
         21   -1    0    0  501  502  0.00000000000E+00  0.00000000000E+00  0.61577547168E+03  0.61577547168E+03  0.00000000000E+00 0.  1.
         21   -1    0    0  502  503 -0.00000000000E+00 -0.00000000000E+00 -0.10125234990E+04  0.10125234990E+04  0.00000000000E+00 0.  1.
    9000007    1    1    2  501    0  0.15391466185E+03  0.28570790427E+03  0.41869542954E+03  0.66379559535E+03  0.40000000000E+03 0.  1.
   -9000007    1    1    2    0  503 -0.15391466185E+03 -0.28570790427E+03 -0.81544345690E+03  0.96450337537E+03  0.40000000000E+03 0.  1.
<mgrwt>
<rscale>  2 0.51509099E+03</rscale>
<asrwt>0</asrwt>
<pdfrwt beam="1">  1       21 0.94734689E-01 0.51509099E+03</pdfrwt>
<pdfrwt beam="2">  1       21 0.15577284E+00 0.51509099E+03</pdfrwt>
<totfact> 0.19950955E+02</totfact>
</mgrwt>
</event>
<event>
 4    1  0.4832791E-002  0.4165386E+03  0.7818608E-02  0.1038199E+00
         21   -1    0    0  501  502  0.00000000000E+00  0.00000000000E+00  0.48865305252E+03  0.48865305252E+03  0.00000000000E+00 0.  1.
         21   -1    0    0  502  503 -0.00000000000E+00 -0.00000000000E+00 -0.54596643307E+03  0.54596643307E+03  0.00000000000E+00 0. -1.
    9000007    1    1    2  501    0  0.64163914005E+02  0.96888553207E+02  0.27723692371E+03  0.50036457855E+03  0.40000000000E+03 0.  1.
   -9000007    1    1    2    0  503 -0.64163914005E+02 -0.96888553207E+02 -0.33455030426E+03  0.53425490703E+03  0.40000000000E+03 0.  1.
<mgrwt>
<rscale>  2 0.41653859E+03</rscale>
<asrwt>0</asrwt>
<pdfrwt beam="1">  1       21 0.75177392E-01 0.41653859E+03</pdfrwt>
<pdfrwt beam="2">  1       21 0.83994836E-01 0.41653859E+03</pdfrwt>
<totfact> 0.16974559E+03</totfact>
</mgrwt>
</event>
<event>
 4    1  0.4832791E-002  0.5275549E+03  0.7818608E-02  0.1006827E+00
         21   -1    0    0  503  502  0.00000000000E+00  0.00000000000E+00  0.63956117735E+03  0.63956117735E+03  0.00000000000E+00 0. -1.
         21   -1    0    0  501  503 -0.00000000000E+00 -0.00000000000E+00 -0.46976961949E+03  0.46976961949E+03  0.00000000000E+00 0. -1.
    9000007    1    1    2  501    0  0.27394722501E+03 -0.20800745110E+03 -0.65647074239E+02  0.53162366404E+03  0.40000000000E+03 0. -1.
   -9000007    1    1    2    0  502 -0.27394722501E+03  0.20800745110E+03  0.23543863210E+03  0.57770713280E+03  0.40000000000E+03 0. -1.
<mgrwt>
<rscale>  2 0.52755491E+03</rscale>
<asrwt>0</asrwt>
<pdfrwt beam="1">  1       21 0.98394028E-01 0.52755491E+03</pdfrwt>
<pdfrwt beam="2">  1       21 0.72272249E-01 0.52755491E+03</pdfrwt>
<totfact> 0.12228829E+03</totfact>
</mgrwt>
</event>
<event>
 4    1  0.4832791E-002  0.5384074E+03  0.7818608E-02  0.1004213E+00
         21   -1    0    0  501  502  0.00000000000E+00  0.00000000000E+00  0.33298591268E+03  0.33298591268E+03  0.00000000000E+00 0. -1.
         21   -1    0    0  502  503 -0.00000000000E+00 -0.00000000000E+00 -0.87694235803E+03  0.87694235803E+03  0.00000000000E+00 0.  1.
    9000007    1    1    2  501    0  0.15587546178E+01 -0.36038882147E+03 -0.22034768356E+03  0.58175221015E+03  0.40000000000E+03 0. -1.
   -9000007    1    1    2    0  503 -0.15587546178E+01  0.36038882147E+03 -0.32360876179E+03  0.62817606056E+03  0.40000000000E+03 0.  1.
<mgrwt>
<rscale>  2 0.53840740E+03</rscale>
<asrwt>0</asrwt>
<pdfrwt beam="1">  1       21 0.51228602E-01 0.53840740E+03</pdfrwt>
<pdfrwt beam="2">  1       21 0.13491421E+00 0.53840740E+03</pdfrwt>
<totfact> 0.11721300E+03</totfact>
</mgrwt>
</event>
<event>
 4    1  0.4832791E-002  0.4017994E+03  0.7818608E-02  0.1043158E+00
         21   -1    0    0  503  502  0.00000000000E+00  0.00000000000E+00  0.61319386435E+03  0.61319386435E+03  0.00000000000E+00 0. -1.
         21   -1    0    0  501  503 -0.00000000000E+00 -0.00000000000E+00 -0.27283484421E+03  0.27283484421E+03  0.00000000000E+00 0. -1.
    9000007    1    1    2  501    0 -0.22765816368E+02  0.30404975464E+02  0.87282238514E+02  0.41117020088E+03  0.40000000000E+03 0. -1.
   -9000007    1    1    2    0  502  0.22765816368E+02 -0.30404975464E+02  0.25307678162E+03  0.47485850769E+03  0.40000000000E+03 0. -1.
<mgrwt>
<rscale>  2 0.40179938E+03</rscale>
<asrwt>0</asrwt>
<pdfrwt beam="1">  1       21 0.94337517E-01 0.40179938E+03</pdfrwt>
<pdfrwt beam="2">  1       21 0.41974591E-01 0.40179938E+03</pdfrwt>
<totfact> 0.45892312E+03</totfact>
</mgrwt>
</event>
<event>
 4    1  0.4832791E-002  0.4041433E+03  0.7818608E-02  0.1042354E+00
         21   -1    0    0  501  502  0.00000000000E+00  0.00000000000E+00  0.13594901923E+04  0.13594901923E+04  0.00000000000E+00 0. -1.
         21   -1    0    0  502  503 -0.00000000000E+00 -0.00000000000E+00 -0.21646859245E+03  0.21646859245E+03  0.00000000000E+00 0. -1.
    9000007    1    1    2  501    0  0.40869129472E+02  0.40761401870E+02  0.10971535347E+04  0.11692209613E+04  0.40000000000E+03 0. -1.
   -9000007    1    1    2    0  503 -0.40869129472E+02 -0.40761401870E+02  0.45868065135E+02  0.40673782345E+03  0.40000000000E+03 0. -1.
<mgrwt>
<rscale>  2 0.40414326E+03</rscale>
<asrwt>0</asrwt>
<pdfrwt beam="1">  1       21 0.20915233E+00 0.40414326E+03</pdfrwt>
<pdfrwt beam="2">  1       21 0.33302861E-01 0.40414326E+03</pdfrwt>
<totfact> 0.86574353E+02</totfact>
</mgrwt>
</event>
<event>
 4    1  0.4832791E-002  0.4730635E+03  0.7818608E-02  0.1021059E+00
         21   -1    0    0  501  502  0.00000000000E+00  0.00000000000E+00  0.15209024181E+03  0.15209024181E+03  0.00000000000E+00 0. -1.
         21   -1    0    0  502  503 -0.00000000000E+00 -0.00000000000E+00 -0.14870661925E+04  0.14870661925E+04  0.00000000000E+00 0. -1.
    9000007    1    1    2  501    0 -0.23898743692E+03  0.81694754542E+02 -0.58342733510E+03  0.75111682398E+03  0.40000000000E+03 0. -1.
   -9000007    1    1    2    0  503  0.23898743692E+03 -0.81694754542E+02 -0.75154861555E+03  0.88803961030E+03  0.40000000000E+03 0. -1.
<mgrwt>
<rscale>  2 0.47306345E+03</rscale>
<asrwt>0</asrwt>
<pdfrwt beam="1">  1       21 0.23398499E-01 0.47306345E+03</pdfrwt>
<pdfrwt beam="2">  1       21 0.22877941E+00 0.47306345E+03</pdfrwt>
<totfact> 0.12564155E+03</totfact>
</mgrwt>
</event>
<event>
 4    1  0.4832791E-002  0.6160515E+03  0.7818608E-02  0.9872653E-01
         21   -1    0    0  501  502  0.00000000000E+00  0.00000000000E+00  0.77193328991E+03  0.77193328991E+03  0.00000000000E+00 0.  1.
         21   -1    0    0  502  503 -0.00000000000E+00 -0.00000000000E+00 -0.86275477357E+03  0.86275477357E+03  0.00000000000E+00 0. -1.
    9000007    1    1    2  501    0 -0.42129980070E+03 -0.20500227697E+03 -0.58146734846E+03  0.84712675141E+03  0.40000000000E+03 0. -1.
   -9000007    1    1    2    0  503  0.42129980070E+03  0.20500227697E+03  0.49064586480E+03  0.78756131207E+03  0.40000000000E+03 0.  1.
<mgrwt>
<rscale>  2 0.61605150E+03</rscale>
<asrwt>0</asrwt>
<pdfrwt beam="1">  1       21 0.11875897E+00 0.61605150E+03</pdfrwt>
<pdfrwt beam="2">  1       21 0.13273150E+00 0.61605150E+03</pdfrwt>
<totfact> 0.16860043E+02</totfact>
</mgrwt>
</event>
<event>
 4    1  0.4832791E-002  0.4206482E+03  0.7818608E-02  0.1036856E+00
         21   -1    0    0  503  502  0.00000000000E+00  0.00000000000E+00  0.11019500136E+04  0.11019500136E+04  0.00000000000E+00 0. -1.
         21   -1    0    0  501  503 -0.00000000000E+00 -0.00000000000E+00 -0.19807890474E+03  0.19807890474E+03  0.00000000000E+00 0. -1.
    9000007    1    1    2  501    0  0.24498984849E+02  0.12784657646E+03  0.16909238178E+03  0.45336208592E+03  0.40000000000E+03 0. -1.
   -9000007    1    1    2    0  502 -0.24498984849E+02 -0.12784657646E+03  0.73477872710E+03  0.84666683245E+03  0.40000000000E+03 0. -1.
<mgrwt>
<rscale>  2 0.42064825E+03</rscale>
<asrwt>0</asrwt>
<pdfrwt beam="1">  1       21 0.16953077E+00 0.42064825E+03</pdfrwt>
<pdfrwt beam="2">  1       21 0.30473678E-01 0.42064825E+03</pdfrwt>
<totfact> 0.19158744E+03</totfact>
</mgrwt>
</event>
<event>
 4    1  0.4832791E-002  0.4596753E+03  0.7818608E-02  0.1024875E+00
         21   -1    0    0  503  502  0.00000000000E+00  0.00000000000E+00  0.78589790304E+03  0.78589790304E+03  0.00000000000E+00 0.  1.
         21   -1    0    0  501  503 -0.00000000000E+00 -0.00000000000E+00 -0.43160719113E+03  0.43160719113E+03  0.00000000000E+00 0.  1.
    9000007    1    1    2  501    0  0.21684864400E+03 -0.65406818467E+02 -0.19665949041E+03  0.49997634092E+03  0.40000000000E+03 0.  1.
   -9000007    1    1    2    0  502 -0.21684864400E+03  0.65406818467E+02  0.55095020232E+03  0.71752875325E+03  0.40000000000E+03 0.  1.
<mgrwt>
<rscale>  2 0.45967531E+03</rscale>
<asrwt>0</asrwt>
<pdfrwt beam="1">  1       21 0.12090737E+00 0.45967531E+03</pdfrwt>
<pdfrwt beam="2">  1       21 0.66401106E-01 0.45967531E+03</pdfrwt>
<totfact> 0.90968601E+02</totfact>
</mgrwt>
</event>
<event>
 4    1  0.4832791E-002  0.4640311E+03  0.7818608E-02  0.1023619E+00
         21   -1    0    0  503  502  0.00000000000E+00  0.00000000000E+00  0.46421499351E+03  0.46421499351E+03  0.00000000000E+00 0.  1.
         21   -1    0    0  501  503 -0.00000000000E+00 -0.00000000000E+00 -0.46468676497E+03  0.46468676497E+03  0.00000000000E+00 0. -1.
    9000007    1    1    2  501    0  0.23053803295E+03 -0.46659213398E+02  0.19504855219E+02  0.46444085329E+03  0.40000000000E+03 0. -1.
   -9000007    1    1    2    0  502 -0.23053803295E+03  0.46659213398E+02 -0.19976626677E+02  0.46446090518E+03  0.40000000000E+03 0.  1.
<mgrwt>
<rscale>  2 0.46403111E+03</rscale>
<asrwt>0</asrwt>
<pdfrwt beam="1">  1       21 0.71417692E-01 0.46403111E+03</pdfrwt>
<pdfrwt beam="2">  1       21 0.71490271E-01 0.46403111E+03</pdfrwt>
<totfact> 0.27114772E+03</totfact>
</mgrwt>
</event>
<event>
 4    1  0.4832791E-002  0.5057617E+03  0.7818608E-02  0.1012286E+00
         21   -1    0    0  503  502  0.00000000000E+00  0.00000000000E+00  0.16787861808E+04  0.16787861808E+04  0.00000000000E+00 0. -1.
         21   -1    0    0  501  503 -0.00000000000E+00 -0.00000000000E+00 -0.26152730183E+03  0.26152730183E+03  0.00000000000E+00 0. -1.
    9000007    1    1    2  501    0  0.21932700734E+03  0.21838162771E+03  0.81854110955E+02  0.51234262652E+03  0.40000000000E+03 0. -1.
   -9000007    1    1    2    0  502 -0.21932700734E+03 -0.21838162771E+03  0.13354047680E+04  0.14279708561E+04  0.40000000000E+03 0. -1.
<mgrwt>
<rscale>  2 0.50576167E+03</rscale>
<asrwt>0</asrwt>
<pdfrwt beam="1">  1       21 0.25827479E+00 0.50576167E+03</pdfrwt>
<pdfrwt beam="2">  1       21 0.40234971E-01 0.50576167E+03</pdfrwt>
<totfact> 0.27480156E+02</totfact>
</mgrwt>
</event>
<event>
 4    1  0.4832791E-002  0.5454479E+03  0.7818608E-02  0.1002553E+00
         21   -1    0    0  503  502  0.00000000000E+00  0.00000000000E+00  0.56088102904E+03  0.56088102904E+03  0.00000000000E+00 0.  1.
         21   -1    0    0  501  503 -0.00000000000E+00 -0.00000000000E+00 -0.68238696540E+03  0.68238696540E+03  0.00000000000E+00 0. -1.
    9000007    1    1    2  501    0  0.29350294824E+03 -0.22664835621E+03 -0.35408947308E+03  0.65030209360E+03  0.40000000000E+03 0. -1.
   -9000007    1    1    2    0  502 -0.29350294824E+03  0.22664835621E+03  0.23258353673E+03  0.59296590084E+03  0.40000000000E+03 0. -1.
<mgrwt>
<rscale>  2 0.54544794E+03</rscale>
<asrwt>0</asrwt>
<pdfrwt beam="1">  1       21 0.86289389E-01 0.54544794E+03</pdfrwt>
<pdfrwt beam="2">  1       21 0.10498261E+00 0.54544794E+03</pdfrwt>
<totfact> 0.68778676E+02</totfact>
</mgrwt>
</event>
<event>
 4    1  0.4832791E-002  0.4174705E+03  0.7818608E-02  0.1037893E+00
         21   -1    0    0  503  502  0.00000000000E+00  0.00000000000E+00  0.58414898943E+03  0.58414898943E+03  0.00000000000E+00 0. -1.
         21   -1    0    0  501  503 -0.00000000000E+00 -0.00000000000E+00 -0.46146430109E+03  0.46146430109E+03  0.00000000000E+00 0. -1.
    9000007    1    1    2  501    0  0.11466112171E+03  0.33681793674E+02 -0.24948289393E+03  0.48633666366E+03  0.40000000000E+03 0. -1.
   -9000007    1    1    2    0  502 -0.11466112171E+03 -0.33681793674E+02  0.37216758227E+03  0.55927662686E+03  0.40000000000E+03 0. -1.
<mgrwt>
<rscale>  2 0.41747052E+03</rscale>
<asrwt>0</asrwt>
<pdfrwt beam="1">  1       21 0.89869076E-01 0.41747052E+03</pdfrwt>
<pdfrwt beam="2">  1       21 0.70994507E-01 0.41747052E+03</pdfrwt>
<totfact> 0.16484772E+03</totfact>
</mgrwt>
</event>
<event>
 4    1  0.4832791E-002  0.4508125E+03  0.7818608E-02  0.1027480E+00
         21   -1    0    0  501  502  0.00000000000E+00  0.00000000000E+00  0.63660444091E+03  0.63660444091E+03  0.00000000000E+00 0.  1.
         21   -1    0    0  502  503 -0.00000000000E+00 -0.00000000000E+00 -0.53329126721E+03  0.53329126721E+03  0.00000000000E+00 0. -1.
    9000007    1    1    2  501    0  0.17960513030E+03 -0.10475645720E+03  0.42224354063E+03  0.61767428776E+03  0.40000000000E+03 0.  1.
   -9000007    1    1    2    0  503 -0.17960513030E+03  0.10475645720E+03 -0.31893036693E+03  0.55222142036E+03  0.40000000000E+03 0. -1.
<mgrwt>
<rscale>  2 0.45081251E+03</rscale>
<asrwt>0</asrwt>
<pdfrwt beam="1">  1       21 0.97939145E-01 0.45081251E+03</pdfrwt>
<pdfrwt beam="2">  1       21 0.82044810E-01 0.45081251E+03</pdfrwt>
<totfact> 0.95103542E+02</totfact>
</mgrwt>
</event>
<event>
 4    1  0.4832791E-002  0.4290482E+03  0.7818608E-02  0.1034161E+00
         21   -1    0    0  503  502  0.00000000000E+00  0.00000000000E+00  0.14108957274E+04  0.14108957274E+04  0.00000000000E+00 0. -1.
         21   -1    0    0  501  503 -0.00000000000E+00 -0.00000000000E+00 -0.25074645659E+03  0.25074645659E+03  0.00000000000E+00 0. -1.
    9000007    1    1    2  501    0  0.12692971667E+03  0.89281483376E+02  0.46653335896E+01  0.42907353867E+03  0.40000000000E+03 0. -1.
   -9000007    1    1    2    0  502 -0.12692971667E+03 -0.89281483376E+02  0.11554839372E+04  0.12325686453E+04  0.40000000000E+03 0. -1.
<mgrwt>
<rscale>  2 0.42904817E+03</rscale>
<asrwt>0</asrwt>
<pdfrwt beam="1">  1       21 0.21706088E+00 0.42904817E+03</pdfrwt>
<pdfrwt beam="2">  1       21 0.38576379E-01 0.42904817E+03</pdfrwt>
<totfact> 0.56394504E+02</totfact>
</mgrwt>
</event>
<event>
 4    1  0.4832791E-002  0.4025747E+03  0.7818608E-02  0.1042892E+00
         21   -1    0    0  501  502  0.00000000000E+00  0.00000000000E+00  0.91703552618E+03  0.91703552618E+03  0.00000000000E+00 0. -1.
         21   -1    0    0  502  503 -0.00000000000E+00 -0.00000000000E+00 -0.17748748379E+03  0.17748748379E+03  0.00000000000E+00 0. -1.
    9000007    1    1    2  501    0  0.27988550540E+02  0.35819887747E+02  0.33398969369E+03  0.52308272654E+03  0.40000000000E+03 0. -1.
   -9000007    1    1    2    0  503 -0.27988550540E+02 -0.35819887747E+02  0.40555834870E+03  0.57144028343E+03  0.40000000000E+03 0. -1.
<mgrwt>
<rscale>  2 0.40257474E+03</rscale>
<asrwt>0</asrwt>
<pdfrwt beam="1">  1       21 0.14108239E+00 0.40257474E+03</pdfrwt>
<pdfrwt beam="2">  1       21 0.27305767E-01 0.40257474E+03</pdfrwt>
<totfact> 0.39679345E+03</totfact>
</mgrwt>
</event>
<event>
 4    1  0.4832791E-002  0.4634530E+03  0.7818608E-02  0.1023784E+00
         21   -1    0    0  501  502  0.00000000000E+00  0.00000000000E+00  0.16697295435E+03  0.16697295435E+03  0.00000000000E+00 0.  1.
         21   -1    0    0  502  503 -0.00000000000E+00 -0.00000000000E+00 -0.18959247570E+04  0.18959247570E+04  0.00000000000E+00 0.  1.
    9000007    1    1    2  501    0 -0.23020973564E+03  0.42333809957E+02 -0.27962628905E+03  0.54127584038E+03  0.40000000000E+03 0.  1.
   -9000007    1    1    2    0  503  0.23020973564E+03 -0.42333809957E+02 -0.14493255136E+04  0.15216218710E+04  0.40000000000E+03 0.  1.
<mgrwt>
<rscale>  2 0.46345299E+03</rscale>
<asrwt>0</asrwt>
<pdfrwt beam="1">  1       21 0.25688146E-01 0.46345299E+03</pdfrwt>
<pdfrwt beam="2">  1       21 0.29168074E+00 0.46345299E+03</pdfrwt>
<totfact> 0.43373150E+02</totfact>
</mgrwt>
</event>
<event>
 4    1  0.4832791E-002  0.4286232E+03  0.7818608E-02  0.1034296E+00
         21   -1    0    0  503  502  0.00000000000E+00  0.00000000000E+00  0.10497988326E+04  0.10497988326E+04  0.00000000000E+00 0. -1.
         21   -1    0    0  501  503 -0.00000000000E+00 -0.00000000000E+00 -0.17533168467E+03  0.17533168467E+03  0.00000000000E+00 0. -1.
    9000007    1    1    2  501    0  0.14498721837E+03 -0.51928483914E+02  0.46375915104E+03  0.63149854403E+03  0.40000000000E+03 0. -1.
   -9000007    1    1    2    0  502 -0.14498721837E+03  0.51928483914E+02  0.41070799684E+03  0.59363197320E+03  0.40000000000E+03 0. -1.
<mgrwt>
<rscale>  2 0.42862322E+03</rscale>
<asrwt>0</asrwt>
<pdfrwt beam="1">  1       21 0.16150751E+00 0.42862322E+03</pdfrwt>
<pdfrwt beam="2">  1       21 0.26974106E-01 0.42862322E+03</pdfrwt>
<totfact> 0.27844912E+03</totfact>
</mgrwt>
</event>
<event>
 4    1  0.4832791E-002  0.4014172E+03  0.7818608E-02  0.1043290E+00
         21   -1    0    0  501  502  0.00000000000E+00  0.00000000000E+00  0.33664860341E+03  0.33664860341E+03  0.00000000000E+00 0. -1.
         21   -1    0    0  502  503 -0.00000000000E+00 -0.00000000000E+00 -0.74423259994E+03  0.74423259994E+03  0.00000000000E+00 0. -1.
    9000007    1    1    2  501    0 -0.33397932767E+02 -0.45064644614E+01  0.11905456127E+03  0.41870003427E+03  0.40000000000E+03 0. -1.
   -9000007    1    1    2    0  503  0.33397932767E+02  0.45064644614E+01 -0.52663855779E+03  0.66218116908E+03  0.40000000000E+03 0. -1.
<mgrwt>
<rscale>  2 0.40141715E+03</rscale>
<asrwt>0</asrwt>
<pdfrwt beam="1">  1       21 0.51792093E-01 0.40141715E+03</pdfrwt>
<pdfrwt beam="2">  1       21 0.11449732E+00 0.40141715E+03</pdfrwt>
<totfact> 0.18388973E+03</totfact>
</mgrwt>
</event>
<event>
 4    1  0.4832791E-002  0.5750593E+03  0.7818608E-02  0.9958545E-01
         21   -1    0    0  501  502  0.00000000000E+00  0.00000000000E+00  0.55990246148E+03  0.55990246148E+03  0.00000000000E+00 0.  1.
         21   -1    0    0  502  503 -0.00000000000E+00 -0.00000000000E+00 -0.12284726551E+04  0.12284726551E+04  0.00000000000E+00 0.  1.
    9000007    1    1    2  501    0  0.18484665244E+03 -0.36949275937E+03 -0.97860845448E+03  0.11350628579E+04  0.40000000000E+03 0.  1.
   -9000007    1    1    2    0  503 -0.18484665244E+03  0.36949275937E+03  0.31003826087E+03  0.65331225869E+03  0.40000000000E+03 0.  1.
<mgrwt>
<rscale>  2 0.57505929E+03</rscale>
<asrwt>0</asrwt>
<pdfrwt beam="1">  1       21 0.86138842E-01 0.57505929E+03</pdfrwt>
<pdfrwt beam="2">  1       21 0.18899579E+00 0.57505929E+03</pdfrwt>
<totfact> 0.13958988E+02</totfact>
</mgrwt>
</event>
<event>
 4    1  0.4832791E-002  0.5399362E+03  0.7818608E-02  0.1003850E+00
         21   -1    0    0  503  502  0.00000000000E+00  0.00000000000E+00  0.55864534207E+03  0.55864534207E+03  0.00000000000E+00 0. -1.
         21   -1    0    0  501  503 -0.00000000000E+00 -0.00000000000E+00 -0.64241040384E+03  0.64241040384E+03  0.00000000000E+00 0. -1.
    9000007    1    1    2  501    0  0.99310514368E+02  0.34881020930E+03 -0.30203177248E+03  0.61867142488E+03  0.40000000000E+03 0. -1.
   -9000007    1    1    2    0  502 -0.99310514368E+02 -0.34881020930E+03  0.21826671072E+03  0.58238432103E+03  0.40000000000E+03 0. -1.
<mgrwt>
<rscale>  2 0.53993624E+03</rscale>
<asrwt>0</asrwt>
<pdfrwt beam="1">  1       21 0.85945437E-01 0.53993624E+03</pdfrwt>
<pdfrwt beam="2">  1       21 0.98832370E-01 0.53993624E+03</pdfrwt>
<totfact> 0.80681401E+02</totfact>
</mgrwt>
</event>
<event>
 4    1  0.4832791E-002  0.4845214E+03  0.7818608E-02  0.1017900E+00
         21   -1    0    0  503  502  0.00000000000E+00  0.00000000000E+00  0.42189587455E+03  0.42189587455E+03  0.00000000000E+00 0. -1.
         21   -1    0    0  501  503 -0.00000000000E+00 -0.00000000000E+00 -0.77500266849E+03  0.77500266849E+03  0.00000000000E+00 0.  1.
    9000007    1    1    2  501    0  0.97762832766E+01  0.27324968267E+03 -0.49435848993E+03  0.69220754212E+03  0.40000000000E+03 0.  1.
   -9000007    1    1    2    0  502 -0.97762832766E+01 -0.27324968267E+03  0.14125169599E+03  0.50469100093E+03  0.40000000000E+03 0. -1.
<mgrwt>
<rscale>  2 0.48452138E+03</rscale>
<asrwt>0</asrwt>
<pdfrwt beam="1">  1       21 0.64907058E-01 0.48452138E+03</pdfrwt>
<pdfrwt beam="2">  1       21 0.11923118E+00 0.48452138E+03</pdfrwt>
<totfact> 0.98184593E+02</totfact>
</mgrwt>
</event>
<event>
 4    1  0.4832791E-002  0.4998029E+03  0.7818608E-02  0.1013830E+00
         21   -1    0    0  503  502  0.00000000000E+00  0.00000000000E+00  0.28070919084E+03  0.28070919084E+03  0.00000000000E+00 0. -1.
         21   -1    0    0  501  503 -0.00000000000E+00 -0.00000000000E+00 -0.91308694094E+03  0.91308694094E+03  0.00000000000E+00 0. -1.
    9000007    1    1    2  501    0  0.17430474947E+03 -0.24376378698E+03 -0.41130887004E+03  0.64728503467E+03  0.40000000000E+03 0. -1.
   -9000007    1    1    2    0  502 -0.17430474947E+03  0.24376378698E+03 -0.22106888006E+03  0.54651109710E+03  0.40000000000E+03 0. -1.
<mgrwt>
<rscale>  2 0.49980289E+03</rscale>
<asrwt>0</asrwt>
<pdfrwt beam="1">  1       21 0.43186029E-01 0.49980289E+03</pdfrwt>
<pdfrwt beam="2">  1       21 0.14047492E+00 0.49980289E+03</pdfrwt>
<totfact> 0.15314083E+03</totfact>
</mgrwt>
</event>
<event>
 4    1  0.4832791E-002  0.4015045E+03  0.7818608E-02  0.1043260E+00
         21   -1    0    0  501  502  0.00000000000E+00  0.00000000000E+00  0.31768664139E+03  0.31768664139E+03  0.00000000000E+00 0.  1.
         21   -1    0    0  502  503 -0.00000000000E+00 -0.00000000000E+00 -0.60160601744E+03  0.60160601744E+03  0.00000000000E+00 0.  1.
    9000007    1    1    2  501    0 -0.29713908714E+02  0.17971587218E+02  0.39894027863E+02  0.40348163252E+03  0.40000000000E+03 0.  1.
   -9000007    1    1    2    0  503  0.29713908714E+02 -0.17971587218E+02 -0.32381340391E+03  0.51581102632E+03  0.40000000000E+03 0.  1.
<mgrwt>
<rscale>  2 0.40150454E+03</rscale>
<asrwt>0</asrwt>
<pdfrwt beam="1">  1       21 0.48874869E-01 0.40150454E+03</pdfrwt>
<pdfrwt beam="2">  1       21 0.92554770E-01 0.40150454E+03</pdfrwt>
<totfact> 0.34934770E+03</totfact>
</mgrwt>
</event>
<event>
 4    1  0.4832791E-002  0.7639903E+03  0.7818608E-02  0.9613654E-01
         21   -1    0    0  503  502  0.00000000000E+00  0.00000000000E+00  0.13811321246E+04  0.13811321246E+04  0.00000000000E+00 0. -1.
         21   -1    0    0  501  503 -0.00000000000E+00 -0.00000000000E+00 -0.44167404720E+03  0.44167404720E+03  0.00000000000E+00 0.  1.
    9000007    1    1    2  501    0  0.24982874046E+03 -0.60105474481E+03  0.28038170222E+03  0.81381515392E+03  0.40000000000E+03 0.  1.
   -9000007    1    1    2    0  502 -0.24982874046E+03  0.60105474481E+03  0.65907637517E+03  0.10089910179E+04  0.40000000000E+03 0. -1.
<mgrwt>
<rscale>  2 0.76399032E+03</rscale>
<asrwt>0</asrwt>
<pdfrwt beam="1">  1       21 0.21248186E+00 0.76399032E+03</pdfrwt>
<pdfrwt beam="2">  1       21 0.67949854E-01 0.76399032E+03</pdfrwt>
<totfact> 0.15650503E+02</totfact>
</mgrwt>
</event>
<event>
 4    1  0.4832791E-002  0.4054124E+03  0.7818608E-02  0.1041921E+00
         21   -1    0    0  503  502  0.00000000000E+00  0.00000000000E+00  0.53607136892E+03  0.53607136892E+03  0.00000000000E+00 0.  1.
         21   -1    0    0  501  503 -0.00000000000E+00 -0.00000000000E+00 -0.31786272007E+03  0.31786272007E+03  0.00000000000E+00 0.  1.
    9000007    1    1    2  501    0  0.65591019275E+02  0.75542545540E+01  0.28732359261E+02  0.40642932601E+03  0.40000000000E+03 0. -1.
   -9000007    1    1    2    0  502 -0.65591019275E+02 -0.75542545540E+01  0.18947628959E+03  0.44750476298E+03  0.40000000000E+03 0. -1.
<mgrwt>
<rscale>  2 0.40541244E+03</rscale>
<asrwt>0</asrwt>
<pdfrwt beam="1">  1       21 0.82472519E-01 0.40541244E+03</pdfrwt>
<pdfrwt beam="2">  1       21 0.48901957E-01 0.40541244E+03</pdfrwt>
<totfact> 0.45673300E+03</totfact>
</mgrwt>
</event>
<event>
 4    1  0.4832791E-002  0.4842042E+03  0.7818608E-02  0.1017986E+00
         21   -1    0    0  503  502  0.00000000000E+00  0.00000000000E+00  0.32761815250E+03  0.32761815250E+03  0.00000000000E+00 0.  1.
         21   -1    0    0  501  503 -0.00000000000E+00 -0.00000000000E+00 -0.89923175143E+03  0.89923175143E+03  0.00000000000E+00 0. -1.
    9000007    1    1    2  501    0 -0.27252013823E+03  0.13655111134E+02 -0.56298745283E+03  0.74256889232E+03  0.40000000000E+03 0. -1.
   -9000007    1    1    2    0  502  0.27252013823E+03 -0.13655111134E+02 -0.86261461067E+01  0.48428101160E+03  0.40000000000E+03 0.  1.
<mgrwt>
<rscale>  2 0.48420418E+03</rscale>
<asrwt>0</asrwt>
<pdfrwt beam="1">  1       21 0.50402794E-01 0.48420418E+03</pdfrwt>
<pdfrwt beam="2">  1       21 0.13834334E+00 0.48420418E+03</pdfrwt>
<totfact> 0.11580677E+03</totfact>
</mgrwt>
</event>
<event>
 4    1  0.4832791E-002  0.4316793E+03  0.7818608E-02  0.1033331E+00
         21   -1    0    0  503  502  0.00000000000E+00  0.00000000000E+00  0.12022460745E+03  0.12022460745E+03  0.00000000000E+00 0.  1.
         21   -1    0    0  501  503 -0.00000000000E+00 -0.00000000000E+00 -0.15504626619E+04  0.15504626619E+04  0.00000000000E+00 0.  1.
    9000007    1    1    2  501    0  0.60128251971E+02 -0.15077002445E+03 -0.70054259950E+03  0.82286508048E+03  0.40000000000E+03 0.  1.
   -9000007    1    1    2    0  502 -0.60128251971E+02  0.15077002445E+03 -0.72969545493E+03  0.84782218885E+03  0.40000000000E+03 0.  1.
<mgrwt>
<rscale>  2 0.43167929E+03</rscale>
<asrwt>0</asrwt>
<pdfrwt beam="1">  1       21 0.18496094E-01 0.43167929E+03</pdfrwt>
<pdfrwt beam="2">  1       21 0.23853271E+00 0.43167929E+03</pdfrwt>
<totfact> 0.17438985E+03</totfact>
</mgrwt>
</event>
<event>
 4    1  0.4832791E-002  0.4583935E+03  0.7818608E-02  0.1025248E+00
         21   -1    0    0  503  502  0.00000000000E+00  0.00000000000E+00  0.40934644909E+03  0.40934644909E+03  0.00000000000E+00 0.  1.
         21   -1    0    0  501  503 -0.00000000000E+00 -0.00000000000E+00 -0.57768040911E+03  0.57768040911E+03  0.00000000000E+00 0.  1.
    9000007    1    1    2  501    0  0.17184069658E+03 -0.14351073578E+03 -0.24889752615E+03  0.52160764451E+03  0.40000000000E+03 0.  1.
   -9000007    1    1    2    0  502 -0.17184069658E+03  0.14351073578E+03  0.80563566133E+02  0.46541921369E+03  0.40000000000E+03 0.  1.
<mgrwt>
<rscale>  2 0.45839345E+03</rscale>
<asrwt>0</asrwt>
<pdfrwt beam="1">  1       21 0.62976377E-01 0.45839345E+03</pdfrwt>
<pdfrwt beam="2">  1       21 0.88873909E-01 0.45839345E+03</pdfrwt>
<totfact> 0.21765977E+03</totfact>
</mgrwt>
</event>
<event>
 4    1  0.4832791E-002  0.4664987E+03  0.7818608E-02  0.1022913E+00
         21   -1    0    0  501  502  0.00000000000E+00  0.00000000000E+00  0.50043186115E+03  0.50043186115E+03  0.00000000000E+00 0. -1.
         21   -1    0    0  502  503 -0.00000000000E+00 -0.00000000000E+00 -0.43605032633E+03  0.43605032633E+03  0.00000000000E+00 0. -1.
    9000007    1    1    2  501    0  0.92884472174E+02  0.22134480489E+03  0.77931887925E+01  0.46656380230E+03  0.40000000000E+03 0. -1.
   -9000007    1    1    2    0  503 -0.92884472174E+02 -0.22134480489E+03  0.56588346032E+02  0.46991838518E+03  0.40000000000E+03 0. -1.
<mgrwt>
<rscale>  2 0.46649871E+03</rscale>
<asrwt>0</asrwt>
<pdfrwt beam="1">  1       21 0.76989517E-01 0.46649871E+03</pdfrwt>
<pdfrwt beam="2">  1       21 0.67084666E-01 0.46649871E+03</pdfrwt>
<totfact> 0.26341565E+03</totfact>
</mgrwt>
</event>
<event>
 4    1  0.4832791E-002  0.4995601E+03  0.7818608E-02  0.1013894E+00
         21   -1    0    0  503  502  0.00000000000E+00  0.00000000000E+00  0.78639415362E+03  0.78639415362E+03  0.00000000000E+00 0.  1.
         21   -1    0    0  501  503 -0.00000000000E+00 -0.00000000000E+00 -0.42845915907E+03  0.42845915907E+03  0.00000000000E+00 0. -1.
    9000007    1    1    2  501    0 -0.37019331138E+02  0.29696773705E+03 -0.13036021191E+03  0.51628872986E+03  0.40000000000E+03 0. -1.
   -9000007    1    1    2    0  502  0.37019331138E+02 -0.29696773705E+03  0.48829520646E+03  0.69856458283E+03  0.40000000000E+03 0.  1.
<mgrwt>
<rscale>  2 0.49956007E+03</rscale>
<asrwt>0</asrwt>
<pdfrwt beam="1">  1       21 0.12098372E+00 0.49956007E+03</pdfrwt>
<pdfrwt beam="2">  1       21 0.65916794E-01 0.49956007E+03</pdfrwt>
<totfact> 0.90867140E+02</totfact>
</mgrwt>
</event>
<event>
 4    1  0.4832791E-002  0.5182104E+03  0.7818608E-02  0.1009132E+00
         21   -1    0    0  503  502  0.00000000000E+00  0.00000000000E+00  0.10011385132E+04  0.10011385132E+04  0.00000000000E+00 0.  1.
         21   -1    0    0  501  503 -0.00000000000E+00 -0.00000000000E+00 -0.65986815514E+03  0.65986815514E+03  0.00000000000E+00 0.  1.
    9000007    1    1    2  501    0  0.29624919659E+02  0.32812248156E+03 -0.46917571354E+03  0.69904781593E+03  0.40000000000E+03 0.  1.
   -9000007    1    1    2    0  502 -0.29624919659E+02 -0.32812248156E+03  0.81044607165E+03  0.96195885246E+03  0.40000000000E+03 0.  1.
<mgrwt>
<rscale>  2 0.51821038E+03</rscale>
<asrwt>0</asrwt>
<pdfrwt beam="1">  1       21 0.15402131E+00 0.51821038E+03</pdfrwt>
<pdfrwt beam="2">  1       21 0.10151818E+00 0.51821038E+03</pdfrwt>
<totfact> 0.17380789E+02</totfact>
</mgrwt>
</event>
<event>
 4    1  0.4832791E-002  0.4025354E+03  0.7818608E-02  0.1042905E+00
         21   -1    0    0  501  502  0.00000000000E+00  0.00000000000E+00  0.41641323162E+03  0.41641323162E+03  0.00000000000E+00 0.  1.
         21   -1    0    0  502  503 -0.00000000000E+00 -0.00000000000E+00 -0.62732163857E+03  0.62732163857E+03  0.00000000000E+00 0.  1.
    9000007    1    1    2  501    0  0.21025514074E+02 -0.39908211338E+02  0.21612458146E+03  0.45688573220E+03  0.40000000000E+03 0.  1.
   -9000007    1    1    2    0  503 -0.21025514074E+02  0.39908211338E+02 -0.42703298841E+03  0.58684913799E+03  0.40000000000E+03 0.  1.
<mgrwt>
<rscale>  2 0.40253539E+03</rscale>
<asrwt>0</asrwt>
<pdfrwt beam="1">  1       21 0.64063574E-01 0.40253539E+03</pdfrwt>
<pdfrwt beam="2">  1       21 0.96511022E-01 0.40253539E+03</pdfrwt>
<totfact> 0.17607784E+03</totfact>
</mgrwt>
</event>
<event>
 4    1  0.4832791E-002  0.4046717E+03  0.7818608E-02  0.1042174E+00
         21   -1    0    0  501  502  0.00000000000E+00  0.00000000000E+00  0.61391630309E+03  0.61391630309E+03  0.00000000000E+00 0.  1.
         21   -1    0    0  502  503 -0.00000000000E+00 -0.00000000000E+00 -0.51717412936E+03  0.51717412936E+03  0.00000000000E+00 0.  1.
    9000007    1    1    2  501    0  0.39313453487E+02 -0.47049001168E+02  0.44191326569E+03  0.59920488193E+03  0.40000000000E+03 0.  1.
   -9000007    1    1    2    0  503 -0.39313453487E+02  0.47049001168E+02 -0.34517109196E+03  0.53188555053E+03  0.40000000000E+03 0.  1.
<mgrwt>
<rscale>  2 0.40467166E+03</rscale>
<asrwt>0</asrwt>
<pdfrwt beam="1">  1       21 0.94448662E-01 0.40467166E+03</pdfrwt>
<pdfrwt beam="2">  1       21 0.79565250E-01 0.40467166E+03</pdfrwt>
<totfact> 0.11363351E+03</totfact>
</mgrwt>
</event>
<event>
 4    1  0.4832791E-002  0.5104239E+03  0.7818608E-02  0.1011093E+00
         21   -1    0    0  503  502  0.00000000000E+00  0.00000000000E+00  0.31664846871E+03  0.31664846871E+03  0.00000000000E+00 0. -1.
         21   -1    0    0  501  503 -0.00000000000E+00 -0.00000000000E+00 -0.19230266344E+04  0.19230266344E+04  0.00000000000E+00 0. -1.
    9000007    1    1    2  501    0 -0.24750683646E+03 -0.19817401030E+03 -0.16502352105E+04  0.17273704937E+04  0.40000000000E+03 0. -1.
   -9000007    1    1    2    0  502  0.24750683646E+03  0.19817401030E+03  0.43857044818E+02  0.51230460942E+03  0.40000000000E+03 0. -1.
<mgrwt>
<rscale>  2 0.51042391E+03</rscale>
<asrwt>0</asrwt>
<pdfrwt beam="1">  1       21 0.48715149E-01 0.51042391E+03</pdfrwt>
<pdfrwt beam="2">  1       21 0.29585025E+00 0.51042391E+03</pdfrwt>
<totfact> 0.10854856E+02</totfact>
</mgrwt>
</event>
<event>
 4    1  0.4832791E-002  0.4292311E+03  0.7818608E-02  0.1034103E+00
         21   -1    0    0  503  502  0.00000000000E+00  0.00000000000E+00  0.61645081487E+03  0.61645081487E+03  0.00000000000E+00 0. -1.
         21   -1    0    0  501  503 -0.00000000000E+00 -0.00000000000E+00 -0.39883650704E+03  0.39883650704E+03  0.00000000000E+00 0.  1.
    9000007    1    1    2  501    0 -0.13484307223E+03  0.77824574419E+02 -0.14534069386E+03  0.45317020622E+03  0.40000000000E+03 0.  1.
   -9000007    1    1    2    0  502  0.13484307223E+03 -0.77824574419E+02  0.36295500169E+03  0.56211711570E+03  0.40000000000E+03 0. -1.
<mgrwt>
<rscale>  2 0.42923108E+03</rscale>
<asrwt>0</asrwt>
<pdfrwt beam="1">  1       21 0.94838587E-01 0.42923108E+03</pdfrwt>
<pdfrwt beam="2">  1       21 0.61359462E-01 0.42923108E+03</pdfrwt>
<totfact> 0.19970857E+03</totfact>
</mgrwt>
</event>
<event>
 4    1  0.4832791E-002  0.4658518E+03  0.7818608E-02  0.1023098E+00
         21   -1    0    0  501  502  0.00000000000E+00  0.00000000000E+00  0.20480487815E+03  0.20480487815E+03  0.00000000000E+00 0. -1.
         21   -1    0    0  502  503 -0.00000000000E+00 -0.00000000000E+00 -0.11245735257E+04  0.11245735257E+04  0.00000000000E+00 0.  1.
    9000007    1    1    2  501    0 -0.19660689174E+03  0.13551262517E+03 -0.30015536039E+03  0.55417612889E+03  0.40000000000E+03 0. -1.
   -9000007    1    1    2    0  503  0.19660689174E+03 -0.13551262517E+03 -0.61961328713E+03  0.77520227493E+03  0.40000000000E+03 0.  1.
<mgrwt>
<rscale>  2 0.46585184E+03</rscale>
<asrwt>0</asrwt>
<pdfrwt beam="1">  1       21 0.31508443E-01 0.46585184E+03</pdfrwt>
<pdfrwt beam="2">  1       21 0.17301131E+00 0.46585184E+03</pdfrwt>
<totfact> 0.16597075E+03</totfact>
</mgrwt>
</event>
<event>
 4    1  0.4832791E-002  0.4592431E+03  0.7818608E-02  0.1025001E+00
         21   -1    0    0  503  502  0.00000000000E+00  0.00000000000E+00  0.13336005679E+04  0.13336005679E+04  0.00000000000E+00 0.  1.
         21   -1    0    0  501  503 -0.00000000000E+00 -0.00000000000E+00 -0.16095431380E+03  0.16095431380E+03  0.00000000000E+00 0.  1.
    9000007    1    1    2  501    0 -0.17830967467E+03  0.13823840805E+03  0.48762282909E+03  0.66983596573E+03  0.40000000000E+03 0.  1.
   -9000007    1    1    2    0  502  0.17830967467E+03 -0.13823840805E+03  0.68502342498E+03  0.82471891594E+03  0.40000000000E+03 0.  1.
<mgrwt>
<rscale>  2 0.45924307E+03</rscale>
<asrwt>0</asrwt>
<pdfrwt beam="1">  1       21 0.20516931E+00 0.45924307E+03</pdfrwt>
<pdfrwt beam="2">  1       21 0.24762203E-01 0.45924307E+03</pdfrwt>
<totfact> 0.16077941E+03</totfact>
</mgrwt>
</event>
<event>
 4    1  0.4832791E-002  0.5696983E+03  0.7818608E-02  0.9970346E-01
         21   -1    0    0  501  502  0.00000000000E+00  0.00000000000E+00  0.23167493275E+04  0.23167493275E+04  0.00000000000E+00 0. -1.
         21   -1    0    0  502  503 -0.00000000000E+00 -0.00000000000E+00 -0.15512598268E+03  0.15512598268E+03  0.00000000000E+00 0. -1.
    9000007    1    1    2  501    0  0.35055882617E+03  0.20411921000E+03  0.14655834291E+04  0.15724156353E+04  0.40000000000E+03 0. -1.
   -9000007    1    1    2    0  503 -0.35055882617E+03 -0.20411921000E+03  0.69603991579E+03  0.89945967495E+03  0.40000000000E+03 0. -1.
<mgrwt>
<rscale>  2 0.56969829E+03</rscale>
<asrwt>0</asrwt>
<pdfrwt beam="1">  1       21 0.35642295E+00 0.56969829E+03</pdfrwt>
<pdfrwt beam="2">  1       21 0.23865537E-01 0.56969829E+03</pdfrwt>
<totfact> 0.19082011E+02</totfact>
</mgrwt>
</event>
<event>
 4    1  0.4832791E-002  0.5168041E+03  0.7818608E-02  0.1009484E+00
         21   -1    0    0  501  502  0.00000000000E+00  0.00000000000E+00  0.13046301927E+04  0.13046301927E+04  0.00000000000E+00 0.  1.
         21   -1    0    0  502  503 -0.00000000000E+00 -0.00000000000E+00 -0.20515061639E+03  0.20515061639E+03  0.00000000000E+00 0.  1.
    9000007    1    1    2  501    0 -0.28943091496E+03 -0.15269656383E+03  0.58424499751E+03  0.78001840507E+03  0.40000000000E+03 0.  1.
   -9000007    1    1    2    0  503  0.28943091496E+03  0.15269656383E+03  0.51523457884E+03  0.72976240405E+03  0.40000000000E+03 0.  1.
<mgrwt>
<rscale>  2 0.51680412E+03</rscale>
<asrwt>0</asrwt>
<pdfrwt beam="1">  1       21 0.20071233E+00 0.51680412E+03</pdfrwt>
<pdfrwt beam="2">  1       21 0.31561634E-01 0.51680412E+03</pdfrwt>
<totfact> 0.10411438E+03</totfact>
</mgrwt>
</event>
<event>
 4    1  0.4832791E-002  0.4076527E+03  0.7818608E-02  0.1041162E+00
         21   -1    0    0  501  502  0.00000000000E+00  0.00000000000E+00  0.49784730280E+03  0.49784730280E+03  0.00000000000E+00 0.  1.
         21   -1    0    0  502  503 -0.00000000000E+00 -0.00000000000E+00 -0.84564261958E+03  0.84564261958E+03  0.00000000000E+00 0.  1.
    9000007    1    1    2  501    0 -0.31825527035E+02  0.71888098818E+02  0.34871482211E+03  0.53645390304E+03  0.40000000000E+03 0.  1.
   -9000007    1    1    2    0  503  0.31825527035E+02 -0.71888098818E+02 -0.69651013890E+03  0.80703601934E+03  0.40000000000E+03 0.  1.
<mgrwt>
<rscale>  2 0.40765275E+03</rscale>
<asrwt>0</asrwt>
<pdfrwt beam="1">  1       21 0.76591893E-01 0.40765275E+03</pdfrwt>
<pdfrwt beam="2">  1       21 0.13009886E+00 0.40765275E+03</pdfrwt>
<totfact> 0.55888111E+02</totfact>
</mgrwt>
</event>
<event>
 4    1  0.4832791E-002  0.6028661E+03  0.7818608E-02  0.9899478E-01
         21   -1    0    0  503  502  0.00000000000E+00  0.00000000000E+00  0.91383400486E+03  0.91383400486E+03  0.00000000000E+00 0. -1.
         21   -1    0    0  501  503 -0.00000000000E+00 -0.00000000000E+00 -0.44635185197E+03  0.44635185197E+03  0.00000000000E+00 0.  1.
    9000007    1    1    2  501    0 -0.36657257165E+03 -0.26281568044E+03  0.92483131333E+01  0.60293703110E+03  0.40000000000E+03 0.  1.
   -9000007    1    1    2    0  502  0.36657257165E+03  0.26281568044E+03  0.45823383976E+03  0.75724882573E+03  0.40000000000E+03 0. -1.
<mgrwt>
<rscale>  2 0.60286610E+03</rscale>
<asrwt>0</asrwt>
<pdfrwt beam="1">  1       21 0.14058985E+00 0.60286610E+03</pdfrwt>
<pdfrwt beam="2">  1       21 0.68669516E-01 0.60286610E+03</pdfrwt>
<totfact> 0.53949058E+02</totfact>
</mgrwt>
</event>
<event>
 4    1  0.4832791E-002  0.4414537E+03  0.7818608E-02  0.1030302E+00
         21   -1    0    0  501  502  0.00000000000E+00  0.00000000000E+00  0.11157107088E+03  0.11157107088E+03  0.00000000000E+00 0. -1.
         21   -1    0    0  502  503 -0.00000000000E+00 -0.00000000000E+00 -0.19401638445E+04  0.19401638445E+04  0.00000000000E+00 0. -1.
    9000007    1    1    2  501    0  0.18578590890E+03 -0.19104572691E+02 -0.12382403965E+04  0.13145800349E+04  0.40000000000E+03 0. -1.
   -9000007    1    1    2    0  503 -0.18578590890E+03  0.19104572691E+02 -0.59035237718E+03  0.73715488053E+03  0.40000000000E+03 0. -1.
<mgrwt>
<rscale>  2 0.44145372E+03</rscale>
<asrwt>0</asrwt>
<pdfrwt beam="1">  1       21 0.17164781E-01 0.44145372E+03</pdfrwt>
<pdfrwt beam="2">  1       21 0.29848674E+00 0.44145372E+03</pdfrwt>
<totfact> 0.86403783E+02</totfact>
</mgrwt>
</event>
<event>
 4    1  0.4832791E-002  0.4203732E+03  0.7818608E-02  0.1036945E+00
         21   -1    0    0  501  502  0.00000000000E+00  0.00000000000E+00  0.11615937182E+03  0.11615937182E+03  0.00000000000E+00 0.  1.
         21   -1    0    0  502  503 -0.00000000000E+00 -0.00000000000E+00 -0.15241480381E+04  0.15241480381E+04  0.00000000000E+00 0.  1.
    9000007    1    1    2  501    0 -0.10845139012E+03 -0.70370004062E+02 -0.66856206177E+03  0.78973974949E+03  0.40000000000E+03 0.  1.
   -9000007    1    1    2    0  503  0.10845139012E+03  0.70370004062E+02 -0.73942660447E+03  0.85056766039E+03  0.40000000000E+03 0.  1.
<mgrwt>
<rscale>  2 0.42037322E+03</rscale>
<asrwt>0</asrwt>
<pdfrwt beam="1">  1       21 0.17870673E-01 0.42037322E+03</pdfrwt>
<pdfrwt beam="2">  1       21 0.23448431E+00 0.42037322E+03</pdfrwt>
<totfact> 0.19824633E+03</totfact>
</mgrwt>
</event>
<event>
 4    1  0.4832791E-002  0.4216332E+03  0.7818608E-02  0.1036536E+00
         21   -1    0    0  503  502  0.00000000000E+00  0.00000000000E+00  0.50102524948E+03  0.50102524948E+03  0.00000000000E+00 0.  1.
         21   -1    0    0  501  503 -0.00000000000E+00 -0.00000000000E+00 -0.10186133983E+04  0.10186133983E+04  0.00000000000E+00 0.  1.
    9000007    1    1    2  501    0 -0.13315827948E+03 -0.65868086136E+01 -0.87216279817E+03  0.96873239853E+03  0.40000000000E+03 0.  1.
   -9000007    1    1    2    0  502  0.13315827948E+03  0.65868086136E+01  0.35457464938E+03  0.55090624922E+03  0.40000000000E+03 0.  1.
<mgrwt>
<rscale>  2 0.42163315E+03</rscale>
<asrwt>0</asrwt>
<pdfrwt beam="1">  1       21 0.77080808E-01 0.42163315E+03</pdfrwt>
<pdfrwt beam="2">  1       21 0.15670975E+00 0.42163315E+03</pdfrwt>
<totfact> 0.33292125E+02</totfact>
</mgrwt>
</event>
<event>
 4    1  0.4832791E-002  0.4342469E+03  0.7818608E-02  0.1032527E+00
         21   -1    0    0  503  502  0.00000000000E+00  0.00000000000E+00  0.19772545591E+03  0.19772545591E+03  0.00000000000E+00 0.  1.
         21   -1    0    0  501  503 -0.00000000000E+00 -0.00000000000E+00 -0.14346584502E+04  0.14346584502E+04  0.00000000000E+00 0.  1.
    9000007    1    1    2  501    0  0.16416788347E+03  0.40239788963E+02 -0.14588924124E+03  0.45809824851E+03  0.40000000000E+03 0.  1.
   -9000007    1    1    2    0  502 -0.16416788347E+03 -0.40239788963E+02 -0.10910437531E+04  0.11742856576E+04  0.40000000000E+03 0.  1.
<mgrwt>
<rscale>  2 0.43424686E+03</rscale>
<asrwt>0</asrwt>
<pdfrwt beam="1">  1       21 0.30419300E-01 0.43424686E+03</pdfrwt>
<pdfrwt beam="2">  1       21 0.22071669E+00 0.43424686E+03</pdfrwt>
<totfact> 0.86059534E+02</totfact>
</mgrwt>
</event>
<event>
 4    1  0.4832791E-002  0.4390477E+03  0.7818608E-02  0.1031039E+00
         21   -1    0    0  503  502  0.00000000000E+00  0.00000000000E+00  0.30760654527E+03  0.30760654527E+03  0.00000000000E+00 0.  1.
         21   -1    0    0  501  503 -0.00000000000E+00 -0.00000000000E+00 -0.71977725832E+03  0.71977725832E+03  0.00000000000E+00 0. -1.
    9000007    1    1    2  501    0  0.47899390528E+02  0.17455230789E+03 -0.39085594121E+03  0.58781904238E+03  0.40000000000E+03 0. -1.
   -9000007    1    1    2    0  502 -0.47899390528E+02 -0.17455230789E+03 -0.21314771840E+02  0.43956476121E+03  0.40000000000E+03 0.  1.
<mgrwt>
<rscale>  2 0.43904767E+03</rscale>
<asrwt>0</asrwt>
<pdfrwt beam="1">  1       21 0.47324084E-01 0.43904767E+03</pdfrwt>
<pdfrwt beam="2">  1       21 0.11073496E+00 0.43904767E+03</pdfrwt>
<totfact> 0.23828242E+03</totfact>
</mgrwt>
</event>
<event>
 4    1  0.4832791E-002  0.4668268E+03  0.7818608E-02  0.1022820E+00
         21   -1    0    0  503  502  0.00000000000E+00  0.00000000000E+00  0.95869393784E+02  0.95869393784E+02  0.00000000000E+00 0.  1.
         21   -1    0    0  501  503 -0.00000000000E+00 -0.00000000000E+00 -0.22804708717E+04  0.22804708717E+04  0.00000000000E+00 0.  1.
    9000007    1    1    2  501    0  0.87421260868E+02 -0.22424275149E+03 -0.11595360771E+04  0.12499804809E+04  0.40000000000E+03 0.  1.
   -9000007    1    1    2    0  502 -0.87421260868E+02  0.22424275149E+03 -0.10250654008E+04  0.11263597846E+04  0.40000000000E+03 0.  1.
<mgrwt>
<rscale>  2 0.46682683E+03</rscale>
<asrwt>0</asrwt>
<pdfrwt beam="1">  1       21 0.14749138E-01 0.46682683E+03</pdfrwt>
<pdfrwt beam="2">  1       21 0.35084167E+00 0.46682683E+03</pdfrwt>
<totfact> 0.54429979E+02</totfact>
</mgrwt>
</event>
<event>
 4    1  0.4832791E-002  0.5042406E+03  0.7818608E-02  0.1012678E+00
         21   -1    0    0  503  502  0.00000000000E+00  0.00000000000E+00  0.59453868401E+03  0.59453868401E+03  0.00000000000E+00 0. -1.
         21   -1    0    0  501  503 -0.00000000000E+00 -0.00000000000E+00 -0.55831266796E+03  0.55831266796E+03  0.00000000000E+00 0. -1.
    9000007    1    1    2  501    0 -0.53647675871E+02  0.30229206724E+03  0.29696187216E+03  0.58518793610E+03  0.40000000000E+03 0. -1.
   -9000007    1    1    2    0  502  0.53647675871E+02 -0.30229206724E+03 -0.26073585612E+03  0.56766341586E+03  0.40000000000E+03 0. -1.
<mgrwt>
<rscale>  2 0.50424058E+03</rscale>
<asrwt>0</asrwt>
<pdfrwt beam="1">  1       21 0.91467490E-01 0.50424058E+03</pdfrwt>
<pdfrwt beam="2">  1       21 0.85894257E-01 0.50424058E+03</pdfrwt>
<totfact> 0.98584898E+02</totfact>
</mgrwt>
</event>
<event>
 4    1  0.4832791E-002  0.4181813E+03  0.7818608E-02  0.1037660E+00
         21   -1    0    0  503  502  0.00000000000E+00  0.00000000000E+00  0.27285589547E+03  0.27285589547E+03  0.00000000000E+00 0.  1.
         21   -1    0    0  501  503 -0.00000000000E+00 -0.00000000000E+00 -0.64373015976E+03  0.64373015976E+03  0.00000000000E+00 0.  1.
    9000007    1    1    2  501    0 -0.12116608251E+03 -0.13941687831E+02 -0.21578052111E+03  0.47057074229E+03  0.40000000000E+03 0.  1.
   -9000007    1    1    2    0  502  0.12116608251E+03  0.13941687831E+02 -0.15509374318E+03  0.44601531295E+03  0.40000000000E+03 0.  1.
<mgrwt>
<rscale>  2 0.41818129E+03</rscale>
<asrwt>0</asrwt>
<pdfrwt beam="1">  1       21 0.41977831E-01 0.41818129E+03</pdfrwt>
<pdfrwt beam="2">  1       21 0.99035408E-01 0.41818129E+03</pdfrwt>
<totfact> 0.40582186E+03</totfact>
</mgrwt>
</event>
<event>
 4    1  0.4832791E-002  0.4758519E+03  0.7818608E-02  0.1020281E+00
         21   -1    0    0  503  502  0.00000000000E+00  0.00000000000E+00  0.77903537418E+03  0.77903537418E+03  0.00000000000E+00 0. -1.
         21   -1    0    0  501  503 -0.00000000000E+00 -0.00000000000E+00 -0.30683406518E+03  0.30683406518E+03  0.00000000000E+00 0. -1.
    9000007    1    1    2  501    0 -0.33485208337E+02 -0.25556564156E+03  0.11145002157E+03  0.48872913115E+03  0.40000000000E+03 0. -1.
   -9000007    1    1    2    0  502  0.33485208337E+02  0.25556564156E+03  0.36075128742E+03  0.59714030822E+03  0.40000000000E+03 0. -1.
<mgrwt>
<rscale>  2 0.47585193E+03</rscale>
<asrwt>0</asrwt>
<pdfrwt beam="1">  1       21 0.11985160E+00 0.47585193E+03</pdfrwt>
<pdfrwt beam="2">  1       21 0.47205241E-01 0.47585193E+03</pdfrwt>
<totfact> 0.19377231E+03</totfact>
</mgrwt>
</event>
<event>
 4    1  0.4832791E-002  0.4198976E+03  0.7818608E-02  0.1037100E+00
         21   -1    0    0  501  502  0.00000000000E+00  0.00000000000E+00  0.67460595760E+03  0.67460595760E+03  0.00000000000E+00 0.  1.
         21   -1    0    0  502  503 -0.00000000000E+00 -0.00000000000E+00 -0.48151778532E+03  0.48151778532E+03  0.00000000000E+00 0.  1.
    9000007    1    1    2  501    0 -0.31116584243E+02  0.12387802796E+03  0.48741796817E+03  0.64334305259E+03  0.40000000000E+03 0.  1.
   -9000007    1    1    2    0  503  0.31116584243E+02 -0.12387802796E+03 -0.29432979589E+03  0.51278069033E+03  0.40000000000E+03 0.  1.
<mgrwt>
<rscale>  2 0.41989762E+03</rscale>
<asrwt>0</asrwt>
<pdfrwt beam="1">  1       21 0.10378553E+00 0.41989762E+03</pdfrwt>
<pdfrwt beam="2">  1       21 0.74079659E-01 0.41989762E+03</pdfrwt>
<totfact> 0.10579967E+03</totfact>
</mgrwt>
</event>
<event>
 4    1  0.4832791E-002  0.5373123E+03  0.7818608E-02  0.1004474E+00
         21   -1    0    0  501  502  0.00000000000E+00  0.00000000000E+00  0.52629219318E+03  0.52629219318E+03  0.00000000000E+00 0. -1.
         21   -1    0    0  502  503 -0.00000000000E+00 -0.00000000000E+00 -0.55091053785E+03  0.55091053785E+03  0.00000000000E+00 0. -1.
    9000007    1    1    2  501    0  0.29784434883E+03  0.19998313997E+03 -0.47466652389E+02  0.53940485304E+03  0.40000000000E+03 0. -1.
   -9000007    1    1    2    0  503 -0.29784434883E+03 -0.19998313997E+03  0.22848307718E+02  0.53779787798E+03  0.40000000000E+03 0. -1.
<mgrwt>
<rscale>  2 0.53731230E+03</rscale>
<asrwt>0</asrwt>
<pdfrwt beam="1">  1       21 0.80968030E-01 0.53731230E+03</pdfrwt>
<pdfrwt beam="2">  1       21 0.84755467E-01 0.53731230E+03</pdfrwt>
<totfact> 0.13402593E+03</totfact>
</mgrwt>
</event>
<event>
 4    1  0.4832791E-002  0.4972690E+03  0.7818608E-02  0.1014494E+00
         21   -1    0    0  501  502  0.00000000000E+00  0.00000000000E+00  0.22528006446E+03  0.22528006446E+03  0.00000000000E+00 0. -1.
         21   -1    0    0  502  503 -0.00000000000E+00 -0.00000000000E+00 -0.11354386206E+04  0.11354386206E+04  0.00000000000E+00 0. -1.
    9000007    1    1    2  501    0  0.24648132963E+03 -0.16286021808E+03 -0.57921371847E+03  0.76339048209E+03  0.40000000000E+03 0. -1.
   -9000007    1    1    2    0  503 -0.24648132963E+03  0.16286021808E+03 -0.33094483768E+03  0.59732820298E+03  0.40000000000E+03 0. -1.
<mgrwt>
<rscale>  2 0.49726904E+03</rscale>
<asrwt>0</asrwt>
<pdfrwt beam="1">  1       21 0.34658472E-01 0.49726904E+03</pdfrwt>
<pdfrwt beam="2">  1       21 0.17468286E+00 0.49726904E+03</pdfrwt>
<totfact> 0.13160294E+03</totfact>
</mgrwt>
</event>
<event>
 4    1  0.4832791E-002  0.5148531E+03  0.7818608E-02  0.1009973E+00
         21   -1    0    0  501  502  0.00000000000E+00  0.00000000000E+00  0.13531468016E+03  0.13531468016E+03  0.00000000000E+00 0.  1.
         21   -1    0    0  502  503 -0.00000000000E+00 -0.00000000000E+00 -0.19768916023E+04  0.19768916023E+04  0.00000000000E+00 0.  1.
    9000007    1    1    2  501    0  0.31923325719E+03  0.56247593438E+02 -0.82015614115E+03  0.96836447690E+03  0.40000000000E+03 0.  1.
   -9000007    1    1    2    0  503 -0.31923325719E+03 -0.56247593438E+02 -0.10214207810E+04  0.11438418055E+04  0.40000000000E+03 0.  1.
<mgrwt>
<rscale>  2 0.51485305E+03</rscale>
<asrwt>0</asrwt>
<pdfrwt beam="1">  1       21 0.20817644E-01 0.51485305E+03</pdfrwt>
<pdfrwt beam="2">  1       21 0.30413716E+00 0.51485305E+03</pdfrwt>
<totfact> 0.53330240E+02</totfact>
</mgrwt>
</event>
<event>
 4    1  0.4832791E-002  0.4786680E+03  0.7818608E-02  0.1019502E+00
         21   -1    0    0  503  502  0.00000000000E+00  0.00000000000E+00  0.25747974185E+03  0.25747974185E+03  0.00000000000E+00 0.  1.
         21   -1    0    0  501  503 -0.00000000000E+00 -0.00000000000E+00 -0.19877007191E+04  0.19877007191E+04  0.00000000000E+00 0.  1.
    9000007    1    1    2  501    0  0.74238592978E+02 -0.25221352807E+03 -0.16993942836E+04  0.17655208760E+04  0.40000000000E+03 0.  1.
   -9000007    1    1    2    0  502 -0.74238592978E+02  0.25221352807E+03 -0.30826693680E+02  0.47965958499E+03  0.40000000000E+03 0.  1.
<mgrwt>
<rscale>  2 0.47866798E+03</rscale>
<asrwt>0</asrwt>
<pdfrwt beam="1">  1       21 0.39612270E-01 0.47866798E+03</pdfrwt>
<pdfrwt beam="2">  1       21 0.30580009E+00 0.47866798E+03</pdfrwt>
<totfact> 0.14837983E+02</totfact>
</mgrwt>
</event>
<event>
 4    1  0.4832791E-002  0.5731399E+03  0.7818608E-02  0.9962754E-01
         21   -1    0    0  501  502  0.00000000000E+00  0.00000000000E+00  0.13819001430E+04  0.13819001430E+04  0.00000000000E+00 0.  1.
         21   -1    0    0  502  503 -0.00000000000E+00 -0.00000000000E+00 -0.59193521472E+03  0.59193521472E+03  0.00000000000E+00 0. -1.
    9000007    1    1    2  501    0 -0.16504439316E+03  0.37583200680E+03  0.11584393610E+04  0.12924670604E+04  0.40000000000E+03 0.  1.
   -9000007    1    1    2    0  503  0.16504439316E+03 -0.37583200680E+03 -0.36847443272E+03  0.68136829734E+03  0.40000000000E+03 0. -1.
<mgrwt>
<rscale>  2 0.57313990E+03</rscale>
<asrwt>0</asrwt>
<pdfrwt beam="1">  1       21 0.21260002E+00 0.57313990E+03</pdfrwt>
<pdfrwt beam="2">  1       21 0.91066956E-01 0.57313990E+03</pdfrwt>
<totfact> 0.84921652E+01</totfact>
</mgrwt>
</event>
<event>
 4    1  0.4832791E-002  0.4341327E+03  0.7818608E-02  0.1032562E+00
         21   -1    0    0  501  502  0.00000000000E+00  0.00000000000E+00  0.43955910703E+03  0.43955910703E+03  0.00000000000E+00 0. -1.
         21   -1    0    0  502  503 -0.00000000000E+00 -0.00000000000E+00 -0.48654187428E+03  0.48654187428E+03  0.00000000000E+00 0. -1.
    9000007    1    1    2  501    0  0.82963371425E+02 -0.14692945833E+03  0.13606502441E+03  0.45495590731E+03  0.40000000000E+03 0. -1.
   -9000007    1    1    2    0  503 -0.82963371425E+02  0.14692945833E+03 -0.18304779166E+03  0.47114507400E+03  0.40000000000E+03 0. -1.
<mgrwt>
<rscale>  2 0.43413268E+03</rscale>
<asrwt>0</asrwt>
<pdfrwt beam="1">  1       21 0.67624477E-01 0.43413268E+03</pdfrwt>
<pdfrwt beam="2">  1       21 0.74852597E-01 0.43413268E+03</pdfrwt>
<totfact> 0.27916125E+03</totfact>
</mgrwt>
</event>
<event>
 4    1  0.4832791E-002  0.4439905E+03  0.7818608E-02  0.1029529E+00
         21   -1    0    0  503  502  0.00000000000E+00  0.00000000000E+00  0.40528462627E+03  0.40528462627E+03  0.00000000000E+00 0.  1.
         21   -1    0    0  501  503 -0.00000000000E+00 -0.00000000000E+00 -0.80153972885E+03  0.80153972885E+03  0.00000000000E+00 0.  1.
    9000007    1    1    2  501    0  0.80861623205E+02 -0.17489690389E+03  0.18023493887E+03  0.47917863296E+03  0.40000000000E+03 0.  1.
   -9000007    1    1    2    0  502 -0.80861623205E+02  0.17489690389E+03 -0.57649004145E+03  0.72764572217E+03  0.40000000000E+03 0.  1.
<mgrwt>
<rscale>  2 0.44399046E+03</rscale>
<asrwt>0</asrwt>
<pdfrwt beam="1">  1       21 0.62351482E-01 0.44399046E+03</pdfrwt>
<pdfrwt beam="2">  1       21 0.12331380E+00 0.44399046E+03</pdfrwt>
<totfact> 0.10011058E+03</totfact>
</mgrwt>
</event>
<event>
 4    1  0.4832791E-002  0.4490430E+03  0.7818608E-02  0.1028008E+00
         21   -1    0    0  501  502  0.00000000000E+00  0.00000000000E+00  0.45908887919E+03  0.45908887919E+03  0.00000000000E+00 0.  1.
         21   -1    0    0  502  503 -0.00000000000E+00 -0.00000000000E+00 -0.51770010900E+03  0.51770010900E+03  0.00000000000E+00 0.  1.
    9000007    1    1    2  501    0 -0.85447746837E+02 -0.18530598772E+03  0.16085466727E+03  0.47698411976E+03  0.40000000000E+03 0.  1.
   -9000007    1    1    2    0  503  0.85447746837E+02  0.18530598772E+03 -0.21946589708E+03  0.49980486843E+03  0.40000000000E+03 0.  1.
<mgrwt>
<rscale>  2 0.44904301E+03</rscale>
<asrwt>0</asrwt>
<pdfrwt beam="1">  1       21 0.70629059E-01 0.44904301E+03</pdfrwt>
<pdfrwt beam="2">  1       21 0.79646170E-01 0.44904301E+03</pdfrwt>
<totfact> 0.21839465E+03</totfact>
</mgrwt>
</event>
<event>
 4    1  0.4832791E-002  0.4032916E+03  0.7818608E-02  0.1042646E+00
         21   -1    0    0  503  502  0.00000000000E+00  0.00000000000E+00  0.10971813932E+04  0.10971813932E+04  0.00000000000E+00 0. -1.
         21   -1    0    0  501  503 -0.00000000000E+00 -0.00000000000E+00 -0.23972312314E+03  0.23972312314E+03  0.00000000000E+00 0. -1.
    9000007    1    1    2  501    0  0.11866549833E+02  0.50033100764E+02  0.15785911711E+02  0.40360044745E+03  0.40000000000E+03 0. -1.
   -9000007    1    1    2    0  502 -0.11866549833E+02 -0.50033100764E+02  0.84167235837E+03  0.93330406890E+03  0.40000000000E+03 0. -1.
<mgrwt>
<rscale>  2 0.40329161E+03</rscale>
<asrwt>0</asrwt>
<pdfrwt beam="1">  1       21 0.16879713E+00 0.40329161E+03</pdfrwt>
<pdfrwt beam="2">  1       21 0.36880481E-01 0.40329161E+03</pdfrwt>
<totfact> 0.13323548E+03</totfact>
</mgrwt>
</event>
<event>
 4    1  0.4832791E-002  0.4871267E+03  0.7818608E-02  0.1017195E+00
         21   -1    0    0  501  502  0.00000000000E+00  0.00000000000E+00  0.17748679271E+04  0.17748679271E+04  0.00000000000E+00 0. -1.
         21   -1    0    0  502  503 -0.00000000000E+00 -0.00000000000E+00 -0.17474650640E+03  0.17474650640E+03  0.00000000000E+00 0. -1.
    9000007    1    1    2  501    0 -0.15675877280E+02  0.27757280695E+03  0.12725312957E+04  0.13625814819E+04  0.40000000000E+03 0. -1.
   -9000007    1    1    2    0  503  0.15675877280E+02 -0.27757280695E+03  0.32759012507E+03  0.58703295166E+03  0.40000000000E+03 0. -1.
<mgrwt>
<rscale>  2 0.48712667E+03</rscale>
<asrwt>0</asrwt>
<pdfrwt beam="1">  1       21 0.27305659E+00 0.48712667E+03</pdfrwt>
<pdfrwt beam="2">  1       21 0.26884079E-01 0.48712667E+03</pdfrwt>
<totfact> 0.50761445E+02</totfact>
</mgrwt>
</event>
<event>
 4    1  0.4832791E-002  0.4957503E+03  0.7818608E-02  0.1014894E+00
         21   -1    0    0  501  502  0.00000000000E+00  0.00000000000E+00  0.16690064785E+04  0.16690064785E+04  0.00000000000E+00 0. -1.
         21   -1    0    0  502  503 -0.00000000000E+00 -0.00000000000E+00 -0.20238975903E+03  0.20238975903E+03  0.00000000000E+00 0. -1.
    9000007    1    1    2  501    0 -0.87799456320E+02 -0.27939149371E+03  0.12216874441E+04  0.13184417175E+04  0.40000000000E+03 0. -1.
   -9000007    1    1    2    0  503  0.87799456320E+02  0.27939149371E+03  0.24492927531E+03  0.55295452000E+03  0.40000000000E+03 0. -1.
<mgrwt>
<rscale>  2 0.49575029E+03</rscale>
<asrwt>0</asrwt>
<pdfrwt beam="1">  1       21 0.25677022E+00 0.49575029E+03</pdfrwt>
<pdfrwt beam="2">  1       21 0.31136887E-01 0.49575029E+03</pdfrwt>
<totfact> 0.47481469E+02</totfact>
</mgrwt>
</event>
<event>
 4    1  0.4832791E-002  0.4791720E+03  0.7818608E-02  0.1019363E+00
         21   -1    0    0  501  502  0.00000000000E+00  0.00000000000E+00  0.80312227215E+03  0.80312227215E+03  0.00000000000E+00 0.  1.
         21   -1    0    0  502  503 -0.00000000000E+00 -0.00000000000E+00 -0.28649048464E+03  0.28649048464E+03  0.00000000000E+00 0.  1.
    9000007    1    1    2  501    0 -0.67111233286E+02 -0.25515067220E+03  0.23340343734E+03  0.53299432241E+03  0.40000000000E+03 0.  1.
   -9000007    1    1    2    0  503  0.67111233286E+02  0.25515067220E+03  0.28322835017E+03  0.55661843438E+03  0.40000000000E+03 0.  1.
<mgrwt>
<rscale>  2 0.47917198E+03</rscale>
<asrwt>0</asrwt>
<pdfrwt beam="1">  1       21 0.12355727E+00 0.47917198E+03</pdfrwt>
<pdfrwt beam="2">  1       21 0.44075460E-01 0.47917198E+03</pdfrwt>
<totfact> 0.20678539E+03</totfact>
</mgrwt>
</event>
<event>
 4    1  0.4832791E-002  0.4117354E+03  0.7818608E-02  0.1039790E+00
         21   -1    0    0  501  502  0.00000000000E+00  0.00000000000E+00  0.26627022952E+03  0.26627022952E+03  0.00000000000E+00 0.  1.
         21   -1    0    0  502  503 -0.00000000000E+00 -0.00000000000E+00 -0.10844838862E+04  0.10844838862E+04  0.00000000000E+00 0.  1.
    9000007    1    1    2  501    0 -0.10619400788E+01  0.97595841319E+02  0.24887324436E+02  0.41248691480E+03  0.40000000000E+03 0.  1.
   -9000007    1    1    2    0  503  0.10619400788E+01 -0.97595841319E+02 -0.84310098109E+03  0.93826720089E+03  0.40000000000E+03 0.  1.
<mgrwt>
<rscale>  2 0.41173544E+03</rscale>
<asrwt>0</asrwt>
<pdfrwt beam="1">  1       21 0.40964650E-01 0.41173544E+03</pdfrwt>
<pdfrwt beam="2">  1       21 0.16684368E+00 0.41173544E+03</pdfrwt>
<totfact> 0.11059390E+03</totfact>
</mgrwt>
</event>
<event>
 4    1  0.4832791E-002  0.5498802E+03  0.7818608E-02  0.1001522E+00
         21   -1    0    0  503  502  0.00000000000E+00  0.00000000000E+00  0.18985461115E+03  0.18985461115E+03  0.00000000000E+00 0. -1.
         21   -1    0    0  501  503 -0.00000000000E+00 -0.00000000000E+00 -0.16288705108E+04  0.16288705108E+04  0.00000000000E+00 0. -1.
    9000007    1    1    2  501    0 -0.12038932349E+03 -0.35759564939E+03 -0.58386783232E+03  0.80204107332E+03  0.40000000000E+03 0. -1.
   -9000007    1    1    2    0  502  0.12038932349E+03  0.35759564939E+03 -0.85514806728E+03  0.10166840486E+04  0.40000000000E+03 0. -1.
<mgrwt>
<rscale>  2 0.54988020E+03</rscale>
<asrwt>0</asrwt>
<pdfrwt beam="1">  1       21 0.29208401E-01 0.54988020E+03</pdfrwt>
<pdfrwt beam="2">  1       21 0.25059547E+00 0.54988020E+03</pdfrwt>
<totfact> 0.57476471E+02</totfact>
</mgrwt>
</event>
<event>
 4    1  0.4832791E-002  0.4645809E+03  0.7818608E-02  0.1023461E+00
         21   -1    0    0  503  502  0.00000000000E+00  0.00000000000E+00  0.17831928992E+03  0.17831928992E+03  0.00000000000E+00 0. -1.
         21   -1    0    0  501  503 -0.00000000000E+00 -0.00000000000E+00 -0.14416265831E+04  0.14416265831E+04  0.00000000000E+00 0. -1.
    9000007    1    1    2  501    0  0.21342442680E+03  0.10141706450E+03 -0.95604921167E+03  0.10629513169E+04  0.40000000000E+03 0. -1.
   -9000007    1    1    2    0  502 -0.21342442680E+03 -0.10141706450E+03 -0.30725808151E+03  0.55699455615E+03  0.40000000000E+03 0. -1.
<mgrwt>
<rscale>  2 0.46458089E+03</rscale>
<asrwt>0</asrwt>
<pdfrwt beam="1">  1       21 0.27433738E-01 0.46458089E+03</pdfrwt>
<pdfrwt beam="2">  1       21 0.22178870E+00 0.46458089E+03</pdfrwt>
<totfact> 0.10242561E+03</totfact>
</mgrwt>
</event>
<event>
 4    1  0.4832791E-002  0.4232046E+03  0.7818608E-02  0.1036028E+00
         21   -1    0    0  503  502  0.00000000000E+00  0.00000000000E+00  0.87814463403E+02  0.87814463403E+02  0.00000000000E+00 0.  1.
         21   -1    0    0  501  503 -0.00000000000E+00 -0.00000000000E+00 -0.20537558940E+04  0.20537558940E+04  0.00000000000E+00 0.  1.
    9000007    1    1    2  501    0  0.10455276921E+03  0.90392848678E+02 -0.10720208140E+04  0.11525323311E+04  0.40000000000E+03 0.  1.
   -9000007    1    1    2    0  502 -0.10455276921E+03 -0.90392848678E+02 -0.89392061660E+03  0.98903802628E+03  0.40000000000E+03 0.  1.
<mgrwt>
<rscale>  2 0.42320462E+03</rscale>
<asrwt>0</asrwt>
<pdfrwt beam="1">  1       21 0.13509918E-01 0.42320462E+03</pdfrwt>
<pdfrwt beam="2">  1       21 0.31596244E+00 0.42320462E+03</pdfrwt>
<totfact> 0.10691135E+03</totfact>
</mgrwt>
</event>
<event>
 4    1  0.4832791E-002  0.4595257E+03  0.7818608E-02  0.1024919E+00
         21   -1    0    0  503  502  0.00000000000E+00  0.00000000000E+00  0.51559296404E+03  0.51559296404E+03  0.00000000000E+00 0.  1.
         21   -1    0    0  501  503 -0.00000000000E+00 -0.00000000000E+00 -0.51229489743E+03  0.51229489743E+03  0.00000000000E+00 0.  1.
    9000007    1    1    2  501    0  0.22485753786E+03  0.24555408529E+02  0.23180617432E+03  0.51468240972E+03  0.40000000000E+03 0.  1.
   -9000007    1    1    2    0  502 -0.22485753786E+03 -0.24555408529E+02 -0.22850810771E+03  0.51320545175E+03  0.40000000000E+03 0.  1.
<mgrwt>
<rscale>  2 0.45952571E+03</rscale>
<asrwt>0</asrwt>
<pdfrwt beam="1">  1       21 0.79321994E-01 0.45952571E+03</pdfrwt>
<pdfrwt beam="2">  1       21 0.78814600E-01 0.45952571E+03</pdfrwt>
<totfact> 0.17102822E+03</totfact>
</mgrwt>
</event>
<event>
 4    1  0.4832791E-002  0.5178478E+03  0.7818608E-02  0.1009223E+00
         21   -1    0    0  503  502  0.00000000000E+00  0.00000000000E+00  0.14181841546E+03  0.14181841546E+03  0.00000000000E+00 0. -1.
         21   -1    0    0  501  503 -0.00000000000E+00 -0.00000000000E+00 -0.23443812738E+04  0.23443812738E+04  0.00000000000E+00 0.  1.
    9000007    1    1    2  501    0  0.32303788822E+03 -0.61748788704E+02 -0.55456139245E+03  0.75875208608E+03  0.40000000000E+03 0. -1.
   -9000007    1    1    2    0  502 -0.32303788822E+03  0.61748788704E+02 -0.16480014659E+04  0.17274476032E+04  0.40000000000E+03 0.  1.
<mgrwt>
<rscale>  2 0.51784784E+03</rscale>
<asrwt>0</asrwt>
<pdfrwt beam="1">  1       21 0.21818219E-01 0.51784784E+03</pdfrwt>
<pdfrwt beam="2">  1       21 0.36067402E+00 0.51784784E+03</pdfrwt>
<totfact> 0.21949000E+02</totfact>
</mgrwt>
</event>
<event>
 4    1  0.4832791E-002  0.4785127E+03  0.7818608E-02  0.1019545E+00
         21   -1    0    0  503  502  0.00000000000E+00  0.00000000000E+00  0.61049018665E+03  0.61049018665E+03  0.00000000000E+00 0. -1.
         21   -1    0    0  501  503 -0.00000000000E+00 -0.00000000000E+00 -0.39032630245E+03  0.39032630245E+03  0.00000000000E+00 0.  1.
    9000007    1    1    2  501    0 -0.23714354179E+03 -0.11285969299E+03  0.20902518018E+03  0.52217420050E+03  0.40000000000E+03 0. -1.
   -9000007    1    1    2    0  502  0.23714354179E+03  0.11285969299E+03  0.11138704027E+02  0.47864228861E+03  0.40000000000E+03 0.  1.
<mgrwt>
<rscale>  2 0.47851266E+03</rscale>
<asrwt>0</asrwt>
<pdfrwt beam="1">  1       21 0.93921568E-01 0.47851266E+03</pdfrwt>
<pdfrwt beam="2">  1       21 0.60050200E-01 0.47851266E+03</pdfrwt>
<totfact> 0.21042369E+03</totfact>
</mgrwt>
</event>
<event>
 4    1  0.4832791E-002  0.4001595E+03  0.7818608E-02  0.1043724E+00
         21   -1    0    0  501  502  0.00000000000E+00  0.00000000000E+00  0.20784601501E+04  0.20784601501E+04  0.00000000000E+00 0. -1.
         21   -1    0    0  502  503 -0.00000000000E+00 -0.00000000000E+00 -0.13259614837E+03  0.13259614837E+03  0.00000000000E+00 0. -1.
    9000007    1    1    2  501    0  0.22635319147E+01  0.11068319069E+02  0.16885226524E+04  0.17352914392E+04  0.40000000000E+03 0. -1.
   -9000007    1    1    2    0  503 -0.22635319147E+01 -0.11068319069E+02  0.25734134936E+03  0.47576485931E+03  0.40000000000E+03 0. -1.
<mgrwt>
<rscale>  2 0.40015951E+03</rscale>
<asrwt>0</asrwt>
<pdfrwt beam="1">  1       21 0.31976308E+00 0.40015951E+03</pdfrwt>
<pdfrwt beam="2">  1       21 0.20399409E-01 0.40015951E+03</pdfrwt>
<totfact> 0.47654011E+02</totfact>
</mgrwt>
</event>
<event>
 4    1  0.4832791E-002  0.4355914E+03  0.7818608E-02  0.1032108E+00
         21   -1    0    0  501  502  0.00000000000E+00  0.00000000000E+00  0.15632538908E+04  0.15632538908E+04  0.00000000000E+00 0. -1.
         21   -1    0    0  502  503 -0.00000000000E+00 -0.00000000000E+00 -0.12607016554E+03  0.12607016554E+03  0.00000000000E+00 0.  1.
    9000007    1    1    2  501    0  0.11313985801E+03  0.13015078472E+03  0.55558539706E+03  0.70598511858E+03  0.40000000000E+03 0.  1.
   -9000007    1    1    2    0  503 -0.11313985801E+03 -0.13015078472E+03  0.88159832820E+03  0.98333893776E+03  0.40000000000E+03 0.  1.
<mgrwt>
<rscale>  2 0.43559138E+03</rscale>
<asrwt>0</asrwt>
<pdfrwt beam="1">  1       21 0.24050058E+00 0.43559138E+03</pdfrwt>
<pdfrwt beam="2">  1       21 0.19395411E-01 0.43559138E+03</pdfrwt>
<totfact> 0.15469874E+03</totfact>
</mgrwt>
</event>
<event>
 4    1  0.4832791E-002  0.5402726E+03  0.7818608E-02  0.1003771E+00
         21   -1    0    0  501  502  0.00000000000E+00  0.00000000000E+00  0.16080300948E+03  0.16080300948E+03  0.00000000000E+00 0.  1.
         21   -1    0    0  502  503 -0.00000000000E+00 -0.00000000000E+00 -0.18498250879E+04  0.18498250879E+04  0.00000000000E+00 0. -1.
    9000007    1    1    2  501    0  0.35779459802E+03 -0.62269569600E+02 -0.98199201107E+03  0.11208045251E+04  0.40000000000E+03 0. -1.
   -9000007    1    1    2    0  503 -0.35779459802E+03  0.62269569600E+02 -0.70703006736E+03  0.88982357230E+03  0.40000000000E+03 0.  1.
<mgrwt>
<rscale>  2 0.54027259E+03</rscale>
<asrwt>0</asrwt>
<pdfrwt beam="1">  1       21 0.24738924E-01 0.54027259E+03</pdfrwt>
<pdfrwt beam="2">  1       21 0.28458849E+00 0.54027259E+03</pdfrwt>
<totfact> 0.49582768E+02</totfact>
</mgrwt>
</event>
<event>
 4    1  0.4832791E-002  0.5916023E+03  0.7818608E-02  0.9922983E-01
         21   -1    0    0  503  502  0.00000000000E+00  0.00000000000E+00  0.15066056706E+04  0.15066056706E+04  0.00000000000E+00 0. -1.
         21   -1    0    0  501  503 -0.00000000000E+00 -0.00000000000E+00 -0.97014265321E+03  0.97014265321E+03  0.00000000000E+00 0.  1.
    9000007    1    1    2  501    0 -0.36763523361E+02  0.43432899928E+03 -0.81174486355E+03  0.10044515716E+04  0.40000000000E+03 0.  1.
   -9000007    1    1    2    0  502  0.36763523361E+02 -0.43432899928E+03  0.13482078809E+04  0.14722967522E+04  0.40000000000E+03 0. -1.
<mgrwt>
<rscale>  2 0.59160226E+03</rscale>
<asrwt>0</asrwt>
<pdfrwt beam="1">  1       21 0.23178549E+00 0.59160226E+03</pdfrwt>
<pdfrwt beam="2">  1       21 0.14925272E+00 0.59160226E+03</pdfrwt>
<totfact> 0.17984009E+01</totfact>
</mgrwt>
</event>
<event>
 4    1  0.4832791E-002  0.5935167E+03  0.7818608E-02  0.9918949E-01
         21   -1    0    0  501  502  0.00000000000E+00  0.00000000000E+00  0.20976627183E+04  0.20976627183E+04  0.00000000000E+00 0.  1.
         21   -1    0    0  502  503 -0.00000000000E+00 -0.00000000000E+00 -0.16871030061E+03  0.16871030061E+03  0.00000000000E+00 0. -1.
    9000007    1    1    2  501    0 -0.25904237676E+03  0.35377829881E+03  0.88744663111E+03  0.10676251968E+04  0.40000000000E+03 0. -1.
   -9000007    1    1    2    0  503  0.25904237676E+03 -0.35377829881E+03  0.10415057866E+04  0.11987478222E+04  0.40000000000E+03 0.  1.
<mgrwt>
<rscale>  2 0.59351667E+03</rscale>
<asrwt>0</asrwt>
<pdfrwt beam="1">  1       21 0.32271732E+00 0.59351667E+03</pdfrwt>
<pdfrwt beam="2">  1       21 0.25955432E-01 0.59351667E+03</pdfrwt>
<totfact> 0.25821790E+02</totfact>
</mgrwt>
</event>
<event>
 4    1  0.4832791E-002  0.9781549E+03  0.7818608E-02  0.9332834E-01
         21   -1    0    0  501  502  0.00000000000E+00  0.00000000000E+00  0.14673299678E+04  0.14673299678E+04  0.00000000000E+00 0.  1.
         21   -1    0    0  502  503 -0.00000000000E+00 -0.00000000000E+00 -0.65206017787E+03  0.65206017787E+03  0.00000000000E+00 0. -1.
    9000007    1    1    2  501    0  0.82560073168E+03 -0.33936762816E+03  0.40688072431E+03  0.10594049646E+04  0.40000000000E+03 0. -1.
   -9000007    1    1    2    0  503 -0.82560073168E+03  0.33936762816E+03  0.40838906564E+03  0.10599851811E+04  0.40000000000E+03 0.  1.
<mgrwt>
<rscale>  2 0.97815487E+03</rscale>
<asrwt>0</asrwt>
<pdfrwt beam="1">  1       21 0.22574307E+00 0.97815487E+03</pdfrwt>
<pdfrwt beam="2">  1       21 0.10031695E+00 0.97815487E+03</pdfrwt>
<totfact> 0.47926225E+01</totfact>
</mgrwt>
</event>
<event>
 4    1  0.4832791E-002  0.7373714E+03  0.7818608E-02  0.9655374E-01
         21   -1    0    0  503  502  0.00000000000E+00  0.00000000000E+00  0.56290943435E+03  0.56290943435E+03  0.00000000000E+00 0. -1.
         21   -1    0    0  501  503 -0.00000000000E+00 -0.00000000000E+00 -0.13564979375E+04  0.13564979375E+04  0.00000000000E+00 0.  1.
    9000007    1    1    2  501    0  0.56920281152E+03 -0.24438657191E+03 -0.91177403728E+03  0.11726246340E+04  0.40000000000E+03 0.  1.
   -9000007    1    1    2    0  502 -0.56920281152E+03  0.24438657191E+03  0.11818553409E+03  0.74678273791E+03  0.40000000000E+03 0. -1.
<mgrwt>
<rscale>  2 0.73737144E+03</rscale>
<asrwt>0</asrwt>
<pdfrwt beam="1">  1       21 0.86601453E-01 0.73737144E+03</pdfrwt>
<pdfrwt beam="2">  1       21 0.20869199E+00 0.73737144E+03</pdfrwt>
<totfact> 0.95305859E+01</totfact>
</mgrwt>
</event>
<event>
 4    1  0.4832791E-002  0.4403587E+03  0.7818608E-02  0.1030637E+00
         21   -1    0    0  503  502  0.00000000000E+00  0.00000000000E+00  0.62509944145E+03  0.62509944145E+03  0.00000000000E+00 0. -1.
         21   -1    0    0  501  503 -0.00000000000E+00 -0.00000000000E+00 -0.34065481644E+03  0.34065481644E+03  0.00000000000E+00 0. -1.
    9000007    1    1    2  501    0 -0.14319981209E+03  0.11579977519E+03 -0.21201455709E+01  0.44036379181E+03  0.40000000000E+03 0. -1.
   -9000007    1    1    2    0  502  0.14319981209E+03 -0.11579977519E+03  0.28656477058E+03  0.52539046609E+03  0.40000000000E+03 0. -1.
<mgrwt>
<rscale>  2 0.44035869E+03</rscale>
<asrwt>0</asrwt>
<pdfrwt beam="1">  1       21 0.96169145E-01 0.44035869E+03</pdfrwt>
<pdfrwt beam="2">  1       21 0.52408433E-01 0.44035869E+03</pdfrwt>
<totfact> 0.27075341E+03</totfact>
</mgrwt>
</event>
<event>
 4    1  0.4832791E-002  0.4498106E+03  0.7818608E-02  0.1027779E+00
         21   -1    0    0  501  502  0.00000000000E+00  0.00000000000E+00  0.30305568014E+03  0.30305568014E+03  0.00000000000E+00 0. -1.
         21   -1    0    0  502  503 -0.00000000000E+00 -0.00000000000E+00 -0.70141403840E+03  0.70141403840E+03  0.00000000000E+00 0.  1.
    9000007    1    1    2  501    0  0.70515855838E+02  0.19327977333E+03 -0.88958025679E+02  0.45852272249E+03  0.40000000000E+03 0.  1.
   -9000007    1    1    2    0  503 -0.70515855838E+02 -0.19327977333E+03 -0.30940033258E+03  0.54594699606E+03  0.40000000000E+03 0.  1.
<mgrwt>
<rscale>  2 0.44981058E+03</rscale>
<asrwt>0</asrwt>
<pdfrwt beam="1">  1       21 0.46623951E-01 0.44981058E+03</pdfrwt>
<pdfrwt beam="2">  1       21 0.10790985E+00 0.44981058E+03</pdfrwt>
<totfact> 0.26109335E+03</totfact>
</mgrwt>
</event>
<event>
 4    1  0.4832791E-002  0.4197918E+03  0.7818608E-02  0.1037134E+00
         21   -1    0    0  501  502  0.00000000000E+00  0.00000000000E+00  0.55588491250E+03  0.55588491250E+03  0.00000000000E+00 0.  1.
         21   -1    0    0  502  503 -0.00000000000E+00 -0.00000000000E+00 -0.12402096186E+04  0.12402096186E+04  0.00000000000E+00 0.  1.
    9000007    1    1    2  501    0 -0.11434510983E+03 -0.56128217734E+02  0.43265210935E+03  0.60283748116E+03  0.40000000000E+03 0.  1.
   -9000007    1    1    2    0  503  0.11434510983E+03  0.56128217734E+02 -0.11169768154E+04  0.11932570499E+04  0.40000000000E+03 0.  1.
<mgrwt>
<rscale>  2 0.41979183E+03</rscale>
<asrwt>0</asrwt>
<pdfrwt beam="1">  1       21 0.85520756E-01 0.41979183E+03</pdfrwt>
<pdfrwt beam="2">  1       21 0.19080148E+00 0.41979183E+03</pdfrwt>
<totfact> 0.14903312E+02</totfact>
</mgrwt>
</event>
<event>
 4    1  0.4832791E-002  0.4908963E+03  0.7818608E-02  0.1016183E+00
         21   -1    0    0  501  502  0.00000000000E+00  0.00000000000E+00  0.31219595456E+04  0.31219595456E+04  0.00000000000E+00 0.  1.
         21   -1    0    0  502  503 -0.00000000000E+00 -0.00000000000E+00 -0.92310845953E+02  0.92310845953E+02  0.00000000000E+00 0.  1.
    9000007    1    1    2  501    0  0.53311566277E+02  0.27953002088E+03  0.21653083776E+04  0.22202566351E+04  0.40000000000E+03 0.  1.
   -9000007    1    1    2    0  503 -0.53311566277E+02 -0.27953002088E+03  0.86434032205E+03  0.99401375644E+03  0.40000000000E+03 0.  1.
<mgrwt>
<rscale>  2 0.49089628E+03</rscale>
<asrwt>0</asrwt>
<pdfrwt beam="1">  1       21 0.48030139E+00 0.49089628E+03</pdfrwt>
<pdfrwt beam="2">  1       21 0.14201671E-01 0.49089628E+03</pdfrwt>
<totfact> 0.81669544E+01</totfact>
</mgrwt>
</event>
<event>
 4    1  0.4832791E-002  0.4619452E+03  0.7818608E-02  0.1024219E+00
         21   -1    0    0  501  502  0.00000000000E+00  0.00000000000E+00  0.13483844354E+03  0.13483844354E+03  0.00000000000E+00 0.  1.
         21   -1    0    0  502  503 -0.00000000000E+00 -0.00000000000E+00 -0.16633899775E+04  0.16633899775E+04  0.00000000000E+00 0.  1.
    9000007    1    1    2  501    0  0.58226216279E+02  0.22361371407E+03 -0.56610703057E+03  0.73066446160E+03  0.40000000000E+03 0.  1.
   -9000007    1    1    2    0  503 -0.58226216279E+02 -0.22361371407E+03 -0.96244450336E+03  0.10675639594E+04  0.40000000000E+03 0.  1.
<mgrwt>
<rscale>  2 0.46194522E+03</rscale>
<asrwt>0</asrwt>
<pdfrwt beam="1">  1       21 0.20744375E-01 0.46194522E+03</pdfrwt>
<pdfrwt beam="2">  1       21 0.25590616E+00 0.46194522E+03</pdfrwt>
<totfact> 0.10802613E+03</totfact>
</mgrwt>
</event>
<event>
 4    1  0.4832791E-002  0.4035121E+03  0.7818608E-02  0.1042570E+00
         21   -1    0    0  503  502  0.00000000000E+00  0.00000000000E+00  0.16618875623E+03  0.16618875623E+03  0.00000000000E+00 0. -1.
         21   -1    0    0  501  503 -0.00000000000E+00 -0.00000000000E+00 -0.14749770272E+04  0.14749770272E+04  0.00000000000E+00 0. -1.
    9000007    1    1    2  501    0 -0.29891708692E+02  0.43915041729E+02 -0.11298778683E+04  0.11997691621E+04  0.40000000000E+03 0. -1.
   -9000007    1    1    2    0  502  0.29891708692E+02 -0.43915041729E+02 -0.17891040274E+03  0.44139662136E+03  0.40000000000E+03 0. -1.
<mgrwt>
<rscale>  2 0.40351214E+03</rscale>
<asrwt>0</asrwt>
<pdfrwt beam="1">  1       21 0.25567502E-01 0.40351214E+03</pdfrwt>
<pdfrwt beam="2">  1       21 0.22691954E+00 0.40351214E+03</pdfrwt>
<totfact> 0.11241789E+03</totfact>
</mgrwt>
</event>
<event>
 4    1  0.4832791E-002  0.4410284E+03  0.7818608E-02  0.1030432E+00
         21   -1    0    0  501  502  0.00000000000E+00  0.00000000000E+00  0.14815976052E+04  0.14815976052E+04  0.00000000000E+00 0.  1.
         21   -1    0    0  502  503 -0.00000000000E+00 -0.00000000000E+00 -0.13520122947E+03  0.13520122947E+03  0.00000000000E+00 0.  1.
    9000007    1    1    2  501    0  0.13501667850E+03 -0.12757958623E+03  0.81084780235E+03  0.92302774220E+03  0.40000000000E+03 0.  1.
   -9000007    1    1    2    0  503 -0.13501667850E+03  0.12757958623E+03  0.53554857335E+03  0.69377109244E+03  0.40000000000E+03 0.  1.
<mgrwt>
<rscale>  2 0.44102841E+03</rscale>
<asrwt>0</asrwt>
<pdfrwt beam="1">  1       21 0.22793808E+00 0.44102841E+03</pdfrwt>
<pdfrwt beam="2">  1       21 0.20800190E-01 0.44102841E+03</pdfrwt>
<totfact> 0.16183863E+03</totfact>
</mgrwt>
</event>
<event>
 4    1  0.4832791E-002  0.4848463E+03  0.7818608E-02  0.1017812E+00
         21   -1    0    0  501  502  0.00000000000E+00  0.00000000000E+00  0.14068591142E+04  0.14068591142E+04  0.00000000000E+00 0. -1.
         21   -1    0    0  502  503 -0.00000000000E+00 -0.00000000000E+00 -0.30330009209E+03  0.30330009209E+03  0.00000000000E+00 0. -1.
    9000007    1    1    2  501    0 -0.27396742025E+03 -0.42204947159E+01  0.11248005044E+04  0.12248478006E+04  0.40000000000E+03 0. -1.
   -9000007    1    1    2    0  503  0.27396742025E+03  0.42204947159E+01 -0.21241482292E+02  0.48531140570E+03  0.40000000000E+03 0. -1.
<mgrwt>
<rscale>  2 0.48484633E+03</rscale>
<asrwt>0</asrwt>
<pdfrwt beam="1">  1       21 0.21643986E+00 0.48484633E+03</pdfrwt>
<pdfrwt beam="2">  1       21 0.46661553E-01 0.48484633E+03</pdfrwt>
<totfact> 0.37267014E+02</totfact>
</mgrwt>
</event>
<event>
 4    1  0.4832791E-002  0.5059836E+03  0.7818608E-02  0.1012229E+00
         21   -1    0    0  501  502  0.00000000000E+00  0.00000000000E+00  0.42718905657E+03  0.42718905657E+03  0.00000000000E+00 0. -1.
         21   -1    0    0  502  503 -0.00000000000E+00 -0.00000000000E+00 -0.62226375436E+03  0.62226375436E+03  0.00000000000E+00 0. -1.
    9000007    1    1    2  501    0  0.13997700142E+03  0.27645220307E+03  0.32385898051E+01  0.50599394262E+03  0.40000000000E+03 0. -1.
   -9000007    1    1    2    0  503 -0.13997700142E+03 -0.27645220307E+03 -0.19831328759E+03  0.54345886831E+03  0.40000000000E+03 0. -1.
<mgrwt>
<rscale>  2 0.50598358E+03</rscale>
<asrwt>0</asrwt>
<pdfrwt beam="1">  1       21 0.65721394E-01 0.50598358E+03</pdfrwt>
<pdfrwt beam="2">  1       21 0.95732885E-01 0.50598358E+03</pdfrwt>
<totfact> 0.16303725E+03</totfact>
</mgrwt>
</event>
<event>
 4    1  0.4832791E-002  0.4130309E+03  0.7818608E-02  0.1039359E+00
         21   -1    0    0  501  502  0.00000000000E+00  0.00000000000E+00  0.51413767089E+03  0.51413767089E+03  0.00000000000E+00 0. -1.
         21   -1    0    0  502  503 -0.00000000000E+00 -0.00000000000E+00 -0.38420805803E+03  0.38420805803E+03  0.00000000000E+00 0. -1.
    9000007    1    1    2  501    0  0.70780799183E+02  0.74730384278E+02  0.23084697759E+03  0.47316474819E+03  0.40000000000E+03 0.  1.
   -9000007    1    1    2    0  503 -0.70780799183E+02 -0.74730384278E+02 -0.10091736473E+03  0.42518098073E+03  0.40000000000E+03 0.  1.
<mgrwt>
<rscale>  2 0.41303093E+03</rscale>
<asrwt>0</asrwt>
<pdfrwt beam="1">  1       21 0.79098103E-01 0.41303093E+03</pdfrwt>
<pdfrwt beam="2">  1       21 0.59108932E-01 0.41303093E+03</pdfrwt>
<totfact> 0.33383586E+03</totfact>
</mgrwt>
</event>
<event>
 4    1  0.4832791E-002  0.4011822E+03  0.7818608E-02  0.1043371E+00
         21   -1    0    0  501  502  0.00000000000E+00  0.00000000000E+00  0.21353382556E+03  0.21353382556E+03  0.00000000000E+00 0. -1.
         21   -1    0    0  502  503 -0.00000000000E+00 -0.00000000000E+00 -0.76428088941E+03  0.76428088941E+03  0.00000000000E+00 0. -1.
    9000007    1    1    2  501    0  0.30581138871E+02 -0.34587546635E+01 -0.21793360368E+03  0.45655473347E+03  0.40000000000E+03 0. -1.
   -9000007    1    1    2    0  503 -0.30581138871E+02  0.34587546635E+01 -0.33281346017E+03  0.52125998150E+03  0.40000000000E+03 0. -1.
<mgrwt>
<rscale>  2 0.40118221E+03</rscale>
<asrwt>0</asrwt>
<pdfrwt beam="1">  1       21 0.32851358E-01 0.40118221E+03</pdfrwt>
<pdfrwt beam="2">  1       21 0.11758167E+00 0.40118221E+03</pdfrwt>
<totfact> 0.44063916E+03</totfact>
</mgrwt>
</event>
<event>
 4    1  0.4832791E-002  0.4332272E+03  0.7818608E-02  0.1032845E+00
         21   -1    0    0  503  502  0.00000000000E+00  0.00000000000E+00  0.14888216439E+03  0.14888216439E+03  0.00000000000E+00 0.  1.
         21   -1    0    0  501  503 -0.00000000000E+00 -0.00000000000E+00 -0.13748866747E+04  0.13748866747E+04  0.00000000000E+00 0.  1.
    9000007    1    1    2  501    0 -0.13805594812E+03 -0.92878054818E+02 -0.83263172997E+03  0.93859542702E+03  0.40000000000E+03 0.  1.
   -9000007    1    1    2    0  502  0.13805594812E+03  0.92878054818E+02 -0.39337278034E+03  0.58517341207E+03  0.40000000000E+03 0.  1.
<mgrwt>
<rscale>  2 0.43322717E+03</rscale>
<asrwt>0</asrwt>
<pdfrwt beam="1">  1       21 0.22904947E-01 0.43322717E+03</pdfrwt>
<pdfrwt beam="2">  1       21 0.21152104E+00 0.43322717E+03</pdfrwt>
<totfact> 0.17190430E+03</totfact>
</mgrwt>
</event>
<event>
 4    1  0.4832791E-002  0.4378026E+03  0.7818608E-02  0.1031423E+00
         21   -1    0    0  501  502  0.00000000000E+00  0.00000000000E+00  0.18242055843E+04  0.18242055843E+04  0.00000000000E+00 0. -1.
         21   -1    0    0  502  503 -0.00000000000E+00 -0.00000000000E+00 -0.27267118106E+03  0.27267118106E+03  0.00000000000E+00 0.  1.
    9000007    1    1    2  501    0 -0.17167830406E+03 -0.46879700801E+02  0.15977457893E+04  0.16566420114E+04  0.40000000000E+03 0. -1.
   -9000007    1    1    2    0  503  0.17167830406E+03  0.46879700801E+02 -0.46211386100E+02  0.44023475401E+03  0.40000000000E+03 0.  1.
<mgrwt>
<rscale>  2 0.43780263E+03</rscale>
<asrwt>0</asrwt>
<pdfrwt beam="1">  1       21 0.28064701E+00 0.43780263E+03</pdfrwt>
<pdfrwt beam="2">  1       21 0.41949414E-01 0.43780263E+03</pdfrwt>
<totfact> 0.19147941E+02</totfact>
</mgrwt>
</event>
<event>
 4    1  0.4832791E-002  0.4095618E+03  0.7818608E-02  0.1040518E+00
         21   -1    0    0  503  502  0.00000000000E+00  0.00000000000E+00  0.18727206181E+04  0.18727206181E+04  0.00000000000E+00 0.  1.
         21   -1    0    0  501  503 -0.00000000000E+00 -0.00000000000E+00 -0.10443111070E+03  0.10443111070E+03  0.00000000000E+00 0.  1.
    9000007    1    1    2  501    0 -0.82740721013E+02  0.29913581924E+02  0.51122891409E+03  0.65505408318E+03  0.40000000000E+03 0.  1.
   -9000007    1    1    2    0  502  0.82740721013E+02 -0.29913581924E+02  0.12570605933E+04  0.13220976457E+04  0.40000000000E+03 0.  1.
<mgrwt>
<rscale>  2 0.40956178E+03</rscale>
<asrwt>0</asrwt>
<pdfrwt beam="1">  1       21 0.28811084E+00 0.40956178E+03</pdfrwt>
<pdfrwt beam="2">  1       21 0.16066326E-01 0.40956178E+03</pdfrwt>
<totfact> 0.11486105E+03</totfact>
</mgrwt>
</event>
<event>
 4    1  0.4832791E-002  0.4703472E+03  0.7818608E-02  0.1021822E+00
         21   -1    0    0  503  502  0.00000000000E+00  0.00000000000E+00  0.31595238586E+03  0.31595238586E+03  0.00000000000E+00 0. -1.
         21   -1    0    0  501  503 -0.00000000000E+00 -0.00000000000E+00 -0.86794566517E+03  0.86794566517E+03  0.00000000000E+00 0. -1.
    9000007    1    1    2  501    0 -0.71851895215E+02  0.23677802676E+03 -0.53623861341E+03  0.71328702449E+03  0.40000000000E+03 0. -1.
   -9000007    1    1    2    0  502  0.71851895215E+02 -0.23677802676E+03 -0.15754665905E+02  0.47061102654E+03  0.40000000000E+03 0. -1.
<mgrwt>
<rscale>  2 0.47034724E+03</rscale>
<asrwt>0</asrwt>
<pdfrwt beam="1">  1       21 0.48608061E-01 0.47034724E+03</pdfrwt>
<pdfrwt beam="2">  1       21 0.13353010E+00 0.47034724E+03</pdfrwt>
<totfact> 0.13806010E+03</totfact>
</mgrwt>
</event>
<event>
 4    1  0.4832791E-002  0.4624195E+03  0.7818608E-02  0.1024082E+00
         21   -1    0    0  501  502  0.00000000000E+00  0.00000000000E+00  0.14890955045E+04  0.14890955045E+04  0.00000000000E+00 0. -1.
         21   -1    0    0  502  503 -0.00000000000E+00 -0.00000000000E+00 -0.18513738691E+03  0.18513738691E+03  0.00000000000E+00 0.  1.
    9000007    1    1    2  501    0  0.21121222352E+03  0.96027210303E+02  0.10485002665E+04  0.11459426850E+04  0.40000000000E+03 0. -1.
   -9000007    1    1    2    0  503 -0.21121222352E+03 -0.96027210303E+02  0.25545785109E+03  0.52829020639E+03  0.40000000000E+03 0.  1.
<mgrwt>
<rscale>  2 0.46241954E+03</rscale>
<asrwt>0</asrwt>
<pdfrwt beam="1">  1       21 0.22909161E+00 0.46241954E+03</pdfrwt>
<pdfrwt beam="2">  1       21 0.28482676E-01 0.46241954E+03</pdfrwt>
<totfact> 0.85584900E+02</totfact>
</mgrwt>
</event>
<event>
 4    1  0.4832791E-002  0.7239170E+03  0.7818608E-02  0.9677183E-01
         21   -1    0    0  503  502  0.00000000000E+00  0.00000000000E+00  0.22133584483E+04  0.22133584483E+04  0.00000000000E+00 0.  1.
         21   -1    0    0  501  503 -0.00000000000E+00 -0.00000000000E+00 -0.39634105112E+03  0.39634105112E+03  0.00000000000E+00 0. -1.
    9000007    1    1    2  501    0  0.32006710181E+03 -0.51148099077E+03  0.80559436293E+02  0.72838559593E+03  0.40000000000E+03 0. -1.
   -9000007    1    1    2    0  502 -0.32006710181E+03  0.51148099077E+03  0.17364579609E+04  0.18813139035E+04  0.40000000000E+03 0.  1.
<mgrwt>
<rscale>  2 0.72391695E+03</rscale>
<asrwt>0</asrwt>
<pdfrwt beam="1">  1       21 0.34051668E+00 0.72391695E+03</pdfrwt>
<pdfrwt beam="2">  1       21 0.60975547E-01 0.72391695E+03</pdfrwt>
<totfact> 0.32043496E+01</totfact>
</mgrwt>
</event>
<event>
 4    1  0.4832791E-002  0.4862219E+03  0.7818608E-02  0.1017439E+00
         21   -1    0    0  503  502  0.00000000000E+00  0.00000000000E+00  0.26985702046E+03  0.26985702046E+03  0.00000000000E+00 0. -1.
         21   -1    0    0  501  503 -0.00000000000E+00 -0.00000000000E+00 -0.90912877272E+03  0.90912877272E+03  0.00000000000E+00 0.  1.
    9000007    1    1    2  501    0 -0.23157033281E+03 -0.15095325063E+03 -0.43205918955E+03  0.65045126350E+03  0.40000000000E+03 0.  1.
   -9000007    1    1    2    0  502  0.23157033281E+03  0.15095325063E+03 -0.20721256271E+03  0.52853452968E+03  0.40000000000E+03 0. -1.
<mgrwt>
<rscale>  2 0.48622187E+03</rscale>
<asrwt>0</asrwt>
<pdfrwt beam="1">  1       21 0.41516465E-01 0.48622187E+03</pdfrwt>
<pdfrwt beam="2">  1       21 0.13986596E+00 0.48622187E+03</pdfrwt>
<totfact> 0.16901229E+03</totfact>
</mgrwt>
</event>
<event>
 4    1  0.4832791E-002  0.4020557E+03  0.7818608E-02  0.1043070E+00
         21   -1    0    0  503  502  0.00000000000E+00  0.00000000000E+00  0.10309985991E+03  0.10309985991E+03  0.00000000000E+00 0.  1.
         21   -1    0    0  501  503 -0.00000000000E+00 -0.00000000000E+00 -0.21645655544E+04  0.21645655544E+04  0.00000000000E+00 0.  1.
    9000007    1    1    2  501    0 -0.22472703542E+02 -0.33819155641E+02 -0.16260308590E+04  0.16750000334E+04  0.40000000000E+03 0. -1.
   -9000007    1    1    2    0  502  0.22472703542E+02  0.33819155641E+02 -0.43543483553E+03  0.59266538087E+03  0.40000000000E+03 0. -1.
<mgrwt>
<rscale>  2 0.40205566E+03</rscale>
<asrwt>0</asrwt>
<pdfrwt beam="1">  1       21 0.15861519E-01 0.40205566E+03</pdfrwt>
<pdfrwt beam="2">  1       21 0.33301004E+00 0.40205566E+03</pdfrwt>
<totfact> 0.63561660E+02</totfact>
</mgrwt>
</event>
<event>
 4    1  0.4832791E-002  0.5279460E+03  0.7818608E-02  0.1006731E+00
         21   -1    0    0  503  502  0.00000000000E+00  0.00000000000E+00  0.24990512404E+04  0.24990512404E+04  0.00000000000E+00 0. -1.
         21   -1    0    0  501  503 -0.00000000000E+00 -0.00000000000E+00 -0.16863926198E+03  0.16863926198E+03  0.00000000000E+00 0. -1.
    9000007    1    1    2  501    0 -0.19440323877E+03 -0.28448973813E+03  0.38901707248E+03  0.65579060151E+03  0.40000000000E+03 0. -1.
   -9000007    1    1    2    0  502  0.19440323877E+03  0.28448973813E+03  0.19413949060E+04  0.20118999009E+04  0.40000000000E+03 0. -1.
<mgrwt>
<rscale>  2 0.52794605E+03</rscale>
<asrwt>0</asrwt>
<pdfrwt beam="1">  1       21 0.38446939E+00 0.52794605E+03</pdfrwt>
<pdfrwt beam="2">  1       21 0.25944504E-01 0.52794605E+03</pdfrwt>
<totfact> 0.11049329E+02</totfact>
</mgrwt>
</event>
<event>
 4    1  0.4832791E-002  0.4125769E+03  0.7818608E-02  0.1039510E+00
         21   -1    0    0  503  502  0.00000000000E+00  0.00000000000E+00  0.13653328064E+04  0.13653328064E+04  0.00000000000E+00 0.  1.
         21   -1    0    0  501  503 -0.00000000000E+00 -0.00000000000E+00 -0.18133220096E+03  0.18133220096E+03  0.00000000000E+00 0.  1.
    9000007    1    1    2  501    0 -0.82460522506E+02 -0.58480345587E+02  0.15972016698E+03  0.44241408243E+03  0.40000000000E+03 0.  1.
   -9000007    1    1    2    0  502  0.82460522506E+02  0.58480345587E+02  0.10242804385E+04  0.11042509250E+04  0.40000000000E+03 0.  1.
<mgrwt>
<rscale>  2 0.41257689E+03</rscale>
<asrwt>0</asrwt>
<pdfrwt beam="1">  1       21 0.21005119E+00 0.41257689E+03</pdfrwt>
<pdfrwt beam="2">  1       21 0.27897263E-01 0.41257689E+03</pdfrwt>
<totfact> 0.12091044E+03</totfact>
</mgrwt>
</event>
<event>
 4    1  0.4832791E-002  0.4159494E+03  0.7818608E-02  0.1038393E+00
         21   -1    0    0  501  502  0.00000000000E+00  0.00000000000E+00  0.39228381549E+03  0.39228381549E+03  0.00000000000E+00 0. -1.
         21   -1    0    0  502  503 -0.00000000000E+00 -0.00000000000E+00 -0.44104271086E+03  0.44104271086E+03  0.00000000000E+00 0. -1.
    9000007    1    1    2  501    0  0.75597767822E+02  0.85433366129E+02 -0.24566481839E+02  0.41667420676E+03  0.40000000000E+03 0. -1.
   -9000007    1    1    2    0  503 -0.75597767822E+02 -0.85433366129E+02 -0.24192413536E+02  0.41665231959E+03  0.40000000000E+03 0. -1.
<mgrwt>
<rscale>  2 0.41594937E+03</rscale>
<asrwt>0</asrwt>
<pdfrwt beam="1">  1       21 0.60351357E-01 0.41594937E+03</pdfrwt>
<pdfrwt beam="2">  1       21 0.67852724E-01 0.41594937E+03</pdfrwt>
<totfact> 0.45112629E+03</totfact>
</mgrwt>
</event>
<event>
 4    1  0.4832791E-002  0.4007014E+03  0.7818608E-02  0.1043537E+00
         21   -1    0    0  501  502  0.00000000000E+00  0.00000000000E+00  0.99339278380E+03  0.99339278380E+03  0.00000000000E+00 0.  1.
         21   -1    0    0  502  503 -0.00000000000E+00 -0.00000000000E+00 -0.54023690032E+03  0.54023690032E+03  0.00000000000E+00 0.  1.
    9000007    1    1    2  501    0  0.76841999966E+01  0.22417313172E+02  0.86851571998E+03  0.95649419168E+03  0.40000000000E+03 0.  1.
   -9000007    1    1    2    0  503 -0.76841999966E+01 -0.22417313172E+02 -0.41535983650E+03  0.57713549244E+03  0.40000000000E+03 0.  1.
<mgrwt>
<rscale>  2 0.40070136E+03</rscale>
<asrwt>0</asrwt>
<pdfrwt beam="1">  1       21 0.15282966E+00 0.40070136E+03</pdfrwt>
<pdfrwt beam="2">  1       21 0.83113370E-01 0.40070136E+03</pdfrwt>
<totfact> 0.30312749E+02</totfact>
</mgrwt>
</event>
<event>
 4    1  0.4832791E-002  0.4121578E+03  0.7818608E-02  0.1039649E+00
         21   -1    0    0  501  502  0.00000000000E+00  0.00000000000E+00  0.26992496939E+04  0.26992496939E+04  0.00000000000E+00 0.  1.
         21   -1    0    0  502  503 -0.00000000000E+00 -0.00000000000E+00 -0.17043471097E+03  0.17043471097E+03  0.00000000000E+00 0.  1.
    9000007    1    1    2  501    0  0.16940534644E+02 -0.97913684611E+02  0.24039516699E+04  0.24390280241E+04  0.40000000000E+03 0.  1.
   -9000007    1    1    2    0  503 -0.16940534644E+02  0.97913684611E+02  0.12486331307E+03  0.43065638077E+03  0.40000000000E+03 0.  1.
<mgrwt>
<rscale>  2 0.41215782E+03</rscale>
<asrwt>0</asrwt>
<pdfrwt beam="1">  1       21 0.41526915E+00 0.41215782E+03</pdfrwt>
<pdfrwt beam="2">  1       21 0.26220727E-01 0.41215782E+03</pdfrwt>
<totfact> 0.74207855E+01</totfact>
</mgrwt>
</event>
<event>
 4    1  0.4832791E-002  0.4279814E+03  0.7818608E-02  0.1034500E+00
         21   -1    0    0  503  502  0.00000000000E+00  0.00000000000E+00  0.75931046267E+03  0.75931046267E+03  0.00000000000E+00 0.  1.
         21   -1    0    0  501  503 -0.00000000000E+00 -0.00000000000E+00 -0.50765857150E+03  0.50765857150E+03  0.00000000000E+00 0.  1.
    9000007    1    1    2  501    0 -0.46951936215E+02 -0.14478806906E+03 -0.33309825892E+03  0.54233063656E+03  0.40000000000E+03 0.  1.
   -9000007    1    1    2    0  502  0.46951936215E+02  0.14478806906E+03  0.58475015010E+03  0.72463839761E+03  0.40000000000E+03 0.  1.
<mgrwt>
<rscale>  2 0.42798139E+03</rscale>
<asrwt>0</asrwt>
<pdfrwt beam="1">  1       21 0.11681699E+00 0.42798139E+03</pdfrwt>
<pdfrwt beam="2">  1       21 0.78101319E-01 0.42798139E+03</pdfrwt>
<totfact> 0.69692551E+02</totfact>
</mgrwt>
</event>
<event>
 4    1  0.4832791E-002  0.4372894E+03  0.7818608E-02  0.1031582E+00
         21   -1    0    0  501  502  0.00000000000E+00  0.00000000000E+00  0.14252196004E+03  0.14252196004E+03  0.00000000000E+00 0. -1.
         21   -1    0    0  502  503 -0.00000000000E+00 -0.00000000000E+00 -0.14469530130E+04  0.14469530130E+04  0.00000000000E+00 0. -1.
    9000007    1    1    2  501    0 -0.17372906580E+03  0.32251940484E+02 -0.43787220439E+03  0.61883280726E+03  0.40000000000E+03 0. -1.
   -9000007    1    1    2    0  503  0.17372906580E+03 -0.32251940484E+02 -0.86655884861E+03  0.97064216583E+03  0.40000000000E+03 0. -1.
<mgrwt>
<rscale>  2 0.43728935E+03</rscale>
<asrwt>0</asrwt>
<pdfrwt beam="1">  1       21 0.21926454E-01 0.43728935E+03</pdfrwt>
<pdfrwt beam="2">  1       21 0.22260817E+00 0.43728935E+03</pdfrwt>
<totfact> 0.15838589E+03</totfact>
</mgrwt>
</event>
<event>
 4    1  0.4832791E-002  0.5105875E+03  0.7818608E-02  0.1011052E+00
         21   -1    0    0  503  502  0.00000000000E+00  0.00000000000E+00  0.31148950433E+03  0.31148950433E+03  0.00000000000E+00 0. -1.
         21   -1    0    0  501  503 -0.00000000000E+00 -0.00000000000E+00 -0.12000831771E+04  0.12000831771E+04  0.00000000000E+00 0. -1.
    9000007    1    1    2  501    0 -0.27415907882E+03  0.15980115401E+03 -0.86004397527E+03  0.10001876068E+04  0.40000000000E+03 0. -1.
   -9000007    1    1    2    0  502  0.27415907882E+03 -0.15980115401E+03 -0.28549697453E+02  0.51138507462E+03  0.40000000000E+03 0. -1.
<mgrwt>
<rscale>  2 0.51058751E+03</rscale>
<asrwt>0</asrwt>
<pdfrwt beam="1">  1       21 0.47921463E-01 0.51058751E+03</pdfrwt>
<pdfrwt beam="2">  1       21 0.18462818E+00 0.51058751E+03</pdfrwt>
<totfact> 0.56886257E+02</totfact>
</mgrwt>
</event>
<event>
 4    1  0.4832791E-002  0.5334611E+03  0.7818608E-02  0.1005396E+00
         21   -1    0    0  501  502  0.00000000000E+00  0.00000000000E+00  0.23350020053E+03  0.23350020053E+03  0.00000000000E+00 0. -1.
         21   -1    0    0  502  503 -0.00000000000E+00 -0.00000000000E+00 -0.15193712338E+04  0.15193712338E+04  0.00000000000E+00 0. -1.
    9000007    1    1    2  501    0 -0.30605134452E+03 -0.17582198246E+03 -0.25309188793E+03  0.59045431554E+03  0.40000000000E+03 0. -1.
   -9000007    1    1    2    0  503  0.30605134452E+03  0.17582198246E+03 -0.10327791453E+04  0.11624171188E+04  0.40000000000E+03 0. -1.
<mgrwt>
<rscale>  2 0.53346115E+03</rscale>
<asrwt>0</asrwt>
<pdfrwt beam="1">  1       21 0.35923108E-01 0.53346115E+03</pdfrwt>
<pdfrwt beam="2">  1       21 0.23374942E+00 0.53346115E+03</pdfrwt>
<totfact> 0.48624642E+02</totfact>
</mgrwt>
</event>
<event>
 4    1  0.4832791E-002  0.4800246E+03  0.7818608E-02  0.1019128E+00
         21   -1    0    0  501  502  0.00000000000E+00  0.00000000000E+00  0.24750857950E+04  0.24750857950E+04  0.00000000000E+00 0. -1.
         21   -1    0    0  502  503 -0.00000000000E+00 -0.00000000000E+00 -0.97853801201E+02  0.97853801201E+02  0.00000000000E+00 0. -1.
    9000007    1    1    2  501    0  0.23788419140E+03  0.11762113645E+03  0.14722497774E+04  0.15485293110E+04  0.40000000000E+03 0. -1.
   -9000007    1    1    2    0  503 -0.23788419140E+03 -0.11762113645E+03  0.90498221648E+03  0.10244102852E+04  0.40000000000E+03 0. -1.
<mgrwt>
<rscale>  2 0.48002460E+03</rscale>
<asrwt>0</asrwt>
<pdfrwt beam="1">  1       21 0.38078238E+00 0.48002460E+03</pdfrwt>
<pdfrwt beam="2">  1       21 0.15054433E-01 0.48002460E+03</pdfrwt>
<totfact> 0.33843115E+02</totfact>
</mgrwt>
</event>
<event>
 4    1  0.4832791E-002  0.4466916E+03  0.7818608E-02  0.1028713E+00
         21   -1    0    0  503  502  0.00000000000E+00  0.00000000000E+00  0.75564060006E+03  0.75564060006E+03  0.00000000000E+00 0.  1.
         21   -1    0    0  501  503 -0.00000000000E+00 -0.00000000000E+00 -0.36232008796E+03  0.36232008796E+03  0.00000000000E+00 0.  1.
    9000007    1    1    2  501    0 -0.19418994890E+03 -0.42704152629E+02 -0.94439640432E+02  0.45656568705E+03  0.40000000000E+03 0.  1.
   -9000007    1    1    2    0  502  0.19418994890E+03  0.42704152629E+02  0.48776015253E+03  0.66139500097E+03  0.40000000000E+03 0.  1.
<mgrwt>
<rscale>  2 0.44669159E+03</rscale>
<asrwt>0</asrwt>
<pdfrwt beam="1">  1       21 0.11625240E+00 0.44669159E+03</pdfrwt>
<pdfrwt beam="2">  1       21 0.55741552E-01 0.44669159E+03</pdfrwt>
<totfact> 0.14835969E+03</totfact>
</mgrwt>
</event>
<event>
 4    1  0.4832791E-002  0.4207614E+03  0.7818608E-02  0.1036819E+00
         21   -1    0    0  503  502  0.00000000000E+00  0.00000000000E+00  0.84807321572E+03  0.84807321572E+03  0.00000000000E+00 0. -1.
         21   -1    0    0  501  503 -0.00000000000E+00 -0.00000000000E+00 -0.25514352343E+03  0.25514352343E+03  0.00000000000E+00 0. -1.
    9000007    1    1    2  501    0 -0.13029980487E+03  0.78828389297E+01  0.61263265210E+02  0.42519803147E+03  0.40000000000E+03 0. -1.
   -9000007    1    1    2    0  502  0.13029980487E+03 -0.78828389297E+01  0.53166642708E+03  0.67801870769E+03  0.40000000000E+03 0. -1.
<mgrwt>
<rscale>  2 0.42076143E+03</rscale>
<asrwt>0</asrwt>
<pdfrwt beam="1">  1       21 0.13047280E+00 0.42076143E+03</pdfrwt>
<pdfrwt beam="2">  1       21 0.39252850E-01 0.42076143E+03</pdfrwt>
<totfact> 0.23358321E+03</totfact>
</mgrwt>
</event>
<event>
 4    1  0.4832791E-002  0.4562115E+03  0.7818608E-02  0.1025886E+00
         21   -1    0    0  503  502  0.00000000000E+00  0.00000000000E+00  0.95605036853E+03  0.95605036853E+03  0.00000000000E+00 0. -1.
         21   -1    0    0  501  503 -0.00000000000E+00 -0.00000000000E+00 -0.62375552493E+03  0.62375552493E+03  0.00000000000E+00 0. -1.
    9000007    1    1    2  501    0 -0.59859163692E+02 -0.21105872003E+03 -0.47117774473E+03  0.65584858764E+03  0.40000000000E+03 0. -1.
   -9000007    1    1    2    0  502  0.59859163692E+02  0.21105872003E+03  0.80347258834E+03  0.92395730582E+03  0.40000000000E+03 0. -1.
<mgrwt>
<rscale>  2 0.45621147E+03</rscale>
<asrwt>0</asrwt>
<pdfrwt beam="1">  1       21 0.14708467E+00 0.45621147E+03</pdfrwt>
<pdfrwt beam="2">  1       21 0.95962389E-01 0.45621147E+03</pdfrwt>
<totfact> 0.23260466E+02</totfact>
</mgrwt>
</event>
<event>
 4    1  0.4832791E-002  0.5860885E+03  0.7818608E-02  0.9934696E-01
         21   -1    0    0  501  502  0.00000000000E+00  0.00000000000E+00  0.43553950230E+03  0.43553950230E+03  0.00000000000E+00 0.  1.
         21   -1    0    0  502  503 -0.00000000000E+00 -0.00000000000E+00 -0.91245140085E+03  0.91245140085E+03  0.00000000000E+00 0.  1.
    9000007    1    1    2  501    0  0.24036861213E+02 -0.42769377385E+03 -0.48669410198E+03  0.76182076881E+03  0.40000000000E+03 0.  1.
   -9000007    1    1    2    0  503 -0.24036861213E+02  0.42769377385E+03  0.97822034255E+01  0.58617013434E+03  0.40000000000E+03 0.  1.
<mgrwt>
<rscale>  2 0.58608850E+03</rscale>
<asrwt>0</asrwt>
<pdfrwt beam="1">  1       21 0.67006078E-01 0.58608850E+03</pdfrwt>
<pdfrwt beam="2">  1       21 0.14037714E+00 0.58608850E+03</pdfrwt>
<totfact> 0.57570212E+02</totfact>
</mgrwt>
</event>
<event>
 4    1  0.4832791E-002  0.5224766E+03  0.7818608E-02  0.1008073E+00
         21   -1    0    0  503  502  0.00000000000E+00  0.00000000000E+00  0.11271253869E+03  0.11271253869E+03  0.00000000000E+00 0.  1.
         21   -1    0    0  501  503 -0.00000000000E+00 -0.00000000000E+00 -0.29248912018E+04  0.29248912018E+04  0.00000000000E+00 0. -1.
    9000007    1    1    2  501    0  0.13190628379E+02 -0.33586868635E+03 -0.20359056886E+04  0.21018786216E+04  0.40000000000E+03 0. -1.
   -9000007    1    1    2    0  502 -0.13190628379E+02  0.33586868635E+03 -0.77627297451E+03  0.93572511888E+03  0.40000000000E+03 0.  1.
<mgrwt>
<rscale>  2 0.52247657E+03</rscale>
<asrwt>0</asrwt>
<pdfrwt beam="1">  1       21 0.17340389E-01 0.52247657E+03</pdfrwt>
<pdfrwt beam="2">  1       21 0.44998329E+00 0.52247657E+03</pdfrwt>
<totfact> 0.89295675E+01</totfact>
</mgrwt>
</event>
<event>
 4    1  0.4832791E-002  0.5883256E+03  0.7818608E-02  0.9929927E-01
         21   -1    0    0  501  502  0.00000000000E+00  0.00000000000E+00  0.11869996378E+04  0.11869996378E+04  0.00000000000E+00 0. -1.
         21   -1    0    0  502  503 -0.00000000000E+00 -0.00000000000E+00 -0.31294274545E+03  0.31294274545E+03  0.00000000000E+00 0. -1.
    9000007    1    1    2  501    0  0.42925852426E+03 -0.43175835686E+02  0.24116429980E+03  0.63583586950E+03  0.40000000000E+03 0. -1.
   -9000007    1    1    2    0  503 -0.42925852426E+03  0.43175835686E+02  0.63289259259E+03  0.86410651380E+03  0.40000000000E+03 0. -1.
<mgrwt>
<rscale>  2 0.58832562E+03</rscale>
<asrwt>0</asrwt>
<pdfrwt beam="1">  1       21 0.18261533E+00 0.58832562E+03</pdfrwt>
<pdfrwt beam="2">  1       21 0.48145038E-01 0.58832562E+03</pdfrwt>
<totfact> 0.56480354E+02</totfact>
</mgrwt>
</event>
<event>
 4    1  0.4832791E-002  0.4510650E+03  0.7818608E-02  0.1027405E+00
         21   -1    0    0  501  502  0.00000000000E+00  0.00000000000E+00  0.23458473063E+04  0.23458473063E+04  0.00000000000E+00 0.  1.
         21   -1    0    0  502  503 -0.00000000000E+00 -0.00000000000E+00 -0.95136627281E+02  0.95136627281E+02  0.00000000000E+00 0.  1.
    9000007    1    1    2  501    0  0.12813523357E+03  0.16444148379E+03  0.76259102190E+03  0.88600491328E+03  0.40000000000E+03 0. -1.
   -9000007    1    1    2    0  503 -0.12813523357E+03 -0.16444148379E+03  0.14881196571E+04  0.15549790203E+04  0.40000000000E+03 0. -1.
<mgrwt>
<rscale>  2 0.45106501E+03</rscale>
<asrwt>0</asrwt>
<pdfrwt beam="1">  1       21 0.36089954E+00 0.45106501E+03</pdfrwt>
<pdfrwt beam="2">  1       21 0.14636406E-01 0.45106501E+03</pdfrwt>
<totfact> 0.48314689E+02</totfact>
</mgrwt>
</event>
<event>
 4    1  0.4832791E-002  0.4006830E+03  0.7818608E-02  0.1043543E+00
         21   -1    0    0  501  502  0.00000000000E+00  0.00000000000E+00  0.13985707478E+03  0.13985707478E+03  0.00000000000E+00 0. -1.
         21   -1    0    0  502  503 -0.00000000000E+00 -0.00000000000E+00 -0.13866225885E+04  0.13866225885E+04  0.00000000000E+00 0. -1.
    9000007    1    1    2  501    0 -0.17037575299E+02  0.16018210018E+02 -0.30672027655E+03  0.50460300244E+03  0.40000000000E+03 0.  1.
   -9000007    1    1    2    0  503  0.17037575299E+02 -0.16018210018E+02 -0.94004523717E+03  0.10218766608E+04  0.40000000000E+03 0.  1.
<mgrwt>
<rscale>  2 0.40068299E+03</rscale>
<asrwt>0</asrwt>
<pdfrwt beam="1">  1       21 0.21516473E-01 0.40068299E+03</pdfrwt>
<pdfrwt beam="2">  1       21 0.21332656E+00 0.40068299E+03</pdfrwt>
<totfact> 0.19163777E+03</totfact>
</mgrwt>
</event>
<event>
 4    1  0.4832791E-002  0.4656643E+03  0.7818608E-02  0.1023151E+00
         21   -1    0    0  501  502  0.00000000000E+00  0.00000000000E+00  0.39520497973E+03  0.39520497973E+03  0.00000000000E+00 0. -1.
         21   -1    0    0  502  503 -0.00000000000E+00 -0.00000000000E+00 -0.68151711397E+03  0.68151711397E+03  0.00000000000E+00 0. -1.
    9000007    1    1    2  501    0 -0.66625639616E+02 -0.22891976557E+03  0.94520299397E+02  0.47516031181E+03  0.40000000000E+03 0. -1.
   -9000007    1    1    2    0  503  0.66625639616E+02  0.22891976557E+03 -0.38083243364E+03  0.60156178189E+03  0.40000000000E+03 0. -1.
<mgrwt>
<rscale>  2 0.46566429E+03</rscale>
<asrwt>0</asrwt>
<pdfrwt beam="1">  1       21 0.60800767E-01 0.46566429E+03</pdfrwt>
<pdfrwt beam="2">  1       21 0.10484879E+00 0.46566429E+03</pdfrwt>
<totfact> 0.15747190E+03</totfact>
</mgrwt>
</event>
<event>
 4    1  0.4832791E-002  0.4186092E+03  0.7818608E-02  0.1037520E+00
         21   -1    0    0  501  502  0.00000000000E+00  0.00000000000E+00  0.52779985374E+03  0.52779985374E+03  0.00000000000E+00 0.  1.
         21   -1    0    0  502  503 -0.00000000000E+00 -0.00000000000E+00 -0.58138574350E+03  0.58138574350E+03  0.00000000000E+00 0.  1.
    9000007    1    1    2  501    0  0.11809470265E+03 -0.35878761518E+02  0.33642817752E+03  0.53704521500E+03  0.40000000000E+03 0.  1.
   -9000007    1    1    2    0  503 -0.11809470265E+03  0.35878761518E+02 -0.39001406728E+03  0.57214038225E+03  0.40000000000E+03 0.  1.
<mgrwt>
<rscale>  2 0.41860918E+03</rscale>
<asrwt>0</asrwt>
<pdfrwt beam="1">  1       21 0.81199978E-01 0.41860918E+03</pdfrwt>
<pdfrwt beam="2">  1       21 0.89443960E-01 0.41860918E+03</pdfrwt>
<totfact> 0.12262406E+03</totfact>
</mgrwt>
</event>
<event>
 4    1  0.4832791E-002  0.4620263E+03  0.7818608E-02  0.1024195E+00
         21   -1    0    0  503  502  0.00000000000E+00  0.00000000000E+00  0.76074582500E+03  0.76074582500E+03  0.00000000000E+00 0.  1.
         21   -1    0    0  501  503 -0.00000000000E+00 -0.00000000000E+00 -0.34082006544E+03  0.34082006544E+03  0.00000000000E+00 0.  1.
    9000007    1    1    2  501    0  0.22693402462E+03 -0.44375991298E+02 -0.21549537610E+02  0.46252855339E+03  0.40000000000E+03 0.  1.
   -9000007    1    1    2    0  502 -0.22693402462E+03  0.44375991298E+02  0.44147529717E+03  0.63903733705E+03  0.40000000000E+03 0.  1.
<mgrwt>
<rscale>  2 0.46202628E+03</rscale>
<asrwt>0</asrwt>
<pdfrwt beam="1">  1       21 0.11703782E+00 0.46202628E+03</pdfrwt>
<pdfrwt beam="2">  1       21 0.52433856E-01 0.46202628E+03</pdfrwt>
<totfact> 0.16541919E+03</totfact>
</mgrwt>
</event>
<event>
 4    1  0.4832791E-002  0.4975961E+03  0.7818608E-02  0.1014408E+00
         21   -1    0    0  503  502  0.00000000000E+00  0.00000000000E+00  0.21730856866E+03  0.21730856866E+03  0.00000000000E+00 0. -1.
         21   -1    0    0  501  503 -0.00000000000E+00 -0.00000000000E+00 -0.13902734289E+04  0.13902734289E+04  0.00000000000E+00 0. -1.
    9000007    1    1    2  501    0 -0.28676603260E+03 -0.73260452128E+02 -0.92792565154E+03  0.10529234854E+04  0.40000000000E+03 0. -1.
   -9000007    1    1    2    0  502  0.28676603260E+03  0.73260452128E+02 -0.24503920865E+03  0.55465851213E+03  0.40000000000E+03 0. -1.
<mgrwt>
<rscale>  2 0.49759607E+03</rscale>
<asrwt>0</asrwt>
<pdfrwt beam="1">  1       21 0.33432088E-01 0.49759607E+03</pdfrwt>
<pdfrwt beam="2">  1       21 0.21388822E+00 0.49759607E+03</pdfrwt>
<totfact> 0.76519813E+02</totfact>
</mgrwt>
</event>
<event>
 4    1  0.4832791E-002  0.4326600E+03  0.7818608E-02  0.1033023E+00
         21   -1    0    0  501  502  0.00000000000E+00  0.00000000000E+00  0.71180687359E+03  0.71180687359E+03  0.00000000000E+00 0. -1.
         21   -1    0    0  502  503 -0.00000000000E+00 -0.00000000000E+00 -0.26540483697E+03  0.26540483697E+03  0.00000000000E+00 0. -1.
    9000007    1    1    2  501    0  0.15150269677E+03 -0.65127429497E+02  0.17654771947E+03  0.46729406849E+03  0.40000000000E+03 0. -1.
   -9000007    1    1    2    0  503 -0.15150269677E+03  0.65127429497E+02  0.26985431716E+03  0.50991764207E+03  0.40000000000E+03 0. -1.
<mgrwt>
<rscale>  2 0.43265997E+03</rscale>
<asrwt>0</asrwt>
<pdfrwt beam="1">  1       21 0.10950875E+00 0.43265997E+03</pdfrwt>
<pdfrwt beam="2">  1       21 0.40831514E-01 0.43265997E+03</pdfrwt>
<totfact> 0.33407604E+03</totfact>
</mgrwt>
</event>
<event>
 4    1  0.4832791E-002  0.4054549E+03  0.7818608E-02  0.1041907E+00
         21   -1    0    0  503  502  0.00000000000E+00  0.00000000000E+00  0.46570448647E+03  0.46570448647E+03  0.00000000000E+00 0. -1.
         21   -1    0    0  501  503 -0.00000000000E+00 -0.00000000000E+00 -0.35756086281E+03  0.35756086281E+03  0.00000000000E+00 0.  1.
    9000007    1    1    2  501    0 -0.17750610698E+02  0.63864115658E+02  0.10056140301E+03  0.41773951839E+03  0.40000000000E+03 0. -1.
   -9000007    1    1    2    0  502  0.17750610698E+02 -0.63864115658E+02  0.75822206538E+01  0.40552583089E+03  0.40000000000E+03 0. -1.
<mgrwt>
<rscale>  2 0.40545494E+03</rscale>
<asrwt>0</asrwt>
<pdfrwt beam="1">  1       21 0.71646844E-01 0.40545494E+03</pdfrwt>
<pdfrwt beam="2">  1       21 0.55009364E-01 0.40545494E+03</pdfrwt>
<totfact> 0.49013406E+03</totfact>
</mgrwt>
</event>
<event>
 4    1  0.4832791E-002  0.4820356E+03  0.7818608E-02  0.1018577E+00
         21   -1    0    0  501  502  0.00000000000E+00  0.00000000000E+00  0.30094004184E+03  0.30094004184E+03  0.00000000000E+00 0. -1.
         21   -1    0    0  502  503 -0.00000000000E+00 -0.00000000000E+00 -0.78392692638E+03  0.78392692638E+03  0.00000000000E+00 0. -1.
    9000007    1    1    2  501    0 -0.24211167397E+03 -0.11721886733E+03 -0.17489088672E+03  0.51278177404E+03  0.40000000000E+03 0. -1.
   -9000007    1    1    2    0  503  0.24211167397E+03  0.11721886733E+03 -0.30809599782E+03  0.57208519418E+03  0.40000000000E+03 0. -1.
<mgrwt>
<rscale>  2 0.48203561E+03</rscale>
<asrwt>0</asrwt>
<pdfrwt beam="1">  1       21 0.46298469E-01 0.48203561E+03</pdfrwt>
<pdfrwt beam="2">  1       21 0.12060414E+00 0.48203561E+03</pdfrwt>
<totfact> 0.19821772E+03</totfact>
</mgrwt>
</event>
<event>
 4    1  0.4832791E-002  0.4313590E+03  0.7818608E-02  0.1033432E+00
         21   -1    0    0  503  502  0.00000000000E+00  0.00000000000E+00  0.10170755688E+04  0.10170755688E+04  0.00000000000E+00 0. -1.
         21   -1    0    0  501  503 -0.00000000000E+00 -0.00000000000E+00 -0.39969754838E+03  0.39969754838E+03  0.00000000000E+00 0. -1.
    9000007    1    1    2  501    0 -0.15287231640E+03 -0.51967731899E+02 -0.21296794363E+03  0.48106749557E+03  0.40000000000E+03 0. -1.
   -9000007    1    1    2    0  502  0.15287231640E+03  0.51967731899E+02  0.83034596404E+03  0.93570562159E+03  0.40000000000E+03 0. -1.
<mgrwt>
<rscale>  2 0.43135900E+03</rscale>
<asrwt>0</asrwt>
<pdfrwt beam="1">  1       21 0.15647316E+00 0.43135900E+03</pdfrwt>
<pdfrwt beam="2">  1       21 0.61491931E-01 0.43135900E+03</pdfrwt>
<totfact> 0.55226545E+02</totfact>
</mgrwt>
</event>
<event>
 4    1  0.4832791E-002  0.4157103E+03  0.7818608E-02  0.1038472E+00
         21   -1    0    0  503  502  0.00000000000E+00  0.00000000000E+00  0.82060638269E+03  0.82060638269E+03  0.00000000000E+00 0.  1.
         21   -1    0    0  501  503 -0.00000000000E+00 -0.00000000000E+00 -0.23570563706E+03  0.23570563706E+03  0.00000000000E+00 0.  1.
    9000007    1    1    2  501    0 -0.10638978970E+03  0.38681247852E+02  0.12006033501E+03  0.43270025460E+03  0.40000000000E+03 0.  1.
   -9000007    1    1    2    0  502  0.10638978970E+03 -0.38681247852E+02  0.46484041062E+03  0.62361176515E+03  0.40000000000E+03 0.  1.
<mgrwt>
<rscale>  2 0.41571027E+03</rscale>
<asrwt>0</asrwt>
<pdfrwt beam="1">  1       21 0.12624713E+00 0.41571027E+03</pdfrwt>
<pdfrwt beam="2">  1       21 0.36262406E-01 0.41571027E+03</pdfrwt>
<totfact> 0.29952140E+03</totfact>
</mgrwt>
</event>
<event>
 4    1  0.4832791E-002  0.5289408E+03  0.7818608E-02  0.1006489E+00
         21   -1    0    0  501  502  0.00000000000E+00  0.00000000000E+00  0.82271518045E+03  0.82271518045E+03  0.00000000000E+00 0. -1.
         21   -1    0    0  502  503 -0.00000000000E+00 -0.00000000000E+00 -0.52826872530E+03  0.52826872530E+03  0.00000000000E+00 0. -1.
    9000007    1    1    2  501    0  0.30023221705E+03  0.17215973867E+03  0.55040827966E+03  0.76336598961E+03  0.40000000000E+03 0. -1.
   -9000007    1    1    2    0  503 -0.30023221705E+03 -0.17215973867E+03 -0.25596182451E+03  0.58761791615E+03  0.40000000000E+03 0. -1.
<mgrwt>
<rscale>  2 0.52894079E+03</rscale>
<asrwt>0</asrwt>
<pdfrwt beam="1">  1       21 0.12657157E+00 0.52894079E+03</pdfrwt>
<pdfrwt beam="2">  1       21 0.81272112E-01 0.52894079E+03</pdfrwt>
<totfact> 0.49646181E+02</totfact>
</mgrwt>
</event>
<event>
 4    1  0.4832791E-002  0.4146330E+03  0.7818608E-02  0.1038827E+00
         21   -1    0    0  501  502  0.00000000000E+00  0.00000000000E+00  0.91592190859E+03  0.91592190859E+03  0.00000000000E+00 0.  1.
         21   -1    0    0  502  503 -0.00000000000E+00 -0.00000000000E+00 -0.45322260562E+03  0.45322260562E+03  0.00000000000E+00 0.  1.
    9000007    1    1    2  501    0  0.28020807677E+02 -0.10552436058E+03  0.75532694296E+03  0.86164920188E+03  0.40000000000E+03 0.  1.
   -9000007    1    1    2    0  503 -0.28020807677E+02  0.10552436058E+03 -0.29262764000E+03  0.50749531232E+03  0.40000000000E+03 0.  1.
<mgrwt>
<rscale>  2 0.41463304E+03</rscale>
<asrwt>0</asrwt>
<pdfrwt beam="1">  1       21 0.14091106E+00 0.41463304E+03</pdfrwt>
<pdfrwt beam="2">  1       21 0.69726555E-01 0.41463304E+03</pdfrwt>
<totfact> 0.55894609E+02</totfact>
</mgrwt>
</event>
<event>
 4    1  0.4832791E-002  0.4636376E+03  0.7818608E-02  0.1023731E+00
         21   -1    0    0  503  502  0.00000000000E+00  0.00000000000E+00  0.16463204468E+04  0.16463204468E+04  0.00000000000E+00 0. -1.
         21   -1    0    0  501  503 -0.00000000000E+00 -0.00000000000E+00 -0.14370475383E+03  0.14370475383E+03  0.00000000000E+00 0.  1.
    9000007    1    1    2  501    0  0.22828832547E+02 -0.23332095786E+03  0.48072085224E+03  0.66787151665E+03  0.40000000000E+03 0.  1.
   -9000007    1    1    2    0  502 -0.22828832547E+02  0.23332095786E+03  0.10218948408E+04  0.11221536840E+04  0.40000000000E+03 0. -1.
<mgrwt>
<rscale>  2 0.46363760E+03</rscale>
<asrwt>0</asrwt>
<pdfrwt beam="1">  1       21 0.25328006E+00 0.46363760E+03</pdfrwt>
<pdfrwt beam="2">  1       21 0.22108425E-01 0.46363760E+03</pdfrwt>
<totfact> 0.99136560E+02</totfact>
</mgrwt>
</event>
<event>
 4    1  0.4832791E-002  0.4000525E+03  0.7818608E-02  0.1043762E+00
         21   -1    0    0  501  502  0.00000000000E+00  0.00000000000E+00  0.92992860108E+03  0.92992860108E+03  0.00000000000E+00 0.  1.
         21   -1    0    0  502  503 -0.00000000000E+00 -0.00000000000E+00 -0.17773820120E+03  0.17773820120E+03  0.00000000000E+00 0.  1.
    9000007    1    1    2  501    0  0.47970781144E+01  0.43566817041E+01  0.47472451204E+03  0.62081024070E+03  0.40000000000E+03 0.  1.
   -9000007    1    1    2    0  503 -0.47970781144E+01 -0.43566817041E+01  0.27746588784E+03  0.48685656158E+03  0.40000000000E+03 0.  1.
<mgrwt>
<rscale>  2 0.40005249E+03</rscale>
<asrwt>0</asrwt>
<pdfrwt beam="1">  1       21 0.14306594E+00 0.40005249E+03</pdfrwt>
<pdfrwt beam="2">  1       21 0.27344339E-01 0.40005249E+03</pdfrwt>
<totfact> 0.38165098E+03</totfact>
</mgrwt>
</event>
<event>
 4    1  0.4832791E-002  0.4780754E+03  0.7818608E-02  0.1019665E+00
         21   -1    0    0  501  502  0.00000000000E+00  0.00000000000E+00  0.14084457132E+04  0.14084457132E+04  0.00000000000E+00 0. -1.
         21   -1    0    0  502  503 -0.00000000000E+00 -0.00000000000E+00 -0.16276482650E+03  0.16276482650E+03  0.00000000000E+00 0. -1.
    9000007    1    1    2  501    0  0.17489292661E+03  0.19485525814E+03  0.66591916781E+03  0.81975877272E+03  0.40000000000E+03 0.  1.
   -9000007    1    1    2    0  503 -0.17489292661E+03 -0.19485525814E+03  0.57976171891E+03  0.75145176699E+03  0.40000000000E+03 0.  1.
<mgrwt>
<rscale>  2 0.47807542E+03</rscale>
<asrwt>0</asrwt>
<pdfrwt beam="1">  1       21 0.21668395E+00 0.47807542E+03</pdfrwt>
<pdfrwt beam="2">  1       21 0.25040743E-01 0.47807542E+03</pdfrwt>
<totfact> 0.13126134E+03</totfact>
</mgrwt>
</event>
<event>
 4    1  0.4832791E-002  0.4191024E+03  0.7818608E-02  0.1037359E+00
         21   -1    0    0  503  502  0.00000000000E+00  0.00000000000E+00  0.41542074837E+03  0.41542074837E+03  0.00000000000E+00 0. -1.
         21   -1    0    0  501  503 -0.00000000000E+00 -0.00000000000E+00 -0.88412145154E+03  0.88412145154E+03  0.00000000000E+00 0. -1.
    9000007    1    1    2  501    0 -0.12497808511E+03 -0.52249700467E+01 -0.70370205683E+03  0.81905030789E+03  0.40000000000E+03 0. -1.
   -9000007    1    1    2    0  502  0.12497808511E+03  0.52249700467E+01  0.23500135366E+03  0.48049189201E+03  0.40000000000E+03 0. -1.
<mgrwt>
<rscale>  2 0.41910240E+03</rscale>
<asrwt>0</asrwt>
<pdfrwt beam="1">  1       21 0.63910885E-01 0.41910240E+03</pdfrwt>
<pdfrwt beam="2">  1       21 0.13601868E+00 0.41910240E+03</pdfrwt>
<totfact> 0.74358440E+02</totfact>
</mgrwt>
</event>
<event>
 4    1  0.4832791E-002  0.4284193E+03  0.7818608E-02  0.1034360E+00
         21   -1    0    0  503  502  0.00000000000E+00  0.00000000000E+00  0.34662678784E+03  0.34662678784E+03  0.00000000000E+00 0. -1.
         21   -1    0    0  501  503 -0.00000000000E+00 -0.00000000000E+00 -0.60058120615E+03  0.60058120615E+03  0.00000000000E+00 0. -1.
    9000007    1    1    2  501    0 -0.13912810339E+03 -0.64703178880E+02 -0.28989535428E+03  0.51728371997E+03  0.40000000000E+03 0. -1.
   -9000007    1    1    2    0  502  0.13912810339E+03  0.64703178880E+02  0.35940935971E+02  0.42992427402E+03  0.40000000000E+03 0. -1.
<mgrwt>
<rscale>  2 0.42841934E+03</rscale>
<asrwt>0</asrwt>
<pdfrwt beam="1">  1       21 0.53327198E-01 0.42841934E+03</pdfrwt>
<pdfrwt beam="2">  1       21 0.92397109E-01 0.42841934E+03</pdfrwt>
<totfact> 0.28831427E+03</totfact>
</mgrwt>
</event>
<event>
 4    1  0.4832791E-002  0.4202211E+03  0.7818608E-02  0.1036994E+00
         21   -1    0    0  501  502  0.00000000000E+00  0.00000000000E+00  0.19223489387E+03  0.19223489387E+03  0.00000000000E+00 0. -1.
         21   -1    0    0  502  503 -0.00000000000E+00 -0.00000000000E+00 -0.91943995437E+03  0.91943995437E+03  0.00000000000E+00 0. -1.
    9000007    1    1    2  501    0 -0.21480074803E+02 -0.12698179579E+03 -0.38046520060E+03  0.56686818481E+03  0.40000000000E+03 0. -1.
   -9000007    1    1    2    0  503  0.21480074803E+02  0.12698179579E+03 -0.34673985990E+03  0.54480666343E+03  0.40000000000E+03 0. -1.
<mgrwt>
<rscale>  2 0.42022110E+03</rscale>
<asrwt>0</asrwt>
<pdfrwt beam="1">  1       21 0.29574599E-01 0.42022110E+03</pdfrwt>
<pdfrwt beam="2">  1       21 0.14145230E+00 0.42022110E+03</pdfrwt>
<totfact> 0.33430684E+03</totfact>
</mgrwt>
</event>
<event>
 4    1  0.4832791E-002  0.4320807E+03  0.7818608E-02  0.1033205E+00
         21   -1    0    0  503  502  0.00000000000E+00  0.00000000000E+00  0.82648066362E+03  0.82648066362E+03  0.00000000000E+00 0. -1.
         21   -1    0    0  501  503 -0.00000000000E+00 -0.00000000000E+00 -0.84302138698E+03  0.84302138698E+03  0.00000000000E+00 0. -1.
    9000007    1    1    2  501    0  0.42161094780E+02 -0.15784857505E+03 -0.72248126610E+03  0.84182712621E+03  0.40000000000E+03 0. -1.
   -9000007    1    1    2    0  502 -0.42161094780E+02  0.15784857505E+03  0.70594054275E+03  0.82767492438E+03  0.40000000000E+03 0. -1.
<mgrwt>
<rscale>  2 0.43208070E+03</rscale>
<asrwt>0</asrwt>
<pdfrwt beam="1">  1       21 0.12715087E+00 0.43208070E+03</pdfrwt>
<pdfrwt beam="2">  1       21 0.12969560E+00 0.43208070E+03</pdfrwt>
<totfact> 0.16312673E+02</totfact>
</mgrwt>
</event>
<event>
 4    1  0.4832791E-002  0.4629573E+03  0.7818608E-02  0.1023927E+00
         21   -1    0    0  501  502  0.00000000000E+00  0.00000000000E+00  0.24206199870E+04  0.24206199870E+04  0.00000000000E+00 0.  1.
         21   -1    0    0  502  503 -0.00000000000E+00 -0.00000000000E+00 -0.10935929588E+03  0.10935929588E+03  0.00000000000E+00 0. -1.
    9000007    1    1    2  501    0 -0.23298197619E+03 -0.69912567631E+01  0.17075280493E+04  0.17691753780E+04  0.40000000000E+03 0.  1.
   -9000007    1    1    2    0  503  0.23298197619E+03  0.69912567631E+01  0.60373264181E+03  0.76080390488E+03  0.40000000000E+03 0. -1.
<mgrwt>
<rscale>  2 0.46295732E+03</rscale>
<asrwt>0</asrwt>
<pdfrwt beam="1">  1       21 0.37240303E+00 0.46295732E+03</pdfrwt>
<pdfrwt beam="2">  1       21 0.16824509E-01 0.46295732E+03</pdfrwt>
<totfact> 0.31377089E+02</totfact>
</mgrwt>
</event>
<event>
 4    1  0.4832791E-002  0.4040273E+03  0.7818608E-02  0.1042394E+00
         21   -1    0    0  503  502  0.00000000000E+00  0.00000000000E+00  0.85791474936E+03  0.85791474936E+03  0.00000000000E+00 0. -1.
         21   -1    0    0  501  503 -0.00000000000E+00 -0.00000000000E+00 -0.44767615042E+03  0.44767615042E+03  0.00000000000E+00 0. -1.
    9000007    1    1    2  501    0 -0.30076514102E+02 -0.48306224230E+02 -0.28987704859E+03  0.49725927975E+03  0.40000000000E+03 0. -1.
   -9000007    1    1    2    0  502  0.30076514102E+02  0.48306224230E+02  0.70011564754E+03  0.80833162002E+03  0.40000000000E+03 0. -1.
<mgrwt>
<rscale>  2 0.40402734E+03</rscale>
<asrwt>0</asrwt>
<pdfrwt beam="1">  1       21 0.13198688E+00 0.40402734E+03</pdfrwt>
<pdfrwt beam="2">  1       21 0.68873254E-01 0.40402734E+03</pdfrwt>
<totfact> 0.68589766E+02</totfact>
</mgrwt>
</event>
<event>
 4    1  0.4832791E-002  0.4126647E+03  0.7818608E-02  0.1039480E+00
         21   -1    0    0  503  502  0.00000000000E+00  0.00000000000E+00  0.29188949912E+03  0.29188949912E+03  0.00000000000E+00 0.  1.
         21   -1    0    0  501  503 -0.00000000000E+00 -0.00000000000E+00 -0.83549712219E+03  0.83549712219E+03  0.00000000000E+00 0.  1.
    9000007    1    1    2  501    0 -0.83486046994E+02 -0.57639182347E+02 -0.58143375258E+03  0.71299186813E+03  0.40000000000E+03 0. -1.
   -9000007    1    1    2    0  502  0.83486046994E+02  0.57639182347E+02  0.37826129511E+02  0.41439475317E+03  0.40000000000E+03 0. -1.
<mgrwt>
<rscale>  2 0.41266475E+03</rscale>
<asrwt>0</asrwt>
<pdfrwt beam="1">  1       21 0.44906077E-01 0.41266475E+03</pdfrwt>
<pdfrwt beam="2">  1       21 0.12853802E+00 0.41266475E+03</pdfrwt>
<totfact> 0.18435340E+03</totfact>
</mgrwt>
</event>
<event>
 4    1  0.4832791E-002  0.5083122E+03  0.7818608E-02  0.1011632E+00
         21   -1    0    0  501  502  0.00000000000E+00  0.00000000000E+00  0.37657921487E+03  0.37657921487E+03  0.00000000000E+00 0.  1.
         21   -1    0    0  502  503 -0.00000000000E+00 -0.00000000000E+00 -0.79460618525E+03  0.79460618525E+03  0.00000000000E+00 0.  1.
    9000007    1    1    2  501    0  0.87817783943E+02  0.30111342568E+03  0.73542032741E+01  0.50836536330E+03  0.40000000000E+03 0. -1.
   -9000007    1    1    2    0  503 -0.87817783943E+02 -0.30111342568E+03 -0.42538117366E+03  0.66282003681E+03  0.40000000000E+03 0. -1.
<mgrwt>
<rscale>  2 0.50831217E+03</rscale>
<asrwt>0</asrwt>
<pdfrwt beam="1">  1       21 0.57935264E-01 0.50831217E+03</pdfrwt>
<pdfrwt beam="2">  1       21 0.12224710E+00 0.50831217E+03</pdfrwt>
<totfact> 0.11728962E+03</totfact>
</mgrwt>
</event>
<event>
 4    1  0.4832791E-002  0.4687655E+03  0.7818608E-02  0.1022269E+00
         21   -1    0    0  501  502  0.00000000000E+00  0.00000000000E+00  0.39388287802E+03  0.39388287802E+03  0.00000000000E+00 0.  1.
         21   -1    0    0  502  503 -0.00000000000E+00 -0.00000000000E+00 -0.58746509920E+03  0.58746509920E+03  0.00000000000E+00 0.  1.
    9000007    1    1    2  501    0  0.20379612751E+03 -0.13493800923E+03  0.13313610598E+02  0.46895456086E+03  0.40000000000E+03 0.  1.
   -9000007    1    1    2    0  503 -0.20379612751E+03  0.13493800923E+03 -0.20689583177E+03  0.51239341636E+03  0.40000000000E+03 0.  1.
<mgrwt>
<rscale>  2 0.46876554E+03</rscale>
<asrwt>0</asrwt>
<pdfrwt beam="1">  1       21 0.60597366E-01 0.46876554E+03</pdfrwt>
<pdfrwt beam="2">  1       21 0.90379245E-01 0.46876554E+03</pdfrwt>
<totfact> 0.22685268E+03</totfact>
</mgrwt>
</event>
<event>
 4    1  0.4832791E-002  0.5187704E+03  0.7818608E-02  0.1008992E+00
         21   -1    0    0  501  502  0.00000000000E+00  0.00000000000E+00  0.60116096731E+03  0.60116096731E+03  0.00000000000E+00 0.  1.
         21   -1    0    0  502  503 -0.00000000000E+00 -0.00000000000E+00 -0.85466039212E+03  0.85466039212E+03  0.00000000000E+00 0. -1.
    9000007    1    1    2  501    0  0.23441277075E+03  0.23275177811E+03  0.37556105429E+03  0.64044425425E+03  0.40000000000E+03 0.  1.
   -9000007    1    1    2    0  503 -0.23441277075E+03 -0.23275177811E+03 -0.62906047909E+03  0.81537710518E+03  0.40000000000E+03 0. -1.
<mgrwt>
<rscale>  2 0.51877041E+03</rscale>
<asrwt>0</asrwt>
<pdfrwt beam="1">  1       21 0.92486303E-01 0.51877041E+03</pdfrwt>
<pdfrwt beam="2">  1       21 0.13148621E+00 0.51877041E+03</pdfrwt>
<totfact> 0.33278994E+02</totfact>
</mgrwt>
</event>
<event>
 4    1  0.4832791E-002  0.4065118E+03  0.7818608E-02  0.1041548E+00
         21   -1    0    0  503  502  0.00000000000E+00  0.00000000000E+00  0.90397266375E+02  0.90397266375E+02  0.00000000000E+00 0. -1.
         21   -1    0    0  501  503 -0.00000000000E+00 -0.00000000000E+00 -0.27123226064E+04  0.27123226064E+04  0.00000000000E+00 0. -1.
    9000007    1    1    2  501    0 -0.51801218328E+02  0.50679764296E+02 -0.21111085474E+04  0.21498909516E+04  0.40000000000E+03 0. -1.
   -9000007    1    1    2    0  502  0.51801218328E+02 -0.50679764296E+02 -0.51081679260E+03  0.65282892118E+03  0.40000000000E+03 0. -1.
<mgrwt>
<rscale>  2 0.40651175E+03</rscale>
<asrwt>0</asrwt>
<pdfrwt beam="1">  1       21 0.13907273E-01 0.40651175E+03</pdfrwt>
<pdfrwt beam="2">  1       21 0.41728035E+00 0.40651175E+03</pdfrwt>
<totfact> 0.24018202E+02</totfact>
</mgrwt>
</event>
<event>
 4    1  0.4832791E-002  0.4087634E+03  0.7818608E-02  0.1040787E+00
         21   -1    0    0  501  502  0.00000000000E+00  0.00000000000E+00  0.89513800403E+03  0.89513800403E+03  0.00000000000E+00 0. -1.
         21   -1    0    0  502  503 -0.00000000000E+00 -0.00000000000E+00 -0.24354891297E+03  0.24354891297E+03  0.00000000000E+00 0. -1.
    9000007    1    1    2  501    0  0.21865312042E+02 -0.81298265366E+02  0.60095791590E+03  0.72679977746E+03  0.40000000000E+03 0. -1.
   -9000007    1    1    2    0  503 -0.21865312042E+02  0.81298265366E+02  0.50631175159E+02  0.41188713954E+03  0.40000000000E+03 0. -1.
<mgrwt>
<rscale>  2 0.40876338E+03</rscale>
<asrwt>0</asrwt>
<pdfrwt beam="1">  1       21 0.13771354E+00 0.40876338E+03</pdfrwt>
<pdfrwt beam="2">  1       21 0.37469064E-01 0.40876338E+03</pdfrwt>
<totfact> 0.22422048E+03</totfact>
</mgrwt>
</event>
<event>
 4    1  0.4832791E-002  0.4769561E+03  0.7818608E-02  0.1019975E+00
         21   -1    0    0  501  502  0.00000000000E+00  0.00000000000E+00  0.19808962061E+04  0.19808962061E+04  0.00000000000E+00 0.  1.
         21   -1    0    0  502  503 -0.00000000000E+00 -0.00000000000E+00 -0.15889858467E+03  0.15889858467E+03  0.00000000000E+00 0.  1.
    9000007    1    1    2  501    0  0.29571793476E+02 -0.25809419606E+03  0.14743703934E+04  0.15495983873E+04  0.40000000000E+03 0.  1.
   -9000007    1    1    2    0  503 -0.29571793476E+02  0.25809419606E+03  0.34762722806E+03  0.59019640349E+03  0.40000000000E+03 0.  1.
<mgrwt>
<rscale>  2 0.47695608E+03</rscale>
<asrwt>0</asrwt>
<pdfrwt beam="1">  1       21 0.30475324E+00 0.47695608E+03</pdfrwt>
<pdfrwt beam="2">  1       21 0.24445938E-01 0.47695608E+03</pdfrwt>
<totfact> 0.39548727E+02</totfact>
</mgrwt>
</event>
<event>
 4    1  0.4832791E-002  0.4420589E+03  0.7818608E-02  0.1030117E+00
         21   -1    0    0  501  502  0.00000000000E+00  0.00000000000E+00  0.22423464607E+03  0.22423464607E+03  0.00000000000E+00 0. -1.
         21   -1    0    0  502  503 -0.00000000000E+00 -0.00000000000E+00 -0.94138850398E+03  0.94138850398E+03  0.00000000000E+00 0. -1.
    9000007    1    1    2  501    0 -0.18447299599E+03  0.37226378104E+02 -0.51739781615E+03  0.68052670016E+03  0.40000000000E+03 0. -1.
   -9000007    1    1    2    0  503  0.18447299599E+03 -0.37226378104E+02 -0.19975604176E+03  0.48509644989E+03  0.40000000000E+03 0. -1.
<mgrwt>
<rscale>  2 0.44205892E+03</rscale>
<asrwt>0</asrwt>
<pdfrwt beam="1">  1       21 0.34497638E-01 0.44205892E+03</pdfrwt>
<pdfrwt beam="2">  1       21 0.14482900E+00 0.44205892E+03</pdfrwt>
<totfact> 0.22870587E+03</totfact>
</mgrwt>
</event>
<event>
 4    1  0.4832791E-002  0.6039429E+03  0.7818608E-02  0.9897259E-01
         21   -1    0    0  503  502  0.00000000000E+00  0.00000000000E+00  0.24333110803E+03  0.24333110803E+03  0.00000000000E+00 0.  1.
         21   -1    0    0  501  503 -0.00000000000E+00 -0.00000000000E+00 -0.19143530460E+04  0.19143530460E+04  0.00000000000E+00 0.  1.
    9000007    1    1    2  501    0 -0.41565831655E+03 -0.17881597962E+03 -0.13380492863E+04  0.14680336792E+04  0.40000000000E+03 0.  1.
   -9000007    1    1    2    0  502  0.41565831655E+03  0.17881597962E+03 -0.33297265170E+03  0.68965047485E+03  0.40000000000E+03 0.  1.
<mgrwt>
<rscale>  2 0.60394287E+03</rscale>
<asrwt>0</asrwt>
<pdfrwt beam="1">  1       21 0.37435553E-01 0.60394287E+03</pdfrwt>
<pdfrwt beam="2">  1       21 0.29451587E+00 0.60394287E+03</pdfrwt>
<totfact> 0.18303637E+02</totfact>
</mgrwt>
</event>
<event>
 4    1  0.4832791E-002  0.4045335E+03  0.7818608E-02  0.1042221E+00
         21   -1    0    0  503  502  0.00000000000E+00  0.00000000000E+00  0.10776121585E+04  0.10776121585E+04  0.00000000000E+00 0. -1.
         21   -1    0    0  501  503 -0.00000000000E+00 -0.00000000000E+00 -0.54008028906E+03  0.54008028906E+03  0.00000000000E+00 0. -1.
    9000007    1    1    2  501    0 -0.20421557921E+02 -0.56835528576E+02 -0.41699907775E+03  0.58097809613E+03  0.40000000000E+03 0. -1.
   -9000007    1    1    2    0  502  0.20421557921E+02  0.56835528576E+02  0.95453094722E+03  0.10367143515E+04  0.40000000000E+03 0. -1.
<mgrwt>
<rscale>  2 0.40453346E+03</rscale>
<asrwt>0</asrwt>
<pdfrwt beam="1">  1       21 0.16578649E+00 0.40453346E+03</pdfrwt>
<pdfrwt beam="2">  1       21 0.83089275E-01 0.40453346E+03</pdfrwt>
<totfact> 0.24161212E+02</totfact>
</mgrwt>
</event>
<event>
 4    1  0.4832791E-002  0.4592024E+03  0.7818608E-02  0.1025013E+00
         21   -1    0    0  503  502  0.00000000000E+00  0.00000000000E+00  0.31678066438E+03  0.31678066438E+03  0.00000000000E+00 0. -1.
         21   -1    0    0  501  503 -0.00000000000E+00 -0.00000000000E+00 -0.77156978535E+03  0.77156978535E+03  0.00000000000E+00 0. -1.
    9000007    1    1    2  501    0  0.46694889060E+02  0.22065007931E+03 -0.42901191896E+03  0.62842509241E+03  0.40000000000E+03 0. -1.
   -9000007    1    1    2    0  502 -0.46694889060E+02 -0.22065007931E+03 -0.25777202017E+02  0.45992535732E+03  0.40000000000E+03 0. -1.
<mgrwt>
<rscale>  2 0.45920243E+03</rscale>
<asrwt>0</asrwt>
<pdfrwt beam="1">  1       21 0.48735488E-01 0.45920243E+03</pdfrwt>
<pdfrwt beam="2">  1       21 0.11870304E+00 0.45920243E+03</pdfrwt>
<totfact> 0.18677420E+03</totfact>
</mgrwt>
</event>
<event>
 4    1  0.4832791E-002  0.4822850E+03  0.7818608E-02  0.1018509E+00
         21   -1    0    0  501  502  0.00000000000E+00  0.00000000000E+00  0.51389520836E+03  0.51389520836E+03  0.00000000000E+00 0. -1.
         21   -1    0    0  502  503 -0.00000000000E+00 -0.00000000000E+00 -0.46989113918E+03  0.46989113918E+03  0.00000000000E+00 0. -1.
    9000007    1    1    2  501    0  0.32490030444E+02  0.26747567655E+03  0.11630876332E+03  0.49611144721E+03  0.40000000000E+03 0. -1.
   -9000007    1    1    2    0  503 -0.32490030444E+02 -0.26747567655E+03 -0.72304694139E+02  0.48767490034E+03  0.40000000000E+03 0. -1.
<mgrwt>
<rscale>  2 0.48228502E+03</rscale>
<asrwt>0</asrwt>
<pdfrwt beam="1">  1       21 0.79060801E-01 0.48228502E+03</pdfrwt>
<pdfrwt beam="2">  1       21 0.72290944E-01 0.48228502E+03</pdfrwt>
<totfact> 0.20825270E+03</totfact>
</mgrwt>
</event>
<event>
 4    1  0.4832791E-002  0.4836653E+03  0.7818608E-02  0.1018133E+00
         21   -1    0    0  501  502  0.00000000000E+00  0.00000000000E+00  0.24619018967E+03  0.24619018967E+03  0.00000000000E+00 0. -1.
         21   -1    0    0  502  503 -0.00000000000E+00 -0.00000000000E+00 -0.13953142975E+04  0.13953142975E+04  0.00000000000E+00 0.  1.
    9000007    1    1    2  501    0 -0.26898057488E+03  0.39768546741E+02 -0.11100037083E+03  0.49623902436E+03  0.40000000000E+03 0. -1.
   -9000007    1    1    2    0  503  0.26898057488E+03 -0.39768546741E+02 -0.10381237370E+04  0.11452654629E+04  0.40000000000E+03 0.  1.
<mgrwt>
<rscale>  2 0.48366526E+03</rscale>
<asrwt>0</asrwt>
<pdfrwt beam="1">  1       21 0.37875414E-01 0.48366526E+03</pdfrwt>
<pdfrwt beam="2">  1       21 0.21466374E+00 0.48366526E+03</pdfrwt>
<totfact> 0.59067058E+02</totfact>
</mgrwt>
</event>
<event>
 4    1  0.4832791E-002  0.6093263E+03  0.7818608E-02  0.9886244E-01
         21   -1    0    0  503  502  0.00000000000E+00  0.00000000000E+00  0.10286980689E+04  0.10286980689E+04  0.00000000000E+00 0. -1.
         21   -1    0    0  501  503 -0.00000000000E+00 -0.00000000000E+00 -0.87334100438E+03  0.87334100438E+03  0.00000000000E+00 0.  1.
    9000007    1    1    2  501    0 -0.41868616739E+02  0.45773962137E+03 -0.65078972240E+03  0.89151881911E+03  0.40000000000E+03 0.  1.
   -9000007    1    1    2    0  502  0.41868616739E+02 -0.45773962137E+03  0.80614678696E+03  0.10105202542E+04  0.40000000000E+03 0. -1.
<mgrwt>
<rscale>  2 0.60932630E+03</rscale>
<asrwt>0</asrwt>
<pdfrwt beam="1">  1       21 0.15826124E+00 0.60932630E+03</pdfrwt>
<pdfrwt beam="2">  1       21 0.13436015E+00 0.60932630E+03</pdfrwt>
<totfact> 0.76048907E+01</totfact>
</mgrwt>
</event>
<event>
 4    1  0.4832791E-002  0.6481450E+03  0.7818608E-02  0.9810266E-01
         21   -1    0    0  503  502  0.00000000000E+00  0.00000000000E+00  0.14879124480E+04  0.14879124480E+04  0.00000000000E+00 0.  1.
         21   -1    0    0  501  503 -0.00000000000E+00 -0.00000000000E+00 -0.28319887049E+03  0.28319887049E+03  0.00000000000E+00 0. -1.
    9000007    1    1    2  501    0  0.26609950200E+03 -0.43506660370E+03  0.65122581383E+03  0.91879647105E+03  0.40000000000E+03 0. -1.
   -9000007    1    1    2    0  502 -0.26609950200E+03  0.43506660370E+03  0.55348776368E+03  0.85231484744E+03  0.40000000000E+03 0.  1.
<mgrwt>
<rscale>  2 0.64814496E+03</rscale>
<asrwt>0</asrwt>
<pdfrwt beam="1">  1       21 0.22890960E+00 0.64814496E+03</pdfrwt>
<pdfrwt beam="2">  1       21 0.43569058E-01 0.64814496E+03</pdfrwt>
<totfact> 0.33482718E+02</totfact>
</mgrwt>
</event>
<event>
 4    1  0.4832791E-002  0.4489789E+03  0.7818608E-02  0.1028027E+00
         21   -1    0    0  503  502  0.00000000000E+00  0.00000000000E+00  0.58384485423E+03  0.58384485423E+03  0.00000000000E+00 0. -1.
         21   -1    0    0  501  503 -0.00000000000E+00 -0.00000000000E+00 -0.48870723290E+03  0.48870723290E+03  0.00000000000E+00 0. -1.
    9000007    1    1    2  501    0 -0.18644336733E+03  0.82588706330E+02 -0.24296747477E+03  0.51050486524E+03  0.40000000000E+03 0. -1.
   -9000007    1    1    2    0  502  0.18644336733E+03 -0.82588706330E+02  0.33810509609E+03  0.56204722190E+03  0.40000000000E+03 0. -1.
<mgrwt>
<rscale>  2 0.44897887E+03</rscale>
<asrwt>0</asrwt>
<pdfrwt beam="1">  1       21 0.89822285E-01 0.44897887E+03</pdfrwt>
<pdfrwt beam="2">  1       21 0.75185728E-01 0.44897887E+03</pdfrwt>
<totfact> 0.14308654E+03</totfact>
</mgrwt>
</event>
<event>
 4    1  0.4832791E-002  0.5932030E+03  0.7818608E-02  0.9919609E-01
         21   -1    0    0  503  502  0.00000000000E+00  0.00000000000E+00  0.12950366794E+04  0.12950366794E+04  0.00000000000E+00 0.  1.
         21   -1    0    0  501  503 -0.00000000000E+00 -0.00000000000E+00 -0.29855105186E+03  0.29855105186E+03  0.00000000000E+00 0.  1.
    9000007    1    1    2  501    0 -0.41880037989E+03  0.12843714275E+03  0.25938472180E+03  0.64743361956E+03  0.40000000000E+03 0.  1.
   -9000007    1    1    2    0  502  0.41880037989E+03 -0.12843714275E+03  0.73710090574E+03  0.94615411170E+03  0.40000000000E+03 0.  1.
<mgrwt>
<rscale>  2 0.59320305E+03</rscale>
<asrwt>0</asrwt>
<pdfrwt beam="1">  1       21 0.19923641E+00 0.59320305E+03</pdfrwt>
<pdfrwt beam="2">  1       21 0.45930932E-01 0.59320305E+03</pdfrwt>
<totfact> 0.47834478E+02</totfact>
</mgrwt>
</event>
<event>
 4    1  0.4832791E-002  0.4664413E+03  0.7818608E-02  0.1022929E+00
         21   -1    0    0  503  502  0.00000000000E+00  0.00000000000E+00  0.41363428416E+03  0.41363428416E+03  0.00000000000E+00 0.  1.
         21   -1    0    0  501  503 -0.00000000000E+00 -0.00000000000E+00 -0.11027110567E+04  0.11027110567E+04  0.00000000000E+00 0.  1.
    9000007    1    1    2  501    0  0.23969827996E+03  0.10592516308E+02 -0.89284084404E+03  0.10073391880E+04  0.40000000000E+03 0.  1.
   -9000007    1    1    2    0  502 -0.23969827996E+03 -0.10592516308E+02  0.20376407153E+03  0.50900615287E+03  0.40000000000E+03 0.  1.
<mgrwt>
<rscale>  2 0.46644128E+03</rscale>
<asrwt>0</asrwt>
<pdfrwt beam="1">  1       21 0.63636044E-01 0.46644128E+03</pdfrwt>
<pdfrwt beam="2">  1       21 0.16964785E+00 0.46644128E+03</pdfrwt>
<totfact> 0.40143024E+02</totfact>
</mgrwt>
</event>
<event>
 4    1  0.4832791E-002  0.4117334E+03  0.7818608E-02  0.1039791E+00
         21   -1    0    0  503  502  0.00000000000E+00  0.00000000000E+00  0.13189024477E+03  0.13189024477E+03  0.00000000000E+00 0.  1.
         21   -1    0    0  501  503 -0.00000000000E+00 -0.00000000000E+00 -0.13349740485E+04  0.13349740485E+04  0.00000000000E+00 0.  1.
    9000007    1    1    2  501    0  0.67227321224E+02 -0.70744961476E+02 -0.46012706827E+03  0.61744739148E+03  0.40000000000E+03 0.  1.
   -9000007    1    1    2    0  502 -0.67227321224E+02  0.70744961476E+02 -0.74295673547E+03  0.84941690180E+03  0.40000000000E+03 0.  1.
<mgrwt>
<rscale>  2 0.41173336E+03</rscale>
<asrwt>0</asrwt>
<pdfrwt beam="1">  1       21 0.20290806E-01 0.41173336E+03</pdfrwt>
<pdfrwt beam="2">  1       21 0.20538063E+00 0.41173336E+03</pdfrwt>
<totfact> 0.24009029E+03</totfact>
</mgrwt>
</event>
<event>
 4    1  0.4832791E-002  0.4174064E+03  0.7818608E-02  0.1037914E+00
         21   -1    0    0  503  502  0.00000000000E+00  0.00000000000E+00  0.82573839662E+03  0.82573839662E+03  0.00000000000E+00 0.  1.
         21   -1    0    0  501  503 -0.00000000000E+00 -0.00000000000E+00 -0.31076854705E+03  0.31076854705E+03  0.00000000000E+00 0.  1.
    9000007    1    1    2  501    0 -0.11682120684E+03 -0.24102452552E+02  0.57946385601E+03  0.71414738186E+03  0.40000000000E+03 0.  1.
   -9000007    1    1    2    0  502  0.11682120684E+03  0.24102452552E+02 -0.64494006440E+02  0.42235956181E+03  0.40000000000E+03 0.  1.
<mgrwt>
<rscale>  2 0.41740642E+03</rscale>
<asrwt>0</asrwt>
<pdfrwt beam="1">  1       21 0.12703668E+00 0.41740642E+03</pdfrwt>
<pdfrwt beam="2">  1       21 0.47810546E-01 0.41740642E+03</pdfrwt>
<totfact> 0.16625604E+03</totfact>
</mgrwt>
</event>
<event>
 4    1  0.4832791E-002  0.4211555E+03  0.7818608E-02  0.1036691E+00
         21   -1    0    0  501  502  0.00000000000E+00  0.00000000000E+00  0.11777701257E+04  0.11777701257E+04  0.00000000000E+00 0. -1.
         21   -1    0    0  502  503 -0.00000000000E+00 -0.00000000000E+00 -0.17765152444E+03  0.17765152444E+03  0.00000000000E+00 0. -1.
    9000007    1    1    2  501    0  0.58253853758E+02 -0.11823039221E+03  0.76451777431E+03  0.87284555584E+03  0.40000000000E+03 0.  1.
   -9000007    1    1    2    0  503 -0.58253853758E+02  0.11823039221E+03  0.23560082692E+03  0.48257609427E+03  0.40000000000E+03 0.  1.
<mgrwt>
<rscale>  2 0.42115548E+03</rscale>
<asrwt>0</asrwt>
<pdfrwt beam="1">  1       21 0.18119540E+00 0.42115548E+03</pdfrwt>
<pdfrwt beam="2">  1       21 0.27331004E-01 0.42115548E+03</pdfrwt>
<totfact> 0.19606739E+03</totfact>
</mgrwt>
</event>
<event>
 4    1  0.4832791E-002  0.4375971E+03  0.7818608E-02  0.1031487E+00
         21   -1    0    0  503  502  0.00000000000E+00  0.00000000000E+00  0.12044194889E+04  0.12044194889E+04  0.00000000000E+00 0. -1.
         21   -1    0    0  501  503 -0.00000000000E+00 -0.00000000000E+00 -0.23978281718E+03  0.23978281718E+03  0.00000000000E+00 0. -1.
    9000007    1    1    2  501    0 -0.30449309539E+02  0.17482585818E+03  0.63163890718E+02  0.44213224066E+03  0.40000000000E+03 0. -1.
   -9000007    1    1    2    0  502  0.30449309539E+02 -0.17482585818E+03  0.90147278101E+03  0.10020700654E+04  0.40000000000E+03 0. -1.
<mgrwt>
<rscale>  2 0.43759712E+03</rscale>
<asrwt>0</asrwt>
<pdfrwt beam="1">  1       21 0.18529530E+00 0.43759712E+03</pdfrwt>
<pdfrwt beam="2">  1       21 0.36889665E-01 0.43759712E+03</pdfrwt>
<totfact> 0.10007019E+03</totfact>
</mgrwt>
</event>
<event>
 4    1  0.4832791E-002  0.4332820E+03  0.7818608E-02  0.1032828E+00
         21   -1    0    0  503  502  0.00000000000E+00  0.00000000000E+00  0.29465180419E+03  0.29465180419E+03  0.00000000000E+00 0.  1.
         21   -1    0    0  501  503 -0.00000000000E+00 -0.00000000000E+00 -0.83582813861E+03  0.83582813861E+03  0.00000000000E+00 0. -1.
    9000007    1    1    2  501    0  0.13679537816E+03  0.94975251987E+02  0.50026269710E+01  0.43331085868E+03  0.40000000000E+03 0.  1.
   -9000007    1    1    2    0  502 -0.13679537816E+03 -0.94975251987E+02 -0.54617896139E+03  0.69716908411E+03  0.40000000000E+03 0. -1.
<mgrwt>
<rscale>  2 0.43328198E+03</rscale>
<asrwt>0</asrwt>
<pdfrwt beam="1">  1       21 0.45331047E-01 0.43328198E+03</pdfrwt>
<pdfrwt beam="2">  1       21 0.12858894E+00 0.43328198E+03</pdfrwt>
<totfact> 0.17903353E+03</totfact>
</mgrwt>
</event>
<event>
 4    1  0.4832791E-002  0.4378295E+03  0.7818608E-02  0.1031415E+00
         21   -1    0    0  503  502  0.00000000000E+00  0.00000000000E+00  0.23484051561E+04  0.23484051561E+04  0.00000000000E+00 0.  1.
         21   -1    0    0  501  503 -0.00000000000E+00 -0.00000000000E+00 -0.16864301881E+03  0.16864301881E+03  0.00000000000E+00 0.  1.
    9000007    1    1    2  501    0 -0.14457580837E+03 -0.10388687226E+03  0.18586637871E+03  0.47564793422E+03  0.40000000000E+03 0.  1.
   -9000007    1    1    2    0  502  0.14457580837E+03  0.10388687226E+03  0.19938957586E+04  0.20414002407E+04  0.40000000000E+03 0.  1.
<mgrwt>
<rscale>  2 0.43782947E+03</rscale>
<asrwt>0</asrwt>
<pdfrwt beam="1">  1       21 0.36129308E+00 0.43782947E+03</pdfrwt>
<pdfrwt beam="2">  1       21 0.25945082E-01 0.43782947E+03</pdfrwt>
<totfact> 0.16336707E+02</totfact>
</mgrwt>
</event>
<event>
 4    1  0.4832791E-002  0.4558345E+03  0.7818608E-02  0.1025996E+00
         21   -1    0    0  501  502  0.00000000000E+00  0.00000000000E+00  0.16291140769E+03  0.16291140769E+03  0.00000000000E+00 0.  1.
         21   -1    0    0  502  503 -0.00000000000E+00 -0.00000000000E+00 -0.12815263917E+04  0.12815263917E+04  0.00000000000E+00 0.  1.
    9000007    1    1    2  501    0 -0.65150306606E+02  0.20866358057E+03 -0.50956880363E+03  0.68369980104E+03  0.40000000000E+03 0. -1.
   -9000007    1    1    2    0  503  0.65150306606E+02 -0.20866358057E+03 -0.60904618043E+03  0.76073799839E+03  0.40000000000E+03 0. -1.
<mgrwt>
<rscale>  2 0.45583446E+03</rscale>
<asrwt>0</asrwt>
<pdfrwt beam="1">  1       21 0.25063294E-01 0.45583446E+03</pdfrwt>
<pdfrwt beam="2">  1       21 0.19715790E+00 0.45583446E+03</pdfrwt>
<totfact> 0.17781966E+03</totfact>
</mgrwt>
</event>
<event>
 4    1  0.4832791E-002  0.4536237E+03  0.7818608E-02  0.1026647E+00
         21   -1    0    0  501  502  0.00000000000E+00  0.00000000000E+00  0.47604823661E+03  0.47604823661E+03  0.00000000000E+00 0. -1.
         21   -1    0    0  502  503 -0.00000000000E+00 -0.00000000000E+00 -0.48856965512E+03  0.48856965512E+03  0.00000000000E+00 0. -1.
    9000007    1    1    2  501    0  0.30581360781E+01  0.21392790877E+03  0.15748524746E+03  0.48018340820E+03  0.40000000000E+03 0. -1.
   -9000007    1    1    2    0  503 -0.30581360781E+01 -0.21392790877E+03 -0.17000666597E+03  0.48443448352E+03  0.40000000000E+03 0. -1.
<mgrwt>
<rscale>  2 0.45362375E+03</rscale>
<asrwt>0</asrwt>
<pdfrwt beam="1">  1       21 0.73238191E-01 0.45362375E+03</pdfrwt>
<pdfrwt beam="2">  1       21 0.75164562E-01 0.45362375E+03</pdfrwt>
<totfact> 0.22939274E+03</totfact>
</mgrwt>
</event>
<event>
 4    1  0.4832791E-002  0.5005527E+03  0.7818608E-02  0.1013635E+00
         21   -1    0    0  501  502  0.00000000000E+00  0.00000000000E+00  0.11671508517E+04  0.11671508517E+04  0.00000000000E+00 0. -1.
         21   -1    0    0  502  503 -0.00000000000E+00 -0.00000000000E+00 -0.21501924854E+03  0.21501924854E+03  0.00000000000E+00 0.  1.
    9000007    1    1    2  501    0  0.29472155192E+03 -0.60763958627E+02  0.50389143191E+03  0.71025321329E+03  0.40000000000E+03 0. -1.
   -9000007    1    1    2    0  503 -0.29472155192E+03  0.60763958627E+02  0.44824017123E+03  0.67191688693E+03  0.40000000000E+03 0.  1.
<mgrwt>
<rscale>  2 0.50055275E+03</rscale>
<asrwt>0</asrwt>
<pdfrwt beam="1">  1       21 0.17956167E+00 0.50055275E+03</pdfrwt>
<pdfrwt beam="2">  1       21 0.33079885E-01 0.50055275E+03</pdfrwt>
<totfact> 0.13327455E+03</totfact>
</mgrwt>
</event>
<event>
 4    1  0.4832791E-002  0.4356233E+03  0.7818608E-02  0.1032098E+00
         21   -1    0    0  503  502  0.00000000000E+00  0.00000000000E+00  0.73254050027E+03  0.73254050027E+03  0.00000000000E+00 0.  1.
         21   -1    0    0  501  503 -0.00000000000E+00 -0.00000000000E+00 -0.58198491419E+03  0.58198491419E+03  0.00000000000E+00 0.  1.
    9000007    1    1    2  501    0 -0.10992407897E+03 -0.13298249325E+03 -0.41431819120E+03  0.60118816539E+03  0.40000000000E+03 0.  1.
   -9000007    1    1    2    0  502  0.10992407897E+03  0.13298249325E+03  0.56487377728E+03  0.71333724906E+03  0.40000000000E+03 0.  1.
<mgrwt>
<rscale>  2 0.43562329E+03</rscale>
<asrwt>0</asrwt>
<pdfrwt beam="1">  1       21 0.11269854E+00 0.43562329E+03</pdfrwt>
<pdfrwt beam="2">  1       21 0.89536141E-01 0.43562329E+03</pdfrwt>
<totfact> 0.55252264E+02</totfact>
</mgrwt>
</event>
<event>
 4    1  0.4832791E-002  0.4285727E+03  0.7818608E-02  0.1034312E+00
         21   -1    0    0  503  502  0.00000000000E+00  0.00000000000E+00  0.27670321688E+03  0.27670321688E+03  0.00000000000E+00 0.  1.
         21   -1    0    0  501  503 -0.00000000000E+00 -0.00000000000E+00 -0.86764561260E+03  0.86764561260E+03  0.00000000000E+00 0.  1.
    9000007    1    1    2  501    0  0.11893772391E+03  0.97613486231E+02 -0.57281078167E+03  0.71539273582E+03  0.40000000000E+03 0.  1.
   -9000007    1    1    2    0  502 -0.11893772391E+03 -0.97613486231E+02 -0.18131614047E+02  0.42895609366E+03  0.40000000000E+03 0.  1.
<mgrwt>
<rscale>  2 0.42857272E+03</rscale>
<asrwt>0</asrwt>
<pdfrwt beam="1">  1       21 0.42569726E-01 0.42857272E+03</pdfrwt>
<pdfrwt beam="2">  1       21 0.13348394E+00 0.42857272E+03</pdfrwt>
<totfact> 0.18560262E+03</totfact>
</mgrwt>
</event>
<event>
 4    1  0.4832791E-002  0.5090596E+03  0.7818608E-02  0.1011441E+00
         21   -1    0    0  501  502  0.00000000000E+00  0.00000000000E+00  0.60519562851E+03  0.60519562851E+03  0.00000000000E+00 0. -1.
         21   -1    0    0  502  503 -0.00000000000E+00 -0.00000000000E+00 -0.42887637554E+03  0.42887637554E+03  0.00000000000E+00 0. -1.
    9000007    1    1    2  501    0  0.17059117294E+03 -0.26465128983E+03  0.10877041819E+03  0.52055034086E+03  0.40000000000E+03 0. -1.
   -9000007    1    1    2    0  503 -0.17059117294E+03  0.26465128983E+03  0.67548834776E+02  0.51352166320E+03  0.40000000000E+03 0. -1.
<mgrwt>
<rscale>  2 0.50905958E+03</rscale>
<asrwt>0</asrwt>
<pdfrwt beam="1">  1       21 0.93107020E-01 0.50905958E+03</pdfrwt>
<pdfrwt beam="2">  1       21 0.65980981E-01 0.50905958E+03</pdfrwt>
<totfact> 0.17259048E+03</totfact>
</mgrwt>
</event>
<event>
 4    1  0.4832791E-002  0.6951690E+03  0.7818608E-02  0.9725530E-01
         21   -1    0    0  503  502  0.00000000000E+00  0.00000000000E+00  0.81501104790E+03  0.81501104790E+03  0.00000000000E+00 0. -1.
         21   -1    0    0  501  503 -0.00000000000E+00 -0.00000000000E+00 -0.11061401060E+04  0.11061401060E+04  0.00000000000E+00 0. -1.
    9000007    1    1    2  501    0  0.33843178913E+03 -0.45686300581E+03 -0.79984820533E+03  0.10597249801E+04  0.40000000000E+03 0. -1.
   -9000007    1    1    2    0  502 -0.33843178913E+03  0.45686300581E+03  0.50871914727E+03  0.86142617372E+03  0.40000000000E+03 0. -1.
<mgrwt>
<rscale>  2 0.69516896E+03</rscale>
<asrwt>0</asrwt>
<pdfrwt beam="1">  1       21 0.12538631E+00 0.69516896E+03</pdfrwt>
<pdfrwt beam="2">  1       21 0.17017540E+00 0.69516896E+03</pdfrwt>
<totfact> 0.71732116E+01</totfact>
</mgrwt>
</event>
<event>
 4    1  0.4832791E-002  0.6430539E+03  0.7818608E-02  0.9819901E-01
         21   -1    0    0  501  502  0.00000000000E+00  0.00000000000E+00  0.30475825354E+04  0.30475825354E+04  0.00000000000E+00 0.  1.
         21   -1    0    0  502  503 -0.00000000000E+00 -0.00000000000E+00 -0.19458562081E+03  0.19458562081E+03  0.00000000000E+00 0.  1.
    9000007    1    1    2  501    0 -0.32493477989E+03  0.38462417702E+03  0.23183682936E+04  0.24058989824E+04  0.40000000000E+03 0.  1.
   -9000007    1    1    2    0  503  0.32493477989E+03 -0.38462417702E+03  0.53462862103E+03  0.83626917386E+03  0.40000000000E+03 0.  1.
<mgrwt>
<rscale>  2 0.64305394E+03</rscale>
<asrwt>0</asrwt>
<pdfrwt beam="1">  1       21 0.46885882E+00 0.64305394E+03</pdfrwt>
<pdfrwt beam="2">  1       21 0.29936252E-01 0.64305394E+03</pdfrwt>
<totfact> 0.21480929E+01</totfact>
</mgrwt>
</event>
<event>
 4    1  0.4832791E-002  0.4876514E+03  0.7818608E-02  0.1017053E+00
         21   -1    0    0  501  502  0.00000000000E+00  0.00000000000E+00  0.35145995611E+03  0.35145995611E+03  0.00000000000E+00 0. -1.
         21   -1    0    0  502  503 -0.00000000000E+00 -0.00000000000E+00 -0.67668761412E+03  0.67668761412E+03  0.00000000000E+00 0. -1.
    9000007    1    1    2  501    0  0.86350883493E+02 -0.26523090345E+03 -0.16785189543E+03  0.51573071076E+03  0.40000000000E+03 0. -1.
   -9000007    1    1    2    0  503 -0.86350883493E+02  0.26523090345E+03 -0.15737576258E+03  0.51241685947E+03  0.40000000000E+03 0. -1.
<mgrwt>
<rscale>  2 0.48765142E+03</rscale>
<asrwt>0</asrwt>
<pdfrwt beam="1">  1       21 0.54070763E-01 0.48765142E+03</pdfrwt>
<pdfrwt beam="2">  1       21 0.10410579E+00 0.48765142E+03</pdfrwt>
<totfact> 0.20523727E+03</totfact>
</mgrwt>
</event>
<event>
 4    1  0.4832791E-002  0.4768604E+03  0.7818608E-02  0.1020002E+00
         21   -1    0    0  503  502  0.00000000000E+00  0.00000000000E+00  0.30947824361E+03  0.30947824361E+03  0.00000000000E+00 0. -1.
         21   -1    0    0  501  503 -0.00000000000E+00 -0.00000000000E+00 -0.24468998288E+04  0.24468998288E+04  0.00000000000E+00 0. -1.
    9000007    1    1    2  501    0 -0.32308030856E+02  0.25758892322E+03 -0.22215502271E+04  0.22721534441E+04  0.40000000000E+03 0. -1.
   -9000007    1    1    2    0  502  0.32308030856E+02 -0.25758892322E+03  0.84128641908E+02  0.48422462826E+03  0.40000000000E+03 0. -1.
<mgrwt>
<rscale>  2 0.47686042E+03</rscale>
<asrwt>0</asrwt>
<pdfrwt beam="1">  1       21 0.47612038E-01 0.47686042E+03</pdfrwt>
<pdfrwt beam="2">  1       21 0.37644613E+00 0.47686042E+03</pdfrwt>
<totfact> 0.37334211E+01</totfact>
</mgrwt>
</event>
<event>
 4    1  0.4832791E-002  0.4384158E+03  0.7818608E-02  0.1031234E+00
         21   -1    0    0  501  502  0.00000000000E+00  0.00000000000E+00  0.70850648169E+03  0.70850648169E+03  0.00000000000E+00 0.  1.
         21   -1    0    0  502  503 -0.00000000000E+00 -0.00000000000E+00 -0.11559625347E+04  0.11559625347E+04  0.00000000000E+00 0.  1.
    9000007    1    1    2  501    0 -0.16705794094E+03  0.65574936791E+02  0.59181215440E+03  0.73651208684E+03  0.40000000000E+03 0.  1.
   -9000007    1    1    2    0  503  0.16705794094E+03 -0.65574936791E+02 -0.10392682074E+04  0.11279569296E+04  0.40000000000E+03 0.  1.
<mgrwt>
<rscale>  2 0.43841582E+03</rscale>
<asrwt>0</asrwt>
<pdfrwt beam="1">  1       21 0.10900100E+00 0.43841582E+03</pdfrwt>
<pdfrwt beam="2">  1       21 0.17784039E+00 0.43841582E+03</pdfrwt>
<totfact> 0.10115986E+02</totfact>
</mgrwt>
</event>
<event>
 4    1  0.4832791E-002  0.4335001E+03  0.7818608E-02  0.1032760E+00
         21   -1    0    0  501  502  0.00000000000E+00  0.00000000000E+00  0.16727608155E+04  0.16727608155E+04  0.00000000000E+00 0. -1.
         21   -1    0    0  502  503 -0.00000000000E+00 -0.00000000000E+00 -0.11264992397E+03  0.11264992397E+03  0.00000000000E+00 0.  1.
    9000007    1    1    2  501    0  0.16533584299E+03  0.24214963726E+02  0.82668253172E+03  0.93344861331E+03  0.40000000000E+03 0. -1.
   -9000007    1    1    2    0  503 -0.16533584299E+03 -0.24214963726E+02  0.73342835980E+03  0.85196212615E+03  0.40000000000E+03 0.  1.
<mgrwt>
<rscale>  2 0.43350006E+03</rscale>
<asrwt>0</asrwt>
<pdfrwt beam="1">  1       21 0.25734780E+00 0.43350006E+03</pdfrwt>
<pdfrwt beam="2">  1       21 0.17330759E-01 0.43350006E+03</pdfrwt>
<totfact> 0.15089853E+03</totfact>
</mgrwt>
</event>
<event>
 4    1  0.4832791E-002  0.5004962E+03  0.7818608E-02  0.1013649E+00
         21   -1    0    0  501  502  0.00000000000E+00  0.00000000000E+00  0.79030619516E+03  0.79030619516E+03  0.00000000000E+00 0.  1.
         21   -1    0    0  502  503 -0.00000000000E+00 -0.00000000000E+00 -0.32568593291E+03  0.32568593291E+03  0.00000000000E+00 0.  1.
    9000007    1    1    2  501    0 -0.44523304622E+02  0.29751315801E+03  0.32363889594E+03  0.59601890810E+03  0.40000000000E+03 0.  1.
   -9000007    1    1    2    0  503  0.44523304622E+02 -0.29751315801E+03  0.14098136631E+03  0.51997321997E+03  0.40000000000E+03 0.  1.
<mgrwt>
<rscale>  2 0.50049616E+03</rscale>
<asrwt>0</asrwt>
<pdfrwt beam="1">  1       21 0.12158557E+00 0.50049616E+03</pdfrwt>
<pdfrwt beam="2">  1       21 0.50105528E-01 0.50049616E+03</pdfrwt>
<totfact> 0.16313384E+03</totfact>
</mgrwt>
</event>
<event>
 4    1  0.4832791E-002  0.4849069E+03  0.7818608E-02  0.1017795E+00
         21   -1    0    0  501  502  0.00000000000E+00  0.00000000000E+00  0.37648155980E+03  0.37648155980E+03  0.00000000000E+00 0. -1.
         21   -1    0    0  502  503 -0.00000000000E+00 -0.00000000000E+00 -0.64747564687E+03  0.64747564687E+03  0.00000000000E+00 0. -1.
    9000007    1    1    2  501    0 -0.17379231402E+03 -0.21196924891E+03 -0.23181805958E+03  0.53747031885E+03  0.40000000000E+03 0. -1.
   -9000007    1    1    2    0  503  0.17379231402E+03  0.21196924891E+03 -0.39176027496E+02  0.48648688782E+03  0.40000000000E+03 0. -1.
<mgrwt>
<rscale>  2 0.48490693E+03</rscale>
<asrwt>0</asrwt>
<pdfrwt beam="1">  1       21 0.57920240E-01 0.48490693E+03</pdfrwt>
<pdfrwt beam="2">  1       21 0.99611639E-01 0.48490693E+03</pdfrwt>
<totfact> 0.19717672E+03</totfact>
</mgrwt>
</event>
<event>
 4    1  0.4832791E-002  0.4616450E+03  0.7818608E-02  0.1024305E+00
         21   -1    0    0  503  502  0.00000000000E+00  0.00000000000E+00  0.32891089812E+03  0.32891089812E+03  0.00000000000E+00 0.  1.
         21   -1    0    0  501  503 -0.00000000000E+00 -0.00000000000E+00 -0.69229593615E+03  0.69229593615E+03  0.00000000000E+00 0.  1.
    9000007    1    1    2  501    0 -0.21240032085E+03  0.89455097776E+02 -0.31093048983E+03  0.55659130457E+03  0.40000000000E+03 0.  1.
   -9000007    1    1    2    0  502  0.21240032085E+03 -0.89455097776E+02 -0.52454548205E+02  0.46461552970E+03  0.40000000000E+03 0.  1.
<mgrwt>
<rscale>  2 0.46164501E+03</rscale>
<asrwt>0</asrwt>
<pdfrwt beam="1">  1       21 0.50601678E-01 0.46164501E+03</pdfrwt>
<pdfrwt beam="2">  1       21 0.10650707E+00 0.46164501E+03</pdfrwt>
<totfact> 0.22574863E+03</totfact>
</mgrwt>
</event>
<event>
 4    1  0.4832791E-002  0.4339599E+03  0.7818608E-02  0.1032616E+00
         21   -1    0    0  503  502  0.00000000000E+00  0.00000000000E+00  0.10213436475E+04  0.10213436475E+04  0.00000000000E+00 0.  1.
         21   -1    0    0  501  503 -0.00000000000E+00 -0.00000000000E+00 -0.18702238290E+03  0.18702238290E+03  0.00000000000E+00 0.  1.
    9000007    1    1    2  501    0 -0.40363568093E+02 -0.16337667363E+03  0.34542228984E+03  0.55465098344E+03  0.40000000000E+03 0.  1.
   -9000007    1    1    2    0  502  0.40363568093E+02  0.16337667363E+03  0.48889897479E+03  0.65371504700E+03  0.40000000000E+03 0.  1.
<mgrwt>
<rscale>  2 0.43395985E+03</rscale>
<asrwt>0</asrwt>
<pdfrwt beam="1">  1       21 0.15712979E+00 0.43395985E+03</pdfrwt>
<pdfrwt beam="2">  1       21 0.28772675E-01 0.43395985E+03</pdfrwt>
<totfact> 0.26411295E+03</totfact>
</mgrwt>
</event>
<event>
 4    1  0.4832791E-002  0.4838800E+03  0.7818608E-02  0.1018074E+00
         21   -1    0    0  501  502  0.00000000000E+00  0.00000000000E+00  0.11780577066E+03  0.11780577066E+03  0.00000000000E+00 0.  1.
         21   -1    0    0  502  503 -0.00000000000E+00 -0.00000000000E+00 -0.29463193396E+04  0.29463193396E+04  0.00000000000E+00 0. -1.
    9000007    1    1    2  501    0 -0.16447904740E+03  0.21699429304E+03 -0.22882402794E+04  0.23388423326E+04  0.40000000000E+03 0.  1.
   -9000007    1    1    2    0  503  0.16447904740E+03 -0.21699429304E+03 -0.54027328950E+03  0.72528277768E+03  0.40000000000E+03 0.  1.
<mgrwt>
<rscale>  2 0.48388003E+03</rscale>
<asrwt>0</asrwt>
<pdfrwt beam="1">  1       21 0.18123964E-01 0.48388003E+03</pdfrwt>
<pdfrwt beam="2">  1       21 0.45327993E+00 0.48388003E+03</pdfrwt>
<totfact> 0.79939669E+01</totfact>
</mgrwt>
</event>
<event>
 4    1  0.4832791E-002  0.4210183E+03  0.7818608E-02  0.1036735E+00
         21   -1    0    0  501  502  0.00000000000E+00  0.00000000000E+00  0.18755517049E+04  0.18755517049E+04  0.00000000000E+00 0.  1.
         21   -1    0    0  502  503 -0.00000000000E+00 -0.00000000000E+00 -0.96388974870E+02  0.96388974870E+02  0.00000000000E+00 0.  1.
    9000007    1    1    2  501    0 -0.11349255829E+03  0.66149950793E+02  0.75188110167E+03  0.86173172614E+03  0.40000000000E+03 0. -1.
   -9000007    1    1    2    0  503  0.11349255829E+03 -0.66149950793E+02  0.10272816284E+04  0.11102089537E+04  0.40000000000E+03 0. -1.
<mgrwt>
<rscale>  2 0.42101826E+03</rscale>
<asrwt>0</asrwt>
<pdfrwt beam="1">  1       21 0.28854639E+00 0.42101826E+03</pdfrwt>
<pdfrwt beam="2">  1       21 0.14829074E-01 0.42101826E+03</pdfrwt>
<totfact> 0.13164601E+03</totfact>
</mgrwt>
</event>
<event>
 4    1  0.4832791E-002  0.4135295E+03  0.7818608E-02  0.1039193E+00
         21   -1    0    0  503  502  0.00000000000E+00  0.00000000000E+00  0.12870964810E+04  0.12870964810E+04  0.00000000000E+00 0. -1.
         21   -1    0    0  501  503 -0.00000000000E+00 -0.00000000000E+00 -0.13312845009E+03  0.13312845009E+03  0.00000000000E+00 0. -1.
    9000007    1    1    2  501    0 -0.87860848941E+02  0.57333407122E+02  0.60873254351E+03  0.73590893314E+03  0.40000000000E+03 0. -1.
   -9000007    1    1    2    0  502  0.87860848941E+02 -0.57333407122E+02  0.54523548744E+03  0.68431599800E+03  0.40000000000E+03 0. -1.
<mgrwt>
<rscale>  2 0.41352950E+03</rscale>
<asrwt>0</asrwt>
<pdfrwt beam="1">  1       21 0.19801483E+00 0.41352950E+03</pdfrwt>
<pdfrwt beam="2">  1       21 0.20481301E-01 0.41352950E+03</pdfrwt>
<totfact> 0.26366339E+03</totfact>
</mgrwt>
</event>
<event>
 4    1  0.4832791E-002  0.4026043E+03  0.7818608E-02  0.1042882E+00
         21   -1    0    0  501  502  0.00000000000E+00  0.00000000000E+00  0.87561350178E+03  0.87561350178E+03  0.00000000000E+00 0. -1.
         21   -1    0    0  502  503 -0.00000000000E+00 -0.00000000000E+00 -0.29569715250E+03  0.29569715250E+03  0.00000000000E+00 0. -1.
    9000007    1    1    2  501    0  0.45700842611E+02  0.12754067130E+01  0.64810310102E+03  0.76297301605E+03  0.40000000000E+03 0. -1.
   -9000007    1    1    2    0  503 -0.45700842611E+02 -0.12754067130E+01 -0.68186751735E+02  0.40833763822E+03  0.40000000000E+03 0. -1.
<mgrwt>
<rscale>  2 0.40260426E+03</rscale>
<asrwt>0</asrwt>
<pdfrwt beam="1">  1       21 0.13470977E+00 0.40260426E+03</pdfrwt>
<pdfrwt beam="2">  1       21 0.45491870E-01 0.40260426E+03</pdfrwt>
<totfact> 0.15958111E+03</totfact>
</mgrwt>
</event>
<event>
 4    1  0.4832791E-002  0.4868361E+03  0.7818608E-02  0.1017273E+00
         21   -1    0    0  501  502  0.00000000000E+00  0.00000000000E+00  0.30386576750E+03  0.30386576750E+03  0.00000000000E+00 0. -1.
         21   -1    0    0  502  503 -0.00000000000E+00 -0.00000000000E+00 -0.86755994640E+03  0.86755994640E+03  0.00000000000E+00 0. -1.
    9000007    1    1    2  501    0  0.14454397214E+03  0.23688910284E+03 -0.46794257331E+03  0.67526265915E+03  0.40000000000E+03 0. -1.
   -9000007    1    1    2    0  503 -0.14454397214E+03 -0.23688910284E+03 -0.95751605596E+02  0.49616305475E+03  0.40000000000E+03 0. -1.
<mgrwt>
<rscale>  2 0.48683612E+03</rscale>
<asrwt>0</asrwt>
<pdfrwt beam="1">  1       21 0.46748580E-01 0.48683612E+03</pdfrwt>
<pdfrwt beam="2">  1       21 0.13347076E+00 0.48683612E+03</pdfrwt>
<totfact> 0.14916391E+03</totfact>
</mgrwt>
</event>
<event>
 4    1  0.4832791E-002  0.4471213E+03  0.7818608E-02  0.1028584E+00
         21   -1    0    0  503  502  0.00000000000E+00  0.00000000000E+00  0.17418869925E+03  0.17418869925E+03  0.00000000000E+00 0. -1.
         21   -1    0    0  501  503 -0.00000000000E+00 -0.00000000000E+00 -0.13165133497E+04  0.13165133497E+04  0.00000000000E+00 0. -1.
    9000007    1    1    2  501    0 -0.19898199302E+03 -0.17989621344E+02 -0.83805924659E+03  0.94987407630E+03  0.40000000000E+03 0. -1.
   -9000007    1    1    2    0  502  0.19898199302E+03  0.17989621344E+02 -0.30426540385E+03  0.54082797265E+03  0.40000000000E+03 0. -1.
<mgrwt>
<rscale>  2 0.44712130E+03</rscale>
<asrwt>0</asrwt>
<pdfrwt beam="1">  1       21 0.26798262E-01 0.44712130E+03</pdfrwt>
<pdfrwt beam="2">  1       21 0.20254051E+00 0.44712130E+03</pdfrwt>
<totfact> 0.14418647E+03</totfact>
</mgrwt>
</event>
<event>
 4    1  0.4832791E-002  0.4740143E+03  0.7818608E-02  0.1020793E+00
         21   -1    0    0  503  502  0.00000000000E+00  0.00000000000E+00  0.25166687391E+03  0.25166687391E+03  0.00000000000E+00 0. -1.
         21   -1    0    0  501  503 -0.00000000000E+00 -0.00000000000E+00 -0.89452707953E+03  0.89452707953E+03  0.00000000000E+00 0. -1.
    9000007    1    1    2  501    0 -0.17495584398E+03 -0.18460768498E+03 -0.34657252950E+03  0.58719848680E+03  0.40000000000E+03 0. -1.
   -9000007    1    1    2    0  502  0.17495584398E+03  0.18460768498E+03 -0.29628767613E+03  0.55899546664E+03  0.40000000000E+03 0. -1.
<mgrwt>
<rscale>  2 0.47401429E+03</rscale>
<asrwt>0</asrwt>
<pdfrwt beam="1">  1       21 0.38717980E-01 0.47401429E+03</pdfrwt>
<pdfrwt beam="2">  1       21 0.13761955E+00 0.47401429E+03</pdfrwt>
<totfact> 0.20471577E+03</totfact>
</mgrwt>
</event>
<event>
 4    1  0.4832791E-002  0.4172748E+03  0.7818608E-02  0.1037957E+00
         21   -1    0    0  503  502  0.00000000000E+00  0.00000000000E+00  0.78505206959E+03  0.78505206959E+03  0.00000000000E+00 0. -1.
         21   -1    0    0  501  503 -0.00000000000E+00 -0.00000000000E+00 -0.22322782418E+03  0.22322782418E+03  0.00000000000E+00 0. -1.
    9000007    1    1    2  501    0 -0.11797666389E+03 -0.14132817476E+02  0.24047920644E+03  0.48161029732E+03  0.40000000000E+03 0. -1.
   -9000007    1    1    2    0  502  0.11797666389E+03  0.14132817476E+02  0.32134503897E+03  0.52666959645E+03  0.40000000000E+03 0. -1.
<mgrwt>
<rscale>  2 0.41727477E+03</rscale>
<asrwt>0</asrwt>
<pdfrwt beam="1">  1       21 0.12077724E+00 0.41727477E+03</pdfrwt>
<pdfrwt beam="2">  1       21 0.34342743E-01 0.41727477E+03</pdfrwt>
<totfact> 0.37424950E+03</totfact>
</mgrwt>
</event>
<event>
 4    1  0.4832791E-002  0.4721697E+03  0.7818608E-02  0.1021310E+00
         21   -1    0    0  501  502  0.00000000000E+00  0.00000000000E+00  0.53770877782E+03  0.53770877782E+03  0.00000000000E+00 0.  1.
         21   -1    0    0  502  503 -0.00000000000E+00 -0.00000000000E+00 -0.90262713585E+03  0.90262713585E+03  0.00000000000E+00 0. -1.
    9000007    1    1    2  501    0  0.23077442255E+03  0.98424380513E+02  0.34707402935E+03  0.58600731620E+03  0.40000000000E+03 0.  1.
   -9000007    1    1    2    0  503 -0.23077442255E+03 -0.98424380513E+02 -0.71199238737E+03  0.85432859747E+03  0.40000000000E+03 0. -1.
<mgrwt>
<rscale>  2 0.47216967E+03</rscale>
<asrwt>0</asrwt>
<pdfrwt beam="1">  1       21 0.82724428E-01 0.47216967E+03</pdfrwt>
<pdfrwt beam="2">  1       21 0.13886571E+00 0.47216967E+03</pdfrwt>
<totfact> 0.38261989E+02</totfact>
</mgrwt>
</event>
<event>
 4    1  0.4832791E-002  0.4745579E+03  0.7818608E-02  0.1020642E+00
         21   -1    0    0  503  502  0.00000000000E+00  0.00000000000E+00  0.20538923195E+03  0.20538923195E+03  0.00000000000E+00 0. -1.
         21   -1    0    0  501  503 -0.00000000000E+00 -0.00000000000E+00 -0.13148880573E+04  0.13148880573E+04  0.00000000000E+00 0. -1.
    9000007    1    1    2  501    0  0.40556234982E+01 -0.25532088421E+03 -0.86455030742E+03  0.98623143128E+03  0.40000000000E+03 0.  1.
   -9000007    1    1    2    0  502 -0.40556234982E+01  0.25532088421E+03 -0.24494851797E+03  0.53404585801E+03  0.40000000000E+03 0.  1.
<mgrwt>
<rscale>  2 0.47455790E+03</rscale>
<asrwt>0</asrwt>
<pdfrwt beam="1">  1       21 0.31598344E-01 0.47455790E+03</pdfrwt>
<pdfrwt beam="2">  1       21 0.20229047E+00 0.47455790E+03</pdfrwt>
<totfact> 0.10316928E+03</totfact>
</mgrwt>
</event>
<event>
 4    1  0.4832791E-002  0.8934331E+03  0.7818608E-02  0.9433828E-01
         21   -1    0    0  501  502  0.00000000000E+00  0.00000000000E+00  0.31020462132E+04  0.31020462132E+04  0.00000000000E+00 0. -1.
         21   -1    0    0  502  503 -0.00000000000E+00 -0.00000000000E+00 -0.45260229973E+03  0.45260229973E+03  0.00000000000E+00 0.  1.
    9000007    1    1    2  501    0  0.38711758901E+03  0.69882951735E+03  0.24921717919E+04  0.26474786048E+04  0.40000000000E+03 0. -1.
   -9000007    1    1    2    0  503 -0.38711758901E+03 -0.69882951735E+03  0.15727212148E+03  0.90716990814E+03  0.40000000000E+03 0.  1.
<mgrwt>
<rscale>  2 0.89343311E+03</rscale>
<asrwt>0</asrwt>
<pdfrwt beam="1">  1       21 0.47723787E+00 0.89343311E+03</pdfrwt>
<pdfrwt beam="2">  1       21 0.69631125E-01 0.89343311E+03</pdfrwt>
<totfact> 0.27791287E+00</totfact>
</mgrwt>
</event>
<event>
 4    1  0.4832791E-002  0.4619753E+03  0.7818608E-02  0.1024210E+00
         21   -1    0    0  503  502  0.00000000000E+00  0.00000000000E+00  0.33034741038E+03  0.33034741038E+03  0.00000000000E+00 0. -1.
         21   -1    0    0  501  503 -0.00000000000E+00 -0.00000000000E+00 -0.84872834689E+03  0.84872834689E+03  0.00000000000E+00 0. -1.
    9000007    1    1    2  501    0 -0.23111596109E+03 -0.25648147755E+01 -0.54728188524E+03  0.71619733849E+03  0.40000000000E+03 0. -1.
   -9000007    1    1    2    0  502  0.23111596109E+03  0.25648147755E+01  0.28900948730E+02  0.46287841879E+03  0.40000000000E+03 0. -1.
<mgrwt>
<rscale>  2 0.46197529E+03</rscale>
<asrwt>0</asrwt>
<pdfrwt beam="1">  1       21 0.50822680E-01 0.46197529E+03</pdfrwt>
<pdfrwt beam="2">  1       21 0.13057359E+00 0.46197529E+03</pdfrwt>
<totfact> 0.13356428E+03</totfact>
</mgrwt>
</event>
<event>
 4    1  0.4832791E-002  0.4610157E+03  0.7818608E-02  0.1024487E+00
         21   -1    0    0  501  502  0.00000000000E+00  0.00000000000E+00  0.62127921745E+03  0.62127921745E+03  0.00000000000E+00 0. -1.
         21   -1    0    0  502  503 -0.00000000000E+00 -0.00000000000E+00 -0.53316305407E+03  0.53316305407E+03  0.00000000000E+00 0.  1.
    9000007    1    1    2  501    0 -0.18550716752E+03  0.13461998280E+03  0.38960592746E+03  0.60359607991E+03  0.40000000000E+03 0. -1.
   -9000007    1    1    2    0  503  0.18550716752E+03 -0.13461998280E+03 -0.30148976408E+03  0.55084619161E+03  0.40000000000E+03 0.  1.
<mgrwt>
<rscale>  2 0.46101567E+03</rscale>
<asrwt>0</asrwt>
<pdfrwt beam="1">  1       21 0.95581418E-01 0.46101567E+03</pdfrwt>
<pdfrwt beam="2">  1       21 0.82025085E-01 0.46101567E+03</pdfrwt>
<totfact> 0.10048606E+03</totfact>
</mgrwt>
</event>
<event>
 4    1  0.4832791E-002  0.5188542E+03  0.7818608E-02  0.1008972E+00
         21   -1    0    0  501  502  0.00000000000E+00  0.00000000000E+00  0.29313358761E+03  0.29313358761E+03  0.00000000000E+00 0.  1.
         21   -1    0    0  502  503 -0.00000000000E+00 -0.00000000000E+00 -0.10124051333E+04  0.10124051333E+04  0.00000000000E+00 0.  1.
    9000007    1    1    2  501    0 -0.47646215015E+02 -0.32701612572E+03 -0.55856165955E+03  0.76236529027E+03  0.40000000000E+03 0.  1.
   -9000007    1    1    2    0  503  0.47646215015E+02  0.32701612572E+03 -0.16070988618E+03  0.54317343069E+03  0.40000000000E+03 0.  1.
<mgrwt>
<rscale>  2 0.51885423E+03</rscale>
<asrwt>0</asrwt>
<pdfrwt beam="1">  1       21 0.45097475E-01 0.51885423E+03</pdfrwt>
<pdfrwt beam="2">  1       21 0.15575464E+00 0.51885423E+03</pdfrwt>
<totfact> 0.10492995E+03</totfact>
</mgrwt>
</event>
<event>
 4    1  0.4832791E-002  0.4929346E+03  0.7818608E-02  0.1015640E+00
         21   -1    0    0  501  502  0.00000000000E+00  0.00000000000E+00  0.14996641857E+03  0.14996641857E+03  0.00000000000E+00 0.  1.
         21   -1    0    0  502  503 -0.00000000000E+00 -0.00000000000E+00 -0.16251545504E+04  0.16251545504E+04  0.00000000000E+00 0.  1.
    9000007    1    1    2  501    0  0.28685180025E+03  0.26468107270E+02 -0.78630525437E+03  0.92804120009E+03  0.40000000000E+03 0.  1.
   -9000007    1    1    2    0  503 -0.28685180025E+03 -0.26468107270E+02 -0.68888287745E+03  0.84707976889E+03  0.40000000000E+03 0.  1.
<mgrwt>
<rscale>  2 0.49293460E+03</rscale>
<asrwt>0</asrwt>
<pdfrwt beam="1">  1       21 0.23071755E-01 0.49293460E+03</pdfrwt>
<pdfrwt beam="2">  1       21 0.25002380E+00 0.49293460E+03</pdfrwt>
<totfact> 0.94295897E+02</totfact>
</mgrwt>
</event>
<event>
 4    1  0.4832791E-002  0.6487538E+03  0.7818608E-02  0.9809120E-01
         21   -1    0    0  501  502  0.00000000000E+00  0.00000000000E+00  0.24194745869E+03  0.24194745869E+03  0.00000000000E+00 0.  1.
         21   -1    0    0  502  503 -0.00000000000E+00 -0.00000000000E+00 -0.21144798124E+04  0.21144798124E+04  0.00000000000E+00 0.  1.
    9000007    1    1    2  501    0  0.50076930199E+02  0.50830479386E+03 -0.44013896783E+03  0.78396669151E+03  0.40000000000E+03 0.  1.
   -9000007    1    1    2    0  503 -0.50076930199E+02 -0.50830479386E+03 -0.14323933859E+04  0.15724605796E+04  0.40000000000E+03 0.  1.
<mgrwt>
<rscale>  2 0.64875378E+03</rscale>
<asrwt>0</asrwt>
<pdfrwt beam="1">  1       21 0.37222686E-01 0.64875378E+03</pdfrwt>
<pdfrwt beam="2">  1       21 0.32530458E+00 0.64875378E+03</pdfrwt>
<totfact> 0.11778773E+02</totfact>
</mgrwt>
</event>
<event>
 4    1  0.4832791E-002  0.4401619E+03  0.7818608E-02  0.1030697E+00
         21   -1    0    0  501  502  0.00000000000E+00  0.00000000000E+00  0.56150545145E+03  0.56150545145E+03  0.00000000000E+00 0. -1.
         21   -1    0    0  502  503 -0.00000000000E+00 -0.00000000000E+00 -0.92151218070E+03  0.92151218070E+03  0.00000000000E+00 0. -1.
    9000007    1    1    2  501    0 -0.14448711057E+03 -0.11342833131E+03  0.40647839027E+03  0.59913870950E+03  0.40000000000E+03 0. -1.
   -9000007    1    1    2    0  503  0.14448711057E+03  0.11342833131E+03 -0.76648511951E+03  0.88387892265E+03  0.40000000000E+03 0. -1.
<mgrwt>
<rscale>  2 0.44016192E+03</rscale>
<asrwt>0</asrwt>
<pdfrwt beam="1">  1       21 0.86385454E-01 0.44016192E+03</pdfrwt>
<pdfrwt beam="2">  1       21 0.14177110E+00 0.44016192E+03</pdfrwt>
<totfact> 0.33219956E+02</totfact>
</mgrwt>
</event>
<event>
 4    1  0.4832791E-002  0.4662927E+03  0.7818608E-02  0.1022972E+00
         21   -1    0    0  503  502  0.00000000000E+00  0.00000000000E+00  0.12801776916E+04  0.12801776916E+04  0.00000000000E+00 0.  1.
         21   -1    0    0  501  503 -0.00000000000E+00 -0.00000000000E+00 -0.17431440867E+03  0.17431440867E+03  0.00000000000E+00 0.  1.
    9000007    1    1    2  501    0  0.21904452040E+03 -0.97202956209E+02  0.43645243428E+03  0.63868587272E+03  0.40000000000E+03 0.  1.
   -9000007    1    1    2    0  502 -0.21904452040E+03  0.97202956209E+02  0.66941084862E+03  0.81580622752E+03  0.40000000000E+03 0.  1.
<mgrwt>
<rscale>  2 0.46629274E+03</rscale>
<asrwt>0</asrwt>
<pdfrwt beam="1">  1       21 0.19695041E+00 0.46629274E+03</pdfrwt>
<pdfrwt beam="2">  1       21 0.26817602E-01 0.46629274E+03</pdfrwt>
<totfact> 0.15560640E+03</totfact>
</mgrwt>
</event>
<event>
 4    1  0.4832791E-002  0.5672947E+03  0.7818608E-02  0.9975683E-01
         21   -1    0    0  503  502  0.00000000000E+00  0.00000000000E+00  0.56447989676E+03  0.56447989676E+03  0.00000000000E+00 0.  1.
         21   -1    0    0  501  503 -0.00000000000E+00 -0.00000000000E+00 -0.14710168382E+04  0.14710168382E+04  0.00000000000E+00 0. -1.
    9000007    1    1    2  501    0  0.21352040820E+03  0.34092852278E+03 -0.12497364014E+04  0.13724665007E+04  0.40000000000E+03 0. -1.
   -9000007    1    1    2    0  502 -0.21352040820E+03 -0.34092852278E+03  0.34319945994E+03  0.66303023435E+03  0.40000000000E+03 0.  1.
<mgrwt>
<rscale>  2 0.56729465E+03</rscale>
<asrwt>0</asrwt>
<pdfrwt beam="1">  1       21 0.86843062E-01 0.56729465E+03</pdfrwt>
<pdfrwt beam="2">  1       21 0.22631028E+00 0.56729465E+03</pdfrwt>
<totfact> 0.77717496E+01</totfact>
</mgrwt>
</event>
<event>
 4    1  0.4832791E-002  0.4446766E+03  0.7818608E-02  0.1029322E+00
         21   -1    0    0  501  502  0.00000000000E+00  0.00000000000E+00  0.77484023375E+03  0.77484023375E+03  0.00000000000E+00 0. -1.
         21   -1    0    0  502  503 -0.00000000000E+00 -0.00000000000E+00 -0.63802805786E+03  0.63802805786E+03  0.00000000000E+00 0. -1.
    9000007    1    1    2  501    0 -0.18227413134E+03 -0.67181866508E+02  0.61561745843E+03  0.75942222595E+03  0.40000000000E+03 0. -1.
   -9000007    1    1    2    0  503  0.18227413134E+03  0.67181866508E+02 -0.47880528254E+03  0.65344606566E+03  0.40000000000E+03 0. -1.
<mgrwt>
<rscale>  2 0.44467658E+03</rscale>
<asrwt>0</asrwt>
<pdfrwt beam="1">  1       21 0.11920619E+00 0.44467658E+03</pdfrwt>
<pdfrwt beam="2">  1       21 0.98158163E-01 0.44467658E+03</pdfrwt>
<totfact> 0.38373721E+02</totfact>
</mgrwt>
</event>
<event>
 4    1  0.4832791E-002  0.5178508E+03  0.7818608E-02  0.1009222E+00
         21   -1    0    0  501  502  0.00000000000E+00  0.00000000000E+00  0.35531478725E+03  0.35531478725E+03  0.00000000000E+00 0. -1.
         21   -1    0    0  502  503 -0.00000000000E+00 -0.00000000000E+00 -0.75594217625E+03  0.75594217625E+03  0.00000000000E+00 0.  1.
    9000007    1    1    2  501    0  0.32814730055E+03 -0.22109137739E+02 -0.17813481640E+03  0.54763261192E+03  0.40000000000E+03 0.  1.
   -9000007    1    1    2    0  503 -0.32814730055E+03  0.22109137739E+02 -0.22249257261E+03  0.56362435158E+03  0.40000000000E+03 0.  1.
<mgrwt>
<rscale>  2 0.51785081E+03</rscale>
<asrwt>0</asrwt>
<pdfrwt beam="1">  1       21 0.54663814E-01 0.51785081E+03</pdfrwt>
<pdfrwt beam="2">  1       21 0.11629879E+00 0.51785081E+03</pdfrwt>
<totfact> 0.15059815E+03</totfact>
</mgrwt>
</event>
<event>
 4    1  0.4832791E-002  0.4058215E+03  0.7818608E-02  0.1041782E+00
         21   -1    0    0  501  502  0.00000000000E+00  0.00000000000E+00  0.19150852421E+03  0.19150852421E+03  0.00000000000E+00 0. -1.
         21   -1    0    0  502  503 -0.00000000000E+00 -0.00000000000E+00 -0.96873187415E+03  0.96873187415E+03  0.00000000000E+00 0. -1.
    9000007    1    1    2  501    0 -0.11866769382E+02 -0.67455817145E+02 -0.19422812107E+03  0.44990629079E+03  0.40000000000E+03 0. -1.
   -9000007    1    1    2    0  503  0.11866769382E+02  0.67455817145E+02 -0.58299522888E+03  0.71033410757E+03  0.40000000000E+03 0. -1.
<mgrwt>
<rscale>  2 0.40582152E+03</rscale>
<asrwt>0</asrwt>
<pdfrwt beam="1">  1       21 0.29462850E-01 0.40582152E+03</pdfrwt>
<pdfrwt beam="2">  1       21 0.14903567E+00 0.40582152E+03</pdfrwt>
<totfact> 0.29451787E+03</totfact>
</mgrwt>
</event>
<event>
 4    1  0.4832791E-002  0.4559899E+03  0.7818608E-02  0.1025951E+00
         21   -1    0    0  503  502  0.00000000000E+00  0.00000000000E+00  0.49362384264E+03  0.49362384264E+03  0.00000000000E+00 0.  1.
         21   -1    0    0  501  503 -0.00000000000E+00 -0.00000000000E+00 -0.44388404312E+03  0.44388404312E+03  0.00000000000E+00 0.  1.
    9000007    1    1    2  501    0 -0.10256575178E+03  0.19340906917E+03 -0.81038167037E+02  0.46313495440E+03  0.40000000000E+03 0.  1.
   -9000007    1    1    2    0  502  0.10256575178E+03 -0.19340906917E+03  0.13077796655E+03  0.47437293136E+03  0.40000000000E+03 0.  1.
<mgrwt>
<rscale>  2 0.45598991E+03</rscale>
<asrwt>0</asrwt>
<pdfrwt beam="1">  1       21 0.75942129E-01 0.45598991E+03</pdfrwt>
<pdfrwt beam="2">  1       21 0.68289853E-01 0.45598991E+03</pdfrwt>
<totfact> 0.26215658E+03</totfact>
</mgrwt>
</event>
<event>
 4    1  0.4832791E-002  0.4892101E+03  0.7818608E-02  0.1016634E+00
         21   -1    0    0  501  502  0.00000000000E+00  0.00000000000E+00  0.48611116435E+03  0.48611116435E+03  0.00000000000E+00 0. -1.
         21   -1    0    0  502  503 -0.00000000000E+00 -0.00000000000E+00 -0.49653953041E+03  0.49653953041E+03  0.00000000000E+00 0.  1.
    9000007    1    1    2  501    0  0.17845201013E+03 -0.21790232089E+03 -0.50459055191E+02  0.49180550792E+03  0.40000000000E+03 0. -1.
   -9000007    1    1    2    0  503 -0.17845201013E+03  0.21790232089E+03  0.40030689123E+02  0.49084518684E+03  0.40000000000E+03 0.  1.
<mgrwt>
<rscale>  2 0.48921012E+03</rscale>
<asrwt>0</asrwt>
<pdfrwt beam="1">  1       21 0.74786333E-01 0.48921012E+03</pdfrwt>
<pdfrwt beam="2">  1       21 0.76390697E-01 0.48921012E+03</pdfrwt>
<totfact> 0.20812640E+03</totfact>
</mgrwt>
</event>
<event>
 4    1  0.4832791E-002  0.5062897E+03  0.7818608E-02  0.1012150E+00
         21   -1    0    0  503  502  0.00000000000E+00  0.00000000000E+00  0.43414044670E+03  0.43414044670E+03  0.00000000000E+00 0.  1.
         21   -1    0    0  501  503 -0.00000000000E+00 -0.00000000000E+00 -0.59657616415E+03  0.59657616415E+03  0.00000000000E+00 0. -1.
    9000007    1    1    2  501    0 -0.24131700087E+03 -0.19518046382E+03 -0.13352940764E+03  0.52360234059E+03  0.40000000000E+03 0. -1.
   -9000007    1    1    2    0  502  0.24131700087E+03  0.19518046382E+03 -0.28906309811E+02  0.50711427027E+03  0.40000000000E+03 0. -1.
<mgrwt>
<rscale>  2 0.50628975E+03</rscale>
<asrwt>0</asrwt>
<pdfrwt beam="1">  1       21 0.66790838E-01 0.50628975E+03</pdfrwt>
<pdfrwt beam="2">  1       21 0.91780949E-01 0.50628975E+03</pdfrwt>
<totfact> 0.17396227E+03</totfact>
</mgrwt>
</event>
<event>
 4    1  0.4832791E-002  0.4053540E+03  0.7818608E-02  0.1041941E+00
         21   -1    0    0  503  502  0.00000000000E+00  0.00000000000E+00  0.38189104945E+03  0.38189104945E+03  0.00000000000E+00 0.  1.
         21   -1    0    0  501  503 -0.00000000000E+00 -0.00000000000E+00 -0.65003470024E+03  0.65003470024E+03  0.00000000000E+00 0.  1.
    9000007    1    1    2  501    0 -0.15557133964E+02  0.63795315302E+02 -0.43408513547E+03  0.59392067779E+03  0.40000000000E+03 0.  1.
   -9000007    1    1    2    0  502  0.15557133964E+02 -0.63795315302E+02  0.16594148468E+03  0.43800507190E+03  0.40000000000E+03 0.  1.
<mgrwt>
<rscale>  2 0.40535400E+03</rscale>
<asrwt>0</asrwt>
<pdfrwt beam="1">  1       21 0.58752470E-01 0.40535400E+03</pdfrwt>
<pdfrwt beam="2">  1       21 0.10000534E+00 0.40535400E+03</pdfrwt>
<totfact> 0.19519320E+03</totfact>
</mgrwt>
</event>
<event>
 4    1  0.4832791E-002  0.4746740E+03  0.7818608E-02  0.1020609E+00
         21   -1    0    0  503  502  0.00000000000E+00  0.00000000000E+00  0.69375455103E+03  0.69375455103E+03  0.00000000000E+00 0.  1.
         21   -1    0    0  501  503 -0.00000000000E+00 -0.00000000000E+00 -0.68160465833E+03  0.68160465833E+03  0.00000000000E+00 0. -1.
    9000007    1    1    2  501    0 -0.20545976766E+03 -0.15199244639E+03 -0.49148935503E+03  0.68328413269E+03  0.40000000000E+03 0. -1.
   -9000007    1    1    2    0  502  0.20545976766E+03  0.15199244639E+03  0.50363924773E+03  0.69207507666E+03  0.40000000000E+03 0.  1.
<mgrwt>
<rscale>  2 0.47467401E+03</rscale>
<asrwt>0</asrwt>
<pdfrwt beam="1">  1       21 0.10673147E+00 0.47467401E+03</pdfrwt>
<pdfrwt beam="2">  1       21 0.10486226E+00 0.47467401E+03</pdfrwt>
<totfact> 0.42444067E+02</totfact>
</mgrwt>
</event>
<event>
 4    1  0.4832791E-002  0.6285686E+03  0.7818608E-02  0.9847846E-01
         21   -1    0    0  503  502  0.00000000000E+00  0.00000000000E+00  0.67655275341E+03  0.67655275341E+03  0.00000000000E+00 0. -1.
         21   -1    0    0  501  503 -0.00000000000E+00 -0.00000000000E+00 -0.90980312569E+03  0.90980312569E+03  0.00000000000E+00 0. -1.
    9000007    1    1    2  501    0 -0.18699462829E+03  0.44736061084E+03 -0.59128527382E+03  0.86296974580E+03  0.40000000000E+03 0. -1.
   -9000007    1    1    2    0  502  0.18699462829E+03 -0.44736061084E+03  0.35803490154E+03  0.72338613330E+03  0.40000000000E+03 0. -1.
<mgrwt>
<rscale>  2 0.62856862E+03</rscale>
<asrwt>0</asrwt>
<pdfrwt beam="1">  1       21 0.10408504E+00 0.62856862E+03</pdfrwt>
<pdfrwt beam="2">  1       21 0.13996971E+00 0.62856862E+03</pdfrwt>
<totfact> 0.20290946E+02</totfact>
</mgrwt>
</event>
<event>
 4    1  0.4832791E-002  0.5723529E+03  0.7818608E-02  0.9964485E-01
         21   -1    0    0  501  502  0.00000000000E+00  0.00000000000E+00  0.62546916300E+03  0.62546916300E+03  0.00000000000E+00 0. -1.
         21   -1    0    0  502  503 -0.00000000000E+00 -0.00000000000E+00 -0.10336985475E+04  0.10336985475E+04  0.00000000000E+00 0.  1.
    9000007    1    1    2  501    0  0.27221672103E+03 -0.30575469408E+03  0.37856194611E+03  0.68621936959E+03  0.40000000000E+03 0. -1.
   -9000007    1    1    2    0  503 -0.27221672103E+03  0.30575469408E+03 -0.78679133063E+03  0.97294834093E+03  0.40000000000E+03 0.  1.
<mgrwt>
<rscale>  2 0.57235293E+03</rscale>
<asrwt>0</asrwt>
<pdfrwt beam="1">  1       21 0.96226026E-01 0.57235293E+03</pdfrwt>
<pdfrwt beam="2">  1       21 0.15903054E+00 0.57235293E+03</pdfrwt>
<totfact> 0.17702473E+02</totfact>
</mgrwt>
</event>
<event>
 4    1  0.4832791E-002  0.5458386E+03  0.7818608E-02  0.1002462E+00
         21   -1    0    0  501  502  0.00000000000E+00  0.00000000000E+00  0.33481432391E+03  0.33481432391E+03  0.00000000000E+00 0.  1.
         21   -1    0    0  502  503 -0.00000000000E+00 -0.00000000000E+00 -0.92126569647E+03  0.92126569647E+03  0.00000000000E+00 0.  1.
    9000007    1    1    2  501    0 -0.34366209530E+03  0.14084088605E+03 -0.17727869282E+03  0.57390550255E+03  0.40000000000E+03 0. -1.
   -9000007    1    1    2    0  503  0.34366209530E+03 -0.14084088605E+03 -0.40917267974E+03  0.68217451783E+03  0.40000000000E+03 0. -1.
<mgrwt>
<rscale>  2 0.54583861E+03</rscale>
<asrwt>0</asrwt>
<pdfrwt beam="1">  1       21 0.51509896E-01 0.54583861E+03</pdfrwt>
<pdfrwt beam="2">  1       21 0.14173319E+00 0.54583861E+03</pdfrwt>
<totfact> 0.10132787E+03</totfact>
</mgrwt>
</event>
<event>
 4    1  0.4832791E-002  0.4066265E+03  0.7818608E-02  0.1041509E+00
         21   -1    0    0  501  502  0.00000000000E+00  0.00000000000E+00  0.23366056509E+04  0.23366056509E+04  0.00000000000E+00 0.  1.
         21   -1    0    0  502  503 -0.00000000000E+00 -0.00000000000E+00 -0.59966485856E+03  0.59966485856E+03  0.00000000000E+00 0.  1.
    9000007    1    1    2  501    0  0.52456295126E+02 -0.50926300601E+02  0.22472642149E+04  0.22837560295E+04  0.40000000000E+03 0.  1.
   -9000007    1    1    2    0  503 -0.52456295126E+02  0.50926300601E+02 -0.51032342251E+03  0.65251447995E+03  0.40000000000E+03 0.  1.
<mgrwt>
<rscale>  2 0.40662655E+03</rscale>
<asrwt>0</asrwt>
<pdfrwt beam="1">  1       21 0.35947779E+00 0.40662655E+03</pdfrwt>
<pdfrwt beam="2">  1       21 0.92256134E-01 0.40662655E+03</pdfrwt>
<totfact> 0.11475249E+01</totfact>
</mgrwt>
</event>
<event>
 4    1  0.4832791E-002  0.4535198E+03  0.7818608E-02  0.1026678E+00
         21   -1    0    0  501  502  0.00000000000E+00  0.00000000000E+00  0.41992767739E+03  0.41992767739E+03  0.00000000000E+00 0.  1.
         21   -1    0    0  502  503 -0.00000000000E+00 -0.00000000000E+00 -0.49960106510E+03  0.49960106510E+03  0.00000000000E+00 0. -1.
    9000007    1    1    2  501    0  0.17328705279E+03  0.12510703002E+03 -0.10423606499E+03  0.46534431217E+03  0.40000000000E+03 0. -1.
   -9000007    1    1    2    0  503 -0.17328705279E+03 -0.12510703002E+03  0.24562677277E+02  0.45418443031E+03  0.40000000000E+03 0. -1.
<mgrwt>
<rscale>  2 0.45351976E+03</rscale>
<asrwt>0</asrwt>
<pdfrwt beam="1">  1       21 0.64604259E-01 0.45351976E+03</pdfrwt>
<pdfrwt beam="2">  1       21 0.76861702E-01 0.45351976E+03</pdfrwt>
<totfact> 0.28889167E+03</totfact>
</mgrwt>
</event>
<event>
 4    1  0.4832791E-002  0.4381190E+03  0.7818608E-02  0.1031325E+00
         21   -1    0    0  503  502  0.00000000000E+00  0.00000000000E+00  0.32353250300E+03  0.32353250300E+03  0.00000000000E+00 0. -1.
         21   -1    0    0  501  503 -0.00000000000E+00 -0.00000000000E+00 -0.60383257414E+03  0.60383257414E+03  0.00000000000E+00 0.  1.
    9000007    1    1    2  501    0  0.69590262233E+02 -0.16463739795E+03 -0.78878853495E+02  0.44516306106E+03  0.40000000000E+03 0. -1.
   -9000007    1    1    2    0  502 -0.69590262233E+02  0.16463739795E+03 -0.20142121764E+03  0.48220201608E+03  0.40000000000E+03 0.  1.
<mgrwt>
<rscale>  2 0.43811902E+03</rscale>
<asrwt>0</asrwt>
<pdfrwt beam="1">  1       21 0.49774231E-01 0.43811902E+03</pdfrwt>
<pdfrwt beam="2">  1       21 0.92897320E-01 0.43811902E+03</pdfrwt>
<totfact> 0.32860046E+03</totfact>
</mgrwt>
</event>
<event>
 4    1  0.4832791E-002  0.4327069E+03  0.7818608E-02  0.1033008E+00
         21   -1    0    0  501  502  0.00000000000E+00  0.00000000000E+00  0.10633597114E+04  0.10633597114E+04  0.00000000000E+00 0. -1.
         21   -1    0    0  502  503 -0.00000000000E+00 -0.00000000000E+00 -0.82932169370E+03  0.82932169370E+03  0.00000000000E+00 0. -1.
    9000007    1    1    2  501    0 -0.16351193665E+03 -0.22340029114E+02  0.95691075542E+03  0.10501968502E+04  0.40000000000E+03 0. -1.
   -9000007    1    1    2    0  503  0.16351193665E+03  0.22340029114E+02 -0.72287273772E+03  0.84248455491E+03  0.40000000000E+03 0. -1.
<mgrwt>
<rscale>  2 0.43270686E+03</rscale>
<asrwt>0</asrwt>
<pdfrwt beam="1">  1       21 0.16359380E+00 0.43270686E+03</pdfrwt>
<pdfrwt beam="2">  1       21 0.12758795E+00 0.43270686E+03</pdfrwt>
<totfact> 0.86536473E+01</totfact>
</mgrwt>
</event>
<event>
 4    1  0.4832791E-002  0.6191312E+03  0.7818608E-02  0.9866491E-01
         21   -1    0    0  501  502  0.00000000000E+00  0.00000000000E+00  0.72873623424E+03  0.72873623424E+03  0.00000000000E+00 0.  1.
         21   -1    0    0  502  503 -0.00000000000E+00 -0.00000000000E+00 -0.84957747087E+03  0.84957747087E+03  0.00000000000E+00 0.  1.
    9000007    1    1    2  501    0  0.16466890854E+03  0.44295325013E+03  0.42659563003E+03  0.75186917931E+03  0.40000000000E+03 0.  1.
   -9000007    1    1    2    0  503 -0.16466890854E+03 -0.44295325013E+03 -0.54743686666E+03  0.82644452580E+03  0.40000000000E+03 0.  1.
<mgrwt>
<rscale>  2 0.61913119E+03</rscale>
<asrwt>0</asrwt>
<pdfrwt beam="1">  1       21 0.11211327E+00 0.61913119E+03</pdfrwt>
<pdfrwt beam="2">  1       21 0.13070423E+00 0.61913119E+03</pdfrwt>
<totfact> 0.20282046E+02</totfact>
</mgrwt>
</event>
<event>
 4    1  0.4832791E-002  0.5995980E+03  0.7818608E-02  0.9906240E-01
         21   -1    0    0  501  502  0.00000000000E+00  0.00000000000E+00  0.18937625279E+03  0.18937625279E+03  0.00000000000E+00 0. -1.
         21   -1    0    0  502  503 -0.00000000000E+00 -0.00000000000E+00 -0.23427605515E+04  0.23427605515E+04  0.00000000000E+00 0. -1.
    9000007    1    1    2  501    0  0.58398072442E+02 -0.44284021081E+03 -0.52531886522E+03  0.79716855014E+03  0.40000000000E+03 0. -1.
   -9000007    1    1    2    0  503 -0.58398072442E+02  0.44284021081E+03 -0.16280654335E+04  0.17349682542E+04  0.40000000000E+03 0. -1.
<mgrwt>
<rscale>  2 0.59959802E+03</rscale>
<asrwt>0</asrwt>
<pdfrwt beam="1">  1       21 0.29134808E-01 0.59959802E+03</pdfrwt>
<pdfrwt beam="2">  1       21 0.36042470E+00 0.59959802E+03</pdfrwt>
<totfact> 0.11983812E+02</totfact>
</mgrwt>
</event>
<event>
 4    1  0.4832791E-002  0.4976020E+03  0.7818608E-02  0.1014407E+00
         21   -1    0    0  501  502  0.00000000000E+00  0.00000000000E+00  0.52650600725E+03  0.52650600725E+03  0.00000000000E+00 0.  1.
         21   -1    0    0  502  503 -0.00000000000E+00 -0.00000000000E+00 -0.48156254799E+03  0.48156254799E+03  0.00000000000E+00 0. -1.
    9000007    1    1    2  501    0 -0.25526979384E+03 -0.14981695725E+03  0.99605458675E+02  0.50747318720E+03  0.40000000000E+03 0.  1.
   -9000007    1    1    2    0  503  0.25526979384E+03  0.14981695725E+03 -0.54661999410E+02  0.50059536804E+03  0.40000000000E+03 0.  1.
<mgrwt>
<rscale>  2 0.49760204E+03</rscale>
<asrwt>0</asrwt>
<pdfrwt beam="1">  1       21 0.81000924E-01 0.49760204E+03</pdfrwt>
<pdfrwt beam="2">  1       21 0.74086546E-01 0.49760204E+03</pdfrwt>
<totfact> 0.18521606E+03</totfact>
</mgrwt>
</event>
<event>
 4    1  0.4832791E-002  0.5283182E+03  0.7818608E-02  0.1006641E+00
         21   -1    0    0  503  502  0.00000000000E+00  0.00000000000E+00  0.65133535660E+03  0.65133535660E+03  0.00000000000E+00 0.  1.
         21   -1    0    0  501  503 -0.00000000000E+00 -0.00000000000E+00 -0.76997815658E+03  0.76997815658E+03  0.00000000000E+00 0.  1.
    9000007    1    1    2  501    0 -0.27334731978E+03  0.21071642695E+03 -0.53255952465E+03  0.75015986104E+03  0.40000000000E+03 0.  1.
   -9000007    1    1    2    0  502  0.27334731978E+03 -0.21071642695E+03  0.41391672467E+03  0.67115365214E+03  0.40000000000E+03 0.  1.
<mgrwt>
<rscale>  2 0.52831825E+03</rscale>
<asrwt>0</asrwt>
<pdfrwt beam="1">  1       21 0.10020544E+00 0.52831825E+03</pdfrwt>
<pdfrwt beam="2">  1       21 0.11845818E+00 0.52831825E+03</pdfrwt>
<totfact> 0.35767233E+02</totfact>
</mgrwt>
</event>
<event>
 4    1  0.4832791E-002  0.4856651E+03  0.7818608E-02  0.1017590E+00
         21   -1    0    0  503  502  0.00000000000E+00  0.00000000000E+00  0.21104951551E+04  0.21104951551E+04  0.00000000000E+00 0.  1.
         21   -1    0    0  501  503 -0.00000000000E+00 -0.00000000000E+00 -0.15481525498E+03  0.15481525498E+03  0.00000000000E+00 0.  1.
    9000007    1    1    2  501    0 -0.26559732798E+03  0.72997454371E+02  0.38052960659E+03  0.61698731791E+03  0.40000000000E+03 0.  1.
   -9000007    1    1    2    0  502  0.26559732798E+03 -0.72997454371E+02  0.15751502935E+04  0.16483230922E+04  0.40000000000E+03 0.  1.
<mgrwt>
<rscale>  2 0.48566508E+03</rscale>
<asrwt>0</asrwt>
<pdfrwt beam="1">  1       21 0.32469154E+00 0.48566508E+03</pdfrwt>
<pdfrwt beam="2">  1       21 0.23817733E-01 0.48566508E+03</pdfrwt>
<totfact> 0.31360546E+02</totfact>
</mgrwt>
</event>
<event>
 4    1  0.4832791E-002  0.5773422E+03  0.7818608E-02  0.9953562E-01
         21   -1    0    0  503  502  0.00000000000E+00  0.00000000000E+00  0.70642861899E+03  0.70642861899E+03  0.00000000000E+00 0.  1.
         21   -1    0    0  501  503 -0.00000000000E+00 -0.00000000000E+00 -0.47767165729E+03  0.47767165729E+03  0.00000000000E+00 0.  1.
    9000007    1    1    2  501    0 -0.41532550828E+03 -0.28788754316E+02  0.17977318860E+03  0.60468377648E+03  0.40000000000E+03 0.  1.
   -9000007    1    1    2    0  502  0.41532550828E+03  0.28788754316E+02  0.48983773100E+02  0.57941649979E+03  0.40000000000E+03 0.  1.
<mgrwt>
<rscale>  2 0.57734225E+03</rscale>
<asrwt>0</asrwt>
<pdfrwt beam="1">  1       21 0.10868133E+00 0.57734225E+03</pdfrwt>
<pdfrwt beam="2">  1       21 0.73487947E-01 0.57734225E+03</pdfrwt>
<totfact> 0.90635075E+02</totfact>
</mgrwt>
</event>
<event>
 4    1  0.4832791E-002  0.4416229E+03  0.7818608E-02  0.1030250E+00
         21   -1    0    0  501  502  0.00000000000E+00  0.00000000000E+00  0.38937739550E+03  0.38937739550E+03  0.00000000000E+00 0.  1.
         21   -1    0    0  502  503 -0.00000000000E+00 -0.00000000000E+00 -0.53317630842E+03  0.53317630842E+03  0.00000000000E+00 0. -1.
    9000007    1    1    2  501    0  0.87005038241E+02 -0.16571321300E+03 -0.18543010388E+03  0.47897293146E+03  0.40000000000E+03 0. -1.
   -9000007    1    1    2    0  503 -0.87005038241E+02  0.16571321300E+03  0.41631190965E+02  0.44358077247E+03  0.40000000000E+03 0. -1.
<mgrwt>
<rscale>  2 0.44162285E+03</rscale>
<asrwt>0</asrwt>
<pdfrwt beam="1">  1       21 0.59904215E-01 0.44162285E+03</pdfrwt>
<pdfrwt beam="2">  1       21 0.82027124E-01 0.44162285E+03</pdfrwt>
<totfact> 0.29496273E+03</totfact>
</mgrwt>
</event>
<event>
 4    1  0.4832791E-002  0.5364201E+03  0.7818608E-02  0.1004687E+00
         21   -1    0    0  503  502  0.00000000000E+00  0.00000000000E+00  0.15084596080E+04  0.15084596080E+04  0.00000000000E+00 0. -1.
         21   -1    0    0  501  503 -0.00000000000E+00 -0.00000000000E+00 -0.36443102631E+03  0.36443102631E+03  0.00000000000E+00 0.  1.
    9000007    1    1    2  501    0 -0.11226405023E+03  0.33932767986E+03 -0.74449874390E+02  0.54156188482E+03  0.40000000000E+03 0.  1.
   -9000007    1    1    2    0  502  0.11226405023E+03 -0.33932767986E+03  0.12184784560E+04  0.13313287494E+04  0.40000000000E+03 0. -1.
<mgrwt>
<rscale>  2 0.53642007E+03</rscale>
<asrwt>0</asrwt>
<pdfrwt beam="1">  1       21 0.23207071E+00 0.53642007E+03</pdfrwt>
<pdfrwt beam="2">  1       21 0.56066313E-01 0.53642007E+03</pdfrwt>
<totfact> 0.19514271E+02</totfact>
</mgrwt>
</event>
<event>
 4    1  0.4832791E-002  0.4991626E+03  0.7818608E-02  0.1013998E+00
         21   -1    0    0  503  502  0.00000000000E+00  0.00000000000E+00  0.60581978568E+03  0.60581978568E+03  0.00000000000E+00 0. -1.
         21   -1    0    0  501  503 -0.00000000000E+00 -0.00000000000E+00 -0.48844629948E+03  0.48844629948E+03  0.00000000000E+00 0.  1.
    9000007    1    1    2  501    0  0.40547013113E+02  0.29583649011E+03  0.27615223099E+03  0.57045888882E+03  0.40000000000E+03 0.  1.
   -9000007    1    1    2    0  502 -0.40547013113E+02 -0.29583649011E+03 -0.15877874479E+03  0.52380719635E+03  0.40000000000E+03 0. -1.
<mgrwt>
<rscale>  2 0.49916259E+03</rscale>
<asrwt>0</asrwt>
<pdfrwt beam="1">  1       21 0.93203044E-01 0.49916259E+03</pdfrwt>
<pdfrwt beam="2">  1       21 0.75145585E-01 0.49916259E+03</pdfrwt>
<totfact> 0.12874468E+03</totfact>
</mgrwt>
</event>
<event>
 4    1  0.4832791E-002  0.4394256E+03  0.7818608E-02  0.1030923E+00
         21   -1    0    0  503  502  0.00000000000E+00  0.00000000000E+00  0.25048058878E+03  0.25048058878E+03  0.00000000000E+00 0. -1.
         21   -1    0    0  501  503 -0.00000000000E+00 -0.00000000000E+00 -0.92529045582E+03  0.92529045582E+03  0.00000000000E+00 0. -1.
    9000007    1    1    2  501    0 -0.14204183765E+03  0.11366153891E+03 -0.57754666442E+03  0.72570998246E+03  0.40000000000E+03 0. -1.
   -9000007    1    1    2    0  502  0.14204183765E+03 -0.11366153891E+03 -0.97263202620E+02  0.45006106214E+03  0.40000000000E+03 0. -1.
<mgrwt>
<rscale>  2 0.43942557E+03</rscale>
<asrwt>0</asrwt>
<pdfrwt beam="1">  1       21 0.38535475E-01 0.43942557E+03</pdfrwt>
<pdfrwt beam="2">  1       21 0.14235238E+00 0.43942557E+03</pdfrwt>
<totfact> 0.19145306E+03</totfact>
</mgrwt>
</event>
<event>
 4    1  0.4832791E-002  0.5344423E+03  0.7818608E-02  0.1005160E+00
         21   -1    0    0  503  502  0.00000000000E+00  0.00000000000E+00  0.19136706061E+04  0.19136706061E+04  0.00000000000E+00 0. -1.
         21   -1    0    0  501  503 -0.00000000000E+00 -0.00000000000E+00 -0.21572909514E+03  0.21572909514E+03  0.00000000000E+00 0. -1.
    9000007    1    1    2  501    0 -0.20547623505E+03 -0.28880449664E+03  0.25796340826E+03  0.59344219639E+03  0.40000000000E+03 0. -1.
   -9000007    1    1    2    0  502  0.20547623505E+03  0.28880449664E+03  0.14399781027E+04  0.15359575048E+04  0.40000000000E+03 0. -1.
<mgrwt>
<rscale>  2 0.53444225E+03</rscale>
<asrwt>0</asrwt>
<pdfrwt beam="1">  1       21 0.29441085E+00 0.53444225E+03</pdfrwt>
<pdfrwt beam="2">  1       21 0.33189093E-01 0.53444225E+03</pdfrwt>
<totfact> 0.24198736E+02</totfact>
</mgrwt>
</event>
<event>
 4    1  0.4832791E-002  0.4359334E+03  0.7818608E-02  0.1032002E+00
         21   -1    0    0  503  502  0.00000000000E+00  0.00000000000E+00  0.13840351386E+04  0.13840351386E+04  0.00000000000E+00 0.  1.
         21   -1    0    0  501  503 -0.00000000000E+00 -0.00000000000E+00 -0.13732497713E+03  0.13732497713E+03  0.00000000000E+00 0.  1.
    9000007    1    1    2  501    0 -0.77664562161E+02 -0.15493929477E+03  0.63201347299E+03  0.76777535733E+03  0.40000000000E+03 0.  1.
   -9000007    1    1    2    0  502  0.77664562161E+02  0.15493929477E+03  0.61469668850E+03  0.75358475843E+03  0.40000000000E+03 0.  1.
<mgrwt>
<rscale>  2 0.43593345E+03</rscale>
<asrwt>0</asrwt>
<pdfrwt beam="1">  1       21 0.21292847E+00 0.43593345E+03</pdfrwt>
<pdfrwt beam="2">  1       21 0.21126921E-01 0.43593345E+03</pdfrwt>
<totfact> 0.19633119E+03</totfact>
</mgrwt>
</event>
<event>
 4    1  0.4832791E-002  0.4189734E+03  0.7818608E-02  0.1037401E+00
         21   -1    0    0  501  502  0.00000000000E+00  0.00000000000E+00  0.20236103824E+04  0.20236103824E+04  0.00000000000E+00 0. -1.
         21   -1    0    0  502  503 -0.00000000000E+00 -0.00000000000E+00 -0.11159697649E+03  0.11159697649E+03  0.00000000000E+00 0. -1.
    9000007    1    1    2  501    0  0.12454530292E+03 -0.52153947467E+01  0.14598105823E+04  0.15187447676E+04  0.40000000000E+03 0. -1.
   -9000007    1    1    2    0  503 -0.12454530292E+03  0.52153947467E+01  0.45220282366E+03  0.61646259136E+03  0.40000000000E+03 0. -1.
<mgrwt>
<rscale>  2 0.41897343E+03</rscale>
<asrwt>0</asrwt>
<pdfrwt beam="1">  1       21 0.31132465E+00 0.41897343E+03</pdfrwt>
<pdfrwt beam="2">  1       21 0.17168767E-01 0.41897343E+03</pdfrwt>
<totfact> 0.73259840E+02</totfact>
</mgrwt>
</event>
<event>
 4    1  0.4832791E-002  0.5796286E+03  0.7818608E-02  0.9948595E-01
         21   -1    0    0  501  502  0.00000000000E+00  0.00000000000E+00  0.34127622929E+03  0.34127622929E+03  0.00000000000E+00 0. -1.
         21   -1    0    0  502  503 -0.00000000000E+00 -0.00000000000E+00 -0.98707769439E+03  0.98707769439E+03  0.00000000000E+00 0.  1.
    9000007    1    1    2  501    0 -0.20384921678E+02 -0.41899143525E+03 -0.28863188823E+03  0.64751659033E+03  0.40000000000E+03 0.  1.
   -9000007    1    1    2    0  503  0.20384921678E+02  0.41899143525E+03 -0.35716957687E+03  0.68083733336E+03  0.40000000000E+03 0. -1.
<mgrwt>
<rscale>  2 0.57962865E+03</rscale>
<asrwt>0</asrwt>
<pdfrwt beam="1">  1       21 0.52504035E-01 0.57962865E+03</pdfrwt>
<pdfrwt beam="2">  1       21 0.15185811E+00 0.57962865E+03</pdfrwt>
<totfact> 0.79693262E+02</totfact>
</mgrwt>
</event>
<event>
 4    1  0.4832791E-002  0.4267782E+03  0.7818608E-02  0.1034883E+00
         21   -1    0    0  501  502  0.00000000000E+00  0.00000000000E+00  0.78375674865E+03  0.78375674865E+03  0.00000000000E+00 0.  1.
         21   -1    0    0  502  503 -0.00000000000E+00 -0.00000000000E+00 -0.38258123027E+03  0.38258123027E+03  0.00000000000E+00 0.  1.
    9000007    1    1    2  501    0 -0.14609304524E+03  0.28221627751E+02  0.56597252722E+03  0.70884733173E+03  0.40000000000E+03 0.  1.
   -9000007    1    1    2    0  503  0.14609304524E+03 -0.28221627751E+02 -0.16479700883E+03  0.45749064718E+03  0.40000000000E+03 0.  1.
<mgrwt>
<rscale>  2 0.42677821E+03</rscale>
<asrwt>0</asrwt>
<pdfrwt beam="1">  1       21 0.12057796E+00 0.42677821E+03</pdfrwt>
<pdfrwt beam="2">  1       21 0.58858651E-01 0.42677821E+03</pdfrwt>
<totfact> 0.12119502E+03</totfact>
</mgrwt>
</event>
<event>
 4    1  0.4832791E-002  0.7733525E+03  0.7818608E-02  0.9599410E-01
         21   -1    0    0  503  502  0.00000000000E+00  0.00000000000E+00  0.40347317374E+03  0.40347317374E+03  0.00000000000E+00 0.  1.
         21   -1    0    0  501  503 -0.00000000000E+00 -0.00000000000E+00 -0.20452105642E+04  0.20452105642E+04  0.00000000000E+00 0.  1.
    9000007    1    1    2  501    0  0.65546086473E+03 -0.91897610632E+02 -0.14631833231E+04  0.16549862697E+04  0.40000000000E+03 0.  1.
   -9000007    1    1    2    0  502 -0.65546086473E+03  0.91897610632E+02 -0.17855406733E+03  0.79369746817E+03  0.40000000000E+03 0.  1.
<mgrwt>
<rscale>  2 0.77335252E+03</rscale>
<asrwt>0</asrwt>
<pdfrwt beam="1">  1       21 0.62072795E-01 0.77335252E+03</pdfrwt>
<pdfrwt beam="2">  1       21 0.31464779E+00 0.77335252E+03</pdfrwt>
<totfact> 0.43651596E+01</totfact>
</mgrwt>
</event>
<event>
 4    1  0.4832791E-002  0.4561438E+03  0.7818608E-02  0.1025906E+00
         21   -1    0    0  501  502  0.00000000000E+00  0.00000000000E+00  0.68819300883E+03  0.68819300883E+03  0.00000000000E+00 0.  1.
         21   -1    0    0  502  503 -0.00000000000E+00 -0.00000000000E+00 -0.32408652561E+03  0.32408652561E+03  0.00000000000E+00 0.  1.
    9000007    1    1    2  501    0  0.66472786639E+02 -0.20892226094E+03  0.31316792641E+03  0.55330036383E+03  0.40000000000E+03 0.  1.
   -9000007    1    1    2    0  503 -0.66472786639E+02  0.20892226094E+03  0.50938556812E+02  0.45897917061E+03  0.40000000000E+03 0.  1.
<mgrwt>
<rscale>  2 0.45614377E+03</rscale>
<asrwt>0</asrwt>
<pdfrwt beam="1">  1       21 0.10587585E+00 0.45614377E+03</pdfrwt>
<pdfrwt beam="2">  1       21 0.49859466E-01 0.45614377E+03</pdfrwt>
<totfact> 0.23688355E+03</totfact>
</mgrwt>
</event>
<event>
 4    1  0.4832791E-002  0.4523574E+03  0.7818608E-02  0.1027021E+00
         21   -1    0    0  503  502  0.00000000000E+00  0.00000000000E+00  0.31651850071E+03  0.31651850071E+03  0.00000000000E+00 0. -1.
         21   -1    0    0  501  503 -0.00000000000E+00 -0.00000000000E+00 -0.12577332318E+04  0.12577332318E+04  0.00000000000E+00 0. -1.
    9000007    1    1    2  501    0 -0.78142034449E+02  0.19626769784E+03 -0.10193335277E+04  0.11151986493E+04  0.40000000000E+03 0. -1.
   -9000007    1    1    2    0  502  0.78142034449E+02 -0.19626769784E+03  0.78118796638E+02  0.45905308315E+03  0.40000000000E+03 0. -1.
<mgrwt>
<rscale>  2 0.45235737E+03</rscale>
<asrwt>0</asrwt>
<pdfrwt beam="1">  1       21 0.48695154E-01 0.45235737E+03</pdfrwt>
<pdfrwt beam="2">  1       21 0.19349742E+00 0.45235737E+03</pdfrwt>
<totfact> 0.49053146E+02</totfact>
</mgrwt>
</event>
<event>
 4    1  0.4832791E-002  0.4059727E+03  0.7818608E-02  0.1041731E+00
         21   -1    0    0  501  502  0.00000000000E+00  0.00000000000E+00  0.78342029304E+03  0.78342029304E+03  0.00000000000E+00 0.  1.
         21   -1    0    0  502  503 -0.00000000000E+00 -0.00000000000E+00 -0.21758158463E+03  0.21758158463E+03  0.00000000000E+00 0.  1.
    9000007    1    1    2  501    0 -0.48510669300E+02  0.49604089721E+02  0.37399223574E+03  0.55198192285E+03  0.40000000000E+03 0.  1.
   -9000007    1    1    2    0  503  0.48510669300E+02 -0.49604089721E+02  0.19184647267E+03  0.44901995482E+03  0.40000000000E+03 0.  1.
<mgrwt>
<rscale>  2 0.40597272E+03</rscale>
<asrwt>0</asrwt>
<pdfrwt beam="1">  1       21 0.12052620E+00 0.40597272E+03</pdfrwt>
<pdfrwt beam="2">  1       21 0.33474090E-01 0.40597272E+03</pdfrwt>
<totfact> 0.39787213E+03</totfact>
</mgrwt>
</event>
<event>
 4    1  0.4832791E-002  0.4478854E+03  0.7818608E-02  0.1028355E+00
         21   -1    0    0  501  502  0.00000000000E+00  0.00000000000E+00  0.10861245080E+04  0.10861245080E+04  0.00000000000E+00 0.  1.
         21   -1    0    0  502  503 -0.00000000000E+00 -0.00000000000E+00 -0.21800409926E+03  0.21800409926E+03  0.00000000000E+00 0.  1.
    9000007    1    1    2  501    0 -0.18673365345E+03  0.75709131033E+02  0.68894396027E+03  0.82173299206E+03  0.40000000000E+03 0.  1.
   -9000007    1    1    2    0  503  0.18673365345E+03 -0.75709131033E+02  0.17917644843E+03  0.48239561516E+03  0.40000000000E+03 0.  1.
<mgrwt>
<rscale>  2 0.44788540E+03</rscale>
<asrwt>0</asrwt>
<pdfrwt beam="1">  1       21 0.16709607E+00 0.44788540E+03</pdfrwt>
<pdfrwt beam="2">  1       21 0.33539093E-01 0.44788540E+03</pdfrwt>
<totfact> 0.16287572E+03</totfact>
</mgrwt>
</event>
<event>
 4    1  0.4832791E-002  0.5544469E+03  0.7818608E-02  0.1000470E+00
         21   -1    0    0  503  502  0.00000000000E+00  0.00000000000E+00  0.54169273326E+03  0.54169273326E+03  0.00000000000E+00 0. -1.
         21   -1    0    0  501  503 -0.00000000000E+00 -0.00000000000E+00 -0.80111889365E+03  0.80111889365E+03  0.00000000000E+00 0. -1.
    9000007    1    1    2  501    0 -0.28835048546E+03  0.25350620570E+03 -0.49228090896E+03  0.74145255554E+03  0.40000000000E+03 0. -1.
   -9000007    1    1    2    0  502  0.28835048546E+03 -0.25350620570E+03  0.23285474857E+03  0.60135907137E+03  0.40000000000E+03 0. -1.
<mgrwt>
<rscale>  2 0.55444693E+03</rscale>
<asrwt>0</asrwt>
<pdfrwt beam="1">  1       21 0.83337344E-01 0.55444693E+03</pdfrwt>
<pdfrwt beam="2">  1       21 0.12324906E+00 0.55444693E+03</pdfrwt>
<totfact> 0.49682420E+02</totfact>
</mgrwt>
</event>
<event>
 4    1  0.4832791E-002  0.4078358E+03  0.7818608E-02  0.1041100E+00
         21   -1    0    0  503  502  0.00000000000E+00  0.00000000000E+00  0.91264183718E+03  0.91264183718E+03  0.00000000000E+00 0. -1.
         21   -1    0    0  501  503 -0.00000000000E+00 -0.00000000000E+00 -0.46024374547E+03  0.46024374547E+03  0.00000000000E+00 0. -1.
    9000007    1    1    2  501    0 -0.78893100080E+02  0.10292175372E+02 -0.30729182619E+03  0.51064500052E+03  0.40000000000E+03 0. -1.
   -9000007    1    1    2    0  502  0.78893100080E+02 -0.10292175372E+02  0.75968991789E+03  0.86224058212E+03  0.40000000000E+03 0. -1.
<mgrwt>
<rscale>  2 0.40783581E+03</rscale>
<asrwt>0</asrwt>
<pdfrwt beam="1">  1       21 0.14040644E+00 0.40783581E+03</pdfrwt>
<pdfrwt beam="2">  1       21 0.70806730E-01 0.40783581E+03</pdfrwt>
<totfact> 0.54697731E+02</totfact>
</mgrwt>
</event>
<event>
 4    1  0.4832791E-002  0.4199842E+03  0.7818608E-02  0.1037071E+00
         21   -1    0    0  503  502  0.00000000000E+00  0.00000000000E+00  0.49504716276E+03  0.49504716276E+03  0.00000000000E+00 0. -1.
         21   -1    0    0  501  503 -0.00000000000E+00 -0.00000000000E+00 -0.53188453236E+03  0.53188453236E+03  0.00000000000E+00 0. -1.
    9000007    1    1    2  501    0  0.12789196085E+03  0.55107603310E+01 -0.31343257681E+03  0.52404837786E+03  0.40000000000E+03 0. -1.
   -9000007    1    1    2    0  502 -0.12789196085E+03 -0.55107603310E+01  0.27659520721E+03  0.50288331726E+03  0.40000000000E+03 0. -1.
<mgrwt>
<rscale>  2 0.41998419E+03</rscale>
<asrwt>0</asrwt>
<pdfrwt beam="1">  1       21 0.76161102E-01 0.41998419E+03</pdfrwt>
<pdfrwt beam="2">  1       21 0.81828389E-01 0.41998419E+03</pdfrwt>
<totfact> 0.17485231E+03</totfact>
</mgrwt>
</event>
<event>
 4    1  0.4832791E-002  0.5110436E+03  0.7818608E-02  0.1010936E+00
         21   -1    0    0  501  502  0.00000000000E+00  0.00000000000E+00  0.70229842049E+03  0.70229842049E+03  0.00000000000E+00 0. -1.
         21   -1    0    0  502  503 -0.00000000000E+00 -0.00000000000E+00 -0.11220916050E+04  0.11220916050E+04  0.00000000000E+00 0.  1.
    9000007    1    1    2  501    0  0.12351376666E+03  0.29310400803E+03  0.53598096311E+03  0.74056816222E+03  0.40000000000E+03 0. -1.
   -9000007    1    1    2    0  503 -0.12351376666E+03 -0.29310400803E+03 -0.95577414765E+03  0.10838218633E+04  0.40000000000E+03 0.  1.
<mgrwt>
<rscale>  2 0.51104365E+03</rscale>
<asrwt>0</asrwt>
<pdfrwt beam="1">  1       21 0.10804591E+00 0.51104365E+03</pdfrwt>
<pdfrwt beam="2">  1       21 0.17262948E+00 0.51104365E+03</pdfrwt>
<totfact> 0.10841728E+02</totfact>
</mgrwt>
</event>
<event>
 4    1  0.4832791E-002  0.4765393E+03  0.7818608E-02  0.1020091E+00
         21   -1    0    0  503  502  0.00000000000E+00  0.00000000000E+00  0.18238169692E+03  0.18238169692E+03  0.00000000000E+00 0. -1.
         21   -1    0    0  501  503 -0.00000000000E+00 -0.00000000000E+00 -0.14815967740E+04  0.14815967740E+04  0.00000000000E+00 0. -1.
    9000007    1    1    2  501    0 -0.75140436591E+02 -0.24787826294E+03 -0.98198667103E+03  0.10915070043E+04  0.40000000000E+03 0. -1.
   -9000007    1    1    2    0  502  0.75140436591E+02  0.24787826294E+03 -0.31722840609E+03  0.57247146661E+03  0.40000000000E+03 0. -1.
<mgrwt>
<rscale>  2 0.47653931E+03</rscale>
<asrwt>0</asrwt>
<pdfrwt beam="1">  1       21 0.28058722E-01 0.47653931E+03</pdfrwt>
<pdfrwt beam="2">  1       21 0.22793797E+00 0.47653931E+03</pdfrwt>
<totfact> 0.89057186E+02</totfact>
</mgrwt>
</event>
<event>
 4    1  0.4832791E-002  0.4371808E+03  0.7818608E-02  0.1031615E+00
         21   -1    0    0  503  502  0.00000000000E+00  0.00000000000E+00  0.18587860010E+03  0.18587860010E+03  0.00000000000E+00 0.  1.
         21   -1    0    0  501  503 -0.00000000000E+00 -0.00000000000E+00 -0.10643303700E+04  0.10643303700E+04  0.00000000000E+00 0.  1.
    9000007    1    1    2  501    0 -0.16311820909E+03 -0.67227152147E+02 -0.55434171004E+03  0.70598992317E+03  0.40000000000E+03 0.  1.
   -9000007    1    1    2    0  502  0.16311820909E+03  0.67227152147E+02 -0.32411005982E+03  0.54421904689E+03  0.40000000000E+03 0.  1.
<mgrwt>
<rscale>  2 0.43718079E+03</rscale>
<asrwt>0</asrwt>
<pdfrwt beam="1">  1       21 0.28596708E-01 0.43718079E+03</pdfrwt>
<pdfrwt beam="2">  1       21 0.16374313E+00 0.43718079E+03</pdfrwt>
<totfact> 0.23801680E+03</totfact>
</mgrwt>
</event>
<event>
 4    1  0.4832791E-002  0.4357713E+03  0.7818608E-02  0.1032052E+00
         21   -1    0    0  501  502  0.00000000000E+00  0.00000000000E+00  0.56500874519E+03  0.56500874519E+03  0.00000000000E+00 0. -1.
         21   -1    0    0  502  503 -0.00000000000E+00 -0.00000000000E+00 -0.33663186502E+03  0.33663186502E+03  0.00000000000E+00 0. -1.
    9000007    1    1    2  501    0 -0.17289597245E+03 -0.19079744213E+01  0.13219071168E+03  0.45538010707E+03  0.40000000000E+03 0. -1.
   -9000007    1    1    2    0  503  0.17289597245E+03  0.19079744213E+01  0.96186168490E+02  0.44626050314E+03  0.40000000000E+03 0. -1.
<mgrwt>
<rscale>  2 0.43577134E+03</rscale>
<asrwt>0</asrwt>
<pdfrwt beam="1">  1       21 0.86924422E-01 0.43577134E+03</pdfrwt>
<pdfrwt beam="2">  1       21 0.51789518E-01 0.43577134E+03</pdfrwt>
<totfact> 0.35366511E+03</totfact>
</mgrwt>
</event>
<event>
 4    1  0.4832791E-002  0.4500080E+03  0.7818608E-02  0.1027720E+00
         21   -1    0    0  501  502  0.00000000000E+00  0.00000000000E+00  0.76080319532E+03  0.76080319532E+03  0.00000000000E+00 0. -1.
         21   -1    0    0  502  503 -0.00000000000E+00 -0.00000000000E+00 -0.30561848357E+03  0.30561848357E+03  0.00000000000E+00 0. -1.
    9000007    1    1    2  501    0  0.20605658172E+03  0.69196583461E+01  0.41914751581E+03  0.61497303726E+03  0.40000000000E+03 0. -1.
   -9000007    1    1    2    0  503 -0.20605658172E+03 -0.69196583461E+01  0.36037195938E+02  0.45144864163E+03  0.40000000000E+03 0. -1.
<mgrwt>
<rscale>  2 0.45000800E+03</rscale>
<asrwt>0</asrwt>
<pdfrwt beam="1">  1       21 0.11704665E+00 0.45000800E+03</pdfrwt>
<pdfrwt beam="2">  1       21 0.47018228E-01 0.45000800E+03</pdfrwt>
<totfact> 0.20947787E+03</totfact>
</mgrwt>
</event>
<event>
 4    1  0.4832791E-002  0.4684941E+03  0.7818608E-02  0.1022346E+00
         21   -1    0    0  501  502  0.00000000000E+00  0.00000000000E+00  0.51069804946E+03  0.51069804946E+03  0.00000000000E+00 0.  1.
         21   -1    0    0  502  503 -0.00000000000E+00 -0.00000000000E+00 -0.70649502053E+03  0.70649502053E+03  0.00000000000E+00 0.  1.
    9000007    1    1    2  501    0 -0.47231294111E+02 -0.23928208553E+03  0.28298572900E+03  0.54732772122E+03  0.40000000000E+03 0.  1.
   -9000007    1    1    2    0  503  0.47231294111E+02  0.23928208553E+03 -0.47878270007E+03  0.66986534877E+03  0.40000000000E+03 0.  1.
<mgrwt>
<rscale>  2 0.46849409E+03</rscale>
<asrwt>0</asrwt>
<pdfrwt beam="1">  1       21 0.78568931E-01 0.46849409E+03</pdfrwt>
<pdfrwt beam="2">  1       21 0.10869154E+00 0.46849409E+03</pdfrwt>
<totfact> 0.80839470E+02</totfact>
</mgrwt>
</event>
<event>
 4    1  0.4832791E-002  0.4908923E+03  0.7818608E-02  0.1016184E+00
         21   -1    0    0  501  502  0.00000000000E+00  0.00000000000E+00  0.78123509155E+03  0.78123509155E+03  0.00000000000E+00 0. -1.
         21   -1    0    0  502  503 -0.00000000000E+00 -0.00000000000E+00 -0.61716064487E+03  0.61716064487E+03  0.00000000000E+00 0. -1.
    9000007    1    1    2  501    0  0.10141132635E+03  0.26587774393E+03  0.57654581742E+03  0.75721880022E+03  0.40000000000E+03 0. -1.
   -9000007    1    1    2    0  503 -0.10141132635E+03 -0.26587774393E+03 -0.41247137074E+03  0.64117693619E+03  0.40000000000E+03 0. -1.
<mgrwt>
<rscale>  2 0.49089228E+03</rscale>
<asrwt>0</asrwt>
<pdfrwt beam="1">  1       21 0.12019001E+00 0.49089228E+03</pdfrwt>
<pdfrwt beam="2">  1       21 0.94947792E-01 0.49089228E+03</pdfrwt>
<totfact> 0.39869111E+02</totfact>
</mgrwt>
</event>
<event>
 4    1  0.4832791E-002  0.4720671E+03  0.7818608E-02  0.1021338E+00
         21   -1    0    0  503  502  0.00000000000E+00  0.00000000000E+00  0.24937014707E+03  0.24937014707E+03  0.00000000000E+00 0. -1.
         21   -1    0    0  501  503 -0.00000000000E+00 -0.00000000000E+00 -0.11807426205E+04  0.11807426205E+04  0.00000000000E+00 0. -1.
    9000007    1    1    2  501    0  0.21827407953E+03  0.12330359039E+03 -0.81828485544E+03  0.94468907787E+03  0.40000000000E+03 0. -1.
   -9000007    1    1    2    0  502 -0.21827407953E+03 -0.12330359039E+03 -0.11308761801E+03  0.48542368972E+03  0.40000000000E+03 0. -1.
<mgrwt>
<rscale>  2 0.47206710E+03</rscale>
<asrwt>0</asrwt>
<pdfrwt beam="1">  1       21 0.38364638E-01 0.47206710E+03</pdfrwt>
<pdfrwt beam="2">  1       21 0.18165271E+00 0.47206710E+03</pdfrwt>
<totfact> 0.96441904E+02</totfact>
</mgrwt>
</event>
<event>
 4    1  0.4832791E-002  0.4394070E+03  0.7818608E-02  0.1030929E+00
         21   -1    0    0  503  502  0.00000000000E+00  0.00000000000E+00  0.19604301456E+03  0.19604301456E+03  0.00000000000E+00 0.  1.
         21   -1    0    0  501  503 -0.00000000000E+00 -0.00000000000E+00 -0.11591210729E+04  0.11591210729E+04  0.00000000000E+00 0.  1.
    9000007    1    1    2  501    0 -0.97581726874E+02 -0.15348059474E+03 -0.74424807716E+03  0.86428218005E+03  0.40000000000E+03 0.  1.
   -9000007    1    1    2    0  502  0.97581726874E+02  0.15348059474E+03 -0.21882998119E+03  0.49088190744E+03  0.40000000000E+03 0.  1.
<mgrwt>
<rscale>  2 0.43940697E+03</rscale>
<asrwt>0</asrwt>
<pdfrwt beam="1">  1       21 0.30160464E-01 0.43940697E+03</pdfrwt>
<pdfrwt beam="2">  1       21 0.17832632E+00 0.43940697E+03</pdfrwt>
<totfact> 0.16774931E+03</totfact>
</mgrwt>
</event>
<event>
 4    1  0.4832791E-002  0.4631055E+03  0.7818608E-02  0.1023884E+00
         21   -1    0    0  501  502  0.00000000000E+00  0.00000000000E+00  0.11850023957E+04  0.11850023957E+04  0.00000000000E+00 0. -1.
         21   -1    0    0  502  503 -0.00000000000E+00 -0.00000000000E+00 -0.68536561975E+03  0.68536561975E+03  0.00000000000E+00 0.  1.
    9000007    1    1    2  501    0 -0.23182185647E+03  0.26931376042E+02  0.10520789952E+04  0.11494941863E+04  0.40000000000E+03 0. -1.
   -9000007    1    1    2    0  503  0.23182185647E+03 -0.26931376042E+02 -0.55244221918E+03  0.72087382924E+03  0.40000000000E+03 0.  1.
<mgrwt>
<rscale>  2 0.46310547E+03</rscale>
<asrwt>0</asrwt>
<pdfrwt beam="1">  1       21 0.18230806E+00 0.46310547E+03</pdfrwt>
<pdfrwt beam="2">  1       21 0.10544086E+00 0.46310547E+03</pdfrwt>
<totfact> 0.10071097E+02</totfact>
</mgrwt>
</event>
<event>
 4    1  0.4832791E-002  0.6433016E+03  0.7818608E-02  0.9819430E-01
         21   -1    0    0  501  502  0.00000000000E+00  0.00000000000E+00  0.26806511879E+03  0.26806511879E+03  0.00000000000E+00 0.  1.
         21   -1    0    0  502  503 -0.00000000000E+00 -0.00000000000E+00 -0.15556323824E+04  0.15556323824E+04  0.00000000000E+00 0.  1.
    9000007    1    1    2  501    0 -0.38849353214E+03 -0.32079550819E+03 -0.56423389899E+03  0.85568503280E+03  0.40000000000E+03 0.  1.
   -9000007    1    1    2    0  503  0.38849353214E+03  0.32079550819E+03 -0.72333336464E+03  0.96801246840E+03  0.40000000000E+03 0.  1.
<mgrwt>
<rscale>  2 0.64330163E+03</rscale>
<asrwt>0</asrwt>
<pdfrwt beam="1">  1       21 0.41240787E-01 0.64330163E+03</pdfrwt>
<pdfrwt beam="2">  1       21 0.23932806E+00 0.64330163E+03</pdfrwt>
<totfact> 0.32303476E+02</totfact>
</mgrwt>
</event>
<event>
 4    1  0.4832791E-002  0.5737990E+03  0.7818608E-02  0.9961307E-01
         21   -1    0    0  501  502  0.00000000000E+00  0.00000000000E+00  0.31561529409E+03  0.31561529409E+03  0.00000000000E+00 0. -1.
         21   -1    0    0  502  503 -0.00000000000E+00 -0.00000000000E+00 -0.13269737276E+04  0.13269737276E+04  0.00000000000E+00 0. -1.
    9000007    1    1    2  501    0  0.24086797831E+03  0.33350856415E+03 -0.88548784977E+03  0.10551464720E+04  0.40000000000E+03 0. -1.
   -9000007    1    1    2    0  503 -0.24086797831E+03 -0.33350856415E+03 -0.12587058377E+03  0.58744254970E+03  0.40000000000E+03 0. -1.
<mgrwt>
<rscale>  2 0.57379905E+03</rscale>
<asrwt>0</asrwt>
<pdfrwt beam="1">  1       21 0.48556201E-01 0.57379905E+03</pdfrwt>
<pdfrwt beam="2">  1       21 0.20414980E+00 0.57379905E+03</pdfrwt>
<totfact> 0.39698032E+02</totfact>
</mgrwt>
</event>
<event>
 4    1  0.4832791E-002  0.4225550E+03  0.7818608E-02  0.1036238E+00
         21   -1    0    0  501  502  0.00000000000E+00  0.00000000000E+00  0.63044920839E+03  0.63044920839E+03  0.00000000000E+00 0.  1.
         21   -1    0    0  502  503 -0.00000000000E+00 -0.00000000000E+00 -0.30561988817E+03  0.30561988817E+03  0.00000000000E+00 0. -1.
    9000007    1    1    2  501    0 -0.66710227358E+02  0.11875397814E+03  0.35691170215E+02  0.42405969083E+03  0.40000000000E+03 0. -1.
   -9000007    1    1    2    0  503  0.66710227358E+02 -0.11875397814E+03  0.28913815001E+03  0.51200940572E+03  0.40000000000E+03 0.  1.
<mgrwt>
<rscale>  2 0.42255504E+03</rscale>
<asrwt>0</asrwt>
<pdfrwt beam="1">  1       21 0.96992186E-01 0.42255504E+03</pdfrwt>
<pdfrwt beam="2">  1       21 0.47018444E-01 0.42255504E+03</pdfrwt>
<totfact> 0.33621567E+03</totfact>
</mgrwt>
</event>
<event>
 4    1  0.4832791E-002  0.5135977E+03  0.7818608E-02  0.1010289E+00
         21   -1    0    0  501  502  0.00000000000E+00  0.00000000000E+00  0.13779012319E+03  0.13779012319E+03  0.00000000000E+00 0. -1.
         21   -1    0    0  502  503 -0.00000000000E+00 -0.00000000000E+00 -0.21786421532E+04  0.21786421532E+04  0.00000000000E+00 0. -1.
    9000007    1    1    2  501    0  0.15326375570E+03 -0.28335978461E+03 -0.61704560823E+03  0.80282490556E+03  0.40000000000E+03 0. -1.
   -9000007    1    1    2    0  503 -0.15326375570E+03  0.28335978461E+03 -0.14238064217E+04  0.15136073708E+04  0.40000000000E+03 0. -1.
<mgrwt>
<rscale>  2 0.51359765E+03</rscale>
<asrwt>0</asrwt>
<pdfrwt beam="1">  1       21 0.21198481E-01 0.51359765E+03</pdfrwt>
<pdfrwt beam="2">  1       21 0.33517571E+00 0.51359765E+03</pdfrwt>
<totfact> 0.33388208E+02</totfact>
</mgrwt>
</event>
<event>
 4    1  0.4832791E-002  0.4221399E+03  0.7818608E-02  0.1036372E+00
         21   -1    0    0  501  502  0.00000000000E+00  0.00000000000E+00  0.76181351062E+03  0.76181351062E+03  0.00000000000E+00 0. -1.
         21   -1    0    0  502  503 -0.00000000000E+00 -0.00000000000E+00 -0.13022785251E+04  0.13022785251E+04  0.00000000000E+00 0. -1.
    9000007    1    1    2  501    0  0.12932041854E+03  0.38448956476E+02  0.66454011884E+03  0.78728372424E+03  0.40000000000E+03 0. -1.
   -9000007    1    1    2    0  503 -0.12932041854E+03 -0.38448956476E+02 -0.12050051333E+04  0.12768083115E+04  0.40000000000E+03 0. -1.
<mgrwt>
<rscale>  2 0.42213990E+03</rscale>
<asrwt>0</asrwt>
<pdfrwt beam="1">  1       21 0.11720208E+00 0.42213990E+03</pdfrwt>
<pdfrwt beam="2">  1       21 0.20035054E+00 0.42213990E+03</pdfrwt>
<totfact> 0.59779162E+01</totfact>
</mgrwt>
</event>
<event>
 4    1  0.4832791E-002  0.6361064E+03  0.7818608E-02  0.9833205E-01
         21   -1    0    0  503  502  0.00000000000E+00  0.00000000000E+00  0.11620278331E+04  0.11620278331E+04  0.00000000000E+00 0. -1.
         21   -1    0    0  501  503 -0.00000000000E+00 -0.00000000000E+00 -0.53128787788E+03  0.53128787788E+03  0.00000000000E+00 0.  1.
    9000007    1    1    2  501    0  0.47153947992E+03 -0.14927116320E+03 -0.18163328523E+03  0.66153005343E+03  0.40000000000E+03 0.  1.
   -9000007    1    1    2    0  502 -0.47153947992E+03  0.14927116320E+03  0.81237324041E+03  0.10317856575E+04  0.40000000000E+03 0. -1.
<mgrwt>
<rscale>  2 0.63610641E+03</rscale>
<asrwt>0</asrwt>
<pdfrwt beam="1">  1       21 0.17877351E+00 0.63610641E+03</pdfrwt>
<pdfrwt beam="2">  1       21 0.81736597E-01 0.63610641E+03</pdfrwt>
<totfact> 0.18201012E+02</totfact>
</mgrwt>
</event>
<event>
 4    1  0.4832791E-002  0.5298365E+03  0.7818608E-02  0.1006272E+00
         21   -1    0    0  503  502  0.00000000000E+00  0.00000000000E+00  0.69479138641E+03  0.69479138641E+03  0.00000000000E+00 0. -1.
         21   -1    0    0  501  503 -0.00000000000E+00 -0.00000000000E+00 -0.73199988888E+03  0.73199988888E+03  0.00000000000E+00 0.  1.
    9000007    1    1    2  501    0  0.22005990646E+03 -0.26888730041E+03 -0.49611398406E+03  0.72584835051E+03  0.40000000000E+03 0.  1.
   -9000007    1    1    2    0  502 -0.22005990646E+03  0.26888730041E+03  0.45890548160E+03  0.70094292478E+03  0.40000000000E+03 0. -1.
<mgrwt>
<rscale>  2 0.52983652E+03</rscale>
<asrwt>0</asrwt>
<pdfrwt beam="1">  1       21 0.10689098E+00 0.52983652E+03</pdfrwt>
<pdfrwt beam="2">  1       21 0.11261537E+00 0.52983652E+03</pdfrwt>
<totfact> 0.34620486E+02</totfact>
</mgrwt>
</event>
<event>
 4    1  0.4832791E-002  0.8294285E+03  0.7818608E-02  0.9518371E-01
         21   -1    0    0  501  502  0.00000000000E+00  0.00000000000E+00  0.16516023183E+04  0.16516023183E+04  0.00000000000E+00 0. -1.
         21   -1    0    0  502  503 -0.00000000000E+00 -0.00000000000E+00 -0.46603031652E+03  0.46603031652E+03  0.00000000000E+00 0.  1.
    9000007    1    1    2  501    0 -0.82511331871E+02 -0.72190265642E+03  0.93784383495E+03  0.12519994505E+04  0.40000000000E+03 0. -1.
   -9000007    1    1    2    0  503  0.82511331871E+02  0.72190265642E+03  0.24772816687E+03  0.86563318438E+03  0.40000000000E+03 0.  1.
<mgrwt>
<rscale>  2 0.82942846E+03</rscale>
<asrwt>0</asrwt>
<pdfrwt beam="1">  1       21 0.25409266E+00 0.82942846E+03</pdfrwt>
<pdfrwt beam="2">  1       21 0.71696972E-01 0.82942846E+03</pdfrwt>
<totfact> 0.73256841E+01</totfact>
</mgrwt>
</event>
<event>
 4    1  0.4832791E-002  0.5593321E+03  0.7818608E-02  0.9993567E-01
         21   -1    0    0  501  502  0.00000000000E+00  0.00000000000E+00  0.52066028723E+03  0.52066028723E+03  0.00000000000E+00 0.  1.
         21   -1    0    0  502  503 -0.00000000000E+00 -0.00000000000E+00 -0.69249776080E+03  0.69249776080E+03  0.00000000000E+00 0. -1.
    9000007    1    1    2  501    0 -0.67564016084E+02  0.38508114235E+03  0.13471758544E+03  0.57532704638E+03  0.40000000000E+03 0.  1.
   -9000007    1    1    2    0  503  0.67564016084E+02 -0.38508114235E+03 -0.30655505901E+03  0.63783100165E+03  0.40000000000E+03 0. -1.
<mgrwt>
<rscale>  2 0.55933209E+03</rscale>
<asrwt>0</asrwt>
<pdfrwt beam="1">  1       21 0.80101583E-01 0.55933209E+03</pdfrwt>
<pdfrwt beam="2">  1       21 0.10653812E+00 0.55933209E+03</pdfrwt>
<totfact> 0.78556025E+02</totfact>
</mgrwt>
</event>
<event>
 4    1  0.4832791E-002  0.4234694E+03  0.7818608E-02  0.1035943E+00
         21   -1    0    0  501  502  0.00000000000E+00  0.00000000000E+00  0.49410574254E+03  0.49410574254E+03  0.00000000000E+00 0.  1.
         21   -1    0    0  502  503 -0.00000000000E+00 -0.00000000000E+00 -0.36830401119E+03  0.36830401119E+03  0.00000000000E+00 0. -1.
    9000007    1    1    2  501    0  0.93911677274E+02  0.10250340787E+03  0.11498247110E+03  0.43880214267E+03  0.40000000000E+03 0.  1.
   -9000007    1    1    2    0  503 -0.93911677274E+02 -0.10250340787E+03  0.10819260250E+02  0.42360761106E+03  0.40000000000E+03 0. -1.
<mgrwt>
<rscale>  2 0.42346942E+03</rscale>
<asrwt>0</asrwt>
<pdfrwt beam="1">  1       21 0.76016268E-01 0.42346942E+03</pdfrwt>
<pdfrwt beam="2">  1       21 0.56662155E-01 0.42346942E+03</pdfrwt>
<totfact> 0.39934285E+03</totfact>
</mgrwt>
</event>
<event>
 4    1  0.4832791E-002  0.5470414E+03  0.7818608E-02  0.1002181E+00
         21   -1    0    0  503  502  0.00000000000E+00  0.00000000000E+00  0.40849605909E+03  0.40849605909E+03  0.00000000000E+00 0. -1.
         21   -1    0    0  501  503 -0.00000000000E+00 -0.00000000000E+00 -0.75261461300E+03  0.75261461300E+03  0.00000000000E+00 0.  1.
    9000007    1    1    2  501    0 -0.32183698500E+02  0.37177751953E+03 -0.26679060679E+03  0.60863087528E+03  0.40000000000E+03 0.  1.
   -9000007    1    1    2    0  502  0.32183698500E+02 -0.37177751953E+03 -0.77327947125E+02  0.55247979681E+03  0.40000000000E+03 0. -1.
<mgrwt>
<rscale>  2 0.54704142E+03</rscale>
<asrwt>0</asrwt>
<pdfrwt beam="1">  1       21 0.62845548E-01 0.54704142E+03</pdfrwt>
<pdfrwt beam="2">  1       21 0.11578686E+00 0.54704142E+03</pdfrwt>
<totfact> 0.11109122E+03</totfact>
</mgrwt>
</event>
<event>
 4    1  0.4832791E-002  0.4292819E+03  0.7818608E-02  0.1034087E+00
         21   -1    0    0  503  502  0.00000000000E+00  0.00000000000E+00  0.38115149075E+03  0.38115149075E+03  0.00000000000E+00 0.  1.
         21   -1    0    0  501  503 -0.00000000000E+00 -0.00000000000E+00 -0.82410963846E+03  0.82410963846E+03  0.00000000000E+00 0.  1.
    9000007    1    1    2  501    0 -0.71013066377E+02  0.13870857991E+03 -0.60890931248E+03  0.74501911154E+03  0.40000000000E+03 0.  1.
   -9000007    1    1    2    0  502  0.71013066377E+02 -0.13870857991E+03  0.16595116478E+03  0.46024201767E+03  0.40000000000E+03 0.  1.
<mgrwt>
<rscale>  2 0.42928187E+03</rscale>
<asrwt>0</asrwt>
<pdfrwt beam="1">  1       21 0.58638691E-01 0.42928187E+03</pdfrwt>
<pdfrwt beam="2">  1       21 0.12678610E+00 0.42928187E+03</pdfrwt>
<totfact> 0.10732754E+03</totfact>
</mgrwt>
</event>
<event>
 4    1  0.4832791E-002  0.4755917E+03  0.7818608E-02  0.1020354E+00
         21   -1    0    0  503  502  0.00000000000E+00  0.00000000000E+00  0.30959038339E+03  0.30959038339E+03  0.00000000000E+00 0. -1.
         21   -1    0    0  501  503 -0.00000000000E+00 -0.00000000000E+00 -0.83889708647E+03  0.83889708647E+03  0.00000000000E+00 0. -1.
    9000007    1    1    2  501    0  0.23665083725E+03 -0.10091517956E+03 -0.47097528497E+03  0.66933191414E+03  0.40000000000E+03 0. -1.
   -9000007    1    1    2    0  502 -0.23665083725E+03  0.10091517956E+03 -0.58331418118E+02  0.47915555572E+03  0.40000000000E+03 0. -1.
<mgrwt>
<rscale>  2 0.47559173E+03</rscale>
<asrwt>0</asrwt>
<pdfrwt beam="1">  1       21 0.47629291E-01 0.47559173E+03</pdfrwt>
<pdfrwt beam="2">  1       21 0.12906109E+00 0.47559173E+03</pdfrwt>
<totfact> 0.15718074E+03</totfact>
</mgrwt>
</event>
<event>
 4    1  0.4832791E-002  0.5149422E+03  0.7818608E-02  0.1009951E+00
         21   -1    0    0  503  502  0.00000000000E+00  0.00000000000E+00  0.51160165291E+03  0.51160165291E+03  0.00000000000E+00 0. -1.
         21   -1    0    0  501  503 -0.00000000000E+00 -0.00000000000E+00 -0.72199359131E+03  0.72199359131E+03  0.00000000000E+00 0.  1.
    9000007    1    1    2  501    0 -0.32428901969E+03  0.14408551586E+01 -0.43280803893E+03  0.67267246333E+03  0.40000000000E+03 0. -1.
   -9000007    1    1    2    0  502  0.32428901969E+03 -0.14408551586E+01  0.22241610053E+03  0.56092278090E+03  0.40000000000E+03 0. -1.
<mgrwt>
<rscale>  2 0.51494218E+03</rscale>
<asrwt>0</asrwt>
<pdfrwt beam="1">  1       21 0.78707947E-01 0.51494218E+03</pdfrwt>
<pdfrwt beam="2">  1       21 0.11107594E+00 0.51494218E+03</pdfrwt>
<totfact> 0.74913085E+02</totfact>
</mgrwt>
</event>
<event>
 4    1  0.4832791E-002  0.4120793E+03  0.7818608E-02  0.1039675E+00
         21   -1    0    0  501  502  0.00000000000E+00  0.00000000000E+00  0.15643448853E+04  0.15643448853E+04  0.00000000000E+00 0. -1.
         21   -1    0    0  502  503 -0.00000000000E+00 -0.00000000000E+00 -0.28429442650E+03  0.28429442650E+03  0.00000000000E+00 0. -1.
    9000007    1    1    2  501    0 -0.72151890372E+02 -0.67848897539E+02  0.13667651360E+04  0.14275350452E+04  0.40000000000E+03 0. -1.
   -9000007    1    1    2    0  503  0.72151890372E+02  0.67848897539E+02 -0.86714677165E+02  0.42110426668E+03  0.40000000000E+03 0. -1.
<mgrwt>
<rscale>  2 0.41207932E+03</rscale>
<asrwt>0</asrwt>
<pdfrwt beam="1">  1       21 0.24066844E+00 0.41207932E+03</pdfrwt>
<pdfrwt beam="2">  1       21 0.43737605E-01 0.41207932E+03</pdfrwt>
<totfact> 0.31207204E+02</totfact>
</mgrwt>
</event>
<event>
 4    1  0.4832791E-002  0.5275696E+03  0.7818608E-02  0.1006823E+00
         21   -1    0    0  501  502  0.00000000000E+00  0.00000000000E+00  0.38690406951E+03  0.38690406951E+03  0.00000000000E+00 0.  1.
         21   -1    0    0  502  503 -0.00000000000E+00 -0.00000000000E+00 -0.85018992136E+03  0.85018992136E+03  0.00000000000E+00 0. -1.
    9000007    1    1    2  501    0 -0.28681817346E+03 -0.18990793403E+03  0.10985068999E+02  0.52768395823E+03  0.40000000000E+03 0.  1.
   -9000007    1    1    2    0  503  0.28681817346E+03  0.18990793403E+03 -0.47427092086E+03  0.70941003264E+03  0.40000000000E+03 0. -1.
<mgrwt>
<rscale>  2 0.52756960E+03</rscale>
<asrwt>0</asrwt>
<pdfrwt beam="1">  1       21 0.59523704E-01 0.52756960E+03</pdfrwt>
<pdfrwt beam="2">  1       21 0.13079845E+00 0.52756960E+03</pdfrwt>
<totfact> 0.92154677E+02</totfact>
</mgrwt>
</event>
<event>
 4    1  0.4832791E-002  0.5247208E+03  0.7818608E-02  0.1007521E+00
         21   -1    0    0  501  502  0.00000000000E+00  0.00000000000E+00  0.77591360420E+03  0.77591360420E+03  0.00000000000E+00 0.  1.
         21   -1    0    0  502  503 -0.00000000000E+00 -0.00000000000E+00 -0.35594514782E+03  0.35594514782E+03  0.00000000000E+00 0. -1.
    9000007    1    1    2  501    0 -0.32420602847E+03  0.10110577829E+03  0.24139411218E+03  0.57758379885E+03  0.40000000000E+03 0.  1.
   -9000007    1    1    2    0  503  0.32420602847E+03 -0.10110577829E+03  0.17857434420E+03  0.55427495317E+03  0.40000000000E+03 0. -1.
<mgrwt>
<rscale>  2 0.52472081E+03</rscale>
<asrwt>0</asrwt>
<pdfrwt beam="1">  1       21 0.11937132E+00 0.52472081E+03</pdfrwt>
<pdfrwt beam="2">  1       21 0.54760792E-01 0.52472081E+03</pdfrwt>
<totfact> 0.14011458E+03</totfact>
</mgrwt>
</event>
<event>
 4    1  0.4832791E-002  0.4423967E+03  0.7818608E-02  0.1030014E+00
         21   -1    0    0  503  502  0.00000000000E+00  0.00000000000E+00  0.81284082279E+03  0.81284082279E+03  0.00000000000E+00 0.  1.
         21   -1    0    0  501  503 -0.00000000000E+00 -0.00000000000E+00 -0.32571088317E+03  0.32571088317E+03  0.00000000000E+00 0.  1.
    9000007    1    1    2  501    0 -0.31413106172E+02  0.18635471524E+03  0.53426323262E+03  0.69365125593E+03  0.40000000000E+03 0.  1.
   -9000007    1    1    2    0  502  0.31413106172E+02 -0.18635471524E+03 -0.47133292995E+02  0.44490045003E+03  0.40000000000E+03 0.  1.
<mgrwt>
<rscale>  2 0.44239673E+03</rscale>
<asrwt>0</asrwt>
<pdfrwt beam="1">  1       21 0.12505243E+00 0.44239673E+03</pdfrwt>
<pdfrwt beam="2">  1       21 0.50109367E-01 0.44239673E+03</pdfrwt>
<totfact> 0.15512264E+03</totfact>
</mgrwt>
</event>
<event>
 4    1  0.4832791E-002  0.4198883E+03  0.7818608E-02  0.1037103E+00
         21   -1    0    0  501  502  0.00000000000E+00  0.00000000000E+00  0.52025838387E+03  0.52025838387E+03  0.00000000000E+00 0.  1.
         21   -1    0    0  502  503 -0.00000000000E+00 -0.00000000000E+00 -0.34309022135E+03  0.34309022135E+03  0.00000000000E+00 0.  1.
    9000007    1    1    2  501    0  0.46715290903E+02  0.11884398693E+03  0.13639205341E+03  0.44148499846E+03  0.40000000000E+03 0.  1.
   -9000007    1    1    2    0  503 -0.46715290903E+02 -0.11884398693E+03  0.40776109107E+02  0.42186360676E+03  0.40000000000E+03 0.  1.
<mgrwt>
<rscale>  2 0.41988833E+03</rscale>
<asrwt>0</asrwt>
<pdfrwt beam="1">  1       21 0.80039751E-01 0.41988833E+03</pdfrwt>
<pdfrwt beam="2">  1       21 0.52783111E-01 0.41988833E+03</pdfrwt>
<totfact> 0.41383635E+03</totfact>
</mgrwt>
</event>
<event>
 4    1  0.4832791E-002  0.6330994E+03  0.7818608E-02  0.9839019E-01
         21   -1    0    0  503  502  0.00000000000E+00  0.00000000000E+00  0.60020971439E+03  0.60020971439E+03  0.00000000000E+00 0.  1.
         21   -1    0    0  501  503 -0.00000000000E+00 -0.00000000000E+00 -0.80285027909E+03  0.80285027909E+03  0.00000000000E+00 0. -1.
    9000007    1    1    2  501    0 -0.28683508509E+03  0.39817137411E+03 -0.38905398819E+03  0.74308668063E+03  0.40000000000E+03 0. -1.
   -9000007    1    1    2    0  502  0.28683508509E+03 -0.39817137411E+03  0.18641342349E+03  0.65997331284E+03  0.40000000000E+03 0.  1.
<mgrwt>
<rscale>  2 0.63309937E+03</rscale>
<asrwt>0</asrwt>
<pdfrwt beam="1">  1       21 0.92339957E-01 0.63309937E+03</pdfrwt>
<pdfrwt beam="2">  1       21 0.12351543E+00 0.63309937E+03</pdfrwt>
<totfact> 0.37707982E+02</totfact>
</mgrwt>
</event>
<event>
 4    1  0.4832791E-002  0.4112256E+03  0.7818608E-02  0.1039961E+00
         21   -1    0    0  503  502  0.00000000000E+00  0.00000000000E+00  0.22632411533E+04  0.22632411533E+04  0.00000000000E+00 0.  1.
         21   -1    0    0  501  503 -0.00000000000E+00 -0.00000000000E+00 -0.77915267659E+02  0.77915267659E+02  0.00000000000E+00 0. -1.
    9000007    1    1    2  501    0 -0.76690657957E+02  0.56789249442E+02  0.13297620558E+04  0.13918956860E+04  0.40000000000E+03 0.  1.
   -9000007    1    1    2    0  502  0.76690657957E+02 -0.56789249442E+02  0.85556382992E+03  0.94926073496E+03  0.40000000000E+03 0. -1.
<mgrwt>
<rscale>  2 0.41122558E+03</rscale>
<asrwt>0</asrwt>
<pdfrwt beam="1">  1       21 0.34819090E+00 0.41122558E+03</pdfrwt>
<pdfrwt beam="2">  1       21 0.11986966E-01 0.41122558E+03</pdfrwt>
<totfact> 0.85511153E+02</totfact>
</mgrwt>
</event>
<event>
 4    1  0.4832791E-002  0.4001935E+03  0.7818608E-02  0.1043713E+00
         21   -1    0    0  501  502  0.00000000000E+00  0.00000000000E+00  0.28911234225E+04  0.28911234225E+04  0.00000000000E+00 0.  1.
         21   -1    0    0  502  503 -0.00000000000E+00 -0.00000000000E+00 -0.64880607407E+02  0.64880607407E+02  0.00000000000E+00 0.  1.
    9000007    1    1    2  501    0  0.18531866253E+01  0.12303430038E+02  0.19782431490E+04  0.20183163194E+04  0.40000000000E+03 0.  1.
   -9000007    1    1    2    0  503 -0.18531866253E+01 -0.12303430038E+02  0.84799966607E+03  0.93768771046E+03  0.40000000000E+03 0.  1.
<mgrwt>
<rscale>  2 0.40019346E+03</rscale>
<asrwt>0</asrwt>
<pdfrwt beam="1">  1       21 0.44478812E+00 0.40019346E+03</pdfrwt>
<pdfrwt beam="2">  1       21 0.99816341E-02 0.40019346E+03</pdfrwt>
<totfact> 0.29002666E+02</totfact>
</mgrwt>
</event>
<event>
 4    1  0.4832791E-002  0.6740249E+03  0.7818608E-02  0.9762714E-01
         21   -1    0    0  501  502  0.00000000000E+00  0.00000000000E+00  0.12249109879E+04  0.12249109879E+04  0.00000000000E+00 0. -1.
         21   -1    0    0  502  503 -0.00000000000E+00 -0.00000000000E+00 -0.37101892911E+03  0.37101892911E+03  0.00000000000E+00 0.  1.
    9000007    1    1    2  501    0  0.24369035824E+03  0.48469016465E+03  0.41218007738E+03  0.79006453066E+03  0.40000000000E+03 0. -1.
   -9000007    1    1    2    0  503 -0.24369035824E+03 -0.48469016465E+03  0.44171198143E+03  0.80586538637E+03  0.40000000000E+03 0.  1.
<mgrwt>
<rscale>  2 0.67402489E+03</rscale>
<asrwt>0</asrwt>
<pdfrwt beam="1">  1       21 0.18844784E+00 0.67402489E+03</pdfrwt>
<pdfrwt beam="2">  1       21 0.57079836E-01 0.67402489E+03</pdfrwt>
<totfact> 0.34584552E+02</totfact>
</mgrwt>
</event>
<event>
 4    1  0.4832791E-002  0.4159678E+03  0.7818608E-02  0.1038387E+00
         21   -1    0    0  501  502  0.00000000000E+00  0.00000000000E+00  0.13243261593E+03  0.13243261593E+03  0.00000000000E+00 0.  1.
         21   -1    0    0  502  503 -0.00000000000E+00 -0.00000000000E+00 -0.13158394845E+04  0.13158394845E+04  0.00000000000E+00 0.  1.
    9000007    1    1    2  501    0 -0.49341894788E+02 -0.10293014321E+03 -0.65256175135E+03  0.77386437848E+03  0.40000000000E+03 0.  1.
   -9000007    1    1    2    0  503  0.49341894788E+02  0.10293014321E+03 -0.53084511727E+03  0.67440772200E+03  0.40000000000E+03 0.  1.
<mgrwt>
<rscale>  2 0.41596783E+03</rscale>
<asrwt>0</asrwt>
<pdfrwt beam="1">  1       21 0.20374249E-01 0.41596783E+03</pdfrwt>
<pdfrwt beam="2">  1       21 0.20243684E+00 0.41596783E+03</pdfrwt>
<totfact> 0.24861455E+03</totfact>
</mgrwt>
</event>
<event>
 4    1  0.4832791E-002  0.4943956E+03  0.7818608E-02  0.1015252E+00
         21   -1    0    0  503  502  0.00000000000E+00  0.00000000000E+00  0.37985051590E+03  0.37985051590E+03  0.00000000000E+00 0. -1.
         21   -1    0    0  501  503 -0.00000000000E+00 -0.00000000000E+00 -0.85190727299E+03  0.85190727299E+03  0.00000000000E+00 0. -1.
    9000007    1    1    2  501    0 -0.27498810087E+03 -0.93853653425E+02 -0.54065956638E+03  0.73262523202E+03  0.40000000000E+03 0. -1.
   -9000007    1    1    2    0  502  0.27498810087E+03  0.93853653425E+02  0.68602809288E+02  0.49913255686E+03  0.40000000000E+03 0. -1.
<mgrwt>
<rscale>  2 0.49439555E+03</rscale>
<asrwt>0</asrwt>
<pdfrwt beam="1">  1       21 0.58438541E-01 0.49439555E+03</pdfrwt>
<pdfrwt beam="2">  1       21 0.13106266E+00 0.49439555E+03</pdfrwt>
<totfact> 0.96607706E+02</totfact>
</mgrwt>
</event>
<event>
 4    1  0.4832791E-002  0.4041910E+03  0.7818608E-02  0.1042338E+00
         21   -1    0    0  503  502  0.00000000000E+00  0.00000000000E+00  0.33240145664E+03  0.33240145664E+03  0.00000000000E+00 0.  1.
         21   -1    0    0  501  503 -0.00000000000E+00 -0.00000000000E+00 -0.56526970878E+03  0.56526970878E+03  0.00000000000E+00 0.  1.
    9000007    1    1    2  501    0  0.57051348820E+02 -0.10747828031E+02  0.45725312523E+02  0.40676919305E+03  0.40000000000E+03 0.  1.
   -9000007    1    1    2    0  502 -0.57051348820E+02  0.10747828031E+02 -0.27859356466E+03  0.49090197237E+03  0.40000000000E+03 0.  1.
<mgrwt>
<rscale>  2 0.40419101E+03</rscale>
<asrwt>0</asrwt>
<pdfrwt beam="1">  1       21 0.51138685E-01 0.40419101E+03</pdfrwt>
<pdfrwt beam="2">  1       21 0.86964571E-01 0.40419101E+03</pdfrwt>
<totfact> 0.36722323E+03</totfact>
</mgrwt>
</event>
<event>
 4    1  0.4832791E-002  0.4422721E+03  0.7818608E-02  0.1030052E+00
         21   -1    0    0  503  502  0.00000000000E+00  0.00000000000E+00  0.72089083408E+03  0.72089083408E+03  0.00000000000E+00 0.  1.
         21   -1    0    0  501  503 -0.00000000000E+00 -0.00000000000E+00 -0.27710255710E+03  0.27710255710E+03  0.00000000000E+00 0.  1.
    9000007    1    1    2  501    0 -0.17161224395E+03 -0.78446626287E+02  0.14991884339E+03  0.46699067984E+03  0.40000000000E+03 0. -1.
   -9000007    1    1    2    0  502  0.17161224395E+03  0.78446626287E+02  0.29386943360E+03  0.53100271134E+03  0.40000000000E+03 0. -1.
<mgrwt>
<rscale>  2 0.44227213E+03</rscale>
<asrwt>0</asrwt>
<pdfrwt beam="1">  1       21 0.11090628E+00 0.44227213E+03</pdfrwt>
<pdfrwt beam="2">  1       21 0.42631163E-01 0.44227213E+03</pdfrwt>
<totfact> 0.29501573E+03</totfact>
</mgrwt>
</event>
<event>
 4    1  0.4832791E-002  0.4673655E+03  0.7818608E-02  0.1022666E+00
         21   -1    0    0  501  502  0.00000000000E+00  0.00000000000E+00  0.36186299049E+03  0.36186299049E+03  0.00000000000E+00 0.  1.
         21   -1    0    0  502  503 -0.00000000000E+00 -0.00000000000E+00 -0.15172730379E+04  0.15172730379E+04  0.00000000000E+00 0.  1.
    9000007    1    1    2  501    0  0.12794431143E+03  0.20508724700E+03  0.15139174580E+03  0.49127384055E+03  0.40000000000E+03 0.  1.
   -9000007    1    1    2    0  503 -0.12794431143E+03 -0.20508724700E+03 -0.13068017932E+04  0.13878621879E+04  0.40000000000E+03 0.  1.
<mgrwt>
<rscale>  2 0.46736552E+03</rscale>
<asrwt>0</asrwt>
<pdfrwt beam="1">  1       21 0.55671228E-01 0.46736552E+03</pdfrwt>
<pdfrwt beam="2">  1       21 0.23342662E+00 0.46736552E+03</pdfrwt>
<totfact> 0.20109205E+02</totfact>
</mgrwt>
</event>
<event>
 4    1  0.4832791E-002  0.6085810E+03  0.7818608E-02  0.9887761E-01
         21   -1    0    0  501  502  0.00000000000E+00  0.00000000000E+00  0.51300693879E+03  0.51300693879E+03  0.00000000000E+00 0.  1.
         21   -1    0    0  502  503 -0.00000000000E+00 -0.00000000000E+00 -0.87367080073E+03  0.87367080073E+03  0.00000000000E+00 0. -1.
    9000007    1    1    2  501    0 -0.45848337782E+03  0.12799367795E+02  0.10858895208E+03  0.61819284375E+03  0.40000000000E+03 0.  1.
   -9000007    1    1    2    0  503  0.45848337782E+03 -0.12799367795E+02 -0.46925281402E+03  0.76848489577E+03  0.40000000000E+03 0. -1.
<mgrwt>
<rscale>  2 0.60858100E+03</rscale>
<asrwt>0</asrwt>
<pdfrwt beam="1">  1       21 0.78924144E-01 0.60858100E+03</pdfrwt>
<pdfrwt beam="2">  1       21 0.13441089E+00 0.60858100E+03</pdfrwt>
<totfact> 0.44142322E+02</totfact>
</mgrwt>
</event>
<event>
 4    1  0.4832791E-002  0.5828018E+03  0.7818608E-02  0.9941744E-01
         21   -1    0    0  501  502  0.00000000000E+00  0.00000000000E+00  0.36995076680E+03  0.36995076680E+03  0.00000000000E+00 0.  1.
         21   -1    0    0  502  503 -0.00000000000E+00 -0.00000000000E+00 -0.10051959894E+04  0.10051959894E+04  0.00000000000E+00 0. -1.
    9000007    1    1    2  501    0 -0.41013369769E+03  0.10699671045E+03 -0.11525019008E+03  0.59408800051E+03  0.40000000000E+03 0.  1.
   -9000007    1    1    2    0  503  0.41013369769E+03 -0.10699671045E+03 -0.51999503256E+03  0.78105875574E+03  0.40000000000E+03 0. -1.
<mgrwt>
<rscale>  2 0.58280181E+03</rscale>
<asrwt>0</asrwt>
<pdfrwt beam="1">  1       21 0.56915504E-01 0.58280181E+03</pdfrwt>
<pdfrwt beam="2">  1       21 0.15464553E+00 0.58280181E+03</pdfrwt>
<totfact> 0.63561053E+02</totfact>
</mgrwt>
</event>
<event>
 4    1  0.4832791E-002  0.5062774E+03  0.7818608E-02  0.1012153E+00
         21   -1    0    0  501  502  0.00000000000E+00  0.00000000000E+00  0.91224773200E+03  0.91224773200E+03  0.00000000000E+00 0.  1.
         21   -1    0    0  502  503 -0.00000000000E+00 -0.00000000000E+00 -0.32988955799E+03  0.32988955799E+03  0.00000000000E+00 0.  1.
    9000007    1    1    2  501    0 -0.27494786203E+03  0.14394602264E+03  0.53033670933E+03  0.73319425089E+03  0.40000000000E+03 0.  1.
   -9000007    1    1    2    0  503  0.27494786203E+03 -0.14394602264E+03  0.52021464676E+02  0.50894303910E+03  0.40000000000E+03 0.  1.
<mgrwt>
<rscale>  2 0.50627738E+03</rscale>
<asrwt>0</asrwt>
<pdfrwt beam="1">  1       21 0.14034580E+00 0.50627738E+03</pdfrwt>
<pdfrwt beam="2">  1       21 0.50752240E-01 0.50627738E+03</pdfrwt>
<totfact> 0.10890943E+03</totfact>
</mgrwt>
</event>
<event>
 4    1  0.4832791E-002  0.7247308E+03  0.7818608E-02  0.9675850E-01
         21   -1    0    0  501  502  0.00000000000E+00  0.00000000000E+00  0.24959288455E+04  0.24959288455E+04  0.00000000000E+00 0.  1.
         21   -1    0    0  502  503 -0.00000000000E+00 -0.00000000000E+00 -0.21620118324E+03  0.21620118324E+03  0.00000000000E+00 0. -1.
    9000007    1    1    2  501    0  0.41754839920E+03  0.43690743715E+03  0.13612933533E+04  0.15421914175E+04  0.40000000000E+03 0.  1.
   -9000007    1    1    2    0  503 -0.41754839920E+03 -0.43690743715E+03  0.91843430889E+03  0.11699386112E+04  0.40000000000E+03 0. -1.
<mgrwt>
<rscale>  2 0.72473083E+03</rscale>
<asrwt>0</asrwt>
<pdfrwt beam="1">  1       21 0.38398903E+00 0.72473083E+03</pdfrwt>
<pdfrwt beam="2">  1       21 0.33261722E-01 0.72473083E+03</pdfrwt>
<totfact> 0.61534231E+01</totfact>
</mgrwt>
</event>
<event>
 4    1  0.4832791E-002  0.4488903E+03  0.7818608E-02  0.1028053E+00
         21   -1    0    0  503  502  0.00000000000E+00  0.00000000000E+00  0.43958074850E+03  0.43958074850E+03  0.00000000000E+00 0. -1.
         21   -1    0    0  501  503 -0.00000000000E+00 -0.00000000000E+00 -0.46220963890E+03  0.46220963890E+03  0.00000000000E+00 0.  1.
    9000007    1    1    2  501    0 -0.11560730421E+03 -0.16774228323E+03 -0.52265545580E+02  0.45192279166E+03  0.40000000000E+03 0.  1.
   -9000007    1    1    2    0  502  0.11560730421E+03  0.16774228323E+03  0.29636655183E+02  0.44986759574E+03  0.40000000000E+03 0.  1.
<mgrwt>
<rscale>  2 0.44889032E+03</rscale>
<asrwt>0</asrwt>
<pdfrwt beam="1">  1       21 0.67627808E-01 0.44889032E+03</pdfrwt>
<pdfrwt beam="2">  1       21 0.71109175E-01 0.44889032E+03</pdfrwt>
<totfact> 0.31191289E+03</totfact>
</mgrwt>
</event>
<event>
 4    1  0.4832791E-002  0.4693666E+03  0.7818608E-02  0.1022099E+00
         21   -1    0    0  501  502  0.00000000000E+00  0.00000000000E+00  0.22364396572E+03  0.22364396572E+03  0.00000000000E+00 0.  1.
         21   -1    0    0  502  503 -0.00000000000E+00 -0.00000000000E+00 -0.21473894939E+04  0.21473894939E+04  0.00000000000E+00 0. -1.
    9000007    1    1    2  501    0 -0.90620340468E+02  0.22823878118E+03 -0.89674909386E+02  0.47785623017E+03  0.40000000000E+03 0.  1.
   -9000007    1    1    2    0  503  0.90620340468E+02 -0.22823878118E+03 -0.18340706188E+04  0.18931772295E+04  0.40000000000E+03 0. -1.
<mgrwt>
<rscale>  2 0.46936658E+03</rscale>
<asrwt>0</asrwt>
<pdfrwt beam="1">  1       21 0.34406764E-01 0.46936658E+03</pdfrwt>
<pdfrwt beam="2">  1       21 0.33036762E+00 0.46936658E+03</pdfrwt>
<totfact> 0.14127032E+02</totfact>
</mgrwt>
</event>
<event>
 4    1  0.4832791E-002  0.4374817E+03  0.7818608E-02  0.1031522E+00
         21   -1    0    0  501  502  0.00000000000E+00  0.00000000000E+00  0.53310750218E+03  0.53310750218E+03  0.00000000000E+00 0. -1.
         21   -1    0    0  502  503 -0.00000000000E+00 -0.00000000000E+00 -0.56365038988E+03  0.56365038988E+03  0.00000000000E+00 0. -1.
    9000007    1    1    2  501    0  0.46427965503E+02 -0.17098150334E+03  0.31515357624E+03  0.53917715742E+03  0.40000000000E+03 0. -1.
   -9000007    1    1    2    0  503 -0.46427965503E+02  0.17098150334E+03 -0.34569646394E+03  0.55758073464E+03  0.40000000000E+03 0. -1.
<mgrwt>
<rscale>  2 0.43748169E+03</rscale>
<asrwt>0</asrwt>
<pdfrwt beam="1">  1       21 0.82016539E-01 0.43748169E+03</pdfrwt>
<pdfrwt beam="2">  1       21 0.86715444E-01 0.43748169E+03</pdfrwt>
<totfact> 0.12786482E+03</totfact>
</mgrwt>
</event>
<event>
 4    1  0.4832791E-002  0.4486393E+03  0.7818608E-02  0.1028129E+00
         21   -1    0    0  503  502  0.00000000000E+00  0.00000000000E+00  0.15091001171E+04  0.15091001171E+04  0.00000000000E+00 0.  1.
         21   -1    0    0  501  503 -0.00000000000E+00 -0.00000000000E+00 -0.17041820673E+03  0.17041820673E+03  0.00000000000E+00 0.  1.
    9000007    1    1    2  501    0  0.10290064607E+03 -0.17518193400E+03  0.27782716659E+03  0.52769800782E+03  0.40000000000E+03 0.  1.
   -9000007    1    1    2    0  502 -0.10290064607E+03  0.17518193400E+03  0.10608547438E+04  0.11518203160E+04  0.40000000000E+03 0.  1.
<mgrwt>
<rscale>  2 0.44863934E+03</rscale>
<asrwt>0</asrwt>
<pdfrwt beam="1">  1       21 0.23216924E+00 0.44863934E+03</pdfrwt>
<pdfrwt beam="2">  1       21 0.26218187E-01 0.44863934E+03</pdfrwt>
<totfact> 0.96970296E+02</totfact>
</mgrwt>
</event>
<event>
 4    1  0.4832791E-002  0.4116055E+03  0.7818608E-02  0.1039834E+00
         21   -1    0    0  503  502  0.00000000000E+00  0.00000000000E+00  0.11484256615E+04  0.11484256615E+04  0.00000000000E+00 0. -1.
         21   -1    0    0  501  503 -0.00000000000E+00 -0.00000000000E+00 -0.16902214203E+03  0.16902214203E+03  0.00000000000E+00 0. -1.
    9000007    1    1    2  501    0  0.95861856256E+02  0.15151347166E+02  0.25476908803E+03  0.48407266709E+03  0.40000000000E+03 0. -1.
   -9000007    1    1    2    0  502 -0.95861856256E+02 -0.15151347166E+02  0.72463443140E+03  0.83337513640E+03  0.40000000000E+03 0. -1.
<mgrwt>
<rscale>  2 0.41160546E+03</rscale>
<asrwt>0</asrwt>
<pdfrwt beam="1">  1       21 0.17668087E+00 0.41160546E+03</pdfrwt>
<pdfrwt beam="2">  1       21 0.26003407E-01 0.41160546E+03</pdfrwt>
<totfact> 0.23355169E+03</totfact>
</mgrwt>
</event>
<event>
 4    1  0.4832791E-002  0.4198492E+03  0.7818608E-02  0.1037115E+00
         21   -1    0    0  501  502  0.00000000000E+00  0.00000000000E+00  0.51861951489E+03  0.51861951489E+03  0.00000000000E+00 0. -1.
         21   -1    0    0  502  503 -0.00000000000E+00 -0.00000000000E+00 -0.51526047896E+03  0.51526047896E+03  0.00000000000E+00 0. -1.
    9000007    1    1    2  501    0  0.10067751848E+03  0.78341586858E+02  0.30326156775E+03  0.51791982529E+03  0.40000000000E+03 0. -1.
   -9000007    1    1    2    0  503 -0.10067751848E+03 -0.78341586858E+02 -0.29990253182E+03  0.51596016857E+03  0.40000000000E+03 0. -1.
<mgrwt>
<rscale>  2 0.41984922E+03</rscale>
<asrwt>0</asrwt>
<pdfrwt beam="1">  1       21 0.79787618E-01 0.41984922E+03</pdfrwt>
<pdfrwt beam="2">  1       21 0.79270843E-01 0.41984922E+03</pdfrwt>
<totfact> 0.16911741E+03</totfact>
</mgrwt>
</event>
<event>
 4    1  0.4832791E-002  0.4041028E+03  0.7818608E-02  0.1042368E+00
         21   -1    0    0  501  502  0.00000000000E+00  0.00000000000E+00  0.65838666446E+03  0.65838666446E+03  0.00000000000E+00 0. -1.
         21   -1    0    0  502  503 -0.00000000000E+00 -0.00000000000E+00 -0.42887769978E+03  0.42887769978E+03  0.00000000000E+00 0. -1.
    9000007    1    1    2  501    0  0.55156674582E+02  0.16026289488E+02  0.46777171979E+03  0.61815004856E+03  0.40000000000E+03 0. -1.
   -9000007    1    1    2    0  503 -0.55156674582E+02 -0.16026289488E+02 -0.23826275510E+03  0.46911431568E+03  0.40000000000E+03 0. -1.
<mgrwt>
<rscale>  2 0.40410283E+03</rscale>
<asrwt>0</asrwt>
<pdfrwt beam="1">  1       21 0.10129026E+00 0.40410283E+03</pdfrwt>
<pdfrwt beam="2">  1       21 0.65981185E-01 0.40410283E+03</pdfrwt>
<totfact> 0.14666224E+03</totfact>
</mgrwt>
</event>
<event>
 4    1  0.4832791E-002  0.4899286E+03  0.7818608E-02  0.1016442E+00
         21   -1    0    0  501  502  0.00000000000E+00  0.00000000000E+00  0.97039173538E+03  0.97039173538E+03  0.00000000000E+00 0. -1.
         21   -1    0    0  502  503 -0.00000000000E+00 -0.00000000000E+00 -0.24800016549E+03  0.24800016549E+03  0.00000000000E+00 0.  1.
    9000007    1    1    2  501    0  0.38693419728E+02  0.28023717885E+03  0.33009444238E+03  0.59075578544E+03  0.40000000000E+03 0. -1.
   -9000007    1    1    2    0  503 -0.38693419728E+02 -0.28023717885E+03  0.39229712752E+03  0.62763611543E+03  0.40000000000E+03 0. -1.
<mgrwt>
<rscale>  2 0.48992862E+03</rscale>
<asrwt>0</asrwt>
<pdfrwt beam="1">  1       21 0.14929103E+00 0.48992862E+03</pdfrwt>
<pdfrwt beam="2">  1       21 0.38153872E-01 0.48992862E+03</pdfrwt>
<totfact> 0.16853153E+03</totfact>
</mgrwt>
</event>
<event>
 4    1  0.4832791E-002  0.6934630E+03  0.7818608E-02  0.9728477E-01
         21   -1    0    0  503  502  0.00000000000E+00  0.00000000000E+00  0.90661996884E+03  0.90661996884E+03  0.00000000000E+00 0. -1.
         21   -1    0    0  501  503 -0.00000000000E+00 -0.00000000000E+00 -0.85383116585E+03  0.85383116585E+03  0.00000000000E+00 0. -1.
    9000007    1    1    2  501    0  0.47346880152E+03 -0.31099551089E+03 -0.51533740474E+03  0.86398122348E+03  0.40000000000E+03 0. -1.
   -9000007    1    1    2    0  502 -0.47346880152E+03  0.31099551089E+03  0.56812620772E+03  0.89646991121E+03  0.40000000000E+03 0. -1.
<mgrwt>
<rscale>  2 0.69346299E+03</rscale>
<asrwt>0</asrwt>
<pdfrwt beam="1">  1       21 0.13948000E+00 0.69346299E+03</pdfrwt>
<pdfrwt beam="2">  1       21 0.13135864E+00 0.69346299E+03</pdfrwt>
<totfact> 0.11062182E+02</totfact>
</mgrwt>
</event>
<event>
 4    1  0.4832791E-002  0.4077375E+03  0.7818608E-02  0.1041133E+00
         21   -1    0    0  501  502  0.00000000000E+00  0.00000000000E+00  0.31173613744E+03  0.31173613744E+03  0.00000000000E+00 0.  1.
         21   -1    0    0  502  503 -0.00000000000E+00 -0.00000000000E+00 -0.53521679046E+03  0.53521679046E+03  0.00000000000E+00 0.  1.
    9000007    1    1    2  501    0  0.29524520159E+02 -0.73335965825E+02 -0.86418464396E+02  0.41679492819E+03  0.40000000000E+03 0.  1.
   -9000007    1    1    2    0  503 -0.29524520159E+02  0.73335965825E+02 -0.13706218862E+03  0.43015799972E+03  0.40000000000E+03 0.  1.
<mgrwt>
<rscale>  2 0.40773749E+03</rscale>
<asrwt>0</asrwt>
<pdfrwt beam="1">  1       21 0.47959406E-01 0.40773749E+03</pdfrwt>
<pdfrwt beam="2">  1       21 0.82341044E-01 0.40773749E+03</pdfrwt>
<totfact> 0.47724940E+03</totfact>
</mgrwt>
</event>
<event>
 4    1  0.4832791E-002  0.4519713E+03  0.7818608E-02  0.1027136E+00
         21   -1    0    0  503  502  0.00000000000E+00  0.00000000000E+00  0.16158402611E+04  0.16158402611E+04  0.00000000000E+00 0. -1.
         21   -1    0    0  501  503 -0.00000000000E+00 -0.00000000000E+00 -0.13496923764E+03  0.13496923764E+03  0.00000000000E+00 0.  1.
    9000007    1    1    2  501    0  0.20900661564E+03 -0.24377757248E+02  0.52014289496E+03  0.68907668050E+03  0.40000000000E+03 0.  1.
   -9000007    1    1    2    0  502 -0.20900661564E+03  0.24377757248E+02  0.96072812851E+03  0.10617328182E+04  0.40000000000E+03 0. -1.
<mgrwt>
<rscale>  2 0.45197128E+03</rscale>
<asrwt>0</asrwt>
<pdfrwt beam="1">  1       21 0.24859080E+00 0.45197128E+03</pdfrwt>
<pdfrwt beam="2">  1       21 0.20764499E-01 0.45197128E+03</pdfrwt>
<totfact> 0.12015018E+03</totfact>
</mgrwt>
</event>
<event>
 4    1  0.4832791E-002  0.5409854E+03  0.7818608E-02  0.1003602E+00
         21   -1    0    0  503  502  0.00000000000E+00  0.00000000000E+00  0.10746609605E+04  0.10746609605E+04  0.00000000000E+00 0.  1.
         21   -1    0    0  501  503 -0.00000000000E+00 -0.00000000000E+00 -0.39521255310E+03  0.39521255310E+03  0.00000000000E+00 0.  1.
    9000007    1    1    2  501    0  0.18332618927E+03  0.31473282948E+03 -0.70078735432E+02  0.54550552223E+03  0.40000000000E+03 0. -1.
   -9000007    1    1    2    0  502 -0.18332618927E+03 -0.31473282948E+03  0.74952714283E+03  0.92436799137E+03  0.40000000000E+03 0. -1.
<mgrwt>
<rscale>  2 0.54098544E+03</rscale>
<asrwt>0</asrwt>
<pdfrwt beam="1">  1       21 0.16533245E+00 0.54098544E+03</pdfrwt>
<pdfrwt beam="2">  1       21 0.60801932E-01 0.54098544E+03</pdfrwt>
<totfact> 0.46281852E+02</totfact>
</mgrwt>
</event>
<event>
 4    1  0.4832791E-002  0.4311875E+03  0.7818608E-02  0.1033486E+00
         21   -1    0    0  503  502  0.00000000000E+00  0.00000000000E+00  0.17738640468E+04  0.17738640468E+04  0.00000000000E+00 0. -1.
         21   -1    0    0  501  503 -0.00000000000E+00 -0.00000000000E+00 -0.32425888996E+03  0.32425888996E+03  0.00000000000E+00 0. -1.
    9000007    1    1    2  501    0 -0.15433530546E+03  0.45861383618E+02 -0.13821466655E+03  0.45279790974E+03  0.40000000000E+03 0. -1.
   -9000007    1    1    2    0  502  0.15433530546E+03 -0.45861383618E+02  0.15878198234E+04  0.16453250270E+04  0.40000000000E+03 0. -1.
<mgrwt>
<rscale>  2 0.43118749E+03</rscale>
<asrwt>0</asrwt>
<pdfrwt beam="1">  1       21 0.27290216E+00 0.43118749E+03</pdfrwt>
<pdfrwt beam="2">  1       21 0.49885984E-01 0.43118749E+03</pdfrwt>
<totfact> 0.14881870E+02</totfact>
</mgrwt>
</event>
<event>
 4    1  0.4832791E-002  0.4726342E+03  0.7818608E-02  0.1021179E+00
         21   -1    0    0  501  502  0.00000000000E+00  0.00000000000E+00  0.30387328371E+03  0.30387328371E+03  0.00000000000E+00 0. -1.
         21   -1    0    0  502  503 -0.00000000000E+00 -0.00000000000E+00 -0.99447537422E+03  0.99447537422E+03  0.00000000000E+00 0. -1.
    9000007    1    1    2  501    0 -0.97345765536E+02 -0.23217862302E+03 -0.13778898895E+02  0.47283503372E+03  0.40000000000E+03 0. -1.
   -9000007    1    1    2    0  503  0.97345765536E+02  0.23217862302E+03 -0.67682319162E+03  0.82551362421E+03  0.40000000000E+03 0. -1.
<mgrwt>
<rscale>  2 0.47263423E+03</rscale>
<asrwt>0</asrwt>
<pdfrwt beam="1">  1       21 0.46749736E-01 0.47263423E+03</pdfrwt>
<pdfrwt beam="2">  1       21 0.15299621E+00 0.47263423E+03</pdfrwt>
<totfact> 0.10402053E+03</totfact>
</mgrwt>
</event>
<event>
 4    1  0.4832791E-002  0.4152740E+03  0.7818608E-02  0.1038616E+00
         21   -1    0    0  501  502  0.00000000000E+00  0.00000000000E+00  0.17818102733E+03  0.17818102733E+03  0.00000000000E+00 0.  1.
         21   -1    0    0  502  503 -0.00000000000E+00 -0.00000000000E+00 -0.11261162507E+04  0.11261162507E+04  0.00000000000E+00 0.  1.
    9000007    1    1    2  501    0 -0.10165972022E+03  0.46019537355E+02 -0.22948430022E+03  0.47446342386E+03  0.40000000000E+03 0.  1.
   -9000007    1    1    2    0  503  0.10165972022E+03 -0.46019537355E+02 -0.71845092315E+03  0.82983385416E+03  0.40000000000E+03 0.  1.
<mgrwt>
<rscale>  2 0.41527400E+03</rscale>
<asrwt>0</asrwt>
<pdfrwt beam="1">  1       21 0.27412466E-01 0.41527400E+03</pdfrwt>
<pdfrwt beam="2">  1       21 0.17324865E+00 0.41527400E+03</pdfrwt>
<totfact> 0.22252743E+03</totfact>
</mgrwt>
</event>
<event>
 4    1  0.4832791E-002  0.4601968E+03  0.7818608E-02  0.1024724E+00
         21   -1    0    0  503  502  0.00000000000E+00  0.00000000000E+00  0.29442266951E+03  0.29442266951E+03  0.00000000000E+00 0. -1.
         21   -1    0    0  501  503 -0.00000000000E+00 -0.00000000000E+00 -0.76326085043E+03  0.76326085043E+03  0.00000000000E+00 0. -1.
    9000007    1    1    2  501    0 -0.56792475768E+01  0.22748381386E+03 -0.36132253489E+03  0.58509410665E+03  0.40000000000E+03 0. -1.
   -9000007    1    1    2    0  502  0.56792475768E+01 -0.22748381386E+03 -0.10751564603E+03  0.47258941330E+03  0.40000000000E+03 0. -1.
<mgrwt>
<rscale>  2 0.46019685E+03</rscale>
<asrwt>0</asrwt>
<pdfrwt beam="1">  1       21 0.45295796E-01 0.46019685E+03</pdfrwt>
<pdfrwt beam="2">  1       21 0.11742474E+00 0.46019685E+03</pdfrwt>
<totfact> 0.22389621E+03</totfact>
</mgrwt>
</event>
<event>
 4    1  0.4832791E-002  0.4784511E+03  0.7818608E-02  0.1019562E+00
         21   -1    0    0  503  502  0.00000000000E+00  0.00000000000E+00  0.88713366682E+03  0.88713366682E+03  0.00000000000E+00 0.  1.
         21   -1    0    0  501  503 -0.00000000000E+00 -0.00000000000E+00 -0.26493732389E+03  0.26493732389E+03  0.00000000000E+00 0.  1.
    9000007    1    1    2  501    0  0.87538329082E+02  0.24749240627E+03  0.21815093592E+03  0.52583769460E+03  0.40000000000E+03 0.  1.
   -9000007    1    1    2    0  502 -0.87538329082E+02 -0.24749240627E+03  0.40404540702E+03  0.62623329611E+03  0.40000000000E+03 0.  1.
<mgrwt>
<rscale>  2 0.47845109E+03</rscale>
<asrwt>0</asrwt>
<pdfrwt beam="1">  1       21 0.13648210E+00 0.47845109E+03</pdfrwt>
<pdfrwt beam="2">  1       21 0.40759589E-01 0.47845109E+03</pdfrwt>
<totfact> 0.18792570E+03</totfact>
</mgrwt>
</event>
<event>
 4    1  0.4832791E-002  0.5601553E+03  0.7818608E-02  0.9991703E-01
         21   -1    0    0  501  502  0.00000000000E+00  0.00000000000E+00  0.59589954654E+03  0.59589954654E+03  0.00000000000E+00 0. -1.
         21   -1    0    0  502  503 -0.00000000000E+00 -0.00000000000E+00 -0.76696115099E+03  0.76696115099E+03  0.00000000000E+00 0. -1.
    9000007    1    1    2  501    0  0.60347955532E+02  0.38746876942E+03  0.29598059787E+03  0.63354434520E+03  0.40000000000E+03 0. -1.
   -9000007    1    1    2    0  503 -0.60347955532E+02 -0.38746876942E+03 -0.46704220232E+03  0.72931635232E+03  0.40000000000E+03 0. -1.
<mgrwt>
<rscale>  2 0.56015527E+03</rscale>
<asrwt>0</asrwt>
<pdfrwt beam="1">  1       21 0.91676853E-01 0.56015527E+03</pdfrwt>
<pdfrwt beam="2">  1       21 0.11799402E+00 0.56015527E+03</pdfrwt>
<totfact> 0.44239950E+02</totfact>
</mgrwt>
</event>
<event>
 4    1  0.4832791E-002  0.5271579E+03  0.7818608E-02  0.1006924E+00
         21   -1    0    0  501  502  0.00000000000E+00  0.00000000000E+00  0.12042581209E+04  0.12042581209E+04  0.00000000000E+00 0.  1.
         21   -1    0    0  502  503 -0.00000000000E+00 -0.00000000000E+00 -0.44806120988E+03  0.44806120988E+03  0.00000000000E+00 0.  1.
    9000007    1    1    2  501    0  0.10203369859E+03 -0.32784841811E+03  0.95343992150E+03  0.10894692032E+04  0.40000000000E+03 0.  1.
   -9000007    1    1    2    0  503 -0.10203369859E+03  0.32784841811E+03 -0.19724301047E+03  0.56285012755E+03  0.40000000000E+03 0.  1.
<mgrwt>
<rscale>  2 0.52715791E+03</rscale>
<asrwt>0</asrwt>
<pdfrwt beam="1">  1       21 0.18527048E+00 0.52715791E+03</pdfrwt>
<pdfrwt beam="2">  1       21 0.68932494E-01 0.52715791E+03</pdfrwt>
<totfact> 0.25276403E+02</totfact>
</mgrwt>
</event>
<event>
 4    1  0.4832791E-002  0.4196356E+03  0.7818608E-02  0.1037185E+00
         21   -1    0    0  503  502  0.00000000000E+00  0.00000000000E+00  0.43386664965E+03  0.43386664965E+03  0.00000000000E+00 0.  1.
         21   -1    0    0  501  503 -0.00000000000E+00 -0.00000000000E+00 -0.57822214250E+03  0.57822214250E+03  0.00000000000E+00 0.  1.
    9000007    1    1    2  501    0 -0.11201511491E+03  0.59553664833E+02 -0.34845679692E+03  0.54545042330E+03  0.40000000000E+03 0.  1.
   -9000007    1    1    2    0  502  0.11201511491E+03 -0.59553664833E+02  0.20410130406E+03  0.46663836885E+03  0.40000000000E+03 0.  1.
<mgrwt>
<rscale>  2 0.41963559E+03</rscale>
<asrwt>0</asrwt>
<pdfrwt beam="1">  1       21 0.66748715E-01 0.41963559E+03</pdfrwt>
<pdfrwt beam="2">  1       21 0.88957253E-01 0.41963559E+03</pdfrwt>
<totfact> 0.19372397E+03</totfact>
</mgrwt>
</event>
<event>
 4    1  0.4832791E-002  0.4818595E+03  0.7818608E-02  0.1018625E+00
         21   -1    0    0  503  502  0.00000000000E+00  0.00000000000E+00  0.30493867409E+03  0.30493867409E+03  0.00000000000E+00 0.  1.
         21   -1    0    0  501  503 -0.00000000000E+00 -0.00000000000E+00 -0.10210682613E+04  0.10210682613E+04  0.00000000000E+00 0.  1.
    9000007    1    1    2  501    0 -0.74847545868E+02  0.25804346797E+03 -0.69239463212E+03  0.84356322411E+03  0.40000000000E+03 0.  1.
   -9000007    1    1    2    0  502  0.74847545868E+02 -0.25804346797E+03 -0.23734955109E+02  0.48244371131E+03  0.40000000000E+03 0.  1.
<mgrwt>
<rscale>  2 0.48185951E+03</rscale>
<asrwt>0</asrwt>
<pdfrwt beam="1">  1       21 0.46913642E-01 0.48185951E+03</pdfrwt>
<pdfrwt beam="2">  1       21 0.15708742E+00 0.48185951E+03</pdfrwt>
<totfact> 0.95651813E+02</totfact>
</mgrwt>
</event>
<event>
 4    1  0.4832791E-002  0.4376745E+03  0.7818608E-02  0.1031463E+00
         21   -1    0    0  503  502  0.00000000000E+00  0.00000000000E+00  0.36279682066E+03  0.36279682066E+03  0.00000000000E+00 0. -1.
         21   -1    0    0  501  503 -0.00000000000E+00 -0.00000000000E+00 -0.60026123391E+03  0.60026123391E+03  0.00000000000E+00 0. -1.
    9000007    1    1    2  501    0  0.12747170561E+03  0.12373316670E+03  0.48333263185E+02  0.44033514123E+03  0.40000000000E+03 0. -1.
   -9000007    1    1    2    0  502 -0.12747170561E+03 -0.12373316670E+03 -0.28579767643E+03  0.52272291334E+03  0.40000000000E+03 0. -1.
<mgrwt>
<rscale>  2 0.43767446E+03</rscale>
<asrwt>0</asrwt>
<pdfrwt beam="1">  1       21 0.55814896E-01 0.43767446E+03</pdfrwt>
<pdfrwt beam="2">  1       21 0.92347881E-01 0.43767446E+03</pdfrwt>
<totfact> 0.26077119E+03</totfact>
</mgrwt>
</event>
<event>
 4    1  0.4832791E-002  0.4097705E+03  0.7818608E-02  0.1040448E+00
         21   -1    0    0  501  502  0.00000000000E+00  0.00000000000E+00  0.29196678185E+03  0.29196678185E+03  0.00000000000E+00 0. -1.
         21   -1    0    0  502  503 -0.00000000000E+00 -0.00000000000E+00 -0.68283955546E+03  0.68283955546E+03  0.00000000000E+00 0. -1.
    9000007    1    1    2  501    0  0.73737791626E+02 -0.49745068375E+02 -0.18367189391E+01  0.40977458105E+03  0.40000000000E+03 0. -1.
   -9000007    1    1    2    0  503 -0.73737791626E+02  0.49745068375E+02 -0.38903605467E+03  0.56503175626E+03  0.40000000000E+03 0. -1.
<mgrwt>
<rscale>  2 0.40977046E+03</rscale>
<asrwt>0</asrwt>
<pdfrwt beam="1">  1       21 0.44917967E-01 0.40977046E+03</pdfrwt>
<pdfrwt beam="2">  1       21 0.10505224E+00 0.40977046E+03</pdfrwt>
<totfact> 0.30624246E+03</totfact>
</mgrwt>
</event>
<event>
 4    1  0.4832791E-002  0.5072652E+03  0.7818608E-02  0.1011900E+00
         21   -1    0    0  501  502  0.00000000000E+00  0.00000000000E+00  0.38068468561E+03  0.38068468561E+03  0.00000000000E+00 0. -1.
         21   -1    0    0  502  503 -0.00000000000E+00 -0.00000000000E+00 -0.13200198530E+04  0.13200198530E+04  0.00000000000E+00 0. -1.
    9000007    1    1    2  501    0  0.10721787090E+03 -0.29295439057E+03  0.12432404559E+03  0.52227810131E+03  0.40000000000E+03 0. -1.
   -9000007    1    1    2    0  503 -0.10721787090E+03  0.29295439057E+03 -0.10636592130E+04  0.11784264373E+04  0.40000000000E+03 0. -1.
<mgrwt>
<rscale>  2 0.50726516E+03</rscale>
<asrwt>0</asrwt>
<pdfrwt beam="1">  1       21 0.58566875E-01 0.50726516E+03</pdfrwt>
<pdfrwt beam="2">  1       21 0.20307998E+00 0.50726516E+03</pdfrwt>
<totfact> 0.27696558E+02</totfact>
</mgrwt>
</event>
<event>
 4    1  0.4832791E-002  0.4719699E+03  0.7818608E-02  0.1021366E+00
         21   -1    0    0  501  502  0.00000000000E+00  0.00000000000E+00  0.12604772286E+03  0.12604772286E+03  0.00000000000E+00 0.  1.
         21   -1    0    0  502  503 -0.00000000000E+00 -0.00000000000E+00 -0.19434949284E+04  0.19434949284E+04  0.00000000000E+00 0.  1.
    9000007    1    1    2  501    0 -0.25023108463E+03 -0.11832943456E+02 -0.12203489184E+04  0.13084368907E+04  0.40000000000E+03 0.  1.
   -9000007    1    1    2    0  503  0.25023108463E+03  0.11832943456E+02 -0.59709828708E+03  0.76110576052E+03  0.40000000000E+03 0.  1.
<mgrwt>
<rscale>  2 0.47196993E+03</rscale>
<asrwt>0</asrwt>
<pdfrwt beam="1">  1       21 0.19391960E-01 0.47196993E+03</pdfrwt>
<pdfrwt beam="2">  1       21 0.29899918E+00 0.47196993E+03</pdfrwt>
<totfact> 0.67028674E+02</totfact>
</mgrwt>
</event>
<event>
 4    1  0.4832791E-002  0.4730987E+03  0.7818608E-02  0.1021049E+00
         21   -1    0    0  501  502  0.00000000000E+00  0.00000000000E+00  0.13260580160E+04  0.13260580160E+04  0.00000000000E+00 0.  1.
         21   -1    0    0  502  503 -0.00000000000E+00 -0.00000000000E+00 -0.22978084198E+03  0.22978084198E+03  0.00000000000E+00 0.  1.
    9000007    1    1    2  501    0  0.23969685836E+03 -0.79798747218E+02  0.94892946983E+03  0.10603252155E+04  0.40000000000E+03 0.  1.
   -9000007    1    1    2    0  503 -0.23969685836E+03  0.79798747218E+02  0.14734770423E+03  0.49551364251E+03  0.40000000000E+03 0.  1.
<mgrwt>
<rscale>  2 0.47309875E+03</rscale>
<asrwt>0</asrwt>
<pdfrwt beam="1">  1       21 0.20400892E+00 0.47309875E+03</pdfrwt>
<pdfrwt beam="2">  1       21 0.35350900E-01 0.47309875E+03</pdfrwt>
<totfact> 0.80213810E+02</totfact>
</mgrwt>
</event>
<event>
 4    1  0.4832791E-002  0.4223907E+03  0.7818608E-02  0.1036291E+00
         21   -1    0    0  503  502  0.00000000000E+00  0.00000000000E+00  0.26907716534E+03  0.26907716534E+03  0.00000000000E+00 0. -1.
         21   -1    0    0  501  503 -0.00000000000E+00 -0.00000000000E+00 -0.85330068433E+03  0.85330068433E+03  0.00000000000E+00 0. -1.
    9000007    1    1    2  501    0 -0.13534330707E+03  0.98041851902E+01 -0.55709067862E+03  0.69911655467E+03  0.40000000000E+03 0.  1.
   -9000007    1    1    2    0  502  0.13534330707E+03 -0.98041851902E+01 -0.27132840383E+02  0.42326129500E+03  0.40000000000E+03 0.  1.
<mgrwt>
<rscale>  2 0.42239073E+03</rscale>
<asrwt>0</asrwt>
<pdfrwt beam="1">  1       21 0.41396487E-01 0.42239073E+03</pdfrwt>
<pdfrwt beam="2">  1       21 0.13127703E+00 0.42239073E+03</pdfrwt>
<totfact> 0.20590356E+03</totfact>
</mgrwt>
</event>
<event>
 4    1  0.4832791E-002  0.4170716E+03  0.7818608E-02  0.1038024E+00
         21   -1    0    0  503  502  0.00000000000E+00  0.00000000000E+00  0.87360625786E+03  0.87360625786E+03  0.00000000000E+00 0.  1.
         21   -1    0    0  501  503 -0.00000000000E+00 -0.00000000000E+00 -0.19951959560E+03  0.19951959560E+03  0.00000000000E+00 0.  1.
    9000007    1    1    2  501    0 -0.96564842375E+02  0.67999555493E+02  0.36118518314E+03  0.55172769085E+03  0.40000000000E+03 0.  1.
   -9000007    1    1    2    0  502  0.96564842375E+02 -0.67999555493E+02  0.31290147912E+03  0.52139816260E+03  0.40000000000E+03 0.  1.
<mgrwt>
<rscale>  2 0.41707159E+03</rscale>
<asrwt>0</asrwt>
<pdfrwt beam="1">  1       21 0.13440096E+00 0.41707159E+03</pdfrwt>
<pdfrwt beam="2">  1       21 0.30695323E-01 0.41707159E+03</pdfrwt>
<totfact> 0.35580779E+03</totfact>
</mgrwt>
</event>
<event>
 4    1  0.4832791E-002  0.4200752E+03  0.7818608E-02  0.1037042E+00
         21   -1    0    0  501  502  0.00000000000E+00  0.00000000000E+00  0.54362815792E+03  0.54362815792E+03  0.00000000000E+00 0.  1.
         21   -1    0    0  502  503 -0.00000000000E+00 -0.00000000000E+00 -0.35708759982E+03  0.35708759982E+03  0.00000000000E+00 0.  1.
    9000007    1    1    2  501    0  0.90106237723E+02 -0.91345913726E+02  0.22910494770E+03  0.47848958932E+03  0.40000000000E+03 0.  1.
   -9000007    1    1    2    0  503 -0.90106237723E+02  0.91345913726E+02 -0.42564389596E+02  0.42222616841E+03  0.40000000000E+03 0.  1.
<mgrwt>
<rscale>  2 0.42007524E+03</rscale>
<asrwt>0</asrwt>
<pdfrwt beam="1">  1       21 0.83635102E-01 0.42007524E+03</pdfrwt>
<pdfrwt beam="2">  1       21 0.54936553E-01 0.42007524E+03</pdfrwt>
<totfact> 0.34298587E+03</totfact>
</mgrwt>
</event>
<event>
 4    1  0.4832791E-002  0.4300221E+03  0.7818608E-02  0.1033853E+00
         21   -1    0    0  501  502  0.00000000000E+00  0.00000000000E+00  0.94487887914E+03  0.94487887914E+03  0.00000000000E+00 0.  1.
         21   -1    0    0  502  503 -0.00000000000E+00 -0.00000000000E+00 -0.26780861388E+03  0.26780861388E+03  0.00000000000E+00 0. -1.
    9000007    1    1    2  501    0  0.15038834092E+03  0.47982923423E+02  0.65315083157E+03  0.78200065397E+03  0.40000000000E+03 0.  1.
   -9000007    1    1    2    0  503 -0.15038834092E+03 -0.47982923423E+02  0.23919433698E+02  0.43068683905E+03  0.40000000000E+03 0. -1.
<mgrwt>
<rscale>  2 0.43002211E+03</rscale>
<asrwt>0</asrwt>
<pdfrwt beam="1">  1       21 0.14536598E+00 0.43002211E+03</pdfrwt>
<pdfrwt beam="2">  1       21 0.41201326E-01 0.43002211E+03</pdfrwt>
<totfact> 0.15834156E+03</totfact>
</mgrwt>
</event>
<event>
 4    1  0.4832791E-002  0.4822977E+03  0.7818608E-02  0.1018506E+00
         21   -1    0    0  501  502  0.00000000000E+00  0.00000000000E+00  0.50558570796E+03  0.50558570796E+03  0.00000000000E+00 0. -1.
         21   -1    0    0  502  503 -0.00000000000E+00 -0.00000000000E+00 -0.54197446443E+03  0.54197446443E+03  0.00000000000E+00 0. -1.
    9000007    1    1    2  501    0  0.25351799470E+03 -0.91321883372E+02  0.18540695424E+03  0.51670765303E+03  0.40000000000E+03 0. -1.
   -9000007    1    1    2    0  503 -0.25351799470E+03  0.91321883372E+02 -0.22179571071E+03  0.53085251936E+03  0.40000000000E+03 0. -1.
<mgrwt>
<rscale>  2 0.48229769E+03</rscale>
<asrwt>0</asrwt>
<pdfrwt beam="1">  1       21 0.77782416E-01 0.48229769E+03</pdfrwt>
<pdfrwt beam="2">  1       21 0.83380687E-01 0.48229769E+03</pdfrwt>
<totfact> 0.15570631E+03</totfact>
</mgrwt>
</event>
<event>
 4    1  0.4832791E-002  0.4132290E+03  0.7818608E-02  0.1039293E+00
         21   -1    0    0  501  502  0.00000000000E+00  0.00000000000E+00  0.37451753962E+03  0.37451753962E+03  0.00000000000E+00 0.  1.
         21   -1    0    0  502  503 -0.00000000000E+00 -0.00000000000E+00 -0.48992039118E+03  0.48992039118E+03  0.00000000000E+00 0.  1.
    9000007    1    1    2  501    0 -0.93686140382E+02  0.44509541661E+02  0.56125209514E+02  0.41702305853E+03  0.40000000000E+03 0.  1.
   -9000007    1    1    2    0  503  0.93686140382E+02 -0.44509541661E+02 -0.17152806107E+03  0.44741487228E+03  0.40000000000E+03 0.  1.
<mgrwt>
<rscale>  2 0.41322898E+03</rscale>
<asrwt>0</asrwt>
<pdfrwt beam="1">  1       21 0.57618083E-01 0.41322898E+03</pdfrwt>
<pdfrwt beam="2">  1       21 0.75372368E-01 0.41322898E+03</pdfrwt>
<totfact> 0.39412288E+03</totfact>
</mgrwt>
</event>
<event>
 4    1  0.4832791E-002  0.4338613E+03  0.7818608E-02  0.1032647E+00
         21   -1    0    0  503  502  0.00000000000E+00  0.00000000000E+00  0.61407131653E+03  0.61407131653E+03  0.00000000000E+00 0.  1.
         21   -1    0    0  501  503 -0.00000000000E+00 -0.00000000000E+00 -0.30664109169E+03  0.30664109169E+03  0.00000000000E+00 0.  1.
    9000007    1    1    2  501    0 -0.16656374714E+03  0.22185319318E+02  0.14523938178E+03  0.45752611759E+03  0.40000000000E+03 0. -1.
   -9000007    1    1    2    0  502  0.16656374714E+03 -0.22185319318E+02  0.16219084306E+03  0.46318629063E+03  0.40000000000E+03 0. -1.
<mgrwt>
<rscale>  2 0.43386135E+03</rscale>
<asrwt>0</asrwt>
<pdfrwt beam="1">  1       21 0.94472510E-01 0.43386135E+03</pdfrwt>
<pdfrwt beam="2">  1       21 0.47175553E-01 0.43386135E+03</pdfrwt>
<totfact> 0.35414086E+03</totfact>
</mgrwt>
</event>
<event>
 4    1  0.4832791E-002  0.7101952E+03  0.7818608E-02  0.9699954E-01
         21   -1    0    0  501  502  0.00000000000E+00  0.00000000000E+00  0.13208308816E+04  0.13208308816E+04  0.00000000000E+00 0. -1.
         21   -1    0    0  502  503 -0.00000000000E+00 -0.00000000000E+00 -0.62092574105E+03  0.62092574105E+03  0.00000000000E+00 0.  1.
    9000007    1    1    2  501    0 -0.46822065164E+03  0.35376078033E+03  0.95237390917E+03  0.11880207621E+04  0.40000000000E+03 0. -1.
   -9000007    1    1    2    0  503  0.46822065164E+03 -0.35376078033E+03 -0.25246876863E+03  0.75373586053E+03  0.40000000000E+03 0.  1.
<mgrwt>
<rscale>  2 0.71019523E+03</rscale>
<asrwt>0</asrwt>
<pdfrwt beam="1">  1       21 0.20320475E+00 0.71019523E+03</pdfrwt>
<pdfrwt beam="2">  1       21 0.95527038E-01 0.71019523E+03</pdfrwt>
<totfact> 0.82720503E+01</totfact>
</mgrwt>
</event>
<event>
 4    1  0.4832791E-002  0.4342562E+03  0.7818608E-02  0.1032524E+00
         21   -1    0    0  501  502  0.00000000000E+00  0.00000000000E+00  0.20278529143E+03  0.20278529143E+03  0.00000000000E+00 0. -1.
         21   -1    0    0  502  503 -0.00000000000E+00 -0.00000000000E+00 -0.11605145226E+04  0.11605145226E+04  0.00000000000E+00 0. -1.
    9000007    1    1    2  501    0 -0.14816302195E+03 -0.81401532016E+02 -0.17502794675E+03  0.46820217068E+03  0.40000000000E+03 0. -1.
   -9000007    1    1    2    0  503  0.14816302195E+03  0.81401532016E+02 -0.78270128445E+03  0.89509764337E+03  0.40000000000E+03 0. -1.
<mgrwt>
<rscale>  2 0.43425625E+03</rscale>
<asrwt>0</asrwt>
<pdfrwt beam="1">  1       21 0.31197737E-01 0.43425625E+03</pdfrwt>
<pdfrwt beam="2">  1       21 0.17854070E+00 0.43425625E+03</pdfrwt>
<totfact> 0.15663138E+03</totfact>
</mgrwt>
</event>
<event>
 4    1  0.4832791E-002  0.4728492E+03  0.7818608E-02  0.1021119E+00
         21   -1    0    0  501  502  0.00000000000E+00  0.00000000000E+00  0.50053367081E+03  0.50053367081E+03  0.00000000000E+00 0. -1.
         21   -1    0    0  502  503 -0.00000000000E+00 -0.00000000000E+00 -0.47750638538E+03  0.47750638538E+03  0.00000000000E+00 0.  1.
    9000007    1    1    2  501    0  0.11340474740E+03  0.22522377776E+03  0.13573196101E+03  0.49194466360E+03  0.40000000000E+03 0.  1.
   -9000007    1    1    2    0  503 -0.11340474740E+03 -0.22522377776E+03 -0.11270467558E+03  0.48609539259E+03  0.40000000000E+03 0.  1.
<mgrwt>
<rscale>  2 0.47284922E+03</rscale>
<asrwt>0</asrwt>
<pdfrwt beam="1">  1       21 0.77005181E-01 0.47284922E+03</pdfrwt>
<pdfrwt beam="2">  1       21 0.73462520E-01 0.47284922E+03</pdfrwt>
<totfact> 0.21404635E+03</totfact>
</mgrwt>
</event>
<event>
 4    1  0.4832791E-002  0.6197403E+03  0.7818608E-02  0.9865277E-01
         21   -1    0    0  503  502  0.00000000000E+00  0.00000000000E+00  0.21502320200E+04  0.21502320200E+04  0.00000000000E+00 0.  1.
         21   -1    0    0  501  503 -0.00000000000E+00 -0.00000000000E+00 -0.18013319760E+03  0.18013319760E+03  0.00000000000E+00 0. -1.
    9000007    1    1    2  501    0 -0.42504298366E+03 -0.20836618324E+03  0.10917844868E+04  0.12554168112E+04  0.40000000000E+03 0.  1.
   -9000007    1    1    2    0  502  0.42504298366E+03  0.20836618324E+03  0.87831433565E+03  0.10749484064E+04  0.40000000000E+03 0. -1.
<mgrwt>
<rscale>  2 0.61974027E+03</rscale>
<asrwt>0</asrwt>
<pdfrwt beam="1">  1       21 0.33080491E+00 0.61974027E+03</pdfrwt>
<pdfrwt beam="2">  1       21 0.27712801E-01 0.61974027E+03</pdfrwt>
<totfact> 0.20010781E+02</totfact>
</mgrwt>
</event>
<event>
 4    1  0.4832791E-002  0.4597009E+03  0.7818608E-02  0.1024868E+00
         21   -1    0    0  501  502  0.00000000000E+00  0.00000000000E+00  0.48219550188E+03  0.48219550188E+03  0.00000000000E+00 0. -1.
         21   -1    0    0  502  503 -0.00000000000E+00 -0.00000000000E+00 -0.90889369554E+03  0.90889369554E+03  0.00000000000E+00 0. -1.
    9000007    1    1    2  501    0 -0.22491749369E+03 -0.27148872135E+02  0.28715993324E+03  0.54202008034E+03  0.40000000000E+03 0. -1.
   -9000007    1    1    2    0  503  0.22491749369E+03  0.27148872135E+02 -0.71385812691E+03  0.84906911708E+03  0.40000000000E+03 0. -1.
<mgrwt>
<rscale>  2 0.45970092E+03</rscale>
<asrwt>0</asrwt>
<pdfrwt beam="1">  1       21 0.74183924E-01 0.45970092E+03</pdfrwt>
<pdfrwt beam="2">  1       21 0.13982980E+00 0.45970092E+03</pdfrwt>
<totfact> 0.48550611E+02</totfact>
</mgrwt>
</event>
<event>
 4    1  0.4832791E-002  0.4149629E+03  0.7818608E-02  0.1038718E+00
         21   -1    0    0  501  502  0.00000000000E+00  0.00000000000E+00  0.15853891505E+03  0.15853891505E+03  0.00000000000E+00 0.  1.
         21   -1    0    0  502  503 -0.00000000000E+00 -0.00000000000E+00 -0.11155147142E+04  0.11155147142E+04  0.00000000000E+00 0. -1.
    9000007    1    1    2  501    0  0.10728097773E+03 -0.26172773038E+02 -0.37510124967E+03  0.55937033327E+03  0.40000000000E+03 0.  1.
   -9000007    1    1    2    0  503 -0.10728097773E+03  0.26172773038E+02 -0.58187454944E+03  0.71468329596E+03  0.40000000000E+03 0.  1.
<mgrwt>
<rscale>  2 0.41496292E+03</rscale>
<asrwt>0</asrwt>
<pdfrwt beam="1">  1       21 0.24390604E-01 0.41496292E+03</pdfrwt>
<pdfrwt beam="2">  1       21 0.17161764E+00 0.41496292E+03</pdfrwt>
<totfact> 0.28711710E+03</totfact>
</mgrwt>
</event>
<event>
 4    1  0.4832791E-002  0.4073888E+03  0.7818608E-02  0.1041251E+00
         21   -1    0    0  503  502  0.00000000000E+00  0.00000000000E+00  0.76312988281E+03  0.76312988281E+03  0.00000000000E+00 0. -1.
         21   -1    0    0  501  503 -0.00000000000E+00 -0.00000000000E+00 -0.38594295745E+03  0.38594295745E+03  0.00000000000E+00 0. -1.
    9000007    1    1    2  501    0 -0.59901023710E+02 -0.48759740398E+02 -0.19099058033E+03  0.44993671411E+03  0.40000000000E+03 0. -1.
   -9000007    1    1    2    0  502  0.59901023710E+02  0.48759740398E+02  0.56817750569E+03  0.69913612616E+03  0.40000000000E+03 0. -1.
<mgrwt>
<rscale>  2 0.40738881E+03</rscale>
<asrwt>0</asrwt>
<pdfrwt beam="1">  1       21 0.11740460E+00 0.40738881E+03</pdfrwt>
<pdfrwt beam="2">  1       21 0.59375840E-01 0.40738881E+03</pdfrwt>
<totfact> 0.12828448E+03</totfact>
</mgrwt>
</event>
<event>
 4    1  0.4832791E-002  0.5088953E+03  0.7818608E-02  0.1011483E+00
         21   -1    0    0  501  502  0.00000000000E+00  0.00000000000E+00  0.16692141688E+04  0.16692141688E+04  0.00000000000E+00 0. -1.
         21   -1    0    0  502  503 -0.00000000000E+00 -0.00000000000E+00 -0.15654430894E+03  0.15654430894E+03  0.00000000000E+00 0.  1.
    9000007    1    1    2  501    0  0.31453589482E+03 -0.64470004465E+01  0.67010374797E+03  0.84143533678E+03  0.40000000000E+03 0. -1.
   -9000007    1    1    2    0  503 -0.31453589482E+03  0.64470004465E+01  0.84256611194E+03  0.98432314101E+03  0.40000000000E+03 0. -1.
<mgrwt>
<rscale>  2 0.50889527E+03</rscale>
<asrwt>0</asrwt>
<pdfrwt beam="1">  1       21 0.25680217E+00 0.50889527E+03</pdfrwt>
<pdfrwt beam="2">  1       21 0.24083741E-01 0.50889527E+03</pdfrwt>
<totfact> 0.78262456E+02</totfact>
</mgrwt>
</event>
<event>
 4    1  0.4832791E-002  0.5808087E+03  0.7818608E-02  0.9946042E-01
         21   -1    0    0  501  502  0.00000000000E+00  0.00000000000E+00  0.50358204406E+03  0.50358204406E+03  0.00000000000E+00 0. -1.
         21   -1    0    0  502  503 -0.00000000000E+00 -0.00000000000E+00 -0.70763046412E+03  0.70763046412E+03  0.00000000000E+00 0.  1.
    9000007    1    1    2  501    0  0.24516792939E+03  0.34239077482E+03  0.37856293376E+02  0.58204111129E+03  0.40000000000E+03 0. -1.
   -9000007    1    1    2    0  503 -0.24516792939E+03 -0.34239077482E+03 -0.24190471344E+03  0.62917139689E+03  0.40000000000E+03 0.  1.
<mgrwt>
<rscale>  2 0.58080871E+03</rscale>
<asrwt>0</asrwt>
<pdfrwt beam="1">  1       21 0.77474160E-01 0.58080871E+03</pdfrwt>
<pdfrwt beam="2">  1       21 0.10886623E+00 0.58080871E+03</pdfrwt>
<totfact> 0.79848186E+02</totfact>
</mgrwt>
</event>
<event>
 4    1  0.4832791E-002  0.4230245E+03  0.7818608E-02  0.1036086E+00
         21   -1    0    0  501  502  0.00000000000E+00  0.00000000000E+00  0.26912399895E+04  0.26912399895E+04  0.00000000000E+00 0.  1.
         21   -1    0    0  502  503 -0.00000000000E+00 -0.00000000000E+00 -0.92653502874E+02  0.92653502874E+02  0.00000000000E+00 0.  1.
    9000007    1    1    2  501    0 -0.11552163700E+02  0.13717253750E+03  0.20389176537E+04  0.20823388188E+04  0.40000000000E+03 0.  1.
   -9000007    1    1    2    0  503  0.11552163700E+02 -0.13717253750E+03  0.55966883293E+03  0.70155467363E+03  0.40000000000E+03 0.  1.
<mgrwt>
<rscale>  2 0.42302454E+03</rscale>
<asrwt>0</asrwt>
<pdfrwt beam="1">  1       21 0.41403686E+00 0.42302454E+03</pdfrwt>
<pdfrwt beam="2">  1       21 0.14254387E-01 0.42302454E+03</pdfrwt>
<totfact> 0.23808943E+02</totfact>
</mgrwt>
</event>
<event>
 4    1  0.4832791E-002  0.4041915E+03  0.7818608E-02  0.1042338E+00
         21   -1    0    0  501  502  0.00000000000E+00  0.00000000000E+00  0.43187444606E+03  0.43187444606E+03  0.00000000000E+00 0.  1.
         21   -1    0    0  502  503 -0.00000000000E+00 -0.00000000000E+00 -0.37828319936E+03  0.37828319936E+03  0.00000000000E+00 0. -1.
    9000007    1    1    2  501    0  0.52858305352E+02  0.24016387712E+02  0.27040810108E+02  0.40509504161E+03  0.40000000000E+03 0.  1.
   -9000007    1    1    2    0  503 -0.52858305352E+02 -0.24016387712E+02  0.26550436591E+02  0.40506260381E+03  0.40000000000E+03 0. -1.
<mgrwt>
<rscale>  2 0.40419152E+03</rscale>
<asrwt>0</asrwt>
<pdfrwt beam="1">  1       21 0.66442223E-01 0.40419152E+03</pdfrwt>
<pdfrwt beam="2">  1       21 0.58197415E-01 0.40419152E+03</pdfrwt>
<totfact> 0.51399087E+03</totfact>
</mgrwt>
</event>
<event>
 4    1  0.4832791E-002  0.4009791E+03  0.7818608E-02  0.1043441E+00
         21   -1    0    0  503  502  0.00000000000E+00  0.00000000000E+00  0.19242643416E+04  0.19242643416E+04  0.00000000000E+00 0.  1.
         21   -1    0    0  501  503 -0.00000000000E+00 -0.00000000000E+00 -0.20705633386E+03  0.20705633386E+03  0.00000000000E+00 0.  1.
    9000007    1    1    2  501    0 -0.77686188113E+01  0.26905384965E+02  0.35588105951E+02  0.40255529367E+03  0.40000000000E+03 0.  1.
   -9000007    1    1    2    0  502  0.77686188113E+01 -0.26905384965E+02  0.16816199018E+04  0.17287653818E+04  0.40000000000E+03 0.  1.
<mgrwt>
<rscale>  2 0.40097912E+03</rscale>
<asrwt>0</asrwt>
<pdfrwt beam="1">  1       21 0.29604066E+00 0.40097912E+03</pdfrwt>
<pdfrwt beam="2">  1       21 0.31854822E-01 0.40097912E+03</pdfrwt>
<totfact> 0.27737937E+02</totfact>
</mgrwt>
</event>
<event>
 4    1  0.4832791E-002  0.4046485E+03  0.7818608E-02  0.1042182E+00
         21   -1    0    0  503  502  0.00000000000E+00  0.00000000000E+00  0.71586465097E+03  0.71586465097E+03  0.00000000000E+00 0.  1.
         21   -1    0    0  501  503 -0.00000000000E+00 -0.00000000000E+00 -0.64282344685E+03  0.64282344685E+03  0.00000000000E+00 0.  1.
    9000007    1    1    2  501    0  0.61153696134E+02  0.81647241501E+00 -0.50872550373E+03  0.65003236791E+03  0.40000000000E+03 0.  1.
   -9000007    1    1    2    0  502 -0.61153696134E+02 -0.81647241501E+00  0.58176670786E+03  0.70865572992E+03  0.40000000000E+03 0.  1.
<mgrwt>
<rscale>  2 0.40464854E+03</rscale>
<asrwt>0</asrwt>
<pdfrwt beam="1">  1       21 0.11013302E+00 0.40464854E+03</pdfrwt>
<pdfrwt beam="2">  1       21 0.98895915E-01 0.40464854E+03</pdfrwt>
<totfact> 0.46837320E+02</totfact>
</mgrwt>
</event>
<event>
 4    1  0.4832791E-002  0.4338766E+03  0.7818608E-02  0.1032642E+00
         21   -1    0    0  501  502  0.00000000000E+00  0.00000000000E+00  0.85524831788E+03  0.85524831788E+03  0.00000000000E+00 0.  1.
         21   -1    0    0  502  503 -0.00000000000E+00 -0.00000000000E+00 -0.35455317022E+03  0.35455317022E+03  0.00000000000E+00 0. -1.
    9000007    1    1    2  501    0 -0.12943836670E+03 -0.10721280992E+03  0.62283574290E+03  0.75906076174E+03  0.40000000000E+03 0.  1.
   -9000007    1    1    2    0  503  0.12943836670E+03  0.10721280992E+03 -0.12214059524E+03  0.45074072635E+03  0.40000000000E+03 0. -1.
<mgrwt>
<rscale>  2 0.43387657E+03</rscale>
<asrwt>0</asrwt>
<pdfrwt beam="1">  1       21 0.13157666E+00 0.43387657E+03</pdfrwt>
<pdfrwt beam="2">  1       21 0.54546642E-01 0.43387657E+03</pdfrwt>
<totfact> 0.11382982E+03</totfact>
</mgrwt>
</event>
<event>
 4    1  0.4832791E-002  0.5071868E+03  0.7818608E-02  0.1011920E+00
         21   -1    0    0  501  502  0.00000000000E+00  0.00000000000E+00  0.16292792636E+03  0.16292792636E+03  0.00000000000E+00 0. -1.
         21   -1    0    0  502  503 -0.00000000000E+00 -0.00000000000E+00 -0.16839199814E+04  0.16839199814E+04  0.00000000000E+00 0. -1.
    9000007    1    1    2  501    0 -0.20695616078E+03 -0.23325441434E+03 -0.52983016866E+03  0.73345653035E+03  0.40000000000E+03 0. -1.
   -9000007    1    1    2    0  503  0.20695616078E+03  0.23325441434E+03 -0.99116188638E+03  0.11133913774E+04  0.40000000000E+03 0. -1.
<mgrwt>
<rscale>  2 0.50718682E+03</rscale>
<asrwt>0</asrwt>
<pdfrwt beam="1">  1       21 0.25065834E-01 0.50718682E+03</pdfrwt>
<pdfrwt beam="2">  1       21 0.25906462E+00 0.50718682E+03</pdfrwt>
<totfact> 0.70178965E+02</totfact>
</mgrwt>
</event>
<event>
 4    1  0.4832791E-002  0.4134921E+03  0.7818608E-02  0.1039205E+00
         21   -1    0    0  501  502  0.00000000000E+00  0.00000000000E+00  0.24893513235E+03  0.24893513235E+03  0.00000000000E+00 0.  1.
         21   -1    0    0  502  503 -0.00000000000E+00 -0.00000000000E+00 -0.69893583499E+03  0.69893583499E+03  0.00000000000E+00 0. -1.
    9000007    1    1    2  501    0  0.47085955877E+02 -0.93587431798E+02 -0.16262279233E+03  0.44432180592E+03  0.40000000000E+03 0.  1.
   -9000007    1    1    2    0  503 -0.47085955877E+02  0.93587431798E+02 -0.28737791032E+03  0.50354916142E+03  0.40000000000E+03 0. -1.
<mgrwt>
<rscale>  2 0.41349207E+03</rscale>
<asrwt>0</asrwt>
<pdfrwt beam="1">  1       21 0.38297713E-01 0.41349207E+03</pdfrwt>
<pdfrwt beam="2">  1       21 0.10752859E+00 0.41349207E+03</pdfrwt>
<totfact> 0.40149072E+03</totfact>
</mgrwt>
</event>
<event>
 4    1  0.4832791E-002  0.4062745E+03  0.7818608E-02  0.1041628E+00
         21   -1    0    0  501  502  0.00000000000E+00  0.00000000000E+00  0.15194933737E+03  0.15194933737E+03  0.00000000000E+00 0. -1.
         21   -1    0    0  502  503 -0.00000000000E+00 -0.00000000000E+00 -0.10916891361E+04  0.10916891361E+04  0.00000000000E+00 0. -1.
    9000007    1    1    2  501    0  0.51782037932E+02  0.48760139072E+02 -0.51365596323E+03  0.65490562616E+03  0.40000000000E+03 0. -1.
   -9000007    1    1    2    0  503 -0.51782037932E+02 -0.48760139072E+02 -0.42608383545E+03  0.58873284726E+03  0.40000000000E+03 0. -1.
<mgrwt>
<rscale>  2 0.40627445E+03</rscale>
<asrwt>0</asrwt>
<pdfrwt beam="1">  1       21 0.23376820E-01 0.40627445E+03</pdfrwt>
<pdfrwt beam="2">  1       21 0.16795218E+00 0.40627445E+03</pdfrwt>
<totfact> 0.33257928E+03</totfact>
</mgrwt>
</event>
<event>
 4    1  0.4832791E-002  0.4811518E+03  0.7818608E-02  0.1018819E+00
         21   -1    0    0  501  502  0.00000000000E+00  0.00000000000E+00  0.11522611051E+04  0.11522611051E+04  0.00000000000E+00 0. -1.
         21   -1    0    0  502  503 -0.00000000000E+00 -0.00000000000E+00 -0.22610750845E+03  0.22610750845E+03  0.00000000000E+00 0. -1.
    9000007    1    1    2  501    0  0.91623640917E+02 -0.25122126807E+03  0.69312032894E+03  0.84375518221E+03  0.40000000000E+03 0. -1.
   -9000007    1    1    2    0  503 -0.91623640917E+02  0.25122126807E+03  0.23303326768E+03  0.53461343132E+03  0.40000000000E+03 0. -1.
<mgrwt>
<rscale>  2 0.48115176E+03</rscale>
<asrwt>0</asrwt>
<pdfrwt beam="1">  1       21 0.17727094E+00 0.48115176E+03</pdfrwt>
<pdfrwt beam="2">  1       21 0.34785771E-01 0.48115176E+03</pdfrwt>
<totfact> 0.12597158E+03</totfact>
</mgrwt>
</event>
<event>
 4    1  0.4832791E-002  0.4459338E+03  0.7818608E-02  0.1028942E+00
         21   -1    0    0  503  502  0.00000000000E+00  0.00000000000E+00  0.12843151234E+04  0.12843151234E+04  0.00000000000E+00 0. -1.
         21   -1    0    0  501  503 -0.00000000000E+00 -0.00000000000E+00 -0.30727418644E+03  0.30727418644E+03  0.00000000000E+00 0.  1.
    9000007    1    1    2  501    0  0.19708181887E+03  0.39652974341E+01 -0.71993256835E+02  0.45170786571E+03  0.40000000000E+03 0.  1.
   -9000007    1    1    2    0  502 -0.19708181887E+03 -0.39652974341E+01  0.10490341938E+04  0.11398814441E+04  0.40000000000E+03 0. -1.
<mgrwt>
<rscale>  2 0.44593381E+03</rscale>
<asrwt>0</asrwt>
<pdfrwt beam="1">  1       21 0.19758694E+00 0.44593381E+03</pdfrwt>
<pdfrwt beam="2">  1       21 0.47272952E-01 0.44593381E+03</pdfrwt>
<totfact> 0.49164611E+02</totfact>
</mgrwt>
</event>
<event>
 4    1  0.4832791E-002  0.4485551E+03  0.7818608E-02  0.1028154E+00
         21   -1    0    0  501  502  0.00000000000E+00  0.00000000000E+00  0.95247869368E+03  0.95247869368E+03  0.00000000000E+00 0. -1.
         21   -1    0    0  502  503 -0.00000000000E+00 -0.00000000000E+00 -0.28184828447E+03  0.28184828447E+03  0.00000000000E+00 0.  1.
    9000007    1    1    2  501    0 -0.17018820546E+02  0.20226713643E+03  0.64421686528E+03  0.78499490715E+03  0.40000000000E+03 0. -1.
   -9000007    1    1    2    0  503  0.17018820546E+02 -0.20226713643E+03  0.26413543929E+02  0.44933207101E+03  0.40000000000E+03 0.  1.
<mgrwt>
<rscale>  2 0.44855505E+03</rscale>
<asrwt>0</asrwt>
<pdfrwt beam="1">  1       21 0.14653518E+00 0.44855505E+03</pdfrwt>
<pdfrwt beam="2">  1       21 0.43361275E-01 0.44855505E+03</pdfrwt>
<totfact> 0.13829651E+03</totfact>
</mgrwt>
</event>
<event>
 4    1  0.4832791E-002  0.4447590E+03  0.7818608E-02  0.1029297E+00
         21   -1    0    0  501  502  0.00000000000E+00  0.00000000000E+00  0.26958111879E+03  0.26958111879E+03  0.00000000000E+00 0.  1.
         21   -1    0    0  502  503 -0.00000000000E+00 -0.00000000000E+00 -0.21864635546E+04  0.21864635546E+04  0.00000000000E+00 0.  1.
    9000007    1    1    2  501    0 -0.14126726725E+03  0.13361920951E+03  0.42531295163E+02  0.44678791950E+03  0.40000000000E+03 0.  1.
   -9000007    1    1    2    0  503  0.14126726725E+03 -0.13361920951E+03 -0.19594137310E+04  0.20092567539E+04  0.40000000000E+03 0.  1.
<mgrwt>
<rscale>  2 0.44475896E+03</rscale>
<asrwt>0</asrwt>
<pdfrwt beam="1">  1       21 0.41474019E-01 0.44475896E+03</pdfrwt>
<pdfrwt beam="2">  1       21 0.33637900E+00 0.44475896E+03</pdfrwt>
<totfact> 0.90081090E+01</totfact>
</mgrwt>
</event>
<event>
 4    1  0.4832791E-002  0.4065687E+03  0.7818608E-02  0.1041529E+00
         21   -1    0    0  501  502  0.00000000000E+00  0.00000000000E+00  0.12890831568E+04  0.12890831568E+04  0.00000000000E+00 0. -1.
         21   -1    0    0  502  503 -0.00000000000E+00 -0.00000000000E+00 -0.16058591407E+03  0.16058591407E+03  0.00000000000E+00 0. -1.
    9000007    1    1    2  501    0  0.65272368430E+02 -0.32212480618E+02  0.23888631808E+03  0.47155572200E+03  0.40000000000E+03 0. -1.
   -9000007    1    1    2    0  503 -0.65272368430E+02  0.32212480618E+02  0.88961092466E+03  0.97811334888E+03  0.40000000000E+03 0. -1.
<mgrwt>
<rscale>  2 0.40656872E+03</rscale>
<asrwt>0</asrwt>
<pdfrwt beam="1">  1       21 0.19832048E+00 0.40656872E+03</pdfrwt>
<pdfrwt beam="2">  1       21 0.24705526E-01 0.40656872E+03</pdfrwt>
<totfact> 0.18362236E+03</totfact>
</mgrwt>
</event>
<event>
 4    1  0.4832791E-002  0.4194167E+03  0.7818608E-02  0.1037256E+00
         21   -1    0    0  501  502  0.00000000000E+00  0.00000000000E+00  0.62838665243E+03  0.62838665243E+03  0.00000000000E+00 0. -1.
         21   -1    0    0  502  503 -0.00000000000E+00 -0.00000000000E+00 -0.28026908601E+03  0.28026908601E+03  0.00000000000E+00 0. -1.
    9000007    1    1    2  501    0 -0.10780527348E+03 -0.65485678905E+02  0.18963475528E+03  0.46029522216E+03  0.40000000000E+03 0. -1.
   -9000007    1    1    2    0  503  0.10780527348E+03  0.65485678905E+02  0.15848281115E+03  0.44836051628E+03  0.40000000000E+03 0. -1.
<mgrwt>
<rscale>  2 0.41941668E+03</rscale>
<asrwt>0</asrwt>
<pdfrwt beam="1">  1       21 0.96674869E-01 0.41941668E+03</pdfrwt>
<pdfrwt beam="2">  1       21 0.43118321E-01 0.41941668E+03</pdfrwt>
<totfact> 0.40664380E+03</totfact>
</mgrwt>
</event>
<event>
 4    1  0.4832791E-002  0.4766091E+03  0.7818608E-02  0.1020071E+00
         21   -1    0    0  503  502  0.00000000000E+00  0.00000000000E+00  0.11352561619E+04  0.11352561619E+04  0.00000000000E+00 0. -1.
         21   -1    0    0  501  503 -0.00000000000E+00 -0.00000000000E+00 -0.40480391493E+03  0.40480391493E+03  0.00000000000E+00 0.  1.
    9000007    1    1    2  501    0  0.13553871002E+03 -0.22087432513E+03 -0.18236497160E+03  0.51030695888E+03  0.40000000000E+03 0.  1.
   -9000007    1    1    2    0  502 -0.13553871002E+03  0.22087432513E+03  0.91281721858E+03  0.10297531180E+04  0.40000000000E+03 0. -1.
<mgrwt>
<rscale>  2 0.47660907E+03</rscale>
<asrwt>0</asrwt>
<pdfrwt beam="1">  1       21 0.17465479E+00 0.47660907E+03</pdfrwt>
<pdfrwt beam="2">  1       21 0.62277526E-01 0.47660907E+03</pdfrwt>
<totfact> 0.38552827E+02</totfact>
</mgrwt>
</event>
<event>
 4    1  0.4832791E-002  0.4732319E+03  0.7818608E-02  0.1021012E+00
         21   -1    0    0  503  502  0.00000000000E+00  0.00000000000E+00  0.51387329661E+03  0.51387329661E+03  0.00000000000E+00 0.  1.
         21   -1    0    0  501  503 -0.00000000000E+00 -0.00000000000E+00 -0.96954554662E+03  0.96954554662E+03  0.00000000000E+00 0.  1.
    9000007    1    1    2  501    0  0.85143841043E+02 -0.23811533308E+03 -0.77815564499E+03  0.91075495790E+03  0.40000000000E+03 0.  1.
   -9000007    1    1    2    0  502 -0.85143841043E+02  0.23811533308E+03  0.32248339498E+03  0.57266388532E+03  0.40000000000E+03 0.  1.
<mgrwt>
<rscale>  2 0.47323185E+03</rscale>
<asrwt>0</asrwt>
<pdfrwt beam="1">  1       21 0.79057430E-01 0.47323185E+03</pdfrwt>
<pdfrwt beam="2">  1       21 0.14916085E+00 0.47323185E+03</pdfrwt>
<totfact> 0.35052988E+02</totfact>
</mgrwt>
</event>
<event>
 4    1  0.4832791E-002  0.4395666E+03  0.7818608E-02  0.1030880E+00
         21   -1    0    0  501  502  0.00000000000E+00  0.00000000000E+00  0.62114677698E+03  0.62114677698E+03  0.00000000000E+00 0.  1.
         21   -1    0    0  502  503 -0.00000000000E+00 -0.00000000000E+00 -0.49181366352E+03  0.49181366352E+03  0.00000000000E+00 0.  1.
    9000007    1    1    2  501    0 -0.65914138641E+02 -0.16992397889E+03  0.40201870768E+03  0.59568269540E+03  0.40000000000E+03 0.  1.
   -9000007    1    1    2    0  503  0.65914138641E+02  0.16992397889E+03 -0.27268559423E+03  0.51727774510E+03  0.40000000000E+03 0.  1.
<mgrwt>
<rscale>  2 0.43956664E+03</rscale>
<asrwt>0</asrwt>
<pdfrwt beam="1">  1       21 0.95561043E-01 0.43956664E+03</pdfrwt>
<pdfrwt beam="2">  1       21 0.75663640E-01 0.43956664E+03</pdfrwt>
<totfact> 0.12214381E+03</totfact>
</mgrwt>
</event>
<event>
 4    1  0.4832791E-002  0.4118877E+03  0.7818608E-02  0.1039739E+00
         21   -1    0    0  503  502  0.00000000000E+00  0.00000000000E+00  0.77284919652E+03  0.77284919652E+03  0.00000000000E+00 0.  1.
         21   -1    0    0  501  503 -0.00000000000E+00 -0.00000000000E+00 -0.32695798295E+03  0.32695798295E+03  0.00000000000E+00 0.  1.
    9000007    1    1    2  501    0 -0.69171292381E+02  0.69762423363E+02 -0.92286896867E+02  0.42209991085E+03  0.40000000000E+03 0.  1.
   -9000007    1    1    2    0  502  0.69171292381E+02 -0.69762423363E+02  0.53817811044E+03  0.67770726863E+03  0.40000000000E+03 0.  1.
<mgrwt>
<rscale>  2 0.41188768E+03</rscale>
<asrwt>0</asrwt>
<pdfrwt beam="1">  1       21 0.11889988E+00 0.41188768E+03</pdfrwt>
<pdfrwt beam="2">  1       21 0.50301228E-01 0.41188768E+03</pdfrwt>
<totfact> 0.17723921E+03</totfact>
</mgrwt>
</event>
<event>
 4    1  0.4832791E-002  0.4034996E+03  0.7818608E-02  0.1042575E+00
         21   -1    0    0  501  502  0.00000000000E+00  0.00000000000E+00  0.22266048959E+04  0.22266048959E+04  0.00000000000E+00 0. -1.
         21   -1    0    0  502  503 -0.00000000000E+00 -0.00000000000E+00 -0.18981661856E+03  0.18981661856E+03  0.00000000000E+00 0. -1.
    9000007    1    1    2  501    0  0.50907997979E+02  0.14842697486E+02  0.19657269112E+04  0.20067122911E+04  0.40000000000E+03 0. -1.
   -9000007    1    1    2    0  503 -0.50907997979E+02 -0.14842697486E+02  0.71061366134E+02  0.40970922333E+03  0.40000000000E+03 0. -1.
<mgrwt>
<rscale>  2 0.40349960E+03</rscale>
<asrwt>0</asrwt>
<pdfrwt beam="1">  1       21 0.34255458E+00 0.40349960E+03</pdfrwt>
<pdfrwt beam="2">  1       21 0.29202558E-01 0.40349960E+03</pdfrwt>
<totfact> 0.17281235E+02</totfact>
</mgrwt>
</event>
<event>
 4    1  0.4832791E-002  0.5524951E+03  0.7818608E-02  0.1000918E+00
         21   -1    0    0  501  502  0.00000000000E+00  0.00000000000E+00  0.64284862745E+03  0.64284862745E+03  0.00000000000E+00 0. -1.
         21   -1    0    0  502  503 -0.00000000000E+00 -0.00000000000E+00 -0.62906866840E+03  0.62906866840E+03  0.00000000000E+00 0.  1.
    9000007    1    1    2  501    0  0.17004304238E+03  0.34108091003E+03  0.32178161992E+03  0.63937018571E+03  0.40000000000E+03 0. -1.
   -9000007    1    1    2    0  503 -0.17004304238E+03 -0.34108091003E+03 -0.30800166088E+03  0.63254711015E+03  0.40000000000E+03 0.  1.
<mgrwt>
<rscale>  2 0.55249509E+03</rscale>
<asrwt>0</asrwt>
<pdfrwt beam="1">  1       21 0.98899789E-01 0.55249509E+03</pdfrwt>
<pdfrwt beam="2">  1       21 0.96779795E-01 0.55249509E+03</pdfrwt>
<totfact> 0.60402059E+02</totfact>
</mgrwt>
</event>
<event>
 4    1  0.4832791E-002  0.4065885E+03  0.7818608E-02  0.1041522E+00
         21   -1    0    0  501  502  0.00000000000E+00  0.00000000000E+00  0.60689656448E+03  0.60689656448E+03  0.00000000000E+00 0.  1.
         21   -1    0    0  502  503 -0.00000000000E+00 -0.00000000000E+00 -0.49774118159E+03  0.49774118159E+03  0.00000000000E+00 0.  1.
    9000007    1    1    2  501    0 -0.61220475871E+02  0.39576331888E+02  0.42621161685E+03  0.58904208258E+03  0.40000000000E+03 0.  1.
   -9000007    1    1    2    0  503  0.61220475871E+02 -0.39576331888E+02 -0.31705623396E+03  0.51559566349E+03  0.40000000000E+03 0.  1.
<mgrwt>
<rscale>  2 0.40658853E+03</rscale>
<asrwt>0</asrwt>
<pdfrwt beam="1">  1       21 0.93368702E-01 0.40658853E+03</pdfrwt>
<pdfrwt beam="2">  1       21 0.76575566E-01 0.40658853E+03</pdfrwt>
<totfact> 0.12740259E+03</totfact>
</mgrwt>
</event>
<event>
 4    1  0.4832791E-002  0.5333332E+03  0.7818608E-02  0.1005427E+00
         21   -1    0    0  501  502  0.00000000000E+00  0.00000000000E+00  0.38794065331E+03  0.38794065331E+03  0.00000000000E+00 0.  1.
         21   -1    0    0  502  503 -0.00000000000E+00 -0.00000000000E+00 -0.16105350784E+04  0.16105350784E+04  0.00000000000E+00 0.  1.
    9000007    1    1    2  501    0  0.18466900375E+03  0.30056882669E+03  0.12620375972E+03  0.54806172051E+03  0.40000000000E+03 0.  1.
   -9000007    1    1    2    0  503 -0.18466900375E+03 -0.30056882669E+03 -0.13487981848E+04  0.14504140112E+04  0.40000000000E+03 0.  1.
<mgrwt>
<rscale>  2 0.53333316E+03</rscale>
<asrwt>0</asrwt>
<pdfrwt beam="1">  1       21 0.59683178E-01 0.53333316E+03</pdfrwt>
<pdfrwt beam="2">  1       21 0.24777462E+00 0.53333316E+03</pdfrwt>
<totfact> 0.13594001E+02</totfact>
</mgrwt>
</event>
<event>
 4    1  0.4832791E-002  0.5646983E+03  0.7818608E-02  0.9981480E-01
         21   -1    0    0  503  502  0.00000000000E+00  0.00000000000E+00  0.18320252726E+04  0.18320252726E+04  0.00000000000E+00 0.  1.
         21   -1    0    0  501  503 -0.00000000000E+00 -0.00000000000E+00 -0.24935517170E+03  0.24935517170E+03  0.00000000000E+00 0.  1.
    9000007    1    1    2  501    0 -0.18417834549E+03  0.35350030341E+03  0.21947072985E+03  0.60584777685E+03  0.40000000000E+03 0.  1.
   -9000007    1    1    2    0  502  0.18417834549E+03 -0.35350030341E+03  0.13631993710E+04  0.14755326674E+04  0.40000000000E+03 0.  1.
<mgrwt>
<rscale>  2 0.56469826E+03</rscale>
<asrwt>0</asrwt>
<pdfrwt beam="1">  1       21 0.28185003E+00 0.56469826E+03</pdfrwt>
<pdfrwt beam="2">  1       21 0.38362335E-01 0.56469826E+03</pdfrwt>
<totfact> 0.21164681E+02</totfact>
</mgrwt>
</event>
<event>
 4    1  0.4832791E-002  0.5578936E+03  0.7818608E-02  0.9996832E-01
         21   -1    0    0  501  502  0.00000000000E+00  0.00000000000E+00  0.48693259589E+03  0.48693259589E+03  0.00000000000E+00 0.  1.
         21   -1    0    0  502  503 -0.00000000000E+00 -0.00000000000E+00 -0.13146000558E+04  0.13146000558E+04  0.00000000000E+00 0.  1.
    9000007    1    1    2  501    0  0.35374434544E+03  0.16158653675E+03  0.23181635873E+03  0.60413913544E+03  0.40000000000E+03 0.  1.
   -9000007    1    1    2    0  503 -0.35374434544E+03 -0.16158653675E+03 -0.10594838186E+04  0.11973935162E+04  0.40000000000E+03 0.  1.
<mgrwt>
<rscale>  2 0.55789360E+03</rscale>
<asrwt>0</asrwt>
<pdfrwt beam="1">  1       21 0.74912707E-01 0.55789360E+03</pdfrwt>
<pdfrwt beam="2">  1       21 0.20224616E+00 0.55789360E+03</pdfrwt>
<totfact> 0.15807891E+02</totfact>
</mgrwt>
</event>
<event>
 4    1  0.4832791E-002  0.4265750E+03  0.7818608E-02  0.1034947E+00
         21   -1    0    0  501  502  0.00000000000E+00  0.00000000000E+00  0.16106641583E+04  0.16106641583E+04  0.00000000000E+00 0.  1.
         21   -1    0    0  502  503 -0.00000000000E+00 -0.00000000000E+00 -0.22641474137E+03  0.22641474137E+03  0.00000000000E+00 0. -1.
    9000007    1    1    2  501    0 -0.46547004501E+02 -0.14071122183E+03  0.13422937835E+04  0.14084455520E+04  0.40000000000E+03 0.  1.
   -9000007    1    1    2    0  503  0.46547004501E+02  0.14071122183E+03  0.41955633392E+02  0.42863334769E+03  0.40000000000E+03 0. -1.
<mgrwt>
<rscale>  2 0.42657505E+03</rscale>
<asrwt>0</asrwt>
<pdfrwt beam="1">  1       21 0.24779448E+00 0.42657505E+03</pdfrwt>
<pdfrwt beam="2">  1       21 0.34833038E-01 0.42657505E+03</pdfrwt>
<totfact> 0.44615666E+02</totfact>
</mgrwt>
</event>
<event>
 4    1  0.4832791E-002  0.5165085E+03  0.7818608E-02  0.1009558E+00
         21   -1    0    0  501  502  0.00000000000E+00  0.00000000000E+00  0.29719057534E+03  0.29719057534E+03  0.00000000000E+00 0.  1.
         21   -1    0    0  502  503 -0.00000000000E+00 -0.00000000000E+00 -0.12350114509E+04  0.12350114509E+04  0.00000000000E+00 0. -1.
    9000007    1    1    2  501    0  0.25546015977E+03  0.20376728454E+03 -0.68522296518E+02  0.52103388047E+03  0.40000000000E+03 0.  1.
   -9000007    1    1    2    0  503 -0.25546015977E+03 -0.20376728454E+03 -0.86929857903E+03  0.10111681458E+04  0.40000000000E+03 0. -1.
<mgrwt>
<rscale>  2 0.51650847E+03</rscale>
<asrwt>0</asrwt>
<pdfrwt beam="1">  1       21 0.45721626E-01 0.51650847E+03</pdfrwt>
<pdfrwt beam="2">  1       21 0.19000176E+00 0.51650847E+03</pdfrwt>
<totfact> 0.57524978E+02</totfact>
</mgrwt>
</event>
<event>
 4    1  0.4832791E-002  0.4438171E+03  0.7818608E-02  0.1029582E+00
         21   -1    0    0  501  502  0.00000000000E+00  0.00000000000E+00  0.82757028686E+03  0.82757028686E+03  0.00000000000E+00 0. -1.
         21   -1    0    0  502  503 -0.00000000000E+00 -0.00000000000E+00 -0.40503683458E+03  0.40503683458E+03  0.00000000000E+00 0. -1.
    9000007    1    1    2  501    0  0.47405336268E+02  0.18635009834E+03  0.60702941993E+03  0.75196964149E+03  0.40000000000E+03 0. -1.
   -9000007    1    1    2    0  503 -0.47405336268E+02 -0.18635009834E+03 -0.18449596765E+03  0.48063747995E+03  0.40000000000E+03 0. -1.
<mgrwt>
<rscale>  2 0.44381711E+03</rscale>
<asrwt>0</asrwt>
<pdfrwt beam="1">  1       21 0.12731851E+00 0.44381711E+03</pdfrwt>
<pdfrwt beam="2">  1       21 0.62313359E-01 0.44381711E+03</pdfrwt>
<totfact> 0.92341569E+02</totfact>
</mgrwt>
</event>
<event>
 4    1  0.4832791E-002  0.4067642E+03  0.7818608E-02  0.1041462E+00
         21   -1    0    0  501  502  0.00000000000E+00  0.00000000000E+00  0.44953158574E+03  0.44953158574E+03  0.00000000000E+00 0.  1.
         21   -1    0    0  502  503 -0.00000000000E+00 -0.00000000000E+00 -0.83093029567E+03  0.83093029567E+03  0.00000000000E+00 0.  1.
    9000007    1    1    2  501    0 -0.41678728133E+02 -0.60991806157E+02  0.28713941756E+03  0.49790175930E+03  0.40000000000E+03 0.  1.
   -9000007    1    1    2    0  503  0.41678728133E+02  0.60991806157E+02 -0.66853812750E+03  0.78256012211E+03  0.40000000000E+03 0.  1.
<mgrwt>
<rscale>  2 0.40676420E+03</rscale>
<asrwt>0</asrwt>
<pdfrwt beam="1">  1       21 0.69158706E-01 0.40676420E+03</pdfrwt>
<pdfrwt beam="2">  1       21 0.12783543E+00 0.40676420E+03</pdfrwt>
<totfact> 0.73710686E+02</totfact>
</mgrwt>
</event>
<event>
 4    1  0.4832791E-002  0.6375197E+03  0.7818608E-02  0.9830483E-01
         21   -1    0    0  503  502  0.00000000000E+00  0.00000000000E+00  0.40154954142E+03  0.40154954142E+03  0.00000000000E+00 0. -1.
         21   -1    0    0  501  503 -0.00000000000E+00 -0.00000000000E+00 -0.15408606224E+04  0.15408606224E+04  0.00000000000E+00 0. -1.
    9000007    1    1    2  501    0 -0.37128369792E+03 -0.32951451866E+03 -0.11385545565E+04  0.13048899879E+04  0.40000000000E+03 0. -1.
   -9000007    1    1    2    0  502  0.37128369792E+03  0.32951451866E+03 -0.75652444837E+00  0.63752017590E+03  0.40000000000E+03 0. -1.
<mgrwt>
<rscale>  2 0.63751973E+03</rscale>
<asrwt>0</asrwt>
<pdfrwt beam="1">  1       21 0.61776852E-01 0.63751973E+03</pdfrwt>
<pdfrwt beam="2">  1       21 0.23705548E+00 0.63751973E+03</pdfrwt>
<totfact> 0.14045157E+02</totfact>
</mgrwt>
</event>
<event>
 4    1  0.4832791E-002  0.4160461E+03  0.7818608E-02  0.1038361E+00
         21   -1    0    0  503  502  0.00000000000E+00  0.00000000000E+00  0.20116886529E+03  0.20116886529E+03  0.00000000000E+00 0. -1.
         21   -1    0    0  501  503 -0.00000000000E+00 -0.00000000000E+00 -0.86328664343E+03  0.86328664343E+03  0.00000000000E+00 0. -1.
    9000007    1    1    2  501    0 -0.65509785235E+01  0.11424296116E+03 -0.30051339721E+03  0.51322769937E+03  0.40000000000E+03 0.  1.
   -9000007    1    1    2    0  502  0.65509785235E+01 -0.11424296116E+03 -0.36160438092E+03  0.55122780935E+03  0.40000000000E+03 0.  1.
<mgrwt>
<rscale>  2 0.41604611E+03</rscale>
<asrwt>0</asrwt>
<pdfrwt beam="1">  1       21 0.30949057E-01 0.41604611E+03</pdfrwt>
<pdfrwt beam="2">  1       21 0.13281333E+00 0.41604611E+03</pdfrwt>
<totfact> 0.36117376E+03</totfact>
</mgrwt>
</event>
<event>
 4    1  0.4832791E-002  0.5091994E+03  0.7818608E-02  0.1011405E+00
         21   -1    0    0  501  502  0.00000000000E+00  0.00000000000E+00  0.86316572790E+03  0.86316572790E+03  0.00000000000E+00 0.  1.
         21   -1    0    0  502  503 -0.00000000000E+00 -0.00000000000E+00 -0.54019923241E+03  0.54019923241E+03  0.00000000000E+00 0. -1.
    9000007    1    1    2  501    0  0.28512038153E+03 -0.13412827279E+03  0.62900200819E+03  0.80927594294E+03  0.40000000000E+03 0.  1.
   -9000007    1    1    2    0  503 -0.28512038153E+03  0.13412827279E+03 -0.30603551270E+03  0.59408901737E+03  0.40000000000E+03 0. -1.
<mgrwt>
<rscale>  2 0.50919940E+03</rscale>
<asrwt>0</asrwt>
<pdfrwt beam="1">  1       21 0.13279473E+00 0.50919940E+03</pdfrwt>
<pdfrwt beam="2">  1       21 0.83107574E-01 0.50919940E+03</pdfrwt>
<totfact> 0.41913245E+02</totfact>
</mgrwt>
</event>
<event>
 4    1  0.4832791E-002  0.5320228E+03  0.7818608E-02  0.1005743E+00
         21   -1    0    0  501  502  0.00000000000E+00  0.00000000000E+00  0.16674115595E+03  0.16674115595E+03  0.00000000000E+00 0.  1.
         21   -1    0    0  502  503 -0.00000000000E+00 -0.00000000000E+00 -0.22875412729E+04  0.22875412729E+04  0.00000000000E+00 0. -1.
    9000007    1    1    2  501    0  0.15562421770E+03  0.31437133012E+03 -0.43718208164E+03  0.68860467820E+03  0.40000000000E+03 0.  1.
   -9000007    1    1    2    0  503 -0.15562421770E+03 -0.31437133012E+03 -0.16836180353E+04  0.17656777507E+04  0.40000000000E+03 0. -1.
<mgrwt>
<rscale>  2 0.53202277E+03</rscale>
<asrwt>0</asrwt>
<pdfrwt beam="1">  1       21 0.25652487E-01 0.53202277E+03</pdfrwt>
<pdfrwt beam="2">  1       21 0.35192941E+00 0.53202277E+03</pdfrwt>
<totfact> 0.18023487E+02</totfact>
</mgrwt>
</event>
<event>
 4    1  0.4832791E-002  0.4297293E+03  0.7818608E-02  0.1033946E+00
         21   -1    0    0  501  502  0.00000000000E+00  0.00000000000E+00  0.11554126988E+04  0.11554126988E+04  0.00000000000E+00 0. -1.
         21   -1    0    0  502  503 -0.00000000000E+00 -0.00000000000E+00 -0.81994460543E+03  0.81994460543E+03  0.00000000000E+00 0. -1.
    9000007    1    1    2  501    0  0.11193685883E+03 -0.11016994700E+03  0.10539381283E+04  0.11381796237E+04  0.40000000000E+03 0. -1.
   -9000007    1    1    2    0  503 -0.11193685883E+03  0.11016994700E+03 -0.71847003494E+03  0.83717768048E+03  0.40000000000E+03 0. -1.
<mgrwt>
<rscale>  2 0.42972931E+03</rscale>
<asrwt>0</asrwt>
<pdfrwt beam="1">  1       21 0.17775580E+00 0.42972931E+03</pdfrwt>
<pdfrwt beam="2">  1       21 0.12614532E+00 0.42972931E+03</pdfrwt>
<totfact> 0.70463158E+01</totfact>
</mgrwt>
</event>
<event>
 4    1  0.4832791E-002  0.5126517E+03  0.7818608E-02  0.1010528E+00
         21   -1    0    0  501  502  0.00000000000E+00  0.00000000000E+00  0.30544046904E+03  0.30544046904E+03  0.00000000000E+00 0.  1.
         21   -1    0    0  502  503 -0.00000000000E+00 -0.00000000000E+00 -0.90152998707E+03  0.90152998707E+03  0.00000000000E+00 0. -1.
    9000007    1    1    2  501    0 -0.29579183890E+03 -0.12376995732E+03 -0.42689002991E+03  0.66711836426E+03  0.40000000000E+03 0. -1.
   -9000007    1    1    2    0  503  0.29579183890E+03  0.12376995732E+03 -0.16919948811E+03  0.53985209185E+03  0.40000000000E+03 0.  1.
<mgrwt>
<rscale>  2 0.51265175E+03</rscale>
<asrwt>0</asrwt>
<pdfrwt beam="1">  1       21 0.46990842E-01 0.51265175E+03</pdfrwt>
<pdfrwt beam="2">  1       21 0.13869692E+00 0.51265175E+03</pdfrwt>
<totfact> 0.13208658E+03</totfact>
</mgrwt>
</event>
<event>
 4    1  0.4832791E-002  0.4371323E+03  0.7818608E-02  0.1031630E+00
         21   -1    0    0  503  502  0.00000000000E+00  0.00000000000E+00  0.40380116778E+03  0.40380116778E+03  0.00000000000E+00 0.  1.
         21   -1    0    0  501  503 -0.00000000000E+00 -0.00000000000E+00 -0.17083309942E+04  0.17083309942E+04  0.00000000000E+00 0. -1.
    9000007    1    1    2  501    0  0.27647373586E+02 -0.17412709151E+03 -0.15502291106E+04  0.16106815068E+04  0.40000000000E+03 0. -1.
   -9000007    1    1    2    0  502 -0.27647373586E+02  0.17412709151E+03  0.24569928417E+03  0.50145065511E+03  0.40000000000E+03 0.  1.
<mgrwt>
<rscale>  2 0.43713227E+03</rscale>
<asrwt>0</asrwt>
<pdfrwt beam="1">  1       21 0.62123256E-01 0.43713227E+03</pdfrwt>
<pdfrwt beam="2">  1       21 0.26282016E+00 0.43713227E+03</pdfrwt>
<totfact> 0.10617008E+02</totfact>
</mgrwt>
</event>
<event>
 4    1  0.4832791E-002  0.4794519E+03  0.7818608E-02  0.1019286E+00
         21   -1    0    0  503  502  0.00000000000E+00  0.00000000000E+00  0.91253752573E+03  0.91253752573E+03  0.00000000000E+00 0. -1.
         21   -1    0    0  501  503 -0.00000000000E+00 -0.00000000000E+00 -0.29568210513E+03  0.29568210513E+03  0.00000000000E+00 0.  1.
    9000007    1    1    2  501    0  0.26085125902E+03  0.42786742592E+02  0.75982971982E+02  0.48543536821E+03  0.40000000000E+03 0. -1.
   -9000007    1    1    2    0  502 -0.26085125902E+03 -0.42786742592E+02  0.54087244861E+03  0.72278426265E+03  0.40000000000E+03 0.  1.
<mgrwt>
<rscale>  2 0.47945186E+03</rscale>
<asrwt>0</asrwt>
<pdfrwt beam="1">  1       21 0.14039039E+00 0.47945186E+03</pdfrwt>
<pdfrwt beam="2">  1       21 0.45489555E-01 0.47945186E+03</pdfrwt>
<totfact> 0.13862113E+03</totfact>
</mgrwt>
</event>
<event>
 4    1  0.4832791E-002  0.5039828E+03  0.7818608E-02  0.1012745E+00
         21   -1    0    0  501  502  0.00000000000E+00  0.00000000000E+00  0.14166083865E+04  0.14166083865E+04  0.00000000000E+00 0.  1.
         21   -1    0    0  502  503 -0.00000000000E+00 -0.00000000000E+00 -0.38731965852E+03  0.38731965852E+03  0.00000000000E+00 0.  1.
    9000007    1    1    2  501    0 -0.11313175311E+02 -0.30638325224E+03  0.11756513410E+04  0.12791226528E+04  0.40000000000E+03 0.  1.
   -9000007    1    1    2    0  503  0.11313175311E+02  0.30638325224E+03 -0.14636261308E+03  0.52480539221E+03  0.40000000000E+03 0.  1.
<mgrwt>
<rscale>  2 0.50398282E+03</rscale>
<asrwt>0</asrwt>
<pdfrwt beam="1">  1       21 0.21793975E+00 0.50398282E+03</pdfrwt>
<pdfrwt beam="2">  1       21 0.59587640E-01 0.50398282E+03</pdfrwt>
<totfact> 0.21346850E+02</totfact>
</mgrwt>
</event>
<event>
 4    1  0.4832791E-002  0.4744200E+03  0.7818608E-02  0.1020680E+00
         21   -1    0    0  501  502  0.00000000000E+00  0.00000000000E+00  0.13578983908E+04  0.13578983908E+04  0.00000000000E+00 0.  1.
         21   -1    0    0  502  503 -0.00000000000E+00 -0.00000000000E+00 -0.16704930214E+03  0.16704930214E+03  0.00000000000E+00 0.  1.
    9000007    1    1    2  501    0 -0.78995034167E+01  0.25497435864E+03  0.52823075295E+03  0.71000144654E+03  0.40000000000E+03 0.  1.
   -9000007    1    1    2    0  503  0.78995034167E+01 -0.25497435864E+03  0.66261833568E+03  0.81494624639E+03  0.40000000000E+03 0.  1.
<mgrwt>
<rscale>  2 0.47441999E+03</rscale>
<asrwt>0</asrwt>
<pdfrwt beam="1">  1       21 0.20890744E+00 0.47441999E+03</pdfrwt>
<pdfrwt beam="2">  1       21 0.25699894E-01 0.47441999E+03</pdfrwt>
<totfact> 0.14040263E+03</totfact>
</mgrwt>
</event>
<event>
 4    1  0.4832791E-002  0.4293562E+03  0.7818608E-02  0.1034064E+00
         21   -1    0    0  501  502  0.00000000000E+00  0.00000000000E+00  0.53194481454E+03  0.53194481454E+03  0.00000000000E+00 0. -1.
         21   -1    0    0  502  503 -0.00000000000E+00 -0.00000000000E+00 -0.62971396921E+03  0.62971396921E+03  0.00000000000E+00 0.  1.
    9000007    1    1    2  501    0  0.70911923707E+02 -0.13899011717E+03  0.34060341601E+03  0.54804875750E+03  0.40000000000E+03 0. -1.
   -9000007    1    1    2    0  503 -0.70911923707E+02  0.13899011717E+03 -0.43837257068E+03  0.61361002626E+03  0.40000000000E+03 0.  1.
<mgrwt>
<rscale>  2 0.42935621E+03</rscale>
<asrwt>0</asrwt>
<pdfrwt beam="1">  1       21 0.81837664E-01 0.42935621E+03</pdfrwt>
<pdfrwt beam="2">  1       21 0.96879072E-01 0.42935621E+03</pdfrwt>
<totfact> 0.99100408E+02</totfact>
</mgrwt>
</event>
<event>
 4    1  0.4832791E-002  0.4023742E+03  0.7818608E-02  0.1042961E+00
         21   -1    0    0  501  502  0.00000000000E+00  0.00000000000E+00  0.10194212187E+04  0.10194212187E+04  0.00000000000E+00 0. -1.
         21   -1    0    0  502  503 -0.00000000000E+00 -0.00000000000E+00 -0.21199890794E+03  0.21199890794E+03  0.00000000000E+00 0. -1.
    9000007    1    1    2  501    0 -0.30362753201E+02  0.31354731138E+02  0.71208461444E+03  0.81790556549E+03  0.40000000000E+03 0. -1.
   -9000007    1    1    2    0  503  0.30362753201E+02 -0.31354731138E+02  0.95337696336E+02  0.41351456116E+03  0.40000000000E+03 0. -1.
<mgrwt>
<rscale>  2 0.40237422E+03</rscale>
<asrwt>0</asrwt>
<pdfrwt beam="1">  1       21 0.15683403E+00 0.40237422E+03</pdfrwt>
<pdfrwt beam="2">  1       21 0.32615217E-01 0.40237422E+03</pdfrwt>
<totfact> 0.20969504E+03</totfact>
</mgrwt>
</event>
<event>
 4    1  0.4832791E-002  0.5006068E+03  0.7818608E-02  0.1013621E+00
         21   -1    0    0  501  502  0.00000000000E+00  0.00000000000E+00  0.62688845371E+03  0.62688845371E+03  0.00000000000E+00 0.  1.
         21   -1    0    0  502  503 -0.00000000000E+00 -0.00000000000E+00 -0.40311104721E+03  0.40311104721E+03  0.00000000000E+00 0.  1.
    9000007    1    1    2  501    0 -0.17711838061E+03 -0.24338505586E+03  0.15881857338E+03  0.52519572106E+03  0.40000000000E+03 0.  1.
   -9000007    1    1    2    0  503  0.17711838061E+03  0.24338505586E+03  0.64958833123E+02  0.50480377987E+03  0.40000000000E+03 0.  1.
<mgrwt>
<rscale>  2 0.50060684E+03</rscale>
<asrwt>0</asrwt>
<pdfrwt beam="1">  1       21 0.96444378E-01 0.50060684E+03</pdfrwt>
<pdfrwt beam="2">  1       21 0.62017084E-01 0.50060684E+03</pdfrwt>
<totfact> 0.18250726E+03</totfact>
</mgrwt>
</event>
<event>
 4    1  0.4832791E-002  0.4649346E+03  0.7818608E-02  0.1023360E+00
         21   -1    0    0  501  502  0.00000000000E+00  0.00000000000E+00  0.10625285418E+04  0.10625285418E+04  0.00000000000E+00 0.  1.
         21   -1    0    0  502  503 -0.00000000000E+00 -0.00000000000E+00 -0.45879843425E+03  0.45879843425E+03  0.00000000000E+00 0.  1.
    9000007    1    1    2  501    0 -0.17092831915E+03 -0.16415741665E+03  0.86934959616E+03  0.98586655693E+03  0.40000000000E+03 0.  1.
   -9000007    1    1    2    0  503  0.17092831915E+03  0.16415741665E+03 -0.26561948859E+03  0.53546041913E+03  0.40000000000E+03 0.  1.
<mgrwt>
<rscale>  2 0.46493456E+03</rscale>
<asrwt>0</asrwt>
<pdfrwt beam="1">  1       21 0.16346593E+00 0.46493456E+03</pdfrwt>
<pdfrwt beam="2">  1       21 0.70584375E-01 0.46493456E+03</pdfrwt>
<totfact> 0.35390622E+02</totfact>
</mgrwt>
</event>
<event>
 4    1  0.4832791E-002  0.4085452E+03  0.7818608E-02  0.1040860E+00
         21   -1    0    0  501  502  0.00000000000E+00  0.00000000000E+00  0.20184479077E+03  0.20184479077E+03  0.00000000000E+00 0. -1.
         21   -1    0    0  502  503 -0.00000000000E+00 -0.00000000000E+00 -0.13796406229E+04  0.13796406229E+04  0.00000000000E+00 0. -1.
    9000007    1    1    2  501    0 -0.23299555618E+02  0.79789192408E+02 -0.88396113476E+02  0.41799887248E+03  0.40000000000E+03 0. -1.
   -9000007    1    1    2    0  503  0.23299555618E+02 -0.79789192408E+02 -0.10893997186E+04  0.11634865412E+04  0.40000000000E+03 0. -1.
<mgrwt>
<rscale>  2 0.40854520E+03</rscale>
<asrwt>0</asrwt>
<pdfrwt beam="1">  1       21 0.31053044E-01 0.40854520E+03</pdfrwt>
<pdfrwt beam="2">  1       21 0.21225241E+00 0.40854520E+03</pdfrwt>
<totfact> 0.94837277E+02</totfact>
</mgrwt>
</event>
<event>
 4    1  0.4832791E-002  0.6042033E+03  0.7818608E-02  0.9896724E-01
         21   -1    0    0  501  502  0.00000000000E+00  0.00000000000E+00  0.93319008049E+03  0.93319008049E+03  0.00000000000E+00 0. -1.
         21   -1    0    0  502  503 -0.00000000000E+00 -0.00000000000E+00 -0.43464105292E+03  0.43464105292E+03  0.00000000000E+00 0.  1.
    9000007    1    1    2  501    0 -0.27393620649E+03 -0.36058364530E+03  0.46549650902E+03  0.76272446558E+03  0.40000000000E+03 0. -1.
   -9000007    1    1    2    0  503  0.27393620649E+03  0.36058364530E+03  0.33052518548E+02  0.60510666784E+03  0.40000000000E+03 0.  1.
<mgrwt>
<rscale>  2 0.60420329E+03</rscale>
<asrwt>0</asrwt>
<pdfrwt beam="1">  1       21 0.14356770E+00 0.60420329E+03</pdfrwt>
<pdfrwt beam="2">  1       21 0.66867855E-01 0.60420329E+03</pdfrwt>
<totfact> 0.54106530E+02</totfact>
</mgrwt>
</event>
<event>
 4    1  0.4832791E-002  0.4015196E+03  0.7818608E-02  0.1043255E+00
         21   -1    0    0  503  502  0.00000000000E+00  0.00000000000E+00  0.11420090978E+04  0.11420090978E+04  0.00000000000E+00 0.  1.
         21   -1    0    0  501  503 -0.00000000000E+00 -0.00000000000E+00 -0.18361420270E+03  0.18361420270E+03  0.00000000000E+00 0.  1.
    9000007    1    1    2  501    0  0.87167972024E+01 -0.33793542307E+02  0.16052561976E+03  0.43241931115E+03  0.40000000000E+03 0.  1.
   -9000007    1    1    2    0  502 -0.87167972024E+01  0.33793542307E+02  0.79786927532E+03  0.89320398933E+03  0.40000000000E+03 0.  1.
<mgrwt>
<rscale>  2 0.40151960E+03</rscale>
<asrwt>0</asrwt>
<pdfrwt beam="1">  1       21 0.17569370E+00 0.40151960E+03</pdfrwt>
<pdfrwt beam="2">  1       21 0.28248340E-01 0.40151960E+03</pdfrwt>
<totfact> 0.20274816E+03</totfact>
</mgrwt>
</event>
<event>
 4    1  0.4832791E-002  0.4182675E+03  0.7818608E-02  0.1037632E+00
         21   -1    0    0  503  502  0.00000000000E+00  0.00000000000E+00  0.11997406360E+04  0.11997406360E+04  0.00000000000E+00 0. -1.
         21   -1    0    0  501  503 -0.00000000000E+00 -0.00000000000E+00 -0.38740177568E+03  0.38740177568E+03  0.00000000000E+00 0. -1.
    9000007    1    1    2  501    0  0.11466316071E+03  0.42427446984E+02 -0.22049641005E+03  0.47282808242E+03  0.40000000000E+03 0. -1.
   -9000007    1    1    2    0  502 -0.11466316071E+03 -0.42427446984E+02  0.10328352703E+04  0.11143143292E+04  0.40000000000E+03 0. -1.
<mgrwt>
<rscale>  2 0.41826753E+03</rscale>
<asrwt>0</asrwt>
<pdfrwt beam="1">  1       21 0.18457548E+00 0.41826753E+03</pdfrwt>
<pdfrwt beam="2">  1       21 0.59600274E-01 0.41826753E+03</pdfrwt>
<totfact> 0.37199226E+02</totfact>
</mgrwt>
</event>
<event>
 4    1  0.4832791E-002  0.4180529E+03  0.7818608E-02  0.1037702E+00
         21   -1    0    0  503  502  0.00000000000E+00  0.00000000000E+00  0.48663109571E+03  0.48663109571E+03  0.00000000000E+00 0. -1.
         21   -1    0    0  501  503 -0.00000000000E+00 -0.00000000000E+00 -0.36083105945E+03  0.36083105945E+03  0.00000000000E+00 0.  1.
    9000007    1    1    2  501    0  0.12032286187E+02  0.12092763014E+03  0.33884544025E+02  0.41942392631E+03  0.40000000000E+03 0.  1.
   -9000007    1    1    2    0  502 -0.12032286187E+02 -0.12092763014E+03  0.91915492237E+02  0.42803822885E+03  0.40000000000E+03 0.  1.
<mgrwt>
<rscale>  2 0.41805295E+03</rscale>
<asrwt>0</asrwt>
<pdfrwt beam="1">  1       21 0.74866322E-01 0.41805295E+03</pdfrwt>
<pdfrwt beam="2">  1       21 0.55512471E-01 0.41805295E+03</pdfrwt>
<totfact> 0.43304760E+03</totfact>
</mgrwt>
</event>
<event>
 4    1  0.4832791E-002  0.4061681E+03  0.7818608E-02  0.1041665E+00
         21   -1    0    0  503  502  0.00000000000E+00  0.00000000000E+00  0.96766311865E+02  0.96766311865E+02  0.00000000000E+00 0. -1.
         21   -1    0    0  501  503 -0.00000000000E+00 -0.00000000000E+00 -0.17050441209E+04  0.17050441209E+04  0.00000000000E+00 0. -1.
    9000007    1    1    2  501    0  0.64255710792E+02  0.29047186412E+02 -0.81362580161E+03  0.90937312499E+03  0.40000000000E+03 0. -1.
   -9000007    1    1    2    0  502 -0.64255710792E+02 -0.29047186412E+02 -0.79465200744E+03  0.89243730779E+03  0.40000000000E+03 0. -1.
<mgrwt>
<rscale>  2 0.40616811E+03</rscale>
<asrwt>0</asrwt>
<pdfrwt beam="1">  1       21 0.14887126E-01 0.40616811E+03</pdfrwt>
<pdfrwt beam="2">  1       21 0.26231446E+00 0.40616811E+03</pdfrwt>
<totfact> 0.18950223E+03</totfact>
</mgrwt>
</event>
<event>
 4    1  0.4832791E-002  0.4078581E+03  0.7818608E-02  0.1041092E+00
         21   -1    0    0  503  502  0.00000000000E+00  0.00000000000E+00  0.60786898308E+03  0.60786898308E+03  0.00000000000E+00 0.  1.
         21   -1    0    0  501  503 -0.00000000000E+00 -0.00000000000E+00 -0.36238241921E+03  0.36238241921E+03  0.00000000000E+00 0.  1.
    9000007    1    1    2  501    0  0.45077830301E+02 -0.65697733010E+02 -0.11730153620E+03  0.42439115601E+03  0.40000000000E+03 0.  1.
   -9000007    1    1    2    0  502 -0.45077830301E+02  0.65697733010E+02  0.36278810008E+03  0.54586024628E+03  0.40000000000E+03 0.  1.
<mgrwt>
<rscale>  2 0.40785807E+03</rscale>
<asrwt>0</asrwt>
<pdfrwt beam="1">  1       21 0.93518305E-01 0.40785807E+03</pdfrwt>
<pdfrwt beam="2">  1       21 0.55751141E-01 0.40785807E+03</pdfrwt>
<totfact> 0.25663090E+03</totfact>
</mgrwt>
</event>
<event>
 4    1  0.4832791E-002  0.4358665E+03  0.7818608E-02  0.1032023E+00
         21   -1    0    0  501  502  0.00000000000E+00  0.00000000000E+00  0.60416359697E+03  0.60416359697E+03  0.00000000000E+00 0. -1.
         21   -1    0    0  502  503 -0.00000000000E+00 -0.00000000000E+00 -0.82035683362E+03  0.82035683362E+03  0.00000000000E+00 0. -1.
    9000007    1    1    2  501    0 -0.33017686153E+02 -0.16996883256E+03  0.45123880689E+03  0.62737232365E+03  0.40000000000E+03 0. -1.
   -9000007    1    1    2    0  503  0.33017686153E+02  0.16996883256E+03 -0.66743204354E+03  0.79714810693E+03  0.40000000000E+03 0. -1.
<mgrwt>
<rscale>  2 0.43586646E+03</rscale>
<asrwt>0</asrwt>
<pdfrwt beam="1">  1       21 0.92948246E-01 0.43586646E+03</pdfrwt>
<pdfrwt beam="2">  1       21 0.12620874E+00 0.43586646E+03</pdfrwt>
<totfact> 0.37952561E+02</totfact>
</mgrwt>
</event>
<event>
 4    1  0.4832791E-002  0.5444030E+03  0.7818608E-02  0.1002798E+00
         21   -1    0    0  501  502  0.00000000000E+00  0.00000000000E+00  0.32556903943E+03  0.32556903943E+03  0.00000000000E+00 0.  1.
         21   -1    0    0  502  503 -0.00000000000E+00 -0.00000000000E+00 -0.92153188644E+03  0.92153188644E+03  0.00000000000E+00 0. -1.
    9000007    1    1    2  501    0  0.13297247798E+03  0.34451848034E+03 -0.36673538950E+03  0.65640651208E+03  0.40000000000E+03 0.  1.
   -9000007    1    1    2    0  503 -0.13297247798E+03 -0.34451848034E+03 -0.22922745751E+03  0.59069441378E+03  0.40000000000E+03 0. -1.
<mgrwt>
<rscale>  2 0.54440303E+03</rscale>
<asrwt>0</asrwt>
<pdfrwt beam="1">  1       21 0.50087545E-01 0.54440303E+03</pdfrwt>
<pdfrwt beam="2">  1       21 0.14177413E+00 0.54440303E+03</pdfrwt>
<totfact> 0.10755833E+03</totfact>
</mgrwt>
</event>
<event>
 4    1  0.4832791E-002  0.4153495E+03  0.7818608E-02  0.1038591E+00
         21   -1    0    0  503  502  0.00000000000E+00  0.00000000000E+00  0.13417736399E+03  0.13417736399E+03  0.00000000000E+00 0.  1.
         21   -1    0    0  501  503 -0.00000000000E+00 -0.00000000000E+00 -0.12916642517E+04  0.12916642517E+04  0.00000000000E+00 0.  1.
    9000007    1    1    2  501    0 -0.71995240281E+02  0.85626508294E+02 -0.53040125855E+03  0.67367700615E+03  0.40000000000E+03 0. -1.
   -9000007    1    1    2    0  502  0.71995240281E+02 -0.85626508294E+02 -0.62708562916E+03  0.75216460954E+03  0.40000000000E+03 0. -1.
<mgrwt>
<rscale>  2 0.41534951E+03</rscale>
<asrwt>0</asrwt>
<pdfrwt beam="1">  1       21 0.20642671E-01 0.41534951E+03</pdfrwt>
<pdfrwt beam="2">  1       21 0.19871758E+00 0.41534951E+03</pdfrwt>
<totfact> 0.25675073E+03</totfact>
</mgrwt>
</event>
<event>
 4    1  0.4832791E-002  0.8452642E+03  0.7818608E-02  0.9496715E-01
         21   -1    0    0  503  502  0.00000000000E+00  0.00000000000E+00  0.38441211064E+03  0.38441211064E+03  0.00000000000E+00 0. -1.
         21   -1    0    0  501  503 -0.00000000000E+00 -0.00000000000E+00 -0.18750411611E+04  0.18750411611E+04  0.00000000000E+00 0.  1.
    9000007    1    1    2  501    0  0.41926626021E+03  0.61537579620E+03 -0.63955400142E+03  0.10599532481E+04  0.40000000000E+03 0.  1.
   -9000007    1    1    2    0  502 -0.41926626021E+03 -0.61537579620E+03 -0.85107504899E+03  0.11995000236E+04  0.40000000000E+03 0. -1.
<mgrwt>
<rscale>  2 0.84526420E+03</rscale>
<asrwt>0</asrwt>
<pdfrwt beam="1">  1       21 0.59140325E-01 0.84526420E+03</pdfrwt>
<pdfrwt beam="2">  1       21 0.28846787E+00 0.84526420E+03</pdfrwt>
<totfact> 0.68740936E+01</totfact>
</mgrwt>
</event>
<event>
 4    1  0.4832791E-002  0.4168290E+03  0.7818608E-02  0.1038103E+00
         21   -1    0    0  501  502  0.00000000000E+00  0.00000000000E+00  0.91582476203E+02  0.91582476203E+02  0.00000000000E+00 0.  1.
         21   -1    0    0  502  503 -0.00000000000E+00 -0.00000000000E+00 -0.19741392419E+04  0.19741392419E+04  0.00000000000E+00 0.  1.
    9000007    1    1    2  501    0 -0.64785784540E+02  0.97720169720E+02 -0.73731823310E+03  0.84698559983E+03  0.40000000000E+03 0.  1.
   -9000007    1    1    2    0  503  0.64785784540E+02 -0.97720169720E+02 -0.11452385326E+04  0.12187361183E+04  0.40000000000E+03 0.  1.
<mgrwt>
<rscale>  2 0.41682902E+03</rscale>
<asrwt>0</asrwt>
<pdfrwt beam="1">  1       21 0.14089613E-01 0.41682902E+03</pdfrwt>
<pdfrwt beam="2">  1       21 0.30371371E+00 0.41682902E+03</pdfrwt>
<totfact> 0.11763813E+03</totfact>
</mgrwt>
</event>
<event>
 4    1  0.4832791E-002  0.7168931E+03  0.7818608E-02  0.9688771E-01
         21   -1    0    0  501  502  0.00000000000E+00  0.00000000000E+00  0.78260759449E+03  0.78260759449E+03  0.00000000000E+00 0.  1.
         21   -1    0    0  502  503 -0.00000000000E+00 -0.00000000000E+00 -0.69470552464E+03  0.69470552464E+03  0.00000000000E+00 0.  1.
    9000007    1    1    2  501    0  0.52317425196E+03 -0.28323904203E+03  0.21672792681E+03  0.74893701144E+03  0.40000000000E+03 0.  1.
   -9000007    1    1    2    0  503 -0.52317425196E+03  0.28323904203E+03 -0.12882585696E+03  0.72837610770E+03  0.40000000000E+03 0.  1.
<mgrwt>
<rscale>  2 0.71689306E+03</rscale>
<asrwt>0</asrwt>
<pdfrwt beam="1">  1       21 0.12040117E+00 0.71689306E+03</pdfrwt>
<pdfrwt beam="2">  1       21 0.10687777E+00 0.71689306E+03</pdfrwt>
<totfact> 0.27429612E+02</totfact>
</mgrwt>
</event>
<event>
 4    1  0.4832791E-002  0.5104989E+03  0.7818608E-02  0.1011074E+00
         21   -1    0    0  503  502  0.00000000000E+00  0.00000000000E+00  0.11797139731E+04  0.11797139731E+04  0.00000000000E+00 0. -1.
         21   -1    0    0  501  503 -0.00000000000E+00 -0.00000000000E+00 -0.35556692587E+03  0.35556692587E+03  0.00000000000E+00 0. -1.
    9000007    1    1    2  501    0  0.29825439241E+03 -0.10795114258E+03 -0.60330454539E+02  0.51405145221E+03  0.40000000000E+03 0. -1.
   -9000007    1    1    2    0  502 -0.29825439241E+03  0.10795114258E+03  0.88447750177E+03  0.10212294468E+04  0.40000000000E+03 0. -1.
<mgrwt>
<rscale>  2 0.51049890E+03</rscale>
<asrwt>0</asrwt>
<pdfrwt beam="1">  1       21 0.18149446E+00 0.51049890E+03</pdfrwt>
<pdfrwt beam="2">  1       21 0.54702605E-01 0.51049890E+03</pdfrwt>
<totfact> 0.45077082E+02</totfact>
</mgrwt>
</event>
<event>
 4    1  0.4832791E-002  0.4244572E+03  0.7818608E-02  0.1035625E+00
         21   -1    0    0  501  502  0.00000000000E+00  0.00000000000E+00  0.65958073832E+03  0.65958073832E+03  0.00000000000E+00 0. -1.
         21   -1    0    0  502  503 -0.00000000000E+00 -0.00000000000E+00 -0.34335774164E+03  0.34335774164E+03  0.00000000000E+00 0. -1.
    9000007    1    1    2  501    0  0.90322930839E+00  0.14199683379E+03 -0.68648274855E+02  0.42997267619E+03  0.40000000000E+03 0. -1.
   -9000007    1    1    2    0  503 -0.90322930839E+00 -0.14199683379E+03  0.38487127154E+03  0.57296580377E+03  0.40000000000E+03 0. -1.
<mgrwt>
<rscale>  2 0.42445720E+03</rscale>
<asrwt>0</asrwt>
<pdfrwt beam="1">  1       21 0.10147396E+00 0.42445720E+03</pdfrwt>
<pdfrwt beam="2">  1       21 0.52824268E-01 0.42445720E+03</pdfrwt>
<totfact> 0.23520187E+03</totfact>
</mgrwt>
</event>
<event>
 4    1  0.4832791E-002  0.5024462E+03  0.7818608E-02  0.1013142E+00
         21   -1    0    0  503  502  0.00000000000E+00  0.00000000000E+00  0.98211284446E+03  0.98211284446E+03  0.00000000000E+00 0.  1.
         21   -1    0    0  501  503 -0.00000000000E+00 -0.00000000000E+00 -0.39055996427E+03  0.39055996427E+03  0.00000000000E+00 0. -1.
    9000007    1    1    2  501    0  0.27365107495E+03  0.13254174802E+03 -0.10550568669E+03  0.51340400827E+03  0.40000000000E+03 0. -1.
   -9000007    1    1    2    0  502 -0.27365107495E+03 -0.13254174802E+03  0.69705856688E+03  0.85926880046E+03  0.40000000000E+03 0.  1.
<mgrwt>
<rscale>  2 0.50244624E+03</rscale>
<asrwt>0</asrwt>
<pdfrwt beam="1">  1       21 0.15109428E+00 0.50244624E+03</pdfrwt>
<pdfrwt beam="2">  1       21 0.60086149E-01 0.50244624E+03</pdfrwt>
<totfact> 0.61979197E+02</totfact>
</mgrwt>
</event>
<event>
 4    1  0.4832791E-002  0.5977068E+03  0.7818608E-02  0.9910175E-01
         21   -1    0    0  503  502  0.00000000000E+00  0.00000000000E+00  0.18941902643E+04  0.18941902643E+04  0.00000000000E+00 0.  1.
         21   -1    0    0  501  503 -0.00000000000E+00 -0.00000000000E+00 -0.21202375096E+03  0.21202375096E+03  0.00000000000E+00 0. -1.
    9000007    1    1    2  501    0  0.43363537887E+03 -0.95988464528E+02  0.11910797669E+04  0.13326381498E+04  0.40000000000E+03 0.  1.
   -9000007    1    1    2    0  502 -0.43363537887E+03  0.95988464528E+02  0.49108674649E+03  0.77357586552E+03  0.40000000000E+03 0. -1.
<mgrwt>
<rscale>  2 0.59770681E+03</rscale>
<asrwt>0</asrwt>
<pdfrwt beam="1">  1       21 0.29141388E+00 0.59770681E+03</pdfrwt>
<pdfrwt beam="2">  1       21 0.32619040E-01 0.59770681E+03</pdfrwt>
<totfact> 0.25371468E+02</totfact>
</mgrwt>
</event>
<event>
 4    1  0.4832791E-002  0.5178095E+03  0.7818608E-02  0.1009232E+00
         21   -1    0    0  501  502  0.00000000000E+00  0.00000000000E+00  0.62052387554E+03  0.62052387554E+03  0.00000000000E+00 0. -1.
         21   -1    0    0  502  503 -0.00000000000E+00 -0.00000000000E+00 -0.47388877287E+03  0.47388877287E+03  0.00000000000E+00 0.  1.
    9000007    1    1    2  501    0 -0.29071145424E+03  0.15366682497E+03  0.23581896476E+03  0.56897910934E+03  0.40000000000E+03 0. -1.
   -9000007    1    1    2    0  503  0.29071145424E+03 -0.15366682497E+03 -0.89183862095E+02  0.52543353907E+03  0.40000000000E+03 0.  1.
<mgrwt>
<rscale>  2 0.51780947E+03</rscale>
<asrwt>0</asrwt>
<pdfrwt beam="1">  1       21 0.95465211E-01 0.51780947E+03</pdfrwt>
<pdfrwt beam="2">  1       21 0.72905965E-01 0.51780947E+03</pdfrwt>
<totfact> 0.12939362E+03</totfact>
</mgrwt>
</event>
<event>
 4    1  0.4832791E-002  0.4844274E+03  0.7818608E-02  0.1017925E+00
         21   -1    0    0  503  502  0.00000000000E+00  0.00000000000E+00  0.43830203806E+03  0.43830203806E+03  0.00000000000E+00 0. -1.
         21   -1    0    0  501  503 -0.00000000000E+00 -0.00000000000E+00 -0.65708543087E+03  0.65708543087E+03  0.00000000000E+00 0.  1.
    9000007    1    1    2  501    0 -0.40986302276E+02  0.27016674463E+03  0.12629430371E+03  0.50061981386E+03  0.40000000000E+03 0. -1.
   -9000007    1    1    2    0  502  0.40986302276E+02 -0.27016674463E+03 -0.34507769653E+03  0.59476765507E+03  0.40000000000E+03 0.  1.
<mgrwt>
<rscale>  2 0.48442744E+03</rscale>
<asrwt>0</asrwt>
<pdfrwt beam="1">  1       21 0.67431083E-01 0.48442744E+03</pdfrwt>
<pdfrwt beam="2">  1       21 0.10109007E+00 0.48442744E+03</pdfrwt>
<totfact> 0.13593080E+03</totfact>
</mgrwt>
</event>
<event>
 4    1  0.4832791E-002  0.4493885E+03  0.7818608E-02  0.1027905E+00
         21   -1    0    0  503  502  0.00000000000E+00  0.00000000000E+00  0.35103723645E+03  0.35103723645E+03  0.00000000000E+00 0.  1.
         21   -1    0    0  501  503 -0.00000000000E+00 -0.00000000000E+00 -0.10904340438E+04  0.10904340438E+04  0.00000000000E+00 0.  1.
    9000007    1    1    2  501    0 -0.28436795934E+02 -0.20283345154E+03 -0.86507834673E+03  0.97483875918E+03  0.40000000000E+03 0.  1.
   -9000007    1    1    2    0  502  0.28436795934E+02  0.20283345154E+03  0.12568153933E+03  0.46663252111E+03  0.40000000000E+03 0.  1.
<mgrwt>
<rscale>  2 0.44938854E+03</rscale>
<asrwt>0</asrwt>
<pdfrwt beam="1">  1       21 0.54005730E-01 0.44938854E+03</pdfrwt>
<pdfrwt beam="2">  1       21 0.16775908E+00 0.44938854E+03</pdfrwt>
<totfact> 0.59772710E+02</totfact>
</mgrwt>
</event>
<event>
 4    1  0.4832791E-002  0.5116831E+03  0.7818608E-02  0.1010774E+00
         21   -1    0    0  501  502  0.00000000000E+00  0.00000000000E+00  0.12618404205E+03  0.12618404205E+03  0.00000000000E+00 0.  1.
         21   -1    0    0  502  503 -0.00000000000E+00 -0.00000000000E+00 -0.20933083288E+04  0.20933083288E+04  0.00000000000E+00 0. -1.
    9000007    1    1    2  501    0  0.22965052244E+03 -0.22154050588E+03 -0.10876229504E+04  0.12019747254E+04  0.40000000000E+03 0.  1.
   -9000007    1    1    2    0  503 -0.22965052244E+03  0.22154050588E+03 -0.87950133634E+03  0.10175176455E+04  0.40000000000E+03 0. -1.
<mgrwt>
<rscale>  2 0.51168306E+03</rscale>
<asrwt>0</asrwt>
<pdfrwt beam="1">  1       21 0.19412929E-01 0.51168306E+03</pdfrwt>
<pdfrwt beam="2">  1       21 0.32204744E+00 0.51168306E+03</pdfrwt>
<totfact> 0.47538232E+02</totfact>
</mgrwt>
</event>
<event>
 4    1  0.4832791E-002  0.6148929E+03  0.7818608E-02  0.9874981E-01
         21   -1    0    0  503  502  0.00000000000E+00  0.00000000000E+00  0.12572170353E+04  0.12572170353E+04  0.00000000000E+00 0.  1.
         21   -1    0    0  501  503 -0.00000000000E+00 -0.00000000000E+00 -0.46546116645E+03  0.46546116645E+03  0.00000000000E+00 0.  1.
    9000007    1    1    2  501    0  0.46177966131E+03  0.69662508482E+02 -0.11652236443E+03  0.62583606647E+03  0.40000000000E+03 0.  1.
   -9000007    1    1    2    0  502 -0.46177966131E+03 -0.69662508482E+02  0.90827823329E+03  0.10968421353E+04  0.40000000000E+03 0.  1.
<mgrwt>
<rscale>  2 0.61489293E+03</rscale>
<asrwt>0</asrwt>
<pdfrwt beam="1">  1       21 0.19341800E+00 0.61489293E+03</pdfrwt>
<pdfrwt beam="2">  1       21 0.71609411E-01 0.61489293E+03</pdfrwt>
<totfact> 0.19652065E+02</totfact>
</mgrwt>
</event>
<event>
 4    1  0.4832791E-002  0.4083137E+03  0.7818608E-02  0.1040938E+00
         21   -1    0    0  501  502  0.00000000000E+00  0.00000000000E+00  0.92390772772E+02  0.92390772772E+02  0.00000000000E+00 0.  1.
         21   -1    0    0  502  503 -0.00000000000E+00 -0.00000000000E+00 -0.18443429714E+04  0.18443429714E+04  0.00000000000E+00 0.  1.
    9000007    1    1    2  501    0  0.71603196094E+02  0.39913071364E+02 -0.73366440932E+03  0.83963297724E+03  0.40000000000E+03 0.  1.
   -9000007    1    1    2    0  503 -0.71603196094E+02 -0.39913071364E+02 -0.10182877893E+04  0.10971007669E+04  0.40000000000E+03 0.  1.
<mgrwt>
<rscale>  2 0.40831369E+03</rscale>
<asrwt>0</asrwt>
<pdfrwt beam="1">  1       21 0.14213966E-01 0.40831369E+03</pdfrwt>
<pdfrwt beam="2">  1       21 0.28374506E+00 0.40831369E+03</pdfrwt>
<totfact> 0.15318981E+03</totfact>
</mgrwt>
</event>
<event>
 4    1  0.4832791E-002  0.4231298E+03  0.7818608E-02  0.1036052E+00
         21   -1    0    0  501  502  0.00000000000E+00  0.00000000000E+00  0.32351385177E+03  0.32351385177E+03  0.00000000000E+00 0.  1.
         21   -1    0    0  502  503 -0.00000000000E+00 -0.00000000000E+00 -0.59568024819E+03  0.59568024819E+03  0.00000000000E+00 0. -1.
    9000007    1    1    2  501    0 -0.12429652153E+03  0.59909661856E+02 -0.25849985469E+03  0.49584369284E+03  0.40000000000E+03 0. -1.
   -9000007    1    1    2    0  503  0.12429652153E+03 -0.59909661856E+02 -0.13666541724E+02  0.42335040712E+03  0.40000000000E+03 0.  1.
<mgrwt>
<rscale>  2 0.42312976E+03</rscale>
<asrwt>0</asrwt>
<pdfrwt beam="1">  1       21 0.49771363E-01 0.42312976E+03</pdfrwt>
<pdfrwt beam="2">  1       21 0.91643113E-01 0.42312976E+03</pdfrwt>
<totfact> 0.34130622E+03</totfact>
</mgrwt>
</event>
<event>
 4    1  0.4832791E-002  0.5466184E+03  0.7818608E-02  0.1002280E+00
         21   -1    0    0  501  502  0.00000000000E+00  0.00000000000E+00  0.59581135427E+03  0.59581135427E+03  0.00000000000E+00 0. -1.
         21   -1    0    0  502  503 -0.00000000000E+00 -0.00000000000E+00 -0.50474561823E+03  0.50474561823E+03  0.00000000000E+00 0. -1.
    9000007    1    1    2  501    0 -0.23931625272E+03  0.28551610162E+03  0.13192774513E+01  0.54662002670E+03  0.40000000000E+03 0. -1.
   -9000007    1    1    2    0  503  0.23931625272E+03 -0.28551610162E+03  0.89746458585E+02  0.55393694580E+03  0.40000000000E+03 0. -1.
<mgrwt>
<rscale>  2 0.54661843E+03</rscale>
<asrwt>0</asrwt>
<pdfrwt beam="1">  1       21 0.91663285E-01 0.54661843E+03</pdfrwt>
<pdfrwt beam="2">  1       21 0.77653172E-01 0.54661843E+03</pdfrwt>
<totfact> 0.12226804E+03</totfact>
</mgrwt>
</event>
<event>
 4    1  0.4832791E-002  0.4310485E+03  0.7818608E-02  0.1033529E+00
         21   -1    0    0  503  502  0.00000000000E+00  0.00000000000E+00  0.21087397956E+04  0.21087397956E+04  0.00000000000E+00 0. -1.
         21   -1    0    0  501  503 -0.00000000000E+00 -0.00000000000E+00 -0.92281064448E+02  0.92281064448E+02  0.00000000000E+00 0. -1.
    9000007    1    1    2  501    0 -0.15072080210E+03 -0.55551979880E+02  0.77428161912E+03  0.88617989616E+03  0.40000000000E+03 0. -1.
   -9000007    1    1    2    0  502  0.15072080210E+03  0.55551979880E+02  0.12421771120E+04  0.13148409639E+04  0.40000000000E+03 0. -1.
<mgrwt>
<rscale>  2 0.43104847E+03</rscale>
<asrwt>0</asrwt>
<pdfrwt beam="1">  1       21 0.32442147E+00 0.43104847E+03</pdfrwt>
<pdfrwt beam="2">  1       21 0.14197088E-01 0.43104847E+03</pdfrwt>
<totfact> 0.86382108E+02</totfact>
</mgrwt>
</event>
<event>
 4    1  0.4832791E-002  0.4032479E+03  0.7818608E-02  0.1042661E+00
         21   -1    0    0  501  502  0.00000000000E+00  0.00000000000E+00  0.10139934119E+03  0.10139934119E+03  0.00000000000E+00 0. -1.
         21   -1    0    0  502  503 -0.00000000000E+00 -0.00000000000E+00 -0.17068220578E+04  0.17068220578E+04  0.00000000000E+00 0. -1.
    9000007    1    1    2  501    0  0.26276785618E+02  0.43799191344E+02 -0.10249978094E+04  0.11014669073E+04  0.40000000000E+03 0.  1.
   -9000007    1    1    2    0  503 -0.26276785618E+02 -0.43799191344E+02 -0.58042490727E+03  0.70675449174E+03  0.40000000000E+03 0.  1.
<mgrwt>
<rscale>  2 0.40324786E+03</rscale>
<asrwt>0</asrwt>
<pdfrwt beam="1">  1       21 0.15599898E-01 0.40324786E+03</pdfrwt>
<pdfrwt beam="2">  1       21 0.26258801E+00 0.40324786E+03</pdfrwt>
<totfact> 0.17338672E+03</totfact>
</mgrwt>
</event>
<event>
 4    1  0.4832791E-002  0.4566576E+03  0.7818608E-02  0.1025755E+00
         21   -1    0    0  501  502  0.00000000000E+00  0.00000000000E+00  0.74600656517E+03  0.74600656517E+03  0.00000000000E+00 0.  1.
         21   -1    0    0  502  503 -0.00000000000E+00 -0.00000000000E+00 -0.64277650083E+03  0.64277650083E+03  0.00000000000E+00 0.  1.
    9000007    1    1    2  501    0 -0.21978160261E+03 -0.15237103940E+02  0.57361588035E+03  0.73319253977E+03  0.40000000000E+03 0.  1.
   -9000007    1    1    2    0  503  0.21978160261E+03  0.15237103940E+02 -0.47038581600E+03  0.65559052623E+03  0.40000000000E+03 0.  1.
<mgrwt>
<rscale>  2 0.45665755E+03</rscale>
<asrwt>0</asrwt>
<pdfrwt beam="1">  1       21 0.11477024E+00 0.45665755E+03</pdfrwt>
<pdfrwt beam="2">  1       21 0.98888692E-01 0.45665755E+03</pdfrwt>
<totfact> 0.41231041E+02</totfact>
</mgrwt>
</event>
<event>
 4    1  0.4832791E-002  0.4257712E+03  0.7818608E-02  0.1035204E+00
         21   -1    0    0  503  502  0.00000000000E+00  0.00000000000E+00  0.15891601903E+04  0.15891601903E+04  0.00000000000E+00 0.  1.
         21   -1    0    0  501  503 -0.00000000000E+00 -0.00000000000E+00 -0.11525048561E+03  0.11525048561E+03  0.00000000000E+00 0.  1.
    9000007    1    1    2  501    0  0.33610606522E+02  0.14195566283E+03  0.82307531251E+03  0.92667904538E+03  0.40000000000E+03 0. -1.
   -9000007    1    1    2    0  502 -0.33610606522E+02 -0.14195566283E+03  0.65083439220E+03  0.77773163055E+03  0.40000000000E+03 0. -1.
<mgrwt>
<rscale>  2 0.42577116E+03</rscale>
<asrwt>0</asrwt>
<pdfrwt beam="1">  1       21 0.24448617E+00 0.42577116E+03</pdfrwt>
<pdfrwt beam="2">  1       21 0.17730845E-01 0.42577116E+03</pdfrwt>
<totfact> 0.17398829E+03</totfact>
</mgrwt>
</event>
<event>
 4    1  0.4832791E-002  0.4258810E+03  0.7818608E-02  0.1035169E+00
         21   -1    0    0  501  502  0.00000000000E+00  0.00000000000E+00  0.44405008139E+03  0.44405008139E+03  0.00000000000E+00 0. -1.
         21   -1    0    0  502  503 -0.00000000000E+00 -0.00000000000E+00 -0.71313026936E+03  0.71313026936E+03  0.00000000000E+00 0. -1.
    9000007    1    1    2  501    0 -0.11087276960E+03 -0.95298748722E+02  0.24364550410E+03  0.49065033804E+03  0.40000000000E+03 0. -1.
   -9000007    1    1    2    0  503  0.11087276960E+03  0.95298748722E+02 -0.51272569207E+03  0.66653001272E+03  0.40000000000E+03 0. -1.
<mgrwt>
<rscale>  2 0.42588100E+03</rscale>
<asrwt>0</asrwt>
<pdfrwt beam="1">  1       21 0.68315398E-01 0.42588100E+03</pdfrwt>
<pdfrwt beam="2">  1       21 0.10971235E+00 0.42588100E+03</pdfrwt>
<totfact> 0.11047705E+03</totfact>
</mgrwt>
</event>
<event>
 4    1  0.4832791E-002  0.4217923E+03  0.7818608E-02  0.1036485E+00
         21   -1    0    0  503  502  0.00000000000E+00  0.00000000000E+00  0.14037511452E+04  0.14037511452E+04  0.00000000000E+00 0. -1.
         21   -1    0    0  501  503 -0.00000000000E+00 -0.00000000000E+00 -0.20681764132E+03  0.20681764132E+03  0.00000000000E+00 0. -1.
    9000007    1    1    2  501    0  0.10496072200E+03  0.83017862509E+02  0.97376047038E+02  0.43288660547E+03  0.40000000000E+03 0. -1.
   -9000007    1    1    2    0  502 -0.10496072200E+03 -0.83017862509E+02  0.10995574569E+04  0.11776821811E+04  0.40000000000E+03 0. -1.
<mgrwt>
<rscale>  2 0.42179227E+03</rscale>
<asrwt>0</asrwt>
<pdfrwt beam="1">  1       21 0.21596171E+00 0.42179227E+03</pdfrwt>
<pdfrwt beam="2">  1       21 0.31818100E-01 0.42179227E+03</pdfrwt>
<totfact> 0.84925286E+02</totfact>
</mgrwt>
</event>
<event>
 4    1  0.4832791E-002  0.5296197E+03  0.7818608E-02  0.1006324E+00
         21   -1    0    0  503  502  0.00000000000E+00  0.00000000000E+00  0.11731999094E+04  0.11731999094E+04  0.00000000000E+00 0.  1.
         21   -1    0    0  501  503 -0.00000000000E+00 -0.00000000000E+00 -0.31152712129E+03  0.31152712129E+03  0.00000000000E+00 0. -1.
    9000007    1    1    2  501    0 -0.34634897718E+03 -0.23226375973E+02  0.72857286682E+02  0.53460757828E+03  0.40000000000E+03 0. -1.
   -9000007    1    1    2    0  502  0.34634897718E+03  0.23226375973E+02  0.78881550139E+03  0.95011945237E+03  0.40000000000E+03 0.  1.
<mgrwt>
<rscale>  2 0.52961975E+03</rscale>
<asrwt>0</asrwt>
<pdfrwt beam="1">  1       21 0.18049229E+00 0.52961975E+03</pdfrwt>
<pdfrwt beam="2">  1       21 0.47927250E-01 0.52961975E+03</pdfrwt>
<totfact> 0.60348981E+02</totfact>
</mgrwt>
</event>
<event>
 4    1  0.4832791E-002  0.4214442E+03  0.7818608E-02  0.1036597E+00
         21   -1    0    0  503  502  0.00000000000E+00  0.00000000000E+00  0.18696758277E+03  0.18696758277E+03  0.00000000000E+00 0. -1.
         21   -1    0    0  501  503 -0.00000000000E+00 -0.00000000000E+00 -0.15508388067E+04  0.15508388067E+04  0.00000000000E+00 0. -1.
    9000007    1    1    2  501    0  0.70610218340E+01 -0.13253451213E+03 -0.12227829347E+04  0.12933728621E+04  0.40000000000E+03 0. -1.
   -9000007    1    1    2    0  502 -0.70610218340E+01  0.13253451213E+03 -0.14108828926E+03  0.44443352742E+03  0.40000000000E+03 0. -1.
<mgrwt>
<rscale>  2 0.42144425E+03</rscale>
<asrwt>0</asrwt>
<pdfrwt beam="1">  1       21 0.28764243E-01 0.42144425E+03</pdfrwt>
<pdfrwt beam="2">  1       21 0.23859059E+00 0.42144425E+03</pdfrwt>
<totfact> 0.74729900E+02</totfact>
</mgrwt>
</event>
<event>
 4    1  0.4832791E-002  0.5054176E+03  0.7818608E-02  0.1012374E+00
         21   -1    0    0  503  502  0.00000000000E+00  0.00000000000E+00  0.62725645072E+03  0.62725645072E+03  0.00000000000E+00 0.  1.
         21   -1    0    0  501  503 -0.00000000000E+00 -0.00000000000E+00 -0.40758900374E+03  0.40758900374E+03  0.00000000000E+00 0.  1.
    9000007    1    1    2  501    0  0.17266459050E+03  0.25619112161E+03  0.12486923268E+03  0.52061432642E+03  0.40000000000E+03 0.  1.
   -9000007    1    1    2    0  502 -0.17266459050E+03 -0.25619112161E+03  0.94798214306E+02  0.51423112804E+03  0.40000000000E+03 0.  1.
<mgrwt>
<rscale>  2 0.50541760E+03</rscale>
<asrwt>0</asrwt>
<pdfrwt beam="1">  1       21 0.96500992E-01 0.50541760E+03</pdfrwt>
<pdfrwt beam="2">  1       21 0.62706001E-01 0.50541760E+03</pdfrwt>
<totfact> 0.17756350E+03</totfact>
</mgrwt>
</event>
<event>
 4    1  0.4832791E-002  0.5641339E+03  0.7818608E-02  0.9982744E-01
         21   -1    0    0  503  502  0.00000000000E+00  0.00000000000E+00  0.59297389510E+03  0.59297389510E+03  0.00000000000E+00 0.  1.
         21   -1    0    0  501  503 -0.00000000000E+00 -0.00000000000E+00 -0.53729351568E+03  0.53729351568E+03  0.00000000000E+00 0. -1.
    9000007    1    1    2  501    0  0.21437735951E+03  0.33509605103E+03  0.90020809937E+01  0.56420568337E+03  0.40000000000E+03 0.  1.
   -9000007    1    1    2    0  502 -0.21437735951E+03 -0.33509605103E+03  0.46678298422E+02  0.56606172740E+03  0.40000000000E+03 0. -1.
<mgrwt>
<rscale>  2 0.56413386E+03</rscale>
<asrwt>0</asrwt>
<pdfrwt beam="1">  1       21 0.91226753E-01 0.56413386E+03</pdfrwt>
<pdfrwt beam="2">  1       21 0.82660541E-01 0.56413386E+03</pdfrwt>
<totfact> 0.10635986E+03</totfact>
</mgrwt>
</event>
<event>
 4    1  0.4832791E-002  0.4513412E+03  0.7818608E-02  0.1027323E+00
         21   -1    0    0  501  502  0.00000000000E+00  0.00000000000E+00  0.16413045239E+03  0.16413045239E+03  0.00000000000E+00 0. -1.
         21   -1    0    0  502  503 -0.00000000000E+00 -0.00000000000E+00 -0.12418720245E+04  0.12418720245E+04  0.00000000000E+00 0. -1.
    9000007    1    1    2  501    0  0.11532110897E+02  0.20874840077E+03 -0.55593765562E+03  0.71608348769E+03  0.40000000000E+03 0. -1.
   -9000007    1    1    2    0  503 -0.11532110897E+02 -0.20874840077E+03 -0.52180391649E+03  0.68991898921E+03  0.40000000000E+03 0. -1.
<mgrwt>
<rscale>  2 0.45134121E+03</rscale>
<asrwt>0</asrwt>
<pdfrwt beam="1">  1       21 0.25250838E-01 0.45134121E+03</pdfrwt>
<pdfrwt beam="2">  1       21 0.19105724E+00 0.45134121E+03</pdfrwt>
<totfact> 0.19312529E+03</totfact>
</mgrwt>
</event>
<event>
 4    1  0.4832791E-002  0.4157325E+03  0.7818608E-02  0.1038464E+00
         21   -1    0    0  503  502  0.00000000000E+00  0.00000000000E+00  0.67847427045E+03  0.67847427045E+03  0.00000000000E+00 0.  1.
         21   -1    0    0  501  503 -0.00000000000E+00 -0.00000000000E+00 -0.33204603516E+03  0.33204603516E+03  0.00000000000E+00 0.  1.
    9000007    1    1    2  501    0 -0.95091692769E+02  0.61571539465E+02 -0.70582093195E+02  0.42168153432E+03  0.40000000000E+03 0.  1.
   -9000007    1    1    2    0  502  0.95091692769E+02 -0.61571539465E+02  0.41701032849E+03  0.58883877129E+03  0.40000000000E+03 0.  1.
<mgrwt>
<rscale>  2 0.41573247E+03</rscale>
<asrwt>0</asrwt>
<pdfrwt beam="1">  1       21 0.10438066E+00 0.41573247E+03</pdfrwt>
<pdfrwt beam="2">  1       21 0.51084006E-01 0.41573247E+03</pdfrwt>
<totfact> 0.23659510E+03</totfact>
</mgrwt>
</event>
<event>
 4    1  0.4832791E-002  0.4277149E+03  0.7818608E-02  0.1034584E+00
         21   -1    0    0  503  502  0.00000000000E+00  0.00000000000E+00  0.26614171379E+03  0.26614171379E+03  0.00000000000E+00 0.  1.
         21   -1    0    0  501  503 -0.00000000000E+00 -0.00000000000E+00 -0.69052936142E+03  0.69052936142E+03  0.00000000000E+00 0.  1.
    9000007    1    1    2  501    0  0.98154350909E+02 -0.11535054959E+03 -0.17988111661E+03  0.46400133837E+03  0.40000000000E+03 0.  1.
   -9000007    1    1    2    0  502 -0.98154350909E+02  0.11535054959E+03 -0.24450653102E+03  0.49266973685E+03  0.40000000000E+03 0.  1.
<mgrwt>
<rscale>  2 0.42771489E+03</rscale>
<asrwt>0</asrwt>
<pdfrwt beam="1">  1       21 0.40944879E-01 0.42771489E+03</pdfrwt>
<pdfrwt beam="2">  1       21 0.10623529E+00 0.42771489E+03</pdfrwt>
<totfact> 0.35867809E+03</totfact>
</mgrwt>
</event>
<event>
 4    1  0.4832791E-002  0.4176702E+03  0.7818608E-02  0.1037827E+00
         21   -1    0    0  501  502  0.00000000000E+00  0.00000000000E+00  0.95688357171E+03  0.95688357171E+03  0.00000000000E+00 0. -1.
         21   -1    0    0  502  503 -0.00000000000E+00 -0.00000000000E+00 -0.24388878919E+03  0.24388878919E+03  0.00000000000E+00 0. -1.
    9000007    1    1    2  501    0  0.10098603719E+03 -0.65193990221E+02  0.65818262606E+03  0.77952088190E+03  0.40000000000E+03 0. -1.
   -9000007    1    1    2    0  503 -0.10098603719E+03  0.65193990221E+02  0.54812156464E+02  0.42125147901E+03  0.40000000000E+03 0. -1.
<mgrwt>
<rscale>  2 0.41767025E+03</rscale>
<asrwt>0</asrwt>
<pdfrwt beam="1">  1       21 0.14721286E+00 0.41767025E+03</pdfrwt>
<pdfrwt beam="2">  1       21 0.37521353E-01 0.41767025E+03</pdfrwt>
<totfact> 0.18643201E+03</totfact>
</mgrwt>
</event>
<event>
 4    1  0.4832791E-002  0.4067746E+03  0.7818608E-02  0.1041459E+00
         21   -1    0    0  503  502  0.00000000000E+00  0.00000000000E+00  0.21938772432E+03  0.21938772432E+03  0.00000000000E+00 0. -1.
         21   -1    0    0  501  503 -0.00000000000E+00 -0.00000000000E+00 -0.76539587924E+03  0.76539587924E+03  0.00000000000E+00 0. -1.
    9000007    1    1    2  501    0 -0.52543039878E+02 -0.52007399168E+02 -0.33251589897E+03  0.52538782216E+03  0.40000000000E+03 0. -1.
   -9000007    1    1    2    0  502  0.52543039878E+02  0.52007399168E+02 -0.21349225595E+03  0.45939578139E+03  0.40000000000E+03 0. -1.
<mgrwt>
<rscale>  2 0.40677456E+03</rscale>
<asrwt>0</asrwt>
<pdfrwt beam="1">  1       21 0.33751957E-01 0.40677456E+03</pdfrwt>
<pdfrwt beam="2">  1       21 0.11775321E+00 0.40677456E+03</pdfrwt>
<totfact> 0.41492415E+03</totfact>
</mgrwt>
</event>
<event>
 4    1  0.4832791E-002  0.4743284E+03  0.7818608E-02  0.1020706E+00
         21   -1    0    0  503  502  0.00000000000E+00  0.00000000000E+00  0.10409774072E+04  0.10409774072E+04  0.00000000000E+00 0. -1.
         21   -1    0    0  501  503 -0.00000000000E+00 -0.00000000000E+00 -0.55455445166E+03  0.55455445166E+03  0.00000000000E+00 0.  1.
    9000007    1    1    2  501    0  0.20299207078E+03  0.15421289903E+03 -0.37999745108E+03  0.60777089586E+03  0.40000000000E+03 0.  1.
   -9000007    1    1    2    0  502 -0.20299207078E+03 -0.15421289903E+03  0.86642040665E+03  0.98776096303E+03  0.40000000000E+03 0. -1.
<mgrwt>
<rscale>  2 0.47432837E+03</rscale>
<asrwt>0</asrwt>
<pdfrwt beam="1">  1       21 0.16015037E+00 0.47432837E+03</pdfrwt>
<pdfrwt beam="2">  1       21 0.85316069E-01 0.47432837E+03</pdfrwt>
<totfact> 0.24131182E+02</totfact>
</mgrwt>
</event>
<event>
 4    1  0.4832791E-002  0.4614568E+03  0.7818608E-02  0.1024360E+00
         21   -1    0    0  501  502  0.00000000000E+00  0.00000000000E+00  0.23874869233E+04  0.23874869233E+04  0.00000000000E+00 0. -1.
         21   -1    0    0  502  503 -0.00000000000E+00 -0.00000000000E+00 -0.11501246142E+03  0.11501246142E+03  0.00000000000E+00 0. -1.
    9000007    1    1    2  501    0 -0.21397688333E+03  0.84594847665E+02  0.54336409467E+03  0.71287231271E+03  0.40000000000E+03 0. -1.
   -9000007    1    1    2    0  503  0.21397688333E+03 -0.84594847665E+02  0.17291103672E+04  0.17896270720E+04  0.40000000000E+03 0. -1.
<mgrwt>
<rscale>  2 0.46145682E+03</rscale>
<asrwt>0</asrwt>
<pdfrwt beam="1">  1       21 0.36730564E+00 0.46145682E+03</pdfrwt>
<pdfrwt beam="2">  1       21 0.17694227E-01 0.46145682E+03</pdfrwt>
<totfact> 0.30741230E+02</totfact>
</mgrwt>
</event>
<event>
 4    1  0.4832791E-002  0.4533941E+03  0.7818608E-02  0.1026715E+00
         21   -1    0    0  503  502  0.00000000000E+00  0.00000000000E+00  0.71190088981E+03  0.71190088981E+03  0.00000000000E+00 0.  1.
         21   -1    0    0  501  503 -0.00000000000E+00 -0.00000000000E+00 -0.31508543566E+03  0.31508543566E+03  0.00000000000E+00 0.  1.
    9000007    1    1    2  501    0 -0.13093954721E+03  0.16858529187E+03  0.49973060682E+02  0.45613975101E+03  0.40000000000E+03 0.  1.
   -9000007    1    1    2    0  502  0.13093954721E+03 -0.16858529187E+03  0.34684239347E+03  0.57084657445E+03  0.40000000000E+03 0.  1.
<mgrwt>
<rscale>  2 0.45339405E+03</rscale>
<asrwt>0</asrwt>
<pdfrwt beam="1">  1       21 0.10952321E+00 0.45339405E+03</pdfrwt>
<pdfrwt beam="2">  1       21 0.48474682E-01 0.45339405E+03</pdfrwt>
<totfact> 0.23150518E+03</totfact>
</mgrwt>
</event>
<event>
 4    1  0.4832791E-002  0.4536643E+03  0.7818608E-02  0.1026635E+00
         21   -1    0    0  503  502  0.00000000000E+00  0.00000000000E+00  0.11438297717E+04  0.11438297717E+04  0.00000000000E+00 0. -1.
         21   -1    0    0  501  503 -0.00000000000E+00 -0.00000000000E+00 -0.24511042820E+03  0.24511042820E+03  0.00000000000E+00 0.  1.
    9000007    1    1    2  501    0 -0.19203100949E+03  0.94527108948E+02  0.91242240873E+02  0.46274877574E+03  0.40000000000E+03 0.  1.
   -9000007    1    1    2    0  502  0.19203100949E+03 -0.94527108948E+02  0.80747710264E+03  0.92619142417E+03  0.40000000000E+03 0. -1.
<mgrwt>
<rscale>  2 0.45366428E+03</rscale>
<asrwt>0</asrwt>
<pdfrwt beam="1">  1       21 0.17597381E+00 0.45366428E+03</pdfrwt>
<pdfrwt beam="2">  1       21 0.37709297E-01 0.45366428E+03</pdfrwt>
<totfact> 0.11048100E+03</totfact>
</mgrwt>
</event>
<event>
 4    1  0.4832791E-002  0.4089418E+03  0.7818608E-02  0.1040727E+00
         21   -1    0    0  501  502  0.00000000000E+00  0.00000000000E+00  0.13748049872E+04  0.13748049872E+04  0.00000000000E+00 0. -1.
         21   -1    0    0  502  503 -0.00000000000E+00 -0.00000000000E+00 -0.12205839061E+03  0.12205839061E+03  0.00000000000E+00 0.  1.
    9000007    1    1    2  501    0 -0.11197054972E+02  0.84309113981E+02  0.67011107625E+03  0.78503646747E+03  0.40000000000E+03 0.  1.
   -9000007    1    1    2    0  503  0.11197054972E+02 -0.84309113981E+02  0.58263552035E+03  0.71182691036E+03  0.40000000000E+03 0.  1.
<mgrwt>
<rscale>  2 0.40894181E+03</rscale>
<asrwt>0</asrwt>
<pdfrwt beam="1">  1       21 0.21150845E+00 0.40894181E+03</pdfrwt>
<pdfrwt beam="2">  1       21 0.18778215E-01 0.40894181E+03</pdfrwt>
<totfact> 0.25398319E+03</totfact>
</mgrwt>
</event>
<event>
 4    1  0.4832791E-002  0.4047892E+03  0.7818608E-02  0.1042134E+00
         21   -1    0    0  503  502  0.00000000000E+00  0.00000000000E+00  0.20595253467E+03  0.20595253467E+03  0.00000000000E+00 0. -1.
         21   -1    0    0  501  503 -0.00000000000E+00 -0.00000000000E+00 -0.92255399390E+03  0.92255399390E+03  0.00000000000E+00 0. -1.
    9000007    1    1    2  501    0  0.15857950827E+02 -0.60023656002E+02 -0.14897914527E+03  0.43133409280E+03  0.40000000000E+03 0. -1.
   -9000007    1    1    2    0  502 -0.15857950827E+02  0.60023656002E+02 -0.56762231396E+03  0.69717243577E+03  0.40000000000E+03 0. -1.
<mgrwt>
<rscale>  2 0.40478922E+03</rscale>
<asrwt>0</asrwt>
<pdfrwt beam="1">  1       21 0.31685004E-01 0.40478922E+03</pdfrwt>
<pdfrwt beam="2">  1       21 0.14193139E+00 0.40478922E+03</pdfrwt>
<totfact> 0.29070193E+03</totfact>
</mgrwt>
</event>
<event>
 4    1  0.4832791E-002  0.4391863E+03  0.7818608E-02  0.1030997E+00
         21   -1    0    0  503  502  0.00000000000E+00  0.00000000000E+00  0.16647188363E+04  0.16647188363E+04  0.00000000000E+00 0. -1.
         21   -1    0    0  501  503 -0.00000000000E+00 -0.00000000000E+00 -0.28722011820E+03  0.28722011820E+03  0.00000000000E+00 0.  1.
    9000007    1    1    2  501    0  0.17708422527E+03 -0.39061020011E+02 -0.65084902955E+02  0.44398269191E+03  0.40000000000E+03 0.  1.
   -9000007    1    1    2    0  502 -0.17708422527E+03  0.39061020011E+02  0.14425836211E+04  0.15079562626E+04  0.40000000000E+03 0. -1.
<mgrwt>
<rscale>  2 0.43918628E+03</rscale>
<asrwt>0</asrwt>
<pdfrwt beam="1">  1       21 0.25611059E+00 0.43918628E+03</pdfrwt>
<pdfrwt beam="2">  1       21 0.44187711E-01 0.43918628E+03</pdfrwt>
<totfact> 0.24172697E+02</totfact>
</mgrwt>
</event>
<event>
 4    1  0.4832791E-002  0.4362420E+03  0.7818608E-02  0.1031906E+00
         21   -1    0    0  503  502  0.00000000000E+00  0.00000000000E+00  0.92008462188E+03  0.92008462188E+03  0.00000000000E+00 0. -1.
         21   -1    0    0  501  503 -0.00000000000E+00 -0.00000000000E+00 -0.28145002896E+03  0.28145002896E+03  0.00000000000E+00 0. -1.
    9000007    1    1    2  501    0  0.13918603700E+03  0.10456732083E+03  0.99926943035E+01  0.43635642704E+03  0.40000000000E+03 0. -1.
   -9000007    1    1    2    0  502 -0.13918603700E+03 -0.10456732083E+03  0.62864189861E+03  0.76517822380E+03  0.40000000000E+03 0. -1.
<mgrwt>
<rscale>  2 0.43624199E+03</rscale>
<asrwt>0</asrwt>
<pdfrwt beam="1">  1       21 0.14155148E+00 0.43624199E+03</pdfrwt>
<pdfrwt beam="2">  1       21 0.43300005E-01 0.43624199E+03</pdfrwt>
<totfact> 0.15297378E+03</totfact>
</mgrwt>
</event>
<event>
 4    1  0.4832791E-002  0.4542865E+03  0.7818608E-02  0.1026451E+00
         21   -1    0    0  501  502  0.00000000000E+00  0.00000000000E+00  0.14438166410E+03  0.14438166410E+03  0.00000000000E+00 0.  1.
         21   -1    0    0  502  503 -0.00000000000E+00 -0.00000000000E+00 -0.17675775117E+04  0.17675775117E+04  0.00000000000E+00 0. -1.
    9000007    1    1    2  501    0 -0.18743089181E+03  0.10604654239E+03 -0.39343566538E+03  0.60097240465E+03  0.40000000000E+03 0.  1.
   -9000007    1    1    2    0  503  0.18743089181E+03 -0.10604654239E+03 -0.12297601822E+04  0.13109867711E+04  0.40000000000E+03 0. -1.
<mgrwt>
<rscale>  2 0.45428648E+03</rscale>
<asrwt>0</asrwt>
<pdfrwt beam="1">  1       21 0.22212563E-01 0.45428648E+03</pdfrwt>
<pdfrwt beam="2">  1       21 0.27193501E+00 0.45428648E+03</pdfrwt>
<totfact> 0.76000100E+02</totfact>
</mgrwt>
</event>
<event>
 4    1  0.4832791E-002  0.4617301E+03  0.7818608E-02  0.1024281E+00
         21   -1    0    0  501  502  0.00000000000E+00  0.00000000000E+00  0.15787832530E+03  0.15787832530E+03  0.00000000000E+00 0. -1.
         21   -1    0    0  502  503 -0.00000000000E+00 -0.00000000000E+00 -0.17188057218E+04  0.17188057218E+04  0.00000000000E+00 0.  1.
    9000007    1    1    2  501    0 -0.19079169507E+03 -0.12958879586E+03 -0.34602700606E+03  0.57700036035E+03  0.40000000000E+03 0. -1.
   -9000007    1    1    2    0  503  0.19079169507E+03  0.12958879586E+03 -0.12149003905E+04  0.12996836868E+04  0.40000000000E+03 0.  1.
<mgrwt>
<rscale>  2 0.46173015E+03</rscale>
<asrwt>0</asrwt>
<pdfrwt beam="1">  1       21 0.24288972E-01 0.46173015E+03</pdfrwt>
<pdfrwt beam="2">  1       21 0.26443166E+00 0.46173015E+03</pdfrwt>
<totfact> 0.70739955E+02</totfact>
</mgrwt>
</event>
<event>
 4    1  0.4832791E-002  0.4325916E+03  0.7818608E-02  0.1033044E+00
         21   -1    0    0  503  502  0.00000000000E+00  0.00000000000E+00  0.58683617135E+03  0.58683617135E+03  0.00000000000E+00 0. -1.
         21   -1    0    0  501  503 -0.00000000000E+00 -0.00000000000E+00 -0.42123858057E+03  0.42123858057E+03  0.00000000000E+00 0. -1.
    9000007    1    1    2  501    0  0.12389485933E+03 -0.10856116576E+03 -0.16565303488E+03  0.46322391005E+03  0.40000000000E+03 0. -1.
   -9000007    1    1    2    0  502 -0.12389485933E+03  0.10856116576E+03  0.33125062567E+03  0.54485084187E+03  0.40000000000E+03 0. -1.
<mgrwt>
<rscale>  2 0.43259157E+03</rscale>
<asrwt>0</asrwt>
<pdfrwt beam="1">  1       21 0.90282489E-01 0.43259157E+03</pdfrwt>
<pdfrwt beam="2">  1       21 0.64805935E-01 0.43259157E+03</pdfrwt>
<totfact> 0.19874961E+03</totfact>
</mgrwt>
</event>
<event>
 4    1  0.4832791E-002  0.4653110E+03  0.7818608E-02  0.1023252E+00
         21   -1    0    0  503  502  0.00000000000E+00  0.00000000000E+00  0.39650463806E+03  0.39650463806E+03  0.00000000000E+00 0. -1.
         21   -1    0    0  501  503 -0.00000000000E+00 -0.00000000000E+00 -0.12777484822E+04  0.12777484822E+04  0.00000000000E+00 0.  1.
    9000007    1    1    2  501    0 -0.94430482087E+02 -0.21816792692E+03 -0.10741009828E+04  0.11705585340E+04  0.40000000000E+03 0.  1.
   -9000007    1    1    2    0  502  0.94430482087E+02  0.21816792692E+03  0.19285713867E+03  0.50369458625E+03  0.40000000000E+03 0. -1.
<mgrwt>
<rscale>  2 0.46531104E+03</rscale>
<asrwt>0</asrwt>
<pdfrwt beam="1">  1       21 0.61000715E-01 0.46531104E+03</pdfrwt>
<pdfrwt beam="2">  1       21 0.19657669E+00 0.46531104E+03</pdfrwt>
<totfact> 0.28570836E+02</totfact>
</mgrwt>
</event>
<event>
 4    1  0.4832791E-002  0.4942579E+03  0.7818608E-02  0.1015289E+00
         21   -1    0    0  501  502  0.00000000000E+00  0.00000000000E+00  0.99853116902E+03  0.99853116902E+03  0.00000000000E+00 0. -1.
         21   -1    0    0  502  503 -0.00000000000E+00 -0.00000000000E+00 -0.64025378691E+03  0.64025378691E+03  0.00000000000E+00 0.  1.
    9000007    1    1    2  501    0  0.15790264554E+03 -0.24363422357E+03  0.82322784894E+03  0.96020569235E+03  0.40000000000E+03 0. -1.
   -9000007    1    1    2    0  503 -0.15790264554E+03  0.24363422357E+03 -0.46495046683E+03  0.67857926358E+03  0.40000000000E+03 0.  1.
<mgrwt>
<rscale>  2 0.49425791E+03</rscale>
<asrwt>0</asrwt>
<pdfrwt beam="1">  1       21 0.15362018E+00 0.49425791E+03</pdfrwt>
<pdfrwt beam="2">  1       21 0.98500582E-01 0.49425791E+03</pdfrwt>
<totfact> 0.19047036E+02</totfact>
</mgrwt>
</event>
<event>
 4    1  0.4832791E-002  0.7332643E+03  0.7818608E-02  0.9661978E-01
         21   -1    0    0  503  502  0.00000000000E+00  0.00000000000E+00  0.55563872291E+03  0.55563872291E+03  0.00000000000E+00 0.  1.
         21   -1    0    0  501  503 -0.00000000000E+00 -0.00000000000E+00 -0.14980137462E+04  0.14980137462E+04  0.00000000000E+00 0. -1.
    9000007    1    1    2  501    0  0.59613849092E+03  0.14931676435E+03 -0.10821528180E+04  0.13071845004E+04  0.40000000000E+03 0. -1.
   -9000007    1    1    2    0  502 -0.59613849092E+03 -0.14931676435E+03  0.13977779472E+03  0.74646796875E+03  0.40000000000E+03 0.  1.
<mgrwt>
<rscale>  2 0.73326434E+03</rscale>
<asrwt>0</asrwt>
<pdfrwt beam="1">  1       21 0.85482882E-01 0.73326434E+03</pdfrwt>
<pdfrwt beam="2">  1       21 0.23046365E+00 0.73326434E+03</pdfrwt>
<totfact> 0.70922054E+01</totfact>
</mgrwt>
</event>
<event>
 4    1  0.4832791E-002  0.4501998E+03  0.7818608E-02  0.1027662E+00
         21   -1    0    0  503  502  0.00000000000E+00  0.00000000000E+00  0.52609682892E+03  0.52609682892E+03  0.00000000000E+00 0.  1.
         21   -1    0    0  501  503 -0.00000000000E+00 -0.00000000000E+00 -0.48769768591E+03  0.48769768591E+03  0.00000000000E+00 0.  1.
    9000007    1    1    2  501    0  0.21871099541E+01 -0.20657947974E+03 -0.21312299328E+03  0.49809765625E+03  0.40000000000E+03 0.  1.
   -9000007    1    1    2    0  502 -0.21871099541E+01  0.20657947974E+03  0.25152213629E+03  0.51569685857E+03  0.40000000000E+03 0.  1.
<mgrwt>
<rscale>  2 0.45019981E+03</rscale>
<asrwt>0</asrwt>
<pdfrwt beam="1">  1       21 0.80937974E-01 0.45019981E+03</pdfrwt>
<pdfrwt beam="2">  1       21 0.75030413E-01 0.45019981E+03</pdfrwt>
<totfact> 0.18337802E+03</totfact>
</mgrwt>
</event>
<event>
 4    1  0.4832791E-002  0.5215143E+03  0.7818608E-02  0.1008311E+00
         21   -1    0    0  501  502  0.00000000000E+00  0.00000000000E+00  0.35690429694E+03  0.35690429694E+03  0.00000000000E+00 0.  1.
         21   -1    0    0  502  503 -0.00000000000E+00 -0.00000000000E+00 -0.18193112205E+04  0.18193112205E+04  0.00000000000E+00 0. -1.
    9000007    1    1    2  501    0 -0.29225285344E+03  0.16298903525E+03  0.98285429733E+02  0.53069499871E+03  0.40000000000E+03 0.  1.
   -9000007    1    1    2    0  503  0.29225285344E+03 -0.16298903525E+03 -0.15606923533E+04  0.16455205187E+04  0.40000000000E+03 0. -1.
<mgrwt>
<rscale>  2 0.52151429E+03</rscale>
<asrwt>0</asrwt>
<pdfrwt beam="1">  1       21 0.54908353E-01 0.52151429E+03</pdfrwt>
<pdfrwt beam="2">  1       21 0.27989404E+00 0.52151429E+03</pdfrwt>
<totfact> 0.10428218E+02</totfact>
</mgrwt>
</event>
<event>
 4    1  0.4832791E-002  0.5892266E+03  0.7818608E-02  0.9928013E-01
         21   -1    0    0  501  502  0.00000000000E+00  0.00000000000E+00  0.72338339760E+03  0.72338339760E+03  0.00000000000E+00 0. -1.
         21   -1    0    0  502  503 -0.00000000000E+00 -0.00000000000E+00 -0.74568159270E+03  0.74568159270E+03  0.00000000000E+00 0.  1.
    9000007    1    1    2  501    0  0.84376890528E+01  0.43257004767E+03  0.42733686546E+03  0.72787693830E+03  0.40000000000E+03 0. -1.
   -9000007    1    1    2    0  503 -0.84376890528E+01 -0.43257004767E+03 -0.44963506055E+03  0.74118805199E+03  0.40000000000E+03 0.  1.
<mgrwt>
<rscale>  2 0.58922665E+03</rscale>
<asrwt>0</asrwt>
<pdfrwt beam="1">  1       21 0.11128975E+00 0.58922665E+03</pdfrwt>
<pdfrwt beam="2">  1       21 0.11472025E+00 0.58922665E+03</pdfrwt>
<totfact> 0.29220772E+02</totfact>
</mgrwt>
</event>
<event>
 4    1  0.4832791E-002  0.4806409E+03  0.7818608E-02  0.1018959E+00
         21   -1    0    0  501  502  0.00000000000E+00  0.00000000000E+00  0.19743699224E+03  0.19743699224E+03  0.00000000000E+00 0. -1.
         21   -1    0    0  502  503 -0.00000000000E+00 -0.00000000000E+00 -0.11704899024E+04  0.11704899024E+04  0.00000000000E+00 0. -1.
    9000007    1    1    2  501    0 -0.13343249173E+03  0.23067596167E+03 -0.49943974228E+03  0.69314910756E+03  0.40000000000E+03 0. -1.
   -9000007    1    1    2    0  503  0.13343249173E+03 -0.23067596167E+03 -0.47361316783E+03  0.67477778704E+03  0.40000000000E+03 0. -1.
<mgrwt>
<rscale>  2 0.48064085E+03</rscale>
<asrwt>0</asrwt>
<pdfrwt beam="1">  1       21 0.30374921E-01 0.48064085E+03</pdfrwt>
<pdfrwt beam="2">  1       21 0.18007537E+00 0.48064085E+03</pdfrwt>
<totfact> 0.15802597E+03</totfact>
</mgrwt>
</event>
<event>
 4    1  0.4832791E-002  0.4017612E+03  0.7818608E-02  0.1043172E+00
         21   -1    0    0  503  502  0.00000000000E+00  0.00000000000E+00  0.16637366920E+04  0.16637366920E+04  0.00000000000E+00 0.  1.
         21   -1    0    0  501  503 -0.00000000000E+00 -0.00000000000E+00 -0.10431859214E+03  0.10431859214E+03  0.00000000000E+00 0.  1.
    9000007    1    1    2  501    0  0.10447309643E+02  0.36096099504E+02  0.54584150339E+03  0.67775734706E+03  0.40000000000E+03 0.  1.
   -9000007    1    1    2    0  502 -0.10447309643E+02 -0.36096099504E+02  0.10135765965E+04  0.10902979371E+04  0.40000000000E+03 0.  1.
<mgrwt>
<rscale>  2 0.40176122E+03</rscale>
<asrwt>0</asrwt>
<pdfrwt beam="1">  1       21 0.25595947E+00 0.40176122E+03</pdfrwt>
<pdfrwt beam="2">  1       21 0.16049015E-01 0.40176122E+03</pdfrwt>
<totfact> 0.18056501E+03</totfact>
</mgrwt>
</event>
<event>
 4    1  0.4832791E-002  0.4271890E+03  0.7818608E-02  0.1034752E+00
         21   -1    0    0  501  502  0.00000000000E+00  0.00000000000E+00  0.11347354325E+04  0.11347354325E+04  0.00000000000E+00 0.  1.
         21   -1    0    0  502  503 -0.00000000000E+00 -0.00000000000E+00 -0.17427555104E+03  0.17427555104E+03  0.00000000000E+00 0.  1.
    9000007    1    1    2  501    0 -0.11237392458E+03 -0.99310522609E+02  0.66207969378E+03  0.78793400723E+03  0.40000000000E+03 0.  1.
   -9000007    1    1    2    0  503  0.11237392458E+03  0.99310522609E+02  0.29838018765E+03  0.52107697628E+03  0.40000000000E+03 0.  1.
<mgrwt>
<rscale>  2 0.42718904E+03</rscale>
<asrwt>0</asrwt>
<pdfrwt beam="1">  1       21 0.17457468E+00 0.42718904E+03</pdfrwt>
<pdfrwt beam="2">  1       21 0.26811624E-01 0.42718904E+03</pdfrwt>
<totfact> 0.22621314E+03</totfact>
</mgrwt>
</event>
<event>
 4    1  0.4832791E-002  0.4126745E+03  0.7818608E-02  0.1039477E+00
         21   -1    0    0  503  502  0.00000000000E+00  0.00000000000E+00  0.30535833095E+03  0.30535833095E+03  0.00000000000E+00 0. -1.
         21   -1    0    0  501  503 -0.00000000000E+00 -0.00000000000E+00 -0.15753854275E+04  0.15753854275E+04  0.00000000000E+00 0.  1.
    9000007    1    1    2  501    0  0.90649553759E+02 -0.45638709670E+02 -0.13908218838E+04  0.14507535097E+04  0.40000000000E+03 0.  1.
   -9000007    1    1    2    0  502 -0.90649553759E+02  0.45638709670E+02  0.12079478724E+03  0.42999024877E+03  0.40000000000E+03 0. -1.
<mgrwt>
<rscale>  2 0.41267449E+03</rscale>
<asrwt>0</asrwt>
<pdfrwt beam="1">  1       21 0.46978205E-01 0.41267449E+03</pdfrwt>
<pdfrwt beam="2">  1       21 0.24236699E+00 0.41267449E+03</pdfrwt>
<totfact> 0.26221041E+02</totfact>
</mgrwt>
</event>
<event>
 4    1  0.4832791E-002  0.4890111E+03  0.7818608E-02  0.1016688E+00
         21   -1    0    0  503  502  0.00000000000E+00  0.00000000000E+00  0.13486884618E+04  0.13486884618E+04  0.00000000000E+00 0.  1.
         21   -1    0    0  501  503 -0.00000000000E+00 -0.00000000000E+00 -0.21375301890E+03  0.21375301890E+03  0.00000000000E+00 0.  1.
    9000007    1    1    2  501    0  0.11658059818E+03 -0.25600950170E+03  0.24488381045E+03  0.54690033960E+03  0.40000000000E+03 0.  1.
   -9000007    1    1    2    0  502 -0.11658059818E+03  0.25600950170E+03  0.89005163243E+03  0.10155411411E+04  0.40000000000E+03 0.  1.
<mgrwt>
<rscale>  2 0.48901115E+03</rscale>
<asrwt>0</asrwt>
<pdfrwt beam="1">  1       21 0.20749053E+00 0.48901115E+03</pdfrwt>
<pdfrwt beam="2">  1       21 0.32885081E-01 0.48901115E+03</pdfrwt>
<totfact> 0.87427116E+02</totfact>
</mgrwt>
</event>
<event>
 4    1  0.4832791E-002  0.4025758E+03  0.7818608E-02  0.1042891E+00
         21   -1    0    0  501  502  0.00000000000E+00  0.00000000000E+00  0.57816561915E+02  0.57816561915E+02  0.00000000000E+00 0. -1.
         21   -1    0    0  502  503 -0.00000000000E+00 -0.00000000000E+00 -0.38607112223E+04  0.38607112223E+04  0.00000000000E+00 0. -1.
    9000007    1    1    2  501    0  0.31889014262E+01  0.45354934367E+02 -0.87599259074E+03  0.96406963348E+03  0.40000000000E+03 0. -1.
   -9000007    1    1    2    0  503 -0.31889014262E+01 -0.45354934367E+02 -0.29269020696E+04  0.29544581507E+04  0.40000000000E+03 0. -1.
<mgrwt>
<rscale>  2 0.40257576E+03</rscale>
<asrwt>0</asrwt>
<pdfrwt beam="1">  1       21 0.88948564E-02 0.40257576E+03</pdfrwt>
<pdfrwt beam="2">  1       21 0.59395552E+00 0.40257576E+03</pdfrwt>
<totfact> 0.29347868E+01</totfact>
</mgrwt>
</event>
<event>
 4    1  0.4832791E-002  0.5564589E+03  0.7818608E-02  0.1000010E+00
         21   -1    0    0  503  502  0.00000000000E+00  0.00000000000E+00  0.13172008275E+04  0.13172008275E+04  0.00000000000E+00 0. -1.
         21   -1    0    0  501  503 -0.00000000000E+00 -0.00000000000E+00 -0.26576235838E+03  0.26576235838E+03  0.00000000000E+00 0. -1.
    9000007    1    1    2  501    0 -0.32393021367E+03 -0.21146094727E+03  0.79465225046E+03  0.97011273299E+03  0.40000000000E+03 0. -1.
   -9000007    1    1    2    0  502  0.32393021367E+03  0.21146094727E+03  0.25678621871E+03  0.61285045294E+03  0.40000000000E+03 0. -1.
<mgrwt>
<rscale>  2 0.55645891E+03</rscale>
<asrwt>0</asrwt>
<pdfrwt beam="1">  1       21 0.20264628E+00 0.55645891E+03</pdfrwt>
<pdfrwt beam="2">  1       21 0.40886517E-01 0.55645891E+03</pdfrwt>
<totfact> 0.58708967E+02</totfact>
</mgrwt>
</event>
<event>
 4    1  0.4832791E-002  0.4296404E+03  0.7818608E-02  0.1033974E+00
         21   -1    0    0  503  502  0.00000000000E+00  0.00000000000E+00  0.12224223842E+04  0.12224223842E+04  0.00000000000E+00 0.  1.
         21   -1    0    0  501  503 -0.00000000000E+00 -0.00000000000E+00 -0.15103564589E+03  0.15103564589E+03  0.00000000000E+00 0. -1.
    9000007    1    1    2  501    0 -0.70489194578E+02  0.14007909429E+03  0.52577991134E+03  0.67899587214E+03  0.40000000000E+03 0.  1.
   -9000007    1    1    2    0  502  0.70489194578E+02 -0.14007909429E+03  0.54560682699E+03  0.69446215798E+03  0.40000000000E+03 0.  1.
<mgrwt>
<rscale>  2 0.42964041E+03</rscale>
<asrwt>0</asrwt>
<pdfrwt beam="1">  1       21 0.18806498E+00 0.42964041E+03</pdfrwt>
<pdfrwt beam="2">  1       21 0.23236254E-01 0.42964041E+03</pdfrwt>
<totfact> 0.24005394E+03</totfact>
</mgrwt>
</event>
<event>
 4    1  0.4832791E-002  0.4466795E+03  0.7818608E-02  0.1028717E+00
         21   -1    0    0  503  502  0.00000000000E+00  0.00000000000E+00  0.33367789664E+03  0.33367789664E+03  0.00000000000E+00 0.  1.
         21   -1    0    0  501  503 -0.00000000000E+00 -0.00000000000E+00 -0.67447194625E+03  0.67447194625E+03  0.00000000000E+00 0. -1.
    9000007    1    1    2  501    0  0.64592867404E+02  0.18801686016E+03 -0.34018509439E+03  0.56146992499E+03  0.40000000000E+03 0. -1.
   -9000007    1    1    2    0  502 -0.64592867404E+02 -0.18801686016E+03 -0.60895522024E+00  0.44667991790E+03  0.40000000000E+03 0. -1.
<mgrwt>
<rscale>  2 0.44667950E+03</rscale>
<asrwt>0</asrwt>
<pdfrwt beam="1">  1       21 0.51335062E-01 0.44667950E+03</pdfrwt>
<pdfrwt beam="2">  1       21 0.10376491E+00 0.44667950E+03</pdfrwt>
<totfact> 0.23473689E+03</totfact>
</mgrwt>
</event>
<event>
 4    1  0.4832791E-002  0.4813739E+03  0.7818608E-02  0.1018758E+00
         21   -1    0    0  503  502  0.00000000000E+00  0.00000000000E+00  0.24725442109E+03  0.24725442109E+03  0.00000000000E+00 0.  1.
         21   -1    0    0  501  503 -0.00000000000E+00 -0.00000000000E+00 -0.11832836686E+04  0.11832836686E+04  0.00000000000E+00 0.  1.
    9000007    1    1    2  501    0 -0.26449117545E+03  0.42014421780E+02 -0.79421764671E+03  0.92871010756E+03  0.40000000000E+03 0.  1.
   -9000007    1    1    2    0  502  0.26449117545E+03 -0.42014421780E+02 -0.14181160080E+03  0.50182798213E+03  0.40000000000E+03 0.  1.
<mgrwt>
<rscale>  2 0.48137386E+03</rscale>
<asrwt>0</asrwt>
<pdfrwt beam="1">  1       21 0.38039142E-01 0.48137386E+03</pdfrwt>
<pdfrwt beam="2">  1       21 0.18204364E+00 0.48137386E+03</pdfrwt>
<totfact> 0.97135180E+02</totfact>
</mgrwt>
</event>
<event>
 4    1  0.4832791E-002  0.4330153E+03  0.7818608E-02  0.1032912E+00
         21   -1    0    0  501  502  0.00000000000E+00  0.00000000000E+00  0.72154969396E+03  0.72154969396E+03  0.00000000000E+00 0. -1.
         21   -1    0    0  502  503 -0.00000000000E+00 -0.00000000000E+00 -0.30348480566E+03  0.30348480566E+03  0.00000000000E+00 0. -1.
    9000007    1    1    2  501    0 -0.11104593669E+03 -0.12317071766E+03  0.14718243560E+02  0.43326533722E+03  0.40000000000E+03 0. -1.
   -9000007    1    1    2    0  503  0.11104593669E+03  0.12317071766E+03  0.40334664474E+03  0.59176916240E+03  0.40000000000E+03 0. -1.
<mgrwt>
<rscale>  2 0.43301527E+03</rscale>
<asrwt>0</asrwt>
<pdfrwt beam="1">  1       21 0.11100765E+00 0.43301527E+03</pdfrwt>
<pdfrwt beam="2">  1       21 0.46689970E-01 0.43301527E+03</pdfrwt>
<totfact> 0.24422165E+03</totfact>
</mgrwt>
</event>
<event>
 4    1  0.4832791E-002  0.4514767E+03  0.7818608E-02  0.1027283E+00
         21   -1    0    0  503  502  0.00000000000E+00  0.00000000000E+00  0.29947672772E+04  0.29947672772E+04  0.00000000000E+00 0.  1.
         21   -1    0    0  501  503 -0.00000000000E+00 -0.00000000000E+00 -0.92852364483E+02  0.92852364483E+02  0.00000000000E+00 0.  1.
    9000007    1    1    2  501    0  0.14335047654E+03 -0.15258401704E+03  0.65326643602E+03  0.79409588704E+03  0.40000000000E+03 0.  1.
   -9000007    1    1    2    0  502 -0.14335047654E+03  0.15258401704E+03  0.22486484767E+04  0.22935237546E+04  0.40000000000E+03 0.  1.
<mgrwt>
<rscale>  2 0.45147673E+03</rscale>
<asrwt>0</asrwt>
<pdfrwt beam="1">  1       21 0.46073335E+00 0.45147673E+03</pdfrwt>
<pdfrwt beam="2">  1       21 0.14284981E-01 0.45147673E+03</pdfrwt>
<totfact> 0.11343031E+02</totfact>
</mgrwt>
</event>
<event>
 4    1  0.4832791E-002  0.4267158E+03  0.7818608E-02  0.1034902E+00
         21   -1    0    0  501  502  0.00000000000E+00  0.00000000000E+00  0.15293217886E+04  0.15293217886E+04  0.00000000000E+00 0.  1.
         21   -1    0    0  502  503 -0.00000000000E+00 -0.00000000000E+00 -0.16563896697E+03  0.16563896697E+03  0.00000000000E+00 0.  1.
    9000007    1    1    2  501    0 -0.58087618944E+02  0.13679253826E+03  0.11312352454E+04  0.12090407563E+04  0.40000000000E+03 0.  1.
   -9000007    1    1    2    0  503  0.58087618944E+02 -0.13679253826E+03  0.23244757625E+03  0.48591999928E+03  0.40000000000E+03 0.  1.
<mgrwt>
<rscale>  2 0.42671580E+03</rscale>
<asrwt>0</asrwt>
<pdfrwt beam="1">  1       21 0.23528027E+00 0.42671580E+03</pdfrwt>
<pdfrwt beam="2">  1       21 0.25482919E-01 0.42671580E+03</pdfrwt>
<totfact> 0.99090090E+02</totfact>
</mgrwt>
</event>
<event>
 4    1  0.4832791E-002  0.4424918E+03  0.7818608E-02  0.1029985E+00
         21   -1    0    0  503  502  0.00000000000E+00  0.00000000000E+00  0.92676508893E+03  0.92676508893E+03  0.00000000000E+00 0.  1.
         21   -1    0    0  501  503 -0.00000000000E+00 -0.00000000000E+00 -0.21127272392E+03  0.21127272392E+03  0.00000000000E+00 0. -1.
    9000007    1    1    2  501    0 -0.13635575462E+03 -0.13117200529E+03  0.35915367029E+03  0.56990380388E+03  0.40000000000E+03 0.  1.
   -9000007    1    1    2    0  502  0.13635575462E+03  0.13117200529E+03  0.35633869472E+03  0.56813400897E+03  0.40000000000E+03 0.  1.
<mgrwt>
<rscale>  2 0.44249179E+03</rscale>
<asrwt>0</asrwt>
<pdfrwt beam="1">  1       21 0.14257924E+00 0.44249179E+03</pdfrwt>
<pdfrwt beam="2">  1       21 0.32503496E-01 0.44249179E+03</pdfrwt>
<totfact> 0.26881972E+03</totfact>
</mgrwt>
</event>
<event>
 4    1  0.4832791E-002  0.4900553E+03  0.7818608E-02  0.1016408E+00
         21   -1    0    0  503  502  0.00000000000E+00  0.00000000000E+00  0.12588736277E+04  0.12588736277E+04  0.00000000000E+00 0.  1.
         21   -1    0    0  501  503 -0.00000000000E+00 -0.00000000000E+00 -0.21646454736E+03  0.21646454736E+03  0.00000000000E+00 0.  1.
    9000007    1    1    2  501    0  0.22682629994E+03  0.16942272153E+03  0.26705108446E+03  0.55809543147E+03  0.40000000000E+03 0.  1.
   -9000007    1    1    2    0  502 -0.22682629994E+03 -0.16942272153E+03  0.77535799590E+03  0.91724274362E+03  0.40000000000E+03 0.  1.
<mgrwt>
<rscale>  2 0.49005533E+03</rscale>
<asrwt>0</asrwt>
<pdfrwt beam="1">  1       21 0.19367286E+00 0.49005533E+03</pdfrwt>
<pdfrwt beam="2">  1       21 0.33302239E-01 0.49005533E+03</pdfrwt>
<totfact> 0.10539491E+03</totfact>
</mgrwt>
</event>
<event>
 4    1  0.4832791E-002  0.4353505E+03  0.7818608E-02  0.1032183E+00
         21   -1    0    0  503  502  0.00000000000E+00  0.00000000000E+00  0.56385800557E+03  0.56385800557E+03  0.00000000000E+00 0. -1.
         21   -1    0    0  501  503 -0.00000000000E+00 -0.00000000000E+00 -0.57172805009E+03  0.57172805009E+03  0.00000000000E+00 0. -1.
    9000007    1    1    2  501    0  0.73809185780E+02  0.15518450916E+03 -0.36842067501E+03  0.57031905243E+03  0.40000000000E+03 0. -1.
   -9000007    1    1    2    0  502 -0.73809185780E+02 -0.15518450916E+03  0.36055063049E+03  0.56526700323E+03  0.40000000000E+03 0. -1.
<mgrwt>
<rscale>  2 0.43535047E+03</rscale>
<asrwt>0</asrwt>
<pdfrwt beam="1">  1       21 0.86747386E-01 0.43535047E+03</pdfrwt>
<pdfrwt beam="2">  1       21 0.87958161E-01 0.43535047E+03</pdfrwt>
<totfact> 0.10858051E+03</totfact>
</mgrwt>
</event>
<event>
 4    1  0.4832791E-002  0.4752911E+03  0.7818608E-02  0.1020437E+00
         21   -1    0    0  501  502  0.00000000000E+00  0.00000000000E+00  0.31578269055E+03  0.31578269055E+03  0.00000000000E+00 0.  1.
         21   -1    0    0  502  503 -0.00000000000E+00 -0.00000000000E+00 -0.79203884518E+03  0.79203884518E+03  0.00000000000E+00 0.  1.
    9000007    1    1    2  501    0 -0.63931519825E+02  0.24862491817E+03 -0.65792517529E+02  0.47982313880E+03  0.40000000000E+03 0.  1.
   -9000007    1    1    2    0  503  0.63931519825E+02 -0.24862491817E+03 -0.41046363711E+03  0.62799839693E+03  0.40000000000E+03 0.  1.
<mgrwt>
<rscale>  2 0.47529106E+03</rscale>
<asrwt>0</asrwt>
<pdfrwt beam="1">  1       21 0.48581952E-01 0.47529106E+03</pdfrwt>
<pdfrwt beam="2">  1       21 0.12185213E+00 0.47529106E+03</pdfrwt>
<totfact> 0.17481760E+03</totfact>
</mgrwt>
</event>
<event>
 4    1  0.4832791E-002  0.6150445E+03  0.7818608E-02  0.9874676E-01
         21   -1    0    0  501  502  0.00000000000E+00  0.00000000000E+00  0.40316336759E+03  0.40316336759E+03  0.00000000000E+00 0. -1.
         21   -1    0    0  502  503 -0.00000000000E+00 -0.00000000000E+00 -0.10480510916E+04  0.10480510916E+04  0.00000000000E+00 0.  1.
    9000007    1    1    2  501    0  0.46611704659E+03 -0.31852774389E+02 -0.55727541313E+03  0.82996119574E+03  0.40000000000E+03 0.  1.
   -9000007    1    1    2    0  503 -0.46611704659E+03  0.31852774389E+02 -0.87612310908E+02  0.62125326348E+03  0.40000000000E+03 0. -1.
<mgrwt>
<rscale>  2 0.61504447E+03</rscale>
<asrwt>0</asrwt>
<pdfrwt beam="1">  1       21 0.62025135E-01 0.61504447E+03</pdfrwt>
<pdfrwt beam="2">  1       21 0.16123863E+00 0.61504447E+03</pdfrwt>
<totfact> 0.46286666E+02</totfact>
</mgrwt>
</event>
<event>
 4    1  0.4832791E-002  0.5184924E+03  0.7818608E-02  0.1009062E+00
         21   -1    0    0  503  502  0.00000000000E+00  0.00000000000E+00  0.28091782612E+03  0.28091782612E+03  0.00000000000E+00 0. -1.
         21   -1    0    0  501  503 -0.00000000000E+00 -0.00000000000E+00 -0.16134698782E+04  0.16134698782E+04  0.00000000000E+00 0.  1.
    9000007    1    1    2  501    0 -0.31045062491E+03  0.11160087794E+03 -0.12704618994E+04  0.13721908703E+04  0.40000000000E+03 0.  1.
   -9000007    1    1    2    0  502  0.31045062491E+03 -0.11160087794E+03 -0.62090152643E+02  0.52219683408E+03  0.40000000000E+03 0. -1.
<mgrwt>
<rscale>  2 0.51849238E+03</rscale>
<asrwt>0</asrwt>
<pdfrwt beam="1">  1       21 0.43218127E-01 0.51849238E+03</pdfrwt>
<pdfrwt beam="2">  1       21 0.24822613E+00 0.51849238E+03</pdfrwt>
<totfact> 0.27148061E+02</totfact>
</mgrwt>
</event>
<event>
 4    1  0.4832791E-002  0.4370464E+03  0.7818608E-02  0.1031657E+00
         21   -1    0    0  503  502  0.00000000000E+00  0.00000000000E+00  0.24004057555E+04  0.24004057555E+04  0.00000000000E+00 0.  1.
         21   -1    0    0  501  503 -0.00000000000E+00 -0.00000000000E+00 -0.85188809801E+02  0.85188809801E+02  0.00000000000E+00 0.  1.
    9000007    1    1    2  501    0 -0.11647863595E+03  0.13206932575E+03  0.83854175191E+03  0.94560131617E+03  0.40000000000E+03 0.  1.
   -9000007    1    1    2    0  502  0.11647863595E+03 -0.13206932575E+03  0.14766751938E+04  0.15399932491E+04  0.40000000000E+03 0.  1.
<mgrwt>
<rscale>  2 0.43704643E+03</rscale>
<asrwt>0</asrwt>
<pdfrwt beam="1">  1       21 0.36929314E+00 0.43704643E+03</pdfrwt>
<pdfrwt beam="2">  1       21 0.13105973E-01 0.43704643E+03</pdfrwt>
<totfact> 0.52985874E+02</totfact>
</mgrwt>
</event>
<event>
 4    1  0.4832791E-002  0.5056037E+03  0.7818608E-02  0.1012327E+00
         21   -1    0    0  503  502  0.00000000000E+00  0.00000000000E+00  0.34437757632E+03  0.34437757632E+03  0.00000000000E+00 0. -1.
         21   -1    0    0  501  503 -0.00000000000E+00 -0.00000000000E+00 -0.11275940692E+04  0.11275940692E+04  0.00000000000E+00 0.  1.
    9000007    1    1    2  501    0 -0.30799199941E+03  0.27857700284E+02 -0.82182096800E+03  0.96489627765E+03  0.40000000000E+03 0.  1.
   -9000007    1    1    2    0  502  0.30799199941E+03 -0.27857700284E+02  0.38604475153E+02  0.50707536784E+03  0.40000000000E+03 0. -1.
<mgrwt>
<rscale>  2 0.50560372E+03</rscale>
<asrwt>0</asrwt>
<pdfrwt beam="1">  1       21 0.52981166E-01 0.50560372E+03</pdfrwt>
<pdfrwt beam="2">  1       21 0.17347601E+00 0.50560372E+03</pdfrwt>
<totfact> 0.55217237E+02</totfact>
</mgrwt>
</event>
<event>
 4    1  0.4832791E-002  0.4201238E+03  0.7818608E-02  0.1037026E+00
         21   -1    0    0  503  502  0.00000000000E+00  0.00000000000E+00  0.26550680961E+03  0.26550680961E+03  0.00000000000E+00 0. -1.
         21   -1    0    0  501  503 -0.00000000000E+00 -0.00000000000E+00 -0.87131254593E+03  0.87131254593E+03  0.00000000000E+00 0. -1.
    9000007    1    1    2  501    0 -0.36468030340E+02 -0.12318318774E+03 -0.57963981988E+03  0.71588150959E+03  0.40000000000E+03 0. -1.
   -9000007    1    1    2    0  502  0.36468030340E+02  0.12318318774E+03 -0.26165916437E+02  0.42093784596E+03  0.40000000000E+03 0. -1.
<mgrwt>
<rscale>  2 0.42012381E+03</rscale>
<asrwt>0</asrwt>
<pdfrwt beam="1">  1       21 0.40847202E-01 0.42012381E+03</pdfrwt>
<pdfrwt beam="2">  1       21 0.13404808E+00 0.42012381E+03</pdfrwt>
<totfact> 0.20065709E+03</totfact>
</mgrwt>
</event>
<event>
 4    1  0.4832791E-002  0.4662180E+03  0.7818608E-02  0.1022993E+00
         21   -1    0    0  501  502  0.00000000000E+00  0.00000000000E+00  0.38992035527E+03  0.38992035527E+03  0.00000000000E+00 0.  1.
         21   -1    0    0  502  503 -0.00000000000E+00 -0.00000000000E+00 -0.61256211858E+03  0.61256211858E+03  0.00000000000E+00 0. -1.
    9000007    1    1    2  501    0  0.23519323702E+03 -0.45203654627E+02  0.39032847029E+02  0.46784911273E+03  0.40000000000E+03 0.  1.
   -9000007    1    1    2    0  503 -0.23519323702E+03  0.45203654627E+02 -0.26167461034E+03  0.53463336113E+03  0.40000000000E+03 0. -1.
<mgrwt>
<rscale>  2 0.46621801E+03</rscale>
<asrwt>0</asrwt>
<pdfrwt beam="1">  1       21 0.59987747E-01 0.46621801E+03</pdfrwt>
<pdfrwt beam="2">  1       21 0.94240326E-01 0.46621801E+03</pdfrwt>
<totfact> 0.21012204E+03</totfact>
</mgrwt>
</event>
<event>
 4    1  0.4832791E-002  0.8302547E+03  0.7818608E-02  0.9517228E-01
         21   -1    0    0  503  502  0.00000000000E+00  0.00000000000E+00  0.33296651991E+03  0.33296651991E+03  0.00000000000E+00 0. -1.
         21   -1    0    0  501  503 -0.00000000000E+00 -0.00000000000E+00 -0.23882432678E+04  0.23882432678E+04  0.00000000000E+00 0.  1.
    9000007    1    1    2  501    0  0.19069285004E+03 -0.70211049414E+03 -0.15241207314E+04  0.17355883477E+04  0.40000000000E+03 0.  1.
   -9000007    1    1    2    0  502 -0.19069285004E+03  0.70211049414E+03 -0.53115601651E+03  0.98562143996E+03  0.40000000000E+03 0. -1.
<mgrwt>
<rscale>  2 0.83025473E+03</rscale>
<asrwt>0</asrwt>
<pdfrwt beam="1">  1       21 0.51225621E-01 0.83025473E+03</pdfrwt>
<pdfrwt beam="2">  1       21 0.36742202E+00 0.83025473E+03</pdfrwt>
<totfact> 0.30497073E+01</totfact>
</mgrwt>
</event>
<event>
 4    1  0.4832791E-002  0.4045613E+03  0.7818608E-02  0.1042212E+00
         21   -1    0    0  503  502  0.00000000000E+00  0.00000000000E+00  0.88052899850E+03  0.88052899850E+03  0.00000000000E+00 0.  1.
         21   -1    0    0  501  503 -0.00000000000E+00 -0.00000000000E+00 -0.25717651833E+03  0.25717651833E+03  0.00000000000E+00 0.  1.
    9000007    1    1    2  501    0  0.14704265710E+02 -0.58767822960E+02  0.12154563600E+02  0.40474387687E+03  0.40000000000E+03 0.  1.
   -9000007    1    1    2    0  502 -0.14704265710E+02  0.58767822960E+02  0.61119791657E+03  0.73296163996E+03  0.40000000000E+03 0.  1.
<mgrwt>
<rscale>  2 0.40456133E+03</rscale>
<asrwt>0</asrwt>
<pdfrwt beam="1">  1       21 0.13546600E+00 0.40456133E+03</pdfrwt>
<pdfrwt beam="2">  1       21 0.39565619E-01 0.40456133E+03</pdfrwt>
<totfact> 0.20984520E+03</totfact>
</mgrwt>
</event>
<event>
 4    1  0.4832791E-002  0.4495374E+03  0.7818608E-02  0.1027860E+00
         21   -1    0    0  503  502  0.00000000000E+00  0.00000000000E+00  0.24938273953E+04  0.24938273953E+04  0.00000000000E+00 0. -1.
         21   -1    0    0  501  503 -0.00000000000E+00 -0.00000000000E+00 -0.11032609508E+03  0.11032609508E+03  0.00000000000E+00 0. -1.
    9000007    1    1    2  501    0  0.14046084812E+03 -0.14951476910E+03  0.52082355419E+03  0.68799788563E+03  0.40000000000E+03 0. -1.
   -9000007    1    1    2    0  502 -0.14046084812E+03  0.14951476910E+03  0.18626777460E+04  0.19161556047E+04  0.40000000000E+03 0. -1.
<mgrwt>
<rscale>  2 0.44953745E+03</rscale>
<asrwt>0</asrwt>
<pdfrwt beam="1">  1       21 0.38366571E+00 0.44953745E+03</pdfrwt>
<pdfrwt beam="2">  1       21 0.16973247E-01 0.44953745E+03</pdfrwt>
<totfact> 0.26448954E+02</totfact>
</mgrwt>
</event>
<event>
 4    1  0.4832791E-002  0.4386927E+03  0.7818608E-02  0.1031149E+00
         21   -1    0    0  503  502  0.00000000000E+00  0.00000000000E+00  0.41385731597E+03  0.41385731597E+03  0.00000000000E+00 0. -1.
         21   -1    0    0  501  503 -0.00000000000E+00 -0.00000000000E+00 -0.46549400616E+03  0.46549400616E+03  0.00000000000E+00 0. -1.
    9000007    1    1    2  501    0  0.15026846856E+03 -0.99351183314E+02 -0.11764492400E+02  0.43885039997E+03  0.40000000000E+03 0.  1.
   -9000007    1    1    2    0  502 -0.15026846856E+03  0.99351183314E+02 -0.39872197787E+02  0.44050092216E+03  0.40000000000E+03 0.  1.
<mgrwt>
<rscale>  2 0.43869268E+03</rscale>
<asrwt>0</asrwt>
<pdfrwt beam="1">  1       21 0.63670356E-01 0.43869268E+03</pdfrwt>
<pdfrwt beam="2">  1       21 0.71614463E-01 0.43869268E+03</pdfrwt>
<totfact> 0.35231085E+03</totfact>
</mgrwt>
</event>
<event>
 4    1  0.4832791E-002  0.4221672E+03  0.7818608E-02  0.1036363E+00
         21   -1    0    0  503  502  0.00000000000E+00  0.00000000000E+00  0.10923399217E+04  0.10923399217E+04  0.00000000000E+00 0.  1.
         21   -1    0    0  501  503 -0.00000000000E+00 -0.00000000000E+00 -0.21829640143E+03  0.21829640143E+03  0.00000000000E+00 0.  1.
    9000007    1    1    2  501    0 -0.11319390752E+03 -0.73568047959E+02  0.10767608996E+03  0.43568252057E+03  0.40000000000E+03 0.  1.
   -9000007    1    1    2    0  502  0.11319390752E+03  0.73568047959E+02  0.76636743030E+03  0.87495380256E+03  0.40000000000E+03 0.  1.
<mgrwt>
<rscale>  2 0.42216717E+03</rscale>
<asrwt>0</asrwt>
<pdfrwt beam="1">  1       21 0.16805229E+00 0.42216717E+03</pdfrwt>
<pdfrwt beam="2">  1       21 0.33584062E-01 0.42216717E+03</pdfrwt>
<totfact> 0.16161079E+03</totfact>
</mgrwt>
</event>
<event>
 4    1  0.4832791E-002  0.4755606E+03  0.7818608E-02  0.1020362E+00
         21   -1    0    0  503  502  0.00000000000E+00  0.00000000000E+00  0.26879051762E+03  0.26879051762E+03  0.00000000000E+00 0.  1.
         21   -1    0    0  501  503 -0.00000000000E+00 -0.00000000000E+00 -0.12138694600E+04  0.12138694600E+04  0.00000000000E+00 0.  1.
    9000007    1    1    2  501    0 -0.85321812592E+02 -0.24264799707E+03 -0.88319368969E+03  0.10030897047E+04  0.40000000000E+03 0.  1.
   -9000007    1    1    2    0  502  0.85321812592E+02  0.24264799707E+03 -0.61885252720E+02  0.47957027294E+03  0.40000000000E+03 0.  1.
<mgrwt>
<rscale>  2 0.47556058E+03</rscale>
<asrwt>0</asrwt>
<pdfrwt beam="1">  1       21 0.41352386E-01 0.47556058E+03</pdfrwt>
<pdfrwt beam="2">  1       21 0.18674915E+00 0.47556058E+03</pdfrwt>
<totfact> 0.76022724E+02</totfact>
</mgrwt>
</event>
<event>
 4    1  0.4832791E-002  0.4243024E+03  0.7818608E-02  0.1035675E+00
         21   -1    0    0  501  502  0.00000000000E+00  0.00000000000E+00  0.44499620864E+03  0.44499620864E+03  0.00000000000E+00 0. -1.
         21   -1    0    0  502  503 -0.00000000000E+00 -0.00000000000E+00 -0.47175352096E+03  0.47175352096E+03  0.00000000000E+00 0.  1.
    9000007    1    1    2  501    0 -0.12478858297E+03  0.66785704977E+02  0.15959965816E+03  0.45332612071E+03  0.40000000000E+03 0.  1.
   -9000007    1    1    2    0  503  0.12478858297E+03 -0.66785704977E+02 -0.18635697048E+03  0.46342360889E+03  0.40000000000E+03 0.  1.
<mgrwt>
<rscale>  2 0.42430239E+03</rscale>
<asrwt>0</asrwt>
<pdfrwt beam="1">  1       21 0.68460955E-01 0.42430239E+03</pdfrwt>
<pdfrwt beam="2">  1       21 0.72577464E-01 0.42430239E+03</pdfrwt>
<totfact> 0.29237619E+03</totfact>
</mgrwt>
</event>
<event>
 4    1  0.4832791E-002  0.4172171E+03  0.7818608E-02  0.1037976E+00
         21   -1    0    0  503  502  0.00000000000E+00  0.00000000000E+00  0.11435943401E+04  0.11435943401E+04  0.00000000000E+00 0.  1.
         21   -1    0    0  501  503 -0.00000000000E+00 -0.00000000000E+00 -0.21483288680E+03  0.21483288680E+03  0.00000000000E+00 0.  1.
    9000007    1    1    2  501    0  0.10213770425E+03 -0.60316087823E+02  0.83108121178E+03  0.92992801961E+03  0.40000000000E+03 0.  1.
   -9000007    1    1    2    0  502 -0.10213770425E+03  0.60316087823E+02  0.97680241532E+02  0.42849920731E+03  0.40000000000E+03 0.  1.
<mgrwt>
<rscale>  2 0.41721714E+03</rscale>
<asrwt>0</asrwt>
<pdfrwt beam="1">  1       21 0.17593759E+00 0.41721714E+03</pdfrwt>
<pdfrwt beam="2">  1       21 0.33051214E-01 0.41721714E+03</pdfrwt>
<totfact> 0.14673435E+03</totfact>
</mgrwt>
</event>
<event>
 4    1  0.4832791E-002  0.4194749E+03  0.7818608E-02  0.1037237E+00
         21   -1    0    0  501  502  0.00000000000E+00  0.00000000000E+00  0.75385304162E+03  0.75385304162E+03  0.00000000000E+00 0.  1.
         21   -1    0    0  502  503 -0.00000000000E+00 -0.00000000000E+00 -0.24842148686E+03  0.24842148686E+03  0.00000000000E+00 0.  1.
    9000007    1    1    2  501    0  0.21876823892E+02 -0.12442115307E+03  0.12953915393E+03  0.43902119670E+03  0.40000000000E+03 0.  1.
   -9000007    1    1    2    0  503 -0.21876823892E+02  0.12442115307E+03  0.37589240083E+03  0.56325333178E+03  0.40000000000E+03 0.  1.
<mgrwt>
<rscale>  2 0.41947493E+03</rscale>
<asrwt>0</asrwt>
<pdfrwt beam="1">  1       21 0.11597739E+00 0.41947493E+03</pdfrwt>
<pdfrwt beam="2">  1       21 0.38218691E-01 0.41947493E+03</pdfrwt>
<totfact> 0.33340324E+03</totfact>
</mgrwt>
</event>
<event>
 4    1  0.4832791E-002  0.4954136E+03  0.7818608E-02  0.1014983E+00
         21   -1    0    0  503  502  0.00000000000E+00  0.00000000000E+00  0.11026820988E+04  0.11026820988E+04  0.00000000000E+00 0. -1.
         21   -1    0    0  501  503 -0.00000000000E+00 -0.00000000000E+00 -0.59977114974E+03  0.59977114974E+03  0.00000000000E+00 0. -1.
    9000007    1    1    2  501    0 -0.13668143240E+03 -0.25836563436E+03 -0.42359049957E+03  0.65181556157E+03  0.40000000000E+03 0. -1.
   -9000007    1    1    2    0  502  0.13668143240E+03  0.25836563436E+03  0.92650144864E+03  0.10506376870E+04  0.40000000000E+03 0. -1.
<mgrwt>
<rscale>  2 0.49541358E+03</rscale>
<asrwt>0</asrwt>
<pdfrwt beam="1">  1       21 0.16964340E+00 0.49541358E+03</pdfrwt>
<pdfrwt beam="2">  1       21 0.92272485E-01 0.49541358E+03</pdfrwt>
<totfact> 0.16865480E+02</totfact>
</mgrwt>
</event>
<event>
 4    1  0.4832791E-002  0.4250344E+03  0.7818608E-02  0.1035440E+00
         21   -1    0    0  503  502  0.00000000000E+00  0.00000000000E+00  0.20236088617E+03  0.20236088617E+03  0.00000000000E+00 0. -1.
         21   -1    0    0  501  503 -0.00000000000E+00 -0.00000000000E+00 -0.15295659220E+04  0.15295659220E+04  0.00000000000E+00 0. -1.
    9000007    1    1    2  501    0  0.45530492427E+02  0.13631282939E+03 -0.12223662888E+04  0.12941536065E+04  0.40000000000E+03 0. -1.
   -9000007    1    1    2    0  502 -0.45530492427E+02 -0.13631282939E+03 -0.10483874698E+03  0.43777320163E+03  0.40000000000E+03 0. -1.
<mgrwt>
<rscale>  2 0.42503437E+03</rscale>
<asrwt>0</asrwt>
<pdfrwt beam="1">  1       21 0.31132444E-01 0.42503437E+03</pdfrwt>
<pdfrwt beam="2">  1       21 0.23531784E+00 0.42503437E+03</pdfrwt>
<totfact> 0.66810166E+02</totfact>
</mgrwt>
</event>
<event>
 4    1  0.4832791E-002  0.4941328E+03  0.7818608E-02  0.1015322E+00
         21   -1    0    0  503  502  0.00000000000E+00  0.00000000000E+00  0.67090485877E+03  0.67090485877E+03  0.00000000000E+00 0.  1.
         21   -1    0    0  501  503 -0.00000000000E+00 -0.00000000000E+00 -0.40195424749E+03  0.40195424749E+03  0.00000000000E+00 0.  1.
    9000007    1    1    2  501    0 -0.21852183306E+02 -0.28929171034E+03 -0.30498040595E+02  0.49507306740E+03  0.40000000000E+03 0.  1.
   -9000007    1    1    2    0  502  0.21852183306E+02  0.28929171034E+03  0.29944865188E+03  0.57778603885E+03  0.40000000000E+03 0.  1.
<mgrwt>
<rscale>  2 0.49413279E+03</rscale>
<asrwt>0</asrwt>
<pdfrwt beam="1">  1       21 0.10321613E+00 0.49413279E+03</pdfrwt>
<pdfrwt beam="2">  1       21 0.61839115E-01 0.49413279E+03</pdfrwt>
<totfact> 0.15603456E+03</totfact>
</mgrwt>
</event>
<event>
 4    1  0.4832791E-002  0.4038397E+03  0.7818608E-02  0.1042458E+00
         21   -1    0    0  503  502  0.00000000000E+00  0.00000000000E+00  0.66157711166E+03  0.66157711166E+03  0.00000000000E+00 0.  1.
         21   -1    0    0  501  503 -0.00000000000E+00 -0.00000000000E+00 -0.44705715098E+03  0.44705715098E+03  0.00000000000E+00 0.  1.
    9000007    1    1    2  501    0 -0.48646207653E+02  0.26833220246E+02 -0.26400434789E+03  0.48247774138E+03  0.40000000000E+03 0.  1.
   -9000007    1    1    2    0  502  0.48646207653E+02 -0.26833220246E+02  0.47852430856E+03  0.62615652125E+03  0.40000000000E+03 0.  1.
<mgrwt>
<rscale>  2 0.40383967E+03</rscale>
<asrwt>0</asrwt>
<pdfrwt beam="1">  1       21 0.10178109E+00 0.40383967E+03</pdfrwt>
<pdfrwt beam="2">  1       21 0.68778023E-01 0.40383967E+03</pdfrwt>
<totfact> 0.13213911E+03</totfact>
</mgrwt>
</event>
<event>
 4    1  0.4832791E-002  0.6276418E+03  0.7818608E-02  0.9849661E-01
         21   -1    0    0  503  502  0.00000000000E+00  0.00000000000E+00  0.26776626138E+03  0.26776626138E+03  0.00000000000E+00 0.  1.
         21   -1    0    0  501  503 -0.00000000000E+00 -0.00000000000E+00 -0.14925498403E+04  0.14925498403E+04  0.00000000000E+00 0. -1.
    9000007    1    1    2  501    0 -0.45429226397E+03  0.16599030104E+03 -0.50709241182E+03  0.80689339771E+03  0.40000000000E+03 0.  1.
   -9000007    1    1    2    0  502  0.45429226397E+03 -0.16599030104E+03 -0.71769116714E+03  0.95342270402E+03  0.40000000000E+03 0. -1.
<mgrwt>
<rscale>  2 0.62764181E+03</rscale>
<asrwt>0</asrwt>
<pdfrwt beam="1">  1       21 0.41194810E-01 0.62764181E+03</pdfrwt>
<pdfrwt beam="2">  1       21 0.22962305E+00 0.62764181E+03</pdfrwt>
<totfact> 0.37528735E+02</totfact>
</mgrwt>
</event>
<event>
 4    1  0.4832791E-002  0.4106251E+03  0.7818608E-02  0.1040161E+00
         21   -1    0    0  503  502  0.00000000000E+00  0.00000000000E+00  0.53046827423E+03  0.53046827423E+03  0.00000000000E+00 0.  1.
         21   -1    0    0  501  503 -0.00000000000E+00 -0.00000000000E+00 -0.35633626279E+03  0.35633626279E+03  0.00000000000E+00 0.  1.
    9000007    1    1    2  501    0 -0.90693947021E+02  0.19686464521E+02  0.23277366860E+03  0.47201327281E+03  0.40000000000E+03 0.  1.
   -9000007    1    1    2    0  502  0.90693947021E+02 -0.19686464521E+02 -0.58641657166E+02  0.41479126421E+03  0.40000000000E+03 0.  1.
<mgrwt>
<rscale>  2 0.41062507E+03</rscale>
<asrwt>0</asrwt>
<pdfrwt beam="1">  1       21 0.81610504E-01 0.41062507E+03</pdfrwt>
<pdfrwt beam="2">  1       21 0.54820963E-01 0.41062507E+03</pdfrwt>
<totfact> 0.36600031E+03</totfact>
</mgrwt>
</event>
<event>
 4    1  0.4832791E-002  0.4551877E+03  0.7818608E-02  0.1026186E+00
         21   -1    0    0  501  502  0.00000000000E+00  0.00000000000E+00  0.54355607027E+03  0.54355607027E+03  0.00000000000E+00 0. -1.
         21   -1    0    0  502  503 -0.00000000000E+00 -0.00000000000E+00 -0.46126064745E+03  0.46126064745E+03  0.00000000000E+00 0. -1.
    9000007    1    1    2  501    0  0.12560998443E+03 -0.17725116471E+03  0.25047785612E+03  0.51955269222E+03  0.40000000000E+03 0. -1.
   -9000007    1    1    2    0  503 -0.12560998443E+03  0.17725116471E+03 -0.16818243330E+03  0.48526402551E+03  0.40000000000E+03 0. -1.
<mgrwt>
<rscale>  2 0.45518770E+03</rscale>
<asrwt>0</asrwt>
<pdfrwt beam="1">  1       21 0.83624011E-01 0.45518770E+03</pdfrwt>
<pdfrwt beam="2">  1       21 0.70963176E-01 0.45518770E+03</pdfrwt>
<totfact> 0.19253935E+03</totfact>
</mgrwt>
</event>
<event>
 4    1  0.4832791E-002  0.4102728E+03  0.7818608E-02  0.1040279E+00
         21   -1    0    0  503  502  0.00000000000E+00  0.00000000000E+00  0.36807312024E+03  0.36807312024E+03  0.00000000000E+00 0.  1.
         21   -1    0    0  501  503 -0.00000000000E+00 -0.00000000000E+00 -0.81646869032E+03  0.81646869032E+03  0.00000000000E+00 0.  1.
    9000007    1    1    2  501    0  0.84044686621E+02 -0.35500727096E+02  0.16862198826E+03  0.44357320241E+03  0.40000000000E+03 0.  1.
   -9000007    1    1    2    0  502 -0.84044686621E+02  0.35500727096E+02 -0.61701755833E+03  0.74096860815E+03  0.40000000000E+03 0.  1.
<mgrwt>
<rscale>  2 0.41027285E+03</rscale>
<asrwt>0</asrwt>
<pdfrwt beam="1">  1       21 0.56626634E-01 0.41027285E+03</pdfrwt>
<pdfrwt beam="2">  1       21 0.12561057E+00 0.41027285E+03</pdfrwt>
<totfact> 0.11959380E+03</totfact>
</mgrwt>
</event>
<event>
 4    1  0.4832791E-002  0.5810128E+03  0.7818608E-02  0.9945601E-01
         21   -1    0    0  503  502  0.00000000000E+00  0.00000000000E+00  0.13630788108E+04  0.13630788108E+04  0.00000000000E+00 0.  1.
         21   -1    0    0  501  503 -0.00000000000E+00 -0.00000000000E+00 -0.24771884687E+03  0.24771884687E+03  0.00000000000E+00 0.  1.
    9000007    1    1    2  501    0  0.20645162117E+03  0.36736035202E+03  0.57041415355E+03  0.81421631444E+03  0.40000000000E+03 0.  1.
   -9000007    1    1    2    0  502 -0.20645162117E+03 -0.36736035202E+03  0.54494581034E+03  0.79658134320E+03  0.40000000000E+03 0.  1.
<mgrwt>
<rscale>  2 0.58101282E+03</rscale>
<asrwt>0</asrwt>
<pdfrwt beam="1">  1       21 0.20970443E+00 0.58101282E+03</pdfrwt>
<pdfrwt beam="2">  1       21 0.38110593E-01 0.58101282E+03</pdfrwt>
<totfact> 0.60381923E+02</totfact>
</mgrwt>
</event>
<event>
 4    1  0.4832791E-002  0.5014946E+03  0.7818608E-02  0.1013390E+00
         21   -1    0    0  501  502  0.00000000000E+00  0.00000000000E+00  0.51218651521E+03  0.51218651521E+03  0.00000000000E+00 0. -1.
         21   -1    0    0  502  503 -0.00000000000E+00 -0.00000000000E+00 -0.49607963506E+03  0.49607963506E+03  0.00000000000E+00 0.  1.
    9000007    1    1    2  501    0 -0.13580050722E+03 -0.27028704788E+03  0.58936583223E+02  0.50494592469E+03  0.40000000000E+03 0. -1.
   -9000007    1    1    2    0  503  0.13580050722E+03  0.27028704788E+03 -0.42829703072E+02  0.50332022558E+03  0.40000000000E+03 0. -1.
<mgrwt>
<rscale>  2 0.50149463E+03</rscale>
<asrwt>0</asrwt>
<pdfrwt beam="1">  1       21 0.78797926E-01 0.50149463E+03</pdfrwt>
<pdfrwt beam="2">  1       21 0.76319944E-01 0.50149463E+03</pdfrwt>
<totfact> 0.18421666E+03</totfact>
</mgrwt>
</event>
<event>
 4    1  0.4832791E-002  0.4648093E+03  0.7818608E-02  0.1023396E+00
         21   -1    0    0  503  502  0.00000000000E+00  0.00000000000E+00  0.51516943542E+03  0.51516943542E+03  0.00000000000E+00 0.  1.
         21   -1    0    0  501  503 -0.00000000000E+00 -0.00000000000E+00 -0.43454136797E+03  0.43454136797E+03  0.00000000000E+00 0.  1.
    9000007    1    1    2  501    0 -0.22852286243E+03 -0.61846473350E+02 -0.48407331479E+02  0.46732318010E+03  0.40000000000E+03 0.  1.
   -9000007    1    1    2    0  502  0.22852286243E+03  0.61846473350E+02  0.12903539893E+03  0.48238762328E+03  0.40000000000E+03 0.  1.
<mgrwt>
<rscale>  2 0.46480930E+03</rscale>
<asrwt>0</asrwt>
<pdfrwt beam="1">  1       21 0.79256836E-01 0.46480930E+03</pdfrwt>
<pdfrwt beam="2">  1       21 0.66852518E-01 0.46480930E+03</pdfrwt>
<totfact> 0.24846115E+03</totfact>
</mgrwt>
</event>
<event>
 4    1  0.4832791E-002  0.4493323E+03  0.7818608E-02  0.1027921E+00
         21   -1    0    0  503  502  0.00000000000E+00  0.00000000000E+00  0.62462294630E+03  0.62462294630E+03  0.00000000000E+00 0.  1.
         21   -1    0    0  501  503 -0.00000000000E+00 -0.00000000000E+00 -0.50798934359E+03  0.50798934359E+03  0.00000000000E+00 0.  1.
    9000007    1    1    2  501    0  0.80268514816E+02 -0.18829897881E+03 -0.28320793443E+03  0.53113677524E+03  0.40000000000E+03 0.  1.
   -9000007    1    1    2    0  502 -0.80268514816E+02  0.18829897881E+03  0.39984153714E+03  0.60147551465E+03  0.40000000000E+03 0.  1.
<mgrwt>
<rscale>  2 0.44933233E+03</rscale>
<asrwt>0</asrwt>
<pdfrwt beam="1">  1       21 0.96095838E-01 0.44933233E+03</pdfrwt>
<pdfrwt beam="2">  1       21 0.78152207E-01 0.44933233E+03</pdfrwt>
<totfact> 0.11145801E+03</totfact>
</mgrwt>
</event>
<event>
 4    1  0.4832791E-002  0.4110203E+03  0.7818608E-02  0.1040029E+00
         21   -1    0    0  501  502  0.00000000000E+00  0.00000000000E+00  0.67865881755E+02  0.67865881755E+02  0.00000000000E+00 0. -1.
         21   -1    0    0  502  503 -0.00000000000E+00 -0.00000000000E+00 -0.28760705793E+04  0.28760705793E+04  0.00000000000E+00 0. -1.
    9000007    1    1    2  501    0  0.76299667349E+02 -0.55821424171E+02 -0.86430273456E+03  0.95705636595E+03  0.40000000000E+03 0.  1.
   -9000007    1    1    2    0  503 -0.76299667349E+02  0.55821424171E+02 -0.19439019629E+04  0.19868800951E+04  0.40000000000E+03 0.  1.
<mgrwt>
<rscale>  2 0.41102028E+03</rscale>
<asrwt>0</asrwt>
<pdfrwt beam="1">  1       21 0.10440906E-01 0.41102028E+03</pdfrwt>
<pdfrwt beam="2">  1       21 0.44247235E+00 0.41102028E+03</pdfrwt>
<totfact> 0.27492179E+02</totfact>
</mgrwt>
</event>
<event>
 4    1  0.4832791E-002  0.4814701E+03  0.7818608E-02  0.1018732E+00
         21   -1    0    0  503  502  0.00000000000E+00  0.00000000000E+00  0.25489105318E+03  0.25489105318E+03  0.00000000000E+00 0. -1.
         21   -1    0    0  501  503 -0.00000000000E+00 -0.00000000000E+00 -0.10287482933E+04  0.10287482933E+04  0.00000000000E+00 0.  1.
    9000007    1    1    2  501    0  0.17621115376E+02 -0.26740030023E+03 -0.16837606151E+03  0.51006266513E+03  0.40000000000E+03 0. -1.
   -9000007    1    1    2    0  502 -0.17621115376E+02  0.26740030023E+03 -0.60548117860E+03  0.77357668134E+03  0.40000000000E+03 0. -1.
<mgrwt>
<rscale>  2 0.48147007E+03</rscale>
<asrwt>0</asrwt>
<pdfrwt beam="1">  1       21 0.39214008E-01 0.48147007E+03</pdfrwt>
<pdfrwt beam="2">  1       21 0.15826897E+00 0.48147007E+03</pdfrwt>
<totfact> 0.13613350E+03</totfact>
</mgrwt>
</event>
<event>
 4    1  0.4832791E-002  0.5433001E+03  0.7818608E-02  0.1003057E+00
         21   -1    0    0  503  502  0.00000000000E+00  0.00000000000E+00  0.53699549791E+03  0.53699549791E+03  0.00000000000E+00 0.  1.
         21   -1    0    0  501  503 -0.00000000000E+00 -0.00000000000E+00 -0.55188604668E+03  0.55188604668E+03  0.00000000000E+00 0.  1.
    9000007    1    1    2  501    0  0.19092232853E+03 -0.31420319790E+03 -0.41877222338E+02  0.54491163215E+03  0.40000000000E+03 0.  1.
   -9000007    1    1    2    0  502 -0.19092232853E+03  0.31420319790E+03  0.26986673571E+02  0.54396991245E+03  0.40000000000E+03 0.  1.
<mgrwt>
<rscale>  2 0.54330009E+03</rscale>
<asrwt>0</asrwt>
<pdfrwt beam="1">  1       21 0.82614692E-01 0.54330009E+03</pdfrwt>
<pdfrwt beam="2">  1       21 0.84905545E-01 0.54330009E+03</pdfrwt>
<totfact> 0.12710378E+03</totfact>
</mgrwt>
</event>
<event>
 4    1  0.4832791E-002  0.4740443E+03  0.7818608E-02  0.1020785E+00
         21   -1    0    0  503  502  0.00000000000E+00  0.00000000000E+00  0.87721467269E+03  0.87721467269E+03  0.00000000000E+00 0. -1.
         21   -1    0    0  501  503 -0.00000000000E+00 -0.00000000000E+00 -0.48561363902E+03  0.48561363902E+03  0.00000000000E+00 0.  1.
    9000007    1    1    2  501    0 -0.12418385622E+03 -0.22202777852E+03 -0.27258309820E+03  0.54682676416E+03  0.40000000000E+03 0.  1.
   -9000007    1    1    2    0  502  0.12418385622E+03  0.22202777852E+03  0.66418413186E+03  0.81600154755E+03  0.40000000000E+03 0. -1.
<mgrwt>
<rscale>  2 0.47404426E+03</rscale>
<asrwt>0</asrwt>
<pdfrwt beam="1">  1       21 0.13495610E+00 0.47404426E+03</pdfrwt>
<pdfrwt beam="2">  1       21 0.74709791E-01 0.47404426E+03</pdfrwt>
<totfact> 0.52141126E+02</totfact>
</mgrwt>
</event>
<event>
 4    1  0.4832791E-002  0.4732125E+03  0.7818608E-02  0.1021017E+00
         21   -1    0    0  503  502  0.00000000000E+00  0.00000000000E+00  0.12855793543E+04  0.12855793543E+04  0.00000000000E+00 0. -1.
         21   -1    0    0  501  503 -0.00000000000E+00 -0.00000000000E+00 -0.17426484804E+03  0.17426484804E+03  0.00000000000E+00 0. -1.
    9000007    1    1    2  501    0  0.13485301684E+03  0.21388023756E+03  0.54014376107E+03  0.71811236920E+03  0.40000000000E+03 0. -1.
   -9000007    1    1    2    0  502 -0.13485301684E+03 -0.21388023756E+03  0.57117074523E+03  0.74173183319E+03  0.40000000000E+03 0. -1.
<mgrwt>
<rscale>  2 0.47321252E+03</rscale>
<asrwt>0</asrwt>
<pdfrwt beam="1">  1       21 0.19778143E+00 0.47321252E+03</pdfrwt>
<pdfrwt beam="2">  1       21 0.26809977E-01 0.47321252E+03</pdfrwt>
<totfact> 0.15325391E+03</totfact>
</mgrwt>
</event>
<event>
 4    1  0.4832791E-002  0.4386500E+03  0.7818608E-02  0.1031162E+00
         21   -1    0    0  503  502  0.00000000000E+00  0.00000000000E+00  0.51141748974E+03  0.51141748974E+03  0.00000000000E+00 0. -1.
         21   -1    0    0  501  503 -0.00000000000E+00 -0.00000000000E+00 -0.44229503807E+03  0.44229503807E+03  0.00000000000E+00 0.  1.
    9000007    1    1    2  501    0  0.42642329476E+02  0.17491556190E+03 -0.14972658362E+03  0.46349959213E+03  0.40000000000E+03 0.  1.
   -9000007    1    1    2    0  502 -0.42642329476E+02 -0.17491556190E+03  0.21884903530E+03  0.49021293568E+03  0.40000000000E+03 0. -1.
<mgrwt>
<rscale>  2 0.43865000E+03</rscale>
<asrwt>0</asrwt>
<pdfrwt beam="1">  1       21 0.78679613E-01 0.43865000E+03</pdfrwt>
<pdfrwt beam="2">  1       21 0.68045391E-01 0.43865000E+03</pdfrwt>
<totfact> 0.24519581E+03</totfact>
</mgrwt>
</event>
<event>
 4    1  0.4832791E-002  0.4195697E+03  0.7818608E-02  0.1037206E+00
         21   -1    0    0  501  502  0.00000000000E+00  0.00000000000E+00  0.59485851615E+03  0.59485851615E+03  0.00000000000E+00 0.  1.
         21   -1    0    0  502  503 -0.00000000000E+00 -0.00000000000E+00 -0.29743501240E+03  0.29743501240E+03  0.00000000000E+00 0. -1.
    9000007    1    1    2  501    0  0.16767356656E+02 -0.12552907702E+03  0.11701502796E+03  0.43558146218E+03  0.40000000000E+03 0.  1.
   -9000007    1    1    2    0  503 -0.16767356656E+02  0.12552907702E+03  0.18040847579E+03  0.45671206636E+03  0.40000000000E+03 0. -1.
<mgrwt>
<rscale>  2 0.41956965E+03</rscale>
<asrwt>0</asrwt>
<pdfrwt beam="1">  1       21 0.91516694E-01 0.41956965E+03</pdfrwt>
<pdfrwt beam="2">  1       21 0.45759233E-01 0.41956965E+03</pdfrwt>
<totfact> 0.40939180E+03</totfact>
</mgrwt>
</event>
<event>
 4    1  0.4832791E-002  0.4094274E+03  0.7818608E-02  0.1040563E+00
         21   -1    0    0  501  502  0.00000000000E+00  0.00000000000E+00  0.74830752722E+03  0.74830752722E+03  0.00000000000E+00 0. -1.
         21   -1    0    0  502  503 -0.00000000000E+00 -0.00000000000E+00 -0.31697774840E+03  0.31697774840E+03  0.00000000000E+00 0. -1.
    9000007    1    1    2  501    0  0.57146687476E+02  0.66068683591E+02  0.50412121230E+03  0.64943745775E+03  0.40000000000E+03 0. -1.
   -9000007    1    1    2    0  503 -0.57146687476E+02 -0.66068683591E+02 -0.72791433467E+02  0.41584781787E+03  0.40000000000E+03 0. -1.
<mgrwt>
<rscale>  2 0.40942742E+03</rscale>
<asrwt>0</asrwt>
<pdfrwt beam="1">  1       21 0.11512423E+00 0.40942742E+03</pdfrwt>
<pdfrwt beam="2">  1       21 0.48765808E-01 0.40942742E+03</pdfrwt>
<totfact> 0.20543399E+03</totfact>
</mgrwt>
</event>
<event>
 4    1  0.4832791E-002  0.4485458E+03  0.7818608E-02  0.1028157E+00
         21   -1    0    0  503  502  0.00000000000E+00  0.00000000000E+00  0.44659888762E+03  0.44659888762E+03  0.00000000000E+00 0. -1.
         21   -1    0    0  501  503 -0.00000000000E+00 -0.00000000000E+00 -0.54410770335E+03  0.54410770335E+03  0.00000000000E+00 0.  1.
    9000007    1    1    2  501    0  0.18484544114E+03 -0.83818171517E+02 -0.25421365478E+03  0.51557531483E+03  0.40000000000E+03 0.  1.
   -9000007    1    1    2    0  502 -0.18484544114E+03  0.83818171517E+02  0.15670483905E+03  0.47513127614E+03  0.40000000000E+03 0. -1.
<mgrwt>
<rscale>  2 0.44854579E+03</rscale>
<asrwt>0</asrwt>
<pdfrwt beam="1">  1       21 0.68707522E-01 0.44854579E+03</pdfrwt>
<pdfrwt beam="2">  1       21 0.83708877E-01 0.44854579E+03</pdfrwt>
<totfact> 0.20708603E+03</totfact>
</mgrwt>
</event>
<event>
 4    1  0.4832791E-002  0.4349336E+03  0.7818608E-02  0.1032313E+00
         21   -1    0    0  503  502  0.00000000000E+00  0.00000000000E+00  0.15642825654E+04  0.15642825654E+04  0.00000000000E+00 0. -1.
         21   -1    0    0  501  503 -0.00000000000E+00 -0.00000000000E+00 -0.28296219903E+03  0.28296219903E+03  0.00000000000E+00 0. -1.
    9000007    1    1    2  501    0 -0.17019388716E+03 -0.14185827801E+02 -0.58267400283E+02  0.43881919611E+03  0.40000000000E+03 0. -1.
   -9000007    1    1    2    0  502  0.17019388716E+03  0.14185827801E+02  0.13395877667E+04  0.14084255684E+04  0.40000000000E+03 0. -1.
<mgrwt>
<rscale>  2 0.43493355E+03</rscale>
<asrwt>0</asrwt>
<pdfrwt beam="1">  1       21 0.24065885E+00 0.43493355E+03</pdfrwt>
<pdfrwt beam="2">  1       21 0.43532647E-01 0.43493355E+03</pdfrwt>
<totfact> 0.31106954E+02</totfact>
</mgrwt>
</event>
<event>
 4    1  0.4832791E-002  0.4278704E+03  0.7818608E-02  0.1034535E+00
         21   -1    0    0  503  502  0.00000000000E+00  0.00000000000E+00  0.11664588886E+04  0.11664588886E+04  0.00000000000E+00 0. -1.
         21   -1    0    0  501  503 -0.00000000000E+00 -0.00000000000E+00 -0.16836226830E+03  0.16836226830E+03  0.00000000000E+00 0. -1.
    9000007    1    1    2  501    0  0.15126872335E+03  0.13813773813E+02  0.32526809591E+03  0.53746849324E+03  0.40000000000E+03 0. -1.
   -9000007    1    1    2    0  502 -0.15126872335E+03 -0.13813773813E+02  0.67282852441E+03  0.79735266367E+03  0.40000000000E+03 0. -1.
<mgrwt>
<rscale>  2 0.42787036E+03</rscale>
<asrwt>0</asrwt>
<pdfrwt beam="1">  1       21 0.17945521E+00 0.42787036E+03</pdfrwt>
<pdfrwt beam="2">  1       21 0.25901888E-01 0.42787036E+03</pdfrwt>
<totfact> 0.22335872E+03</totfact>
</mgrwt>
</event>
<event>
 4    1  0.4832791E-002  0.5165772E+03  0.7818608E-02  0.1009540E+00
         21   -1    0    0  503  502  0.00000000000E+00  0.00000000000E+00  0.26981991764E+03  0.26981991764E+03  0.00000000000E+00 0.  1.
         21   -1    0    0  501  503 -0.00000000000E+00 -0.00000000000E+00 -0.28344101436E+04  0.28344101436E+04  0.00000000000E+00 0.  1.
    9000007    1    1    2  501    0 -0.23175157668E+03 -0.23052817441E+03 -0.25346832671E+04  0.25867878338E+04  0.40000000000E+03 0.  1.
   -9000007    1    1    2    0  502  0.23175157668E+03  0.23052817441E+03 -0.29906958773E+02  0.51744222738E+03  0.40000000000E+03 0.  1.
<mgrwt>
<rscale>  2 0.51657723E+03</rscale>
<asrwt>0</asrwt>
<pdfrwt beam="1">  1       21 0.41510758E-01 0.51657723E+03</pdfrwt>
<pdfrwt beam="2">  1       21 0.43606308E+00 0.51657723E+03</pdfrwt>
<totfact> 0.19900254E+01</totfact>
</mgrwt>
</event>
<event>
 4    1  0.4832791E-002  0.4285640E+03  0.7818608E-02  0.1034315E+00
         21   -1    0    0  501  502  0.00000000000E+00  0.00000000000E+00  0.29965710899E+03  0.29965710899E+03  0.00000000000E+00 0.  1.
         21   -1    0    0  502  503 -0.00000000000E+00 -0.00000000000E+00 -0.69947375542E+03  0.69947375542E+03  0.00000000000E+00 0.  1.
    9000007    1    1    2  501    0 -0.12368047615E+03 -0.91489081914E+02 -0.37563550058E+03  0.56988520036E+03  0.40000000000E+03 0.  1.
   -9000007    1    1    2    0  503  0.12368047615E+03  0.91489081914E+02 -0.24181145840E+02  0.42924566405E+03  0.40000000000E+03 0.  1.
<mgrwt>
<rscale>  2 0.42856401E+03</rscale>
<asrwt>0</asrwt>
<pdfrwt beam="1">  1       21 0.46101094E-01 0.42856401E+03</pdfrwt>
<pdfrwt beam="2">  1       21 0.10761135E+00 0.42856401E+03</pdfrwt>
<totfact> 0.27134513E+03</totfact>
</mgrwt>
</event>
<event>
 4    1  0.4832791E-002  0.4492593E+03  0.7818608E-02  0.1027943E+00
         21   -1    0    0  501  502  0.00000000000E+00  0.00000000000E+00  0.77767394302E+03  0.77767394302E+03  0.00000000000E+00 0.  1.
         21   -1    0    0  502  503 -0.00000000000E+00 -0.00000000000E+00 -0.25959015706E+03  0.25959015706E+03  0.00000000000E+00 0. -1.
    9000007    1    1    2  501    0 -0.64816682433E+02 -0.19399149201E+03  0.25150799318E+03  0.51486908232E+03  0.40000000000E+03 0.  1.
   -9000007    1    1    2    0  503  0.64816682433E+02  0.19399149201E+03  0.26657579278E+03  0.52239501777E+03  0.40000000000E+03 0.  1.
<mgrwt>
<rscale>  2 0.44925928E+03</rscale>
<asrwt>0</asrwt>
<pdfrwt beam="1">  1       21 0.11964214E+00 0.44925928E+03</pdfrwt>
<pdfrwt beam="2">  1       21 0.39936948E-01 0.44925928E+03</pdfrwt>
<totfact> 0.27855807E+03</totfact>
</mgrwt>
</event>
<event>
 4    1  0.4832791E-002  0.4718894E+03  0.7818608E-02  0.1021388E+00
         21   -1    0    0  503  502  0.00000000000E+00  0.00000000000E+00  0.14872896087E+04  0.14872896087E+04  0.00000000000E+00 0. -1.
         21   -1    0    0  501  503 -0.00000000000E+00 -0.00000000000E+00 -0.21674623409E+03  0.21674623409E+03  0.00000000000E+00 0.  1.
    9000007    1    1    2  501    0 -0.21455192632E+03  0.12902348094E+03  0.16147750612E+03  0.49875301774E+03  0.40000000000E+03 0.  1.
   -9000007    1    1    2    0  502  0.21455192632E+03 -0.12902348094E+03  0.11090658685E+04  0.12052828251E+04  0.40000000000E+03 0. -1.
<mgrwt>
<rscale>  2 0.47188938E+03</rscale>
<asrwt>0</asrwt>
<pdfrwt beam="1">  1       21 0.22881378E+00 0.47188938E+03</pdfrwt>
<pdfrwt beam="2">  1       21 0.33345575E-01 0.47188938E+03</pdfrwt>
<totfact> 0.62461925E+02</totfact>
</mgrwt>
</event>
<event>
 4    1  0.4832791E-002  0.4379263E+03  0.7818608E-02  0.1031385E+00
         21   -1    0    0  503  502  0.00000000000E+00  0.00000000000E+00  0.14673421854E+04  0.14673421854E+04  0.00000000000E+00 0. -1.
         21   -1    0    0  501  503 -0.00000000000E+00 -0.00000000000E+00 -0.16649389112E+03  0.16649389112E+03  0.00000000000E+00 0. -1.
    9000007    1    1    2  501    0  0.62844043389E+02  0.16682335315E+03  0.27163898074E+03  0.51533206848E+03  0.40000000000E+03 0.  1.
   -9000007    1    1    2    0  502 -0.62844043389E+02 -0.16682335315E+03  0.10292093135E+04  0.11185040081E+04  0.40000000000E+03 0.  1.
<mgrwt>
<rscale>  2 0.43792626E+03</rscale>
<asrwt>0</asrwt>
<pdfrwt beam="1">  1       21 0.22574494E+00 0.43792626E+03</pdfrwt>
<pdfrwt beam="2">  1       21 0.25614446E-01 0.43792626E+03</pdfrwt>
<totfact> 0.11197309E+03</totfact>
</mgrwt>
</event>
<event>
 4    1  0.4832791E-002  0.4518290E+03  0.7818608E-02  0.1027178E+00
         21   -1    0    0  503  502  0.00000000000E+00  0.00000000000E+00  0.53463573919E+03  0.53463573919E+03  0.00000000000E+00 0.  1.
         21   -1    0    0  501  503 -0.00000000000E+00 -0.00000000000E+00 -0.56488895398E+03  0.56488895398E+03  0.00000000000E+00 0.  1.
    9000007    1    1    2  501    0 -0.14205421394E+03 -0.15482267192E+03 -0.32807150160E+03  0.55837296640E+03  0.40000000000E+03 0.  1.
   -9000007    1    1    2    0  502  0.14205421394E+03  0.15482267192E+03  0.29781828681E+03  0.54115172678E+03  0.40000000000E+03 0.  1.
<mgrwt>
<rscale>  2 0.45182902E+03</rscale>
<asrwt>0</asrwt>
<pdfrwt beam="1">  1       21 0.82251652E-01 0.45182902E+03</pdfrwt>
<pdfrwt beam="2">  1       21 0.86905993E-01 0.45182902E+03</pdfrwt>
<totfact> 0.12563422E+03</totfact>
</mgrwt>
</event>
<event>
 4    1  0.4832791E-002  0.5612012E+03  0.7818608E-02  0.9989340E-01
         21   -1    0    0  503  502  0.00000000000E+00  0.00000000000E+00  0.17979675657E+04  0.17979675657E+04  0.00000000000E+00 0. -1.
         21   -1    0    0  501  503 -0.00000000000E+00 -0.00000000000E+00 -0.22054835554E+03  0.22054835554E+03  0.00000000000E+00 0. -1.
    9000007    1    1    2  501    0  0.35902631912E+03  0.16139034138E+03  0.33090172144E+03  0.65149266256E+03  0.40000000000E+03 0. -1.
   -9000007    1    1    2    0  502 -0.35902631912E+03 -0.16139034138E+03  0.12465174887E+04  0.13670232587E+04  0.40000000000E+03 0. -1.
<mgrwt>
<rscale>  2 0.56120116E+03</rscale>
<asrwt>0</asrwt>
<pdfrwt beam="1">  1       21 0.27661039E+00 0.56120116E+03</pdfrwt>
<pdfrwt beam="2">  1       21 0.33930517E-01 0.56120116E+03</pdfrwt>
<totfact> 0.29311104E+02</totfact>
</mgrwt>
</event>
<event>
 4    1  0.4832791E-002  0.4111535E+03  0.7818608E-02  0.1039985E+00
         21   -1    0    0  503  502  0.00000000000E+00  0.00000000000E+00  0.80142703103E+02  0.80142703103E+02  0.00000000000E+00 0. -1.
         21   -1    0    0  501  503 -0.00000000000E+00 -0.00000000000E+00 -0.24953280700E+04  0.24953280700E+04  0.00000000000E+00 0.  1.
    9000007    1    1    2  501    0 -0.20573524809E+01  0.95094372331E+02 -0.17140665305E+04  0.17626886405E+04  0.40000000000E+03 0.  1.
   -9000007    1    1    2    0  502  0.20573524809E+01 -0.95094372331E+02 -0.70111883645E+03  0.81278213266E+03  0.40000000000E+03 0. -1.
<mgrwt>
<rscale>  2 0.41115347E+03</rscale>
<asrwt>0</asrwt>
<pdfrwt beam="1">  1       21 0.12329647E-01 0.41115347E+03</pdfrwt>
<pdfrwt beam="2">  1       21 0.38389661E+00 0.41115347E+03</pdfrwt>
<totfact> 0.48812723E+02</totfact>
</mgrwt>
</event>
<event>
 4    1  0.4832791E-002  0.5582477E+03  0.7818608E-02  0.9996027E-01
         21   -1    0    0  503  502  0.00000000000E+00  0.00000000000E+00  0.33282779915E+03  0.33282779915E+03  0.00000000000E+00 0.  1.
         21   -1    0    0  501  503 -0.00000000000E+00 -0.00000000000E+00 -0.14169648443E+04  0.14169648443E+04  0.00000000000E+00 0.  1.
    9000007    1    1    2  501    0  0.37517001384E+03 -0.10434558303E+03 -0.10516098370E+04  0.11905980805E+04  0.40000000000E+03 0.  1.
   -9000007    1    1    2    0  502 -0.37517001384E+03  0.10434558303E+03 -0.32527208161E+02  0.55919456297E+03  0.40000000000E+03 0.  1.
<mgrwt>
<rscale>  2 0.55824774E+03</rscale>
<asrwt>0</asrwt>
<pdfrwt beam="1">  1       21 0.51204278E-01 0.55824774E+03</pdfrwt>
<pdfrwt beam="2">  1       21 0.21799459E+00 0.55824774E+03</pdfrwt>
<totfact> 0.28924240E+02</totfact>
</mgrwt>
</event>
<event>
 4    1  0.4832791E-002  0.4070583E+03  0.7818608E-02  0.1041363E+00
         21   -1    0    0  501  502  0.00000000000E+00  0.00000000000E+00  0.95984942397E+03  0.95984942397E+03  0.00000000000E+00 0.  1.
         21   -1    0    0  502  503 -0.00000000000E+00 -0.00000000000E+00 -0.85880355488E+03  0.85880355488E+03  0.00000000000E+00 0.  1.
    9000007    1    1    2  501    0 -0.74370353155E+02 -0.12863650814E+02  0.86333604449E+03  0.95448706050E+03  0.40000000000E+03 0.  1.
   -9000007    1    1    2    0  503  0.74370353155E+02  0.12863650814E+02 -0.76229017540E+03  0.86416591835E+03  0.40000000000E+03 0.  1.
<mgrwt>
<rscale>  2 0.40705825E+03</rscale>
<asrwt>0</asrwt>
<pdfrwt beam="1">  1       21 0.14766914E+00 0.40705825E+03</pdfrwt>
<pdfrwt beam="2">  1       21 0.13212363E+00 0.40705825E+03</pdfrwt>
<totfact> 0.10636679E+02</totfact>
</mgrwt>
</event>
<event>
 4    1  0.4832791E-002  0.4256391E+03  0.7818608E-02  0.1035246E+00
         21   -1    0    0  503  502  0.00000000000E+00  0.00000000000E+00  0.18534275356E+04  0.18534275356E+04  0.00000000000E+00 0. -1.
         21   -1    0    0  501  503 -0.00000000000E+00 -0.00000000000E+00 -0.16317654559E+03  0.16317654559E+03  0.00000000000E+00 0. -1.
    9000007    1    1    2  501    0  0.53855043171E+02  0.13516016771E+03  0.20664774601E+03  0.47315106208E+03  0.40000000000E+03 0. -1.
   -9000007    1    1    2    0  502 -0.53855043171E+02 -0.13516016771E+03  0.14836032440E+04  0.15434530191E+04  0.40000000000E+03 0. -1.
<mgrwt>
<rscale>  2 0.42563909E+03</rscale>
<asrwt>0</asrwt>
<pdfrwt beam="1">  1       21 0.28514268E+00 0.42563909E+03</pdfrwt>
<pdfrwt beam="2">  1       21 0.25104085E-01 0.42563909E+03</pdfrwt>
<totfact> 0.50742030E+02</totfact>
</mgrwt>
</event>
<event>
 4    1  0.4832791E-002  0.4713917E+03  0.7818608E-02  0.1021528E+00
         21   -1    0    0  501  502  0.00000000000E+00  0.00000000000E+00  0.43089136991E+03  0.43089136991E+03  0.00000000000E+00 0. -1.
         21   -1    0    0  502  503 -0.00000000000E+00 -0.00000000000E+00 -0.52255633978E+03  0.52255633978E+03  0.00000000000E+00 0. -1.
    9000007    1    1    2  501    0 -0.18050066193E+02 -0.24876563429E+03  0.87792179608E+01  0.47147345669E+03  0.40000000000E+03 0. -1.
   -9000007    1    1    2    0  503  0.18050066193E+02  0.24876563429E+03 -0.10044418784E+03  0.48197425301E+03  0.40000000000E+03 0. -1.
<mgrwt>
<rscale>  2 0.47139171E+03</rscale>
<asrwt>0</asrwt>
<pdfrwt beam="1">  1       21 0.66290980E-01 0.47139171E+03</pdfrwt>
<pdfrwt beam="2">  1       21 0.80393283E-01 0.47139171E+03</pdfrwt>
<totfact> 0.24442573E+03</totfact>
</mgrwt>
</event>
<event>
 4    1  0.4832791E-002  0.8074663E+03  0.7818608E-02  0.9549272E-01
         21   -1    0    0  501  502  0.00000000000E+00  0.00000000000E+00  0.64134815455E+03  0.64134815455E+03  0.00000000000E+00 0.  1.
         21   -1    0    0  502  503 -0.00000000000E+00 -0.00000000000E+00 -0.10334958747E+04  0.10334958747E+04  0.00000000000E+00 0. -1.
    9000007    1    1    2  501    0 -0.41612619740E+03 -0.56465997942E+03 -0.89037190323E+02  0.81236046542E+03  0.40000000000E+03 0. -1.
   -9000007    1    1    2    0  503  0.41612619740E+03  0.56465997942E+03 -0.30311052978E+03  0.86248356378E+03  0.40000000000E+03 0.  1.
<mgrwt>
<rscale>  2 0.80746635E+03</rscale>
<asrwt>0</asrwt>
<pdfrwt beam="1">  1       21 0.98668947E-01 0.80746635E+03</pdfrwt>
<pdfrwt beam="2">  1       21 0.15899936E+00 0.80746635E+03</pdfrwt>
<totfact> 0.15409344E+02</totfact>
</mgrwt>
</event>
<event>
 4    1  0.4832791E-002  0.5402217E+03  0.7818608E-02  0.1003783E+00
         21   -1    0    0  503  502  0.00000000000E+00  0.00000000000E+00  0.37118710517E+03  0.37118710517E+03  0.00000000000E+00 0. -1.
         21   -1    0    0  501  503 -0.00000000000E+00 -0.00000000000E+00 -0.80213224747E+03  0.80213224747E+03  0.00000000000E+00 0. -1.
    9000007    1    1    2  501    0 -0.35181066795E+03  0.89826118615E+02 -0.13287747893E+03  0.55632355880E+03  0.40000000000E+03 0. -1.
   -9000007    1    1    2    0  502  0.35181066795E+03 -0.89826118615E+02 -0.29806766338E+03  0.61699579384E+03  0.40000000000E+03 0. -1.
<mgrwt>
<rscale>  2 0.54022169E+03</rscale>
<asrwt>0</asrwt>
<pdfrwt beam="1">  1       21 0.57105708E-01 0.54022169E+03</pdfrwt>
<pdfrwt beam="2">  1       21 0.12340496E+00 0.54022169E+03</pdfrwt>
<totfact> 0.11684503E+03</totfact>
</mgrwt>
</event>
<event>
 4    1  0.4832791E-002  0.4142296E+03  0.7818608E-02  0.1038961E+00
         21   -1    0    0  503  502  0.00000000000E+00  0.00000000000E+00  0.82969397701E+03  0.82969397701E+03  0.00000000000E+00 0.  1.
         21   -1    0    0  501  503 -0.00000000000E+00 -0.00000000000E+00 -0.21359034816E+03  0.21359034816E+03  0.00000000000E+00 0.  1.
    9000007    1    1    2  501    0 -0.59225914889E+02 -0.89880152410E+02  0.21508707372E+03  0.46674254153E+03  0.40000000000E+03 0.  1.
   -9000007    1    1    2    0  502  0.59225914889E+02  0.89880152410E+02  0.40101655514E+03  0.57654178364E+03  0.40000000000E+03 0.  1.
<mgrwt>
<rscale>  2 0.41422959E+03</rscale>
<asrwt>0</asrwt>
<pdfrwt beam="1">  1       21 0.12764523E+00 0.41422959E+03</pdfrwt>
<pdfrwt beam="2">  1       21 0.32860054E-01 0.41422959E+03</pdfrwt>
<totfact> 0.35535792E+03</totfact>
</mgrwt>
</event>
<event>
 4    1  0.4832791E-002  0.6526159E+03  0.7818608E-02  0.9801883E-01
         21   -1    0    0  503  502  0.00000000000E+00  0.00000000000E+00  0.83193954821E+03  0.83193954821E+03  0.00000000000E+00 0. -1.
         21   -1    0    0  501  503 -0.00000000000E+00 -0.00000000000E+00 -0.54370288894E+03  0.54370288894E+03  0.00000000000E+00 0. -1.
    9000007    1    1    2  501    0 -0.41047694461E+02 -0.51402590683E+03 -0.22115141406E+02  0.65299052489E+03  0.40000000000E+03 0. -1.
   -9000007    1    1    2    0  502  0.41047694461E+02  0.51402590683E+03  0.31035180067E+03  0.72265191226E+03  0.40000000000E+03 0. -1.
<mgrwt>
<rscale>  2 0.65261593E+03</rscale>
<asrwt>0</asrwt>
<pdfrwt beam="1">  1       21 0.12799070E+00 0.65261593E+03</pdfrwt>
<pdfrwt beam="2">  1       21 0.83646598E-01 0.65261593E+03</pdfrwt>
<totfact> 0.43214611E+02</totfact>
</mgrwt>
</event>
<event>
 4    1  0.4832791E-002  0.4009628E+03  0.7818608E-02  0.1043447E+00
         21   -1    0    0  503  502  0.00000000000E+00  0.00000000000E+00  0.18706956418E+04  0.18706956418E+04  0.00000000000E+00 0. -1.
         21   -1    0    0  501  503 -0.00000000000E+00 -0.00000000000E+00 -0.30084731915E+03  0.30084731915E+03  0.00000000000E+00 0. -1.
    9000007    1    1    2  501    0 -0.19172870031E+02  0.20088310668E+02 -0.13275113315E+03  0.42236714186E+03  0.40000000000E+03 0. -1.
   -9000007    1    1    2    0  502  0.19172870031E+02 -0.20088310668E+02  0.17025994558E+04  0.17491758191E+04  0.40000000000E+03 0. -1.
<mgrwt>
<rscale>  2 0.40096277E+03</rscale>
<asrwt>0</asrwt>
<pdfrwt beam="1">  1       21 0.28779932E+00 0.40096277E+03</pdfrwt>
<pdfrwt beam="2">  1       21 0.46284204E-01 0.40096277E+03</pdfrwt>
<totfact> 0.14475138E+02</totfact>
</mgrwt>
</event>
<event>
 4    1  0.4832791E-002  0.4479626E+03  0.7818608E-02  0.1028331E+00
         21   -1    0    0  503  502  0.00000000000E+00  0.00000000000E+00  0.30261359092E+03  0.30261359092E+03  0.00000000000E+00 0. -1.
         21   -1    0    0  501  503 -0.00000000000E+00 -0.00000000000E+00 -0.66924303229E+03  0.66924303229E+03  0.00000000000E+00 0.  1.
    9000007    1    1    2  501    0  0.91219811318E+02  0.17985956352E+03 -0.13685245994E+03  0.46840058962E+03  0.40000000000E+03 0. -1.
   -9000007    1    1    2    0  502 -0.91219811318E+02 -0.17985956352E+03 -0.22977698142E+03  0.50345603359E+03  0.40000000000E+03 0.  1.
<mgrwt>
<rscale>  2 0.44796263E+03</rscale>
<asrwt>0</asrwt>
<pdfrwt beam="1">  1       21 0.46555937E-01 0.44796263E+03</pdfrwt>
<pdfrwt beam="2">  1       21 0.10296047E+00 0.44796263E+03</pdfrwt>
<totfact> 0.29419547E+03</totfact>
</mgrwt>
</event>
<event>
 4    1  0.4832791E-002  0.5711025E+03  0.7818608E-02  0.9967242E-01
         21   -1    0    0  501  502  0.00000000000E+00  0.00000000000E+00  0.33489238522E+03  0.33489238522E+03  0.00000000000E+00 0.  1.
         21   -1    0    0  502  503 -0.00000000000E+00 -0.00000000000E+00 -0.10253287711E+04  0.10253287711E+04  0.00000000000E+00 0. -1.
    9000007    1    1    2  501    0  0.88060340654E+02 -0.39799935808E+03 -0.19292864751E+03  0.60280973421E+03  0.40000000000E+03 0.  1.
   -9000007    1    1    2    0  503 -0.88060340654E+02  0.39799935808E+03 -0.49750773842E+03  0.75741142216E+03  0.40000000000E+03 0. -1.
<mgrwt>
<rscale>  2 0.57110254E+03</rscale>
<asrwt>0</asrwt>
<pdfrwt beam="1">  1       21 0.51521906E-01 0.57110254E+03</pdfrwt>
<pdfrwt beam="2">  1       21 0.15774289E+00 0.57110254E+03</pdfrwt>
<totfact> 0.74917675E+02</totfact>
</mgrwt>
</event>
<event>
 4    1  0.4832791E-002  0.4132405E+03  0.7818608E-02  0.1039289E+00
         21   -1    0    0  503  502  0.00000000000E+00  0.00000000000E+00  0.40652499010E+03  0.40652499010E+03  0.00000000000E+00 0.  1.
         21   -1    0    0  501  503 -0.00000000000E+00 -0.00000000000E+00 -0.16522714411E+04  0.16522714411E+04  0.00000000000E+00 0.  1.
    9000007    1    1    2  501    0  0.19129055250E+02  0.10198924702E+03 -0.15118370749E+04  0.15672967390E+04  0.40000000000E+03 0.  1.
   -9000007    1    1    2    0  502 -0.19129055250E+02 -0.10198924702E+03  0.26609062389E+03  0.49149969215E+03  0.40000000000E+03 0.  1.
<mgrwt>
<rscale>  2 0.41324052E+03</rscale>
<asrwt>0</asrwt>
<pdfrwt beam="1">  1       21 0.62542307E-01 0.41324052E+03</pdfrwt>
<pdfrwt beam="2">  1       21 0.25419560E+00 0.41324052E+03</pdfrwt>
<totfact> 0.11985188E+02</totfact>
</mgrwt>
</event>
<event>
 4    1  0.4832791E-002  0.4412006E+03  0.7818608E-02  0.1030379E+00
         21   -1    0    0  503  502  0.00000000000E+00  0.00000000000E+00  0.50450170345E+03  0.50450170345E+03  0.00000000000E+00 0. -1.
         21   -1    0    0  501  503 -0.00000000000E+00 -0.00000000000E+00 -0.77087834499E+03  0.77087834499E+03  0.00000000000E+00 0. -1.
    9000007    1    1    2  501    0  0.18169790071E+03  0.40544770100E+02 -0.58386750233E+03  0.73181914827E+03  0.40000000000E+03 0. -1.
   -9000007    1    1    2    0  502 -0.18169790071E+03 -0.40544770100E+02  0.31749086079E+03  0.54356090016E+03  0.40000000000E+03 0. -1.
<mgrwt>
<rscale>  2 0.44120064E+03</rscale>
<asrwt>0</asrwt>
<pdfrwt beam="1">  1       21 0.77615647E-01 0.44120064E+03</pdfrwt>
<pdfrwt beam="2">  1       21 0.11859667E+00 0.44120064E+03</pdfrwt>
<totfact> 0.67657712E+02</totfact>
</mgrwt>
</event>
<event>
 4    1  0.4832791E-002  0.4172698E+03  0.7818608E-02  0.1037959E+00
         21   -1    0    0  501  502  0.00000000000E+00  0.00000000000E+00  0.96118093288E+03  0.96118093288E+03  0.00000000000E+00 0.  1.
         21   -1    0    0  502  503 -0.00000000000E+00 -0.00000000000E+00 -0.66111269180E+03  0.66111269180E+03  0.00000000000E+00 0.  1.
    9000007    1    1    2  501    0  0.88793530683E+02  0.78929029788E+02  0.84117609223E+03  0.93898418569E+03  0.40000000000E+03 0.  1.
   -9000007    1    1    2    0  503 -0.88793530683E+02 -0.78929029788E+02 -0.54110785115E+03  0.68330943899E+03  0.40000000000E+03 0.  1.
<mgrwt>
<rscale>  2 0.41726980E+03</rscale>
<asrwt>0</asrwt>
<pdfrwt beam="1">  1       21 0.14787399E+00 0.41726980E+03</pdfrwt>
<pdfrwt beam="2">  1       21 0.10170964E+00 0.41726980E+03</pdfrwt>
<totfact> 0.20326536E+02</totfact>
</mgrwt>
</event>
<event>
 4    1  0.4832791E-002  0.4487679E+03  0.7818608E-02  0.1028090E+00
         21   -1    0    0  503  502  0.00000000000E+00  0.00000000000E+00  0.91480751227E+03  0.91480751227E+03  0.00000000000E+00 0.  1.
         21   -1    0    0  501  503 -0.00000000000E+00 -0.00000000000E+00 -0.30145557130E+03  0.30145557130E+03  0.00000000000E+00 0. -1.
    9000007    1    1    2  501    0  0.13630666729E+03  0.15104003223E+03 -0.91535104248E+01  0.44886120977E+03  0.40000000000E+03 0. -1.
   -9000007    1    1    2    0  502 -0.13630666729E+03 -0.15104003223E+03  0.62250545140E+03  0.76740187380E+03  0.40000000000E+03 0.  1.
<mgrwt>
<rscale>  2 0.44876787E+03</rscale>
<asrwt>0</asrwt>
<pdfrwt beam="1">  1       21 0.14073962E+00 0.44876787E+03</pdfrwt>
<pdfrwt beam="2">  1       21 0.46377781E-01 0.44876787E+03</pdfrwt>
<totfact> 0.13384802E+03</totfact>
</mgrwt>
</event>
<event>
 4    1  0.4832791E-002  0.7763591E+03  0.7818608E-02  0.9594881E-01
         21   -1    0    0  501  502  0.00000000000E+00  0.00000000000E+00  0.44068559041E+03  0.44068559041E+03  0.00000000000E+00 0.  1.
         21   -1    0    0  502  503 -0.00000000000E+00 -0.00000000000E+00 -0.18402341072E+04  0.18402341072E+04  0.00000000000E+00 0. -1.
    9000007    1    1    2  501    0 -0.66007137130E+03  0.83900240665E+02 -0.12187528095E+03  0.78586706872E+03  0.40000000000E+03 0.  1.
   -9000007    1    1    2    0  503  0.66007137130E+03 -0.83900240665E+02 -0.12776732359E+04  0.14950526289E+04  0.40000000000E+03 0. -1.
<mgrwt>
<rscale>  2 0.77635911E+03</rscale>
<asrwt>0</asrwt>
<pdfrwt beam="1">  1       21 0.67797783E-01 0.77635911E+03</pdfrwt>
<pdfrwt beam="2">  1       21 0.28311294E+00 0.77635911E+03</pdfrwt>
<totfact> 0.55923974E+01</totfact>
</mgrwt>
</event>
<event>
 4    1  0.4832791E-002  0.4817987E+03  0.7818608E-02  0.1018642E+00
         21   -1    0    0  501  502  0.00000000000E+00  0.00000000000E+00  0.14001110864E+04  0.14001110864E+04  0.00000000000E+00 0.  1.
         21   -1    0    0  502  503 -0.00000000000E+00 -0.00000000000E+00 -0.45291762384E+03  0.45291762384E+03  0.00000000000E+00 0.  1.
    9000007    1    1    2  501    0  0.17544920135E+03 -0.20334108244E+03  0.12112920125E+04  0.13035943992E+04  0.40000000000E+03 0.  1.
   -9000007    1    1    2    0  503 -0.17544920135E+03  0.20334108244E+03 -0.26409854995E+03  0.54943431104E+03  0.40000000000E+03 0.  1.
<mgrwt>
<rscale>  2 0.48179873E+03</rscale>
<asrwt>0</asrwt>
<pdfrwt beam="1">  1       21 0.21540170E+00 0.48179873E+03</pdfrwt>
<pdfrwt beam="2">  1       21 0.69679635E-01 0.48179873E+03</pdfrwt>
<totfact> 0.15829559E+02</totfact>
</mgrwt>
</event>
<event>
 4    1  0.4832791E-002  0.4868680E+03  0.7818608E-02  0.1017265E+00
         21   -1    0    0  501  502  0.00000000000E+00  0.00000000000E+00  0.23304481147E+03  0.23304481147E+03  0.00000000000E+00 0.  1.
         21   -1    0    0  502  503 -0.00000000000E+00 -0.00000000000E+00 -0.10823346215E+04  0.10823346215E+04  0.00000000000E+00 0.  1.
    9000007    1    1    2  501    0  0.17125188267E+03 -0.21843359549E+03 -0.26323566675E+03  0.55347399144E+03  0.40000000000E+03 0. -1.
   -9000007    1    1    2    0  503 -0.17125188267E+03  0.21843359549E+03 -0.58605414327E+03  0.76190544150E+03  0.40000000000E+03 0. -1.
<mgrwt>
<rscale>  2 0.48686799E+03</rscale>
<asrwt>0</asrwt>
<pdfrwt beam="1">  1       21 0.35853049E-01 0.48686799E+03</pdfrwt>
<pdfrwt beam="2">  1       21 0.16651301E+00 0.48686799E+03</pdfrwt>
<totfact> 0.14147536E+03</totfact>
</mgrwt>
</event>
<event>
 4    1  0.4832791E-002  0.5998953E+03  0.7818608E-02  0.9905623E-01
         21   -1    0    0  501  502  0.00000000000E+00  0.00000000000E+00  0.92564114556E+03  0.92564114556E+03  0.00000000000E+00 0.  1.
         21   -1    0    0  502  503 -0.00000000000E+00 -0.00000000000E+00 -0.48704308249E+03  0.48704308249E+03  0.00000000000E+00 0. -1.
    9000007    1    1    2  501    0 -0.36594358070E+03  0.25682611158E+03  0.53656101066E+03  0.80484288778E+03  0.40000000000E+03 0.  1.
   -9000007    1    1    2    0  503  0.36594358070E+03 -0.25682611158E+03 -0.97962947586E+02  0.60784134027E+03  0.40000000000E+03 0. -1.
<mgrwt>
<rscale>  2 0.59989529E+03</rscale>
<asrwt>0</asrwt>
<pdfrwt beam="1">  1       21 0.14240633E+00 0.59989529E+03</pdfrwt>
<pdfrwt beam="2">  1       21 0.74929705E-01 0.59989529E+03</pdfrwt>
<totfact> 0.42765942E+02</totfact>
</mgrwt>
</event>
<event>
 4    1  0.4832791E-002  0.4269886E+03  0.7818608E-02  0.1034815E+00
         21   -1    0    0  501  502  0.00000000000E+00  0.00000000000E+00  0.14377610248E+03  0.14377610248E+03  0.00000000000E+00 0. -1.
         21   -1    0    0  502  503 -0.00000000000E+00 -0.00000000000E+00 -0.13886125439E+04  0.13886125439E+04  0.00000000000E+00 0. -1.
    9000007    1    1    2  501    0 -0.14926138571E+03 -0.63487765391E+01 -0.39668020316E+03  0.58281596736E+03  0.40000000000E+03 0. -1.
   -9000007    1    1    2    0  503  0.14926138571E+03  0.63487765391E+01 -0.84815623825E+03  0.94957267900E+03  0.40000000000E+03 0. -1.
<mgrwt>
<rscale>  2 0.42698860E+03</rscale>
<asrwt>0</asrwt>
<pdfrwt beam="1">  1       21 0.22119400E-01 0.42698860E+03</pdfrwt>
<pdfrwt beam="2">  1       21 0.21363270E+00 0.42698860E+03</pdfrwt>
<totfact> 0.17865135E+03</totfact>
</mgrwt>
</event>
<event>
 4    1  0.4832791E-002  0.5981805E+03  0.7818608E-02  0.9909188E-01
         21   -1    0    0  503  502  0.00000000000E+00  0.00000000000E+00  0.57169967539E+03  0.57169967539E+03  0.00000000000E+00 0. -1.
         21   -1    0    0  501  503 -0.00000000000E+00 -0.00000000000E+00 -0.66196227870E+03  0.66196227870E+03  0.00000000000E+00 0.  1.
    9000007    1    1    2  501    0  0.57104728635E+01  0.44473288527E+03 -0.18912668520E+03  0.62736660080E+03  0.40000000000E+03 0.  1.
   -9000007    1    1    2    0  502 -0.57104728635E+01 -0.44473288527E+03  0.98864081900E+02  0.60629535330E+03  0.40000000000E+03 0. -1.
<mgrwt>
<rscale>  2 0.59818053E+03</rscale>
<asrwt>0</asrwt>
<pdfrwt beam="1">  1       21 0.87953797E-01 0.59818053E+03</pdfrwt>
<pdfrwt beam="2">  1       21 0.10184035E+00 0.59818053E+03</pdfrwt>
<totfact> 0.69616060E+02</totfact>
</mgrwt>
</event>
<event>
 4    1  0.4832791E-002  0.4190276E+03  0.7818608E-02  0.1037383E+00
         21   -1    0    0  501  502  0.00000000000E+00  0.00000000000E+00  0.24703358251E+03  0.24703358251E+03  0.00000000000E+00 0. -1.
         21   -1    0    0  502  503 -0.00000000000E+00 -0.00000000000E+00 -0.11411902294E+04  0.11411902294E+04  0.00000000000E+00 0. -1.
    9000007    1    1    2  501    0  0.11753306923E+03  0.42072675377E+02 -0.20796652116E+02  0.41954336262E+03  0.40000000000E+03 0. -1.
   -9000007    1    1    2    0  503 -0.11753306923E+03 -0.42072675377E+02 -0.87335999479E+03  0.96868044931E+03  0.40000000000E+03 0. -1.
<mgrwt>
<rscale>  2 0.41902760E+03</rscale>
<asrwt>0</asrwt>
<pdfrwt beam="1">  1       21 0.38005167E-01 0.41902760E+03</pdfrwt>
<pdfrwt beam="2">  1       21 0.17556773E+00 0.41902760E+03</pdfrwt>
<totfact> 0.11118542E+03</totfact>
</mgrwt>
</event>
<event>
 4    1  0.4832791E-002  0.4389001E+03  0.7818608E-02  0.1031085E+00
         21   -1    0    0  503  502  0.00000000000E+00  0.00000000000E+00  0.17331928517E+04  0.17331928517E+04  0.00000000000E+00 0.  1.
         21   -1    0    0  501  503 -0.00000000000E+00 -0.00000000000E+00 -0.11119105961E+03  0.11119105961E+03  0.00000000000E+00 0. -1.
    9000007    1    1    2  501    0 -0.97791047693E+00  0.18064425303E+03  0.83005215104E+03  0.93894615176E+03  0.40000000000E+03 0.  1.
   -9000007    1    1    2    0  502  0.97791047693E+00 -0.18064425303E+03  0.79194964107E+03  0.90543775957E+03  0.40000000000E+03 0.  1.
<mgrwt>
<rscale>  2 0.43890011E+03</rscale>
<asrwt>0</asrwt>
<pdfrwt beam="1">  1       21 0.26664504E+00 0.43890011E+03</pdfrwt>
<pdfrwt beam="2">  1       21 0.17106318E-01 0.43890011E+03</pdfrwt>
<totfact> 0.13541481E+03</totfact>
</mgrwt>
</event>
<event>
 4    1  0.4832791E-002  0.5099550E+03  0.7818608E-02  0.1011213E+00
         21   -1    0    0  501  502  0.00000000000E+00  0.00000000000E+00  0.12538476252E+04  0.12538476252E+04  0.00000000000E+00 0. -1.
         21   -1    0    0  502  503 -0.00000000000E+00 -0.00000000000E+00 -0.25824710921E+03  0.25824710921E+03  0.00000000000E+00 0. -1.
    9000007    1    1    2  501    0 -0.80529342918E+02 -0.30589066218E+03  0.83326255222E+03  0.97692402632E+03  0.40000000000E+03 0. -1.
   -9000007    1    1    2    0  503  0.80529342918E+02  0.30589066218E+03  0.16233796372E+03  0.53517070804E+03  0.40000000000E+03 0. -1.
<mgrwt>
<rscale>  2 0.50995497E+03</rscale>
<asrwt>0</asrwt>
<pdfrwt beam="1">  1       21 0.19289963E+00 0.50995497E+03</pdfrwt>
<pdfrwt beam="2">  1       21 0.39730325E-01 0.50995497E+03</pdfrwt>
<totfact> 0.73847886E+02</totfact>
</mgrwt>
</event>
<event>
 4    1  0.4832791E-002  0.4542801E+03  0.7818608E-02  0.1026453E+00
         21   -1    0    0  501  502  0.00000000000E+00  0.00000000000E+00  0.10707552164E+04  0.10707552164E+04  0.00000000000E+00 0.  1.
         21   -1    0    0  502  503 -0.00000000000E+00 -0.00000000000E+00 -0.54676491257E+03  0.54676491257E+03  0.00000000000E+00 0.  1.
    9000007    1    1    2  501    0 -0.19099788659E+03  0.99449732460E+02  0.91278422888E+03  0.10195810367E+04  0.40000000000E+03 0.  1.
   -9000007    1    1    2    0  503  0.19099788659E+03 -0.99449732460E+02 -0.38879392501E+03  0.59793909229E+03  0.40000000000E+03 0.  1.
<mgrwt>
<rscale>  2 0.45428014E+03</rscale>
<asrwt>0</asrwt>
<pdfrwt beam="1">  1       21 0.16473157E+00 0.45428014E+03</pdfrwt>
<pdfrwt beam="2">  1       21 0.84117679E-01 0.45428014E+03</pdfrwt>
<totfact> 0.23276333E+02</totfact>
</mgrwt>
</event>
<event>
 4    1  0.4832791E-002  0.4231470E+03  0.7818608E-02  0.1036047E+00
         21   -1    0    0  503  502  0.00000000000E+00  0.00000000000E+00  0.98134657019E+02  0.98134657019E+02  0.00000000000E+00 0. -1.
         21   -1    0    0  501  503 -0.00000000000E+00 -0.00000000000E+00 -0.21199331976E+04  0.21199331976E+04  0.00000000000E+00 0. -1.
    9000007    1    1    2  501    0 -0.10173275529E+03  0.93294167616E+02 -0.14248640596E+04  0.14863683741E+04  0.40000000000E+03 0. -1.
   -9000007    1    1    2    0  502  0.10173275529E+03 -0.93294167616E+02 -0.59693448105E+03  0.73169948057E+03  0.40000000000E+03 0. -1.
<mgrwt>
<rscale>  2 0.42314697E+03</rscale>
<asrwt>0</asrwt>
<pdfrwt beam="1">  1       21 0.15097639E-01 0.42314697E+03</pdfrwt>
<pdfrwt beam="2">  1       21 0.32614358E+00 0.42314697E+03</pdfrwt>
<totfact> 0.75623323E+02</totfact>
</mgrwt>
</event>
<event>
 4    1  0.4832791E-002  0.4521177E+03  0.7818608E-02  0.1027092E+00
         21   -1    0    0  501  502  0.00000000000E+00  0.00000000000E+00  0.14228871522E+03  0.14228871522E+03  0.00000000000E+00 0.  1.
         21   -1    0    0  502  503 -0.00000000000E+00 -0.00000000000E+00 -0.16075122122E+04  0.16075122122E+04  0.00000000000E+00 0.  1.
    9000007    1    1    2  501    0 -0.85076533622E+02  0.19280146388E+03 -0.44732482270E+03  0.63601094177E+03  0.40000000000E+03 0.  1.
   -9000007    1    1    2    0  503  0.85076533622E+02 -0.19280146388E+03 -0.10178986743E+04  0.11137899857E+04  0.40000000000E+03 0.  1.
<mgrwt>
<rscale>  2 0.45211771E+03</rscale>
<asrwt>0</asrwt>
<pdfrwt beam="1">  1       21 0.21890572E-01 0.45211771E+03</pdfrwt>
<pdfrwt beam="2">  1       21 0.24730957E+00 0.45211771E+03</pdfrwt>
<totfact> 0.11057454E+03</totfact>
</mgrwt>
</event>
<event>
 4    1  0.4832791E-002  0.5415054E+03  0.7818608E-02  0.1003479E+00
         21   -1    0    0  501  502  0.00000000000E+00  0.00000000000E+00  0.62069979772E+03  0.62069979772E+03  0.00000000000E+00 0. -1.
         21   -1    0    0  502  503 -0.00000000000E+00 -0.00000000000E+00 -0.74553721857E+03  0.74553721857E+03  0.00000000000E+00 0. -1.
    9000007    1    1    2  501    0 -0.36415059564E+03 -0.24947744474E+02  0.35104720094E+03  0.64533881299E+03  0.40000000000E+03 0. -1.
   -9000007    1    1    2    0  503  0.36415059564E+03  0.24947744474E+02 -0.47588462179E+03  0.72089820330E+03  0.40000000000E+03 0. -1.
<mgrwt>
<rscale>  2 0.54150535E+03</rscale>
<asrwt>0</asrwt>
<pdfrwt beam="1">  1       21 0.95492276E-01 0.54150535E+03</pdfrwt>
<pdfrwt beam="2">  1       21 0.11469803E+00 0.54150535E+03</pdfrwt>
<totfact> 0.43381515E+02</totfact>
</mgrwt>
</event>
<event>
 4    1  0.4832791E-002  0.6000828E+03  0.7818608E-02  0.9905234E-01
         21   -1    0    0  503  502  0.00000000000E+00  0.00000000000E+00  0.10809147627E+04  0.10809147627E+04  0.00000000000E+00 0.  1.
         21   -1    0    0  501  503 -0.00000000000E+00 -0.00000000000E+00 -0.51231313646E+03  0.51231313646E+03  0.00000000000E+00 0. -1.
    9000007    1    1    2  501    0  0.43642344629E+03  0.98152913576E+02 -0.18679876258E+03  0.62848484199E+03  0.40000000000E+03 0. -1.
   -9000007    1    1    2    0  502 -0.43642344629E+03 -0.98152913576E+02  0.75540038878E+03  0.96474305713E+03  0.40000000000E+03 0.  1.
<mgrwt>
<rscale>  2 0.60008284E+03</rscale>
<asrwt>0</asrwt>
<pdfrwt beam="1">  1       21 0.16629458E+00 0.60008284E+03</pdfrwt>
<pdfrwt beam="2">  1       21 0.78817406E-01 0.60008284E+03</pdfrwt>
<totfact> 0.24756228E+02</totfact>
</mgrwt>
</event>
<event>
 4    1  0.4832791E-002  0.4239166E+03  0.7818608E-02  0.1035799E+00
         21   -1    0    0  503  502  0.00000000000E+00  0.00000000000E+00  0.33879624170E+03  0.33879624170E+03  0.00000000000E+00 0. -1.
         21   -1    0    0  501  503 -0.00000000000E+00 -0.00000000000E+00 -0.57126506237E+03  0.57126506237E+03  0.00000000000E+00 0. -1.
    9000007    1    1    2  501    0 -0.76364918469E+02 -0.11778666055E+03 -0.23790230082E+03  0.48610986712E+03  0.40000000000E+03 0. -1.
   -9000007    1    1    2    0  502  0.76364918469E+02  0.11778666055E+03  0.54334801483E+01  0.42395143694E+03  0.40000000000E+03 0. -1.
<mgrwt>
<rscale>  2 0.42391662E+03</rscale>
<asrwt>0</asrwt>
<pdfrwt beam="1">  1       21 0.52122499E-01 0.42391662E+03</pdfrwt>
<pdfrwt beam="2">  1       21 0.87886932E-01 0.42391662E+03</pdfrwt>
<totfact> 0.34140527E+03</totfact>
</mgrwt>
</event>
<event>
 4    1  0.4832791E-002  0.4157663E+03  0.7818608E-02  0.1038453E+00
         21   -1    0    0  501  502  0.00000000000E+00  0.00000000000E+00  0.67600157630E+03  0.67600157630E+03  0.00000000000E+00 0. -1.
         21   -1    0    0  502  503 -0.00000000000E+00 -0.00000000000E+00 -0.31574052543E+03  0.31574052543E+03  0.00000000000E+00 0. -1.
    9000007    1    1    2  501    0 -0.35608119763E+02 -0.10767388646E+03 -0.36083082067E+02  0.41732911812E+03  0.40000000000E+03 0. -1.
   -9000007    1    1    2    0  503  0.35608119763E+02  0.10767388646E+03  0.39634413294E+03  0.57441298361E+03  0.40000000000E+03 0. -1.
<mgrwt>
<rscale>  2 0.41576629E+03</rscale>
<asrwt>0</asrwt>
<pdfrwt beam="1">  1       21 0.10400024E+00 0.41576629E+03</pdfrwt>
<pdfrwt beam="2">  1       21 0.48575466E-01 0.41576629E+03</pdfrwt>
<totfact> 0.26564464E+03</totfact>
</mgrwt>
</event>
<event>
 4    1  0.4832791E-002  0.4824115E+03  0.7818608E-02  0.1018475E+00
         21   -1    0    0  503  502  0.00000000000E+00  0.00000000000E+00  0.82940380219E+03  0.82940380219E+03  0.00000000000E+00 0.  1.
         21   -1    0    0  501  503 -0.00000000000E+00 -0.00000000000E+00 -0.50218331769E+03  0.50218331769E+03  0.00000000000E+00 0. -1.
    9000007    1    1    2  501    0 -0.21645830578E+03  0.16083127250E+03 -0.27866086726E+03  0.55711109780E+03  0.40000000000E+03 0. -1.
   -9000007    1    1    2    0  502  0.21645830578E+03 -0.16083127250E+03  0.60588135176E+03  0.77447602207E+03  0.40000000000E+03 0.  1.
<mgrwt>
<rscale>  2 0.48241154E+03</rscale>
<asrwt>0</asrwt>
<pdfrwt beam="1">  1       21 0.12760059E+00 0.48241154E+03</pdfrwt>
<pdfrwt beam="2">  1       21 0.77258972E-01 0.48241154E+03</pdfrwt>
<totfact> 0.55674836E+02</totfact>
</mgrwt>
</event>
<event>
 4    1  0.4832791E-002  0.4121246E+03  0.7818608E-02  0.1039660E+00
         21   -1    0    0  503  502  0.00000000000E+00  0.00000000000E+00  0.25467259048E+03  0.25467259048E+03  0.00000000000E+00 0. -1.
         21   -1    0    0  501  503 -0.00000000000E+00 -0.00000000000E+00 -0.70925324721E+03  0.70925324721E+03  0.00000000000E+00 0. -1.
    9000007    1    1    2  501    0 -0.75011364125E+01  0.98946407461E+02 -0.10954453482E+03  0.42643482938E+03  0.40000000000E+03 0.  1.
   -9000007    1    1    2    0  502  0.75011364125E+01 -0.98946407461E+02 -0.34503612191E+03  0.53749100832E+03  0.40000000000E+03 0.  1.
<mgrwt>
<rscale>  2 0.41212457E+03</rscale>
<asrwt>0</asrwt>
<pdfrwt beam="1">  1       21 0.39180399E-01 0.41212457E+03</pdfrwt>
<pdfrwt beam="2">  1       21 0.10911588E+00 0.41212457E+03</pdfrwt>
<totfact> 0.36977426E+03</totfact>
</mgrwt>
</event>
<event>
 4    1  0.4832791E-002  0.4451454E+03  0.7818608E-02  0.1029180E+00
         21   -1    0    0  503  502  0.00000000000E+00  0.00000000000E+00  0.29947326951E+03  0.29947326951E+03  0.00000000000E+00 0. -1.
         21   -1    0    0  501  503 -0.00000000000E+00 -0.00000000000E+00 -0.15520099846E+04  0.15520099846E+04  0.00000000000E+00 0. -1.
    9000007    1    1    2  501    0  0.91637814356E+01  0.19511647434E+03 -0.13274312115E+04  0.14000814386E+04  0.40000000000E+03 0. -1.
   -9000007    1    1    2    0  502 -0.91637814356E+01 -0.19511647434E+03  0.74894496418E+02  0.45140181551E+03  0.40000000000E+03 0. -1.
<mgrwt>
<rscale>  2 0.44514538E+03</rscale>
<asrwt>0</asrwt>
<pdfrwt beam="1">  1       21 0.46072810E-01 0.44514538E+03</pdfrwt>
<pdfrwt beam="2">  1       21 0.23877077E+00 0.44514538E+03</pdfrwt>
<totfact> 0.28220281E+02</totfact>
</mgrwt>
</event>
<event>
 4    1  0.4832791E-002  0.4054922E+03  0.7818608E-02  0.1041894E+00
         21   -1    0    0  503  502  0.00000000000E+00  0.00000000000E+00  0.28990095459E+03  0.28990095459E+03  0.00000000000E+00 0.  1.
         21   -1    0    0  501  503 -0.00000000000E+00 -0.00000000000E+00 -0.59323652157E+03  0.59323652157E+03  0.00000000000E+00 0.  1.
    9000007    1    1    2  501    0 -0.64601529474E+02  0.15828255989E+02 -0.59111931819E+02  0.40977812506E+03  0.40000000000E+03 0. -1.
   -9000007    1    1    2    0  502  0.64601529474E+02 -0.15828255989E+02 -0.24422363516E+03  0.47335935109E+03  0.40000000000E+03 0. -1.
<mgrwt>
<rscale>  2 0.40549216E+03</rscale>
<asrwt>0</asrwt>
<pdfrwt beam="1">  1       21 0.44600147E-01 0.40549216E+03</pdfrwt>
<pdfrwt beam="2">  1       21 0.91267157E-01 0.40549216E+03</pdfrwt>
<totfact> 0.43704830E+03</totfact>
</mgrwt>
</event>
<event>
 4    1  0.4832791E-002  0.4412788E+03  0.7818608E-02  0.1030355E+00
         21   -1    0    0  501  502  0.00000000000E+00  0.00000000000E+00  0.53920362998E+03  0.53920362998E+03  0.00000000000E+00 0.  1.
         21   -1    0    0  502  503 -0.00000000000E+00 -0.00000000000E+00 -0.36996180742E+03  0.36996180742E+03  0.00000000000E+00 0. -1.
    9000007    1    1    2  501    0 -0.15351858155E+02  0.18571822816E+03  0.14416952046E+02  0.44151419946E+03  0.40000000000E+03 0. -1.
   -9000007    1    1    2    0  503  0.15351858155E+02 -0.18571822816E+03  0.15482487051E+03  0.46765123794E+03  0.40000000000E+03 0.  1.
<mgrwt>
<rscale>  2 0.44127876E+03</rscale>
<asrwt>0</asrwt>
<pdfrwt beam="1">  1       21 0.82954405E-01 0.44127876E+03</pdfrwt>
<pdfrwt beam="2">  1       21 0.56917201E-01 0.44127876E+03</pdfrwt>
<totfact> 0.32130762E+03</totfact>
</mgrwt>
</event>
<event>
 4    1  0.4832791E-002  0.5362186E+03  0.7818608E-02  0.1004735E+00
         21   -1    0    0  503  502  0.00000000000E+00  0.00000000000E+00  0.55970666781E+03  0.55970666781E+03  0.00000000000E+00 0. -1.
         21   -1    0    0  501  503 -0.00000000000E+00 -0.00000000000E+00 -0.53229660759E+03  0.53229660759E+03  0.00000000000E+00 0. -1.
    9000007    1    1    2  501    0  0.19923284359E+03  0.29637250772E+03  0.11571545882E+03  0.54856217214E+03  0.40000000000E+03 0. -1.
   -9000007    1    1    2    0  502 -0.19923284359E+03 -0.29637250772E+03 -0.88305398594E+02  0.54344110326E+03  0.40000000000E+03 0. -1.
<mgrwt>
<rscale>  2 0.53621860E+03</rscale>
<asrwt>0</asrwt>
<pdfrwt beam="1">  1       21 0.86108718E-01 0.53621860E+03</pdfrwt>
<pdfrwt beam="2">  1       21 0.81891786E-01 0.53621860E+03</pdfrwt>
<totfact> 0.12580251E+03</totfact>
</mgrwt>
</event>
<event>
 4    1  0.4832791E-002  0.4271547E+03  0.7818608E-02  0.1034763E+00
         21   -1    0    0  503  502  0.00000000000E+00  0.00000000000E+00  0.56338556680E+03  0.56338556680E+03  0.00000000000E+00 0.  1.
         21   -1    0    0  501  503 -0.00000000000E+00 -0.00000000000E+00 -0.40220440466E+03  0.40220440466E+03  0.00000000000E+00 0.  1.
    9000007    1    1    2  501    0  0.86578984098E+02 -0.12233254920E+03  0.29366335760E+03  0.51836217134E+03  0.40000000000E+03 0.  1.
   -9000007    1    1    2    0  502 -0.86578984098E+02  0.12233254920E+03 -0.13248219546E+03  0.44722780011E+03  0.40000000000E+03 0.  1.
<mgrwt>
<rscale>  2 0.42715474E+03</rscale>
<asrwt>0</asrwt>
<pdfrwt beam="1">  1       21 0.86674703E-01 0.42715474E+03</pdfrwt>
<pdfrwt beam="2">  1       21 0.61877601E-01 0.42715474E+03</pdfrwt>
<totfact> 0.24285309E+03</totfact>
</mgrwt>
</event>
<event>
 4    1  0.4832791E-002  0.4987188E+03  0.7818608E-02  0.1014114E+00
         21   -1    0    0  503  502  0.00000000000E+00  0.00000000000E+00  0.89342850808E+03  0.89342850808E+03  0.00000000000E+00 0. -1.
         21   -1    0    0  501  503 -0.00000000000E+00 -0.00000000000E+00 -0.43059871458E+03  0.43059871458E+03  0.00000000000E+00 0. -1.
    9000007    1    1    2  501    0 -0.76621316673E+02 -0.28783616387E+03 -0.16218233599E+03  0.52442691913E+03  0.40000000000E+03 0. -1.
   -9000007    1    1    2    0  502  0.76621316673E+02  0.28783616387E+03  0.62501212949E+03  0.79960030354E+03  0.40000000000E+03 0. -1.
<mgrwt>
<rscale>  2 0.49871884E+03</rscale>
<asrwt>0</asrwt>
<pdfrwt beam="1">  1       21 0.13745054E+00 0.49871884E+03</pdfrwt>
<pdfrwt beam="2">  1       21 0.66245956E-01 0.49871884E+03</pdfrwt>
<totfact> 0.64516062E+02</totfact>
</mgrwt>
</event>
<event>
 4    1  0.4832791E-002  0.5267974E+03  0.7818608E-02  0.1007012E+00
         21   -1    0    0  503  502  0.00000000000E+00  0.00000000000E+00  0.10599613759E+04  0.10599613759E+04  0.00000000000E+00 0. -1.
         21   -1    0    0  501  503 -0.00000000000E+00 -0.00000000000E+00 -0.32196443847E+03  0.32196443847E+03  0.00000000000E+00 0.  1.
    9000007    1    1    2  501    0 -0.16258623415E+02  0.34241963511E+03  0.66764712789E+03  0.85045178389E+03  0.40000000000E+03 0. -1.
   -9000007    1    1    2    0  502  0.16258623415E+02 -0.34241963511E+03  0.70349809510E+02  0.53147403045E+03  0.40000000000E+03 0.  1.
<mgrwt>
<rscale>  2 0.52679745E+03</rscale>
<asrwt>0</asrwt>
<pdfrwt beam="1">  1       21 0.16307098E+00 0.52679745E+03</pdfrwt>
<pdfrwt beam="2">  1       21 0.49532991E-01 0.52679745E+03</pdfrwt>
<totfact> 0.75442089E+02</totfact>
</mgrwt>
</event>
<event>
 4    1  0.4832791E-002  0.6786148E+03  0.7818608E-02  0.9754519E-01
         21   -1    0    0  501  502  0.00000000000E+00  0.00000000000E+00  0.85251468475E+03  0.85251468475E+03  0.00000000000E+00 0. -1.
         21   -1    0    0  502  503 -0.00000000000E+00 -0.00000000000E+00 -0.75298449449E+03  0.75298449449E+03  0.00000000000E+00 0. -1.
    9000007    1    1    2  501    0 -0.34385388257E+03  0.42694562459E+03  0.47651111782E+03  0.82920498329E+03  0.40000000000E+03 0. -1.
   -9000007    1    1    2    0  503  0.34385388257E+03 -0.42694562459E+03 -0.37698092756E+03  0.77629419594E+03  0.40000000000E+03 0. -1.
<mgrwt>
<rscale>  2 0.67861481E+03</rscale>
<asrwt>0</asrwt>
<pdfrwt beam="1">  1       21 0.13115611E+00 0.67861481E+03</pdfrwt>
<pdfrwt beam="2">  1       21 0.11584377E+00 0.67861481E+03</pdfrwt>
<totfact> 0.18134552E+02</totfact>
</mgrwt>
</event>
<event>
 4    1  0.4832791E-002  0.4216576E+03  0.7818608E-02  0.1036528E+00
         21   -1    0    0  503  502  0.00000000000E+00  0.00000000000E+00  0.57184888844E+03  0.57184888844E+03  0.00000000000E+00 0. -1.
         21   -1    0    0  501  503 -0.00000000000E+00 -0.00000000000E+00 -0.43066410758E+03  0.43066410758E+03  0.00000000000E+00 0. -1.
    9000007    1    1    2  501    0 -0.13214927233E+03  0.18213603477E+02 -0.19372803504E+03  0.46403202162E+03  0.40000000000E+03 0. -1.
   -9000007    1    1    2    0  502  0.13214927233E+03 -0.18213603477E+02  0.33491281590E+03  0.53848097439E+03  0.40000000000E+03 0. -1.
<mgrwt>
<rscale>  2 0.42165764E+03</rscale>
<asrwt>0</asrwt>
<pdfrwt beam="1">  1       21 0.87976752E-01 0.42165764E+03</pdfrwt>
<pdfrwt beam="2">  1       21 0.66256016E-01 0.42165764E+03</pdfrwt>
<totfact> 0.20199412E+03</totfact>
</mgrwt>
</event>
<event>
 4    1  0.4832791E-002  0.6320465E+03  0.7818608E-02  0.9841063E-01
         21   -1    0    0  501  502  0.00000000000E+00  0.00000000000E+00  0.16850759836E+04  0.16850759836E+04  0.00000000000E+00 0. -1.
         21   -1    0    0  502  503 -0.00000000000E+00 -0.00000000000E+00 -0.35444536228E+03  0.35444536228E+03  0.00000000000E+00 0. -1.
    9000007    1    1    2  501    0  0.32077895564E+03  0.36957224030E+03  0.12521423135E+04  0.14026201027E+04  0.40000000000E+03 0. -1.
   -9000007    1    1    2    0  503 -0.32077895564E+03 -0.36957224030E+03  0.78488307880E+02  0.63690124325E+03  0.40000000000E+03 0. -1.
<mgrwt>
<rscale>  2 0.63204650E+03</rscale>
<asrwt>0</asrwt>
<pdfrwt beam="1">  1       21 0.25924245E+00 0.63204650E+03</pdfrwt>
<pdfrwt beam="2">  1       21 0.54530057E-01 0.63204650E+03</pdfrwt>
<totfact> 0.13450937E+02</totfact>
</mgrwt>
</event>
<event>
 4    1  0.4832791E-002  0.5026679E+03  0.7818608E-02  0.1013085E+00
         21   -1    0    0  503  502  0.00000000000E+00  0.00000000000E+00  0.28981818830E+03  0.28981818830E+03  0.00000000000E+00 0.  1.
         21   -1    0    0  501  503 -0.00000000000E+00 -0.00000000000E+00 -0.87192218010E+03  0.87192218010E+03  0.00000000000E+00 0. -1.
    9000007    1    1    2  501    0 -0.41780574087E+02 -0.30154507666E+03 -0.29669596738E+03  0.58369816402E+03  0.40000000000E+03 0.  1.
   -9000007    1    1    2    0  502  0.41780574087E+02  0.30154507666E+03 -0.28540802442E+03  0.57804220437E+03  0.40000000000E+03 0. -1.
<mgrwt>
<rscale>  2 0.50266793E+03</rscale>
<asrwt>0</asrwt>
<pdfrwt beam="1">  1       21 0.44587414E-01 0.50266793E+03</pdfrwt>
<pdfrwt beam="2">  1       21 0.13414187E+00 0.50266793E+03</pdfrwt>
<totfact> 0.16170021E+03</totfact>
</mgrwt>
</event>
<event>
 4    1  0.4832791E-002  0.4547952E+03  0.7818608E-02  0.1026302E+00
         21   -1    0    0  503  502  0.00000000000E+00  0.00000000000E+00  0.75251562143E+02  0.75251562143E+02  0.00000000000E+00 0. -1.
         21   -1    0    0  501  503 -0.00000000000E+00 -0.00000000000E+00 -0.30424546600E+04  0.30424546600E+04  0.00000000000E+00 0. -1.
    9000007    1    1    2  501    0 -0.17649421874E+03 -0.12525347412E+03 -0.19680391438E+04  0.20199051249E+04  0.40000000000E+03 0. -1.
   -9000007    1    1    2    0  502  0.17649421874E+03  0.12525347412E+03 -0.99916395400E+03  0.10978010972E+04  0.40000000000E+03 0. -1.
<mgrwt>
<rscale>  2 0.45479516E+03</rscale>
<asrwt>0</asrwt>
<pdfrwt beam="1">  1       21 0.11577163E-01 0.45479516E+03</pdfrwt>
<pdfrwt beam="2">  1       21 0.46806998E+00 0.45479516E+03</pdfrwt>
<totfact> 0.14810088E+02</totfact>
</mgrwt>
</event>
<event>
 4    1  0.4832791E-002  0.4774920E+03  0.7818608E-02  0.1019827E+00
         21   -1    0    0  501  502  0.00000000000E+00  0.00000000000E+00  0.96684130603E+03  0.96684130603E+03  0.00000000000E+00 0.  1.
         21   -1    0    0  502  503 -0.00000000000E+00 -0.00000000000E+00 -0.33256100889E+03  0.33256100889E+03  0.00000000000E+00 0.  1.
    9000007    1    1    2  501    0 -0.12895013250E+03 -0.22665050069E+03  0.66755924404E+03  0.82075205174E+03  0.40000000000E+03 0.  1.
   -9000007    1    1    2    0  503  0.12895013250E+03  0.22665050069E+03 -0.33278946901E+02  0.47865026318E+03  0.40000000000E+03 0.  1.
<mgrwt>
<rscale>  2 0.47749197E+03</rscale>
<asrwt>0</asrwt>
<pdfrwt beam="1">  1       21 0.14874482E+00 0.47749197E+03</pdfrwt>
<pdfrwt beam="2">  1       21 0.51163232E-01 0.47749197E+03</pdfrwt>
<totfact> 0.92561385E+02</totfact>
</mgrwt>
</event>
<event>
 4    1  0.4832791E-002  0.4310998E+03  0.7818608E-02  0.1033513E+00
         21   -1    0    0  501  502  0.00000000000E+00  0.00000000000E+00  0.56293287571E+03  0.56293287571E+03  0.00000000000E+00 0.  1.
         21   -1    0    0  502  503 -0.00000000000E+00 -0.00000000000E+00 -0.49928760987E+03  0.49928760987E+03  0.00000000000E+00 0.  1.
    9000007    1    1    2  501    0 -0.16760806974E+02  0.15989410973E+03  0.34095275316E+03  0.54963245070E+03  0.40000000000E+03 0.  1.
   -9000007    1    1    2    0  503  0.16760806974E+02 -0.15989410973E+03 -0.27730748732E+03  0.51258803488E+03  0.40000000000E+03 0.  1.
<mgrwt>
<rscale>  2 0.43109982E+03</rscale>
<asrwt>0</asrwt>
<pdfrwt beam="1">  1       21 0.86605058E-01 0.43109982E+03</pdfrwt>
<pdfrwt beam="2">  1       21 0.76813478E-01 0.43109982E+03</pdfrwt>
<totfact> 0.14954781E+03</totfact>
</mgrwt>
</event>
<event>
 4    1  0.4832791E-002  0.4890389E+03  0.7818608E-02  0.1016680E+00
         21   -1    0    0  503  502  0.00000000000E+00  0.00000000000E+00  0.35595771847E+03  0.35595771847E+03  0.00000000000E+00 0.  1.
         21   -1    0    0  501  503 -0.00000000000E+00 -0.00000000000E+00 -0.79110537230E+03  0.79110537230E+03  0.00000000000E+00 0.  1.
    9000007    1    1    2  501    0 -0.17224239512E+03  0.22246708074E+03 -0.44022953619E+03  0.65799778816E+03  0.40000000000E+03 0.  1.
   -9000007    1    1    2    0  502  0.17224239512E+03 -0.22246708074E+03  0.50818823513E+01  0.48906530261E+03  0.40000000000E+03 0.  1.
<mgrwt>
<rscale>  2 0.48903890E+03</rscale>
<asrwt>0</asrwt>
<pdfrwt beam="1">  1       21 0.54762727E-01 0.48903890E+03</pdfrwt>
<pdfrwt beam="2">  1       21 0.12170852E+00 0.48903890E+03</pdfrwt>
<totfact> 0.13500143E+03</totfact>
</mgrwt>
</event>
<event>
 4    1  0.4832791E-002  0.5167855E+03  0.7818608E-02  0.1009488E+00
         21   -1    0    0  501  502  0.00000000000E+00  0.00000000000E+00  0.20311593834E+03  0.20311593834E+03  0.00000000000E+00 0. -1.
         21   -1    0    0  502  503 -0.00000000000E+00 -0.00000000000E+00 -0.13332550877E+04  0.13332550877E+04  0.00000000000E+00 0. -1.
    9000007    1    1    2  501    0 -0.19282412166E+03 -0.26435975642E+03 -0.65532327243E+03  0.83457522974E+03  0.40000000000E+03 0. -1.
   -9000007    1    1    2    0  503  0.19282412166E+03  0.26435975642E+03 -0.47481587693E+03  0.70179579630E+03  0.40000000000E+03 0. -1.
<mgrwt>
<rscale>  2 0.51678547E+03</rscale>
<asrwt>0</asrwt>
<pdfrwt beam="1">  1       21 0.31248606E-01 0.51678547E+03</pdfrwt>
<pdfrwt beam="2">  1       21 0.20511617E+00 0.51678547E+03</pdfrwt>
<totfact> 0.99278560E+02</totfact>
</mgrwt>
</event>
<event>
 4    1  0.4832791E-002  0.4165168E+03  0.7818608E-02  0.1038206E+00
         21   -1    0    0  501  502  0.00000000000E+00  0.00000000000E+00  0.29483367808E+03  0.29483367808E+03  0.00000000000E+00 0.  1.
         21   -1    0    0  502  503 -0.00000000000E+00 -0.00000000000E+00 -0.10421068536E+04  0.10421068536E+04  0.00000000000E+00 0.  1.
    9000007    1    1    2  501    0  0.31410836742E+01 -0.11608769085E+03  0.67429598532E+02  0.42193953255E+03  0.40000000000E+03 0.  1.
   -9000007    1    1    2    0  503 -0.31410836742E+01  0.11608769085E+03 -0.81470277407E+03  0.91500099915E+03  0.40000000000E+03 0.  1.
<mgrwt>
<rscale>  2 0.41651677E+03</rscale>
<asrwt>0</asrwt>
<pdfrwt beam="1">  1       21 0.45359028E-01 0.41651677E+03</pdfrwt>
<pdfrwt beam="2">  1       21 0.16032413E+00 0.41651677E+03</pdfrwt>
<totfact> 0.99825061E+02</totfact>
</mgrwt>
</event>
<event>
 4    1  0.4832791E-002  0.5129310E+03  0.7818608E-02  0.1010458E+00
         21   -1    0    0  503  502  0.00000000000E+00  0.00000000000E+00  0.12664018197E+04  0.12664018197E+04  0.00000000000E+00 0.  1.
         21   -1    0    0  501  503 -0.00000000000E+00 -0.00000000000E+00 -0.28008680523E+03  0.28008680523E+03  0.00000000000E+00 0.  1.
    9000007    1    1    2  501    0  0.40116012270E+02 -0.31857320317E+03  0.10020281337E+03  0.52262681143E+03  0.40000000000E+03 0.  1.
   -9000007    1    1    2    0  502 -0.40116012270E+02  0.31857320317E+03  0.88611220115E+03  0.10238618135E+04  0.40000000000E+03 0.  1.
<mgrwt>
<rscale>  2 0.51293097E+03</rscale>
<asrwt>0</asrwt>
<pdfrwt beam="1">  1       21 0.19483105E+00 0.51293097E+03</pdfrwt>
<pdfrwt beam="2">  1       21 0.43090279E-01 0.51293097E+03</pdfrwt>
<totfact> 0.60457580E+02</totfact>
</mgrwt>
</event>
<event>
 4    1  0.4832791E-002  0.4265831E+03  0.7818608E-02  0.1034945E+00
         21   -1    0    0  503  502  0.00000000000E+00  0.00000000000E+00  0.44219717495E+03  0.44219717495E+03  0.00000000000E+00 0. -1.
         21   -1    0    0  501  503 -0.00000000000E+00 -0.00000000000E+00 -0.42793908127E+03  0.42793908127E+03  0.00000000000E+00 0. -1.
    9000007    1    1    2  501    0  0.14816090368E+03 -0.46324039765E+01 -0.78090024900E+02  0.43367172439E+03  0.40000000000E+03 0. -1.
   -9000007    1    1    2    0  502 -0.14816090368E+03  0.46324039765E+01  0.92348118582E+02  0.43646453184E+03  0.40000000000E+03 0. -1.
<mgrwt>
<rscale>  2 0.42658307E+03</rscale>
<asrwt>0</asrwt>
<pdfrwt beam="1">  1       21 0.68030335E-01 0.42658307E+03</pdfrwt>
<pdfrwt beam="2">  1       21 0.65836782E-01 0.42658307E+03</pdfrwt>
<totfact> 0.36872906E+03</totfact>
</mgrwt>
</event>
<event>
 4    1  0.4832791E-002  0.5110840E+03  0.7818608E-02  0.1010926E+00
         21   -1    0    0  503  502  0.00000000000E+00  0.00000000000E+00  0.48547448977E+03  0.48547448977E+03  0.00000000000E+00 0. -1.
         21   -1    0    0  501  503 -0.00000000000E+00 -0.00000000000E+00 -0.69621706043E+03  0.69621706043E+03  0.00000000000E+00 0. -1.
    9000007    1    1    2  501    0 -0.18035032366E+03 -0.26206979772E+03 -0.38699391452E+03  0.64107028320E+03  0.40000000000E+03 0. -1.
   -9000007    1    1    2    0  502  0.18035032366E+03  0.26206979772E+03  0.17625134386E+03  0.54062126700E+03  0.40000000000E+03 0. -1.
<mgrwt>
<rscale>  2 0.51108396E+03</rscale>
<asrwt>0</asrwt>
<pdfrwt beam="1">  1       21 0.74688384E-01 0.51108396E+03</pdfrwt>
<pdfrwt beam="2">  1       21 0.10711032E+00 0.51108396E+03</pdfrwt>
<totfact> 0.92628956E+02</totfact>
</mgrwt>
</event>
<event>
 4    1  0.4832791E-002  0.5228788E+03  0.7818608E-02  0.1007974E+00
         21   -1    0    0  501  502  0.00000000000E+00  0.00000000000E+00  0.84675558342E+03  0.84675558342E+03  0.00000000000E+00 0. -1.
         21   -1    0    0  502  503 -0.00000000000E+00 -0.00000000000E+00 -0.67678389933E+03  0.67678389933E+03  0.00000000000E+00 0. -1.
    9000007    1    1    2  501    0  0.23761302922E+01 -0.33674418290E+03  0.63584432724E+03  0.82322554576E+03  0.40000000000E+03 0. -1.
   -9000007    1    1    2    0  503 -0.23761302922E+01  0.33674418290E+03 -0.46587264315E+03  0.70031393699E+03  0.40000000000E+03 0. -1.
<mgrwt>
<rscale>  2 0.52287885E+03</rscale>
<asrwt>0</asrwt>
<pdfrwt beam="1">  1       21 0.13027009E+00 0.52287885E+03</pdfrwt>
<pdfrwt beam="2">  1       21 0.10412060E+00 0.52287885E+03</pdfrwt>
<totfact> 0.25529275E+02</totfact>
</mgrwt>
</event>
<event>
 4    1  0.4832791E-002  0.4093580E+03  0.7818608E-02  0.1040587E+00
         21   -1    0    0  503  502  0.00000000000E+00  0.00000000000E+00  0.17029475224E+04  0.17029475224E+04  0.00000000000E+00 0. -1.
         21   -1    0    0  501  503 -0.00000000000E+00 -0.00000000000E+00 -0.10377602098E+03  0.10377602098E+03  0.00000000000E+00 0. -1.
    9000007    1    1    2  501    0  0.57394253230E+02 -0.65420463293E+02  0.59401982480E+03  0.72141076342E+03  0.40000000000E+03 0. -1.
   -9000007    1    1    2    0  502 -0.57394253230E+02  0.65420463293E+02  0.10051516766E+04  0.10853127800E+04  0.40000000000E+03 0. -1.
<mgrwt>
<rscale>  2 0.40935796E+03</rscale>
<asrwt>0</asrwt>
<pdfrwt beam="1">  1       21 0.26199191E+00 0.40935796E+03</pdfrwt>
<pdfrwt beam="2">  1       21 0.15965543E-01 0.40935796E+03</pdfrwt>
<totfact> 0.16689543E+03</totfact>
</mgrwt>
</event>
<event>
 4    1  0.4832791E-002  0.4225725E+03  0.7818608E-02  0.1036232E+00
         21   -1    0    0  501  502  0.00000000000E+00  0.00000000000E+00  0.30951461722E+03  0.30951461722E+03  0.00000000000E+00 0. -1.
         21   -1    0    0  502  503 -0.00000000000E+00 -0.00000000000E+00 -0.12848438659E+04  0.12848438659E+04  0.00000000000E+00 0.  1.
    9000007    1    1    2  501    0 -0.13230526627E+03  0.32600951985E+02  0.10406289675E+03  0.43519718753E+03  0.40000000000E+03 0. -1.
   -9000007    1    1    2    0  503  0.13230526627E+03 -0.32600951985E+02 -0.10793921454E+04  0.11591612956E+04  0.40000000000E+03 0.  1.
<mgrwt>
<rscale>  2 0.42257249E+03</rscale>
<asrwt>0</asrwt>
<pdfrwt beam="1">  1       21 0.47617633E-01 0.42257249E+03</pdfrwt>
<pdfrwt beam="2">  1       21 0.19766829E+00 0.42257249E+03</pdfrwt>
<totfact> 0.48933525E+02</totfact>
</mgrwt>
</event>
<event>
 4    1  0.4832791E-002  0.4055137E+03  0.7818608E-02  0.1041887E+00
         21   -1    0    0  503  502  0.00000000000E+00  0.00000000000E+00  0.21481525311E+03  0.21481525311E+03  0.00000000000E+00 0.  1.
         21   -1    0    0  501  503 -0.00000000000E+00 -0.00000000000E+00 -0.11769491989E+04  0.11769491989E+04  0.00000000000E+00 0.  1.
    9000007    1    1    2  501    0  0.39817668568E+02 -0.53440483943E+02 -0.89251441554E+03  0.98031796576E+03  0.40000000000E+03 0.  1.
   -9000007    1    1    2    0  502 -0.39817668568E+02  0.53440483943E+02 -0.69619530263E+02  0.41144648625E+03  0.40000000000E+03 0.  1.
<mgrwt>
<rscale>  2 0.40551366E+03</rscale>
<asrwt>0</asrwt>
<pdfrwt beam="1">  1       21 0.33048500E-01 0.40551366E+03</pdfrwt>
<pdfrwt beam="2">  1       21 0.18106911E+00 0.40551366E+03</pdfrwt>
<totfact> 0.13575574E+03</totfact>
</mgrwt>
</event>
<event>
 4    1  0.4832791E-002  0.4158913E+03  0.7818608E-02  0.1038412E+00
         21   -1    0    0  501  502  0.00000000000E+00  0.00000000000E+00  0.20757716934E+03  0.20757716934E+03  0.00000000000E+00 0.  1.
         21   -1    0    0  502  503 -0.00000000000E+00 -0.00000000000E+00 -0.12519612801E+04  0.12519612801E+04  0.00000000000E+00 0.  1.
    9000007    1    1    2  501    0 -0.11113358597E+03 -0.24797391197E+02 -0.10016270153E+03  0.42778283196E+03  0.40000000000E+03 0.  1.
   -9000007    1    1    2    0  503  0.11113358597E+03  0.24797391197E+02 -0.94422140921E+03  0.10317556175E+04  0.40000000000E+03 0.  1.
<mgrwt>
<rscale>  2 0.41589131E+03</rscale>
<asrwt>0</asrwt>
<pdfrwt beam="1">  1       21 0.31934949E-01 0.41589131E+03</pdfrwt>
<pdfrwt beam="2">  1       21 0.19260943E+00 0.41589131E+03</pdfrwt>
<totfact> 0.12050328E+03</totfact>
</mgrwt>
</event>
<event>
 4    1  0.4832791E-002  0.4347692E+03  0.7818608E-02  0.1032364E+00
         21   -1    0    0  501  502  0.00000000000E+00  0.00000000000E+00  0.12022314518E+04  0.12022314518E+04  0.00000000000E+00 0.  1.
         21   -1    0    0  502  503 -0.00000000000E+00 -0.00000000000E+00 -0.18801114154E+03  0.18801114154E+03  0.00000000000E+00 0.  1.
    9000007    1    1    2  501    0  0.93484313307E+02 -0.14242519558E+03  0.78838209358E+03  0.90031693234E+03  0.40000000000E+03 0.  1.
   -9000007    1    1    2    0  503 -0.93484313307E+02  0.14242519558E+03  0.22583821664E+03  0.48992566096E+03  0.40000000000E+03 0.  1.
<mgrwt>
<rscale>  2 0.43476920E+03</rscale>
<asrwt>0</asrwt>
<pdfrwt beam="1">  1       21 0.18495868E+00 0.43476920E+03</pdfrwt>
<pdfrwt beam="2">  1       21 0.28924792E-01 0.43476920E+03</pdfrwt>
<totfact> 0.16408943E+03</totfact>
</mgrwt>
</event>
<event>
 4    1  0.4832791E-002  0.4406769E+03  0.7818608E-02  0.1030539E+00
         21   -1    0    0  501  502  0.00000000000E+00  0.00000000000E+00  0.74782202656E+02  0.74782202656E+02  0.00000000000E+00 0.  1.
         21   -1    0    0  502  503 -0.00000000000E+00 -0.00000000000E+00 -0.28081686098E+04  0.28081686098E+04  0.00000000000E+00 0.  1.
    9000007    1    1    2  501    0  0.66818763770E+02 -0.17242800103E+03 -0.97124281844E+03  0.10665405642E+04  0.40000000000E+03 0.  1.
   -9000007    1    1    2    0  503 -0.66818763770E+02  0.17242800103E+03 -0.17621435887E+04  0.18164102483E+04  0.40000000000E+03 0.  1.
<mgrwt>
<rscale>  2 0.44067694E+03</rscale>
<asrwt>0</asrwt>
<pdfrwt beam="1">  1       21 0.11504955E-01 0.44067694E+03</pdfrwt>
<pdfrwt beam="2">  1       21 0.43202592E+00 0.44067694E+03</pdfrwt>
<totfact> 0.26526232E+02</totfact>
</mgrwt>
</event>
<event>
 4    1  0.4832791E-002  0.4169540E+03  0.7818608E-02  0.1038062E+00
         21   -1    0    0  501  502  0.00000000000E+00  0.00000000000E+00  0.10616512829E+04  0.10616512829E+04  0.00000000000E+00 0. -1.
         21   -1    0    0  502  503 -0.00000000000E+00 -0.00000000000E+00 -0.18539179631E+03  0.18539179631E+03  0.00000000000E+00 0. -1.
    9000007    1    1    2  501    0  0.11255758545E+03 -0.34372455558E+02  0.65114120243E+03  0.77319825481E+03  0.40000000000E+03 0. -1.
   -9000007    1    1    2    0  503 -0.11255758545E+03  0.34372455558E+02  0.22511828415E+03  0.47384482439E+03  0.40000000000E+03 0. -1.
<mgrwt>
<rscale>  2 0.41695405E+03</rscale>
<asrwt>0</asrwt>
<pdfrwt beam="1">  1       21 0.16333096E+00 0.41695405E+03</pdfrwt>
<pdfrwt beam="2">  1       21 0.28521815E-01 0.41695405E+03</pdfrwt>
<totfact> 0.24297693E+03</totfact>
</mgrwt>
</event>
<event>
 4    1  0.4832791E-002  0.4333416E+03  0.7818608E-02  0.1032810E+00
         21   -1    0    0  503  502  0.00000000000E+00  0.00000000000E+00  0.36564429550E+03  0.36564429550E+03  0.00000000000E+00 0. -1.
         21   -1    0    0  501  503 -0.00000000000E+00 -0.00000000000E+00 -0.57378210036E+03  0.57378210036E+03  0.00000000000E+00 0. -1.
    9000007    1    1    2  501    0  0.11747451987E+03 -0.11825678761E+03 -0.25622571114E+03  0.50342481632E+03  0.40000000000E+03 0. -1.
   -9000007    1    1    2    0  502 -0.11747451987E+03  0.11825678761E+03  0.48087906287E+02  0.43600157954E+03  0.40000000000E+03 0. -1.
<mgrwt>
<rscale>  2 0.43334159E+03</rscale>
<asrwt>0</asrwt>
<pdfrwt beam="1">  1       21 0.56252969E-01 0.43334159E+03</pdfrwt>
<pdfrwt beam="2">  1       21 0.88274169E-01 0.43334159E+03</pdfrwt>
<totfact> 0.28576825E+03</totfact>
</mgrwt>
</event>
<event>
 4    1  0.4832791E-002  0.4612319E+03  0.7818608E-02  0.1024425E+00
         21   -1    0    0  501  502  0.00000000000E+00  0.00000000000E+00  0.97552201653E+03  0.97552201653E+03  0.00000000000E+00 0. -1.
         21   -1    0    0  502  503 -0.00000000000E+00 -0.00000000000E+00 -0.37568293498E+03  0.37568293498E+03  0.00000000000E+00 0.  1.
    9000007    1    1    2  501    0  0.22906408899E+03 -0.16262963480E+02  0.73751472710E+03  0.86986367526E+03  0.40000000000E+03 0. -1.
   -9000007    1    1    2    0  503 -0.22906408899E+03  0.16262963480E+02 -0.13767564555E+03  0.48134127625E+03  0.40000000000E+03 0.  1.
<mgrwt>
<rscale>  2 0.46123187E+03</rscale>
<asrwt>0</asrwt>
<pdfrwt beam="1">  1       21 0.15008031E+00 0.46123187E+03</pdfrwt>
<pdfrwt beam="2">  1       21 0.57797375E-01 0.46123187E+03</pdfrwt>
<totfact> 0.69928936E+02</totfact>
</mgrwt>
</event>
<event>
 4    1  0.4832791E-002  0.4528592E+03  0.7818608E-02  0.1026873E+00
         21   -1    0    0  503  502  0.00000000000E+00  0.00000000000E+00  0.13506625271E+04  0.13506625271E+04  0.00000000000E+00 0. -1.
         21   -1    0    0  501  503 -0.00000000000E+00 -0.00000000000E+00 -0.38293536058E+03  0.38293536058E+03  0.00000000000E+00 0.  1.
    9000007    1    1    2  501    0  0.20969694099E+03 -0.33296981022E+02 -0.18950586711E+03  0.49091136641E+03  0.40000000000E+03 0.  1.
   -9000007    1    1    2    0  502 -0.20969694099E+03  0.33296981022E+02  0.11572330336E+04  0.12426865212E+04  0.40000000000E+03 0. -1.
<mgrwt>
<rscale>  2 0.45285925E+03</rscale>
<asrwt>0</asrwt>
<pdfrwt beam="1">  1       21 0.20779423E+00 0.45285925E+03</pdfrwt>
<pdfrwt beam="2">  1       21 0.58913133E-01 0.45285925E+03</pdfrwt>
<totfact> 0.26143924E+02</totfact>
</mgrwt>
</event>
<event>
 4    1  0.4832791E-002  0.9516901E+03  0.7818608E-02  0.9363177E-01
         21   -1    0    0  503  502  0.00000000000E+00  0.00000000000E+00  0.45225782751E+03  0.45225782751E+03  0.00000000000E+00 0.  1.
         21   -1    0    0  501  503 -0.00000000000E+00 -0.00000000000E+00 -0.20155187759E+04  0.20155187759E+04  0.00000000000E+00 0. -1.
    9000007    1    1    2  501    0 -0.17216774263E+03 -0.84621057710E+03 -0.68303579042E+03  0.11714315872E+04  0.40000000000E+03 0. -1.
   -9000007    1    1    2    0  502  0.17216774263E+03  0.84621057710E+03 -0.88022515796E+03  0.12963450162E+04  0.40000000000E+03 0.  1.
<mgrwt>
<rscale>  2 0.95169011E+03</rscale>
<asrwt>0</asrwt>
<pdfrwt beam="1">  1       21 0.69578126E-01 0.95169011E+03</pdfrwt>
<pdfrwt beam="2">  1       21 0.31007982E+00 0.95169011E+03</pdfrwt>
<totfact> 0.33893197E+01</totfact>
</mgrwt>
</event>
<event>
 4    1  0.4832791E-002  0.5068399E+03  0.7818608E-02  0.1012009E+00
         21   -1    0    0  503  502  0.00000000000E+00  0.00000000000E+00  0.11729345659E+04  0.11729345659E+04  0.00000000000E+00 0. -1.
         21   -1    0    0  501  503 -0.00000000000E+00 -0.00000000000E+00 -0.66435083257E+03  0.66435083257E+03  0.00000000000E+00 0. -1.
    9000007    1    1    2  501    0  0.21846769728E+02 -0.31049871109E+03 -0.49783858977E+03  0.71044351810E+03  0.40000000000E+03 0. -1.
   -9000007    1    1    2    0  502 -0.21846769728E+02  0.31049871109E+03  0.10064223231E+04  0.11268418804E+04  0.40000000000E+03 0. -1.
<mgrwt>
<rscale>  2 0.50683995E+03</rscale>
<asrwt>0</asrwt>
<pdfrwt beam="1">  1       21 0.18045147E+00 0.50683995E+03</pdfrwt>
<pdfrwt beam="2">  1       21 0.10220782E+00 0.50683995E+03</pdfrwt>
<totfact> 0.10952518E+02</totfact>
</mgrwt>
</event>
<event>
 4    1  0.4832791E-002  0.4075124E+03  0.7818608E-02  0.1041209E+00
         21   -1    0    0  503  502  0.00000000000E+00  0.00000000000E+00  0.90139829390E+03  0.90139829390E+03  0.00000000000E+00 0. -1.
         21   -1    0    0  501  503 -0.00000000000E+00 -0.00000000000E+00 -0.30268776326E+03  0.30268776326E+03  0.00000000000E+00 0. -1.
    9000007    1    1    2  501    0  0.68622804036E+02  0.36841170448E+02 -0.77269000373E+02  0.41477326275E+03  0.40000000000E+03 0. -1.
   -9000007    1    1    2    0  502 -0.68622804036E+02 -0.36841170448E+02  0.67597953102E+03  0.78931279441E+03  0.40000000000E+03 0. -1.
<mgrwt>
<rscale>  2 0.40751241E+03</rscale>
<asrwt>0</asrwt>
<pdfrwt beam="1">  1       21 0.13867666E+00 0.40751241E+03</pdfrwt>
<pdfrwt beam="2">  1       21 0.46567349E-01 0.40751241E+03</pdfrwt>
<totfact> 0.14048274E+03</totfact>
</mgrwt>
</event>
<event>
 4    1  0.4832791E-002  0.5823218E+03  0.7818608E-02  0.9942777E-01
         21   -1    0    0  503  502  0.00000000000E+00  0.00000000000E+00  0.90191591475E+03  0.90191591475E+03  0.00000000000E+00 0. -1.
         21   -1    0    0  501  503 -0.00000000000E+00 -0.00000000000E+00 -0.38179619670E+03  0.38179619670E+03  0.00000000000E+00 0.  1.
    9000007    1    1    2  501    0 -0.11640399189E+03  0.40687683842E+03  0.33930894715E+03  0.67396529035E+03  0.40000000000E+03 0. -1.
   -9000007    1    1    2    0  502  0.11640399189E+03 -0.40687683842E+03  0.18081077090E+03  0.60974682110E+03  0.40000000000E+03 0.  1.
<mgrwt>
<rscale>  2 0.58232178E+03</rscale>
<asrwt>0</asrwt>
<pdfrwt beam="1">  1       21 0.13875629E+00 0.58232178E+03</pdfrwt>
<pdfrwt beam="2">  1       21 0.58737877E-01 0.58232178E+03</pdfrwt>
<totfact> 0.79679922E+02</totfact>
</mgrwt>
</event>
<event>
 4    1  0.4832791E-002  0.9376906E+03  0.7818608E-02  0.9379655E-01
         21   -1    0    0  503  502  0.00000000000E+00  0.00000000000E+00  0.11515429442E+04  0.11515429442E+04  0.00000000000E+00 0.  1.
         21   -1    0    0  501  503 -0.00000000000E+00 -0.00000000000E+00 -0.90792632135E+03  0.90792632135E+03  0.00000000000E+00 0. -1.
    9000007    1    1    2  501    0  0.84614037852E+03 -0.57534131623E+02  0.53243195405E+03  0.10783077029E+04  0.40000000000E+03 0.  1.
   -9000007    1    1    2    0  502 -0.84614037852E+03  0.57534131623E+02 -0.28881533120E+03  0.98116156264E+03  0.40000000000E+03 0. -1.
<mgrwt>
<rscale>  2 0.93769063E+03</rscale>
<asrwt>0</asrwt>
<pdfrwt beam="1">  1       21 0.17716045E+00 0.93769063E+03</pdfrwt>
<pdfrwt beam="2">  1       21 0.13968097E+00 0.93769063E+03</pdfrwt>
<totfact> 0.44370126E+01</totfact>
</mgrwt>
</event>
<event>
 4    1  0.4832791E-002  0.4737341E+03  0.7818608E-02  0.1020872E+00
         21   -1    0    0  503  502  0.00000000000E+00  0.00000000000E+00  0.68040426306E+03  0.68040426306E+03  0.00000000000E+00 0.  1.
         21   -1    0    0  501  503 -0.00000000000E+00 -0.00000000000E+00 -0.33258247189E+03  0.33258247189E+03  0.00000000000E+00 0. -1.
    9000007    1    1    2  501    0  0.24269738911E+03 -0.74309901323E+02  0.12791065488E+03  0.49069860377E+03  0.40000000000E+03 0. -1.
   -9000007    1    1    2    0  502 -0.24269738911E+03  0.74309901323E+02  0.21991113629E+03  0.52228813119E+03  0.40000000000E+03 0. -1.
<mgrwt>
<rscale>  2 0.47373409E+03</rscale>
<asrwt>0</asrwt>
<pdfrwt beam="1">  1       21 0.10467758E+00 0.47373409E+03</pdfrwt>
<pdfrwt beam="2">  1       21 0.51166534E-01 0.47373409E+03</pdfrwt>
<totfact> 0.22908794E+03</totfact>
</mgrwt>
</event>
<event>
 4    1  0.4832791E-002  0.4597215E+03  0.7818608E-02  0.1024862E+00
         21   -1    0    0  501  502  0.00000000000E+00  0.00000000000E+00  0.89739474228E+03  0.89739474228E+03  0.00000000000E+00 0.  1.
         21   -1    0    0  502  503 -0.00000000000E+00 -0.00000000000E+00 -0.71688931348E+03  0.71688931348E+03  0.00000000000E+00 0.  1.
    9000007    1    1    2  501    0  0.20139625825E+03  0.10384300054E+03  0.75165917284E+03  0.88109893526E+03  0.40000000000E+03 0.  1.
   -9000007    1    1    2    0  503 -0.20139625825E+03 -0.10384300054E+03 -0.57115374404E+03  0.73318512050E+03  0.40000000000E+03 0.  1.
<mgrwt>
<rscale>  2 0.45972146E+03</rscale>
<asrwt>0</asrwt>
<pdfrwt beam="1">  1       21 0.13806073E+00 0.45972146E+03</pdfrwt>
<pdfrwt beam="2">  1       21 0.11029066E+00 0.45972146E+03</pdfrwt>
<totfact> 0.19567009E+02</totfact>
</mgrwt>
</event>
<event>
 4    1  0.4832791E-002  0.4429397E+03  0.7818608E-02  0.1029849E+00
         21   -1    0    0  503  502  0.00000000000E+00  0.00000000000E+00  0.15859258945E+04  0.15859258945E+04  0.00000000000E+00 0. -1.
         21   -1    0    0  501  503 -0.00000000000E+00 -0.00000000000E+00 -0.27404543367E+03  0.27404543367E+03  0.00000000000E+00 0.  1.
    9000007    1    1    2  501    0 -0.13102094323E+03  0.13794585349E+03 -0.32862802830E+02  0.44415707792E+03  0.40000000000E+03 0.  1.
   -9000007    1    1    2    0  502  0.13102094323E+03 -0.13794585349E+03  0.13447432636E+04  0.14158142502E+04  0.40000000000E+03 0. -1.
<mgrwt>
<rscale>  2 0.44293966E+03</rscale>
<asrwt>0</asrwt>
<pdfrwt beam="1">  1       21 0.24398859E+00 0.44293966E+03</pdfrwt>
<pdfrwt beam="2">  1       21 0.42160837E-01 0.44293966E+03</pdfrwt>
<totfact> 0.31568028E+02</totfact>
</mgrwt>
</event>
<event>
 4    1  0.4832791E-002  0.4196114E+03  0.7818608E-02  0.1037193E+00
         21   -1    0    0  503  502  0.00000000000E+00  0.00000000000E+00  0.40309800210E+03  0.40309800210E+03  0.00000000000E+00 0. -1.
         21   -1    0    0  501  503 -0.00000000000E+00 -0.00000000000E+00 -0.12809106281E+04  0.12809106281E+04  0.00000000000E+00 0. -1.
    9000007    1    1    2  501    0  0.72959560028E+02  0.10368515694E+03 -0.11224310974E+04  0.11983009962E+04  0.40000000000E+03 0. -1.
   -9000007    1    1    2    0  502 -0.72959560028E+02 -0.10368515694E+03  0.24461847138E+03  0.48570763398E+03  0.40000000000E+03 0. -1.
<mgrwt>
<rscale>  2 0.41961138E+03</rscale>
<asrwt>0</asrwt>
<pdfrwt beam="1">  1       21 0.62015077E-01 0.41961138E+03</pdfrwt>
<pdfrwt beam="2">  1       21 0.19706317E+00 0.41961138E+03</pdfrwt>
<totfact> 0.28012358E+02</totfact>
</mgrwt>
</event>
<event>
 4    1  0.4832791E-002  0.4547258E+03  0.7818608E-02  0.1026322E+00
         21   -1    0    0  503  502  0.00000000000E+00  0.00000000000E+00  0.12720395827E+04  0.12720395827E+04  0.00000000000E+00 0.  1.
         21   -1    0    0  501  503 -0.00000000000E+00 -0.00000000000E+00 -0.19073153818E+03  0.19073153818E+03  0.00000000000E+00 0.  1.
    9000007    1    1    2  501    0 -0.18495826330E+03 -0.11209816768E+03  0.25953902976E+03  0.52358004768E+03  0.40000000000E+03 0.  1.
   -9000007    1    1    2    0  502  0.18495826330E+03  0.11209816768E+03  0.82176901478E+03  0.93919107321E+03  0.40000000000E+03 0.  1.
<mgrwt>
<rscale>  2 0.45472581E+03</rscale>
<asrwt>0</asrwt>
<pdfrwt beam="1">  1       21 0.19569839E+00 0.45472581E+03</pdfrwt>
<pdfrwt beam="2">  1       21 0.29343314E-01 0.45472581E+03</pdfrwt>
<totfact> 0.13351417E+03</totfact>
</mgrwt>
</event>
<event>
 4    1  0.4832791E-002  0.5043215E+03  0.7818608E-02  0.1012657E+00
         21   -1    0    0  503  502  0.00000000000E+00  0.00000000000E+00  0.32926824809E+03  0.32926824809E+03  0.00000000000E+00 0.  1.
         21   -1    0    0  501  503 -0.00000000000E+00 -0.00000000000E+00 -0.11372872184E+04  0.11372872184E+04  0.00000000000E+00 0. -1.
    9000007    1    1    2  501    0  0.86891516891E+02 -0.29460156996E+03 -0.81933487059E+03  0.96210698517E+03  0.40000000000E+03 0.  1.
   -9000007    1    1    2    0  502 -0.86891516891E+02  0.29460156996E+03  0.11315900261E+02  0.50444848135E+03  0.40000000000E+03 0.  1.
<mgrwt>
<rscale>  2 0.50432154E+03</rscale>
<asrwt>0</asrwt>
<pdfrwt beam="1">  1       21 0.50656654E-01 0.50432154E+03</pdfrwt>
<pdfrwt beam="2">  1       21 0.17496726E+00 0.50432154E+03</pdfrwt>
<totfact> 0.59335141E+02</totfact>
</mgrwt>
</event>
<event>
 4    1  0.4832791E-002  0.6068054E+03  0.7818608E-02  0.9891387E-01
         21   -1    0    0  501  502  0.00000000000E+00  0.00000000000E+00  0.34681363932E+03  0.34681363932E+03  0.00000000000E+00 0.  1.
         21   -1    0    0  502  503 -0.00000000000E+00 -0.00000000000E+00 -0.11988787072E+04  0.11988787072E+04  0.00000000000E+00 0. -1.
    9000007    1    1    2  501    0 -0.17672540040E+02  0.45596106022E+03 -0.16460863179E+03  0.62873588157E+03  0.40000000000E+03 0.  1.
   -9000007    1    1    2    0  503  0.17672540040E+02 -0.45596106022E+03 -0.68745643609E+03  0.91695646496E+03  0.40000000000E+03 0. -1.
<mgrwt>
<rscale>  2 0.60680541E+03</rscale>
<asrwt>0</asrwt>
<pdfrwt beam="1">  1       21 0.53355946E-01 0.60680541E+03</pdfrwt>
<pdfrwt beam="2">  1       21 0.18444287E+00 0.60680541E+03</pdfrwt>
<totfact> 0.43698706E+02</totfact>
</mgrwt>
</event>
<event>
 4    1  0.4832791E-002  0.4678812E+03  0.7818608E-02  0.1022520E+00
         21   -1    0    0  503  502  0.00000000000E+00  0.00000000000E+00  0.41242503604E+03  0.41242503604E+03  0.00000000000E+00 0. -1.
         21   -1    0    0  501  503 -0.00000000000E+00 -0.00000000000E+00 -0.60662843940E+03  0.60662843940E+03  0.00000000000E+00 0. -1.
    9000007    1    1    2  501    0 -0.18597841227E+03 -0.15596414272E+03 -0.27725345578E+03  0.54385867869E+03  0.40000000000E+03 0. -1.
   -9000007    1    1    2    0  502  0.18597841227E+03  0.15596414272E+03  0.83050052417E+02  0.47519479674E+03  0.40000000000E+03 0. -1.
<mgrwt>
<rscale>  2 0.46788116E+03</rscale>
<asrwt>0</asrwt>
<pdfrwt beam="1">  1       21 0.63450006E-01 0.46788116E+03</pdfrwt>
<pdfrwt beam="2">  1       21 0.93327452E-01 0.46788116E+03</pdfrwt>
<totfact> 0.18993681E+03</totfact>
</mgrwt>
</event>
<event>
 4    1  0.4832791E-002  0.6556612E+03  0.7818608E-02  0.9796214E-01
         21   -1    0    0  503  502  0.00000000000E+00  0.00000000000E+00  0.62097264750E+03  0.62097264750E+03  0.00000000000E+00 0.  1.
         21   -1    0    0  501  503 -0.00000000000E+00 -0.00000000000E+00 -0.69621559384E+03  0.69621559384E+03  0.00000000000E+00 0. -1.
    9000007    1    1    2  501    0 -0.17489596112E+03 -0.48918601042E+03 -0.87091427082E+02  0.66142003801E+03  0.40000000000E+03 0.  1.
   -9000007    1    1    2    0  502  0.17489596112E+03  0.48918601042E+03  0.11848480742E+02  0.65576820333E+03  0.40000000000E+03 0.  1.
<mgrwt>
<rscale>  2 0.65566115E+03</rscale>
<asrwt>0</asrwt>
<pdfrwt beam="1">  1       21 0.95534254E-01 0.65566115E+03</pdfrwt>
<pdfrwt beam="2">  1       21 0.10711009E+00 0.65566115E+03</pdfrwt>
<totfact> 0.49503931E+02</totfact>
</mgrwt>
</event>
<event>
 4    1  0.4832791E-002  0.4641209E+03  0.7818608E-02  0.1023593E+00
         21   -1    0    0  501  502  0.00000000000E+00  0.00000000000E+00  0.99348595091E+03  0.99348595091E+03  0.00000000000E+00 0.  1.
         21   -1    0    0  502  503 -0.00000000000E+00 -0.00000000000E+00 -0.22037828229E+03  0.22037828229E+03  0.00000000000E+00 0.  1.
    9000007    1    1    2  501    0 -0.18815118888E+03  0.14144731493E+03  0.46366899103E+03  0.65604660354E+03  0.40000000000E+03 0.  1.
   -9000007    1    1    2    0  503  0.18815118888E+03 -0.14144731493E+03  0.30943867759E+03  0.55781762966E+03  0.40000000000E+03 0.  1.
<mgrwt>
<rscale>  2 0.46412090E+03</rscale>
<asrwt>0</asrwt>
<pdfrwt beam="1">  1       21 0.15284399E+00 0.46412090E+03</pdfrwt>
<pdfrwt beam="2">  1       21 0.33904352E-01 0.46412090E+03</pdfrwt>
<totfact> 0.20293925E+03</totfact>
</mgrwt>
</event>
<event>
 4    1  0.4832791E-002  0.4045853E+03  0.7818608E-02  0.1042203E+00
         21   -1    0    0  503  502  0.00000000000E+00  0.00000000000E+00  0.16060124264E+04  0.16060124264E+04  0.00000000000E+00 0. -1.
         21   -1    0    0  501  503 -0.00000000000E+00 -0.00000000000E+00 -0.12233659509E+03  0.12233659509E+03  0.00000000000E+00 0. -1.
    9000007    1    1    2  501    0 -0.37235001941E+02 -0.47987498698E+02  0.38882923521E+03  0.56113939405E+03  0.40000000000E+03 0. -1.
   -9000007    1    1    2    0  502  0.37235001941E+02  0.47987498698E+02  0.10948465961E+04  0.11672096274E+04  0.40000000000E+03 0. -1.
<mgrwt>
<rscale>  2 0.40458528E+03</rscale>
<asrwt>0</asrwt>
<pdfrwt beam="1">  1       21 0.24707882E+00 0.40458528E+03</pdfrwt>
<pdfrwt beam="2">  1       21 0.18821016E-01 0.40458528E+03</pdfrwt>
<totfact> 0.15153269E+03</totfact>
</mgrwt>
</event>
<event>
 4    1  0.4832791E-002  0.4149438E+03  0.7818608E-02  0.1038725E+00
         21   -1    0    0  501  502  0.00000000000E+00  0.00000000000E+00  0.72154332926E+03  0.72154332926E+03  0.00000000000E+00 0. -1.
         21   -1    0    0  502  503 -0.00000000000E+00 -0.00000000000E+00 -0.25446229853E+03  0.25446229853E+03  0.00000000000E+00 0. -1.
    9000007    1    1    2  501    0 -0.42011036735E+01  0.11027554675E+03  0.11179587463E+03  0.42974022743E+03  0.40000000000E+03 0. -1.
   -9000007    1    1    2    0  503  0.42011036735E+01 -0.11027554675E+03  0.35528515611E+03  0.54626540036E+03  0.40000000000E+03 0. -1.
<mgrwt>
<rscale>  2 0.41494379E+03</rscale>
<asrwt>0</asrwt>
<pdfrwt beam="1">  1       21 0.11100666E+00 0.41494379E+03</pdfrwt>
<pdfrwt beam="2">  1       21 0.39148046E-01 0.41494379E+03</pdfrwt>
<totfact> 0.35459482E+03</totfact>
</mgrwt>
</event>
<event>
 4    1  0.4832791E-002  0.4558768E+03  0.7818608E-02  0.1025984E+00
         21   -1    0    0  503  502  0.00000000000E+00  0.00000000000E+00  0.29490912860E+03  0.29490912860E+03  0.00000000000E+00 0. -1.
         21   -1    0    0  501  503 -0.00000000000E+00 -0.00000000000E+00 -0.76330910012E+03  0.76330910012E+03  0.00000000000E+00 0. -1.
    9000007    1    1    2  501    0  0.13354952090E+03 -0.17317091166E+03 -0.38080970810E+03  0.59400309171E+03  0.40000000000E+03 0. -1.
   -9000007    1    1    2    0  502 -0.13354952090E+03  0.17317091166E+03 -0.87590263415E+02  0.46421513701E+03  0.40000000000E+03 0. -1.
<mgrwt>
<rscale>  2 0.45587678E+03</rscale>
<asrwt>0</asrwt>
<pdfrwt beam="1">  1       21 0.45370636E-01 0.45587678E+03</pdfrwt>
<pdfrwt beam="2">  1       21 0.11743217E+00 0.45587678E+03</pdfrwt>
<totfact> 0.22344467E+03</totfact>
</mgrwt>
</event>
<event>
 4    1  0.4832791E-002  0.4025744E+03  0.7818608E-02  0.1042892E+00
         21   -1    0    0  503  502  0.00000000000E+00  0.00000000000E+00  0.98020517877E+03  0.98020517877E+03  0.00000000000E+00 0.  1.
         21   -1    0    0  501  503 -0.00000000000E+00 -0.00000000000E+00 -0.52731396102E+03  0.52731396102E+03  0.00000000000E+00 0.  1.
    9000007    1    1    2  501    0 -0.26571042787E+02 -0.36879828620E+02 -0.39806162085E+03  0.56614414778E+03  0.40000000000E+03 0.  1.
   -9000007    1    1    2    0  502  0.26571042787E+02  0.36879828620E+02  0.85095283860E+03  0.94137499201E+03  0.40000000000E+03 0.  1.
<mgrwt>
<rscale>  2 0.40257439E+03</rscale>
<asrwt>0</asrwt>
<pdfrwt beam="1">  1       21 0.15080080E+00 0.40257439E+03</pdfrwt>
<pdfrwt beam="2">  1       21 0.81125225E-01 0.40257439E+03</pdfrwt>
<totfact> 0.33210354E+02</totfact>
</mgrwt>
</event>
<event>
 4    1  0.4832791E-002  0.4864563E+03  0.7818608E-02  0.1017376E+00
         21   -1    0    0  503  502  0.00000000000E+00  0.00000000000E+00  0.37008104087E+03  0.37008104087E+03  0.00000000000E+00 0.  1.
         21   -1    0    0  501  503 -0.00000000000E+00 -0.00000000000E+00 -0.18486107125E+04  0.18486107125E+04  0.00000000000E+00 0.  1.
    9000007    1    1    2  501    0  0.22292941748E+03  0.16414079710E+03 -0.16364672335E+04  0.17072389208E+04  0.40000000000E+03 0.  1.
   -9000007    1    1    2    0  502 -0.22292941748E+03 -0.16414079710E+03  0.15793756189E+03  0.51145283253E+03  0.40000000000E+03 0.  1.
<mgrwt>
<rscale>  2 0.48645629E+03</rscale>
<asrwt>0</asrwt>
<pdfrwt beam="1">  1       21 0.56935546E-01 0.48645629E+03</pdfrwt>
<pdfrwt beam="2">  1       21 0.28440164E+00 0.48645629E+03</pdfrwt>
<totfact> 0.92296088E+01</totfact>
</mgrwt>
</event>
<event>
 4    1  0.4832791E-002  0.4833790E+03  0.7818608E-02  0.1018211E+00
         21   -1    0    0  501  502  0.00000000000E+00  0.00000000000E+00  0.14317256336E+04  0.14317256336E+04  0.00000000000E+00 0.  1.
         21   -1    0    0  502  503 -0.00000000000E+00 -0.00000000000E+00 -0.23542798853E+03  0.23542798853E+03  0.00000000000E+00 0.  1.
    9000007    1    1    2  501    0 -0.27072933594E+03 -0.18995763125E+02  0.13643337849E+03  0.50226415274E+03  0.40000000000E+03 0.  1.
   -9000007    1    1    2    0  503  0.27072933594E+03  0.18995763125E+02  0.10598642666E+04  0.11648894694E+04  0.40000000000E+03 0.  1.
<mgrwt>
<rscale>  2 0.48337895E+03</rscale>
<asrwt>0</asrwt>
<pdfrwt beam="1">  1       21 0.22026548E+00 0.48337895E+03</pdfrwt>
<pdfrwt beam="2">  1       21 0.36219692E-01 0.48337895E+03</pdfrwt>
<totfact> 0.59554092E+02</totfact>
</mgrwt>
</event>
<event>
 4    1  0.4832791E-002  0.4156284E+03  0.7818608E-02  0.1038499E+00
         21   -1    0    0  503  502  0.00000000000E+00  0.00000000000E+00  0.20490123721E+03  0.20490123721E+03  0.00000000000E+00 0. -1.
         21   -1    0    0  501  503 -0.00000000000E+00 -0.00000000000E+00 -0.10359081170E+04  0.10359081170E+04  0.00000000000E+00 0.  1.
    9000007    1    1    2  501    0 -0.11282442318E+03 -0.41972188753E+01 -0.68317735077E+03  0.79967384584E+03  0.40000000000E+03 0.  1.
   -9000007    1    1    2    0  502  0.11282442318E+03  0.41972188753E+01 -0.14782952905E+03  0.44113550840E+03  0.40000000000E+03 0. -1.
<mgrwt>
<rscale>  2 0.41562840E+03</rscale>
<asrwt>0</asrwt>
<pdfrwt beam="1">  1       21 0.31523267E-01 0.41562840E+03</pdfrwt>
<pdfrwt beam="2">  1       21 0.15937048E+00 0.41562840E+03</pdfrwt>
<totfact> 0.21346368E+03</totfact>
</mgrwt>
</event>
<event>
 4    1  0.4832791E-002  0.4276984E+03  0.7818608E-02  0.1034589E+00
         21   -1    0    0  501  502  0.00000000000E+00  0.00000000000E+00  0.22862372379E+04  0.22862372379E+04  0.00000000000E+00 0.  1.
         21   -1    0    0  502  503 -0.00000000000E+00 -0.00000000000E+00 -0.11015418601E+03  0.11015418601E+03  0.00000000000E+00 0.  1.
    9000007    1    1    2  501    0  0.79038819094E+02  0.12914651292E+03  0.17148228847E+04  0.17673549397E+04  0.40000000000E+03 0.  1.
   -9000007    1    1    2    0  503 -0.79038819094E+02 -0.12914651292E+03  0.46126016715E+03  0.62903648425E+03  0.40000000000E+03 0.  1.
<mgrwt>
<rscale>  2 0.42769844E+03</rscale>
<asrwt>0</asrwt>
<pdfrwt beam="1">  1       21 0.35172877E+00 0.42769844E+03</pdfrwt>
<pdfrwt beam="2">  1       21 0.16946800E-01 0.42769844E+03</pdfrwt>
<totfact> 0.42502381E+02</totfact>
</mgrwt>
</event>
<event>
 4    1  0.4832791E-002  0.5989869E+03  0.7818608E-02  0.9907510E-01
         21   -1    0    0  501  502  0.00000000000E+00  0.00000000000E+00  0.31666105523E+03  0.31666105523E+03  0.00000000000E+00 0. -1.
         21   -1    0    0  502  503 -0.00000000000E+00 -0.00000000000E+00 -0.18525672392E+04  0.18525672392E+04  0.00000000000E+00 0.  1.
    9000007    1    1    2  501    0 -0.30732523024E+03 -0.32301166052E+03 -0.92000863154E+02  0.60601112927E+03  0.40000000000E+03 0. -1.
   -9000007    1    1    2    0  503  0.30732523024E+03  0.32301166052E+03 -0.14439053208E+04  0.15632171651E+04  0.40000000000E+03 0.  1.
<mgrwt>
<rscale>  2 0.59898692E+03</rscale>
<asrwt>0</asrwt>
<pdfrwt beam="1">  1       21 0.48717085E-01 0.59898692E+03</pdfrwt>
<pdfrwt beam="2">  1       21 0.28501035E+00 0.59898692E+03</pdfrwt>
<totfact> 0.12080116E+02</totfact>
</mgrwt>
</event>
<event>
 4    1  0.4832791E-002  0.4325854E+03  0.7818608E-02  0.1033046E+00
         21   -1    0    0  501  502  0.00000000000E+00  0.00000000000E+00  0.19125351139E+03  0.19125351139E+03  0.00000000000E+00 0. -1.
         21   -1    0    0  502  503 -0.00000000000E+00 -0.00000000000E+00 -0.15831651881E+04  0.15831651881E+04  0.00000000000E+00 0. -1.
    9000007    1    1    2  501    0 -0.16235628090E+03 -0.27759645995E+02 -0.14762599438E+03  0.45708160552E+03  0.40000000000E+03 0. -1.
   -9000007    1    1    2    0  503  0.16235628090E+03  0.27759645995E+02 -0.12442856823E+04  0.13173370939E+04  0.40000000000E+03 0. -1.
<mgrwt>
<rscale>  2 0.43258544E+03</rscale>
<asrwt>0</asrwt>
<pdfrwt beam="1">  1       21 0.29423618E-01 0.43258544E+03</pdfrwt>
<pdfrwt beam="2">  1       21 0.24356387E+00 0.43258544E+03</pdfrwt>
<totfact> 0.66176830E+02</totfact>
</mgrwt>
</event>
<event>
 4    1  0.4832791E-002  0.4271126E+03  0.7818608E-02  0.1034776E+00
         21   -1    0    0  503  502  0.00000000000E+00  0.00000000000E+00  0.38655243937E+03  0.38655243937E+03  0.00000000000E+00 0.  1.
         21   -1    0    0  501  503 -0.00000000000E+00 -0.00000000000E+00 -0.52086376850E+03  0.52086376850E+03  0.00000000000E+00 0.  1.
    9000007    1    1    2  501    0 -0.92121911349E+02  0.11806253292E+03  0.71911421690E+02  0.43312407091E+03  0.40000000000E+03 0. -1.
   -9000007    1    1    2    0  502  0.92121911349E+02 -0.11806253292E+03 -0.20622275082E+03  0.47429213696E+03  0.40000000000E+03 0. -1.
<mgrwt>
<rscale>  2 0.42711264E+03</rscale>
<asrwt>0</asrwt>
<pdfrwt beam="1">  1       21 0.59469606E-01 0.42711264E+03</pdfrwt>
<pdfrwt beam="2">  1       21 0.80132887E-01 0.42711264E+03</pdfrwt>
<totfact> 0.31803302E+03</totfact>
</mgrwt>
</event>
<event>
 4    1  0.4832791E-002  0.4004724E+03  0.7818608E-02  0.1043616E+00
         21   -1    0    0  503  502  0.00000000000E+00  0.00000000000E+00  0.20400021901E+03  0.20400021901E+03  0.00000000000E+00 0.  1.
         21   -1    0    0  501  503 -0.00000000000E+00 -0.00000000000E+00 -0.10349170065E+04  0.10349170065E+04  0.00000000000E+00 0.  1.
    9000007    1    1    2  501    0  0.42703272029E+01  0.18970733301E+02 -0.71915614730E+03  0.82314256883E+03  0.40000000000E+03 0.  1.
   -9000007    1    1    2    0  502 -0.42703272029E+01 -0.18970733301E+02 -0.11176064015E+03  0.41577465664E+03  0.40000000000E+03 0.  1.
<mgrwt>
<rscale>  2 0.40047238E+03</rscale>
<asrwt>0</asrwt>
<pdfrwt beam="1">  1       21 0.31384649E-01 0.40047238E+03</pdfrwt>
<pdfrwt beam="2">  1       21 0.15921800E+00 0.40047238E+03</pdfrwt>
<totfact> 0.21737802E+03</totfact>
</mgrwt>
</event>
<event>
 4    1  0.4832791E-002  0.4619111E+03  0.7818608E-02  0.1024228E+00
         21   -1    0    0  503  502  0.00000000000E+00  0.00000000000E+00  0.14726435887E+04  0.14726435887E+04  0.00000000000E+00 0.  1.
         21   -1    0    0  501  503 -0.00000000000E+00 -0.00000000000E+00 -0.16062788544E+03  0.16062788544E+03  0.00000000000E+00 0. -1.
    9000007    1    1    2  501    0  0.20336861167E+03 -0.10955844145E+03  0.40033774484E+03  0.61125457401E+03  0.40000000000E+03 0. -1.
   -9000007    1    1    2    0  502 -0.20336861167E+03  0.10955844145E+03  0.91167795846E+03  0.10220169002E+04  0.40000000000E+03 0.  1.
<mgrwt>
<rscale>  2 0.46191108E+03</rscale>
<asrwt>0</asrwt>
<pdfrwt beam="1">  1       21 0.22656054E+00 0.46191108E+03</pdfrwt>
<pdfrwt beam="2">  1       21 0.24711983E-01 0.46191108E+03</pdfrwt>
<totfact> 0.11731652E+03</totfact>
</mgrwt>
</event>
<event>
 4    1  0.4832791E-002  0.5112298E+03  0.7818608E-02  0.1010889E+00
         21   -1    0    0  501  502  0.00000000000E+00  0.00000000000E+00  0.40728145869E+03  0.40728145869E+03  0.00000000000E+00 0.  1.
         21   -1    0    0  502  503 -0.00000000000E+00 -0.00000000000E+00 -0.66760400398E+03  0.66760400398E+03  0.00000000000E+00 0.  1.
    9000007    1    1    2  501    0  0.29843409643E+03 -0.11087400033E+03 -0.23600992289E+03  0.56307782550E+03  0.40000000000E+03 0. -1.
   -9000007    1    1    2    0  503 -0.29843409643E+03  0.11087400033E+03 -0.24312622402E+02  0.51180763717E+03  0.40000000000E+03 0. -1.
<mgrwt>
<rscale>  2 0.51122984E+03</rscale>
<asrwt>0</asrwt>
<pdfrwt beam="1">  1       21 0.62658686E-01 0.51122984E+03</pdfrwt>
<pdfrwt beam="2">  1       21 0.10270831E+00 0.51122984E+03</pdfrwt>
<totfact> 0.15250995E+03</totfact>
</mgrwt>
</event>
<event>
 4    1  0.4832791E-002  0.5201807E+03  0.7818608E-02  0.1008642E+00
         21   -1    0    0  501  502  0.00000000000E+00  0.00000000000E+00  0.62884280534E+03  0.62884280534E+03  0.00000000000E+00 0. -1.
         21   -1    0    0  502  503 -0.00000000000E+00 -0.00000000000E+00 -0.45026088598E+03  0.45026088598E+03  0.00000000000E+00 0.  1.
    9000007    1    1    2  501    0 -0.81208835245E+01 -0.33244848094E+03  0.20290837623E+03  0.55835450242E+03  0.40000000000E+03 0. -1.
   -9000007    1    1    2    0  503  0.81208835245E+01  0.33244848094E+03 -0.24326456871E+02  0.52074918890E+03  0.40000000000E+03 0.  1.
<mgrwt>
<rscale>  2 0.52018068E+03</rscale>
<asrwt>0</asrwt>
<pdfrwt beam="1">  1       21 0.96745047E-01 0.52018068E+03</pdfrwt>
<pdfrwt beam="2">  1       21 0.69270906E-01 0.52018068E+03</pdfrwt>
<totfact> 0.14058557E+03</totfact>
</mgrwt>
</event>
<event>
 4    1  0.4832791E-002  0.4381826E+03  0.7818608E-02  0.1031306E+00
         21   -1    0    0  503  502  0.00000000000E+00  0.00000000000E+00  0.16231398085E+03  0.16231398085E+03  0.00000000000E+00 0.  1.
         21   -1    0    0  501  503 -0.00000000000E+00 -0.00000000000E+00 -0.18401058251E+04  0.18401058251E+04  0.00000000000E+00 0.  1.
    9000007    1    1    2  501    0 -0.97445046719E+02 -0.15002818475E+03 -0.14372369297E+04  0.15025491624E+04  0.40000000000E+03 0.  1.
   -9000007    1    1    2    0  502  0.97445046719E+02  0.15002818475E+03 -0.24055491452E+03  0.49987064352E+03  0.40000000000E+03 0.  1.
<mgrwt>
<rscale>  2 0.43818260E+03</rscale>
<asrwt>0</asrwt>
<pdfrwt beam="1">  1       21 0.24971382E-01 0.43818260E+03</pdfrwt>
<pdfrwt beam="2">  1       21 0.28309320E+00 0.43818260E+03</pdfrwt>
<totfact> 0.52363377E+02</totfact>
</mgrwt>
</event>
<event>
 4    1  0.4832791E-002  0.5929989E+03  0.7818608E-02  0.9920038E-01
         21   -1    0    0  503  502  0.00000000000E+00  0.00000000000E+00  0.14190398576E+04  0.14190398576E+04  0.00000000000E+00 0.  1.
         21   -1    0    0  501  503 -0.00000000000E+00 -0.00000000000E+00 -0.31324036758E+03  0.31324036758E+03  0.00000000000E+00 0. -1.
    9000007    1    1    2  501    0 -0.43760702792E+03 -0.12158026218E+02  0.15703248601E+03  0.61343861155E+03  0.40000000000E+03 0. -1.
   -9000007    1    1    2    0  502  0.43760702792E+03  0.12158026218E+02  0.94876700398E+03  0.11188416136E+04  0.40000000000E+03 0.  1.
<mgrwt>
<rscale>  2 0.59299893E+03</rscale>
<asrwt>0</asrwt>
<pdfrwt beam="1">  1       21 0.21831382E+00 0.59299893E+03</pdfrwt>
<pdfrwt beam="2">  1       21 0.48190827E-01 0.59299893E+03</pdfrwt>
<totfact> 0.32307456E+02</totfact>
</mgrwt>
</event>
<event>
 4    1  0.4832791E-002  0.4773995E+03  0.7818608E-02  0.1019852E+00
         21   -1    0    0  501  502  0.00000000000E+00  0.00000000000E+00  0.24734570145E+04  0.24734570145E+04  0.00000000000E+00 0.  1.
         21   -1    0    0  502  503 -0.00000000000E+00 -0.00000000000E+00 -0.12064931588E+03  0.12064931588E+03  0.00000000000E+00 0. -1.
    9000007    1    1    2  501    0 -0.19690444670E+03 -0.17070116757E+03  0.18068826843E+04  0.18688861079E+04  0.40000000000E+03 0.  1.
   -9000007    1    1    2    0  503  0.19690444670E+03  0.17070116757E+03  0.54592501433E+03  0.72522022242E+03  0.40000000000E+03 0. -1.
<mgrwt>
<rscale>  2 0.47739947E+03</rscale>
<asrwt>0</asrwt>
<pdfrwt beam="1">  1       21 0.38053181E+00 0.47739947E+03</pdfrwt>
<pdfrwt beam="2">  1       21 0.18561435E-01 0.47739947E+03</pdfrwt>
<totfact> 0.22976924E+02</totfact>
</mgrwt>
</event>
<event>
 4    1  0.4832791E-002  0.4774267E+03  0.7818608E-02  0.1019845E+00
         21   -1    0    0  503  502  0.00000000000E+00  0.00000000000E+00  0.31719593806E+03  0.31719593806E+03  0.00000000000E+00 0.  1.
         21   -1    0    0  501  503 -0.00000000000E+00 -0.00000000000E+00 -0.92105798718E+03  0.92105798718E+03  0.00000000000E+00 0. -1.
    9000007    1    1    2  501    0 -0.17710214203E+03 -0.19123580035E+03 -0.11658413785E+02  0.47756907213E+03  0.40000000000E+03 0.  1.
   -9000007    1    1    2    0  502  0.17710214203E+03  0.19123580035E+03 -0.59220363533E+03  0.76068485311E+03  0.40000000000E+03 0. -1.
<mgrwt>
<rscale>  2 0.47742675E+03</rscale>
<asrwt>0</asrwt>
<pdfrwt beam="1">  1       21 0.48799375E-01 0.47742675E+03</pdfrwt>
<pdfrwt beam="2">  1       21 0.14170123E+00 0.47742675E+03</pdfrwt>
<totfact> 0.11667463E+03</totfact>
</mgrwt>
</event>
<event>
 4    1  0.4832791E-002  0.4482611E+03  0.7818608E-02  0.1028242E+00
         21   -1    0    0  503  502  0.00000000000E+00  0.00000000000E+00  0.15472431952E+03  0.15472431952E+03  0.00000000000E+00 0. -1.
         21   -1    0    0  501  503 -0.00000000000E+00 -0.00000000000E+00 -0.13175247790E+04  0.13175247790E+04  0.00000000000E+00 0. -1.
    9000007    1    1    2  501    0 -0.12539277534E+03 -0.15879131866E+03 -0.49337262425E+03  0.66659926294E+03  0.40000000000E+03 0. -1.
   -9000007    1    1    2    0  502  0.12539277534E+03  0.15879131866E+03 -0.66942783525E+03  0.80564983560E+03  0.40000000000E+03 0. -1.
<mgrwt>
<rscale>  2 0.44826112E+03</rscale>
<asrwt>0</asrwt>
<pdfrwt beam="1">  1       21 0.23803741E-01 0.44826112E+03</pdfrwt>
<pdfrwt beam="2">  1       21 0.20269613E+00 0.44826112E+03</pdfrwt>
<totfact> 0.18109599E+03</totfact>
</mgrwt>
</event>
<event>
 4    1  0.4832791E-002  0.5082887E+03  0.7818608E-02  0.1011638E+00
         21   -1    0    0  503  502  0.00000000000E+00  0.00000000000E+00  0.31889454107E+03  0.31889454107E+03  0.00000000000E+00 0. -1.
         21   -1    0    0  501  503 -0.00000000000E+00 -0.00000000000E+00 -0.20046314475E+04  0.20046314475E+04  0.00000000000E+00 0. -1.
    9000007    1    1    2  501    0  0.17143944577E+03  0.26261361157E+03 -0.17396509735E+04  0.18123859694E+04  0.40000000000E+03 0. -1.
   -9000007    1    1    2    0  502 -0.17143944577E+03 -0.26261361157E+03  0.53914067067E+02  0.51114001915E+03  0.40000000000E+03 0. -1.
<mgrwt>
<rscale>  2 0.50828869E+03</rscale>
<asrwt>0</asrwt>
<pdfrwt beam="1">  1       21 0.49060699E-01 0.50828869E+03</pdfrwt>
<pdfrwt beam="2">  1       21 0.30840483E+00 0.50828869E+03</pdfrwt>
<totfact> 0.89884311E+01</totfact>
</mgrwt>
</event>
<event>
 4    1  0.4832791E-002  0.4101359E+03  0.7818608E-02  0.1040325E+00
         21   -1    0    0  501  502  0.00000000000E+00  0.00000000000E+00  0.25702946609E+03  0.25702946609E+03  0.00000000000E+00 0. -1.
         21   -1    0    0  502  503 -0.00000000000E+00 -0.00000000000E+00 -0.68070184156E+03  0.68070184156E+03  0.00000000000E+00 0. -1.
    9000007    1    1    2  501    0 -0.10243424545E+01  0.90611241082E+02 -0.11974931609E+03  0.42726027781E+03  0.40000000000E+03 0.  1.
   -9000007    1    1    2    0  503  0.10243424545E+01 -0.90611241082E+02 -0.30392305937E+03  0.51047102984E+03  0.40000000000E+03 0.  1.
<mgrwt>
<rscale>  2 0.41013589E+03</rscale>
<asrwt>0</asrwt>
<pdfrwt beam="1">  1       21 0.39542994E-01 0.41013589E+03</pdfrwt>
<pdfrwt beam="2">  1       21 0.10472336E+00 0.41013589E+03</pdfrwt>
<totfact> 0.40179967E+03</totfact>
</mgrwt>
</event>
<event>
 4    1  0.4832791E-002  0.4372125E+03  0.7818608E-02  0.1031606E+00
         21   -1    0    0  501  502  0.00000000000E+00  0.00000000000E+00  0.56615120560E+03  0.56615120560E+03  0.00000000000E+00 0.  1.
         21   -1    0    0  502  503 -0.00000000000E+00 -0.00000000000E+00 -0.44342440672E+03  0.44342440672E+03  0.00000000000E+00 0.  1.
    9000007    1    1    2  501    0  0.17261244286E+03  0.36874336233E+02  0.30791724163E+03  0.53475957195E+03  0.40000000000E+03 0.  1.
   -9000007    1    1    2    0  503 -0.17261244286E+03 -0.36874336233E+02 -0.18519044276E+03  0.47481604037E+03  0.40000000000E+03 0.  1.
<mgrwt>
<rscale>  2 0.43721250E+03</rscale>
<asrwt>0</asrwt>
<pdfrwt beam="1">  1       21 0.87100185E-01 0.43721250E+03</pdfrwt>
<pdfrwt beam="2">  1       21 0.68219140E-01 0.43721250E+03</pdfrwt>
<totfact> 0.19257109E+03</totfact>
</mgrwt>
</event>
<event>
 4    1  0.4832791E-002  0.4777901E+03  0.7818608E-02  0.1019744E+00
         21   -1    0    0  501  502  0.00000000000E+00  0.00000000000E+00  0.80199618327E+03  0.80199618327E+03  0.00000000000E+00 0. -1.
         21   -1    0    0  502  503 -0.00000000000E+00 -0.00000000000E+00 -0.36387388814E+03  0.36387388814E+03  0.00000000000E+00 0.  1.
    9000007    1    1    2  501    0  0.18693444979E+03 -0.18258949125E+03 -0.52951565597E+02  0.48071538266E+03  0.40000000000E+03 0.  1.
   -9000007    1    1    2    0  503 -0.18693444979E+03  0.18258949125E+03  0.49107386073E+03  0.68515468875E+03  0.40000000000E+03 0. -1.
<mgrwt>
<rscale>  2 0.47779013E+03</rscale>
<asrwt>0</asrwt>
<pdfrwt beam="1">  1       21 0.12338403E+00 0.47779013E+03</pdfrwt>
<pdfrwt beam="2">  1       21 0.55980598E-01 0.47779013E+03</pdfrwt>
<totfact> 0.12481944E+03</totfact>
</mgrwt>
</event>
<event>
 4    1  0.4832791E-002  0.5661408E+03  0.7818608E-02  0.9978255E-01
         21   -1    0    0  503  502  0.00000000000E+00  0.00000000000E+00  0.22227396682E+03  0.22227396682E+03  0.00000000000E+00 0. -1.
         21   -1    0    0  501  503 -0.00000000000E+00 -0.00000000000E+00 -0.14549333479E+04  0.14549333479E+04  0.00000000000E+00 0. -1.
    9000007    1    1    2  501    0  0.16033633901E+03 -0.36716156896E+03 -0.53721264710E+03  0.78045678134E+03  0.40000000000E+03 0. -1.
   -9000007    1    1    2    0  502 -0.16033633901E+03  0.36716156896E+03 -0.69544673397E+03  0.89675053338E+03  0.40000000000E+03 0. -1.
<mgrwt>
<rscale>  2 0.56614076E+03</rscale>
<asrwt>0</asrwt>
<pdfrwt beam="1">  1       21 0.34195997E-01 0.56614076E+03</pdfrwt>
<pdfrwt beam="2">  1       21 0.22383589E+00 0.56614076E+03</pdfrwt>
<totfact> 0.61317574E+02</totfact>
</mgrwt>
</event>
<event>
 4    1  0.4832791E-002  0.4020680E+03  0.7818608E-02  0.1043066E+00
         21   -1    0    0  503  502  0.00000000000E+00  0.00000000000E+00  0.28554633609E+03  0.28554633609E+03  0.00000000000E+00 0.  1.
         21   -1    0    0  501  503 -0.00000000000E+00 -0.00000000000E+00 -0.13390587555E+04  0.13390587555E+04  0.00000000000E+00 0.  1.
    9000007    1    1    2  501    0 -0.37605012412E+01 -0.40552410026E+02 -0.11438987373E+04  0.12125027672E+04  0.40000000000E+03 0.  1.
   -9000007    1    1    2    0  502  0.37605012412E+01  0.40552410026E+02  0.90386317839E+02  0.41210232441E+03  0.40000000000E+03 0.  1.
<mgrwt>
<rscale>  2 0.40206795E+03</rscale>
<asrwt>0</asrwt>
<pdfrwt beam="1">  1       21 0.43930206E-01 0.40206795E+03</pdfrwt>
<pdfrwt beam="2">  1       21 0.20600904E+00 0.40206795E+03</pdfrwt>
<totfact> 0.51594996E+02</totfact>
</mgrwt>
</event>
<event>
 4    1  0.4832791E-002  0.4441788E+03  0.7818608E-02  0.1029472E+00
         21   -1    0    0  503  502  0.00000000000E+00  0.00000000000E+00  0.11148693298E+04  0.11148693298E+04  0.00000000000E+00 0.  1.
         21   -1    0    0  501  503 -0.00000000000E+00 -0.00000000000E+00 -0.17771508220E+03  0.17771508220E+03  0.00000000000E+00 0.  1.
    9000007    1    1    2  501    0  0.18060401606E+03  0.68388513127E+02  0.51051579591E+03  0.67669873446E+03  0.40000000000E+03 0. -1.
   -9000007    1    1    2    0  502 -0.18060401606E+03 -0.68388513127E+02  0.42663845168E+03  0.61588567754E+03  0.40000000000E+03 0. -1.
<mgrwt>
<rscale>  2 0.44417879E+03</rscale>
<asrwt>0</asrwt>
<pdfrwt beam="1">  1       21 0.17151835E+00 0.44417879E+03</pdfrwt>
<pdfrwt beam="2">  1       21 0.27340782E-01 0.44417879E+03</pdfrwt>
<totfact> 0.22739759E+03</totfact>
</mgrwt>
</event>
<event>
 4    1  0.4832791E-002  0.4079118E+03  0.7818608E-02  0.1041074E+00
         21   -1    0    0  503  502  0.00000000000E+00  0.00000000000E+00  0.12818906459E+03  0.12818906459E+03  0.00000000000E+00 0. -1.
         21   -1    0    0  501  503 -0.00000000000E+00 -0.00000000000E+00 -0.15897274108E+04  0.15897274108E+04  0.00000000000E+00 0. -1.
    9000007    1    1    2  501    0 -0.68303404497E+02  0.41553240449E+02 -0.10987151990E+04  0.11719927967E+04  0.40000000000E+03 0. -1.
   -9000007    1    1    2    0  502  0.68303404497E+02 -0.41553240449E+02 -0.36282314719E+03  0.54592367873E+03  0.40000000000E+03 0. -1.
<mgrwt>
<rscale>  2 0.40791179E+03</rscale>
<asrwt>0</asrwt>
<pdfrwt beam="1">  1       21 0.19721395E-01 0.40791179E+03</pdfrwt>
<pdfrwt beam="2">  1       21 0.24457344E+00 0.40791179E+03</pdfrwt>
<totfact> 0.14343974E+03</totfact>
</mgrwt>
</event>
<event>
 4    1  0.4832791E-002  0.4148241E+03  0.7818608E-02  0.1038764E+00
         21   -1    0    0  503  502  0.00000000000E+00  0.00000000000E+00  0.14513185065E+04  0.14513185065E+04  0.00000000000E+00 0. -1.
         21   -1    0    0  501  503 -0.00000000000E+00 -0.00000000000E+00 -0.19580848598E+03  0.19580848598E+03  0.00000000000E+00 0. -1.
    9000007    1    1    2  501    0  0.84315966096E+02  0.70497256983E+02  0.11049899306E+03  0.42928903183E+03  0.40000000000E+03 0. -1.
   -9000007    1    1    2    0  502 -0.84315966096E+02 -0.70497256983E+02  0.11450110275E+04  0.12178379607E+04  0.40000000000E+03 0. -1.
<mgrwt>
<rscale>  2 0.41482411E+03</rscale>
<asrwt>0</asrwt>
<pdfrwt beam="1">  1       21 0.22327976E+00 0.41482411E+03</pdfrwt>
<pdfrwt beam="2">  1       21 0.30124383E-01 0.41482411E+03</pdfrwt>
<totfact> 0.85350295E+02</totfact>
</mgrwt>
</event>
<event>
 4    1  0.4832791E-002  0.4694581E+03  0.7818608E-02  0.1022073E+00
         21   -1    0    0  501  502  0.00000000000E+00  0.00000000000E+00  0.96117447757E+03  0.96117447757E+03  0.00000000000E+00 0.  1.
         21   -1    0    0  502  503 -0.00000000000E+00 -0.00000000000E+00 -0.22929822790E+03  0.22929822790E+03  0.00000000000E+00 0. -1.
    9000007    1    1    2  501    0 -0.39069836708E+01  0.24571459420E+03  0.36868046777E+03  0.59692228443E+03  0.40000000000E+03 0.  1.
   -9000007    1    1    2    0  503  0.39069836708E+01 -0.24571459420E+03  0.36319578190E+03  0.59355042104E+03  0.40000000000E+03 0. -1.
<mgrwt>
<rscale>  2 0.46945812E+03</rscale>
<asrwt>0</asrwt>
<pdfrwt beam="1">  1       21 0.14787300E+00 0.46945812E+03</pdfrwt>
<pdfrwt beam="2">  1       21 0.35276651E-01 0.46945812E+03</pdfrwt>
<totfact> 0.20449880E+03</totfact>
</mgrwt>
</event>
<event>
 4    1  0.4832791E-002  0.4154630E+03  0.7818608E-02  0.1038553E+00
         21   -1    0    0  503  502  0.00000000000E+00  0.00000000000E+00  0.41076785173E+03  0.41076785173E+03  0.00000000000E+00 0.  1.
         21   -1    0    0  501  503 -0.00000000000E+00 -0.00000000000E+00 -0.80118724433E+03  0.80118724433E+03  0.00000000000E+00 0.  1.
    9000007    1    1    2  501    0  0.15704763438E+02  0.11118825770E+03 -0.61307667616E+03  0.74058927828E+03  0.40000000000E+03 0.  1.
   -9000007    1    1    2    0  502 -0.15704763438E+02 -0.11118825770E+03  0.22265728357E+03  0.47136581778E+03  0.40000000000E+03 0.  1.
<mgrwt>
<rscale>  2 0.41546296E+03</rscale>
<asrwt>0</asrwt>
<pdfrwt beam="1">  1       21 0.63195055E-01 0.41546296E+03</pdfrwt>
<pdfrwt beam="2">  1       21 0.12325957E+00 0.41546296E+03</pdfrwt>
<totfact> 0.98517149E+02</totfact>
</mgrwt>
</event>
<event>
 4    1  0.4832791E-002  0.4795999E+03  0.7818608E-02  0.1019245E+00
         21   -1    0    0  503  502  0.00000000000E+00  0.00000000000E+00  0.32127029754E+03  0.32127029754E+03  0.00000000000E+00 0. -1.
         21   -1    0    0  501  503 -0.00000000000E+00 -0.00000000000E+00 -0.96463390322E+03  0.96463390322E+03  0.00000000000E+00 0. -1.
    9000007    1    1    2  501    0 -0.25619197692E+03  0.66194458702E+02 -0.64812996069E+03  0.80628064677E+03  0.40000000000E+03 0. -1.
   -9000007    1    1    2    0  502  0.25619197692E+03 -0.66194458702E+02  0.47663550097E+01  0.47962355399E+03  0.40000000000E+03 0. -1.
<mgrwt>
<rscale>  2 0.47959987E+03</rscale>
<asrwt>0</asrwt>
<pdfrwt beam="1">  1       21 0.49426200E-01 0.47959987E+03</pdfrwt>
<pdfrwt beam="2">  1       21 0.14840521E+00 0.47959987E+03</pdfrwt>
<totfact> 0.10016845E+03</totfact>
</mgrwt>
</event>
<event>
 4    1  0.4832791E-002  0.5561352E+03  0.7818608E-02  0.1000084E+00
         21   -1    0    0  501  502  0.00000000000E+00  0.00000000000E+00  0.21959911990E+03  0.21959911990E+03  0.00000000000E+00 0. -1.
         21   -1    0    0  502  503 -0.00000000000E+00 -0.00000000000E+00 -0.26823207468E+04  0.26823207468E+04  0.00000000000E+00 0. -1.
    9000007    1    1    2  501    0 -0.24975541542E+02  0.38556783028E+03 -0.23143219699E+03  0.60236798655E+03  0.40000000000E+03 0. -1.
   -9000007    1    1    2    0  503  0.24975541542E+02 -0.38556783028E+03 -0.22312894299E+04  0.22995518801E+04  0.40000000000E+03 0. -1.
<mgrwt>
<rscale>  2 0.55613517E+03</rscale>
<asrwt>0</asrwt>
<pdfrwt beam="1">  1       21 0.33784477E-01 0.55613517E+03</pdfrwt>
<pdfrwt beam="2">  1       21 0.41266477E+00 0.55613517E+03</pdfrwt>
<totfact> 0.42281828E+01</totfact>
</mgrwt>
</event>
<event>
 4    1  0.4832791E-002  0.4367655E+03  0.7818608E-02  0.1031744E+00
         21   -1    0    0  503  502  0.00000000000E+00  0.00000000000E+00  0.35641938760E+03  0.35641938760E+03  0.00000000000E+00 0. -1.
         21   -1    0    0  501  503 -0.00000000000E+00 -0.00000000000E+00 -0.60043480581E+03  0.60043480581E+03  0.00000000000E+00 0. -1.
    9000007    1    1    2  501    0 -0.15269953768E+03 -0.86295581136E+02 -0.27967582436E+03  0.51863536600E+03  0.40000000000E+03 0. -1.
   -9000007    1    1    2    0  502  0.15269953768E+03  0.86295581136E+02  0.35660406157E+02  0.43821882741E+03  0.40000000000E+03 0. -1.
<mgrwt>
<rscale>  2 0.43676547E+03</rscale>
<asrwt>0</asrwt>
<pdfrwt beam="1">  1       21 0.54833752E-01 0.43676547E+03</pdfrwt>
<pdfrwt beam="2">  1       21 0.92374585E-01 0.43676547E+03</pdfrwt>
<totfact> 0.27085634E+03</totfact>
</mgrwt>
</event>
<event>
 4    1  0.4832791E-002  0.4853147E+03  0.7818608E-02  0.1017685E+00
         21   -1    0    0  503  502  0.00000000000E+00  0.00000000000E+00  0.15696235767E+03  0.15696235767E+03  0.00000000000E+00 0.  1.
         21   -1    0    0  501  503 -0.00000000000E+00 -0.00000000000E+00 -0.18486552614E+04  0.18486552614E+04  0.00000000000E+00 0.  1.
    9000007    1    1    2  501    0  0.76121028950E+02  0.26407572593E+03 -0.12810008180E+04  0.13698516328E+04  0.40000000000E+03 0.  1.
   -9000007    1    1    2    0  502 -0.76121028950E+02 -0.26407572593E+03 -0.41069208575E+03  0.63576598633E+03  0.40000000000E+03 0.  1.
<mgrwt>
<rscale>  2 0.48531474E+03</rscale>
<asrwt>0</asrwt>
<pdfrwt beam="1">  1       21 0.24148057E-01 0.48531474E+03</pdfrwt>
<pdfrwt beam="2">  1       21 0.28440848E+00 0.48531474E+03</pdfrwt>
<totfact> 0.53489525E+02</totfact>
</mgrwt>
</event>
<event>
 4    1  0.4832791E-002  0.4138263E+03  0.7818608E-02  0.1039095E+00
         21   -1    0    0  503  502  0.00000000000E+00  0.00000000000E+00  0.57895330328E+03  0.57895330328E+03  0.00000000000E+00 0. -1.
         21   -1    0    0  501  503 -0.00000000000E+00 -0.00000000000E+00 -0.79516355317E+03  0.79516355317E+03  0.00000000000E+00 0. -1.
    9000007    1    1    2  501    0  0.94840084286E+02  0.47513444559E+02 -0.65257709333E+03  0.77272830396E+03  0.40000000000E+03 0. -1.
   -9000007    1    1    2    0  502 -0.94840084286E+02 -0.47513444559E+02  0.43636684345E+03  0.60138855249E+03  0.40000000000E+03 0. -1.
<mgrwt>
<rscale>  2 0.41382625E+03</rscale>
<asrwt>0</asrwt>
<pdfrwt beam="1">  1       21 0.89069740E-01 0.41382625E+03</pdfrwt>
<pdfrwt beam="2">  1       21 0.12233285E+00 0.41382625E+03</pdfrwt>
<totfact> 0.45978244E+02</totfact>
</mgrwt>
</event>
<event>
 4    1  0.4832791E-002  0.6101547E+03  0.7818608E-02  0.9884559E-01
         21   -1    0    0  501  502  0.00000000000E+00  0.00000000000E+00  0.36394686177E+03  0.36394686177E+03  0.00000000000E+00 0.  1.
         21   -1    0    0  502  503 -0.00000000000E+00 -0.00000000000E+00 -0.12660112613E+04  0.12660112613E+04  0.00000000000E+00 0. -1.
    9000007    1    1    2  501    0  0.39733533213E+03  0.23326680315E+03 -0.80815020066E+03  0.10126181484E+04  0.40000000000E+03 0.  1.
   -9000007    1    1    2    0  503 -0.39733533213E+03 -0.23326680315E+03 -0.93914198871E+02  0.61733997470E+03  0.40000000000E+03 0. -1.
<mgrwt>
<rscale>  2 0.61015471E+03</rscale>
<asrwt>0</asrwt>
<pdfrwt beam="1">  1       21 0.55991824E-01 0.61015471E+03</pdfrwt>
<pdfrwt beam="2">  1       21 0.19477097E+00 0.61015471E+03</pdfrwt>
<totfact> 0.33336040E+02</totfact>
</mgrwt>
</event>
<event>
 4    1  0.4832791E-002  0.4214224E+03  0.7818608E-02  0.1036604E+00
         21   -1    0    0  503  502  0.00000000000E+00  0.00000000000E+00  0.65420278783E+03  0.65420278783E+03  0.00000000000E+00 0.  1.
         21   -1    0    0  501  503 -0.00000000000E+00 -0.00000000000E+00 -0.39427792960E+03  0.39427792960E+03  0.00000000000E+00 0.  1.
    9000007    1    1    2  501    0  0.75432091381E+02 -0.10911858714E+03  0.42254014546E+03  0.59677218517E+03  0.40000000000E+03 0.  1.
   -9000007    1    1    2    0  502 -0.75432091381E+02  0.10911858714E+03 -0.16261528723E+03  0.45170853225E+03  0.40000000000E+03 0.  1.
<mgrwt>
<rscale>  2 0.42142243E+03</rscale>
<asrwt>0</asrwt>
<pdfrwt beam="1">  1       21 0.10064658E+00 0.42142243E+03</pdfrwt>
<pdfrwt beam="2">  1       21 0.60658143E-01 0.42142243E+03</pdfrwt>
<totfact> 0.17803511E+03</totfact>
</mgrwt>
</event>
<event>
 4    1  0.4832791E-002  0.4942602E+03  0.7818608E-02  0.1015288E+00
         21   -1    0    0  501  502  0.00000000000E+00  0.00000000000E+00  0.40570748681E+03  0.40570748681E+03  0.00000000000E+00 0.  1.
         21   -1    0    0  502  503 -0.00000000000E+00 -0.00000000000E+00 -0.12470451302E+04  0.12470451302E+04  0.00000000000E+00 0. -1.
    9000007    1    1    2  501    0  0.26132297957E+03 -0.12650472644E+03  0.17360188573E+03  0.52386139406E+03  0.40000000000E+03 0.  1.
   -9000007    1    1    2    0  503 -0.26132297957E+03  0.12650472644E+03 -0.10149395291E+04  0.11288912229E+04  0.40000000000E+03 0. -1.
<mgrwt>
<rscale>  2 0.49426020E+03</rscale>
<asrwt>0</asrwt>
<pdfrwt beam="1">  1       21 0.62416538E-01 0.49426020E+03</pdfrwt>
<pdfrwt beam="2">  1       21 0.19185309E+00 0.49426020E+03</pdfrwt>
<totfact> 0.28833465E+02</totfact>
</mgrwt>
</event>
<event>
 4    1  0.4832791E-002  0.4020306E+03  0.7818608E-02  0.1043079E+00
         21   -1    0    0  501  502  0.00000000000E+00  0.00000000000E+00  0.57297288835E+03  0.57297288835E+03  0.00000000000E+00 0. -1.
         21   -1    0    0  502  503 -0.00000000000E+00 -0.00000000000E+00 -0.42536755472E+03  0.42536755472E+03  0.00000000000E+00 0. -1.
    9000007    1    1    2  501    0  0.38519875870E+02  0.12035485918E+02  0.36350965890E+03  0.54200360319E+03  0.40000000000E+03 0. -1.
   -9000007    1    1    2    0  503 -0.38519875870E+02 -0.12035485918E+02 -0.21590432527E+03  0.45633683988E+03  0.40000000000E+03 0. -1.
<mgrwt>
<rscale>  2 0.40203064E+03</rscale>
<asrwt>0</asrwt>
<pdfrwt beam="1">  1       21 0.88149675E-01 0.40203064E+03</pdfrwt>
<pdfrwt beam="2">  1       21 0.65441162E-01 0.40203064E+03</pdfrwt>
<totfact> 0.20834590E+03</totfact>
</mgrwt>
</event>
<event>
 4    1  0.4832791E-002  0.4702522E+03  0.7818608E-02  0.1021849E+00
         21   -1    0    0  503  502  0.00000000000E+00  0.00000000000E+00  0.59490420236E+03  0.59490420236E+03  0.00000000000E+00 0. -1.
         21   -1    0    0  501  503 -0.00000000000E+00 -0.00000000000E+00 -0.44897703326E+03  0.44897703326E+03  0.00000000000E+00 0. -1.
    9000007    1    1    2  501    0 -0.12142422906E+03  0.21539101741E+03 -0.14354800408E+03  0.49167383829E+03  0.40000000000E+03 0.  1.
   -9000007    1    1    2    0  502  0.12142422906E+03 -0.21539101741E+03  0.28947517318E+03  0.55220739733E+03  0.40000000000E+03 0.  1.
<mgrwt>
<rscale>  2 0.47025220E+03</rscale>
<asrwt>0</asrwt>
<pdfrwt beam="1">  1       21 0.91523724E-01 0.47025220E+03</pdfrwt>
<pdfrwt beam="2">  1       21 0.69073389E-01 0.47025220E+03</pdfrwt>
<totfact> 0.16449107E+03</totfact>
</mgrwt>
</event>
<event>
 4    1  0.4832791E-002  0.8110704E+03  0.7818608E-02  0.9544130E-01
         21   -1    0    0  503  502  0.00000000000E+00  0.00000000000E+00  0.30097122868E+03  0.30097122868E+03  0.00000000000E+00 0. -1.
         21   -1    0    0  501  503 -0.00000000000E+00 -0.00000000000E+00 -0.21857187102E+04  0.21857187102E+04  0.00000000000E+00 0. -1.
    9000007    1    1    2  501    0 -0.56042051383E+03 -0.42867699430E+03 -0.94517028661E+03  0.12454645673E+04  0.40000000000E+03 0. -1.
   -9000007    1    1    2    0  502  0.56042051383E+03  0.42867699430E+03 -0.93957719488E+03  0.12412253715E+04  0.40000000000E+03 0. -1.
<mgrwt>
<rscale>  2 0.81107035E+03</rscale>
<asrwt>0</asrwt>
<pdfrwt beam="1">  1       21 0.46303266E-01 0.81107035E+03</pdfrwt>
<pdfrwt beam="2">  1       21 0.33626442E+00 0.81107035E+03</pdfrwt>
<totfact> 0.59882965E+01</totfact>
</mgrwt>
</event>
<event>
 4    1  0.4832791E-002  0.4109978E+03  0.7818608E-02  0.1040037E+00
         21   -1    0    0  501  502  0.00000000000E+00  0.00000000000E+00  0.63165633777E+03  0.63165633777E+03  0.00000000000E+00 0.  1.
         21   -1    0    0  502  503 -0.00000000000E+00 -0.00000000000E+00 -0.35222240247E+03  0.35222240247E+03  0.00000000000E+00 0.  1.
    9000007    1    1    2  501    0  0.78865800398E+02  0.51955350799E+02  0.38109655623E+03  0.56049420882E+03  0.40000000000E+03 0.  1.
   -9000007    1    1    2    0  503 -0.78865800398E+02 -0.51955350799E+02 -0.10166262093E+03  0.42338453142E+03  0.40000000000E+03 0.  1.
<mgrwt>
<rscale>  2 0.41099778E+03</rscale>
<asrwt>0</asrwt>
<pdfrwt beam="1">  1       21 0.97177898E-01 0.41099778E+03</pdfrwt>
<pdfrwt beam="2">  1       21 0.54188062E-01 0.41099778E+03</pdfrwt>
<totfact> 0.24858016E+03</totfact>
</mgrwt>
</event>
<event>
 4    1  0.4832791E-002  0.4757958E+03  0.7818608E-02  0.1020297E+00
         21   -1    0    0  503  502  0.00000000000E+00  0.00000000000E+00  0.29602013555E+03  0.29602013555E+03  0.00000000000E+00 0.  1.
         21   -1    0    0  501  503 -0.00000000000E+00 -0.00000000000E+00 -0.19928202717E+04  0.19928202717E+04  0.00000000000E+00 0. -1.
    9000007    1    1    2  501    0  0.20248029650E+03 -0.15932161531E+03 -0.17467859338E+04  0.18104261228E+04  0.40000000000E+03 0. -1.
   -9000007    1    1    2    0  502 -0.20248029650E+03  0.15932161531E+03  0.49985797683E+02  0.47841428443E+03  0.40000000000E+03 0.  1.
<mgrwt>
<rscale>  2 0.47579580E+03</rscale>
<asrwt>0</asrwt>
<pdfrwt beam="1">  1       21 0.45541557E-01 0.47579580E+03</pdfrwt>
<pdfrwt beam="2">  1       21 0.30658775E+00 0.47579580E+03</pdfrwt>
<totfact> 0.10998672E+02</totfact>
</mgrwt>
</event>
<event>
 4    1  0.4832791E-002  0.4029849E+03  0.7818608E-02  0.1042751E+00
         21   -1    0    0  501  502  0.00000000000E+00  0.00000000000E+00  0.56081128435E+03  0.56081128435E+03  0.00000000000E+00 0.  1.
         21   -1    0    0  502  503 -0.00000000000E+00 -0.00000000000E+00 -0.38264349575E+03  0.38264349575E+03  0.00000000000E+00 0.  1.
    9000007    1    1    2  501    0  0.34668962590E+02 -0.34567705063E+02  0.32172986825E+03  0.51566168301E+03  0.40000000000E+03 0. -1.
   -9000007    1    1    2    0  503 -0.34668962590E+02  0.34567705063E+02 -0.14356207965E+03  0.42779309709E+03  0.40000000000E+03 0. -1.
<mgrwt>
<rscale>  2 0.40298494E+03</rscale>
<asrwt>0</asrwt>
<pdfrwt beam="1">  1       21 0.86278659E-01 0.40298494E+03</pdfrwt>
<pdfrwt beam="2">  1       21 0.58868230E-01 0.40298494E+03</pdfrwt>
<totfact> 0.27641444E+03</totfact>
</mgrwt>
</event>
<event>
 4    1  0.4832791E-002  0.4017015E+03  0.7818608E-02  0.1043192E+00
         21   -1    0    0  503  502  0.00000000000E+00  0.00000000000E+00  0.28997441359E+03  0.28997441359E+03  0.00000000000E+00 0.  1.
         21   -1    0    0  501  503 -0.00000000000E+00 -0.00000000000E+00 -0.64718193176E+03  0.64718193176E+03  0.00000000000E+00 0.  1.
    9000007    1    1    2  501    0  0.36765924961E+02  0.35141967353E+01 -0.35402589178E+03  0.53544226100E+03  0.40000000000E+03 0.  1.
   -9000007    1    1    2    0  502 -0.36765924961E+02 -0.35141967353E+01 -0.31816263873E+01  0.40171408435E+03  0.40000000000E+03 0.  1.
<mgrwt>
<rscale>  2 0.40170148E+03</rscale>
<asrwt>0</asrwt>
<pdfrwt beam="1">  1       21 0.44611449E-01 0.40170148E+03</pdfrwt>
<pdfrwt beam="2">  1       21 0.99566450E-01 0.40170148E+03</pdfrwt>
<totfact> 0.35524197E+03</totfact>
</mgrwt>
</event>
<event>
 4    1  0.4832791E-002  0.4212626E+03  0.7818608E-02  0.1036656E+00
         21   -1    0    0  503  502  0.00000000000E+00  0.00000000000E+00  0.33986497366E+03  0.33986497366E+03  0.00000000000E+00 0.  1.
         21   -1    0    0  501  503 -0.00000000000E+00 -0.00000000000E+00 -0.60330401038E+03  0.60330401038E+03  0.00000000000E+00 0. -1.
    9000007    1    1    2  501    0 -0.39979071043E+02 -0.12595187327E+03 -0.30467446274E+03  0.51989299740E+03  0.40000000000E+03 0. -1.
   -9000007    1    1    2    0  502  0.39979071043E+02  0.12595187327E+03  0.41235426021E+02  0.42327598663E+03  0.40000000000E+03 0.  1.
<mgrwt>
<rscale>  2 0.42126263E+03</rscale>
<asrwt>0</asrwt>
<pdfrwt beam="1">  1       21 0.52286920E-01 0.42126263E+03</pdfrwt>
<pdfrwt beam="2">  1       21 0.92816000E-01 0.42126263E+03</pdfrwt>
<totfact> 0.29832674E+03</totfact>
</mgrwt>
</event>
<event>
 4    1  0.4832791E-002  0.4054699E+03  0.7818608E-02  0.1041902E+00
         21   -1    0    0  503  502  0.00000000000E+00  0.00000000000E+00  0.56378428083E+03  0.56378428083E+03  0.00000000000E+00 0. -1.
         21   -1    0    0  501  503 -0.00000000000E+00 -0.00000000000E+00 -0.38677132493E+03  0.38677132493E+03  0.00000000000E+00 0. -1.
    9000007    1    1    2  501    0  0.14056130873E+02 -0.64871097651E+02 -0.14724140666E+03  0.43137671004E+03  0.40000000000E+03 0. -1.
   -9000007    1    1    2    0  502 -0.14056130873E+02  0.64871097651E+02  0.32425436256E+03  0.51917889572E+03  0.40000000000E+03 0. -1.
<mgrwt>
<rscale>  2 0.40546989E+03</rscale>
<asrwt>0</asrwt>
<pdfrwt beam="1">  1       21 0.86736043E-01 0.40546989E+03</pdfrwt>
<pdfrwt beam="2">  1       21 0.59503281E-01 0.40546989E+03</pdfrwt>
<totfact> 0.26642496E+03</totfact>
</mgrwt>
</event>
<event>
 4    1  0.4832791E-002  0.4031721E+03  0.7818608E-02  0.1042687E+00
         21   -1    0    0  501  502  0.00000000000E+00  0.00000000000E+00  0.40636027406E+03  0.40636027406E+03  0.00000000000E+00 0.  1.
         21   -1    0    0  502  503 -0.00000000000E+00 -0.00000000000E+00 -0.57862023261E+03  0.57862023261E+03  0.00000000000E+00 0.  1.
    9000007    1    1    2  501    0 -0.33829696808E+02 -0.37460594335E+02  0.18749471093E+03  0.44463694307E+03  0.40000000000E+03 0.  1.
   -9000007    1    1    2    0  503  0.33829696808E+02  0.37460594335E+02 -0.35975466949E+03  0.54034356361E+03  0.40000000000E+03 0.  1.
<mgrwt>
<rscale>  2 0.40317210E+03</rscale>
<asrwt>0</asrwt>
<pdfrwt beam="1">  1       21 0.62516965E-01 0.40317210E+03</pdfrwt>
<pdfrwt beam="2">  1       21 0.89018498E-01 0.40317210E+03</pdfrwt>
<totfact> 0.22512909E+03</totfact>
</mgrwt>
</event>
<event>
 4    1  0.4832791E-002  0.4943008E+03  0.7818608E-02  0.1015277E+00
         21   -1    0    0  503  502  0.00000000000E+00  0.00000000000E+00  0.40828212876E+03  0.40828212876E+03  0.00000000000E+00 0.  1.
         21   -1    0    0  501  503 -0.00000000000E+00 -0.00000000000E+00 -0.99021346654E+03  0.99021346654E+03  0.00000000000E+00 0. -1.
    9000007    1    1    2  501    0 -0.16647167284E+03 -0.23795053866E+03 -0.73079375066E+03  0.88226570981E+03  0.40000000000E+03 0. -1.
   -9000007    1    1    2    0  502  0.16647167284E+03  0.23795053866E+03  0.14886241287E+03  0.51622988549E+03  0.40000000000E+03 0.  1.
<mgrwt>
<rscale>  2 0.49430080E+03</rscale>
<asrwt>0</asrwt>
<pdfrwt beam="1">  1       21 0.62812636E-01 0.49430080E+03</pdfrwt>
<pdfrwt beam="2">  1       21 0.15234053E+00 0.49430080E+03</pdfrwt>
<totfact> 0.55132180E+02</totfact>
</mgrwt>
</event>
<event>
 4    1  0.4832791E-002  0.5575508E+03  0.7818608E-02  0.9997612E-01
         21   -1    0    0  503  502  0.00000000000E+00  0.00000000000E+00  0.37051044186E+03  0.37051044186E+03  0.00000000000E+00 0.  1.
         21   -1    0    0  501  503 -0.00000000000E+00 -0.00000000000E+00 -0.12813886162E+04  0.12813886162E+04  0.00000000000E+00 0.  1.
    9000007    1    1    2  501    0  0.34614684988E+03  0.17619665657E+03 -0.94073753228E+03  0.10935492710E+04  0.40000000000E+03 0.  1.
   -9000007    1    1    2    0  502 -0.34614684988E+03 -0.17619665657E+03  0.29859357934E+02  0.55834978707E+03  0.40000000000E+03 0.  1.
<mgrwt>
<rscale>  2 0.55755081E+03</rscale>
<asrwt>0</asrwt>
<pdfrwt beam="1">  1       21 0.57001607E-01 0.55755081E+03</pdfrwt>
<pdfrwt beam="2">  1       21 0.19713671E+00 0.55755081E+03</pdfrwt>
<totfact> 0.31527177E+02</totfact>
</mgrwt>
</event>
<event>
 4    1  0.4832791E-002  0.4802110E+03  0.7818608E-02  0.1019077E+00
         21   -1    0    0  501  502  0.00000000000E+00  0.00000000000E+00  0.77428882199E+03  0.77428882199E+03  0.00000000000E+00 0. -1.
         21   -1    0    0  502  503 -0.00000000000E+00 -0.00000000000E+00 -0.32042008828E+03  0.32042008828E+03  0.00000000000E+00 0.  1.
    9000007    1    1    2  501    0  0.23970673166E+03  0.11464433892E+03  0.37228432186E+03  0.60761686773E+03  0.40000000000E+03 0. -1.
   -9000007    1    1    2    0  503 -0.23970673166E+03 -0.11464433892E+03  0.81584411846E+02  0.48709204254E+03  0.40000000000E+03 0.  1.
<mgrwt>
<rscale>  2 0.48021104E+03</rscale>
<asrwt>0</asrwt>
<pdfrwt beam="1">  1       21 0.11912136E+00 0.48021104E+03</pdfrwt>
<pdfrwt beam="2">  1       21 0.49295398E-01 0.48021104E+03</pdfrwt>
<totfact> 0.17926639E+03</totfact>
</mgrwt>
</event>
<event>
 4    1  0.4832791E-002  0.4250075E+03  0.7818608E-02  0.1035449E+00
         21   -1    0    0  501  502  0.00000000000E+00  0.00000000000E+00  0.43013006588E+03  0.43013006588E+03  0.00000000000E+00 0. -1.
         21   -1    0    0  502  503 -0.00000000000E+00 -0.00000000000E+00 -0.61534720894E+03  0.61534720894E+03  0.00000000000E+00 0. -1.
    9000007    1    1    2  501    0 -0.81365147345E+02  0.11836827990E+03  0.20196126371E+03  0.47055253578E+03  0.40000000000E+03 0. -1.
   -9000007    1    1    2    0  503  0.81365147345E+02 -0.11836827990E+03 -0.38717840678E+03  0.57492473904E+03  0.40000000000E+03 0. -1.
<mgrwt>
<rscale>  2 0.42500746E+03</rscale>
<asrwt>0</asrwt>
<pdfrwt beam="1">  1       21 0.66173856E-01 0.42500746E+03</pdfrwt>
<pdfrwt beam="2">  1       21 0.94668802E-01 0.42500746E+03</pdfrwt>
<totfact> 0.16999198E+03</totfact>
</mgrwt>
</event>
<event>
 4    1  0.4832791E-002  0.4069146E+03  0.7818608E-02  0.1041411E+00
         21   -1    0    0  501  502  0.00000000000E+00  0.00000000000E+00  0.14028535591E+04  0.14028535591E+04  0.00000000000E+00 0. -1.
         21   -1    0    0  502  503 -0.00000000000E+00 -0.00000000000E+00 -0.12064040386E+03  0.12064040386E+03  0.00000000000E+00 0. -1.
    9000007    1    1    2  501    0 -0.24907809768E+02  0.70420694789E+02  0.75314799864E+03  0.85604402988E+03  0.40000000000E+03 0.  1.
   -9000007    1    1    2    0  503  0.24907809768E+02 -0.70420694789E+02  0.52906515659E+03  0.66744993307E+03  0.40000000000E+03 0.  1.
<mgrwt>
<rscale>  2 0.40691458E+03</rscale>
<asrwt>0</asrwt>
<pdfrwt beam="1">  1       21 0.21582361E+00 0.40691458E+03</pdfrwt>
<pdfrwt beam="2">  1       21 0.18560063E-01 0.40691458E+03</pdfrwt>
<totfact> 0.24376724E+03</totfact>
</mgrwt>
</event>
<event>
 4    1  0.4832791E-002  0.4349955E+03  0.7818608E-02  0.1032293E+00
         21   -1    0    0  503  502  0.00000000000E+00  0.00000000000E+00  0.31442337792E+03  0.31442337792E+03  0.00000000000E+00 0. -1.
         21   -1    0    0  501  503 -0.00000000000E+00 -0.00000000000E+00 -0.61481205611E+03  0.61481205611E+03  0.00000000000E+00 0. -1.
    9000007    1    1    2  501    0  0.14524930541E+03 -0.90131571627E+02 -0.82610846226E+02  0.44277038388E+03  0.40000000000E+03 0. -1.
   -9000007    1    1    2    0  502 -0.14524930541E+03  0.90131571627E+02 -0.21777783197E+03  0.48646505016E+03  0.40000000000E+03 0. -1.
<mgrwt>
<rscale>  2 0.43499547E+03</rscale>
<asrwt>0</asrwt>
<pdfrwt beam="1">  1       21 0.48372828E-01 0.43499547E+03</pdfrwt>
<pdfrwt beam="2">  1       21 0.94586470E-01 0.43499547E+03</pdfrwt>
<totfact> 0.33478427E+03</totfact>
</mgrwt>
</event>
<event>
 4    1  0.4832791E-002  0.4264667E+03  0.7818608E-02  0.1034982E+00
         21   -1    0    0  501  502  0.00000000000E+00  0.00000000000E+00  0.44571064498E+03  0.44571064498E+03  0.00000000000E+00 0. -1.
         21   -1    0    0  502  503 -0.00000000000E+00 -0.00000000000E+00 -0.56773798751E+03  0.56773798751E+03  0.00000000000E+00 0. -1.
    9000007    1    1    2  501    0  0.14787164150E+03 -0.27949854036E+01  0.20772427478E+03  0.47436611244E+03  0.40000000000E+03 0. -1.
   -9000007    1    1    2    0  503 -0.14787164150E+03  0.27949854036E+01 -0.32975161731E+03  0.53908252005E+03  0.40000000000E+03 0. -1.
<mgrwt>
<rscale>  2 0.42646669E+03</rscale>
<asrwt>0</asrwt>
<pdfrwt beam="1">  1       21 0.68570868E-01 0.42646669E+03</pdfrwt>
<pdfrwt beam="2">  1       21 0.87344306E-01 0.42646669E+03</pdfrwt>
<totfact> 0.18991692E+03</totfact>
</mgrwt>
</event>
<event>
 4    1  0.4832791E-002  0.4428884E+03  0.7818608E-02  0.1029864E+00
         21   -1    0    0  503  502  0.00000000000E+00  0.00000000000E+00  0.50543102887E+03  0.50543102887E+03  0.00000000000E+00 0. -1.
         21   -1    0    0  501  503 -0.00000000000E+00 -0.00000000000E+00 -0.43102543213E+03  0.43102543213E+03  0.00000000000E+00 0. -1.
    9000007    1    1    2  501    0 -0.18883696110E+03 -0.22152891375E+02 -0.11058544122E+03  0.45648580294E+03  0.40000000000E+03 0. -1.
   -9000007    1    1    2    0  502  0.18883696110E+03  0.22152891375E+02  0.18499103796E+03  0.47997065806E+03  0.40000000000E+03 0. -1.
<mgrwt>
<rscale>  2 0.44288842E+03</rscale>
<asrwt>0</asrwt>
<pdfrwt beam="1">  1       21 0.77758620E-01 0.44288842E+03</pdfrwt>
<pdfrwt beam="2">  1       21 0.66311605E-01 0.44288842E+03</pdfrwt>
<totfact> 0.26645940E+03</totfact>
</mgrwt>
</event>
<event>
 4    1  0.4832791E-002  0.4276925E+03  0.7818608E-02  0.1034591E+00
         21   -1    0    0  503  502  0.00000000000E+00  0.00000000000E+00  0.13186654233E+03  0.13186654233E+03  0.00000000000E+00 0. -1.
         21   -1    0    0  501  503 -0.00000000000E+00 -0.00000000000E+00 -0.18046997062E+04  0.18046997062E+04  0.00000000000E+00 0.  1.
    9000007    1    1    2  501    0 -0.10919448539E+03 -0.10486884607E+03 -0.13021583209E+04  0.13705973892E+04  0.40000000000E+03 0.  1.
   -9000007    1    1    2    0  502  0.10919448539E+03  0.10486884607E+03 -0.37067484290E+03  0.56596885928E+03  0.40000000000E+03 0.  1.
<mgrwt>
<rscale>  2 0.42769254E+03</rscale>
<asrwt>0</asrwt>
<pdfrwt beam="1">  1       21 0.20287160E-01 0.42769254E+03</pdfrwt>
<pdfrwt beam="2">  1       21 0.27764611E+00 0.42769254E+03</pdfrwt>
<totfact> 0.84706074E+02</totfact>
</mgrwt>
</event>
<event>
 4    1  0.4832791E-002  0.5119734E+03  0.7818608E-02  0.1010700E+00
         21   -1    0    0  503  502  0.00000000000E+00  0.00000000000E+00  0.26312294915E+03  0.26312294915E+03  0.00000000000E+00 0.  1.
         21   -1    0    0  501  503 -0.00000000000E+00 -0.00000000000E+00 -0.15054586998E+04  0.15054586998E+04  0.00000000000E+00 0.  1.
    9000007    1    1    2  501    0  0.26765909346E+03 -0.17457189655E+03 -0.10683983068E+03  0.52300237743E+03  0.40000000000E+03 0.  1.
   -9000007    1    1    2    0  502 -0.26765909346E+03  0.17457189655E+03 -0.11354959199E+04  0.12455792715E+04  0.40000000000E+03 0.  1.
<mgrwt>
<rscale>  2 0.51197338E+03</rscale>
<asrwt>0</asrwt>
<pdfrwt beam="1">  1       21 0.40480454E-01 0.51197338E+03</pdfrwt>
<pdfrwt beam="2">  1       21 0.23160903E+00 0.51197338E+03</pdfrwt>
<totfact> 0.39626345E+02</totfact>
</mgrwt>
</event>
<event>
 4    1  0.4832791E-002  0.4082090E+03  0.7818608E-02  0.1040974E+00
         21   -1    0    0  503  502  0.00000000000E+00  0.00000000000E+00  0.28099455127E+03  0.28099455127E+03  0.00000000000E+00 0.  1.
         21   -1    0    0  501  503 -0.00000000000E+00 -0.00000000000E+00 -0.60096975473E+03  0.60096975473E+03  0.00000000000E+00 0.  1.
    9000007    1    1    2  501    0 -0.42214210528E+02 -0.69660021815E+02 -0.21071613376E+03  0.45938638121E+03  0.40000000000E+03 0.  1.
   -9000007    1    1    2    0  502  0.42214210528E+02  0.69660021815E+02 -0.10925906970E+03  0.42257792479E+03  0.40000000000E+03 0.  1.
<mgrwt>
<rscale>  2 0.40820896E+03</rscale>
<asrwt>0</asrwt>
<pdfrwt beam="1">  1       21 0.43229931E-01 0.40820896E+03</pdfrwt>
<pdfrwt beam="2">  1       21 0.92456885E-01 0.40820896E+03</pdfrwt>
<totfact> 0.45181625E+03</totfact>
</mgrwt>
</event>
<event>
 4    1  0.4832791E-002  0.6214317E+03  0.7818608E-02  0.9861913E-01
         21   -1    0    0  503  502  0.00000000000E+00  0.00000000000E+00  0.25171772082E+03  0.25171772082E+03  0.00000000000E+00 0.  1.
         21   -1    0    0  501  503 -0.00000000000E+00 -0.00000000000E+00 -0.16109053285E+04  0.16109053285E+04  0.00000000000E+00 0.  1.
    9000007    1    1    2  501    0 -0.36178230266E+03  0.30869231143E+03 -0.88285857803E+03  0.10796372754E+04  0.40000000000E+03 0.  1.
   -9000007    1    1    2    0  502  0.36178230266E+03 -0.30869231143E+03 -0.47632902964E+03  0.78298577390E+03  0.40000000000E+03 0.  1.
<mgrwt>
<rscale>  2 0.62143172E+03</rscale>
<asrwt>0</asrwt>
<pdfrwt beam="1">  1       21 0.38725805E-01 0.62143172E+03</pdfrwt>
<pdfrwt beam="2">  1       21 0.24783158E+00 0.62143172E+03</pdfrwt>
<totfact> 0.32817630E+02</totfact>
</mgrwt>
</event>
<event>
 4    1  0.4832791E-002  0.4205467E+03  0.7818608E-02  0.1036889E+00
         21   -1    0    0  501  502  0.00000000000E+00  0.00000000000E+00  0.20003619838E+03  0.20003619838E+03  0.00000000000E+00 0. -1.
         21   -1    0    0  502  503 -0.00000000000E+00 -0.00000000000E+00 -0.95839074439E+03  0.95839074439E+03  0.00000000000E+00 0. -1.
    9000007    1    1    2  501    0  0.12901313678E+03  0.14667540409E+02 -0.21795510897E+03  0.47367072501E+03  0.40000000000E+03 0.  1.
   -9000007    1    1    2    0  503 -0.12901313678E+03 -0.14667540409E+02 -0.54039943705E+03  0.68475621776E+03  0.40000000000E+03 0.  1.
<mgrwt>
<rscale>  2 0.42054670E+03</rscale>
<asrwt>0</asrwt>
<pdfrwt beam="1">  1       21 0.30774799E-01 0.42054670E+03</pdfrwt>
<pdfrwt beam="2">  1       21 0.14744473E+00 0.42054670E+03</pdfrwt>
<totfact> 0.27637668E+03</totfact>
</mgrwt>
</event>
<event>
 4    1  0.4832791E-002  0.4206504E+03  0.7818608E-02  0.1036855E+00
         21   -1    0    0  501  502  0.00000000000E+00  0.00000000000E+00  0.89162032056E+03  0.89162032056E+03  0.00000000000E+00 0.  1.
         21   -1    0    0  502  503 -0.00000000000E+00 -0.00000000000E+00 -0.28400383108E+03  0.28400383108E+03  0.00000000000E+00 0.  1.
    9000007    1    1    2  501    0  0.12542381865E+03 -0.34866319391E+02  0.62642181884E+03  0.75455356975E+03  0.40000000000E+03 0.  1.
   -9000007    1    1    2    0  503 -0.12542381865E+03  0.34866319391E+02 -0.18805329356E+02  0.42107058188E+03  0.40000000000E+03 0.  1.
<mgrwt>
<rscale>  2 0.42065044E+03</rscale>
<asrwt>0</asrwt>
<pdfrwt beam="1">  1       21 0.13717236E+00 0.42065044E+03</pdfrwt>
<pdfrwt beam="2">  1       21 0.43692897E-01 0.42065044E+03</pdfrwt>
<totfact> 0.16425764E+03</totfact>
</mgrwt>
</event>
<event>
 4    1  0.4832791E-002  0.6573268E+03  0.7818608E-02  0.9793127E-01
         21   -1    0    0  503  502  0.00000000000E+00  0.00000000000E+00  0.10816076912E+04  0.10816076912E+04  0.00000000000E+00 0. -1.
         21   -1    0    0  501  503 -0.00000000000E+00 -0.00000000000E+00 -0.77185363726E+03  0.77185363726E+03  0.00000000000E+00 0.  1.
    9000007    1    1    2  501    0  0.48046005704E+03  0.20306825587E+03 -0.48881277507E+03  0.81915597540E+03  0.40000000000E+03 0.  1.
   -9000007    1    1    2    0  502 -0.48046005704E+03 -0.20306825587E+03  0.79856682904E+03  0.10343053531E+04  0.40000000000E+03 0. -1.
<mgrwt>
<rscale>  2 0.65732685E+03</rscale>
<asrwt>0</asrwt>
<pdfrwt beam="1">  1       21 0.16640118E+00 0.65732685E+03</pdfrwt>
<pdfrwt beam="2">  1       21 0.11874671E+00 0.65732685E+03</pdfrwt>
<totfact> 0.89318265E+01</totfact>
</mgrwt>
</event>
<event>
 4    1  0.4832791E-002  0.5550850E+03  0.7818608E-02  0.1000324E+00
         21   -1    0    0  501  502  0.00000000000E+00  0.00000000000E+00  0.27220683665E+03  0.27220683665E+03  0.00000000000E+00 0.  1.
         21   -1    0    0  502  503 -0.00000000000E+00 -0.00000000000E+00 -0.14360659730E+04  0.14360659730E+04  0.00000000000E+00 0.  1.
    9000007    1    1    2  501    0 -0.31025671736E+03  0.22772811468E+03 -0.18885648784E+03  0.58633275355E+03  0.40000000000E+03 0.  1.
   -9000007    1    1    2    0  503  0.31025671736E+03 -0.22772811468E+03 -0.97500264850E+03  0.11219400561E+04  0.40000000000E+03 0.  1.
<mgrwt>
<rscale>  2 0.55508497E+03</rscale>
<asrwt>0</asrwt>
<pdfrwt beam="1">  1       21 0.41877975E-01 0.55508497E+03</pdfrwt>
<pdfrwt beam="2">  1       21 0.22093323E+00 0.55508497E+03</pdfrwt>
<totfact> 0.42401495E+02</totfact>
</mgrwt>
</event>
<event>
 4    1  0.4832791E-002  0.4072339E+03  0.7818608E-02  0.1041303E+00
         21   -1    0    0  503  502  0.00000000000E+00  0.00000000000E+00  0.73773073793E+03  0.73773073793E+03  0.00000000000E+00 0. -1.
         21   -1    0    0  501  503 -0.00000000000E+00 -0.00000000000E+00 -0.22782083314E+03  0.22782083314E+03  0.00000000000E+00 0. -1.
    9000007    1    1    2  501    0 -0.34473262124E+01 -0.76338646442E+02  0.19933308659E+03  0.45340175607E+03  0.40000000000E+03 0.  1.
   -9000007    1    1    2    0  502  0.34473262124E+01  0.76338646442E+02  0.31057681821E+03  0.51214981500E+03  0.40000000000E+03 0.  1.
<mgrwt>
<rscale>  2 0.40723393E+03</rscale>
<asrwt>0</asrwt>
<pdfrwt beam="1">  1       21 0.11349704E+00 0.40723393E+03</pdfrwt>
<pdfrwt beam="2">  1       21 0.35049359E-01 0.40723393E+03</pdfrwt>
<totfact> 0.42149644E+03</totfact>
</mgrwt>
</event>
<event>
 4    1  0.4832791E-002  0.4024392E+03  0.7818608E-02  0.1042938E+00
         21   -1    0    0  503  502  0.00000000000E+00  0.00000000000E+00  0.27545112597E+03  0.27545112597E+03  0.00000000000E+00 0.  1.
         21   -1    0    0  501  503 -0.00000000000E+00 -0.00000000000E+00 -0.58858252660E+03  0.58858252660E+03  0.00000000000E+00 0.  1.
    9000007    1    1    2  501    0 -0.32273035106E+02 -0.30262130648E+02 -0.17048805343E+03  0.43706237737E+03  0.40000000000E+03 0.  1.
   -9000007    1    1    2    0  502  0.32273035106E+02  0.30262130648E+02 -0.14264334721E+03  0.42697127520E+03  0.40000000000E+03 0.  1.
<mgrwt>
<rscale>  2 0.40243924E+03</rscale>
<asrwt>0</asrwt>
<pdfrwt beam="1">  1       21 0.42377097E-01 0.40243924E+03</pdfrwt>
<pdfrwt beam="2">  1       21 0.90551157E-01 0.40243924E+03</pdfrwt>
<totfact> 0.49580539E+03</totfact>
</mgrwt>
</event>
<event>
 4    1  0.4832791E-002  0.4418480E+03  0.7818608E-02  0.1030181E+00
         21   -1    0    0  501  502  0.00000000000E+00  0.00000000000E+00  0.73180535540E+02  0.73180535540E+02  0.00000000000E+00 0. -1.
         21   -1    0    0  502  503 -0.00000000000E+00 -0.00000000000E+00 -0.36306796041E+04  0.36306796041E+04  0.00000000000E+00 0. -1.
    9000007    1    1    2  501    0 -0.15057903844E+03 -0.11205173537E+03 -0.27324695817E+04  0.27679630874E+04  0.40000000000E+03 0.  1.
   -9000007    1    1    2    0  503  0.15057903844E+03  0.11205173537E+03 -0.82502948682E+03  0.93589705221E+03  0.40000000000E+03 0.  1.
<mgrwt>
<rscale>  2 0.44184798E+03</rscale>
<asrwt>0</asrwt>
<pdfrwt beam="1">  1       21 0.11258541E-01 0.44184798E+03</pdfrwt>
<pdfrwt beam="2">  1       21 0.55856625E+00 0.44184798E+03</pdfrwt>
<totfact> 0.34851339E+01</totfact>
</mgrwt>
</event>
<event>
 4    1  0.4832791E-002  0.4733184E+03  0.7818608E-02  0.1020988E+00
         21   -1    0    0  501  502  0.00000000000E+00  0.00000000000E+00  0.59873961380E+03  0.59873961380E+03  0.00000000000E+00 0.  1.
         21   -1    0    0  502  503 -0.00000000000E+00 -0.00000000000E+00 -0.43328531580E+03  0.43328531580E+03  0.00000000000E+00 0.  1.
    9000007    1    1    2  501    0 -0.20962216096E+03 -0.14173517833E+03  0.27332753123E+03  0.54656952940E+03  0.40000000000E+03 0.  1.
   -9000007    1    1    2    0  503  0.20962216096E+03  0.14173517833E+03 -0.10787323323E+03  0.48545540021E+03  0.40000000000E+03 0.  1.
<mgrwt>
<rscale>  2 0.47331840E+03</rscale>
<asrwt>0</asrwt>
<pdfrwt beam="1">  1       21 0.92113787E-01 0.47331840E+03</pdfrwt>
<pdfrwt beam="2">  1       21 0.66659279E-01 0.47331840E+03</pdfrwt>
<totfact> 0.17524275E+03</totfact>
</mgrwt>
</event>
<event>
 4    1  0.4832791E-002  0.4255652E+03  0.7818608E-02  0.1035270E+00
         21   -1    0    0  501  502  0.00000000000E+00  0.00000000000E+00  0.13305020789E+04  0.13305020789E+04  0.00000000000E+00 0. -1.
         21   -1    0    0  502  503 -0.00000000000E+00 -0.00000000000E+00 -0.14212935342E+03  0.14212935342E+03  0.00000000000E+00 0.  1.
    9000007    1    1    2  501    0 -0.11116960255E+03  0.93525870405E+02  0.74561049336E+03  0.85851079013E+03  0.40000000000E+03 0. -1.
   -9000007    1    1    2    0  503  0.11116960255E+03 -0.93525870405E+02  0.44276223209E+03  0.61412064216E+03  0.40000000000E+03 0.  1.
<mgrwt>
<rscale>  2 0.42556523E+03</rscale>
<asrwt>0</asrwt>
<pdfrwt beam="1">  1       21 0.20469262E+00 0.42556523E+03</pdfrwt>
<pdfrwt beam="2">  1       21 0.21866055E-01 0.42556523E+03</pdfrwt>
<totfact> 0.20899845E+03</totfact>
</mgrwt>
</event>
<event>
 4    1  0.4832791E-002  0.4517141E+03  0.7818608E-02  0.1027212E+00
         21   -1    0    0  503  502  0.00000000000E+00  0.00000000000E+00  0.80691860772E+03  0.80691860772E+03  0.00000000000E+00 0.  1.
         21   -1    0    0  501  503 -0.00000000000E+00 -0.00000000000E+00 -0.26922329186E+03  0.26922329186E+03  0.00000000000E+00 0. -1.
    9000007    1    1    2  501    0  0.11534246067E+03 -0.17533326741E+03  0.40145992271E+03  0.60433079306E+03  0.40000000000E+03 0. -1.
   -9000007    1    1    2    0  502 -0.11534246067E+03  0.17533326741E+03  0.13623539315E+03  0.47181110653E+03  0.40000000000E+03 0.  1.
<mgrwt>
<rscale>  2 0.45171411E+03</rscale>
<asrwt>0</asrwt>
<pdfrwt beam="1">  1       21 0.12414132E+00 0.45171411E+03</pdfrwt>
<pdfrwt beam="2">  1       21 0.41418968E-01 0.45171411E+03</pdfrwt>
<totfact> 0.23487662E+03</totfact>
</mgrwt>
</event>
<event>
 4    1  0.4832791E-002  0.4531539E+03  0.7818608E-02  0.1026786E+00
         21   -1    0    0  501  502  0.00000000000E+00  0.00000000000E+00  0.57361858230E+03  0.57361858230E+03  0.00000000000E+00 0. -1.
         21   -1    0    0  502  503 -0.00000000000E+00 -0.00000000000E+00 -0.35815208985E+03  0.35815208985E+03  0.00000000000E+00 0. -1.
    9000007    1    1    2  501    0  0.47110049086E+02 -0.20767553116E+03  0.97756598519E+02  0.46357829492E+03  0.40000000000E+03 0. -1.
   -9000007    1    1    2    0  503 -0.47110049086E+02  0.20767553116E+03  0.11770989393E+03  0.46819237723E+03  0.40000000000E+03 0. -1.
<mgrwt>
<rscale>  2 0.45315393E+03</rscale>
<asrwt>0</asrwt>
<pdfrwt beam="1">  1       21 0.88249012E-01 0.45315393E+03</pdfrwt>
<pdfrwt beam="2">  1       21 0.55100322E-01 0.45315393E+03</pdfrwt>
<totfact> 0.29691451E+03</totfact>
</mgrwt>
</event>
<event>
 4    1  0.4832791E-002  0.4426007E+03  0.7818608E-02  0.1029952E+00
         21   -1    0    0  501  502  0.00000000000E+00  0.00000000000E+00  0.10201537858E+04  0.10201537858E+04  0.00000000000E+00 0.  1.
         21   -1    0    0  502  503 -0.00000000000E+00 -0.00000000000E+00 -0.21258084737E+03  0.21258084737E+03  0.00000000000E+00 0.  1.
    9000007    1    1    2  501    0 -0.16680900514E+03  0.89833823236E+02  0.59545102963E+03  0.74192808862E+03  0.40000000000E+03 0.  1.
   -9000007    1    1    2    0  503  0.16680900514E+03 -0.89833823236E+02  0.21212190880E+03  0.49080654456E+03  0.40000000000E+03 0.  1.
<mgrwt>
<rscale>  2 0.44260068E+03</rscale>
<asrwt>0</asrwt>
<pdfrwt beam="1">  1       21 0.15694673E+00 0.44260068E+03</pdfrwt>
<pdfrwt beam="2">  1       21 0.32704746E-01 0.44260068E+03</pdfrwt>
<totfact> 0.20460434E+03</totfact>
</mgrwt>
</event>
<event>
 4    1  0.4832791E-002  0.4087868E+03  0.7818608E-02  0.1040779E+00
         21   -1    0    0  503  502  0.00000000000E+00  0.00000000000E+00  0.20436818503E+03  0.20436818503E+03  0.00000000000E+00 0.  1.
         21   -1    0    0  501  503 -0.00000000000E+00 -0.00000000000E+00 -0.12842004144E+04  0.12842004144E+04  0.00000000000E+00 0.  1.
    9000007    1    1    2  501    0  0.47687383874E+02  0.69516634774E+02 -0.98851723257E+03  0.10697069543E+04  0.40000000000E+03 0.  1.
   -9000007    1    1    2    0  502 -0.47687383874E+02 -0.69516634774E+02 -0.91314996808E+02  0.41886164510E+03  0.40000000000E+03 0.  1.
<mgrwt>
<rscale>  2 0.40878680E+03</rscale>
<asrwt>0</asrwt>
<pdfrwt beam="1">  1       21 0.31441259E-01 0.40878680E+03</pdfrwt>
<pdfrwt beam="2">  1       21 0.19756929E+00 0.40878680E+03</pdfrwt>
<totfact> 0.11550631E+03</totfact>
</mgrwt>
</event>
<event>
 4    1  0.4832791E-002  0.4092929E+03  0.7818608E-02  0.1040609E+00
         21   -1    0    0  503  502  0.00000000000E+00  0.00000000000E+00  0.75817325678E+03  0.75817325678E+03  0.00000000000E+00 0.  1.
         21   -1    0    0  501  503 -0.00000000000E+00 -0.00000000000E+00 -0.22226266384E+03  0.22226266384E+03  0.00000000000E+00 0.  1.
    9000007    1    1    2  501    0  0.80162777943E+02  0.33084432759E+02  0.23032505877E+03  0.46964910663E+03  0.40000000000E+03 0.  1.
   -9000007    1    1    2    0  502 -0.80162777943E+02 -0.33084432759E+02  0.30558553417E+03  0.51078681400E+03  0.40000000000E+03 0.  1.
<mgrwt>
<rscale>  2 0.40929287E+03</rscale>
<asrwt>0</asrwt>
<pdfrwt beam="1">  1       21 0.11664204E+00 0.40929287E+03</pdfrwt>
<pdfrwt beam="2">  1       21 0.34194256E-01 0.40929287E+03</pdfrwt>
<totfact> 0.41349473E+03</totfact>
</mgrwt>
</event>
<event>
 4    1  0.4832791E-002  0.4084723E+03  0.7818608E-02  0.1040885E+00
         21   -1    0    0  501  502  0.00000000000E+00  0.00000000000E+00  0.21845825093E+03  0.21845825093E+03  0.00000000000E+00 0.  1.
         21   -1    0    0  502  503 -0.00000000000E+00 -0.00000000000E+00 -0.14233579378E+04  0.14233579378E+04  0.00000000000E+00 0.  1.
    9000007    1    1    2  501    0 -0.55916749061E+00 -0.82760716570E+02 -0.43623132881E+02  0.41079511511E+03  0.40000000000E+03 0.  1.
   -9000007    1    1    2    0  503  0.55916749061E+00  0.82760716570E+02 -0.11612765540E+04  0.12310210736E+04  0.40000000000E+03 0.  1.
<mgrwt>
<rscale>  2 0.40847234E+03</rscale>
<asrwt>0</asrwt>
<pdfrwt beam="1">  1       21 0.33608961E-01 0.40847234E+03</pdfrwt>
<pdfrwt beam="2">  1       21 0.21897815E+00 0.40847234E+03</pdfrwt>
<totfact> 0.73296074E+02</totfact>
</mgrwt>
</event>
<event>
 4    1  0.4832791E-002  0.4415190E+03  0.7818608E-02  0.1030282E+00
         21   -1    0    0  501  502  0.00000000000E+00  0.00000000000E+00  0.74169089969E+03  0.74169089969E+03  0.00000000000E+00 0.  1.
         21   -1    0    0  502  503 -0.00000000000E+00 -0.00000000000E+00 -0.35106346214E+03  0.35106346214E+03  0.00000000000E+00 0.  1.
    9000007    1    1    2  501    0  0.18674319476E+03  0.81269917586E+01  0.46922814491E+03  0.64429350514E+03  0.40000000000E+03 0.  1.
   -9000007    1    1    2    0  503 -0.18674319476E+03 -0.81269917586E+01 -0.78600707367E+02  0.44846085669E+03  0.40000000000E+03 0.  1.
<mgrwt>
<rscale>  2 0.44151905E+03</rscale>
<asrwt>0</asrwt>
<pdfrwt beam="1">  1       21 0.11410629E+00 0.44151905E+03</pdfrwt>
<pdfrwt beam="2">  1       21 0.54009764E-01 0.44151905E+03</pdfrwt>
<totfact> 0.16673096E+03</totfact>
</mgrwt>
</event>
<event>
 4    1  0.4832791E-002  0.4813522E+03  0.7818608E-02  0.1018764E+00
         21   -1    0    0  501  502  0.00000000000E+00  0.00000000000E+00  0.56176829077E+03  0.56176829077E+03  0.00000000000E+00 0. -1.
         21   -1    0    0  502  503 -0.00000000000E+00 -0.00000000000E+00 -0.49062070219E+03  0.49062070219E+03  0.00000000000E+00 0. -1.
    9000007    1    1    2  501    0 -0.20438651727E+03 -0.17299172257E+03  0.24561380599E+03  0.54039441726E+03  0.40000000000E+03 0. -1.
   -9000007    1    1    2    0  503  0.20438651727E+03  0.17299172257E+03 -0.17446621741E+03  0.51199457569E+03  0.40000000000E+03 0. -1.
<mgrwt>
<rscale>  2 0.48135225E+03</rscale>
<asrwt>0</asrwt>
<pdfrwt beam="1">  1       21 0.86425891E-01 0.48135225E+03</pdfrwt>
<pdfrwt beam="2">  1       21 0.75480108E-01 0.48135225E+03</pdfrwt>
<totfact> 0.15342243E+03</totfact>
</mgrwt>
</event>
<event>
 4    1  0.4832791E-002  0.5908648E+03  0.7818608E-02  0.9924542E-01
         21   -1    0    0  503  502  0.00000000000E+00  0.00000000000E+00  0.13045663362E+04  0.13045663362E+04  0.00000000000E+00 0. -1.
         21   -1    0    0  501  503 -0.00000000000E+00 -0.00000000000E+00 -0.40289072332E+03  0.40289072332E+03  0.00000000000E+00 0.  1.
    9000007    1    1    2  501    0  0.32408572564E+02  0.43367148304E+03 -0.43855916928E+02  0.59249017901E+03  0.40000000000E+03 0.  1.
   -9000007    1    1    2    0  502 -0.32408572564E+02 -0.43367148304E+03  0.94553152986E+03  0.11149668806E+04  0.40000000000E+03 0.  1.
<mgrwt>
<rscale>  2 0.59086485E+03</rscale>
<asrwt>0</asrwt>
<pdfrwt beam="1">  1       21 0.20070251E+00 0.59086485E+03</pdfrwt>
<pdfrwt beam="2">  1       21 0.61983189E-01 0.59086485E+03</pdfrwt>
<totfact> 0.24474284E+02</totfact>
</mgrwt>
</event>
<event>
 4    1  0.4832791E-002  0.5124537E+03  0.7818608E-02  0.1010578E+00
         21   -1    0    0  503  502  0.00000000000E+00  0.00000000000E+00  0.21361386510E+04  0.21361386510E+04  0.00000000000E+00 0.  1.
         21   -1    0    0  501  503 -0.00000000000E+00 -0.00000000000E+00 -0.62545230840E+03  0.62545230840E+03  0.00000000000E+00 0.  1.
    9000007    1    1    2  501    0  0.31777202973E+03  0.40369370516E+02 -0.48233364113E+03  0.70374319913E+03  0.40000000000E+03 0.  1.
   -9000007    1    1    2    0  502 -0.31777202973E+03 -0.40369370516E+02  0.19930199837E+04  0.20578477603E+04  0.40000000000E+03 0.  1.
<mgrwt>
<rscale>  2 0.51245366E+03</rscale>
<asrwt>0</asrwt>
<pdfrwt beam="1">  1       21 0.32863671E+00 0.51245366E+03</pdfrwt>
<pdfrwt beam="2">  1       21 0.96223433E-01 0.51245366E+03</pdfrwt>
<totfact> 0.14777223E+01</totfact>
</mgrwt>
</event>
<event>
 4    1  0.4832791E-002  0.4321025E+03  0.7818608E-02  0.1033198E+00
         21   -1    0    0  503  502  0.00000000000E+00  0.00000000000E+00  0.17263174223E+04  0.17263174223E+04  0.00000000000E+00 0. -1.
         21   -1    0    0  501  503 -0.00000000000E+00 -0.00000000000E+00 -0.11268382456E+03  0.11268382456E+03  0.00000000000E+00 0. -1.
    9000007    1    1    2  501    0 -0.10997880437E+03  0.12090165936E+03  0.62251086388E+03  0.75778118497E+03  0.40000000000E+03 0. -1.
   -9000007    1    1    2    0  502  0.10997880437E+03 -0.12090165936E+03  0.99112273385E+03  0.10812200619E+04  0.40000000000E+03 0. -1.
<mgrwt>
<rscale>  2 0.43210247E+03</rscale>
<asrwt>0</asrwt>
<pdfrwt beam="1">  1       21 0.26558728E+00 0.43210247E+03</pdfrwt>
<pdfrwt beam="2">  1       21 0.17335974E-01 0.43210247E+03</pdfrwt>
<totfact> 0.13450066E+03</totfact>
</mgrwt>
</event>
<event>
 4    1  0.4832791E-002  0.4208845E+03  0.7818608E-02  0.1036779E+00
         21   -1    0    0  503  502  0.00000000000E+00  0.00000000000E+00  0.23601976524E+03  0.23601976524E+03  0.00000000000E+00 0.  1.
         21   -1    0    0  501  503 -0.00000000000E+00 -0.00000000000E+00 -0.75054850226E+03  0.75054850226E+03  0.00000000000E+00 0. -1.
    9000007    1    1    2  501    0  0.12229270679E+03  0.46779236554E+02 -0.25807484067E+03  0.49370682241E+03  0.40000000000E+03 0.  1.
   -9000007    1    1    2    0  502 -0.12229270679E+03 -0.46779236554E+02 -0.25645389635E+03  0.49286144509E+03  0.40000000000E+03 0.  1.
<mgrwt>
<rscale>  2 0.42088455E+03</rscale>
<asrwt>0</asrwt>
<pdfrwt beam="1">  1       21 0.36310733E-01 0.42088455E+03</pdfrwt>
<pdfrwt beam="2">  1       21 0.11546900E+00 0.42088455E+03</pdfrwt>
<totfact> 0.37394213E+03</totfact>
</mgrwt>
</event>
<event>
 4    1  0.4832791E-002  0.4243421E+03  0.7818608E-02  0.1035662E+00
         21   -1    0    0  503  502  0.00000000000E+00  0.00000000000E+00  0.19624077988E+03  0.19624077988E+03  0.00000000000E+00 0.  1.
         21   -1    0    0  501  503 -0.00000000000E+00 -0.00000000000E+00 -0.93541866118E+03  0.93541866118E+03  0.00000000000E+00 0.  1.
    9000007    1    1    2  501    0 -0.13724012838E+03  0.35090626207E+02 -0.44773179929E+03  0.61687111213E+03  0.40000000000E+03 0.  1.
   -9000007    1    1    2    0  502  0.13724012838E+03 -0.35090626207E+02 -0.29144608201E+03  0.51478832893E+03  0.40000000000E+03 0.  1.
<mgrwt>
<rscale>  2 0.42434208E+03</rscale>
<asrwt>0</asrwt>
<pdfrwt beam="1">  1       21 0.30190890E-01 0.42434208E+03</pdfrwt>
<pdfrwt beam="2">  1       21 0.14391056E+00 0.42434208E+03</pdfrwt>
<totfact> 0.30597769E+03</totfact>
</mgrwt>
</event>
<event>
 4    1  0.4832791E-002  0.4621626E+03  0.7818608E-02  0.1024156E+00
         21   -1    0    0  501  502  0.00000000000E+00  0.00000000000E+00  0.13400548449E+04  0.13400548449E+04  0.00000000000E+00 0.  1.
         21   -1    0    0  502  503 -0.00000000000E+00 -0.00000000000E+00 -0.27411074460E+03  0.27411074460E+03  0.00000000000E+00 0.  1.
    9000007    1    1    2  501    0  0.23121830092E+03  0.11504936948E+02  0.10550939470E+04  0.11518756457E+04  0.40000000000E+03 0.  1.
   -9000007    1    1    2    0  503 -0.23121830092E+03 -0.11504936948E+02  0.10850153284E+02  0.46228994374E+03  0.40000000000E+03 0.  1.
<mgrwt>
<rscale>  2 0.46216260E+03</rscale>
<asrwt>0</asrwt>
<pdfrwt beam="1">  1       21 0.20616228E+00 0.46216260E+03</pdfrwt>
<pdfrwt beam="2">  1       21 0.42170885E-01 0.46216260E+03</pdfrwt>
<totfact> 0.54332568E+02</totfact>
</mgrwt>
</event>
<event>
 4    1  0.4832791E-002  0.4093094E+03  0.7818608E-02  0.1040603E+00
         21   -1    0    0  501  502  0.00000000000E+00  0.00000000000E+00  0.10520512403E+04  0.10520512403E+04  0.00000000000E+00 0.  1.
         21   -1    0    0  502  503 -0.00000000000E+00 -0.00000000000E+00 -0.17256357824E+03  0.17256357824E+03  0.00000000000E+00 0.  1.
    9000007    1    1    2  501    0  0.74902957737E+02  0.43860668107E+02  0.60984960341E+03  0.73447311051E+03  0.40000000000E+03 0.  1.
   -9000007    1    1    2    0  503 -0.74902957737E+02 -0.43860668107E+02  0.26963805865E+03  0.49014170804E+03  0.40000000000E+03 0.  1.
<mgrwt>
<rscale>  2 0.40930943E+03</rscale>
<asrwt>0</asrwt>
<pdfrwt beam="1">  1       21 0.16185403E+00 0.40930943E+03</pdfrwt>
<pdfrwt beam="2">  1       21 0.26548243E-01 0.40930943E+03</pdfrwt>
<totfact> 0.28783027E+03</totfact>
</mgrwt>
</event>
<event>
 4    1  0.4832791E-002  0.4807176E+03  0.7818608E-02  0.1018938E+00
         21   -1    0    0  503  502  0.00000000000E+00  0.00000000000E+00  0.19841822585E+03  0.19841822585E+03  0.00000000000E+00 0. -1.
         21   -1    0    0  501  503 -0.00000000000E+00 -0.00000000000E+00 -0.12621323042E+04  0.12621323042E+04  0.00000000000E+00 0.  1.
    9000007    1    1    2  501    0 -0.22756461422E+03  0.13893799588E+03 -0.73480220094E+03  0.87807954927E+03  0.40000000000E+03 0.  1.
   -9000007    1    1    2    0  502  0.22756461422E+03 -0.13893799588E+03 -0.32891187739E+03  0.58247098076E+03  0.40000000000E+03 0. -1.
<mgrwt>
<rscale>  2 0.48071761E+03</rscale>
<asrwt>0</asrwt>
<pdfrwt beam="1">  1       21 0.30525882E-01 0.48071761E+03</pdfrwt>
<pdfrwt beam="2">  1       21 0.19417420E+00 0.48071761E+03</pdfrwt>
<totfact> 0.12499373E+03</totfact>
</mgrwt>
</event>
<event>
 4    1  0.4832791E-002  0.4740707E+03  0.7818608E-02  0.1020778E+00
         21   -1    0    0  501  502  0.00000000000E+00  0.00000000000E+00  0.49062179277E+03  0.49062179277E+03  0.00000000000E+00 0.  1.
         21   -1    0    0  502  503 -0.00000000000E+00 -0.00000000000E+00 -0.12506334635E+04  0.12506334635E+04  0.00000000000E+00 0.  1.
    9000007    1    1    2  501    0  0.24907736491E+03  0.51995210695E+02  0.31307240181E+03  0.56811738613E+03  0.40000000000E+03 0.  1.
   -9000007    1    1    2    0  503 -0.24907736491E+03 -0.51995210695E+02 -0.10730840725E+04  0.11731378701E+04  0.40000000000E+03 0.  1.
<mgrwt>
<rscale>  2 0.47407071E+03</rscale>
<asrwt>0</asrwt>
<pdfrwt beam="1">  1       21 0.75480276E-01 0.47407071E+03</pdfrwt>
<pdfrwt beam="2">  1       21 0.19240515E+00 0.47407071E+03</pdfrwt>
<totfact> 0.18831802E+02</totfact>
</mgrwt>
</event>
<event>
 4    1  0.4832791E-002  0.4081707E+03  0.7818608E-02  0.1040987E+00
         21   -1    0    0  503  502  0.00000000000E+00  0.00000000000E+00  0.82953751693E+03  0.82953751693E+03  0.00000000000E+00 0.  1.
         21   -1    0    0  501  503 -0.00000000000E+00 -0.00000000000E+00 -0.28493763247E+03  0.28493763247E+03  0.00000000000E+00 0.  1.
    9000007    1    1    2  501    0  0.41268138215E+02 -0.70001862038E+02 -0.30433549078E+02  0.40930370244E+03  0.40000000000E+03 0.  1.
   -9000007    1    1    2    0  502 -0.41268138215E+02  0.70001862038E+02  0.57503343354E+03  0.70517144696E+03  0.40000000000E+03 0.  1.
<mgrwt>
<rscale>  2 0.40817070E+03</rscale>
<asrwt>0</asrwt>
<pdfrwt beam="1">  1       21 0.12762116E+00 0.40817070E+03</pdfrwt>
<pdfrwt beam="2">  1       21 0.43836559E-01 0.40817070E+03</pdfrwt>
<totfact> 0.19785362E+03</totfact>
</mgrwt>
</event>
<event>
 4    1  0.4832791E-002  0.4199312E+03  0.7818608E-02  0.1037089E+00
         21   -1    0    0  503  502  0.00000000000E+00  0.00000000000E+00  0.19424840424E+04  0.19424840424E+04  0.00000000000E+00 0.  1.
         21   -1    0    0  501  503 -0.00000000000E+00 -0.00000000000E+00 -0.13440385947E+03  0.13440385947E+03  0.00000000000E+00 0.  1.
    9000007    1    1    2  501    0 -0.11113221988E+03 -0.63181316123E+02  0.31243739803E+03  0.52341128827E+03  0.40000000000E+03 0.  1.
   -9000007    1    1    2    0  502  0.11113221988E+03  0.63181316123E+02  0.14956427849E+04  0.15534766136E+04  0.40000000000E+03 0.  1.
<mgrwt>
<rscale>  2 0.41993124E+03</rscale>
<asrwt>0</asrwt>
<pdfrwt beam="1">  1       21 0.29884368E+00 0.41993124E+03</pdfrwt>
<pdfrwt beam="2">  1       21 0.20677518E-01 0.41993124E+03</pdfrwt>
<totfact> 0.61213612E+02</totfact>
</mgrwt>
</event>
<event>
 4    1  0.4832791E-002  0.4673193E+03  0.7818608E-02  0.1022680E+00
         21   -1    0    0  501  502  0.00000000000E+00  0.00000000000E+00  0.66684396891E+03  0.66684396891E+03  0.00000000000E+00 0.  1.
         21   -1    0    0  502  503 -0.00000000000E+00 -0.00000000000E+00 -0.33704524780E+03  0.33704524780E+03  0.00000000000E+00 0. -1.
    9000007    1    1    2  501    0 -0.93030785713E+02 -0.22300816220E+03  0.24939665657E+03  0.52970374721E+03  0.40000000000E+03 0. -1.
   -9000007    1    1    2    0  503  0.93030785713E+02  0.22300816220E+03  0.80402064543E+02  0.47418546950E+03  0.40000000000E+03 0. -1.
<mgrwt>
<rscale>  2 0.46731934E+03</rscale>
<asrwt>0</asrwt>
<pdfrwt beam="1">  1       21 0.10259138E+00 0.46731934E+03</pdfrwt>
<pdfrwt beam="2">  1       21 0.51853115E-01 0.46731934E+03</pdfrwt>
<totfact> 0.23447785E+03</totfact>
</mgrwt>
</event>
<event>
 4    1  0.4832791E-002  0.4891668E+03  0.7818608E-02  0.1016646E+00
         21   -1    0    0  503  502  0.00000000000E+00  0.00000000000E+00  0.32518772446E+03  0.32518772446E+03  0.00000000000E+00 0.  1.
         21   -1    0    0  501  503 -0.00000000000E+00 -0.00000000000E+00 -0.87292412533E+03  0.87292412533E+03  0.00000000000E+00 0. -1.
    9000007    1    1    2  501    0  0.26812484928E+03 -0.85983951223E+02 -0.51126904084E+03  0.70758759655E+03  0.40000000000E+03 0. -1.
   -9000007    1    1    2    0  502 -0.26812484928E+03  0.85983951223E+02 -0.36467360031E+02  0.49052425324E+03  0.40000000000E+03 0.  1.
<mgrwt>
<rscale>  2 0.48916682E+03</rscale>
<asrwt>0</asrwt>
<pdfrwt beam="1">  1       21 0.50028882E-01 0.48916682E+03</pdfrwt>
<pdfrwt beam="2">  1       21 0.13429602E+00 0.48916682E+03</pdfrwt>
<totfact> 0.12700358E+03</totfact>
</mgrwt>
</event>
<event>
 4    1  0.4832791E-002  0.4009806E+03  0.7818608E-02  0.1043441E+00
         21   -1    0    0  503  502  0.00000000000E+00  0.00000000000E+00  0.39874270227E+03  0.39874270227E+03  0.00000000000E+00 0. -1.
         21   -1    0    0  501  503 -0.00000000000E+00 -0.00000000000E+00 -0.46678036448E+03  0.46678036448E+03  0.00000000000E+00 0. -1.
    9000007    1    1    2  501    0 -0.27203694388E+02 -0.67391883544E+01 -0.19369776805E+03  0.44531369055E+03  0.40000000000E+03 0. -1.
   -9000007    1    1    2    0  502  0.27203694388E+02  0.67391883544E+01  0.12566010584E+03  0.42020937620E+03  0.40000000000E+03 0. -1.
<mgrwt>
<rscale>  2 0.40098062E+03</rscale>
<asrwt>0</asrwt>
<pdfrwt beam="1">  1       21 0.61345031E-01 0.40098062E+03</pdfrwt>
<pdfrwt beam="2">  1       21 0.71812364E-01 0.40098062E+03</pdfrwt>
<totfact> 0.38536139E+03</totfact>
</mgrwt>
</event>
<event>
 4    1  0.4832791E-002  0.4314431E+03  0.7818608E-02  0.1033405E+00
         21   -1    0    0  501  502  0.00000000000E+00  0.00000000000E+00  0.54736121666E+03  0.54736121666E+03  0.00000000000E+00 0. -1.
         21   -1    0    0  502  503 -0.00000000000E+00 -0.00000000000E+00 -0.34085971125E+03  0.34085971125E+03  0.00000000000E+00 0. -1.
    9000007    1    1    2  501    0  0.13639359121E+03  0.86832799755E+02  0.12457733481E+03  0.44906865754E+03  0.40000000000E+03 0. -1.
   -9000007    1    1    2    0  503 -0.13639359121E+03 -0.86832799755E+02  0.81924170598E+02  0.43915227036E+03  0.40000000000E+03 0. -1.
<mgrwt>
<rscale>  2 0.43144310E+03</rscale>
<asrwt>0</asrwt>
<pdfrwt beam="1">  1       21 0.84209418E-01 0.43144310E+03</pdfrwt>
<pdfrwt beam="2">  1       21 0.52439955E-01 0.43144310E+03</pdfrwt>
<totfact> 0.37147802E+03</totfact>
</mgrwt>
</event>
<event>
 4    1  0.4832791E-002  0.5262758E+03  0.7818608E-02  0.1007139E+00
         21   -1    0    0  501  502  0.00000000000E+00  0.00000000000E+00  0.42026278903E+03  0.42026278903E+03  0.00000000000E+00 0. -1.
         21   -1    0    0  502  503 -0.00000000000E+00 -0.00000000000E+00 -0.87420456468E+03  0.87420456468E+03  0.00000000000E+00 0.  1.
    9000007    1    1    2  501    0  0.19819770357E+03  0.27871820450E+03  0.94135630927E+02  0.53462854790E+03  0.40000000000E+03 0. -1.
   -9000007    1    1    2    0  503 -0.19819770357E+03 -0.27871820450E+03 -0.54807740658E+03  0.75983880582E+03  0.40000000000E+03 0.  1.
<mgrwt>
<rscale>  2 0.52627575E+03</rscale>
<asrwt>0</asrwt>
<pdfrwt beam="1">  1       21 0.64655814E-01 0.52627575E+03</pdfrwt>
<pdfrwt beam="2">  1       21 0.13449301E+00 0.52627575E+03</pdfrwt>
<totfact> 0.71380590E+02</totfact>
</mgrwt>
</event>
<event>
 4    1  0.4832791E-002  0.4358422E+03  0.7818608E-02  0.1032030E+00
         21   -1    0    0  501  502  0.00000000000E+00  0.00000000000E+00  0.96354357149E+03  0.96354357149E+03  0.00000000000E+00 0.  1.
         21   -1    0    0  502  503 -0.00000000000E+00 -0.00000000000E+00 -0.29891915255E+03  0.29891915255E+03  0.00000000000E+00 0.  1.
    9000007    1    1    2  501    0 -0.11049819461E+02  0.17273193100E+03  0.70063540434E+03  0.82513537575E+03  0.40000000000E+03 0.  1.
   -9000007    1    1    2    0  503  0.11049819461E+02 -0.17273193100E+03 -0.36010985400E+02  0.43732734829E+03  0.40000000000E+03 0.  1.
<mgrwt>
<rscale>  2 0.43584219E+03</rscale>
<asrwt>0</asrwt>
<pdfrwt beam="1">  1       21 0.14823747E+00 0.43584219E+03</pdfrwt>
<pdfrwt beam="2">  1       21 0.45987562E-01 0.43584219E+03</pdfrwt>
<totfact> 0.11917544E+03</totfact>
</mgrwt>
</event>
<event>
 4    1  0.4832791E-002  0.4748295E+03  0.7818608E-02  0.1020566E+00
         21   -1    0    0  501  502  0.00000000000E+00  0.00000000000E+00  0.11692101024E+04  0.11692101024E+04  0.00000000000E+00 0. -1.
         21   -1    0    0  502  503 -0.00000000000E+00 -0.00000000000E+00 -0.19316948834E+03  0.19316948834E+03  0.00000000000E+00 0. -1.
    9000007    1    1    2  501    0 -0.22205985018E+03 -0.12709248400E+03  0.51642239343E+03  0.70153771459E+03  0.40000000000E+03 0. -1.
   -9000007    1    1    2    0  503  0.22205985018E+03  0.12709248400E+03  0.45961822065E+03  0.66084187618E+03  0.40000000000E+03 0. -1.
<mgrwt>
<rscale>  2 0.47482952E+03</rscale>
<asrwt>0</asrwt>
<pdfrwt beam="1">  1       21 0.17987847E+00 0.47482952E+03</pdfrwt>
<pdfrwt beam="2">  1       21 0.29718384E-01 0.47482952E+03</pdfrwt>
<totfact> 0.16596539E+03</totfact>
</mgrwt>
</event>
<event>
 4    1  0.4832791E-002  0.4169470E+03  0.7818608E-02  0.1038065E+00
         21   -1    0    0  501  502  0.00000000000E+00  0.00000000000E+00  0.16034056213E+03  0.16034056213E+03  0.00000000000E+00 0. -1.
         21   -1    0    0  502  503 -0.00000000000E+00 -0.00000000000E+00 -0.10938777848E+04  0.10938777848E+04  0.00000000000E+00 0. -1.
    9000007    1    1    2  501    0 -0.94366349385E+02  0.70283603164E+02 -0.52568669868E+03  0.67096296316E+03  0.40000000000E+03 0. -1.
   -9000007    1    1    2    0  503  0.94366349385E+02 -0.70283603164E+02 -0.40785052397E+03  0.58325538375E+03  0.40000000000E+03 0. -1.
<mgrwt>
<rscale>  2 0.41694699E+03</rscale>
<asrwt>0</asrwt>
<pdfrwt beam="1">  1       21 0.24667780E-01 0.41694699E+03</pdfrwt>
<pdfrwt beam="2">  1       21 0.16828888E+00 0.41694699E+03</pdfrwt>
<totfact> 0.29670544E+03</totfact>
</mgrwt>
</event>
<event>
 4    1  0.4832791E-002  0.5071091E+03  0.7818608E-02  0.1011940E+00
         21   -1    0    0  503  502  0.00000000000E+00  0.00000000000E+00  0.48321921163E+03  0.48321921163E+03  0.00000000000E+00 0. -1.
         21   -1    0    0  501  503 -0.00000000000E+00 -0.00000000000E+00 -0.86877074787E+03  0.86877074787E+03  0.00000000000E+00 0. -1.
    9000007    1    1    2  501    0  0.13043519892E+03 -0.28310127626E+03 -0.61354295512E+03  0.79598657747E+03  0.40000000000E+03 0. -1.
   -9000007    1    1    2    0  502 -0.13043519892E+03  0.28310127626E+03  0.22799141889E+03  0.55600338203E+03  0.40000000000E+03 0. -1.
<mgrwt>
<rscale>  2 0.50710913E+03</rscale>
<asrwt>0</asrwt>
<pdfrwt beam="1">  1       21 0.74341418E-01 0.50710913E+03</pdfrwt>
<pdfrwt beam="2">  1       21 0.13365704E+00 0.50710913E+03</pdfrwt>
<totfact> 0.53349249E+02</totfact>
</mgrwt>
</event>
<event>
 4    1  0.4832791E-002  0.5889683E+03  0.7818608E-02  0.9928561E-01
         21   -1    0    0  501  502  0.00000000000E+00  0.00000000000E+00  0.28452613465E+03  0.28452613465E+03  0.00000000000E+00 0.  1.
         21   -1    0    0  502  503 -0.00000000000E+00 -0.00000000000E+00 -0.13871146965E+04  0.13871146965E+04  0.00000000000E+00 0. -1.
    9000007    1    1    2  501    0 -0.40605988439E+03  0.14832050551E+03 -0.26045732258E+03  0.64398883449E+03  0.40000000000E+03 0. -1.
   -9000007    1    1    2    0  503  0.40605988439E+03 -0.14832050551E+03 -0.84213123926E+03  0.10276519966E+04  0.40000000000E+03 0. -1.
<mgrwt>
<rscale>  2 0.58896825E+03</rscale>
<asrwt>0</asrwt>
<pdfrwt beam="1">  1       21 0.43773252E-01 0.58896825E+03</pdfrwt>
<pdfrwt beam="2">  1       21 0.21340226E+00 0.58896825E+03</pdfrwt>
<totfact> 0.42684221E+02</totfact>
</mgrwt>
</event>
<event>
 4    1  0.4832791E-002  0.4644523E+03  0.7818608E-02  0.1023498E+00
         21   -1    0    0  501  502  0.00000000000E+00  0.00000000000E+00  0.10884410276E+04  0.10884410276E+04  0.00000000000E+00 0. -1.
         21   -1    0    0  502  503 -0.00000000000E+00 -0.00000000000E+00 -0.20769469606E+03  0.20769469606E+03  0.00000000000E+00 0. -1.
    9000007    1    1    2  501    0  0.23553410440E+03  0.15478663737E+02  0.57902434671E+03  0.74228370415E+03  0.40000000000E+03 0. -1.
   -9000007    1    1    2    0  503 -0.23553410440E+03 -0.15478663737E+02  0.30172198479E+03  0.55385201947E+03  0.40000000000E+03 0. -1.
<mgrwt>
<rscale>  2 0.46445226E+03</rscale>
<asrwt>0</asrwt>
<pdfrwt beam="1">  1       21 0.16745246E+00 0.46445226E+03</pdfrwt>
<pdfrwt beam="2">  1       21 0.31953031E-01 0.46445226E+03</pdfrwt>
<totfact> 0.17723154E+03</totfact>
</mgrwt>
</event>
<event>
 4    1  0.4832791E-002  0.4947389E+03  0.7818608E-02  0.1015161E+00
         21   -1    0    0  503  502  0.00000000000E+00  0.00000000000E+00  0.29129277129E+03  0.29129277129E+03  0.00000000000E+00 0.  1.
         21   -1    0    0  501  503 -0.00000000000E+00 -0.00000000000E+00 -0.91816884061E+03  0.91816884061E+03  0.00000000000E+00 0.  1.
    9000007    1    1    2  501    0  0.28748065821E+03 -0.46059696840E+02 -0.48957346272E+03  0.69602356276E+03  0.40000000000E+03 0.  1.
   -9000007    1    1    2    0  502 -0.28748065821E+03  0.46059696840E+02 -0.13730260660E+03  0.51343804914E+03  0.40000000000E+03 0.  1.
<mgrwt>
<rscale>  2 0.49473895E+03</rscale>
<asrwt>0</asrwt>
<pdfrwt beam="1">  1       21 0.44814273E-01 0.49473895E+03</pdfrwt>
<pdfrwt beam="2">  1       21 0.14125674E+00 0.49473895E+03</pdfrwt>
<totfact> 0.13989347E+03</totfact>
</mgrwt>
</event>
<event>
 4    1  0.4832791E-002  0.4601740E+03  0.7818608E-02  0.1024731E+00
         21   -1    0    0  503  502  0.00000000000E+00  0.00000000000E+00  0.13436956098E+03  0.13436956098E+03  0.00000000000E+00 0.  1.
         21   -1    0    0  501  503 -0.00000000000E+00 -0.00000000000E+00 -0.17136772129E+04  0.17136772129E+04  0.00000000000E+00 0.  1.
    9000007    1    1    2  501    0 -0.14974161029E+03 -0.17128208518E+03 -0.10516070339E+04  0.11478839036E+04  0.40000000000E+03 0.  1.
   -9000007    1    1    2    0  502  0.14974161029E+03  0.17128208518E+03 -0.52770061804E+03  0.70016287022E+03  0.40000000000E+03 0.  1.
<mgrwt>
<rscale>  2 0.46017399E+03</rscale>
<asrwt>0</asrwt>
<pdfrwt beam="1">  1       21 0.20672240E-01 0.46017399E+03</pdfrwt>
<pdfrwt beam="2">  1       21 0.26364266E+00 0.46017399E+03</pdfrwt>
<totfact> 0.97640589E+02</totfact>
</mgrwt>
</event>
<event>
 4    1  0.4832791E-002  0.4943083E+03  0.7818608E-02  0.1015275E+00
         21   -1    0    0  501  502  0.00000000000E+00  0.00000000000E+00  0.22636975428E+04  0.22636975428E+04  0.00000000000E+00 0.  1.
         21   -1    0    0  502  503 -0.00000000000E+00 -0.00000000000E+00 -0.13941396449E+03  0.13941396449E+03  0.00000000000E+00 0.  1.
    9000007    1    1    2  501    0 -0.20698771556E+03  0.20370756380E+03  0.16330616212E+04  0.17062329691E+04  0.40000000000E+03 0.  1.
   -9000007    1    1    2    0  503  0.20698771556E+03 -0.20370756380E+03  0.49122195708E+03  0.69687853824E+03  0.40000000000E+03 0.  1.
<mgrwt>
<rscale>  2 0.49430829E+03</rscale>
<asrwt>0</asrwt>
<pdfrwt beam="1">  1       21 0.34826113E+00 0.49430829E+03</pdfrwt>
<pdfrwt beam="2">  1       21 0.21448304E-01 0.49430829E+03</pdfrwt>
<totfact> 0.27420149E+02</totfact>
</mgrwt>
</event>
<event>
 4    1  0.4832791E-002  0.4287923E+03  0.7818608E-02  0.1034242E+00
         21   -1    0    0  503  502  0.00000000000E+00  0.00000000000E+00  0.59336959484E+03  0.59336959484E+03  0.00000000000E+00 0.  1.
         21   -1    0    0  501  503 -0.00000000000E+00 -0.00000000000E+00 -0.37959299854E+03  0.37959299854E+03  0.00000000000E+00 0.  1.
    9000007    1    1    2  501    0  0.13870592368E+03  0.67996565409E+02 -0.10161794615E+03  0.44066889288E+03  0.40000000000E+03 0.  1.
   -9000007    1    1    2    0  502 -0.13870592368E+03 -0.67996565409E+02  0.31539454246E+03  0.53229370049E+03  0.40000000000E+03 0.  1.
<mgrwt>
<rscale>  2 0.42879233E+03</rscale>
<asrwt>0</asrwt>
<pdfrwt beam="1">  1       21 0.91287629E-01 0.42879233E+03</pdfrwt>
<pdfrwt beam="2">  1       21 0.58398923E-01 0.42879233E+03</pdfrwt>
<totfact> 0.24376337E+03</totfact>
</mgrwt>
</event>
<event>
 4    1  0.4832791E-002  0.5349232E+03  0.7818608E-02  0.1005045E+00
         21   -1    0    0  501  502  0.00000000000E+00  0.00000000000E+00  0.44051362682E+03  0.44051362682E+03  0.00000000000E+00 0. -1.
         21   -1    0    0  502  503 -0.00000000000E+00 -0.00000000000E+00 -0.77763029135E+03  0.77763029135E+03  0.00000000000E+00 0.  1.
    9000007    1    1    2  501    0  0.23369774887E+03  0.26744750241E+03  0.78611547504E+02  0.54066864138E+03  0.40000000000E+03 0. -1.
   -9000007    1    1    2    0  503 -0.23369774887E+03 -0.26744750241E+03 -0.41572821204E+03  0.67747527679E+03  0.40000000000E+03 0.  1.
<mgrwt>
<rscale>  2 0.53492318E+03</rscale>
<asrwt>0</asrwt>
<pdfrwt beam="1">  1       21 0.67771327E-01 0.53492318E+03</pdfrwt>
<pdfrwt beam="2">  1       21 0.11963543E+00 0.53492318E+03</pdfrwt>
<totfact> 0.86760475E+02</totfact>
</mgrwt>
</event>
<event>
 4    1  0.4832791E-002  0.4150652E+03  0.7818608E-02  0.1038684E+00
         21   -1    0    0  501  502  0.00000000000E+00  0.00000000000E+00  0.45372066514E+03  0.45372066514E+03  0.00000000000E+00 0. -1.
         21   -1    0    0  502  503 -0.00000000000E+00 -0.00000000000E+00 -0.44120714869E+03  0.44120714869E+03  0.00000000000E+00 0. -1.
    9000007    1    1    2  501    0  0.30309542785E+01 -0.11076964883E+03  0.17332308117E+03  0.44979994693E+03  0.40000000000E+03 0.  1.
   -9000007    1    1    2    0  503 -0.30309542785E+01  0.11076964883E+03 -0.16080956472E+03  0.44512786690E+03  0.40000000000E+03 0.  1.
<mgrwt>
<rscale>  2 0.41506518E+03</rscale>
<asrwt>0</asrwt>
<pdfrwt beam="1">  1       21 0.69803179E-01 0.41506518E+03</pdfrwt>
<pdfrwt beam="2">  1       21 0.67878023E-01 0.41506518E+03</pdfrwt>
<totfact> 0.32653815E+03</totfact>
</mgrwt>
</event>
<event>
 4    1  0.4832791E-002  0.5473974E+03  0.7818608E-02  0.1002098E+00
         21   -1    0    0  501  502  0.00000000000E+00  0.00000000000E+00  0.56232470299E+03  0.56232470299E+03  0.00000000000E+00 0.  1.
         21   -1    0    0  502  503 -0.00000000000E+00 -0.00000000000E+00 -0.60759041667E+03  0.60759041667E+03  0.00000000000E+00 0.  1.
    9000007    1    1    2  501    0  0.28569023751E+03 -0.24088373996E+03  0.18250663441E+03  0.57702041523E+03  0.40000000000E+03 0.  1.
   -9000007    1    1    2    0  503 -0.28569023751E+03  0.24088373996E+03 -0.22777234809E+03  0.59289470443E+03  0.40000000000E+03 0.  1.
<mgrwt>
<rscale>  2 0.54739738E+03</rscale>
<asrwt>0</asrwt>
<pdfrwt beam="1">  1       21 0.86511493E-01 0.54739738E+03</pdfrwt>
<pdfrwt beam="2">  1       21 0.93475448E-01 0.54739738E+03</pdfrwt>
<totfact> 0.90654039E+02</totfact>
</mgrwt>
</event>
<event>
 4    1  0.4832791E-002  0.4242066E+03  0.7818608E-02  0.1035706E+00
         21   -1    0    0  501  502  0.00000000000E+00  0.00000000000E+00  0.44476436539E+03  0.44476436539E+03  0.00000000000E+00 0. -1.
         21   -1    0    0  502  503 -0.00000000000E+00 -0.00000000000E+00 -0.52385236934E+03  0.52385236934E+03  0.00000000000E+00 0.  1.
    9000007    1    1    2  501    0 -0.37196167749E+02 -0.13626316638E+03  0.19153096234E+03  0.46544098976E+03  0.40000000000E+03 0. -1.
   -9000007    1    1    2    0  503  0.37196167749E+02  0.13626316638E+03 -0.27061896630E+03  0.50317574497E+03  0.40000000000E+03 0.  1.
<mgrwt>
<rscale>  2 0.42420656E+03</rscale>
<asrwt>0</asrwt>
<pdfrwt beam="1">  1       21 0.68425287E-01 0.42420656E+03</pdfrwt>
<pdfrwt beam="2">  1       21 0.80592672E-01 0.42420656E+03</pdfrwt>
<totfact> 0.23037282E+03</totfact>
</mgrwt>
</event>
<event>
 4    1  0.4832791E-002  0.4685243E+03  0.7818608E-02  0.1022338E+00
         21   -1    0    0  503  502  0.00000000000E+00  0.00000000000E+00  0.32823864855E+03  0.32823864855E+03  0.00000000000E+00 0.  1.
         21   -1    0    0  501  503 -0.00000000000E+00 -0.00000000000E+00 -0.72012177377E+03  0.72012177377E+03  0.00000000000E+00 0.  1.
    9000007    1    1    2  501    0  0.17914287084E+03  0.16559845269E+03 -0.33592289688E+03  0.57650603497E+03  0.40000000000E+03 0.  1.
   -9000007    1    1    2    0  502 -0.17914287084E+03 -0.16559845269E+03 -0.55960228335E+02  0.47185438735E+03  0.40000000000E+03 0.  1.
<mgrwt>
<rscale>  2 0.46852430E+03</rscale>
<asrwt>0</asrwt>
<pdfrwt beam="1">  1       21 0.50498254E-01 0.46852430E+03</pdfrwt>
<pdfrwt beam="2">  1       21 0.11078796E+00 0.46852430E+03</pdfrwt>
<totfact> 0.20512291E+03</totfact>
</mgrwt>
</event>
<event>
 4    1  0.4832791E-002  0.5184248E+03  0.7818608E-02  0.1009079E+00
         21   -1    0    0  503  502  0.00000000000E+00  0.00000000000E+00  0.29909297737E+03  0.29909297737E+03  0.00000000000E+00 0. -1.
         21   -1    0    0  501  503 -0.00000000000E+00 -0.00000000000E+00 -0.10343719384E+04  0.10343719384E+04  0.00000000000E+00 0.  1.
    9000007    1    1    2  501    0  0.27604702187E+03 -0.18045038780E+03 -0.12608132149E+03  0.53353612846E+03  0.40000000000E+03 0.  1.
   -9000007    1    1    2    0  502 -0.27604702187E+03  0.18045038780E+03 -0.60919763953E+03  0.79992878730E+03  0.40000000000E+03 0. -1.
<mgrwt>
<rscale>  2 0.51842483E+03</rscale>
<asrwt>0</asrwt>
<pdfrwt beam="1">  1       21 0.46014304E-01 0.51842483E+03</pdfrwt>
<pdfrwt beam="2">  1       21 0.15913414E+00 0.51842483E+03</pdfrwt>
<totfact> 0.94756130E+02</totfact>
</mgrwt>
</event>
<event>
 4    1  0.4832791E-002  0.4507748E+03  0.7818608E-02  0.1027491E+00
         21   -1    0    0  503  502  0.00000000000E+00  0.00000000000E+00  0.15714650805E+03  0.15714650805E+03  0.00000000000E+00 0.  1.
         21   -1    0    0  501  503 -0.00000000000E+00 -0.00000000000E+00 -0.12975332024E+04  0.12975332024E+04  0.00000000000E+00 0. -1.
    9000007    1    1    2  501    0 -0.16034955040E+02 -0.20722170076E+03 -0.52742949298E+03  0.69381540997E+03  0.40000000000E+03 0. -1.
   -9000007    1    1    2    0  502  0.16034955040E+02  0.20722170076E+03 -0.61295720138E+03  0.76086430050E+03  0.40000000000E+03 0.  1.
<mgrwt>
<rscale>  2 0.45077484E+03</rscale>
<asrwt>0</asrwt>
<pdfrwt beam="1">  1       21 0.24176385E-01 0.45077484E+03</pdfrwt>
<pdfrwt beam="2">  1       21 0.19962050E+00 0.45077484E+03</pdfrwt>
<totfact> 0.18400125E+03</totfact>
</mgrwt>
</event>
<event>
 4    1  0.4832791E-002  0.5466614E+03  0.7818608E-02  0.1002270E+00
         21   -1    0    0  501  502  0.00000000000E+00  0.00000000000E+00  0.10497140972E+04  0.10497140972E+04  0.00000000000E+00 0. -1.
         21   -1    0    0  502  503 -0.00000000000E+00 -0.00000000000E+00 -0.36587673312E+03  0.36587673312E+03  0.00000000000E+00 0.  1.
    9000007    1    1    2  501    0  0.14671364675E+03 -0.34251094373E+03  0.67534068787E+03  0.86886344463E+03  0.40000000000E+03 0. -1.
   -9000007    1    1    2    0  503 -0.14671364675E+03  0.34251094373E+03  0.84966761732E+01  0.54672738565E+03  0.40000000000E+03 0.  1.
<mgrwt>
<rscale>  2 0.54666136E+03</rscale>
<asrwt>0</asrwt>
<pdfrwt beam="1">  1       21 0.16149447E+00 0.54666136E+03</pdfrwt>
<pdfrwt beam="2">  1       21 0.56288729E-01 0.54666136E+03</pdfrwt>
<totfact> 0.58438531E+02</totfact>
</mgrwt>
</event>
<event>
 4    1  0.4832791E-002  0.4517593E+03  0.7818608E-02  0.1027199E+00
         21   -1    0    0  503  502  0.00000000000E+00  0.00000000000E+00  0.46965348629E+03  0.46965348629E+03  0.00000000000E+00 0. -1.
         21   -1    0    0  501  503 -0.00000000000E+00 -0.00000000000E+00 -0.43675107815E+03  0.43675107815E+03  0.00000000000E+00 0.  1.
    9000007    1    1    2  501    0  0.12969604230E+03  0.16512226530E+03 -0.15745170377E+02  0.45203355658E+03  0.40000000000E+03 0.  1.
   -9000007    1    1    2    0  502 -0.12969604230E+03 -0.16512226530E+03  0.48647578511E+02  0.45437100786E+03  0.40000000000E+03 0. -1.
<mgrwt>
<rscale>  2 0.45175926E+03</rscale>
<asrwt>0</asrwt>
<pdfrwt beam="1">  1       21 0.72254382E-01 0.45175926E+03</pdfrwt>
<pdfrwt beam="2">  1       21 0.67192474E-01 0.45175926E+03</pdfrwt>
<totfact> 0.30491155E+03</totfact>
</mgrwt>
</event>
