<event>
11    0  0.3510903E-009  0.9118800E+02  0.7816531E-02  0.1126479E+00
         25   -1    0    0    0    0  0.00000000000E+00  0.00000000000E+00  0.99999998245E-14  0.12500000000E+03  0.12500000000E+03 0.  0.
    3000001    1    3    3    0    0 -0.34743351086E+02 -0.30811854708E+02 -0.31118416919E+02  0.55909093239E+02  0.10000000000E+01 0. -1.
    1000022    2    1    0    0    0 -0.36494305343E+02 -0.33285924311E+02 -0.36965698448E+02  0.62500000567E+02  0.10000006474E+02 0.  0.
    3000022    2    3    3    0    0 -0.17509542570E+01 -0.24740696028E+01 -0.58472815284E+01  0.65909073282E+01  0.24999385411E+00 0.  0.
    1000022    2    1    0    0    0  0.36494305343E+02  0.33285924311E+02  0.36965698448E+02  0.62499999433E+02  0.99999993843E+01 0.  0.
    3000022    2    5    5    0    0  0.65047777419E+01  0.11749721699E+02  0.10806822555E+02  0.17240010738E+02  0.24992607457E+00 0.  0.
        -13    1    4    4    0    0 -0.95211864004E+00 -0.13269737209E+01 -0.30055052929E+01  0.34222034169E+01  0.10500000000E+00 0.  1.
         13    1    4    4    0    0 -0.79883561695E+00 -0.11470958819E+01 -0.28417762355E+01  0.31687039114E+01  0.10500000000E+00 0. -1.
    3000001    1    5    5    0    0  0.29989527601E+02  0.21536202612E+02  0.26158875893E+02  0.45259988695E+02  0.10000000000E+01 0.  1.
        -13    1    6    6    0    0  0.37207660721E+01  0.67746461485E+01  0.61425633863E+01  0.98732993754E+01  0.10500000000E+00 0. -1.
         13    1    6    6    0    0  0.27840116698E+01  0.49750755503E+01  0.46642591684E+01  0.73667113625E+01  0.10500000000E+00 0.  1.
</event>
<event>
11    0  0.3510903E-009  0.9118800E+02  0.7816531E-02  0.1126479E+00
         25   -1    0    0    0    0  0.00000000000E+00  0.00000000000E+00  0.99999998245E-14  0.12500000000E+03  0.12500000000E+03 0.  0.
    3000001    1    3    3    0    0  0.19321165412E-01  0.82006116336E+00 -0.71663702910E+01  0.72821519325E+01  0.10000000000E+01 0. -1.
    1000022    2    1    0    0    0 -0.15534663382E+02  0.26571230492E+02 -0.53468627392E+02  0.62499999342E+02  0.99999873144E+01 0.  0.
    3000022    2    3    3    0    0 -0.15553984548E+02  0.25751169329E+02 -0.46302257101E+02  0.55217847409E+02  0.25000556285E+00 0.  0.
    1000022    2    1    0    0    0  0.15534663382E+02 -0.26571230492E+02  0.53468627392E+02  0.62500000658E+02  0.99999955430E+01 0.  0.
    3000022    2    5    5    0    0  0.16470332918E+02 -0.21355950328E+02  0.44471391534E+02  0.52010726244E+02  0.24999713352E+00 0.  0.
        -13    1    4    4    0    0 -0.41744818363E+01  0.68679566127E+01 -0.12321659465E+02  0.14711541171E+02  0.10500000000E+00 0.  1.
         13    1    4    4    0    0 -0.11379502712E+02  0.18883212716E+02 -0.33980597635E+02  0.40506306239E+02  0.10500000000E+00 0. -1.
    3000001    1    5    5    0    0 -0.93566953549E+00 -0.52152801637E+01  0.89972358576E+01  0.10489274415E+02  0.10000000000E+01 0.  1.
        -13    1    6    6    0    0  0.58028637956E+01 -0.74901513874E+01  0.15522603547E+02  0.18186199216E+02  0.10500000000E+00 0. -1.
         13    1    6    6    0    0  0.10667469122E+02 -0.13865798941E+02  0.28948787987E+02  0.33824527028E+02  0.10500000000E+00 0.  1.
</event>
<event>
11    0  0.3510903E-009  0.9118800E+02  0.7816531E-02  0.1126479E+00
         25   -1    0    0    0    0  0.00000000000E+00  0.00000000000E+00  0.99999998245E-14  0.12500000000E+03  0.12500000000E+03 0.  0.
    3000001    1    3    3    0    0  0.15418862718E+02  0.18070623071E+02  0.52474342390E+01  0.24347983731E+02  0.10000000000E+01 0.  1.
    1000022    2    1    0    0    0  0.38340400035E+02  0.48316466766E+02  0.13351604406E+01  0.62499999667E+02  0.10000003473E+02 0.  0.
    3000022    2    3    3    0    0  0.22921537316E+02  0.30245843695E+02 -0.39122737983E+01  0.38152015936E+02  0.24999986016E+00 0.  0.
    1000022    2    1    0    0    0 -0.38340400035E+02 -0.48316466766E+02 -0.13351604406E+01  0.62500000333E+02  0.10000007632E+02 0.  0.
    3000022    2    5    5    0    0 -0.57054890137E+01 -0.11912104125E+02 -0.30919942015E+01  0.13567378274E+02  0.24999106833E+00 0.  0.
        -13    1    4    4    0    0  0.14625584655E+02  0.19386041803E+02 -0.24785266306E+01  0.24410662886E+02  0.10500000000E+00 0.  1.
         13    1    4    4    0    0  0.82959526609E+01  0.10859801892E+02 -0.14337471678E+01  0.13741353050E+02  0.10500000000E+00 0. -1.
    3000001    1    5    5    0    0 -0.32634911021E+02 -0.36404362641E+02  0.17568337609E+01  0.48932622058E+02  0.10000000000E+01 0.  1.
        -13    1    6    6    0    0 -0.38744435004E+01 -0.81835521255E+01 -0.20905923732E+01  0.92931931702E+01  0.10500000000E+00 0.  1.
         13    1    6    6    0    0 -0.18310455133E+01 -0.37285519992E+01 -0.10014018283E+01  0.42741851041E+01  0.10500000000E+00 0. -1.
</event>
<event>
11    0  0.3510903E-009  0.9118800E+02  0.7816531E-02  0.1126479E+00
         25   -1    0    0    0    0  0.00000000000E+00  0.00000000000E+00  0.99999998245E-14  0.12500000000E+03  0.12500000000E+03 0.  0.
    3000001    1    3    3    0    0 -0.16203312654E+02  0.15454527523E+02 -0.26037202221E+02  0.34355867932E+02  0.10000000000E+01 0.  1.
    1000022    2    1    0    0    0 -0.25267291308E+02  0.21663810504E+02 -0.51947023546E+02  0.62500001304E+02  0.10000010605E+02 0.  0.
    3000022    2    3    3    0    0 -0.90639786546E+01  0.62092829813E+01 -0.25909821326E+02  0.28144133372E+02  0.24999586459E+00 0.  0.
    1000022    2    1    0    0    0  0.25267291308E+02 -0.21663810504E+02  0.51947023546E+02  0.62499998696E+02  0.99999943001E+01 0.  0.
    3000022    2    5    5    0    0  0.23750600364E+02 -0.15670730231E+02  0.41468696163E+02  0.50292922578E+02  0.24999278124E+00 0.  0.
        -13    1    4    4    0    0 -0.47497795966E+01  0.33271147577E+01 -0.13751456321E+02  0.14924599652E+02  0.10500000000E+00 0. -1.
         13    1    4    4    0    0 -0.43141990580E+01  0.28821682236E+01 -0.12158365005E+02  0.13219533720E+02  0.10500000000E+00 0.  1.
    3000001    1    5    5    0    0  0.15166909446E+01 -0.59930802731E+01  0.10478327384E+02  0.12207076117E+02  0.10000000000E+01 0.  1.
        -13    1    6    6    0    0  0.16404161674E+02 -0.10765429578E+02  0.28597195702E+02  0.34681430495E+02  0.10500000000E+00 0.  1.
         13    1    6    6    0    0  0.73464386898E+01 -0.49053006532E+01  0.12871500461E+02  0.15611492083E+02  0.10500000000E+00 0. -1.
</event>
<event>
11    0  0.3510903E-009  0.9118800E+02  0.7816531E-02  0.1126479E+00
         25   -1    0    0    0    0  0.00000000000E+00  0.00000000000E+00  0.99999998245E-14  0.12500000000E+03  0.12500000000E+03 0.  0.
    3000001    1    3    3    0    0 -0.14702808531E+02  0.16440851989E+02  0.17959258117E+01  0.22151739037E+02  0.10000000000E+01 0. -1.
    1000022    2    1    0    0    0 -0.37800724106E+02  0.48164332253E+02 -0.75863295260E+01  0.62499999484E+02  0.99999947734E+01 0.  0.
    3000022    2    3    3    0    0 -0.23097915575E+02  0.31723480264E+02 -0.93822553377E+01  0.40348260447E+02  0.25000382939E+00 0.  0.
    1000022    2    1    0    0    0  0.37800724106E+02 -0.48164332253E+02  0.75863295260E+01  0.62500000516E+02  0.10000001226E+02 0.  0.
    3000022    2    5    5    0    0  0.24132045571E+02 -0.30471209674E+02  0.95721968612E+01  0.40031733370E+02  0.24996278697E+00 0.  0.
        -13    1    4    4    0    0 -0.14317199044E+02  0.19700955418E+02 -0.58809866699E+01  0.25054078751E+02  0.10500000000E+00 0. -1.
         13    1    4    4    0    0 -0.87807165309E+01  0.12022524846E+02 -0.35012686678E+01  0.15294181696E+02  0.10500000000E+00 0.  1.
    3000001    1    5    5    0    0  0.13668678536E+02 -0.17693122579E+02 -0.19858673352E+01  0.22468267147E+02  0.10000000000E+01 0.  1.
        -13    1    6    6    0    0  0.16643628831E+02 -0.21048392047E+02  0.65629682098E+01  0.27624785342E+02  0.10500000000E+00 0.  1.
         13    1    6    6    0    0  0.74884167393E+01 -0.94228176270E+01  0.30092286514E+01  0.12406948028E+02  0.10500000000E+00 0. -1.
</event>
<event>
11    0  0.3510903E-009  0.9118800E+02  0.7816531E-02  0.1126479E+00
         25   -1    0    0    0    0  0.00000000000E+00  0.00000000000E+00  0.99999998245E-14  0.12500000000E+03  0.12500000000E+03 0.  0.
    3000001    1    3    3    0    0 -0.11374861628E+02 -0.42960307285E+02 -0.65247153260E+01  0.44928247119E+02  0.10000000000E+01 0. -1.
    1000022    2    1    0    0    0 -0.14849074603E+02 -0.59808435868E+02 -0.29505851122E+01  0.62499999894E+02  0.10000000837E+02 0.  0.
    3000022    2    3    3    0    0 -0.34742129755E+01 -0.16848128583E+02  0.35741302138E+01  0.17571752776E+02  0.24999255230E+00 0.  0.
    1000022    2    1    0    0    0  0.14849074603E+02  0.59808435868E+02  0.29505851122E+01  0.62500000106E+02  0.10000002158E+02 0.  0.
    3000022    2    5    5    0    0  0.12397657386E+00  0.92079729825E+01 -0.24012930785E+01  0.95200231675E+01  0.24999204656E+00 0.  0.
        -13    1    4    4    0    0 -0.24205464727E+01 -0.11501792193E+02  0.24569448418E+01  0.12008241830E+02  0.10500000000E+00 0. -1.
         13    1    4    4    0    0 -0.10536665028E+01 -0.53463363897E+01  0.11171853720E+01  0.55635109460E+01  0.10500000000E+00 0.  1.
    3000001    1    5    5    0    0  0.14725098030E+02  0.50600462885E+02  0.53518781907E+01  0.52979976938E+02  0.10000000000E+01 0. -1.
        -13    1    6    6    0    0  0.11196828934E+00  0.36591410657E+01 -0.95820856201E+00  0.37856358627E+01  0.10500000000E+00 0. -1.
         13    1    6    6    0    0  0.12008284517E-01  0.55488319168E+01 -0.14430845165E+01  0.57343873048E+01  0.10500000000E+00 0.  1.
</event>
<event>
11    0  0.3510903E-009  0.9118800E+02  0.7816531E-02  0.1126479E+00
         25   -1    0    0    0    0  0.00000000000E+00  0.00000000000E+00  0.99999998245E-14  0.12500000000E+03  0.12500000000E+03 0.  0.
    3000001    1    3    3    0    0  0.79772350263E+01  0.78003194913E+01 -0.27339778728E+02  0.29545638658E+02  0.10000000000E+01 0.  1.
    1000022    2    1    0    0    0  0.25440946622E+02  0.11202626151E+02 -0.55077301091E+02  0.62499994426E+02  0.99999805074E+01 0.  0.
    3000022    2    3    3    0    0  0.17463711595E+02  0.34023066594E+01 -0.27737522363E+02  0.32954355768E+02  0.25000792143E+00 0.  0.
    1000022    2    1    0    0    0 -0.25440946622E+02 -0.11202626151E+02  0.55077301091E+02  0.62500005574E+02  0.10000050182E+02 0.  0.
    3000022    2    5    5    0    0 -0.26078484678E+02 -0.10941026198E+02  0.52032265235E+02  0.59221723605E+02  0.25000765712E+00 0.  0.
        -13    1    4    4    0    0  0.90078126525E+01  0.17196198028E+01 -0.14404220810E+02  0.17076017779E+02  0.10500000000E+00 0. -1.
         13    1    4    4    0    0  0.84558989427E+01  0.16826868566E+01 -0.13333301553E+02  0.15878337989E+02  0.10500000000E+00 0.  1.
    3000001    1    5    5    0    0  0.63753805665E+00 -0.26159995228E+00  0.30450358556E+01  0.32782819694E+01  0.10000000000E+01 0.  1.
        -13    1    6    6    0    0 -0.11594790390E+02 -0.49281491252E+01  0.23114414729E+02  0.26325140289E+02  0.10500000000E+00 0. -1.
         13    1    6    6    0    0 -0.14483694288E+02 -0.60128770733E+01  0.28917850506E+02  0.32896583315E+02  0.10500000000E+00 0.  1.
</event>
<event>
11    0  0.3510903E-009  0.9118800E+02  0.7816531E-02  0.1126479E+00
         25   -1    0    0    0    0  0.00000000000E+00  0.00000000000E+00  0.99999998245E-14  0.12500000000E+03  0.12500000000E+03 0.  0.
    3000001    1    3    3    0    0 -0.25562123084E+02  0.49781179515E+01  0.27943686470E+01  0.26210919310E+02  0.10000000000E+01 0.  1.
    1000022    2    1    0    0    0 -0.60419687233E+02  0.11460559873E+02 -0.49362861661E+01  0.62499999678E+02  0.10000000038E+02 0.  0.
    3000022    2    3    3    0    0 -0.34857564148E+02  0.64824419215E+01 -0.77306548132E+01  0.36289080368E+02  0.24999706753E+00 0.  0.
    1000022    2    1    0    0    0  0.60419687233E+02 -0.11460559873E+02  0.49362861661E+01  0.62500000322E+02  0.10000004061E+02 0.  0.
    3000022    2    5    5    0    0  0.13454099498E+02  0.14913998746E+01  0.18755206834E+00  0.13540117069E+02  0.25005516096E+00 0.  0.
        -13    1    4    4    0    0 -0.80497118127E+01  0.14948714719E+01 -0.17766861887E+01  0.83785523689E+01  0.10500000000E+00 0. -1.
         13    1    4    4    0    0 -0.26807852336E+02  0.49875704496E+01 -0.59539686245E+01  0.27910528000E+02  0.10500000000E+00 0.  1.
    3000001    1    5    5    0    0  0.46965587735E+02 -0.12951959748E+02  0.47487340978E+01  0.48959883253E+02  0.10000000000E+01 0. -1.
        -13    1    6    6    0    0  0.94997715923E+01  0.10145783651E+01  0.11005124905E+00  0.95550073701E+01  0.10500000000E+00 0.  1.
         13    1    6    6    0    0  0.39543279057E+01  0.47682150954E+00  0.77500819293E-01  0.39851096992E+01  0.10500000000E+00 0. -1.
</event>
<event>
11    0  0.3510903E-009  0.9118800E+02  0.7816531E-02  0.1126479E+00
         25   -1    0    0    0    0  0.00000000000E+00  0.00000000000E+00  0.99999998245E-14  0.12500000000E+03  0.12500000000E+03 0.  0.
    3000001    1    3    3    0    0 -0.31668528057E+02 -0.48527745714E+01 -0.24486259447E+01  0.32147174983E+02  0.10000000000E+01 0.  1.
    1000022    2    1    0    0    0 -0.59520253552E+02 -0.16132207420E+02  0.18276801059E+01  0.62499992337E+02  0.99999964214E+01 0.  0.
    3000022    2    3    3    0    0 -0.27851725495E+02 -0.11279432849E+02  0.42763060506E+01  0.30352817354E+02  0.25001896718E+00 0.  0.
    1000022    2    1    0    0    0  0.59520253552E+02  0.16132207420E+02 -0.18276801059E+01  0.62500007663E+02  0.10000092212E+02 0.  0.
    3000022    2    5    5    0    0  0.50487253525E+02  0.10730559525E+02  0.73798239742E+00  0.51620875641E+02  0.25001553990E+00 0.  0.
        -13    1    4    4    0    0 -0.13546978036E+02 -0.54447428164E+01  0.20214540428E+01  0.14739848700E+02  0.10500000000E+00 0. -1.
         13    1    4    4    0    0 -0.14304747458E+02 -0.58346900326E+01  0.22548520078E+01  0.15612968654E+02  0.10500000000E+00 0.  1.
    3000001    1    5    5    0    0  0.90330000270E+01  0.54016478953E+01 -0.25656625033E+01  0.10879132022E+02  0.10000000000E+01 0.  1.
        -13    1    6    6    0    0  0.15028276336E+02  0.31481224614E+01  0.22339542435E+00  0.15356454512E+02  0.10500000000E+00 0.  1.
         13    1    6    6    0    0  0.35458977189E+02  0.75824370636E+01  0.51458697306E+00  0.36264421129E+02  0.10500000000E+00 0. -1.
</event>
<event>
11    0  0.3510903E-009  0.9118800E+02  0.7816531E-02  0.1126479E+00
         25   -1    0    0    0    0  0.00000000000E+00  0.00000000000E+00  0.99999998245E-14  0.12500000000E+03  0.12500000000E+03 0.  0.
    3000001    1    3    3    0    0 -0.19998671268E+02 -0.33321082716E+01 -0.18163240914E+02  0.27238816394E+02  0.10000000000E+01 0. -1.
    1000022    2    1    0    0    0 -0.50926162287E+02 -0.12082959769E+02 -0.32661568959E+02  0.62500000774E+02  0.10000004394E+02 0.  0.
    3000022    2    3    3    0    0 -0.30927491018E+02 -0.87508514970E+01 -0.14498328045E+02  0.35261184380E+02  0.25001036459E+00 0.  0.
    1000022    2    1    0    0    0  0.50926162287E+02  0.12082959769E+02  0.32661568959E+02  0.62499999226E+02  0.99999947185E+01 0.  0.
    3000022    2    5    5    0    0  0.26679863210E+02  0.13357194386E+01  0.17466484549E+02  0.31917703958E+02  0.24999227210E+00 0.  0.
        -13    1    4    4    0    0 -0.11949710088E+02 -0.33535388693E+01 -0.56594885733E+01  0.13641210725E+02  0.10500000000E+00 0. -1.
         13    1    4    4    0    0 -0.18977780931E+02 -0.53973126277E+01 -0.88388394712E+01  0.21619973655E+02  0.10500000000E+00 0.  1.
    3000001    1    5    5    0    0  0.24246299077E+02  0.10747240330E+02  0.15195084410E+02  0.30582295268E+02  0.10000000000E+01 0. -1.
        -13    1    6    6    0    0  0.17553093504E+02  0.87567208645E+00  0.11425347330E+02  0.20962525606E+02  0.10500000000E+00 0.  1.
         13    1    6    6    0    0  0.91267697061E+01  0.46004735218E+00  0.60411372189E+01  0.10955178352E+02  0.10500000000E+00 0. -1.
</event>
<event>
11    0  0.3510903E-009  0.9118800E+02  0.7816531E-02  0.1126479E+00
         25   -1    0    0    0    0  0.00000000000E+00  0.00000000000E+00  0.99999998245E-14  0.12500000000E+03  0.12500000000E+03 0.  0.
    3000001    1    3    3    0    0  0.31031450403E+02 -0.14795330186E+02  0.46973342898E+02  0.58218104164E+02  0.10000000000E+01 0.  1.
    1000022    2    1    0    0    0  0.34441022021E+02 -0.17021675052E+02  0.48273477561E+02  0.62500000926E+02  0.10000003025E+02 0.  0.
    3000022    2    3    3    0    0  0.34095716176E+01 -0.22263448663E+01  0.13001346627E+01  0.42818967617E+01  0.24999931465E+00 0.  0.
    1000022    2    1    0    0    0 -0.34441022021E+02  0.17021675052E+02 -0.48273477561E+02  0.62499999074E+02  0.99999914508E+01 0.  0.
    3000022    2    5    5    0    0 -0.27496820808E+01  0.47087391511E+01 -0.45632631754E+01  0.71146918227E+01  0.24998597222E+00 0.  0.
        -13    1    4    4    0    0  0.85292124470E+00 -0.53207150597E+00  0.33603025493E+00  0.10651366435E+01  0.10500000000E+00 0. -1.
         13    1    4    4    0    0  0.25566503729E+01 -0.16942733604E+01  0.96410440773E+00  0.32167601182E+01  0.10500000000E+00 0.  1.
    3000001    1    5    5    0    0 -0.31691339940E+02  0.12312935901E+02 -0.43710214386E+02  0.55385307251E+02  0.10000000000E+01 0. -1.
        -13    1    6    6    0    0 -0.17707576159E+01  0.31404531395E+01 -0.30113999575E+01  0.46986788739E+01  0.10500000000E+00 0. -1.
         13    1    6    6    0    0 -0.97892446489E+00  0.15682860116E+01 -0.15518632179E+01  0.24160129488E+01  0.10500000000E+00 0.  1.
</event>
<event>
11    0  0.3510903E-009  0.9118800E+02  0.7816531E-02  0.1126479E+00
         25   -1    0    0    0    0  0.00000000000E+00  0.00000000000E+00  0.99999998245E-14  0.12500000000E+03  0.12500000000E+03 0.  0.
    3000001    1    3    3    0    0  0.10387798658E+02  0.11463504070E+01 -0.23817786008E+02  0.26028972521E+02  0.10000000000E+01 0.  1.
    1000022    2    1    0    0    0  0.34245812274E+02  0.60941728627E+01 -0.50954247428E+02  0.62499999294E+02  0.99999989766E+01 0.  0.
    3000022    2    3    3    0    0  0.23858013616E+02  0.49478224558E+01 -0.27136461421E+02  0.36471026772E+02  0.24998924638E+00 0.  0.
    1000022    2    1    0    0    0 -0.34245812274E+02 -0.60941728627E+01  0.50954247428E+02  0.62500000706E+02  0.10000007804E+02 0.  0.
    3000022    2    5    5    0    0 -0.29837200974E+02 -0.83455256585E+01  0.45694202375E+02  0.55208051928E+02  0.25001324912E+00 0.  0.
        -13    1    4    4    0    0  0.89507038250E+01  0.18253682773E+01 -0.10096172613E+02  0.13615828830E+02  0.10500000000E+00 0.  1.
         13    1    4    4    0    0  0.14907309792E+02  0.31224541785E+01 -0.17040288808E+02  0.22855197942E+02  0.10500000000E+00 0. -1.
    3000001    1    5    5    0    0 -0.44086113007E+01  0.22513527957E+01  0.52600450537E+01  0.72919487778E+01  0.10000000000E+01 0. -1.
        -13    1    6    6    0    0 -0.16371759318E+02 -0.45449782051E+01  0.24955385742E+02  0.30190621600E+02  0.10500000000E+00 0.  1.
         13    1    6    6    0    0 -0.13465441655E+02 -0.38005474534E+01  0.20738816633E+02  0.25017430329E+02  0.10500000000E+00 0. -1.
</event>
<event>
11    0  0.3510903E-009  0.9118800E+02  0.7816531E-02  0.1126479E+00
         25   -1    0    0    0    0  0.00000000000E+00  0.00000000000E+00  0.99999998245E-14  0.12500000000E+03  0.12500000000E+03 0.  0.
    3000001    1    3    3    0    0  0.31680039390E+02  0.42273526285E+02 -0.74392388265E+01  0.53357456786E+02  0.10000000000E+01 0. -1.
    1000022    2    1    0    0    0  0.33694195499E+02  0.50551439251E+02 -0.10747257259E+02  0.62500003246E+02  0.10000002328E+02 0.  0.
    3000022    2    3    3    0    0  0.20141561089E+01  0.82779129659E+01 -0.33080184324E+01  0.91425464608E+01  0.25000387416E+00 0.  0.
    1000022    2    1    0    0    0 -0.33694195499E+02 -0.50551439251E+02  0.10747257259E+02  0.62499996754E+02  0.99999617473E+01 0.  0.
    3000022    2    5    5    0    0 -0.30358528008E+02 -0.39324791047E+02  0.10301636644E+02  0.50737221349E+02  0.24999775979E+00 0.  0.
        -13    1    4    4    0    0  0.10673309483E+01  0.41020629071E+01 -0.16549312149E+01  0.45514764388E+01  0.10500000000E+00 0. -1.
         13    1    4    4    0    0  0.94682516065E+00  0.41758500588E+01 -0.16530872175E+01  0.45910700220E+01  0.10500000000E+00 0.  1.
    3000001    1    5    5    0    0 -0.33356674902E+01 -0.11226648204E+02  0.44562061533E+00  0.11762775405E+02  0.10000000000E+01 0.  1.
        -13    1    6    6    0    0 -0.16476341514E+02 -0.21388971721E+02  0.55366353450E+01  0.27561264429E+02  0.10500000000E+00 0. -1.
         13    1    6    6    0    0 -0.13882186494E+02 -0.17935819327E+02  0.47650012986E+01  0.23175956920E+02  0.10500000000E+00 0.  1.
</event>
<event>
11    0  0.3510903E-009  0.9118800E+02  0.7816531E-02  0.1126479E+00
         25   -1    0    0    0    0  0.00000000000E+00  0.00000000000E+00  0.99999998245E-14  0.12500000000E+03  0.12500000000E+03 0.  0.
    3000001    1    3    3    0    0 -0.28080486721E+00 -0.20553206616E+02  0.12146285585E+02  0.23896556385E+02  0.10000000000E+01 0.  1.
    1000022    2    1    0    0    0  0.41287744969E+01 -0.57873729392E+02  0.20972214521E+02  0.62499993161E+02  0.10000001534E+02 0.  0.
    3000022    2    3    3    0    0  0.44095793641E+01 -0.37320522776E+02  0.88259289364E+01  0.38603436776E+02  0.24999777726E+00 0.  0.
    1000022    2    1    0    0    0 -0.41287744969E+01  0.57873729392E+02 -0.20972214521E+02  0.62500006839E+02  0.10000087015E+02 0.  0.
    3000022    2    5    5    0    0  0.12988340770E+01  0.30130096695E+02 -0.14584786800E+02  0.33500570242E+02  0.25000738003E+00 0.  0.
        -13    1    4    4    0    0  0.11776886201E+01 -0.10158341616E+02  0.24318016339E+01  0.10512066355E+02  0.10500000000E+00 0. -1.
         13    1    4    4    0    0  0.32318907440E+01 -0.27162181161E+02  0.63941273025E+01  0.28091370421E+02  0.10500000000E+00 0.  1.
    3000001    1    5    5    0    0 -0.54276085739E+01  0.27743632697E+02 -0.63874277214E+01  0.28999436597E+02  0.10000000000E+01 0.  1.
        -13    1    6    6    0    0  0.59237353508E+00  0.12349803071E+02 -0.59545397112E+01  0.13723560415E+02  0.10500000000E+00 0. -1.
         13    1    6    6    0    0  0.70646054196E+00  0.17780293624E+02 -0.86302470886E+01  0.19777009827E+02  0.10500000000E+00 0.  1.
</event>
<event>
11    0  0.3510903E-009  0.9118800E+02  0.7816531E-02  0.1126479E+00
         25   -1    0    0    0    0  0.00000000000E+00  0.00000000000E+00  0.99999998245E-14  0.12500000000E+03  0.12500000000E+03 0.  0.
    3000001    1    3    3    0    0  0.13324689222E+02  0.25431391169E+00 -0.11219688070E+01  0.13411593210E+02  0.10000000000E+01 0. -1.
    1000022    2    1    0    0    0  0.57174970674E+02  0.10299582949E+02 -0.20765147174E+02  0.62499998867E+02  0.99999920375E+01 0.  0.
    3000022    2    3    3    0    0  0.43850281452E+02  0.10045269037E+02 -0.19643178367E+02  0.49088405657E+02  0.25000030737E+00 0.  0.
    1000022    2    1    0    0    0 -0.57174970674E+02 -0.10299582949E+02  0.20765147174E+02  0.62500001133E+02  0.10000006202E+02 0.  0.
    3000022    2    5    5    0    0 -0.42104903969E+02 -0.60408388308E+01  0.19389957526E+02  0.46747701031E+02  0.24985355337E+00 0.  0.
        -13    1    4    4    0    0  0.21581280128E+02  0.48744060133E+01 -0.96645942111E+01  0.24143878980E+02  0.10500000000E+00 0.  1.
         13    1    4    4    0    0  0.22269001324E+02  0.51708630238E+01 -0.99785841557E+01  0.24944526677E+02  0.10500000000E+00 0. -1.
    3000001    1    5    5    0    0 -0.15070066705E+02 -0.42587441180E+01  0.13751896483E+01  0.15752300102E+02  0.10000000000E+01 0.  1.
        -13    1    6    6    0    0 -0.19159201887E+02 -0.28147619064E+01  0.88426584943E+01  0.21288530616E+02  0.10500000000E+00 0.  1.
         13    1    6    6    0    0 -0.22945702082E+02 -0.32260769245E+01  0.10547299031E+02  0.25459170415E+02  0.10500000000E+00 0. -1.
</event>
<event>
11    0  0.3510903E-009  0.9118800E+02  0.7816531E-02  0.1126479E+00
         25   -1    0    0    0    0  0.00000000000E+00  0.00000000000E+00  0.99999998245E-14  0.12500000000E+03  0.12500000000E+03 0.  0.
    3000001    1    3    3    0    0 -0.59811576581E+01  0.73956904010E+01 -0.79084842830E+01  0.12410262169E+02  0.10000000000E+01 0. -1.
    1000022    2    1    0    0    0 -0.18196339352E+02  0.27682054857E+02 -0.52046587494E+02  0.62500000790E+02  0.99999951013E+01 0.  0.
    3000022    2    3    3    0    0 -0.12215181694E+02  0.20286364456E+02 -0.44138103211E+02  0.50089738621E+02  0.25002682546E+00 0.  0.
    1000022    2    1    0    0    0  0.18196339352E+02 -0.27682054857E+02  0.52046587494E+02  0.62499999210E+02  0.99999852313E+01 0.  0.
    3000022    2    5    5    0    0  0.16172980303E+02 -0.27610084864E+02  0.45911898456E+02  0.55962907264E+02  0.24998305924E+00 0.  0.
        -13    1    4    4    0    0 -0.89530237071E+01  0.14889536685E+02 -0.32313415473E+02  0.36688183121E+02  0.10500000000E+00 0.  1.
         13    1    4    4    0    0 -0.32621579871E+01  0.53968277708E+01 -0.11824687738E+02  0.13401555500E+02  0.10500000000E+00 0. -1.
    3000001    1    5    5    0    0  0.20233590495E+01 -0.71969992571E-01  0.61346890381E+01  0.65370919465E+01  0.10000000000E+01 0.  1.
        -13    1    6    6    0    0  0.11109705569E+02 -0.18953430543E+02  0.31607267886E+02  0.38492707042E+02  0.10500000000E+00 0. -1.
         13    1    6    6    0    0  0.50632747336E+01 -0.86566543214E+01  0.14304630569E+02  0.17470200222E+02  0.10500000000E+00 0.  1.
</event>
<event>
11    0  0.3510903E-009  0.9118800E+02  0.7816531E-02  0.1126479E+00
         25   -1    0    0    0    0  0.00000000000E+00  0.00000000000E+00  0.99999998245E-14  0.12500000000E+03  0.12500000000E+03 0.  0.
    3000001    1    3    3    0    0 -0.20663429312E+01 -0.34050571316E+01  0.22926669783E+01  0.47032445240E+01  0.10000000000E+01 0. -1.
    1000022    2    1    0    0    0  0.42267644282E+01 -0.48933621916E+02  0.37334771793E+02  0.62500000682E+02  0.10000000454E+02 0.  0.
    3000022    2    3    3    0    0  0.62931073594E+01 -0.45528564784E+02  0.35042104815E+02  0.57796756158E+02  0.25000199748E+00 0.  0.
    1000022    2    1    0    0    0 -0.42267644282E+01  0.48933621916E+02 -0.37334771793E+02  0.62499999318E+02  0.99999919249E+01 0.  0.
    3000022    2    5    5    0    0  0.10498563210E+00  0.39304175356E+02 -0.26955173280E+02  0.47659973545E+02  0.24997870334E+00 0.  0.
        -13    1    4    4    0    0  0.20083133693E+01 -0.14337763478E+02  0.11091281410E+02  0.18238210780E+02  0.10500000000E+00 0. -1.
         13    1    4    4    0    0  0.42847939900E+01 -0.31190801306E+02  0.23950823405E+02  0.39558545378E+02  0.10500000000E+00 0.  1.
    3000001    1    5    5    0    0 -0.43317500603E+01  0.96294465602E+01 -0.10379598513E+02  0.14840025773E+02  0.10000000000E+01 0. -1.
        -13    1    6    6    0    0  0.68178454207E-01  0.17185599539E+02 -0.11710867135E+02  0.20796752484E+02  0.10500000000E+00 0. -1.
         13    1    6    6    0    0  0.36807177893E-01  0.22118575817E+02 -0.15244306145E+02  0.26863221061E+02  0.10500000000E+00 0.  1.
</event>
<event>
11    0  0.3510903E-009  0.9118800E+02  0.7816531E-02  0.1126479E+00
         25   -1    0    0    0    0  0.00000000000E+00  0.00000000000E+00  0.99999998245E-14  0.12500000000E+03  0.12500000000E+03 0.  0.
    3000001    1    3    3    0    0  0.10353374200E+02 -0.94088264872E+01 -0.18424159001E+02  0.23155301943E+02  0.10000000000E+01 0. -1.
    1000022    2    1    0    0    0  0.19025304532E+02 -0.18363329963E+02 -0.55741146589E+02  0.62500003916E+02  0.10000048327E+02 0.  0.
    3000022    2    3    3    0    0  0.86719303322E+01 -0.89545034760E+01 -0.37316987588E+02  0.39344701973E+02  0.25000493808E+00 0.  0.
    1000022    2    1    0    0    0 -0.19025304532E+02  0.18363329963E+02  0.55741146589E+02  0.62499996084E+02  0.99999993772E+01 0.  0.
    3000022    2    5    5    0    0 -0.45575127531E+01  0.10261559099E+02  0.17334496814E+02  0.20654728286E+02  0.25000631056E+00 0.  0.
        -13    1    4    4    0    0  0.55301875400E+01 -0.57006772712E+01 -0.23591065299E+02  0.24892369966E+02  0.10500000000E+00 0. -1.
         13    1    4    4    0    0  0.31417427922E+01 -0.32538262047E+01 -0.13725922289E+02  0.14452332007E+02  0.10500000000E+00 0.  1.
    3000001    1    5    5    0    0 -0.14467791779E+02  0.81017708643E+01  0.38406649775E+02  0.41845267798E+02  0.10000000000E+01 0.  1.
        -13    1    6    6    0    0 -0.33836909786E+01  0.76347734235E+01  0.12837081482E+02  0.15314725457E+02  0.10500000000E+00 0. -1.
         13    1    6    6    0    0 -0.11738217745E+01  0.26267856754E+01  0.44974153322E+01  0.53400028289E+01  0.10500000000E+00 0.  1.
</event>
<event>
11    0  0.3510903E-009  0.9118800E+02  0.7816531E-02  0.1126479E+00
         25   -1    0    0    0    0  0.00000000000E+00  0.00000000000E+00  0.99999998245E-14  0.12500000000E+03  0.12500000000E+03 0.  0.
    3000001    1    3    3    0    0 -0.40781391113E+02 -0.32792653327E+02  0.21531510832E+02  0.56595811966E+02  0.10000000000E+01 0.  1.
    1000022    2    1    0    0    0 -0.42755435776E+02 -0.36071895247E+02  0.26020013885E+02  0.62500000350E+02  0.10000000301E+02 0.  0.
    3000022    2    3    3    0    0 -0.19740446634E+01 -0.32792419200E+01  0.44885030534E+01  0.59041883845E+01  0.25000183085E+00 0.  0.
    1000022    2    1    0    0    0  0.42755435776E+02  0.36071895247E+02 -0.26020013885E+02  0.62499999650E+02  0.99999959246E+01 0.  0.
    3000022    2    5    5    0    0  0.27340992964E+02  0.27372139687E+02 -0.21253100977E+02  0.44142051706E+02  0.25000079969E+00 0.  0.
        -13    1    4    4    0    0 -0.10301564771E+01 -0.16683611400E+01  0.23975540325E+01  0.30990226845E+01  0.10500000000E+00 0. -1.
         13    1    4    4    0    0 -0.94388818638E+00 -0.16108807800E+01  0.20909490210E+01  0.28051656999E+01  0.10500000000E+00 0.  1.
    3000001    1    5    5    0    0  0.15414442812E+02  0.86997555606E+01 -0.47669129080E+01  0.18357947944E+02  0.10000000000E+01 0. -1.
        -13    1    6    6    0    0  0.10317354768E+02  0.10367689830E+02 -0.79734088445E+01  0.16659023843E+02  0.10500000000E+00 0. -1.
         13    1    6    6    0    0  0.17023638196E+02  0.17004449856E+02 -0.13279692133E+02  0.27483027863E+02  0.10500000000E+00 0.  1.
</event>
<event>
11    0  0.3510903E-009  0.9118800E+02  0.7816531E-02  0.1126479E+00
         25   -1    0    0    0    0  0.00000000000E+00  0.00000000000E+00  0.99999998245E-14  0.12500000000E+03  0.12500000000E+03 0.  0.
    3000001    1    3    3    0    0  0.76226635183E+01  0.27432176484E+01 -0.26191615503E+02  0.27434120449E+02  0.10000000000E+01 0.  1.
    1000022    2    1    0    0    0  0.13528690559E+02 -0.42337587959E+01 -0.60044148905E+02  0.62499999519E+02  0.99999970219E+01 0.  0.
    3000022    2    3    3    0    0  0.59060270402E+01 -0.69769764443E+01 -0.33852533402E+02  0.35065879070E+02  0.25000302636E+00 0.  0.
    1000022    2    1    0    0    0 -0.13528690559E+02  0.42337587959E+01  0.60044148905E+02  0.62500000481E+02  0.10000003029E+02 0.  0.
    3000022    2    5    5    0    0 -0.87257599101E+01  0.73285565966E+01  0.35748432109E+02  0.37521454269E+02  0.25000874325E+00 0.  0.
        -13    1    4    4    0    0  0.20180578280E+01 -0.23314489824E+01 -0.11260370156E+02  0.11675408893E+02  0.10500000000E+00 0. -1.
         13    1    4    4    0    0  0.38879692122E+01 -0.46455274619E+01 -0.22592163246E+02  0.23390470178E+02  0.10500000000E+00 0.  1.
    3000001    1    5    5    0    0 -0.48029306484E+01 -0.30947978007E+01  0.24295716796E+02  0.24978546212E+02  0.10000000000E+01 0. -1.
        -13    1    6    6    0    0 -0.21437292960E+01  0.18195606825E+01  0.87612619930E+01  0.92020167943E+01  0.10500000000E+00 0. -1.
         13    1    6    6    0    0 -0.65820306141E+01  0.55089959142E+01  0.26987170116E+02  0.28319437474E+02  0.10500000000E+00 0.  1.
</event>
<event>
11    0  0.3510903E-009  0.9118800E+02  0.7816531E-02  0.1126479E+00
         25   -1    0    0    0    0  0.00000000000E+00  0.00000000000E+00  0.99999998245E-14  0.12500000000E+03  0.12500000000E+03 0.  0.
    3000001    1    3    3    0    0 -0.41453325353E+02  0.30528251501E+02 -0.24773184327E+02  0.57140729644E+02  0.10000000000E+01 0. -1.
    1000022    2    1    0    0    0 -0.42732213885E+02  0.34295866461E+02 -0.28354911133E+02  0.62499996189E+02  0.99999989219E+01 0.  0.
    3000022    2    3    3    0    0 -0.12788885324E+01  0.37676149597E+01 -0.35817268059E+01  0.53592665452E+01  0.24998525489E+00 0.  0.
    1000022    2    1    0    0    0  0.42732213885E+02 -0.34295866461E+02  0.28354911133E+02  0.62500003811E+02  0.10000046559E+02 0.  0.
    3000022    2    5    5    0    0  0.18910543983E+02 -0.21299345024E+02  0.13075907567E+02  0.31341867211E+02  0.25001884646E+00 0.  0.
        -13    1    4    4    0    0 -0.81253677350E+00  0.24076601073E+01 -0.23637212815E+01  0.34720666032E+01  0.10500000000E+00 0.  1.
         13    1    4    4    0    0 -0.46635175887E+00  0.13599548524E+01 -0.12180055245E+01  0.18871999420E+01  0.10500000000E+00 0. -1.
    3000001    1    5    5    0    0  0.23821669902E+02 -0.12996521437E+02  0.15279003566E+02  0.31158136600E+02  0.10000000000E+01 0.  1.
        -13    1    6    6    0    0  0.53776603622E+01 -0.60658397906E+01  0.36767679396E+01  0.89018700742E+01  0.10500000000E+00 0. -1.
         13    1    6    6    0    0  0.13532883621E+02 -0.15233505233E+02  0.93991396277E+01  0.22439997137E+02  0.10500000000E+00 0.  1.
</event>
<event>
11    0  0.3510903E-009  0.9118800E+02  0.7816531E-02  0.1126479E+00
         25   -1    0    0    0    0  0.00000000000E+00  0.00000000000E+00  0.99999998245E-14  0.12500000000E+03  0.12500000000E+03 0.  0.
    3000001    1    3    3    0    0  0.65821088759E+01  0.49950964771E+01  0.28349175522E+01  0.87927187830E+01  0.10000000000E+01 0. -1.
    1000022    2    1    0    0    0  0.57573508320E+02  0.14557601387E+02  0.16721777281E+02  0.62499996611E+02  0.99999561233E+01 0.  0.
    3000022    2    3    3    0    0  0.50991399445E+02  0.95625049098E+01  0.13886859729E+02  0.53707277828E+02  0.25000218939E+00 0.  0.
    1000022    2    1    0    0    0 -0.57573508320E+02 -0.14557601387E+02 -0.16721777281E+02  0.62500003389E+02  0.99999984870E+01 0.  0.
    3000022    2    5    5    0    0 -0.25811419326E+02 -0.56648165922E+01 -0.24268291066E+01  0.26538114368E+02  0.25000004544E+00 0.  0.
        -13    1    4    4    0    0  0.23470812992E+02  0.43888270048E+01  0.63231207434E+01  0.24700885529E+02  0.10500000000E+00 0.  1.
         13    1    4    4    0    0  0.27520586452E+02  0.51736779050E+01  0.75637389854E+01  0.29006392299E+02  0.10500000000E+00 0. -1.
    3000001    1    5    5    0    0 -0.31762088994E+02 -0.88927847946E+01 -0.14294948174E+02  0.35961889021E+02  0.10000000000E+01 0.  1.
        -13    1    6    6    0    0 -0.11916807040E+02 -0.26249463485E+01 -0.11874052918E+01  0.12260570528E+02  0.10500000000E+00 0.  1.
         13    1    6    6    0    0 -0.13894612286E+02 -0.30398702437E+01 -0.12394238148E+01  0.14277543839E+02  0.10500000000E+00 0. -1.
</event>
<event>
11    0  0.3510903E-009  0.9118800E+02  0.7816531E-02  0.1126479E+00
         25   -1    0    0    0    0  0.00000000000E+00  0.00000000000E+00  0.99999998245E-14  0.12500000000E+03  0.12500000000E+03 0.  0.
    3000001    1    3    3    0    0  0.17534123022E+02 -0.23798661956E+01  0.14494271807E+02  0.22895264761E+02  0.10000000000E+01 0.  1.
    1000022    2    1    0    0    0  0.44888021628E+02 -0.18993986055E+02  0.37822529232E+02  0.62499997323E+02  0.99999977985E+01 0.  0.
    3000022    2    3    3    0    0  0.27353898606E+02 -0.16614119859E+02  0.23328257425E+02  0.39604732562E+02  0.24999839503E+00 0.  0.
    1000022    2    1    0    0    0 -0.44888021628E+02  0.18993986055E+02 -0.37822529232E+02  0.62500002677E+02  0.10000031260E+02 0.  0.
    3000022    2    5    5    0    0 -0.41274676856E+02  0.17783603437E+02 -0.30920378609E+02  0.54552615072E+02  0.24999424830E+00 0.  0.
        -13    1    4    4    0    0  0.18103182744E+02 -0.11003382089E+02  0.15508538770E+02  0.26255007954E+02  0.10500000000E+00 0.  1.
         13    1    4    4    0    0  0.92507158623E+01 -0.56107377701E+01  0.78197186542E+01  0.13349724608E+02  0.10500000000E+00 0. -1.
    3000001    1    5    5    0    0 -0.36133447720E+01  0.12103826181E+01 -0.69021506222E+01  0.79473876045E+01  0.10000000000E+01 0.  1.
        -13    1    6    6    0    0 -0.20663832964E+02  0.89736265142E+01 -0.15524017791E+02  0.27359205378E+02  0.10500000000E+00 0.  1.
         13    1    6    6    0    0 -0.20610843893E+02  0.88099769224E+01 -0.15396360819E+02  0.27193409694E+02  0.10500000000E+00 0. -1.
</event>
<event>
11    0  0.3510903E-009  0.9118800E+02  0.7816531E-02  0.1126479E+00
         25   -1    0    0    0    0  0.00000000000E+00  0.00000000000E+00  0.99999998245E-14  0.12500000000E+03  0.12500000000E+03 0.  0.
    3000001    1    3    3    0    0 -0.14709057922E+01  0.50043489219E+00 -0.47831280377E+00  0.19086073638E+01  0.10000000000E+01 0. -1.
    1000022    2    1    0    0    0 -0.43477398551E+02 -0.24766332353E+02 -0.36091489728E+02  0.62499991495E+02  0.99998951535E+01 0.  0.
    3000022    2    3    3    0    0 -0.42006492759E+02 -0.25266767245E+02 -0.35613176924E+02  0.60591384131E+02  0.24999871465E+00 0.  0.
    1000022    2    1    0    0    0  0.43477398551E+02  0.24766332353E+02  0.36091489728E+02  0.62500008505E+02  0.10000001471E+02 0.  0.
    3000022    2    5    5    0    0  0.62937068938E+01  0.78949791840E+01  0.86023436044E+01  0.13266659669E+02  0.25000102655E+00 0.  0.
        -13    1    4    4    0    0 -0.29798989381E+02 -0.17961928170E+02 -0.25312442415E+02  0.43027216941E+02  0.10500000000E+00 0.  1.
         13    1    4    4    0    0 -0.12207503378E+02 -0.73048390746E+01 -0.10300734510E+02  0.17564167190E+02  0.10500000000E+00 0. -1.
    3000001    1    5    5    0    0  0.37183691657E+02  0.16871353169E+02  0.27489146124E+02  0.49233348836E+02  0.10000000000E+01 0.  1.
        -13    1    6    6    0    0  0.22485514888E+01  0.28260436332E+01  0.30019793980E+01  0.46973834973E+01  0.10500000000E+00 0.  1.
         13    1    6    6    0    0  0.40451554050E+01  0.50689355507E+01  0.56003642064E+01  0.85692761720E+01  0.10500000000E+00 0. -1.
</event>
<event>
11    0  0.3510903E-009  0.9118800E+02  0.7816531E-02  0.1126479E+00
         25   -1    0    0    0    0  0.00000000000E+00  0.00000000000E+00  0.99999998245E-14  0.12500000000E+03  0.12500000000E+03 0.  0.
    3000001    1    3    3    0    0 -0.24327934856E+01 -0.86684536277E+01  0.27273918182E+02  0.28738948927E+02  0.10000000000E+01 0. -1.
    1000022    2    1    0    0    0 -0.88293262720E+00 -0.27675859778E+02  0.55131817552E+02  0.62500000844E+02  0.10000000723E+02 0.  0.
    3000022    2    3    3    0    0  0.15498608584E+01 -0.19007406150E+02  0.27857899370E+02  0.33761051917E+02  0.25002399364E+00 0.  0.
    1000022    2    1    0    0    0  0.88293262720E+00  0.27675859778E+02 -0.55131817552E+02  0.62499999156E+02  0.99999901742E+01 0.  0.
    3000022    2    5    5    0    0 -0.35342235322E+01  0.16900424998E+02 -0.27163233753E+02  0.32187247005E+02  0.25000158149E+00 0.  0.
        -13    1    4    4    0    0  0.53264424823E+00 -0.62755840987E+01  0.91148886883E+01  0.11079660937E+02  0.10500000000E+00 0.  1.
         13    1    4    4    0    0  0.10172166101E+01 -0.12731822051E+02  0.18743010682E+02  0.22681390980E+02  0.10500000000E+00 0. -1.
    3000001    1    5    5    0    0  0.44171561594E+01  0.10775434780E+02 -0.27968583799E+02  0.30312752151E+02  0.10000000000E+01 0. -1.
        -13    1    6    6    0    0 -0.15838183426E+01  0.78372762079E+01 -0.12504269983E+02  0.14842478624E+02  0.10500000000E+00 0. -1.
         13    1    6    6    0    0 -0.19504051895E+01  0.90631487897E+01 -0.14658963770E+02  0.17344768381E+02  0.10500000000E+00 0.  1.
</event>
<event>
11    0  0.3510903E-009  0.9118800E+02  0.7816531E-02  0.1126479E+00
         25   -1    0    0    0    0  0.00000000000E+00  0.00000000000E+00  0.99999998245E-14  0.12500000000E+03  0.12500000000E+03 0.  0.
    3000001    1    3    3    0    0 -0.90570426686E+01  0.10959880828E+02  0.40535203446E+02  0.42968031466E+02  0.10000000000E+01 0. -1.
    1000022    2    1    0    0    0 -0.19295690301E+02  0.14306901382E+02  0.56826392742E+02  0.62499999757E+02  0.99999983072E+01 0.  0.
    3000022    2    3    3    0    0 -0.10238647632E+02  0.33470205536E+01  0.16291189296E+02  0.19531968290E+02  0.24996937792E+00 0.  0.
    1000022    2    1    0    0    0  0.19295690301E+02 -0.14306901382E+02 -0.56826392742E+02  0.62500000243E+02  0.10000001351E+02 0.  0.
    3000022    2    5    5    0    0  0.59558490848E+01 -0.13998478688E+01 -0.24070453170E+02  0.24837087832E+02  0.25000758422E+00 0.  0.
        -13    1    4    4    0    0 -0.59325173262E+01  0.18720446094E+01  0.93865831227E+01  0.11261362287E+02  0.10500000000E+00 0.  1.
         13    1    4    4    0    0 -0.43061303059E+01  0.14749759442E+01  0.69046061735E+01  0.82706060031E+01  0.10500000000E+00 0. -1.
    3000001    1    5    5    0    0  0.13339841216E+02 -0.12907053513E+02 -0.32755939573E+02  0.37662912412E+02  0.10000000000E+01 0. -1.
        -13    1    6    6    0    0  0.15863114524E+01 -0.34086734911E+00 -0.64476598502E+01  0.66495050280E+01  0.10500000000E+00 0.  1.
         13    1    6    6    0    0  0.43695376324E+01 -0.10589805197E+01 -0.17622793320E+02  0.18187582804E+02  0.10500000000E+00 0. -1.
</event>
<event>
11    0  0.3510903E-009  0.9118800E+02  0.7816531E-02  0.1126479E+00
         25   -1    0    0    0    0  0.00000000000E+00  0.00000000000E+00  0.99999998245E-14  0.12500000000E+03  0.12500000000E+03 0.  0.
    3000001    1    3    3    0    0 -0.30956634761E+02  0.31437881838E+02  0.16298164824E+02  0.47045550553E+02  0.10000000000E+01 0.  1.
    1000022    2    1    0    0    0 -0.39523270758E+02  0.39266147699E+02  0.26501522995E+02  0.62500000286E+02  0.10000001414E+02 0.  0.
    3000022    2    3    3    0    0 -0.85666359961E+01  0.78282658610E+01  0.10203358171E+02  0.15454449733E+02  0.24999984996E+00 0.  0.
    1000022    2    1    0    0    0  0.39523270758E+02 -0.39266147699E+02 -0.26501522995E+02  0.62499999714E+02  0.99999978331E+01 0.  0.
    3000022    2    5    5    0    0  0.22172534354E+02 -0.18005160219E+02 -0.90478271044E+01  0.29962188745E+02  0.25000981128E+00 0.  0.
        -13    1    4    4    0    0 -0.23880171595E+01  0.21880355525E+01  0.29009074749E+01  0.43493004853E+01  0.10500000000E+00 0. -1.
         13    1    4    4    0    0 -0.61786188366E+01  0.56402303085E+01  0.73024506956E+01  0.11105149248E+02  0.10500000000E+00 0.  1.
    3000001    1    5    5    0    0  0.17350736403E+02 -0.21260987480E+02 -0.17453695890E+02  0.32537810968E+02  0.10000000000E+01 0.  1.
        -13    1    6    6    0    0  0.85624531456E+01 -0.68769539246E+01 -0.34616299925E+01  0.11515294454E+02  0.10500000000E+00 0.  1.
         13    1    6    6    0    0  0.13610081209E+02 -0.11128206294E+02 -0.55861971120E+01  0.18446894292E+02  0.10500000000E+00 0. -1.
</event>
<event>
11    0  0.3510903E-009  0.9118800E+02  0.7816531E-02  0.1126479E+00
         25   -1    0    0    0    0  0.00000000000E+00  0.00000000000E+00  0.99999998245E-14  0.12500000000E+03  0.12500000000E+03 0.  0.
    3000001    1    3    3    0    0 -0.12439810018E+02  0.16283963624E+01  0.32341569550E+02  0.34704144839E+02  0.10000000000E+01 0.  1.
    1000022    2    1    0    0    0 -0.20311211715E+02  0.11469904009E+02  0.57115196517E+02  0.62499997114E+02  0.99999973385E+01 0.  0.
    3000022    2    3    3    0    0 -0.78714016973E+01  0.98415076470E+01  0.24773626966E+02  0.27795852275E+02  0.25014635438E+00 0.  0.
    1000022    2    1    0    0    0  0.20311211715E+02 -0.11469904009E+02 -0.57115196517E+02  0.62500002886E+02  0.10000033414E+02 0.  0.
    3000022    2    5    5    0    0  0.36134506555E+01 -0.36593484306E+01 -0.24381475875E+02  0.24919203667E+02  0.24997800135E+00 0.  0.
        -13    1    4    4    0    0 -0.50457983117E+01  0.62705240163E+01  0.15938336405E+02  0.17855563402E+02  0.10500000000E+00 0.  1.
         13    1    4    4    0    0 -0.28256033855E+01  0.35709836307E+01  0.88352905613E+01  0.99402888733E+01  0.10500000000E+00 0. -1.
    3000001    1    5    5    0    0  0.16697761060E+02 -0.78105555787E+01 -0.32733720642E+02  0.37580799219E+02  0.10000000000E+01 0. -1.
        -13    1    6    6    0    0  0.25938491793E+01 -0.25676728211E+01 -0.17234821719E+02  0.17617352297E+02  0.10500000000E+00 0. -1.
         13    1    6    6    0    0  0.10196014763E+01 -0.10916756095E+01 -0.71466541559E+01  0.73018513701E+01  0.10500000000E+00 0.  1.
</event>
<event>
11    0  0.3510903E-009  0.9118800E+02  0.7816531E-02  0.1126479E+00
         25   -1    0    0    0    0  0.00000000000E+00  0.00000000000E+00  0.99999998245E-14  0.12500000000E+03  0.12500000000E+03 0.  0.
    3000001    1    3    3    0    0 -0.11828899710E+02 -0.20598521680E+02 -0.25009500657E+02  0.34506478911E+02  0.10000000000E+01 0.  1.
    1000022    2    1    0    0    0 -0.27369118581E+02 -0.39253743449E+02 -0.38940013056E+02  0.62500002738E+02  0.10000034939E+02 0.  0.
    3000022    2    3    3    0    0 -0.15540218871E+02 -0.18655221770E+02 -0.13930512399E+02  0.27993523827E+02  0.24999742665E+00 0.  0.
    1000022    2    1    0    0    0  0.27369118581E+02  0.39253743449E+02  0.38940013056E+02  0.62499997262E+02  0.10000000711E+02 0.  0.
    3000022    2    5    5    0    0  0.24553400259E+02  0.36224660605E+02  0.31468782395E+02  0.53902154501E+02  0.24998841675E+00 0.  0.
        -13    1    4    4    0    0 -0.66111815888E+01 -0.79970912464E+01 -0.58926797501E+01  0.11932974903E+02  0.10500000000E+00 0.  1.
         13    1    4    4    0    0 -0.89290372826E+01 -0.10658130523E+02 -0.80378326490E+01  0.16060548924E+02  0.10500000000E+00 0. -1.
    3000001    1    5    5    0    0  0.28157183222E+01  0.30290828447E+01  0.74712306614E+01  0.85978427611E+01  0.10000000000E+01 0. -1.
        -13    1    6    6    0    0  0.13339324434E+02  0.19684800713E+02  0.17016689407E+02  0.29240514681E+02  0.10500000000E+00 0. -1.
         13    1    6    6    0    0  0.11214075825E+02  0.16539859892E+02  0.14452092988E+02  0.24661639819E+02  0.10500000000E+00 0.  1.
</event>
<event>
11    0  0.3510903E-009  0.9118800E+02  0.7816531E-02  0.1126479E+00
         25   -1    0    0    0    0  0.00000000000E+00  0.00000000000E+00  0.99999998245E-14  0.12500000000E+03  0.12500000000E+03 0.  0.
    3000001    1    3    3    0    0  0.27090411397E+01 -0.64964223481E+00 -0.21416325078E+01  0.36534269841E+01  0.10000000000E+01 0.  1.
    1000022    2    1    0    0    0  0.45947183113E+02  0.25183145341E+02 -0.32571685087E+02  0.62500010799E+02  0.10000111759E+02 0.  0.
    3000022    2    3    3    0    0  0.43238141973E+02  0.25832787575E+02 -0.30430052579E+02  0.58846583815E+02  0.24998297280E+00 0.  0.
    1000022    2    1    0    0    0 -0.45947183113E+02 -0.25183145341E+02  0.32571685087E+02  0.62499989201E+02  0.99999767758E+01 0.  0.
    3000022    2    5    5    0    0 -0.41252155932E+02 -0.22133112647E+02  0.32160747263E+02  0.56797809832E+02  0.24998551844E+00 0.  0.
        -13    1    4    4    0    0  0.22614322400E+02  0.13496256735E+02 -0.15988414076E+02  0.30809039796E+02  0.10500000000E+00 0. -1.
         13    1    4    4    0    0  0.20623819573E+02  0.12336530840E+02 -0.14441638503E+02  0.28037544019E+02  0.10500000000E+00 0.  1.
    3000001    1    5    5    0    0 -0.46950271809E+01 -0.30500326932E+01  0.41093782384E+00  0.57021793688E+01  0.10000000000E+01 0.  1.
        -13    1    6    6    0    0 -0.29106031614E+02 -0.15620665166E+02  0.22639221175E+02  0.40046368337E+02  0.10500000000E+00 0.  1.
         13    1    6    6    0    0 -0.12146124318E+02 -0.65124474810E+01  0.95215260882E+01  0.16751441496E+02  0.10500000000E+00 0. -1.
</event>
<event>
11    0  0.3510903E-009  0.9118800E+02  0.7816531E-02  0.1126479E+00
         25   -1    0    0    0    0  0.00000000000E+00  0.00000000000E+00  0.99999998245E-14  0.12500000000E+03  0.12500000000E+03 0.  0.
    3000001    1    3    3    0    0  0.61654370625E+01  0.58716249308E+00 -0.83739030459E+01  0.10463251225E+02  0.10000000000E+01 0.  1.
    1000022    2    1    0    0    0  0.18162142185E+02  0.11015935664E+02 -0.57922670941E+02  0.62499999163E+02  0.99999919581E+01 0.  0.
    3000022    2    3    3    0    0  0.11996705122E+02  0.10428773171E+02 -0.49548767895E+02  0.52036747938E+02  0.24998493624E+00 0.  0.
    1000022    2    1    0    0    0 -0.18162142185E+02 -0.11015935664E+02  0.57922670941E+02  0.62500000837E+02  0.10000002422E+02 0.  0.
    3000022    2    5    5    0    0 -0.14202425640E+02 -0.39316354917E+01  0.43387562001E+02  0.45822589290E+02  0.25000214685E+00 0.  0.
        -13    1    4    4    0    0  0.37762658465E+01  0.33490756985E+01 -0.15724496515E+02  0.16515063046E+02  0.10500000000E+00 0. -1.
         13    1    4    4    0    0  0.82204392760E+01  0.70796974726E+01 -0.33824271380E+02  0.35521684892E+02  0.10500000000E+00 0.  1.
    3000001    1    5    5    0    0 -0.39597165447E+01 -0.70843001725E+01  0.14535108939E+02  0.16677411547E+02  0.10000000000E+01 0.  1.
        -13    1    6    6    0    0 -0.45955525026E+01 -0.12829129801E+01  0.13892689026E+02  0.14689547368E+02  0.10500000000E+00 0.  1.
         13    1    6    6    0    0 -0.96068731377E+01 -0.26487225116E+01  0.29494872976E+02  0.31133041921E+02  0.10500000000E+00 0. -1.
</event>
<event>
11    0  0.3510903E-009  0.9118800E+02  0.7816531E-02  0.1126479E+00
         25   -1    0    0    0    0  0.00000000000E+00  0.00000000000E+00  0.99999998245E-14  0.12500000000E+03  0.12500000000E+03 0.  0.
    3000001    1    3    3    0    0  0.27614574095E+02 -0.55842237028E+01  0.15857727760E+02  0.32345259104E+02  0.10000000000E+01 0. -1.
    1000022    2    1    0    0    0  0.54927030194E+02 -0.16221429864E+02  0.22937668996E+02  0.62500001342E+02  0.10000003807E+02 0.  0.
    3000022    2    3    3    0    0  0.27312456099E+02 -0.10637206161E+02  0.70799412359E+01  0.30154742239E+02  0.24999701894E+00 0.  0.
    1000022    2    1    0    0    0 -0.54927030194E+02  0.16221429864E+02 -0.22937668996E+02  0.62499998658E+02  0.99999870264E+01 0.  0.
    3000022    2    5    5    0    0 -0.28448802832E+02  0.86739300349E+01 -0.65905017216E+01  0.30464219352E+02  0.25000581950E+00 0.  0.
        -13    1    4    4    0    0  0.18236561414E+02 -0.71017622342E+01  0.47819783765E+01  0.20146601232E+02  0.10500000000E+00 0. -1.
         13    1    4    4    0    0  0.90758946852E+01 -0.35354439267E+01  0.22979628595E+01  0.10008141006E+02  0.10500000000E+00 0.  1.
    3000001    1    5    5    0    0 -0.26478227361E+02  0.75474998288E+01 -0.16347167274E+02  0.32035779306E+02  0.10000000000E+01 0.  1.
        -13    1    6    6    0    0 -0.10692300956E+02  0.32960903367E+01 -0.24286479988E+01  0.11449841368E+02  0.10500000000E+00 0.  1.
         13    1    6    6    0    0 -0.17756501876E+02  0.53778396983E+01 -0.41618537228E+01  0.19014377984E+02  0.10500000000E+00 0. -1.
</event>
<event>
11    0  0.3510903E-009  0.9118800E+02  0.7816531E-02  0.1126479E+00
         25   -1    0    0    0    0  0.00000000000E+00  0.00000000000E+00  0.99999998245E-14  0.12500000000E+03  0.12500000000E+03 0.  0.
    3000001    1    3    3    0    0  0.26584932586E+02 -0.30299812209E+02 -0.10830478539E+02  0.41750886528E+02  0.10000000000E+01 0.  1.
    1000022    2    1    0    0    0  0.34332626635E+02 -0.49242882977E+02 -0.14235844097E+02  0.62499999928E+02  0.99999979144E+01 0.  0.
    3000022    2    3    3    0    0  0.77476940493E+01 -0.18943070768E+02 -0.34053655572E+01  0.20749113400E+02  0.24999818576E+00 0.  0.
    1000022    2    1    0    0    0 -0.34332626635E+02  0.49242882977E+02  0.14235844097E+02  0.62500000072E+02  0.99999988130E+01 0.  0.
    3000022    2    5    5    0    0 -0.70561787703E+01  0.17806807823E+02  0.31045248997E+01  0.19405479581E+02  0.24999850670E+00 0.  0.
        -13    1    4    4    0    0  0.36773306817E+01 -0.90904159072E+01 -0.16885862871E+01  0.99509180962E+01  0.10500000000E+00 0. -1.
         13    1    4    4    0    0  0.40703633677E+01 -0.98526548609E+01 -0.17167792701E+01  0.10798195304E+02  0.10500000000E+00 0.  1.
    3000001    1    5    5    0    0 -0.27276447865E+02  0.31436075154E+02  0.11131319197E+02  0.43094520490E+02  0.10000000000E+01 0. -1.
        -13    1    6    6    0    0 -0.18110378426E+01  0.46428044628E+01  0.82517905735E+00  0.50524683892E+01  0.10500000000E+00 0.  1.
         13    1    6    6    0    0 -0.52451409277E+01  0.13164003360E+02  0.22793458423E+01  0.14353011192E+02  0.10500000000E+00 0. -1.
</event>
<event>
11    0  0.3510903E-009  0.9118800E+02  0.7816531E-02  0.1126479E+00
         25   -1    0    0    0    0  0.00000000000E+00  0.00000000000E+00  0.99999998245E-14  0.12500000000E+03  0.12500000000E+03 0.  0.
    3000001    1    3    3    0    0 -0.41990173697E+02  0.20352052260E+02  0.23726711827E+02  0.52357784258E+02  0.10000000000E+01 0.  1.
    1000022    2    1    0    0    0 -0.47976929881E+02  0.27855614323E+02  0.26991279838E+02  0.62500002656E+02  0.10000004729E+02 0.  0.
    3000022    2    3    3    0    0 -0.59867561833E+01  0.75035620630E+01  0.32645680108E+01  0.10142218397E+02  0.24999297566E+00 0.  0.
    1000022    2    1    0    0    0  0.47976929881E+02 -0.27855614323E+02 -0.26991279838E+02  0.62499997344E+02  0.99999715348E+01 0.  0.
    3000022    2    5    5    0    0  0.40510936054E+02 -0.24409746122E+02 -0.26469252751E+02  0.54200142903E+02  0.25000755867E+00 0.  0.
        -13    1    4    4    0    0 -0.37906740921E+01  0.46609029106E+01  0.20651319241E+01  0.63536620054E+01  0.10500000000E+00 0.  1.
         13    1    4    4    0    0 -0.21960820912E+01  0.28426591525E+01  0.11994360866E+01  0.37885563919E+01  0.10500000000E+00 0. -1.
    3000001    1    5    5    0    0  0.74659938262E+01 -0.34458682007E+01 -0.52202708737E+00  0.82998544415E+01  0.10000000000E+01 0. -1.
        -13    1    6    6    0    0  0.20602496233E+02 -0.12346092898E+02 -0.13481728275E+02  0.27543726747E+02  0.10500000000E+00 0.  1.
         13    1    6    6    0    0  0.19908439822E+02 -0.12063653224E+02 -0.12987524476E+02  0.26656416155E+02  0.10500000000E+00 0. -1.
</event>
<event>
11    0  0.3510903E-009  0.9118800E+02  0.7816531E-02  0.1126479E+00
         25   -1    0    0    0    0  0.00000000000E+00  0.00000000000E+00  0.99999998245E-14  0.12500000000E+03  0.12500000000E+03 0.  0.
    3000001    1    3    3    0    0  0.67105596196E+01 -0.17790733604E+02  0.15464124742E+02  0.24529186016E+02  0.10000000000E+01 0.  1.
    1000022    2    1    0    0    0  0.28209626245E+02 -0.41727704349E+02  0.35626754600E+02  0.62499998207E+02  0.99999904694E+01 0.  0.
    3000022    2    3    3    0    0  0.21499066626E+02 -0.23936970745E+02  0.20162629857E+02  0.37970812190E+02  0.25000281709E+00 0.  0.
    1000022    2    1    0    0    0 -0.28209626245E+02  0.41727704349E+02 -0.35626754600E+02  0.62500001793E+02  0.10000012887E+02 0.  0.
    3000022    2    5    5    0    0 -0.40928925472E+01  0.13759210882E+01 -0.27320047450E+01  0.51157894648E+01  0.25004734981E+00 0.  0.
        -13    1    4    4    0    0  0.71329518992E+01 -0.78844063895E+01  0.66199104270E+01  0.12525059121E+02  0.10500000000E+00 0. -1.
         13    1    4    4    0    0  0.14366114726E+02 -0.16052564356E+02  0.13542719430E+02  0.25445753070E+02  0.10500000000E+00 0.  1.
    3000001    1    5    5    0    0 -0.24116733698E+02  0.40351783261E+02 -0.32894749855E+02  0.57384212329E+02  0.10000000000E+01 0. -1.
        -13    1    6    6    0    0 -0.22513773802E+01  0.82636744974E+00 -0.15061005435E+01  0.28338925733E+01  0.10500000000E+00 0.  1.
         13    1    6    6    0    0 -0.18415151670E+01  0.54955363847E+00 -0.12259042015E+01  0.22818968914E+01  0.10500000000E+00 0. -1.
</event>
<event>
11    0  0.3510903E-009  0.9118800E+02  0.7816531E-02  0.1126479E+00
         25   -1    0    0    0    0  0.00000000000E+00  0.00000000000E+00  0.99999998245E-14  0.12500000000E+03  0.12500000000E+03 0.  0.
    3000001    1    3    3    0    0  0.22776382531E+01  0.30578440316E+01 -0.21218825666E+01  0.44766540809E+01  0.10000000000E+01 0. -1.
    1000022    2    1    0    0    0  0.57225821246E+01  0.59095508072E+02 -0.16769714894E+02  0.62500002189E+02  0.99999957785E+01 0.  0.
    3000022    2    3    3    0    0  0.34449438716E+01  0.56037664040E+02 -0.14647832327E+02  0.58023348108E+02  0.25000886285E+00 0.  0.
    1000022    2    1    0    0    0 -0.57225821246E+01 -0.59095508072E+02  0.16769714894E+02  0.62499997811E+02  0.99999684180E+01 0.  0.
    3000022    2    5    5    0    0 -0.57842902541E+01 -0.49098031403E+02  0.17454914612E+02  0.52429106774E+02  0.24998320634E+00 0.  0.
        -13    1    4    4    0    0  0.18553907972E+01  0.29960945555E+02 -0.78998896303E+01  0.31040618788E+02  0.10500000000E+00 0.  1.
         13    1    4    4    0    0  0.15895530744E+01  0.26076718485E+02 -0.67479426967E+01  0.26982729320E+02  0.10500000000E+00 0. -1.
    3000001    1    5    5    0    0  0.61708129442E-01 -0.99974766688E+01 -0.68519971796E+00  0.10070891038E+02  0.10000000000E+01 0.  1.
        -13    1    6    6    0    0 -0.25749373527E+01 -0.21352852964E+02  0.76247958998E+01  0.22819359535E+02  0.10500000000E+00 0.  1.
         13    1    6    6    0    0 -0.32093529014E+01 -0.27745178439E+02  0.98301187118E+01  0.29609747238E+02  0.10500000000E+00 0. -1.
</event>
<event>
11    0  0.3510903E-009  0.9118800E+02  0.7816531E-02  0.1126479E+00
         25   -1    0    0    0    0  0.00000000000E+00  0.00000000000E+00  0.99999998245E-14  0.12500000000E+03  0.12500000000E+03 0.  0.
    3000001    1    3    3    0    0  0.42600832184E+01 -0.15947489128E+01 -0.34598483746E+01  0.58019034720E+01  0.10000000000E+01 0. -1.
    1000022    2    1    0    0    0  0.21783608645E+02 -0.20398165160E+02 -0.53996659553E+02  0.62500000359E+02  0.10000002725E+02 0.  0.
    3000022    2    3    3    0    0  0.17523525426E+02 -0.18803416248E+02 -0.50536811178E+02  0.56698096887E+02  0.25000120036E+00 0.  0.
    1000022    2    1    0    0    0 -0.21783608645E+02  0.20398165160E+02  0.53996659553E+02  0.62499999641E+02  0.99999982374E+01 0.  0.
    3000022    2    5    5    0    0 -0.20455137580E+01  0.16884667167E+01  0.13152124493E+02  0.13419237117E+02  0.24999950471E+00 0.  0.
        -13    1    4    4    0    0  0.88558947831E+01 -0.95277614162E+01 -0.25431125053E+02  0.28564983047E+02  0.10500000000E+00 0. -1.
         13    1    4    4    0    0  0.86676306433E+01 -0.92756548313E+01 -0.25105686125E+02  0.28133113840E+02  0.10500000000E+00 0.  1.
    3000001    1    5    5    0    0 -0.19738094887E+02  0.18709698444E+02  0.40844535060E+02  0.49080762524E+02  0.10000000000E+01 0.  1.
        -13    1    6    6    0    0 -0.11987470233E+01  0.10403824933E+01  0.76069091892E+01  0.77714530540E+01  0.10500000000E+00 0. -1.
         13    1    6    6    0    0 -0.84676673468E+00  0.64808422335E+00  0.55452153036E+01  0.56477840634E+01  0.10500000000E+00 0.  1.
</event>
<event>
11    0  0.3510903E-009  0.9118800E+02  0.7816531E-02  0.1126479E+00
         25   -1    0    0    0    0  0.00000000000E+00  0.00000000000E+00  0.99999998245E-14  0.12500000000E+03  0.12500000000E+03 0.  0.
    3000001    1    3    3    0    0  0.13865919487E+02  0.54290670619E+01  0.56313231849E+01  0.15951498149E+02  0.10000000000E+01 0.  1.
    1000022    2    1    0    0    0  0.50252808109E+02  0.33806361435E+02  0.11748837015E+02  0.62499999490E+02  0.99999984391E+01 0.  0.
    3000022    2    3    3    0    0  0.36386888622E+02  0.28377294373E+02  0.61175138302E+01  0.46548501341E+02  0.25000429814E+00 0.  0.
    1000022    2    1    0    0    0 -0.50252808109E+02 -0.33806361435E+02 -0.11748837015E+02  0.62500000510E+02  0.10000004810E+02 0.  0.
    3000022    2    5    5    0    0 -0.41806659976E+02 -0.28322415785E+02 -0.13402341629E+02  0.52245969318E+02  0.24998918064E+00 0.  0.
        -13    1    4    4    0    0  0.14007486077E+02  0.10846593384E+02  0.23533891805E+01  0.17871981420E+02  0.10500000000E+00 0.  1.
         13    1    4    4    0    0  0.22379402545E+02  0.17530700988E+02  0.37641246497E+01  0.28676519921E+02  0.10500000000E+00 0. -1.
    3000001    1    5    5    0    0 -0.84461481336E+01 -0.54839456491E+01  0.16535046135E+01  0.10254031192E+02  0.10000000000E+01 0.  1.
        -13    1    6    6    0    0 -0.18985985862E+02 -0.12833177114E+02 -0.60177072902E+01  0.23693499530E+02  0.10500000000E+00 0.  1.
         13    1    6    6    0    0 -0.22820674114E+02 -0.15489238672E+02 -0.73846343384E+01  0.28552469787E+02  0.10500000000E+00 0. -1.
</event>
<event>
11    0  0.3510903E-009  0.9118800E+02  0.7816531E-02  0.1126479E+00
         25   -1    0    0    0    0  0.00000000000E+00  0.00000000000E+00  0.99999998245E-14  0.12500000000E+03  0.12500000000E+03 0.  0.
    3000001    1    3    3    0    0  0.80285896495E+01  0.31099059658E+02 -0.31897644034E+02  0.45277692723E+02  0.10000000000E+01 0. -1.
    1000022    2    1    0    0    0  0.16799841316E+02  0.41127356421E+02 -0.42808361842E+02  0.62499999600E+02  0.99999995992E+01 0.  0.
    3000022    2    3    3    0    0  0.87712516662E+01  0.10028296763E+02 -0.10910717808E+02  0.17222306877E+02  0.24999865547E+00 0.  0.
    1000022    2    1    0    0    0 -0.16799841316E+02 -0.41127356421E+02  0.42808361842E+02  0.62500000400E+02  0.10000004599E+02 0.  0.
    3000022    2    5    5    0    0 -0.57339598560E+01 -0.53978871910E+01  0.10040927391E+02  0.12763158276E+02  0.25000911225E+00 0.  0.
        -13    1    4    4    0    0  0.36236634002E+01  0.40712438530E+01 -0.45192936201E+01  0.70810311942E+01  0.10500000000E+00 0.  1.
         13    1    4    4    0    0  0.51475882660E+01  0.59570529098E+01 -0.63914241879E+01  0.10141275683E+02  0.10500000000E+00 0. -1.
    3000001    1    5    5    0    0 -0.11065881460E+02 -0.35729469230E+02  0.32767434452E+02  0.49736842124E+02  0.10000000000E+01 0.  1.
        -13    1    6    6    0    0 -0.31784415067E+01 -0.29051128116E+01  0.55236383940E+01  0.70045540163E+01  0.10500000000E+00 0.  1.
         13    1    6    6    0    0 -0.25555183493E+01 -0.24927743795E+01  0.45172889965E+01  0.57586042596E+01  0.10500000000E+00 0. -1.
</event>
<event>
11    0  0.3510903E-009  0.9118800E+02  0.7816531E-02  0.1126479E+00
         25   -1    0    0    0    0  0.00000000000E+00  0.00000000000E+00  0.99999998245E-14  0.12500000000E+03  0.12500000000E+03 0.  0.
    3000001    1    3    3    0    0 -0.13598206332E+02 -0.43145306856E+02  0.42063419672E+02  0.61779931966E+02  0.10000000000E+01 0. -1.
    1000022    2    1    0    0    0 -0.13096775587E+02 -0.43482131565E+02  0.41761568833E+02  0.62499999259E+02  0.99999989872E+01 0.  0.
    3000022    2    3    3    0    0  0.50143074562E+00 -0.33682470809E+00 -0.30185083887E+00  0.72006729272E+00  0.24999860097E+00 0.  0.
    1000022    2    1    0    0    0  0.13096775587E+02  0.43482131565E+02 -0.41761568833E+02  0.62500000741E+02  0.10000008256E+02 0.  0.
    3000022    2    5    5    0    0  0.82841362429E+00  0.13751328905E+02 -0.17088072176E+02  0.21951082515E+02  0.24999423332E+00 0.  0.
        -13    1    4    4    0    0  0.34469208039E+00 -0.27806487323E+00 -0.22860859420E+00  0.50933249783E+00  0.10500000000E+00 0.  1.
         13    1    4    4    0    0  0.15673866523E+00 -0.58759834860E-01 -0.73242244672E-01  0.21073479489E+00  0.10500000000E+00 0. -1.
    3000001    1    5    5    0    0  0.12268361963E+02  0.29730802660E+02 -0.24673496658E+02  0.40548918227E+02  0.10000000000E+01 0. -1.
        -13    1    6    6    0    0  0.25798503543E+00  0.52806643006E+01 -0.65385511459E+01  0.84092596477E+01  0.10500000000E+00 0. -1.
         13    1    6    6    0    0  0.57042858886E+00  0.84706646039E+01 -0.10549521030E+02  0.13541822867E+02  0.10500000000E+00 0.  1.
</event>
<event>
11    0  0.3510903E-009  0.9118800E+02  0.7816531E-02  0.1126479E+00
         25   -1    0    0    0    0  0.00000000000E+00  0.00000000000E+00  0.99999998245E-14  0.12500000000E+03  0.12500000000E+03 0.  0.
    3000001    1    3    3    0    0 -0.19745765630E+02  0.29107544293E+02  0.28481123986E+02  0.45269402675E+02  0.10000000000E+01 0.  1.
    1000022    2    1    0    0    0 -0.26908514698E+02  0.35236168821E+02  0.42902148700E+02  0.62499999530E+02  0.99999910865E+01 0.  0.
    3000022    2    3    3    0    0 -0.71627490679E+01  0.61286245283E+01  0.14421024714E+02  0.17230596855E+02  0.25000269164E+00 0.  0.
    1000022    2    1    0    0    0  0.26908514698E+02 -0.35236168821E+02 -0.42902148700E+02  0.62500000470E+02  0.99999969641E+01 0.  0.
    3000022    2    5    5    0    0 -0.64755573664E+00 -0.12685854912E+01 -0.27977733354E+01  0.31493925674E+01  0.25000065348E+00 0.  0.
        -13    1    4    4    0    0 -0.32714946219E+01  0.28548112197E+01  0.67375793623E+01  0.80161477547E+01  0.10500000000E+00 0.  1.
         13    1    4    4    0    0 -0.38912544460E+01  0.32738133087E+01  0.76834453518E+01  0.92144491001E+01  0.10500000000E+00 0. -1.
    3000001    1    5    5    0    0  0.27556070435E+02 -0.33967583330E+02 -0.40104375364E+02  0.59350607903E+02  0.10000000000E+01 0. -1.
        -13    1    6    6    0    0 -0.47431015893E+00 -0.94629857169E+00 -0.21261496608E+01  0.23773911108E+01  0.10500000000E+00 0.  1.
         13    1    6    6    0    0 -0.17324557771E+00 -0.32228691953E+00 -0.67162367467E+00  0.77200145665E+00  0.10500000000E+00 0. -1.
</event>
<event>
11    0  0.3510903E-009  0.9118800E+02  0.7816531E-02  0.1126479E+00
         25   -1    0    0    0    0  0.00000000000E+00  0.00000000000E+00  0.99999998245E-14  0.12500000000E+03  0.12500000000E+03 0.  0.
    3000001    1    3    3    0    0 -0.17123257886E+01  0.27290053995E+01  0.57557364931E+01  0.66714340778E+01  0.10000000000E+01 0. -1.
    1000022    2    1    0    0    0 -0.28012169213E+02  0.42048664720E+02  0.35404494012E+02  0.62499999270E+02  0.99999941838E+01 0.  0.
    3000022    2    3    3    0    0 -0.26299843425E+02  0.39319659321E+02  0.29648757519E+02  0.55828565192E+02  0.24999140962E+00 0.  0.
    1000022    2    1    0    0    0  0.28012169213E+02 -0.42048664720E+02 -0.35404494012E+02  0.62500000730E+02  0.10000003310E+02 0.  0.
    3000022    2    5    5    0    0  0.37883946462E+01 -0.10377179013E+02 -0.11740521637E+02  0.16122658744E+02  0.24999675508E+00 0.  0.
        -13    1    4    4    0    0 -0.11001389275E+02  0.16351777316E+02  0.12395301140E+02  0.23282304498E+02  0.10500000000E+00 0. -1.
         13    1    4    4    0    0 -0.15298454150E+02  0.22967882005E+02  0.17253456379E+02  0.32546260694E+02  0.10500000000E+00 0.  1.
    3000001    1    5    5    0    0  0.24223774567E+02 -0.31671485707E+02 -0.23663972375E+02  0.46377341987E+02  0.10000000000E+01 0. -1.
        -13    1    6    6    0    0  0.23843735169E+01 -0.65365053254E+01 -0.73069351896E+01  0.10090265894E+02  0.10500000000E+00 0. -1.
         13    1    6    6    0    0  0.14040211293E+01 -0.38406736876E+01 -0.44335864479E+01  0.60323928500E+01  0.10500000000E+00 0.  1.
</event>
<event>
11    0  0.3510903E-009  0.9118800E+02  0.7816531E-02  0.1126479E+00
         25   -1    0    0    0    0  0.00000000000E+00  0.00000000000E+00  0.99999998245E-14  0.12500000000E+03  0.12500000000E+03 0.  0.
    3000001    1    3    3    0    0  0.31831554185E+01 -0.23090802085E+01 -0.93534553048E+00  0.41640366339E+01  0.10000000000E+01 0. -1.
    1000022    2    1    0    0    0  0.55171774717E+02 -0.37125797961E+01 -0.27359497361E+02  0.62500000256E+02  0.99999980986E+01 0.  0.
    3000022    2    3    3    0    0  0.51988619299E+02 -0.14034995876E+01 -0.26424151830E+02  0.58335963622E+02  0.25000814989E+00 0.  0.
    1000022    2    1    0    0    0 -0.55171774717E+02  0.37125797961E+01  0.27359497361E+02  0.62499999744E+02  0.99999948994E+01 0.  0.
    3000022    2    5    5    0    0 -0.10655159396E+02  0.43580109157E+01  0.38392475890E+01  0.12137833684E+02  0.25000716676E+00 0.  0.
        -13    1    4    4    0    0  0.13522053301E+02 -0.39674667272E+00 -0.68733678498E+01  0.15174239487E+02  0.10500000000E+00 0.  1.
         13    1    4    4    0    0  0.38466565997E+02 -0.10067529149E+01 -0.19550783981E+02  0.43161724135E+02  0.10500000000E+00 0. -1.
    3000001    1    5    5    0    0 -0.44516615321E+02 -0.64543111956E+00  0.23520249772E+02  0.50362166060E+02  0.10000000000E+01 0. -1.
        -13    1    6    6    0    0 -0.67628617242E+01  0.28292735210E+01  0.24417532436E+01  0.77275009712E+01  0.10500000000E+00 0.  1.
         13    1    6    6    0    0 -0.38922976721E+01  0.15287373948E+01  0.13974943454E+01  0.44103327126E+01  0.10500000000E+00 0. -1.
</event>
<event>
11    0  0.3510903E-009  0.9118800E+02  0.7816531E-02  0.1126479E+00
         25   -1    0    0    0    0  0.00000000000E+00  0.00000000000E+00  0.99999998245E-14  0.12500000000E+03  0.12500000000E+03 0.  0.
    3000001    1    3    3    0    0  0.10294963936E+01  0.87687482124E+01  0.37118065253E+01  0.96295542845E+01  0.10000000000E+01 0.  1.
    1000022    2    1    0    0    0  0.14107688053E+02  0.43851473988E+02  0.41039876685E+02  0.62500000258E+02  0.99999960432E+01 0.  0.
    3000022    2    3    3    0    0  0.13078191659E+02  0.35082725775E+02  0.37328070160E+02  0.52870445974E+02  0.24998141585E+00 0.  0.
    1000022    2    1    0    0    0 -0.14107688053E+02 -0.43851473988E+02 -0.41039876685E+02  0.62499999742E+02  0.99999928160E+01 0.  0.
    3000022    2    5    5    0    0 -0.12386793965E+02 -0.28948537383E+02 -0.22876480913E+02  0.38921027290E+02  0.25001004165E+00 0.  0.
        -13    1    4    4    0    0  0.48664086373E+01  0.13199841531E+02  0.13980229540E+02  0.19833698406E+02  0.10500000000E+00 0.  1.
         13    1    4    4    0    0  0.82117830219E+01  0.21882884245E+02  0.23347840619E+02  0.33036747568E+02  0.10500000000E+00 0. -1.
    3000001    1    5    5    0    0 -0.17208940882E+01 -0.14902936605E+02 -0.18163395772E+02  0.23578972452E+02  0.10000000000E+01 0. -1.
        -13    1    6    6    0    0 -0.43641515552E+01 -0.10177575073E+02 -0.79762399032E+01  0.13647720731E+02  0.10500000000E+00 0. -1.
         13    1    6    6    0    0 -0.80226424094E+01 -0.18770962310E+02 -0.14900241010E+02  0.25273306559E+02  0.10500000000E+00 0.  1.
</event>
<event>
11    0  0.3510903E-009  0.9118800E+02  0.7816531E-02  0.1126479E+00
         25   -1    0    0    0    0  0.00000000000E+00  0.00000000000E+00  0.99999998245E-14  0.12500000000E+03  0.12500000000E+03 0.  0.
    3000001    1    3    3    0    0  0.37871746604E+01  0.16484491664E+01  0.41878104722E+02  0.42093179158E+02  0.10000000000E+01 0. -1.
    1000022    2    1    0    0    0  0.94798402715E+01 -0.31297471482E+01  0.60881745078E+02  0.62500002746E+02  0.10000038535E+02 0.  0.
    3000022    2    3    3    0    0  0.56926656111E+01 -0.47781963146E+01  0.19003640356E+02  0.20406823588E+02  0.25000072238E+00 0.  0.
    1000022    2    1    0    0    0 -0.94798402715E+01  0.31297471482E+01 -0.60881745078E+02  0.62499997254E+02  0.10000004209E+02 0.  0.
    3000022    2    5    5    0    0 -0.61900274627E+01 -0.21467000542E+01 -0.43921816628E+02  0.44408481661E+02  0.25001290402E+00 0.  0.
        -13    1    4    4    0    0  0.42090008082E+01 -0.34903911164E+01  0.13999393175E+02  0.15029722293E+02  0.10500000000E+00 0. -1.
         13    1    4    4    0    0  0.14836648028E+01 -0.12878051982E+01  0.50042471813E+01  0.53771012941E+01  0.10500000000E+00 0.  1.
    3000001    1    5    5    0    0 -0.32898128087E+01  0.52764472024E+01 -0.16959928451E+02  0.18091515593E+02  0.10000000000E+01 0. -1.
        -13    1    6    6    0    0 -0.40661486642E+01 -0.13846561228E+01 -0.28446383442E+02  0.28769056180E+02  0.10500000000E+00 0. -1.
         13    1    6    6    0    0 -0.21238787985E+01 -0.76204393147E+00 -0.15475433186E+02  0.15639425481E+02  0.10500000000E+00 0.  1.
</event>
<event>
11    0  0.3510903E-009  0.9118800E+02  0.7816531E-02  0.1126479E+00
         25   -1    0    0    0    0  0.00000000000E+00  0.00000000000E+00  0.99999998245E-14  0.12500000000E+03  0.12500000000E+03 0.  0.
    3000001    1    3    3    0    0  0.24468653754E+02  0.93515882459E+01  0.15190649844E+02  0.30297245121E+02  0.10000000000E+01 0.  1.
    1000022    2    1    0    0    0  0.51039808409E+02  0.93180303164E+01  0.33382064044E+02  0.62500000212E+02  0.10000004758E+02 0.  0.
    3000022    2    3    3    0    0  0.26571154655E+02 -0.33557929481E-01  0.18191414200E+02  0.32202755090E+02  0.24999791584E+00 0.  0.
    1000022    2    1    0    0    0 -0.51039808409E+02 -0.93180303164E+01 -0.33382064044E+02  0.62499999788E+02  0.10000002113E+02 0.  0.
    3000022    2    5    5    0    0 -0.48985401156E+02 -0.79953678964E+01 -0.33459186659E+02  0.59858793069E+02  0.25000304327E+00 0.  0.
        -13    1    4    4    0    0  0.19763551905E+02 -0.51698423045E-01  0.13546171703E+02  0.23960602026E+02  0.10500000000E+00 0.  1.
         13    1    4    4    0    0  0.68076027502E+01  0.18140493564E-01  0.46452424975E+01  0.82421530647E+01  0.10500000000E+00 0. -1.
    3000001    1    5    5    0    0 -0.20544072531E+01 -0.13226624201E+01  0.77122614779E-01  0.26412067198E+01  0.10000000000E+01 0.  1.
        -13    1    6    6    0    0 -0.16038062726E+02 -0.25686050481E+01 -0.10973184230E+02  0.19602014821E+02  0.10500000000E+00 0.  1.
         13    1    6    6    0    0 -0.32947338431E+02 -0.54267628483E+01 -0.22486002429E+02  0.40256778248E+02  0.10500000000E+00 0. -1.
</event>
<event>
11    0  0.3510903E-009  0.9118800E+02  0.7816531E-02  0.1126479E+00
         25   -1    0    0    0    0  0.00000000000E+00  0.00000000000E+00  0.99999998245E-14  0.12500000000E+03  0.12500000000E+03 0.  0.
    3000001    1    3    3    0    0  0.70180817868E+01  0.49048873589E+01 -0.11379030797E+02  0.14275634271E+02  0.10000000000E+01 0.  1.
    1000022    2    1    0    0    0  0.37863391775E+02  0.50447571118E+01 -0.48447538563E+02  0.62500000268E+02  0.10000001479E+02 0.  0.
    3000022    2    3    3    0    0  0.30845309989E+02  0.13986975291E+00 -0.37068507767E+02  0.48224365997E+02  0.24999181150E+00 0.  0.
    1000022    2    1    0    0    0 -0.37863391775E+02 -0.50447571118E+01  0.48447538563E+02  0.62499999732E+02  0.99999981303E+01 0.  0.
    3000022    2    5    5    0    0 -0.15685873783E+02 -0.70153944080E+01  0.20302564978E+02  0.26599230189E+02  0.25001386394E+00 0.  0.
        -13    1    4    4    0    0  0.12554900546E+02 -0.67239765589E-02 -0.15091884142E+02  0.19631647024E+02  0.10500000000E+00 0. -1.
         13    1    4    4    0    0  0.18290409442E+02  0.14659372946E+00 -0.21976623625E+02  0.28592718973E+02  0.10500000000E+00 0.  1.
    3000001    1    5    5    0    0 -0.22177517993E+02  0.19706372962E+01  0.28144973585E+02  0.35900769543E+02  0.10000000000E+01 0.  1.
        -13    1    6    6    0    0 -0.59646261151E+01 -0.26906542252E+01  0.78203012102E+01  0.10197280072E+02  0.10500000000E+00 0. -1.
         13    1    6    6    0    0 -0.97212476679E+01 -0.43247401827E+01  0.12482263768E+02  0.16401950117E+02  0.10500000000E+00 0.  1.
</event>
<event>
11    0  0.3510903E-009  0.9118800E+02  0.7816531E-02  0.1126479E+00
         25   -1    0    0    0    0  0.00000000000E+00  0.00000000000E+00  0.99999998245E-14  0.12500000000E+03  0.12500000000E+03 0.  0.
    3000001    1    3    3    0    0  0.12451982422E+02 -0.35300747979E+01  0.37235087415E+01  0.13504732936E+02  0.10000000000E+01 0.  1.
    1000022    2    1    0    0    0  0.61269786097E+02 -0.70650132258E+01  0.15326276050E+01  0.62500000284E+02  0.99999993917E+01 0.  0.
    3000022    2    3    3    0    0  0.48817803675E+02 -0.35349384279E+01 -0.21908811365E+01  0.48995267348E+02  0.25003401745E+00 0.  0.
    1000022    2    1    0    0    0 -0.61269786097E+02  0.70650132258E+01 -0.15326276050E+01  0.62499999716E+02  0.99999958477E+01 0.  0.
    3000022    2    5    5    0    0 -0.45838903276E+02  0.88555324717E+01 -0.34569514649E+01  0.46814939114E+02  0.25000374176E+00 0.  0.
        -13    1    4    4    0    0  0.19569701066E+02 -0.14763074426E+01 -0.90081954410E+00  0.19646251152E+02  0.10500000000E+00 0. -1.
         13    1    4    4    0    0  0.29248102609E+02 -0.20586309853E+01 -0.12900615924E+01  0.29349016196E+02  0.10500000000E+00 0.  1.
    3000001    1    5    5    0    0 -0.15430882821E+02 -0.17905192459E+01  0.19243238599E+01  0.15685060603E+02  0.10000000000E+01 0.  1.
        -13    1    6    6    0    0 -0.13002677593E+02  0.24819290241E+01 -0.10086036477E+01  0.13276215672E+02  0.10500000000E+00 0.  1.
         13    1    6    6    0    0 -0.32836225684E+02  0.63736034476E+01 -0.24483478172E+01  0.33538723442E+02  0.10500000000E+00 0. -1.
</event>
<event>
11    0  0.3510903E-009  0.9118800E+02  0.7816531E-02  0.1126479E+00
         25   -1    0    0    0    0  0.00000000000E+00  0.00000000000E+00  0.99999998245E-14  0.12500000000E+03  0.12500000000E+03 0.  0.
    3000001    1    3    3    0    0 -0.13582077873E+02 -0.39470284946E+01 -0.55164068697E+02  0.56957232627E+02  0.10000000000E+01 0. -1.
    1000022    2    1    0    0    0 -0.12434335684E+02 -0.24780420889E+01 -0.60377947540E+02  0.62499999917E+02  0.10000002202E+02 0.  0.
    3000022    2    3    3    0    0  0.11477421899E+01  0.14689864057E+01 -0.52138788427E+01  0.55427672902E+01  0.25000690602E+00 0.  0.
    1000022    2    1    0    0    0  0.12434335684E+02  0.24780420889E+01  0.60377947540E+02  0.62500000083E+02  0.10000003239E+02 0.  0.
    3000022    2    5    5    0    0  0.36658705921E+01  0.27639551840E+00  0.41864219917E+01  0.55770629566E+01  0.25000089737E+00 0.  0.
        -13    1    4    4    0    0  0.47161373058E+00  0.70440068557E+00 -0.24420628345E+01  0.25871404532E+01  0.10500000000E+00 0.  1.
         13    1    4    4    0    0  0.67612845930E+00  0.76458572012E+00 -0.27718160081E+01  0.29556268371E+01  0.10500000000E+00 0. -1.
    3000001    1    5    5    0    0  0.87684650915E+01  0.22016465705E+01  0.56191525548E+02  0.56922937126E+02  0.10000000000E+01 0. -1.
        -13    1    6    6    0    0  0.12586542543E+01  0.10534200159E+00  0.15237629899E+01  0.19819652163E+01  0.10500000000E+00 0. -1.
         13    1    6    6    0    0  0.24072163378E+01  0.17105351681E+00  0.26626590019E+01  0.35950977404E+01  0.10500000000E+00 0.  1.
</event>
<event>
11    0  0.3510903E-009  0.9118800E+02  0.7816531E-02  0.1126479E+00
         25   -1    0    0    0    0  0.00000000000E+00  0.00000000000E+00  0.99999998245E-14  0.12500000000E+03  0.12500000000E+03 0.  0.
    3000001    1    3    3    0    0 -0.36545014427E+02 -0.33530320094E+02 -0.82147396902E+01  0.50282227409E+02  0.10000000000E+01 0.  1.
    1000022    2    1    0    0    0 -0.44311406832E+02 -0.42569210897E+02 -0.55327490549E+01  0.62500000328E+02  0.10000011853E+02 0.  0.
    3000022    2    3    3    0    0 -0.77663924058E+01 -0.90388908030E+01  0.26819906353E+01  0.12217772919E+02  0.25000676971E+00 0.  0.
    1000022    2    1    0    0    0  0.44311406832E+02  0.42569210897E+02  0.55327490549E+01  0.62499999672E+02  0.10000007752E+02 0.  0.
    3000022    2    5    5    0    0  0.28442067266E+02  0.20615021143E+02  0.23614112328E+01  0.35207514083E+02  0.24999567940E+00 0.  0.
        -13    1    4    4    0    0 -0.29995638866E+01 -0.34108697733E+01  0.99007509443E+00  0.46500204099E+01  0.10500000000E+00 0. -1.
         13    1    4    4    0    0 -0.47668285192E+01 -0.56280210296E+01  0.16919155409E+01  0.75677525091E+01  0.10500000000E+00 0.  1.
    3000001    1    5    5    0    0  0.15869339567E+02  0.21954189754E+02  0.31713378220E+01  0.27292485589E+02  0.10000000000E+01 0.  1.
        -13    1    6    6    0    0  0.10780438284E+02  0.77959181356E+01  0.83530229855E+00  0.13330526775E+02  0.10500000000E+00 0.  1.
         13    1    6    6    0    0  0.17661628981E+02  0.12819103008E+02  0.15261089343E+01  0.21876987308E+02  0.10500000000E+00 0. -1.
</event>
<event>
11    0  0.3510903E-009  0.9118800E+02  0.7816531E-02  0.1126479E+00
         25   -1    0    0    0    0  0.00000000000E+00  0.00000000000E+00  0.99999998245E-14  0.12500000000E+03  0.12500000000E+03 0.  0.
    3000001    1    3    3    0    0 -0.79798101898E+01  0.15186360850E+02  0.17597209596E+02  0.24596030413E+02  0.10000000000E+01 0.  1.
    1000022    2    1    0    0    0 -0.27392271901E+02  0.28912534637E+02  0.47116646074E+02  0.62500003090E+02  0.10000041495E+02 0.  0.
    3000022    2    3    3    0    0 -0.19412461711E+02  0.13726173787E+02  0.29519436478E+02  0.37903972676E+02  0.24999629382E+00 0.  0.
    1000022    2    1    0    0    0  0.27392271901E+02 -0.28912534637E+02 -0.47116646074E+02  0.62499996910E+02  0.10000002876E+02 0.  0.
    3000022    2    5    5    0    0  0.16662170037E+02 -0.16711122277E+02 -0.20302374763E+02  0.31130988390E+02  0.24999809981E+00 0.  0.
        -13    1    4    4    0    0 -0.12634802795E+02  0.88890993139E+01  0.19249315732E+02  0.24682007807E+02  0.10500000000E+00 0. -1.
         13    1    4    4    0    0 -0.67776589160E+01  0.48370744733E+01  0.10270120747E+02  0.13221964869E+02  0.10500000000E+00 0.  1.
    3000001    1    5    5    0    0  0.10730101864E+02 -0.12201412360E+02 -0.26814271311E+02  0.31369008520E+02  0.10000000000E+01 0. -1.
        -13    1    6    6    0    0  0.10985104164E+02 -0.11038606118E+02 -0.13328089687E+02  0.20498105723E+02  0.10500000000E+00 0. -1.
         13    1    6    6    0    0  0.56770658728E+01 -0.56725161587E+01 -0.69742850761E+01  0.10632882667E+02  0.10500000000E+00 0.  1.
</event>
<event>
11    0  0.3510903E-009  0.9118800E+02  0.7816531E-02  0.1126479E+00
         25   -1    0    0    0    0  0.00000000000E+00  0.00000000000E+00  0.99999998245E-14  0.12500000000E+03  0.12500000000E+03 0.  0.
    3000001    1    3    3    0    0 -0.31821686808E+01  0.25938958271E+02 -0.34475449631E+01  0.26378804370E+02  0.10000000000E+01 0. -1.
    1000022    2    1    0    0    0 -0.84444594116E+01  0.58030667873E+02 -0.19167234014E+02  0.62499998331E+02  0.99999811549E+01 0.  0.
    3000022    2    3    3    0    0 -0.52622907308E+01  0.32091709602E+02 -0.15719689051E+02  0.36121193962E+02  0.25000086589E+00 0.  0.
    1000022    2    1    0    0    0  0.84444594116E+01 -0.58030667873E+02  0.19167234014E+02  0.62500001669E+02  0.10000002013E+02 0.  0.
    3000022    2    5    5    0    0  0.32274714300E+01 -0.16613350411E+02  0.10296373145E+02  0.19811556840E+02  0.25000152030E+00 0.  0.
        -13    1    4    4    0    0 -0.22332474792E+01  0.13471021178E+02 -0.65337166361E+01  0.15137908838E+02  0.10500000000E+00 0. -1.
         13    1    4    4    0    0 -0.30290432516E+01  0.18620688424E+02 -0.91859724147E+01  0.20983285124E+02  0.10500000000E+00 0.  1.
    3000001    1    5    5    0    0  0.52169879816E+01 -0.41417317462E+02  0.88708608691E+01  0.42688444829E+02  0.10000000000E+01 0.  1.
        -13    1    6    6    0    0  0.16184959199E+01 -0.86839766092E+01  0.53817425745E+01  0.10344329699E+02  0.10500000000E+00 0.  1.
         13    1    6    6    0    0  0.16089755101E+01 -0.79293738019E+01  0.49146305703E+01  0.94672271403E+01  0.10500000000E+00 0. -1.
</event>
<event>
11    0  0.3510903E-009  0.9118800E+02  0.7816531E-02  0.1126479E+00
         25   -1    0    0    0    0  0.00000000000E+00  0.00000000000E+00  0.99999998245E-14  0.12500000000E+03  0.12500000000E+03 0.  0.
    3000001    1    3    3    0    0  0.28704698538E+02  0.32031304233E+02 -0.17368365156E+02  0.46396382157E+02  0.10000000000E+01 0. -1.
    1000022    2    1    0    0    0  0.33998421656E+02  0.43943233193E+02 -0.26820692119E+02  0.62500001003E+02  0.10000009053E+02 0.  0.
    3000022    2    3    3    0    0  0.52937231180E+01  0.11911928960E+02 -0.94523269637E+01  0.16103618847E+02  0.24999785369E+00 0.  0.
    1000022    2    1    0    0    0 -0.33998421656E+02 -0.43943233193E+02  0.26820692119E+02  0.62499998997E+02  0.99999965109E+01 0.  0.
    3000022    2    5    5    0    0 -0.33027306136E+02 -0.38684424591E+02  0.25507798035E+02  0.56903408593E+02  0.24998476190E+00 0.  0.
        -13    1    4    4    0    0  0.37832407001E+01  0.86049584578E+01 -0.68306174249E+01  0.11620093789E+02  0.10500000000E+00 0.  1.
         13    1    4    4    0    0  0.15104824179E+01  0.33069705022E+01 -0.26217095388E+01  0.44835250577E+01  0.10500000000E+00 0. -1.
    3000001    1    5    5    0    0 -0.97111552039E+00 -0.52588086019E+01  0.13128940842E+01  0.55965904032E+01  0.10000000000E+01 0. -1.
        -13    1    6    6    0    0 -0.11096583518E+02 -0.13076262574E+02  0.85806716640E+01  0.19177115526E+02  0.10500000000E+00 0.  1.
         13    1    6    6    0    0 -0.21930722618E+02 -0.25608162017E+02  0.16927126371E+02  0.37726293068E+02  0.10500000000E+00 0. -1.
</event>
<event>
11    0  0.3510903E-009  0.9118800E+02  0.7816531E-02  0.1126479E+00
         25   -1    0    0    0    0  0.00000000000E+00  0.00000000000E+00  0.99999998245E-14  0.12500000000E+03  0.12500000000E+03 0.  0.
    3000001    1    3    3    0    0 -0.12447229249E+02 -0.85602974793E+01 -0.34180000632E+02  0.37382946006E+02  0.10000000000E+01 0.  1.
    1000022    2    1    0    0    0 -0.21032934520E+02 -0.62100601605E+01 -0.57665431629E+02  0.62499990392E+02  0.99998806134E+01 0.  0.
    3000022    2    3    3    0    0 -0.85857052710E+01  0.23502373188E+01 -0.23485430997E+02  0.25117044386E+02  0.24999816833E+00 0.  0.
    1000022    2    1    0    0    0  0.21032934520E+02  0.62100601605E+01  0.57665431629E+02  0.62500009608E+02  0.10000000718E+02 0.  0.
    3000022    2    5    5    0    0  0.50225637626E+01 -0.64189799239E+00  0.24584470570E+02  0.25101730411E+02  0.24999330080E+00 0.  0.
        -13    1    4    4    0    0 -0.40680192360E+01  0.11209729330E+01 -0.10943990938E+02  0.11729762294E+02  0.10500000000E+00 0.  1.
         13    1    4    4    0    0 -0.45176860350E+01  0.12292643857E+01 -0.12541440060E+02  0.13387282092E+02  0.10500000000E+00 0. -1.
    3000001    1    5    5    0    0  0.16010370757E+02  0.68519581529E+01  0.33080961059E+02  0.37398279197E+02  0.10000000000E+01 0.  1.
        -13    1    6    6    0    0  0.38171718520E+01 -0.47658822521E+00  0.18743059126E+02  0.19134033231E+02  0.10500000000E+00 0.  1.
         13    1    6    6    0    0  0.12053919106E+01 -0.16530976718E+00  0.58414114443E+01  0.59676971806E+01  0.10500000000E+00 0. -1.
</event>
<event>
11    0  0.3510903E-009  0.9118800E+02  0.7816531E-02  0.1126479E+00
         25   -1    0    0    0    0  0.00000000000E+00  0.00000000000E+00  0.99999998245E-14  0.12500000000E+03  0.12500000000E+03 0.  0.
    3000001    1    3    3    0    0 -0.35965154205E+02  0.38806406364E+02  0.25283701808E+02  0.58648913621E+02  0.10000000000E+01 0. -1.
    1000022    2    1    0    0    0 -0.39416406369E+02  0.40438903515E+02  0.24845375692E+02  0.62499994407E+02  0.99999299504E+01 0.  0.
    3000022    2    3    3    0    0 -0.34512521646E+01  0.16324971513E+01 -0.43832611577E+00  0.38510807858E+01  0.25000996341E+00 0.  0.
    1000022    2    1    0    0    0  0.39416406369E+02 -0.40438903515E+02 -0.24845375692E+02  0.62500005593E+02  0.99999998651E+01 0.  0.
    3000022    2    5    5    0    0  0.31352135674E+02 -0.36977771103E+02 -0.20201908298E+02  0.52521343916E+02  0.25000166960E+00 0.  0.
        -13    1    4    4    0    0 -0.25836358230E+01  0.12458898487E+01 -0.34339099094E+00  0.28907365763E+01  0.10500000000E+00 0.  1.
         13    1    4    4    0    0 -0.86761634164E+00  0.38660730263E+00 -0.94935124831E-01  0.96034420947E+00  0.10500000000E+00 0. -1.
    3000001    1    5    5    0    0  0.80642706955E+01 -0.34611324122E+01 -0.46434673942E+01  0.99786616771E+01  0.10000000000E+01 0.  1.
        -13    1    6    6    0    0  0.20230394838E+02 -0.23919499188E+02 -0.13100277394E+02  0.33956436937E+02  0.10500000000E+00 0. -1.
         13    1    6    6    0    0  0.11121740836E+02 -0.13058271915E+02 -0.71016309039E+01  0.18564906979E+02  0.10500000000E+00 0.  1.
</event>
<event>
11    0  0.3510903E-009  0.9118800E+02  0.7816531E-02  0.1126479E+00
         25   -1    0    0    0    0  0.00000000000E+00  0.00000000000E+00  0.99999998245E-14  0.12500000000E+03  0.12500000000E+03 0.  0.
    3000001    1    3    3    0    0  0.27034211824E+02  0.65357206584E+00 -0.46758348202E+02  0.54024243558E+02  0.10000000000E+01 0. -1.
    1000022    2    1    0    0    0  0.29968734135E+02 -0.29406548267E+01 -0.53846795312E+02  0.62500001466E+02  0.10000017068E+02 0.  0.
    3000022    2    3    3    0    0  0.29345223106E+01 -0.35942268925E+01 -0.70884471103E+01  0.84757579081E+01  0.25000306895E+00 0.  0.
    1000022    2    1    0    0    0 -0.29968734135E+02  0.29406548267E+01  0.53846795312E+02  0.62499998534E+02  0.99999987469E+01 0.  0.
    3000022    2    5    5    0    0 -0.10778273939E+02 -0.35634398152E+01  0.21590257725E+02  0.24394077384E+02  0.24998067253E+00 0.  0.
        -13    1    4    4    0    0  0.18128362159E+01 -0.21242724488E+01 -0.42336699217E+01  0.50728586210E+01  0.10500000000E+00 0.  1.
         13    1    4    4    0    0  0.11216860947E+01 -0.14699544438E+01 -0.28547771886E+01  0.34028992872E+01  0.10500000000E+00 0. -1.
    3000001    1    5    5    0    0 -0.19190460196E+02  0.65040946419E+01  0.32256537587E+02  0.38105921151E+02  0.10000000000E+01 0. -1.
        -13    1    6    6    0    0 -0.56377661326E+01 -0.18927648491E+01  0.11442776955E+02  0.12896322545E+02  0.10500000000E+00 0.  1.
         13    1    6    6    0    0 -0.51405078062E+01 -0.16706749661E+01  0.10147480771E+02  0.11497754839E+02  0.10500000000E+00 0. -1.
</event>
<event>
11    0  0.3510903E-009  0.9118800E+02  0.7816531E-02  0.1126479E+00
         25   -1    0    0    0    0  0.00000000000E+00  0.00000000000E+00  0.99999998245E-14  0.12500000000E+03  0.12500000000E+03 0.  0.
    3000001    1    3    3    0    0  0.16140566018E+00  0.19821268638E+02  0.12700396500E+01  0.19887728451E+02  0.10000000000E+01 0.  1.
    1000022    2    1    0    0    0 -0.85806802992E+01  0.59288197710E+02  0.14748900192E+02  0.62499988557E+02  0.10000002532E+02 0.  0.
    3000022    2    3    3    0    0 -0.87420859594E+01  0.39466929072E+02  0.13478860542E+02  0.42612260107E+02  0.24994512018E+00 0.  0.
    1000022    2    1    0    0    0  0.85806802992E+01 -0.59288197710E+02 -0.14748900192E+02  0.62500011443E+02  0.10000145566E+02 0.  0.
    3000022    2    5    5    0    0 -0.65130606896E+00 -0.12214019136E+02 -0.63686722763E+01  0.13792352079E+02  0.25005252371E+00 0.  0.
        -13    1    4    4    0    0 -0.59666405658E+01  0.27156610471E+02  0.92831233982E+01  0.29313302389E+02  0.10500000000E+00 0. -1.
         13    1    4    4    0    0 -0.27754453936E+01  0.12310318601E+02  0.41957371441E+01  0.13298957717E+02  0.10500000000E+00 0.  1.
    3000001    1    5    5    0    0  0.92319863682E+01 -0.47074178575E+02 -0.83802279159E+01  0.48707659364E+02  0.10000000000E+01 0. -1.
        -13    1    6    6    0    0 -0.31207885619E+00 -0.68922885595E+01 -0.35516886960E+01  0.77605768080E+01  0.10500000000E+00 0. -1.
         13    1    6    6    0    0 -0.33922721276E+00 -0.53217305762E+01 -0.28169835803E+01  0.60317752709E+01  0.10500000000E+00 0.  1.
</event>
<event>
11    0  0.3510903E-009  0.9118800E+02  0.7816531E-02  0.1126479E+00
         25   -1    0    0    0    0  0.00000000000E+00  0.00000000000E+00  0.99999998245E-14  0.12500000000E+03  0.12500000000E+03 0.  0.
    3000001    1    3    3    0    0  0.38202239205E+01 -0.89043554796E+01 -0.91103623088E+00  0.97832328155E+01  0.10000000000E+01 0.  1.
    1000022    2    1    0    0    0  0.15864031252E+02 -0.53503516661E+02 -0.26305061865E+02  0.62499999700E+02  0.99999950034E+01 0.  0.
    3000022    2    3    3    0    0  0.12043807332E+02 -0.44599161182E+02 -0.25394025634E+02  0.52716766884E+02  0.24999934538E+00 0.  0.
    1000022    2    1    0    0    0 -0.15864031252E+02  0.53503516661E+02  0.26305061865E+02  0.62500000300E+02  0.99999987528E+01 0.  0.
    3000022    2    5    5    0    0 -0.97779461065E+01  0.45766390838E+02  0.21652377255E+02  0.51566061280E+02  0.24994950609E+00 0.  0.
        -13    1    4    4    0    0  0.42410225093E+01 -0.15645817461E+02 -0.89730928319E+01  0.18528499559E+02  0.10500000000E+00 0.  1.
         13    1    4    4    0    0  0.78027848223E+01 -0.28953343721E+02 -0.16420932802E+02  0.34188267326E+02  0.10500000000E+00 0. -1.
    3000001    1    5    5    0    0 -0.60860851456E+01  0.77371258233E+01  0.46526846098E+01  0.10933939020E+02  0.10000000000E+01 0. -1.
        -13    1    6    6    0    0 -0.61913784860E+01  0.28700750157E+02  0.13599586508E+02  0.32357781218E+02  0.10500000000E+00 0.  1.
         13    1    6    6    0    0 -0.35865676205E+01  0.17065640681E+02  0.80527907474E+01  0.19208280063E+02  0.10500000000E+00 0. -1.
</event>
<event>
11    0  0.3510903E-009  0.9118800E+02  0.7816531E-02  0.1126479E+00
         25   -1    0    0    0    0  0.00000000000E+00  0.00000000000E+00  0.99999998245E-14  0.12500000000E+03  0.12500000000E+03 0.  0.
    3000001    1    3    3    0    0  0.23931484492E+02 -0.33945902453E+01 -0.17021578956E+02  0.29579948328E+02  0.10000000000E+01 0.  1.
    1000022    2    1    0    0    0  0.47729046165E+02 -0.17174724844E+02 -0.35117191271E+02  0.62499998930E+02  0.99999861154E+01 0.  0.
    3000022    2    3    3    0    0  0.23797561673E+02 -0.13780134598E+02 -0.18095612314E+02  0.32920050603E+02  0.24999102646E+00 0.  0.
    1000022    2    1    0    0    0 -0.47729046165E+02  0.17174724844E+02  0.35117191271E+02  0.62500001070E+02  0.99999994851E+01 0.  0.
    3000022    2    5    5    0    0 -0.15921040359E+02  0.11932012588E+01  0.89142325985E+01  0.18287408151E+02  0.24999738568E+00 0.  0.
        -13    1    4    4    0    0  0.11620981419E+02 -0.66888284692E+01 -0.87537977430E+01  0.16013358029E+02  0.10500000000E+00 0.  1.
         13    1    4    4    0    0  0.12176580254E+02 -0.70913061293E+01 -0.93418145715E+01  0.16906692574E+02  0.10500000000E+00 0. -1.
    3000001    1    5    5    0    0 -0.31808005806E+02  0.15981523585E+02  0.26202958672E+02  0.44212592919E+02  0.10000000000E+01 0.  1.
        -13    1    6    6    0    0 -0.92781146677E+01  0.73738710260E+00  0.51401638964E+01  0.10632942274E+02  0.10500000000E+00 0.  1.
         13    1    6    6    0    0 -0.66429256913E+01  0.45581415617E+00  0.37740687021E+01  0.76544658764E+01  0.10500000000E+00 0. -1.
</event>
<event>
11    0  0.3510903E-009  0.9118800E+02  0.7816531E-02  0.1126479E+00
         25   -1    0    0    0    0  0.00000000000E+00  0.00000000000E+00  0.99999998245E-14  0.12500000000E+03  0.12500000000E+03 0.  0.
    3000001    1    3    3    0    0 -0.15554532780E+02 -0.16491404846E+02 -0.25509521179E+02  0.34141552317E+02  0.10000000000E+01 0.  1.
    1000022    2    1    0    0    0 -0.31436089803E+02 -0.35158843670E+02 -0.39772828426E+02  0.62499999576E+02  0.10000001782E+02 0.  0.
    3000022    2    3    3    0    0 -0.15881557023E+02 -0.18667438824E+02 -0.14263307247E+02  0.28358447259E+02  0.24994319396E+00 0.  0.
    1000022    2    1    0    0    0  0.31436089803E+02  0.35158843670E+02  0.39772828426E+02  0.62500000424E+02  0.10000007083E+02 0.  0.
    3000022    2    5    5    0    0  0.31024480986E+02  0.34909930411E+02  0.39840147414E+02  0.61388284869E+02  0.25002299345E+00 0.  0.
        -13    1    4    4    0    0 -0.70742144215E+01 -0.83210160839E+01 -0.64327620902E+01  0.12675774985E+02  0.10500000000E+00 0.  1.
         13    1    4    4    0    0 -0.88073426018E+01 -0.10346422740E+02 -0.78305451569E+01  0.15682672275E+02  0.10500000000E+00 0. -1.
    3000001    1    5    5    0    0  0.41160881651E+00  0.24891325979E+00 -0.67318987477E-01  0.11117155548E+01  0.10000000000E+01 0.  1.
        -13    1    6    6    0    0  0.23287998805E+02  0.26177031847E+02  0.29862701165E+02  0.46036505412E+02  0.10500000000E+00 0.  1.
         13    1    6    6    0    0  0.77364821818E+01  0.87328985637E+01  0.99774462485E+01  0.15351779458E+02  0.10500000000E+00 0. -1.
</event>
<event>
11    0  0.3510903E-009  0.9118800E+02  0.7816531E-02  0.1126479E+00
         25   -1    0    0    0    0  0.00000000000E+00  0.00000000000E+00  0.99999998245E-14  0.12500000000E+03  0.12500000000E+03 0.  0.
    3000001    1    3    3    0    0 -0.53150829245E+01 -0.32611909785E+01  0.66891413389E+00  0.63508203573E+01  0.10000000000E+01 0. -1.
    1000022    2    1    0    0    0 -0.33027644467E+02 -0.48498641394E+02  0.19060598699E+02  0.62499992669E+02  0.99999572342E+01 0.  0.
    3000022    2    3    3    0    0 -0.27712561543E+02 -0.45237450416E+02  0.18391684565E+02  0.56149172312E+02  0.25000546618E+00 0.  0.
    1000022    2    1    0    0    0  0.33027644467E+02  0.48498641394E+02 -0.19060598699E+02  0.62500007331E+02  0.10000048873E+02 0.  0.
    3000022    2    5    5    0    0  0.95722899146E+01  0.21892688050E+02 -0.98148473232E+01  0.25832387705E+02  0.25000458247E+00 0.  0.
        -13    1    4    4    0    0 -0.20998650708E+02 -0.34236305165E+02  0.13922607178E+02  0.42507857374E+02  0.10500000000E+00 0.  1.
         13    1    4    4    0    0 -0.67139108346E+01 -0.11001145251E+02  0.44690773870E+01  0.13641314937E+02  0.10500000000E+00 0. -1.
    3000001    1    5    5    0    0  0.23455354553E+02  0.26605953344E+02 -0.92457513759E+01  0.36667619626E+02  0.10000000000E+01 0.  1.
        -13    1    6    6    0    0  0.57224533495E+01  0.13167974836E+02 -0.59560739293E+01  0.15544384043E+02  0.10500000000E+00 0.  1.
         13    1    6    6    0    0  0.38498365651E+01  0.87247132140E+01 -0.38587733939E+01  0.10288003662E+02  0.10500000000E+00 0. -1.
</event>
<event>
11    0  0.3510903E-009  0.9118800E+02  0.7816531E-02  0.1126479E+00
         25   -1    0    0    0    0  0.00000000000E+00  0.00000000000E+00  0.99999998245E-14  0.12500000000E+03  0.12500000000E+03 0.  0.
    3000001    1    3    3    0    0  0.10388408010E+02 -0.51086017284E+02  0.52272611000E+01  0.52402523236E+02  0.10000000000E+01 0.  1.
    1000022    2    1    0    0    0  0.11870791278E+02 -0.59648318635E+02  0.10363995670E+02  0.62499998471E+02  0.99999900513E+01 0.  0.
    3000022    2    3    3    0    0  0.14823832681E+01 -0.85623013511E+01  0.51367345700E+01  0.10097475234E+02  0.24999897112E+00 0.  0.
    1000022    2    1    0    0    0 -0.11870791278E+02  0.59648318635E+02 -0.10363995670E+02  0.62500001529E+02  0.10000009167E+02 0.  0.
    3000022    2    5    5    0    0  0.98880264636E+00  0.16413547148E+02 -0.41082476822E+01  0.16950588752E+02  0.24999874814E+00 0.  0.
        -13    1    4    4    0    0  0.60317095062E+00 -0.31442642435E+01  0.19075170148E+01  0.37282514656E+01  0.10500000000E+00 0.  1.
         13    1    4    4    0    0  0.87921231747E+00 -0.54180371076E+01  0.32292175552E+01  0.63692237688E+01  0.10500000000E+00 0. -1.
    3000001    1    5    5    0    0 -0.12859593924E+02  0.43234771487E+02 -0.62557479878E+01  0.45549412777E+02  0.10000000000E+01 0. -1.
        -13    1    6    6    0    0  0.62488669052E+00  0.10988431183E+02 -0.27887216659E+01  0.11354474747E+02  0.10500000000E+00 0.  1.
         13    1    6    6    0    0  0.36391595584E+00  0.54251159647E+01 -0.13195260162E+01  0.55961140053E+01  0.10500000000E+00 0. -1.
</event>
<event>
11    0  0.3510903E-009  0.9118800E+02  0.7816531E-02  0.1126479E+00
         25   -1    0    0    0    0  0.00000000000E+00  0.00000000000E+00  0.99999998245E-14  0.12500000000E+03  0.12500000000E+03 0.  0.
    3000001    1    3    3    0    0  0.20388449200E+01  0.42708947933E+01 -0.18795146834E+02  0.19407600971E+02  0.10000000000E+01 0. -1.
    1000022    2    1    0    0    0  0.20676734663E+02  0.13001071401E+02 -0.56654168178E+02  0.62500000680E+02  0.10000004959E+02 0.  0.
    3000022    2    3    3    0    0  0.18637889743E+02  0.87301766075E+01 -0.37859021344E+02  0.43092399709E+02  0.24999576938E+00 0.  0.
    1000022    2    1    0    0    0 -0.20676734663E+02 -0.13001071401E+02  0.56654168178E+02  0.62499999320E+02  0.99999964562E+01 0.  0.
    3000022    2    5    5    0    0 -0.16449999286E+02 -0.98260906529E+01  0.51883908948E+02  0.55309646908E+02  0.24999849687E+00 0.  0.
        -13    1    4    4    0    0  0.12866418722E+02  0.60286387724E+01 -0.26236971053E+02  0.29837541642E+02  0.10500000000E+00 0. -1.
         13    1    4    4    0    0  0.57714710202E+01  0.27015378352E+01 -0.11622050291E+02  0.13254858067E+02  0.10500000000E+00 0.  1.
    3000001    1    5    5    0    0 -0.42267353762E+01 -0.31749807480E+01  0.47702592301E+01  0.71903524123E+01  0.10000000000E+01 0. -1.
        -13    1    6    6    0    0 -0.10554572560E+02 -0.63286570806E+01  0.33166068264E+02  0.35375839375E+02  0.10500000000E+00 0. -1.
         13    1    6    6    0    0 -0.58954267268E+01 -0.34974335723E+01  0.18717840684E+02  0.19933807533E+02  0.10500000000E+00 0.  1.
</event>
<event>
11    0  0.3510903E-009  0.9118800E+02  0.7816531E-02  0.1126479E+00
         25   -1    0    0    0    0  0.00000000000E+00  0.00000000000E+00  0.99999998245E-14  0.12500000000E+03  0.12500000000E+03 0.  0.
    3000001    1    3    3    0    0  0.97941738196E+01 -0.10361092908E+02 -0.36277985660E+02  0.38991926480E+02  0.10000000000E+01 0. -1.
    1000022    2    1    0    0    0  0.22728676969E+02 -0.15492016307E+02 -0.55223679535E+02  0.62500000896E+02  0.10000000230E+02 0.  0.
    3000022    2    3    3    0    0  0.12934503150E+02 -0.51309233989E+01 -0.18945693875E+02  0.23508074416E+02  0.24999940221E+00 0.  0.
    1000022    2    1    0    0    0 -0.22728676969E+02  0.15492016307E+02  0.55223679535E+02  0.62499999104E+02  0.99999890276E+01 0.  0.
    3000022    2    5    5    0    0 -0.20950260004E+02  0.10823679526E+02  0.39859497979E+02  0.46313146102E+02  0.24998009422E+00 0.  0.
        -13    1    4    4    0    0  0.52684705723E+01 -0.20296353798E+01 -0.76364629043E+01  0.94975150769E+01  0.10500000000E+00 0. -1.
         13    1    4    4    0    0  0.76660325773E+01 -0.31012880191E+01 -0.11309230971E+02  0.14010559340E+02  0.10500000000E+00 0.  1.
    3000001    1    5    5    0    0 -0.17784169657E+01  0.46683367816E+01  0.15364181556E+02  0.16186853002E+02  0.10000000000E+01 0.  1.
        -13    1    6    6    0    0 -0.13928866368E+02  0.71898050782E+01  0.26600287000E+02  0.30875441841E+02  0.10500000000E+00 0.  1.
         13    1    6    6    0    0 -0.70213936356E+01  0.36338744475E+01  0.13259210978E+02  0.15437704261E+02  0.10500000000E+00 0. -1.
</event>
<event>
11    0  0.3510903E-009  0.9118800E+02  0.7816531E-02  0.1126479E+00
         25   -1    0    0    0    0  0.00000000000E+00  0.00000000000E+00  0.99999998245E-14  0.12500000000E+03  0.12500000000E+03 0.  0.
    3000001    1    3    3    0    0 -0.19441352153E+02  0.14880213169E+02 -0.16367247295E+02  0.29466484376E+02  0.10000000000E+01 0. -1.
    1000022    2    1    0    0    0 -0.46437079875E+02  0.22522318536E+02 -0.33802258401E+02  0.62500000783E+02  0.10000010265E+02 0.  0.
    3000022    2    3    3    0    0 -0.26995727722E+02  0.76421053671E+01 -0.17435011106E+02  0.33033516406E+02  0.25000844367E+00 0.  0.
    1000022    2    1    0    0    0  0.46437079875E+02 -0.22522318536E+02  0.33802258401E+02  0.62499999217E+02  0.10000000483E+02 0.  0.
    3000022    2    5    5    0    0  0.35615970573E+02 -0.20593991307E+02  0.29628097209E+02  0.50700063875E+02  0.24998989361E+00 0.  0.
        -13    1    4    4    0    0 -0.10441966259E+02  0.29044093909E+01 -0.66923404978E+01  0.12738473205E+02  0.10500000000E+00 0. -1.
         13    1    4    4    0    0 -0.16553761463E+02  0.47376959761E+01 -0.10742670608E+02  0.20295043201E+02  0.10500000000E+00 0.  1.
    3000001    1    5    5    0    0  0.10821109302E+02 -0.19283272296E+01  0.41741611919E+01  0.11799935342E+02  0.10000000000E+01 0. -1.
        -13    1    6    6    0    0  0.19215843454E+02 -0.11168006349E+02  0.16061721828E+02  0.27421942647E+02  0.10500000000E+00 0.  1.
         13    1    6    6    0    0  0.16400127119E+02 -0.94259849577E+01  0.13566375381E+02  0.23278121228E+02  0.10500000000E+00 0. -1.
</event>
<event>
11    0  0.3510903E-009  0.9118800E+02  0.7816531E-02  0.1126479E+00
         25   -1    0    0    0    0  0.00000000000E+00  0.00000000000E+00  0.99999998245E-14  0.12500000000E+03  0.12500000000E+03 0.  0.
    3000001    1    3    3    0    0  0.13116527537E+02  0.73861162136E+01 -0.45161302058E+02  0.47614506308E+02  0.10000000000E+01 0. -1.
    1000022    2    1    0    0    0  0.22099847868E+02  0.84080550059E+01 -0.56983780550E+02  0.62499999582E+02  0.10000001862E+02 0.  0.
    3000022    2    3    3    0    0  0.89833203305E+01  0.10219387924E+01 -0.11822478492E+02  0.14885493275E+02  0.25001854940E+00 0.  0.
    1000022    2    1    0    0    0 -0.22099847868E+02 -0.84080550059E+01  0.56983780550E+02  0.62500000418E+02  0.10000007085E+02 0.  0.
    3000022    2    5    5    0    0 -0.88062820038E+01 -0.71517893049E+01  0.34639543217E+02  0.36450777035E+02  0.24999825577E+00 0.  0.
        -13    1    4    4    0    0  0.52656654646E+01  0.65895873984E+00 -0.69777048440E+01  0.87670319548E+01  0.10500000000E+00 0.  1.
         13    1    4    4    0    0  0.37176548659E+01  0.36298005251E+00 -0.48447736482E+01  0.61184613199E+01  0.10500000000E+00 0. -1.
    3000001    1    5    5    0    0 -0.13293565864E+02 -0.12562657010E+01  0.22344237333E+02  0.26049223383E+02  0.10000000000E+01 0. -1.
        -13    1    6    6    0    0 -0.36017448776E+01 -0.29740422066E+01  0.14429146240E+02  0.15166699688E+02  0.10500000000E+00 0.  1.
         13    1    6    6    0    0 -0.52045371262E+01 -0.41777470983E+01  0.20210396978E+02  0.21284077347E+02  0.10500000000E+00 0. -1.
</event>
<event>
11    0  0.3510903E-009  0.9118800E+02  0.7816531E-02  0.1126479E+00
         25   -1    0    0    0    0  0.00000000000E+00  0.00000000000E+00  0.99999998245E-14  0.12500000000E+03  0.12500000000E+03 0.  0.
    3000001    1    3    3    0    0 -0.17776811912E+01  0.12497090282E+01  0.12496686383E+01  0.26988135872E+01  0.10000000000E+01 0. -1.
    1000022    2    1    0    0    0 -0.51552497690E+02  0.32106594667E+02 -0.10851563093E+02  0.62500001353E+02  0.10000015415E+02 0.  0.
    3000022    2    3    3    0    0 -0.49774816499E+02  0.30856885639E+02 -0.12101231732E+02  0.59801187765E+02  0.24999982299E+00 0.  0.
    1000022    2    1    0    0    0  0.51552497690E+02 -0.32106594667E+02  0.10851563093E+02  0.62499998647E+02  0.99999985074E+01 0.  0.
    3000022    2    5    5    0    0  0.14981752135E+02 -0.14592485242E+02  0.22377484850E+01  0.21034817332E+02  0.24999867672E+00 0.  0.
        -13    1    4    4    0    0 -0.17424705815E+02  0.10851123059E+02 -0.42025513624E+01  0.20953274382E+02  0.10500000000E+00 0.  1.
         13    1    4    4    0    0 -0.32350110684E+02  0.20005762579E+02 -0.78986803693E+01  0.38847913383E+02  0.10500000000E+00 0. -1.
    3000001    1    5    5    0    0  0.36570745555E+02 -0.17514109425E+02  0.86138146085E+01  0.41465181315E+02  0.10000000000E+01 0. -1.
        -13    1    6    6    0    0  0.35206957591E+01 -0.34167171568E+01  0.51412364805E+00  0.49340250185E+01  0.10500000000E+00 0.  1.
         13    1    6    6    0    0  0.11461056376E+02 -0.11175768085E+02  0.17236248369E+01  0.16100792314E+02  0.10500000000E+00 0. -1.
</event>
<event>
11    0  0.3510903E-009  0.9118800E+02  0.7816531E-02  0.1126479E+00
         25   -1    0    0    0    0  0.00000000000E+00  0.00000000000E+00  0.99999998245E-14  0.12500000000E+03  0.12500000000E+03 0.  0.
    3000001    1    3    3    0    0  0.15892341340E+02 -0.30531649125E+00 -0.92383009285E+00  0.15953469637E+02  0.10000000000E+01 0. -1.
    1000022    2    1    0    0    0  0.58416062298E+02  0.25114783040E+00 -0.19843146522E+02  0.62500000459E+02  0.10000009195E+02 0.  0.
    3000022    2    3    3    0    0  0.42523720958E+02  0.55646432165E+00 -0.18919316429E+02  0.46546530822E+02  0.25000155285E+00 0.  0.
    1000022    2    1    0    0    0 -0.58416062298E+02 -0.25114783040E+00  0.19843146522E+02  0.62499999541E+02  0.10000003456E+02 0.  0.
    3000022    2    5    5    0    0 -0.56157981544E+02  0.13564493493E+01  0.19770217204E+02  0.59552353689E+02  0.24999138030E+00 0.  0.
        -13    1    4    4    0    0  0.27502344401E+02  0.31095230380E+00 -0.12267831293E+02  0.30116214048E+02  0.10500000000E+00 0.  1.
         13    1    4    4    0    0  0.15021376557E+02  0.24551201785E+00 -0.66514851358E+01  0.16430316775E+02  0.10500000000E+00 0. -1.
    3000001    1    5    5    0    0 -0.22580807536E+01 -0.16075971797E+01  0.72929318184E-01  0.29476458517E+01  0.10000000000E+01 0. -1.
        -13    1    6    6    0    0 -0.25573241425E+02  0.56527036709E+00  0.89584837078E+01  0.27103056339E+02  0.10500000000E+00 0. -1.
         13    1    6    6    0    0 -0.30584740119E+02  0.79117898219E+00  0.10811733496E+02  0.32449297350E+02  0.10500000000E+00 0.  1.
</event>
<event>
11    0  0.3510903E-009  0.9118800E+02  0.7816531E-02  0.1126479E+00
         25   -1    0    0    0    0  0.00000000000E+00  0.00000000000E+00  0.99999998245E-14  0.12500000000E+03  0.12500000000E+03 0.  0.
    3000001    1    3    3    0    0 -0.12337955035E+02  0.52220980440E+01  0.36596602536E+02  0.38984699045E+02  0.10000000000E+01 0.  1.
    1000022    2    1    0    0    0 -0.16038693174E+02  0.17024640414E+01  0.59549240889E+02  0.62500000025E+02  0.99999925056E+01 0.  0.
    3000022    2    3    3    0    0 -0.37007381398E+01 -0.35196340026E+01  0.22952638353E+02  0.23515300981E+02  0.24997308831E+00 0.  0.
    1000022    2    1    0    0    0  0.16038693174E+02 -0.17024640414E+01 -0.59549240889E+02  0.62499999975E+02  0.99999921882E+01 0.  0.
    3000022    2    5    5    0    0  0.13300527631E+02 -0.48688548404E+01 -0.50967139016E+02  0.52899163876E+02  0.24999306895E+00 0.  0.
        -13    1    4    4    0    0 -0.12807794136E+01 -0.11451916089E+01  0.76735679213E+01  0.78642564411E+01  0.10500000000E+00 0. -1.
         13    1    4    4    0    0 -0.24199587262E+01 -0.23744423938E+01  0.15279070432E+02  0.15651044539E+02  0.10500000000E+00 0.  1.
    3000001    1    5    5    0    0  0.27381655430E+01  0.31663907990E+01 -0.85821018729E+01  0.96008360985E+01  0.10000000000E+01 0.  1.
        -13    1    6    6    0    0  0.74523044724E+01 -0.26651554269E+01 -0.28590138453E+02  0.29665585064E+02  0.10500000000E+00 0.  1.
         13    1    6    6    0    0  0.58482231590E+01 -0.22036994136E+01 -0.22377000563E+02  0.23233578812E+02  0.10500000000E+00 0. -1.
</event>
<event>
11    0  0.3510903E-009  0.9118800E+02  0.7816531E-02  0.1126479E+00
         25   -1    0    0    0    0  0.00000000000E+00  0.00000000000E+00  0.99999998245E-14  0.12500000000E+03  0.12500000000E+03 0.  0.
    3000001    1    3    3    0    0 -0.13133765199E+02 -0.18913993868E+02 -0.22535341058E+01  0.23158440541E+02  0.10000000000E+01 0. -1.
    1000022    2    1    0    0    0 -0.44711761245E+02 -0.42172790358E+02 -0.53445395480E+01  0.62499999636E+02  0.10000000567E+02 0.  0.
    3000022    2    3    3    0    0 -0.31577996046E+02 -0.23258796490E+02 -0.30910054422E+01  0.39341559095E+02  0.25001785911E+00 0.  0.
    1000022    2    1    0    0    0  0.44711761245E+02  0.42172790358E+02  0.53445395480E+01  0.62500000364E+02  0.10000005114E+02 0.  0.
    3000022    2    5    5    0    0  0.18567576449E+02  0.11260740373E+02  0.59925061039E+00  0.21725118389E+02  0.24999760451E+00 0.  0.
        -13    1    4    4    0    0 -0.23572432560E+02 -0.17397155361E+02 -0.23097122300E+01  0.29388201494E+02  0.10500000000E+00 0.  1.
         13    1    4    4    0    0 -0.80055634856E+01 -0.58616411295E+01 -0.78129321219E+00  0.99533576011E+01  0.10500000000E+00 0. -1.
    3000001    1    5    5    0    0  0.26144184796E+02  0.30912049985E+02  0.47452889376E+01  0.40774881975E+02  0.10000000000E+01 0.  1.
        -13    1    6    6    0    0  0.82048581861E+01  0.49045768073E+01  0.23840538179E+00  0.95625537195E+01  0.10500000000E+00 0.  1.
         13    1    6    6    0    0  0.10362718263E+02  0.63561635655E+01  0.36084522860E+00  0.12162564670E+02  0.10500000000E+00 0. -1.
</event>
<event>
11    0  0.3510903E-009  0.9118800E+02  0.7816531E-02  0.1126479E+00
         25   -1    0    0    0    0  0.00000000000E+00  0.00000000000E+00  0.99999998245E-14  0.12500000000E+03  0.12500000000E+03 0.  0.
    3000001    1    3    3    0    0 -0.17168820640E+02 -0.15757454531E+02 -0.19142008090E+01  0.23403630920E+02  0.10000000000E+01 0. -1.
    1000022    2    1    0    0    0 -0.50574890908E+02 -0.35056262137E+02  0.44146288282E+01  0.62499999969E+02  0.99999971511E+01 0.  0.
    3000022    2    3    3    0    0 -0.33406070268E+02 -0.19298807605E+02  0.63288296372E+01  0.39096369049E+02  0.24996501830E+00 0.  0.
    1000022    2    1    0    0    0  0.50574890908E+02  0.35056262137E+02 -0.44146288282E+01  0.62500000031E+02  0.99999975433E+01 0.  0.
    3000022    2    5    5    0    0  0.43248495168E+02  0.25923152840E+02 -0.53789141438E+01  0.50709342453E+02  0.25001429972E+00 0.  0.
        -13    1    4    4    0    0 -0.16217329360E+02 -0.94076429037E+01  0.30160428385E+01  0.18989814532E+02  0.10500000000E+00 0.  1.
         13    1    4    4    0    0 -0.17188740908E+02 -0.98911647017E+01  0.33127867988E+01  0.20106554517E+02  0.10500000000E+00 0. -1.
    3000001    1    5    5    0    0  0.73263957396E+01  0.91331092967E+01  0.96428531561E+00  0.11790657578E+02  0.10000000000E+01 0.  1.
        -13    1    6    6    0    0  0.20275950678E+02  0.12210774335E+02 -0.24785883126E+01  0.23798563208E+02  0.10500000000E+00 0. -1.
         13    1    6    6    0    0  0.22972544491E+02  0.13712378505E+02 -0.29003258312E+01  0.26910779245E+02  0.10500000000E+00 0.  1.
</event>
<event>
11    0  0.3510903E-009  0.9118800E+02  0.7816531E-02  0.1126479E+00
         25   -1    0    0    0    0  0.00000000000E+00  0.00000000000E+00  0.99999998245E-14  0.12500000000E+03  0.12500000000E+03 0.  0.
    3000001    1    3    3    0    0  0.17443860191E+02 -0.52758311983E+01 -0.11905713822E+02  0.21791481703E+02  0.10000000000E+01 0.  1.
    1000022    2    1    0    0    0  0.42757180104E+02 -0.26334228501E+02 -0.35841061001E+02  0.62500001708E+02  0.10000025933E+02 0.  0.
    3000022    2    3    3    0    0  0.25313319913E+02 -0.21058397303E+02 -0.23935347179E+02  0.40708520005E+02  0.24998891962E+00 0.  0.
    1000022    2    1    0    0    0 -0.42757180104E+02  0.26334228501E+02  0.35841061001E+02  0.62499998292E+02  0.10000004580E+02 0.  0.
    3000022    2    5    5    0    0 -0.83231066210E+01  0.39171438636E+01  0.11515091854E+02  0.14740351358E+02  0.24999576784E+00 0.  0.
        -13    1    4    4    0    0  0.12696775036E+02 -0.10572447047E+02 -0.11926887338E+02  0.20377595526E+02  0.10500000000E+00 0.  1.
         13    1    4    4    0    0  0.12616544877E+02 -0.10485950256E+02 -0.12008459842E+02  0.20330924479E+02  0.10500000000E+00 0. -1.
    3000001    1    5    5    0    0 -0.34434073483E+02  0.22417084637E+02  0.24325969147E+02  0.47759646934E+02  0.10000000000E+01 0. -1.
        -13    1    6    6    0    0 -0.37146676682E+01  0.17085371509E+01  0.52079879443E+01  0.66220856615E+01  0.10500000000E+00 0. -1.
         13    1    6    6    0    0 -0.46084389528E+01  0.22086067127E+01  0.63071039098E+01  0.81182656967E+01  0.10500000000E+00 0.  1.
</event>
<event>
11    0  0.3510903E-009  0.9118800E+02  0.7816531E-02  0.1126479E+00
         25   -1    0    0    0    0  0.00000000000E+00  0.00000000000E+00  0.99999998245E-14  0.12500000000E+03  0.12500000000E+03 0.  0.
    3000001    1    3    3    0    0  0.65814328254E+01  0.49389708749E+02 -0.32733267171E+02  0.59624872058E+02  0.10000000000E+01 0. -1.
    1000022    2    1    0    0    0  0.86158872779E+01  0.51381694727E+02 -0.33044480903E+02  0.62500002357E+02  0.10000025497E+02 0.  0.
    3000022    2    3    3    0    0  0.20344544526E+01  0.19919859780E+01 -0.31121373244E+00  0.28751302989E+01  0.25001438408E+00 0.  0.
    1000022    2    1    0    0    0 -0.86158872779E+01 -0.51381694727E+02  0.33044480903E+02  0.62499997643E+02  0.99999960315E+01 0.  0.
    3000022    2    5    5    0    0 -0.14063113001E+01 -0.22854881525E+02  0.19568514250E+02  0.30121629333E+02  0.24996537130E+00 0.  0.
        -13    1    4    4    0    0  0.13420470514E+01  0.12952113759E+01 -0.25793638352E+00  0.18857939904E+01  0.10500000000E+00 0.  1.
         13    1    4    4    0    0  0.69240740121E+00  0.69677460206E+00 -0.53277348913E-01  0.98933630846E+00  0.10500000000E+00 0. -1.
    3000001    1    5    5    0    0 -0.72095759778E+01 -0.28526813201E+02  0.13475966653E+02  0.32378368310E+02  0.10000000000E+01 0.  1.
        -13    1    6    6    0    0 -0.55324005624E+00 -0.95367313922E+01  0.82364229430E+01  0.12613683368E+02  0.10500000000E+00 0. -1.
         13    1    6    6    0    0 -0.85307124391E+00 -0.13318150133E+02  0.11332091307E+02  0.17507945965E+02  0.10500000000E+00 0.  1.
</event>
<event>
11    0  0.3510903E-009  0.9118800E+02  0.7816531E-02  0.1126479E+00
         25   -1    0    0    0    0  0.00000000000E+00  0.00000000000E+00  0.99999998245E-14  0.12500000000E+03  0.12500000000E+03 0.  0.
    3000001    1    3    3    0    0  0.38055593301E+02 -0.17388850256E+02  0.10863648996E+02  0.43239093009E+02  0.10000000000E+01 0.  1.
    1000022    2    1    0    0    0  0.56779893685E+02 -0.21852634055E+02  0.10235064925E+02  0.62499996668E+02  0.99999543717E+01 0.  0.
    3000022    2    3    3    0    0  0.18724300384E+02 -0.44637837989E+01 -0.62858407120E+00  0.19260903659E+02  0.25000230122E+00 0.  0.
    1000022    2    1    0    0    0 -0.56779893685E+02  0.21852634055E+02 -0.10235064925E+02  0.62500003332E+02  0.99999960240E+01 0.  0.
    3000022    2    5    5    0    0 -0.84442707377E+01  0.91863984966E-01 -0.31244987285E+01  0.90077262131E+01  0.24998388589E+00 0.  0.
        -13    1    4    4    0    0  0.43996789515E+01 -0.10344614463E+01 -0.15061325897E+00  0.45233831049E+01  0.10500000000E+00 0. -1.
         13    1    4    4    0    0  0.14324621432E+02 -0.34293223526E+01 -0.47797081223E+00  0.14737520554E+02  0.10500000000E+00 0.  1.
    3000001    1    5    5    0    0 -0.48335622947E+02  0.21760770070E+02 -0.71105661966E+01  0.53492277119E+02  0.10000000000E+01 0.  1.
        -13    1    6    6    0    0 -0.27370735453E+01  0.64653182532E-01 -0.97275508220E+00  0.29074093411E+01  0.10500000000E+00 0. -1.
         13    1    6    6    0    0 -0.57071971924E+01  0.27210802434E-01 -0.21517436463E+01  0.61003168721E+01  0.10500000000E+00 0.  1.
</event>
<event>
11    0  0.3510903E-009  0.9118800E+02  0.7816531E-02  0.1126479E+00
         25   -1    0    0    0    0  0.00000000000E+00  0.00000000000E+00  0.99999998245E-14  0.12500000000E+03  0.12500000000E+03 0.  0.
    3000001    1    3    3    0    0 -0.71011582136E+01  0.84654371475E+01  0.44079477849E+01  0.11938177321E+02  0.10000000000E+01 0. -1.
    1000022    2    1    0    0    0 -0.45988516345E+02  0.40762873904E+02  0.54492579844E+01  0.62499999659E+02  0.10000001014E+02 0.  0.
    3000022    2    3    3    0    0 -0.38887358132E+02  0.32297436757E+02  0.10413101995E+01  0.50561822338E+02  0.25001547603E+00 0.  0.
    1000022    2    1    0    0    0  0.45988516345E+02 -0.40762873904E+02 -0.54492579844E+01  0.62500000341E+02  0.10000005273E+02 0.  0.
    3000022    2    5    5    0    0  0.27937468814E+02 -0.26383984800E+02  0.12520181262E+01  0.38447976094E+02  0.24999739515E+00 0.  0.
        -13    1    4    4    0    0 -0.15887034243E+02  0.13112809167E+02  0.41485464807E+00  0.20604046949E+02  0.10500000000E+00 0.  1.
         13    1    4    4    0    0 -0.23000323888E+02  0.19184627590E+02  0.62645555145E+00  0.29957775390E+02  0.10500000000E+00 0. -1.
    3000001    1    5    5    0    0  0.18051047531E+02 -0.14378889104E+02 -0.67012761106E+01  0.24052024246E+02  0.10000000000E+01 0.  1.
        -13    1    6    6    0    0  0.85950985479E+01 -0.80525020942E+01  0.37669417236E+00  0.11784372386E+02  0.10500000000E+00 0. -1.
         13    1    6    6    0    0  0.19342370266E+02 -0.18331482706E+02  0.87532395384E+00  0.26663603709E+02  0.10500000000E+00 0.  1.
</event>
<event>
11    0  0.3510903E-009  0.9118800E+02  0.7816531E-02  0.1126479E+00
         25   -1    0    0    0    0  0.00000000000E+00  0.00000000000E+00  0.99999998245E-14  0.12500000000E+03  0.12500000000E+03 0.  0.
    3000001    1    3    3    0    0  0.18730440106E+02  0.27443371050E+02  0.20478847883E+02  0.39042940613E+02  0.10000000000E+01 0. -1.
    1000022    2    1    0    0    0  0.22829251951E+02  0.46692298670E+02  0.33240103354E+02  0.62499999519E+02  0.99999984546E+01 0.  0.
    3000022    2    3    3    0    0  0.40988118455E+01  0.19248927620E+02  0.12761255472E+02  0.23457058906E+02  0.24999641328E+00 0.  0.
    1000022    2    1    0    0    0 -0.22829251951E+02 -0.46692298670E+02 -0.33240103354E+02  0.62500000481E+02  0.10000004470E+02 0.  0.
    3000022    2    5    5    0    0 -0.12838710536E+02 -0.24616711370E+02 -0.11942586900E+02  0.30224209562E+02  0.24998962981E+00 0.  0.
        -13    1    4    4    0    0  0.16071412338E+01  0.72582819905E+01  0.48132354205E+01  0.88568516197E+01  0.10500000000E+00 0.  1.
         13    1    4    4    0    0  0.24916706117E+01  0.11990645630E+02  0.79480200512E+01  0.14600207286E+02  0.10500000000E+00 0. -1.
    3000001    1    5    5    0    0 -0.99905414151E+01 -0.22075587300E+02 -0.21297516454E+02  0.32275790920E+02  0.10000000000E+01 0. -1.
        -13    1    6    6    0    0 -0.38097286544E+01 -0.74032156690E+01 -0.35865692876E+01  0.90662086297E+01  0.10500000000E+00 0.  1.
         13    1    6    6    0    0 -0.90289818818E+01 -0.17213495701E+02 -0.83560176128E+01  0.21158000932E+02  0.10500000000E+00 0. -1.
</event>
<event>
11    0  0.3510903E-009  0.9118800E+02  0.7816531E-02  0.1126479E+00
         25   -1    0    0    0    0  0.00000000000E+00  0.00000000000E+00  0.99999998245E-14  0.12500000000E+03  0.12500000000E+03 0.  0.
    3000001    1    3    3    0    0  0.12759623208E+02  0.26997458001E+02  0.18671048864E+02  0.35231786623E+02  0.10000000000E+01 0.  1.
    1000022    2    1    0    0    0  0.15531571391E+02  0.46167468026E+02  0.37862713215E+02  0.62499998949E+02  0.10000000138E+02 0.  0.
    3000022    2    3    3    0    0  0.27719481829E+01  0.19170010025E+02  0.19191664351E+02  0.27268212326E+02  0.24988360957E+00 0.  0.
    1000022    2    1    0    0    0 -0.15531571391E+02 -0.46167468026E+02 -0.37862713215E+02  0.62500001051E+02  0.10000013281E+02 0.  0.
    3000022    2    5    5    0    0 -0.13015750590E+02 -0.24924357162E+02 -0.18757945882E+02  0.33801721515E+02  0.25000062982E+00 0.  0.
        -13    1    4    4    0    0  0.16819887454E+01  0.11967182272E+02  0.12024737631E+02  0.17048398100E+02  0.10500000000E+00 0. -1.
         13    1    4    4    0    0  0.10899594376E+01  0.72028277529E+01  0.71669267199E+01  0.10219814226E+02  0.10500000000E+00 0.  1.
    3000001    1    5    5    0    0 -0.25158208003E+01 -0.21243110865E+02 -0.19104767333E+02  0.28698279537E+02  0.10000000000E+01 0.  1.
        -13    1    6    6    0    0 -0.80815049728E+01 -0.15483620789E+02 -0.11578607490E+02  0.20955390995E+02  0.10500000000E+00 0.  1.
         13    1    6    6    0    0 -0.49342456177E+01 -0.94407363727E+01 -0.71793383916E+01  0.12846330519E+02  0.10500000000E+00 0. -1.
</event>
<event>
11    0  0.3510903E-009  0.9118800E+02  0.7816531E-02  0.1126479E+00
         25   -1    0    0    0    0  0.00000000000E+00  0.00000000000E+00  0.99999998245E-14  0.12500000000E+03  0.12500000000E+03 0.  0.
    3000001    1    3    3    0    0 -0.14885370657E+02 -0.91509286156E+01  0.11549307425E+02  0.20969030882E+02  0.10000000000E+01 0. -1.
    1000022    2    1    0    0    0 -0.41509412022E+02 -0.37689424921E+02  0.25743469248E+02  0.62500008768E+02  0.10000042492E+02 0.  0.
    3000022    2    3    3    0    0 -0.26624041365E+02 -0.28538496305E+02  0.14194161822E+02  0.41530977886E+02  0.25008875368E+00 0.  0.
    1000022    2    1    0    0    0  0.41509412022E+02  0.37689424921E+02 -0.25743469248E+02  0.62499991232E+02  0.99999328942E+01 0.  0.
    3000022    2    5    5    0    0  0.38153702714E+02  0.34189261284E+02 -0.26173844589E+02  0.57530368170E+02  0.25000661272E+00 0.  0.
        -13    1    4    4    0    0 -0.76852050822E+01 -0.82816733669E+01  0.41417249180E+01  0.12033843991E+02  0.10500000000E+00 0. -1.
         13    1    4    4    0    0 -0.18938836283E+02 -0.20256822938E+02  0.10052436905E+02  0.29497133895E+02  0.10500000000E+00 0.  1.
    3000001    1    5    5    0    0  0.33557093079E+01  0.35001636369E+01  0.43037534172E+00  0.49696230621E+01  0.10000000000E+01 0.  1.
        -13    1    6    6    0    0  0.25642243088E+02  0.22915988005E+02 -0.17598202555E+02  0.38631268358E+02  0.10500000000E+00 0. -1.
         13    1    6    6    0    0  0.12511459626E+02  0.11273273279E+02 -0.85756420340E+01  0.18899099812E+02  0.10500000000E+00 0.  1.
</event>
<event>
11    0  0.3510903E-009  0.9118800E+02  0.7816531E-02  0.1126479E+00
         25   -1    0    0    0    0  0.00000000000E+00  0.00000000000E+00  0.99999998245E-14  0.12500000000E+03  0.12500000000E+03 0.  0.
    3000001    1    3    3    0    0 -0.36885628233E+02 -0.22871264781E+02 -0.24533581997E+02  0.49865228050E+02  0.10000000000E+01 0.  1.
    1000022    2    1    0    0    0 -0.43587832411E+02 -0.26733703246E+02 -0.34520412094E+02  0.62499991518E+02  0.10000003256E+02 0.  0.
    3000022    2    3    3    0    0 -0.67022041776E+01 -0.38624384648E+01 -0.99868300973E+01  0.12634763469E+02  0.25000156211E+00 0.  0.
    1000022    2    1    0    0    0  0.43587832411E+02  0.26733703246E+02  0.34520412094E+02  0.62500008482E+02  0.10000109278E+02 0.  0.
    3000022    2    5    5    0    0  0.12024691998E+02  0.89584672719E+01  0.15523913117E+02  0.21584756802E+02  0.24998843214E+00 0.  0.
        -13    1    4    4    0    0 -0.20708706498E+01 -0.12280381380E+01 -0.31727599182E+01  0.39842205531E+01  0.10500000000E+00 0.  1.
         13    1    4    4    0    0 -0.46313335277E+01 -0.26344003269E+01 -0.68140701791E+01  0.86505429155E+01  0.10500000000E+00 0. -1.
    3000001    1    5    5    0    0  0.31563140413E+02  0.17775235974E+02  0.18996498977E+02  0.40915251680E+02  0.10000000000E+01 0.  1.
        -13    1    6    6    0    0  0.51657758856E+01  0.39299514811E+01  0.67302503590E+01  0.93507782585E+01  0.10500000000E+00 0.  1.
         13    1    6    6    0    0  0.68589161119E+01  0.50285157908E+01  0.87936627584E+01  0.12233978543E+02  0.10500000000E+00 0. -1.
</event>
<event>
11    0  0.3510903E-009  0.9118800E+02  0.7816531E-02  0.1126479E+00
         25   -1    0    0    0    0  0.00000000000E+00  0.00000000000E+00  0.99999998245E-14  0.12500000000E+03  0.12500000000E+03 0.  0.
    3000001    1    3    3    0    0  0.66136015575E+01 -0.10747920064E+02 -0.13190747039E+02  0.18282596061E+02  0.10000000000E+01 0.  1.
    1000022    2    1    0    0    0  0.29508021174E+02 -0.42987812296E+02 -0.32978398470E+02  0.62499999300E+02  0.99999913647E+01 0.  0.
    3000022    2    3    3    0    0  0.22894419616E+02 -0.32239892232E+02 -0.19787651430E+02  0.44217403239E+02  0.24999881325E+00 0.  0.
    1000022    2    1    0    0    0 -0.29508021174E+02  0.42987812296E+02  0.32978398470E+02  0.62500000700E+02  0.10000000114E+02 0.  0.
    3000022    2    5    5    0    0 -0.78550041660E+01  0.19400098895E+02  0.15143100490E+02  0.25834877994E+02  0.25000184536E+00 0.  0.
        -13    1    4    4    0    0  0.69330948871E+01 -0.96927206318E+01 -0.59394378831E+01  0.13315576793E+02  0.10500000000E+00 0. -1.
         13    1    4    4    0    0  0.15961324729E+02 -0.22547171600E+02 -0.13848213547E+02  0.30901826446E+02  0.10500000000E+00 0.  1.
    3000001    1    5    5    0    0 -0.21653017008E+02  0.23587713401E+02  0.17835297980E+02  0.36665122706E+02  0.10000000000E+01 0.  1.
        -13    1    6    6    0    0 -0.42859202995E+01  0.10450719642E+02  0.82267409533E+01  0.13974152767E+02  0.10500000000E+00 0. -1.
         13    1    6    6    0    0 -0.35690838665E+01  0.89493792527E+01  0.69163595368E+01  0.11860725226E+02  0.10500000000E+00 0.  1.
</event>
<event>
11    0  0.3510903E-009  0.9118800E+02  0.7816531E-02  0.1126479E+00
         25   -1    0    0    0    0  0.00000000000E+00  0.00000000000E+00  0.99999998245E-14  0.12500000000E+03  0.12500000000E+03 0.  0.
    3000001    1    3    3    0    0 -0.59133952565E+02 -0.13594655650E+02  0.93341862529E+01  0.61398420511E+02  0.10000000000E+01 0. -1.
    1000022    2    1    0    0    0 -0.59394287115E+02 -0.14314589004E+02  0.85825874297E+01  0.62500003135E+02  0.10000039230E+02 0.  0.
    3000022    2    3    3    0    0 -0.26033455045E+00 -0.71993335340E+00 -0.75159882324E+00  0.11015826243E+01  0.25001075094E+00 0.  0.
    1000022    2    1    0    0    0  0.59394287115E+02  0.14314589004E+02 -0.85825874297E+01  0.62499996865E+02  0.10000000042E+02 0.  0.
    3000022    2    5    5    0    0  0.84962669280E+00  0.14581052048E+01 -0.12290939612E+01  0.21026433976E+01  0.25000197361E+00 0.  0.
        -13    1    4    4    0    0 -0.44143967586E-01 -0.18938159056E+00 -0.17373562835E+00  0.28111055703E+00  0.10500000000E+00 0. -1.
         13    1    4    4    0    0 -0.21619058286E+00 -0.53055176284E+00 -0.57786319489E+00  0.82047206728E+00  0.10500000000E+00 0.  1.
    3000001    1    5    5    0    0  0.58544660423E+02  0.12856483799E+02 -0.73534934685E+01  0.60397353467E+02  0.10000000000E+01 0. -1.
        -13    1    6    6    0    0  0.40880943623E+00  0.79401607405E+00 -0.58861362654E+00  0.10747454035E+01  0.10500000000E+00 0.  1.
         13    1    6    6    0    0  0.44081725657E+00  0.66408913074E+00 -0.64048033467E+00  0.10278979941E+01  0.10500000000E+00 0. -1.
</event>
<event>
11    0  0.3510903E-009  0.9118800E+02  0.7816531E-02  0.1126479E+00
         25   -1    0    0    0    0  0.00000000000E+00  0.00000000000E+00  0.99999998245E-14  0.12500000000E+03  0.12500000000E+03 0.  0.
    3000001    1    3    3    0    0  0.21762287538E+02 -0.41816088915E+02  0.10698410525E+02  0.48349130693E+02  0.10000000000E+01 0.  1.
    1000022    2    1    0    0    0  0.31792628015E+02 -0.50531184738E+02  0.15558847151E+02  0.62499995244E+02  0.99999926887E+01 0.  0.
    3000022    2    3    3    0    0  0.10030340477E+02 -0.87150958233E+01  0.48604366258E+01  0.14150864551E+02  0.24999613949E+00 0.  0.
    1000022    2    1    0    0    0 -0.31792628015E+02  0.50531184738E+02 -0.15558847151E+02  0.62500004756E+02  0.10000052133E+02 0.  0.
    3000022    2    5    5    0    0 -0.82401342232E+01  0.13531792667E+02  0.30667912684E+00  0.15848210561E+02  0.25000225263E+00 0.  0.
        -13    1    4    4    0    0  0.66147695847E+01 -0.58091119409E+01  0.31901491695E+01  0.93642423572E+01  0.10500000000E+00 0.  1.
         13    1    4    4    0    0  0.34155708920E+01 -0.29059838824E+01  0.16702874563E+01  0.47866221942E+01  0.10500000000E+00 0. -1.
    3000001    1    5    5    0    0 -0.23552493792E+02  0.36999392071E+02 -0.15865526277E+02  0.46651794194E+02  0.10000000000E+01 0.  1.
        -13    1    6    6    0    0 -0.58880662955E+01  0.96297100622E+01  0.25531792275E+00  0.11290564770E+02  0.10500000000E+00 0.  1.
         13    1    6    6    0    0 -0.23520679277E+01  0.39020826044E+01  0.51361204087E-01  0.45576457916E+01  0.10500000000E+00 0. -1.
</event>
<event>
11    0  0.3510903E-009  0.9118800E+02  0.7816531E-02  0.1126479E+00
         25   -1    0    0    0    0  0.00000000000E+00  0.00000000000E+00  0.99999998245E-14  0.12500000000E+03  0.12500000000E+03 0.  0.
    3000001    1    3    3    0    0  0.39073991624E+02 -0.11056086418E+02 -0.43663082334E+02  0.59636219089E+02  0.10000000000E+01 0. -1.
    1000022    2    1    0    0    0  0.39081802426E+02 -0.12645598917E+02 -0.46032075435E+02  0.62499998653E+02  0.99999704950E+01 0.  0.
    3000022    2    3    3    0    0  0.78108016923E-02 -0.15895124989E+01 -0.23689931010E+01  0.28637795636E+01  0.24998816659E+00 0.  0.
    1000022    2    1    0    0    0 -0.39081802426E+02  0.12645598917E+02  0.46032075435E+02  0.62500001347E+02  0.99999873334E+01 0.  0.
    3000022    2    5    5    0    0 -0.26933707858E+02  0.53352607131E+01  0.25121020740E+02  0.37215827349E+02  0.24999279004E+00 0.  0.
        -13    1    4    4    0    0  0.33434978954E-01 -0.59623901764E+00 -0.80319765156E+00  0.10063649097E+01  0.10500000000E+00 0.  1.
         13    1    4    4    0    0 -0.25624177262E-01 -0.99327348127E+00 -0.15657954494E+01  0.18574146539E+01  0.10500000000E+00 0. -1.
    3000001    1    5    5    0    0 -0.12148094568E+02  0.73103382042E+01  0.20911054695E+02  0.25284173998E+02  0.10000000000E+01 0.  1.
        -13    1    6    6    0    0 -0.10588574143E+02  0.21170900974E+01  0.97992732518E+01  0.14582069611E+02  0.10500000000E+00 0.  1.
         13    1    6    6    0    0 -0.16345133715E+02  0.32181706157E+01  0.15321747488E+02  0.22633757738E+02  0.10500000000E+00 0. -1.
</event>
<event>
11    0  0.3510903E-009  0.9118800E+02  0.7816531E-02  0.1126479E+00
         25   -1    0    0    0    0  0.00000000000E+00  0.00000000000E+00  0.99999998245E-14  0.12500000000E+03  0.12500000000E+03 0.  0.
    3000001    1    3    3    0    0 -0.29721095368E+02  0.28581655745E+02  0.41530662717E+02  0.58532473899E+02  0.10000000000E+01 0.  1.
    1000022    2    1    0    0    0 -0.32591190258E+02  0.31263077825E+02  0.42031941989E+02  0.62499999435E+02  0.10000003226E+02 0.  0.
    3000022    2    3    3    0    0 -0.28700948902E+01  0.26814220791E+01  0.50127927219E+00  0.39675255363E+01  0.25001785342E+00 0.  0.
    1000022    2    1    0    0    0  0.32591190258E+02 -0.31263077825E+02 -0.42031941989E+02  0.62500000565E+02  0.10000010286E+02 0.  0.
    3000022    2    5    5    0    0  0.27297011644E+02 -0.26279186182E+02 -0.39500117745E+02  0.54736133159E+02  0.25000042732E+00 0.  0.
        -13    1    4    4    0    0 -0.10633062140E+01  0.10708837085E+01  0.16887183655E+00  0.15221546305E+01  0.10500000000E+00 0. -1.
         13    1    4    4    0    0 -0.18067886761E+01  0.16105383707E+01  0.33240743563E+00  0.24453709058E+01  0.10500000000E+00 0.  1.
    3000001    1    5    5    0    0  0.52941786138E+01 -0.49838916421E+01 -0.25318242446E+01  0.77638674062E+01  0.10000000000E+01 0.  1.
        -13    1    6    6    0    0  0.13027217245E+02 -0.12621323326E+02 -0.18960118495E+02  0.26239346600E+02  0.10500000000E+00 0. -1.
         13    1    6    6    0    0  0.14269794399E+02 -0.13657862856E+02 -0.20539999249E+02  0.28496786559E+02  0.10500000000E+00 0.  1.
</event>
<event>
11    0  0.3510903E-009  0.9118800E+02  0.7816531E-02  0.1126479E+00
         25   -1    0    0    0    0  0.00000000000E+00  0.00000000000E+00  0.99999998245E-14  0.12500000000E+03  0.12500000000E+03 0.  0.
    3000001    1    3    3    0    0  0.12158834019E+02 -0.28597802622E+02 -0.14343293277E+02  0.34240350780E+02  0.10000000000E+01 0. -1.
    1000022    2    1    0    0    0  0.18153468446E+02 -0.55816990535E+02 -0.19004345793E+02  0.62499999438E+02  0.99999960877E+01 0.  0.
    3000022    2    3    3    0    0  0.59946344276E+01 -0.27219187913E+02 -0.46610525158E+01  0.28259648658E+02  0.24999834008E+00 0.  0.
    1000022    2    1    0    0    0 -0.18153468446E+02  0.55816990535E+02  0.19004345793E+02  0.62500000562E+02  0.10000003109E+02 0.  0.
    3000022    2    5    5    0    0 -0.19179498085E+02  0.50210388780E+02  0.16929971215E+02  0.56352663744E+02  0.24999494826E+00 0.  0.
        -13    1    4    4    0    0  0.19820071300E+01 -0.92232012254E+01 -0.15517554565E+01  0.95611067929E+01  0.10500000000E+00 0. -1.
         13    1    4    4    0    0  0.40126272976E+01 -0.17995986688E+02 -0.31092970593E+01  0.18698541865E+02  0.10500000000E+00 0.  1.
    3000001    1    5    5    0    0  0.10260296390E+01  0.56066017546E+01  0.20743745787E+01  0.61473368174E+01  0.10000000000E+01 0. -1.
        -13    1    6    6    0    0 -0.82536272274E+01  0.21791556428E+02  0.73383364561E+01  0.24430646755E+02  0.10500000000E+00 0.  1.
         13    1    6    6    0    0 -0.10925870858E+02  0.28418832353E+02  0.95916347585E+01  0.31922016989E+02  0.10500000000E+00 0. -1.
</event>
<event>
11    0  0.3510903E-009  0.9118800E+02  0.7816531E-02  0.1126479E+00
         25   -1    0    0    0    0  0.00000000000E+00  0.00000000000E+00  0.99999998245E-14  0.12500000000E+03  0.12500000000E+03 0.  0.
    3000001    1    3    3    0    0 -0.11923560588E+02 -0.68899685231E+01 -0.37570561403E+02  0.40027366232E+02  0.10000000000E+01 0.  1.
    1000022    2    1    0    0    0 -0.11833780989E+02 -0.80509686840E+01 -0.60011612759E+02  0.62499999962E+02  0.99999930038E+01 0.  0.
    3000022    2    3    3    0    0  0.89779598730E-01 -0.11610001609E+01 -0.22441051355E+02  0.22472633729E+02  0.24999810022E+00 0.  0.
    1000022    2    1    0    0    0  0.11833780989E+02  0.80509686840E+01  0.60011612759E+02  0.62500000038E+02  0.99999934831E+01 0.  0.
    3000022    2    5    5    0    0  0.28065242138E+01 -0.14581319373E+01  0.23083788080E+02  0.23300783273E+02  0.25000422456E+00 0.  0.
        -13    1    4    4    0    0  0.31678665128E-01 -0.39447018817E+00 -0.88296219112E+01  0.88391095910E+01  0.10500000000E+00 0.  1.
         13    1    4    4    0    0  0.58100933602E-01 -0.76652997269E+00 -0.13611429444E+02  0.13633524138E+02  0.10500000000E+00 0. -1.
    3000001    1    5    5    0    0  0.90272567755E+01  0.95091006213E+01  0.36927824679E+02  0.39199216765E+02  0.10000000000E+01 0.  1.
        -13    1    6    6    0    0  0.69094530948E+00 -0.38529002753E+00  0.57104735971E+01  0.57659680479E+01  0.10500000000E+00 0.  1.
         13    1    6    6    0    0  0.21155789044E+01 -0.10728419097E+01  0.17373314483E+02  0.17534815225E+02  0.10500000000E+00 0. -1.
</event>
<event>
11    0  0.3510903E-009  0.9118800E+02  0.7816531E-02  0.1126479E+00
         25   -1    0    0    0    0  0.00000000000E+00  0.00000000000E+00  0.99999998245E-14  0.12500000000E+03  0.12500000000E+03 0.  0.
    3000001    1    3    3    0    0  0.34676635221E+02  0.16426914383E+02  0.28036593757E+02  0.47532758555E+02  0.10000000000E+01 0. -1.
    1000022    2    1    0    0    0  0.47910738026E+02  0.16889407630E+02  0.35007973089E+02  0.62499989647E+02  0.99999808888E+01 0.  0.
    3000022    2    3    3    0    0  0.13234102805E+02  0.46249324626E+00  0.69713793320E+01  0.14967231091E+02  0.24999938119E+00 0.  0.
    1000022    2    1    0    0    0 -0.47910738026E+02 -0.16889407630E+02 -0.35007973089E+02  0.62500010353E+02  0.10000110303E+02 0.  0.
    3000022    2    5    5    0    0 -0.46903803601E+02 -0.17411549464E+02 -0.34863950860E+02  0.60981033252E+02  0.24999985088E+00 0.  0.
        -13    1    4    4    0    0  0.40685278530E+01  0.96238570917E-01  0.21280178907E+01  0.45936549605E+01  0.10500000000E+00 0. -1.
         13    1    4    4    0    0  0.91655749521E+01  0.36625467535E+00  0.48433614413E+01  0.10373576131E+02  0.10500000000E+00 0.  1.
    3000001    1    5    5    0    0 -0.10069344254E+01  0.52214183476E+00 -0.14402222936E+00  0.15189771016E+01  0.10000000000E+01 0. -1.
        -13    1    6    6    0    0 -0.30095924647E+02 -0.11216893172E+02 -0.22429724298E+02  0.39175080470E+02  0.10500000000E+00 0. -1.
         13    1    6    6    0    0 -0.16807878954E+02 -0.61946562926E+01 -0.12434226562E+02  0.21805952781E+02  0.10500000000E+00 0.  1.
</event>
<event>
11    0  0.3510903E-009  0.9118800E+02  0.7816531E-02  0.1126479E+00
         25   -1    0    0    0    0  0.00000000000E+00  0.00000000000E+00  0.99999998245E-14  0.12500000000E+03  0.12500000000E+03 0.  0.
    3000001    1    3    3    0    0  0.96148826338E+01 -0.18848092408E+02  0.56453415976E+02  0.60296639466E+02  0.10000000000E+01 0.  1.
    1000022    2    1    0    0    0  0.83248190154E+01 -0.20053290655E+02  0.57747839063E+02  0.62499999843E+02  0.99999993102E+01 0.  0.
    3000022    2    3    3    0    0 -0.12900636184E+01 -0.12051982467E+01  0.12944230866E+01  0.22033603770E+01  0.24999774076E+00 0.  0.
    1000022    2    1    0    0    0 -0.83248190154E+01  0.20053290655E+02 -0.57747839063E+02  0.62500000157E+02  0.10000001273E+02 0.  0.
    3000022    2    5    5    0    0 -0.10316630361E+02  0.18194739689E+02 -0.52289677767E+02  0.56318329762E+02  0.24990389908E+00 0.  0.
        -13    1    4    4    0    0 -0.81074518367E+00 -0.67032880873E+00  0.76764361563E+00  0.13065030368E+01  0.10500000000E+00 0.  1.
         13    1    4    4    0    0 -0.47931843478E+00 -0.53486943792E+00  0.52677947095E+00  0.89685734013E+00  0.10500000000E+00 0. -1.
    3000001    1    5    5    0    0  0.19918113454E+01  0.18585509659E+01 -0.54581612965E+01  0.61816703945E+01  0.10000000000E+01 0.  1.
        -13    1    6    6    0    0 -0.34534069655E+01  0.60338809317E+01 -0.17259590805E+02  0.18607478027E+02  0.10500000000E+00 0. -1.
         13    1    6    6    0    0 -0.68632233952E+01  0.12160858757E+02 -0.35030086961E+02  0.37710851735E+02  0.10500000000E+00 0.  1.
</event>
<event>
11    0  0.3510903E-009  0.9118800E+02  0.7816531E-02  0.1126479E+00
         25   -1    0    0    0    0  0.00000000000E+00  0.00000000000E+00  0.99999998245E-14  0.12500000000E+03  0.12500000000E+03 0.  0.
    3000001    1    3    3    0    0  0.88904287062E+01  0.98035811056E+00  0.15836285104E+01  0.91383096830E+01  0.10000000000E+01 0. -1.
    1000022    2    1    0    0    0  0.51724080386E+02  0.24008695122E+02  0.23546809582E+02  0.62499998682E+02  0.99999830270E+01 0.  0.
    3000022    2    3    3    0    0  0.42833651680E+02  0.23028337012E+02  0.21963181072E+02  0.53361688999E+02  0.25001661604E+00 0.  0.
    1000022    2    1    0    0    0 -0.51724080386E+02 -0.24008695122E+02 -0.23546809582E+02  0.62500001318E+02  0.99999995006E+01 0.  0.
    3000022    2    5    5    0    0 -0.47575762220E+01 -0.55608674416E+01 -0.17747936903E+01  0.75345982402E+01  0.24999957370E+00 0.  0.
        -13    1    4    4    0    0  0.21133851693E+02  0.11425773790E+02  0.10891884261E+02  0.26378630781E+02  0.10500000000E+00 0.  1.
         13    1    4    4    0    0  0.21699799986E+02  0.11602563222E+02  0.11071296811E+02  0.26983058219E+02  0.10500000000E+00 0. -1.
    3000001    1    5    5    0    0 -0.46966504164E+02 -0.18447827681E+02 -0.21772015892E+02  0.54965403078E+02  0.10000000000E+01 0.  1.
        -13    1    6    6    0    0 -0.30883996780E+01 -0.36946063771E+01 -0.11701601320E+01  0.49566751545E+01  0.10500000000E+00 0. -1.
         13    1    6    6    0    0 -0.16691765440E+01 -0.18662610645E+01 -0.60463355835E+00  0.25779230857E+01  0.10500000000E+00 0.  1.
</event>
<event>
11    0  0.3510903E-009  0.9118800E+02  0.7816531E-02  0.1126479E+00
         25   -1    0    0    0    0  0.00000000000E+00  0.00000000000E+00  0.99999998245E-14  0.12500000000E+03  0.12500000000E+03 0.  0.
    3000001    1    3    3    0    0  0.16406636409E+02 -0.13829170427E+02  0.24321339831E+02  0.32449210223E+02  0.10000000000E+01 0.  1.
    1000022    2    1    0    0    0  0.38890992867E+02 -0.22624893451E+02  0.42212020729E+02  0.62500000447E+02  0.10000011598E+02 0.  0.
    3000022    2    3    3    0    0  0.22484356458E+02 -0.87957230240E+01  0.17890680898E+02  0.30050790223E+02  0.25000237706E+00 0.  0.
    1000022    2    1    0    0    0 -0.38890992867E+02  0.22624893451E+02 -0.42212020729E+02  0.62499999553E+02  0.10000006014E+02 0.  0.
    3000022    2    5    5    0    0 -0.22767603799E+02  0.11900567039E+02 -0.17484327737E+02  0.31076542506E+02  0.24999834384E+00 0.  0.
        -13    1    4    4    0    0  0.11945273730E+02 -0.46072400095E+01  0.95222749961E+01  0.15956220451E+02  0.10500000000E+00 0. -1.
         13    1    4    4    0    0  0.10539082728E+02 -0.41884830145E+01  0.83684059021E+01  0.14094569772E+02  0.10500000000E+00 0.  1.
    3000001    1    5    5    0    0 -0.16123389068E+02  0.10724326412E+02 -0.24727692993E+02  0.31423457047E+02  0.10000000000E+01 0. -1.
        -13    1    6    6    0    0 -0.10429694991E+02  0.55205375222E+01 -0.79978984814E+01  0.14255955852E+02  0.10500000000E+00 0. -1.
         13    1    6    6    0    0 -0.12337908807E+02  0.63800295167E+01 -0.94864292552E+01  0.16820586654E+02  0.10500000000E+00 0.  1.
</event>
<event>
11    0  0.3510903E-009  0.9118800E+02  0.7816531E-02  0.1126479E+00
         25   -1    0    0    0    0  0.00000000000E+00  0.00000000000E+00  0.99999998245E-14  0.12500000000E+03  0.12500000000E+03 0.  0.
    3000001    1    3    3    0    0 -0.10716360873E+02 -0.94561226696E+01  0.26943240465E+01  0.14577998092E+02  0.10000000000E+01 0. -1.
    1000022    2    1    0    0    0 -0.31815240660E+02 -0.50958498535E+02  0.14045351908E+02  0.62500000055E+02  0.99999992738E+01 0.  0.
    3000022    2    3    3    0    0 -0.21098879787E+02 -0.41502375866E+02  0.11351027861E+02  0.47922001963E+02  0.25001579178E+00 0.  0.
    1000022    2    1    0    0    0  0.31815240660E+02  0.50958498535E+02 -0.14045351908E+02  0.62499999945E+02  0.99999985819E+01 0.  0.
    3000022    2    5    5    0    0  0.10304201634E+02  0.25806155209E+02 -0.66307490391E+01  0.28568576301E+02  0.25000210962E+00 0.  0.
        -13    1    4    4    0    0 -0.15008526003E+02 -0.29463777536E+02  0.80963190587E+01  0.34043082216E+02  0.10500000000E+00 0.  1.
         13    1    4    4    0    0 -0.60903537843E+01 -0.12038598330E+02  0.32547088024E+01  0.13878919747E+02  0.10500000000E+00 0. -1.
    3000001    1    5    5    0    0  0.21511039027E+02  0.25152343326E+02 -0.74146028684E+01  0.33931423644E+02  0.10000000000E+01 0.  1.
        -13    1    6    6    0    0  0.55184488379E+01  0.13990033469E+02 -0.35646489319E+01  0.15456133445E+02  0.10500000000E+00 0. -1.
         13    1    6    6    0    0  0.47857527957E+01  0.11816121740E+02 -0.30661001072E+01  0.13112442856E+02  0.10500000000E+00 0.  1.
</event>
<event>
11    0  0.3510903E-009  0.9118800E+02  0.7816531E-02  0.1126479E+00
         25   -1    0    0    0    0  0.00000000000E+00  0.00000000000E+00  0.99999998245E-14  0.12500000000E+03  0.12500000000E+03 0.  0.
    3000001    1    3    3    0    0  0.19483019512E+01 -0.11825967920E+02  0.22554839612E+02  0.25561106933E+02  0.10000000000E+01 0.  1.
    1000022    2    1    0    0    0  0.88605013392E+01 -0.37564380326E+02  0.48131683064E+02  0.62499999637E+02  0.99999943384E+01 0.  0.
    3000022    2    3    3    0    0  0.69121993881E+01 -0.25738412405E+02  0.25576843453E+02  0.36938892704E+02  0.24999927745E+00 0.  0.
    1000022    2    1    0    0    0 -0.88605013392E+01  0.37564380326E+02 -0.48131683064E+02  0.62500000363E+02  0.99999988764E+01 0.  0.
    3000022    2    5    5    0    0 -0.95645831985E+01  0.36776238800E+02 -0.47692088690E+02  0.60980085384E+02  0.24999563876E+00 0.  0.
        -13    1    4    4    0    0  0.18502082389E+01 -0.69009581129E+01  0.68087853224E+01  0.98700089144E+01  0.10500000000E+00 0.  1.
         13    1    4    4    0    0  0.50619911492E+01 -0.18837454292E+02  0.18768058130E+02  0.27068883789E+02  0.10500000000E+00 0. -1.
    3000001    1    5    5    0    0  0.70408185923E+00  0.78814152575E+00 -0.43959437461E+00  0.15199149790E+01  0.10000000000E+01 0. -1.
        -13    1    6    6    0    0 -0.71302410406E+01  0.27513837071E+02 -0.35691630996E+02  0.45626254677E+02  0.10500000000E+00 0.  1.
         13    1    6    6    0    0 -0.24343421579E+01  0.92624017293E+01 -0.12000457694E+02  0.15353830708E+02  0.10500000000E+00 0. -1.
</event>
<event>
11    0  0.3510903E-009  0.9118800E+02  0.7816531E-02  0.1126479E+00
         25   -1    0    0    0    0  0.00000000000E+00  0.00000000000E+00  0.99999998245E-14  0.12500000000E+03  0.12500000000E+03 0.  0.
    3000001    1    3    3    0    0 -0.82834283217E+01  0.48614419882E+01  0.21473510133E+01  0.98924172648E+01  0.10000000000E+01 0. -1.
    1000022    2    1    0    0    0 -0.41913534603E+02  0.30674664325E+02  0.33295204644E+02  0.62500000203E+02  0.99999979308E+01 0.  0.
    3000022    2    3    3    0    0 -0.33630106282E+02  0.25813222337E+02  0.31147853631E+02  0.52607582938E+02  0.25000163849E+00 0.  0.
    1000022    2    1    0    0    0  0.41913534603E+02 -0.30674664325E+02 -0.33295204644E+02  0.62499999797E+02  0.99999953967E+01 0.  0.
    3000022    2    5    5    0    0  0.26581437501E+02 -0.24490827175E+02 -0.25221893381E+02  0.44074707447E+02  0.24999087195E+00 0.  0.
        -13    1    4    4    0    0 -0.17915112066E+02  0.13779866622E+02  0.16684221177E+02  0.28092885678E+02  0.10500000000E+00 0. -1.
         13    1    4    4    0    0 -0.15714994216E+02  0.12033355715E+02  0.14463632454E+02  0.24514697260E+02  0.10500000000E+00 0.  1.
    3000001    1    5    5    0    0  0.15332097102E+02 -0.61838371504E+01 -0.80733112631E+01  0.18425292351E+02  0.10000000000E+01 0.  1.
        -13    1    6    6    0    0  0.91001466201E+01 -0.83808641509E+01 -0.87004182873E+01  0.15124809281E+02  0.10500000000E+00 0. -1.
         13    1    6    6    0    0  0.17481290881E+02 -0.16109963024E+02 -0.16521475094E+02  0.28949898165E+02  0.10500000000E+00 0.  1.
</event>
<event>
11    0  0.3510903E-009  0.9118800E+02  0.7816531E-02  0.1126479E+00
         25   -1    0    0    0    0  0.00000000000E+00  0.00000000000E+00  0.99999998245E-14  0.12500000000E+03  0.12500000000E+03 0.  0.
    3000001    1    3    3    0    0 -0.48856237845E+01 -0.12017873442E+02  0.17323767116E+02  0.21665906603E+02  0.10000000000E+01 0. -1.
    1000022    2    1    0    0    0 -0.13397958320E+02 -0.44435139468E+02  0.40648040479E+02  0.62500000587E+02  0.99999985938E+01 0.  0.
    3000022    2    3    3    0    0 -0.85123345360E+01 -0.32417266026E+02  0.23324273364E+02  0.40834093984E+02  0.25005548954E+00 0.  0.
    1000022    2    1    0    0    0  0.13397958320E+02  0.44435139468E+02 -0.40648040479E+02  0.62499999413E+02  0.99999912570E+01 0.  0.
    3000022    2    5    5    0    0  0.77422755146E+01  0.35365600991E+02 -0.35059049001E+02  0.50397102986E+02  0.25001784157E+00 0.  0.
        -13    1    4    4    0    0 -0.24339417194E+01 -0.91950043497E+01  0.66639703150E+01  0.11614288727E+02  0.10500000000E+00 0. -1.
         13    1    4    4    0    0 -0.60783928166E+01 -0.23222261676E+02  0.16660303049E+02  0.29219805257E+02  0.10500000000E+00 0.  1.
    3000001    1    5    5    0    0  0.56556828059E+01  0.90695384766E+01 -0.55889914788E+01  0.12102896427E+02  0.10000000000E+01 0. -1.
        -13    1    6    6    0    0  0.52121133784E+01  0.23602214347E+02 -0.23448570192E+02  0.33676061483E+02  0.10500000000E+00 0. -1.
         13    1    6    6    0    0  0.25301621362E+01  0.11763386644E+02 -0.11610478809E+02  0.16721041503E+02  0.10500000000E+00 0.  1.
</event>
<event>
11    0  0.3510903E-009  0.9118800E+02  0.7816531E-02  0.1126479E+00
         25   -1    0    0    0    0  0.00000000000E+00  0.00000000000E+00  0.99999998245E-14  0.12500000000E+03  0.12500000000E+03 0.  0.
    3000001    1    3    3    0    0 -0.12565830416E+02 -0.25851397556E+02 -0.11452294435E+02  0.30957226902E+02  0.10000000000E+01 0.  1.
    1000022    2    1    0    0    0 -0.17244725544E+02 -0.56148545877E+02 -0.18873532078E+02  0.62499999803E+02  0.99999999534E+01 0.  0.
    3000022    2    3    3    0    0 -0.46788951286E+01 -0.30297148321E+02 -0.74212376427E+01  0.31542772901E+02  0.24999623222E+00 0.  0.
    1000022    2    1    0    0    0  0.17244725544E+02  0.56148545877E+02  0.18873532078E+02  0.62500000197E+02  0.10000002419E+02 0.  0.
    3000022    2    5    5    0    0  0.10559597702E+02  0.30424053824E+02  0.15327759286E+02  0.35666943526E+02  0.25000205218E+00 0.  0.
        -13    1    4    4    0    0 -0.34689469765E+01 -0.22488603657E+02 -0.54771362356E+01  0.23404720334E+02  0.10500000000E+00 0. -1.
         13    1    4    4    0    0 -0.12099481521E+01 -0.78085446643E+01 -0.19441014071E+01  0.81380525672E+01  0.10500000000E+00 0.  1.
    3000001    1    5    5    0    0  0.66851278422E+01  0.25724492053E+02  0.35457727916E+01  0.26833056671E+02  0.10000000000E+01 0. -1.
        -13    1    6    6    0    0  0.59177843120E+01  0.17250421913E+02  0.86841327237E+01  0.20199564686E+02  0.10500000000E+00 0.  1.
         13    1    6    6    0    0  0.46418133902E+01  0.13173631911E+02  0.66436265623E+01  0.15467378840E+02  0.10500000000E+00 0. -1.
</event>
<event>
11    0  0.3510903E-009  0.9118800E+02  0.7816531E-02  0.1126479E+00
         25   -1    0    0    0    0  0.00000000000E+00  0.00000000000E+00  0.99999998245E-14  0.12500000000E+03  0.12500000000E+03 0.  0.
    3000001    1    3    3    0    0  0.30917235785E+02  0.13484063513E+02 -0.36813136464E+01  0.33944771432E+02  0.10000000000E+01 0. -1.
    1000022    2    1    0    0    0  0.59313555293E+02  0.16360559090E+02 -0.45259527977E+01  0.62500000406E+02  0.10000003343E+02 0.  0.
    3000022    2    3    3    0    0  0.28396319508E+02  0.28764955764E+01 -0.84463915137E+00  0.28555228974E+02  0.24999616566E+00 0.  0.
    1000022    2    1    0    0    0 -0.59313555293E+02 -0.16360559090E+02  0.45259527977E+01  0.62499999594E+02  0.99999982682E+01 0.  0.
    3000022    2    5    5    0    0 -0.34629721051E+02 -0.77191343126E+01 -0.19662763568E+01  0.35534930812E+02  0.24990093487E+00 0.  0.
        -13    1    4    4    0    0  0.18569157732E+02  0.18250054984E+01 -0.55623761967E+00  0.18667208930E+02  0.10500000000E+00 0.  1.
         13    1    4    4    0    0  0.98271617758E+01  0.10514900781E+01 -0.28840153169E+00  0.98880200443E+01  0.10500000000E+00 0. -1.
    3000001    1    5    5    0    0 -0.24683834241E+02 -0.86414247770E+01  0.64922291545E+01  0.26965068782E+02  0.10000000000E+01 0.  1.
        -13    1    6    6    0    0 -0.12690940479E+02 -0.27766152984E+01 -0.69047922818E+00  0.13009894286E+02  0.10500000000E+00 0. -1.
         13    1    6    6    0    0 -0.21938780572E+02 -0.49425190142E+01 -0.12757971286E+01  0.22525036526E+02  0.10500000000E+00 0.  1.
</event>
<event>
11    0  0.3510903E-009  0.9118800E+02  0.7816531E-02  0.1126479E+00
         25   -1    0    0    0    0  0.00000000000E+00  0.00000000000E+00  0.99999998245E-14  0.12500000000E+03  0.12500000000E+03 0.  0.
    3000001    1    3    3    0    0 -0.49823769909E+01 -0.16923508269E+02 -0.32907549034E+02  0.37351519328E+02  0.10000000000E+01 0.  1.
    1000022    2    1    0    0    0 -0.18314887849E+01 -0.32433916604E+02 -0.52449370279E+02  0.62500001231E+02  0.10000020690E+02 0.  0.
    3000022    2    3    3    0    0  0.31508882060E+01 -0.15510408334E+02 -0.19541821244E+02  0.25148481903E+02  0.25000263070E+00 0.  0.
    1000022    2    1    0    0    0  0.18314887849E+01  0.32433916604E+02  0.52449370279E+02  0.62499998769E+02  0.10000005304E+02 0.  0.
    3000022    2    5    5    0    0  0.29789802976E+01  0.19367683967E+02  0.22807663199E+02  0.30070475635E+02  0.24999696056E+00 0.  0.
        -13    1    4    4    0    0  0.11802477156E+01 -0.55570761780E+01 -0.70603895835E+01  0.90627924168E+01  0.10500000000E+00 0.  1.
         13    1    4    4    0    0  0.19706404904E+01 -0.99533321564E+01 -0.12481431661E+02  0.16085689487E+02  0.10500000000E+00 0. -1.
    3000001    1    5    5    0    0 -0.11474915127E+01  0.13066232637E+02  0.29641707080E+02  0.32429523134E+02  0.10000000000E+01 0. -1.
        -13    1    6    6    0    0  0.10341423228E+01  0.64912507633E+01  0.75885724869E+01  0.10040081882E+02  0.10500000000E+00 0.  1.
         13    1    6    6    0    0  0.19448379747E+01  0.12876433204E+02  0.15219090712E+02  0.20030393753E+02  0.10500000000E+00 0. -1.
</event>
<event>
11    0  0.3510903E-009  0.9118800E+02  0.7816531E-02  0.1126479E+00
         25   -1    0    0    0    0  0.00000000000E+00  0.00000000000E+00  0.99999998245E-14  0.12500000000E+03  0.12500000000E+03 0.  0.
    3000001    1    3    3    0    0 -0.56035392455E+02  0.20926270597E+02 -0.12174280691E+02  0.61049874029E+02  0.10000000000E+01 0. -1.
    1000022    2    1    0    0    0 -0.56998522964E+02  0.19963308312E+02 -0.12604930291E+02  0.62500003472E+02  0.10000043379E+02 0.  0.
    3000022    2    3    3    0    0 -0.96313050927E+00 -0.96296228550E+00 -0.43064959972E+00  0.14501294429E+01  0.24999916452E+00 0.  0.
    1000022    2    1    0    0    0  0.56998522964E+02 -0.19963308312E+02  0.12604930291E+02  0.62499996528E+02  0.99999999760E+01 0.  0.
    3000022    2    5    5    0    0  0.35285476085E+02 -0.79369106343E+01  0.49446088208E+01  0.36504397460E+02  0.25000916238E+00 0.  0.
        -13    1    4    4    0    0 -0.30623899832E+00 -0.24554095983E+00 -0.12423788778E+00  0.42489144473E+00  0.10500000000E+00 0.  1.
         13    1    4    4    0    0 -0.65689151095E+00 -0.71742132567E+00 -0.30641171195E+00  0.10252379982E+01  0.10500000000E+00 0. -1.
    3000001    1    5    5    0    0  0.21713046879E+02 -0.12026397677E+02  0.76603214700E+01  0.25995599068E+02  0.10000000000E+01 0.  1.
        -13    1    6    6    0    0  0.82077329639E+01 -0.18527861023E+01  0.11407176443E+01  0.84918760290E+01  0.10500000000E+00 0.  1.
         13    1    6    6    0    0  0.27077743121E+02 -0.60841245319E+01  0.38038911765E+01  0.28012521431E+02  0.10500000000E+00 0. -1.
</event>
<event>
11    0  0.3510903E-009  0.9118800E+02  0.7816531E-02  0.1126479E+00
         25   -1    0    0    0    0  0.00000000000E+00  0.00000000000E+00  0.99999998245E-14  0.12500000000E+03  0.12500000000E+03 0.  0.
    3000001    1    3    3    0    0 -0.12572094538E+02 -0.16249250178E+01  0.75720823518E+01  0.14799809916E+02  0.10000000000E+01 0. -1.
    1000022    2    1    0    0    0 -0.41421148420E+02 -0.11505333747E+02  0.44251166561E+02  0.62499999679E+02  0.99999988389E+01 0.  0.
    3000022    2    3    3    0    0 -0.28849053882E+02 -0.98804087288E+01  0.36679084210E+02  0.47700189763E+02  0.24999699761E+00 0.  0.
    1000022    2    1    0    0    0  0.41421148420E+02  0.11505333747E+02 -0.44251166561E+02  0.62500000321E+02  0.10000002851E+02 0.  0.
    3000022    2    5    5    0    0  0.28122636142E+02  0.39996375268E+01 -0.32772746120E+02  0.43370440985E+02  0.24999815254E+00 0.  0.
        -13    1    4    4    0    0 -0.12323887219E+02 -0.42652422503E+01  0.15608033011E+02  0.20339424945E+02  0.10500000000E+00 0. -1.
         13    1    4    4    0    0 -0.16525166663E+02 -0.56151664785E+01  0.21071051199E+02  0.27360764818E+02  0.10500000000E+00 0.  1.
    3000001    1    5    5    0    0  0.13298512278E+02  0.75056962198E+01 -0.11478420442E+02  0.19129559336E+02  0.10000000000E+01 0.  1.
        -13    1    6    6    0    0  0.14701772732E+02  0.20226433336E+01 -0.17120029601E+02  0.22656999935E+02  0.10500000000E+00 0.  1.
         13    1    6    6    0    0  0.13420863410E+02  0.19769941932E+01 -0.15652716518E+02  0.20713441050E+02  0.10500000000E+00 0. -1.
</event>
<event>
11    0  0.3510903E-009  0.9118800E+02  0.7816531E-02  0.1126479E+00
         25   -1    0    0    0    0  0.00000000000E+00  0.00000000000E+00  0.99999998245E-14  0.12500000000E+03  0.12500000000E+03 0.  0.
    3000001    1    3    3    0    0 -0.11907597335E+02  0.50136158663E+00  0.19910572453E+00  0.11961683863E+02  0.10000000000E+01 0. -1.
    1000022    2    1    0    0    0 -0.59294223460E+02 -0.16896149018E+02 -0.22283860431E+01  0.62499995287E+02  0.99999459561E+01 0.  0.
    3000022    2    3    3    0    0 -0.47386626124E+02 -0.17397510605E+02 -0.24274917677E+01  0.50538311424E+02  0.24998919392E+00 0.  0.
    1000022    2    1    0    0    0  0.59294223460E+02  0.16896149018E+02  0.22283860431E+01  0.62500004713E+02  0.10000004875E+02 0.  0.
    3000022    2    5    5    0    0  0.56398569760E+02  0.16854189279E+02  0.39313918089E+01  0.58994751569E+02  0.25000786570E+00 0.  0.
        -13    1    4    4    0    0 -0.31445977883E+02 -0.11487427964E+02 -0.16073931683E+01  0.33517238312E+02  0.10500000000E+00 0. -1.
         13    1    4    4    0    0 -0.15940648241E+02 -0.59100826413E+01 -0.82009859933E+00  0.17021073112E+02  0.10500000000E+00 0.  1.
    3000001    1    5    5    0    0  0.28956537001E+01  0.41959739505E-01 -0.17030057658E+01  0.35052531448E+01  0.10000000000E+01 0.  1.
        -13    1    6    6    0    0  0.27519457387E+02  0.81644200528E+01  0.19538555812E+01  0.28771633014E+02  0.10500000000E+00 0. -1.
         13    1    6    6    0    0  0.28879112372E+02  0.86897692258E+01  0.19775362277E+01  0.30223118554E+02  0.10500000000E+00 0.  1.
</event>
<event>
11    0  0.3510903E-009  0.9118800E+02  0.7816531E-02  0.1126479E+00
         25   -1    0    0    0    0  0.00000000000E+00  0.00000000000E+00  0.99999998245E-14  0.12500000000E+03  0.12500000000E+03 0.  0.
    3000001    1    3    3    0    0  0.15993272958E+01  0.46748132223E+01  0.16737691008E+02  0.17480332569E+02  0.10000000000E+01 0.  1.
    1000022    2    1    0    0    0 -0.43173653083E+01  0.27804736415E+02  0.54904526322E+02  0.62499999593E+02  0.99999964071E+01 0.  0.
    3000022    2    3    3    0    0 -0.59166926041E+01  0.23129923193E+02  0.38166835314E+02  0.45019667023E+02  0.25000545208E+00 0.  0.
    1000022    2    1    0    0    0  0.43173653083E+01 -0.27804736415E+02 -0.54904526322E+02  0.62500000407E+02  0.10000001498E+02 0.  0.
    3000022    2    5    5    0    0 -0.27190423984E+01 -0.39417375172E+01 -0.66264944822E+01  0.81794508138E+01  0.25000055008E+00 0.  0.
        -13    1    4    4    0    0 -0.43691647676E+01  0.16961338247E+02  0.28032898995E+02  0.33054970080E+02  0.10500000000E+00 0. -1.
         13    1    4    4    0    0 -0.15475278365E+01  0.61685849457E+01  0.10133936319E+02  0.11964696944E+02  0.10500000000E+00 0.  1.
    3000001    1    5    5    0    0  0.70364077066E+01 -0.23862998898E+02 -0.48278031840E+02  0.54320549593E+02  0.10000000000E+01 0. -1.
        -13    1    6    6    0    0 -0.17613711196E+01 -0.26314372835E+01 -0.43241211415E+01  0.53605912962E+01  0.10500000000E+00 0. -1.
         13    1    6    6    0    0 -0.95767127872E+00 -0.13103002336E+01 -0.23023733407E+01  0.28188595176E+01  0.10500000000E+00 0.  1.
</event>
<event>
11    0  0.3510903E-009  0.9118800E+02  0.7816531E-02  0.1126479E+00
         25   -1    0    0    0    0  0.00000000000E+00  0.00000000000E+00  0.99999998245E-14  0.12500000000E+03  0.12500000000E+03 0.  0.
    3000001    1    3    3    0    0 -0.19449845619E+01  0.36905221240E+02 -0.11038138296E+02  0.38582623249E+02  0.10000000000E+01 0.  1.
    1000022    2    1    0    0    0 -0.34938796531E+01  0.60754414686E+02 -0.10146172835E+02  0.62500006302E+02  0.99999932899E+01 0.  0.
    3000022    2    3    3    0    0 -0.15488950911E+01  0.23849193446E+02  0.89196546115E+00  0.23917383054E+02  0.25001148493E+00 0.  0.
    1000022    2    1    0    0    0  0.34938796531E+01 -0.60754414686E+02  0.10146172835E+02  0.62499993698E+02  0.99999145091E+01 0.  0.
    3000022    2    5    5    0    0 -0.27458865444E+01 -0.13196726908E+02  0.91565753025E-01  0.13482002383E+02  0.25001993826E+00 0.  0.
        -13    1    4    4    0    0 -0.90262666243E+00  0.14772710858E+02  0.57474197794E+00  0.14811788357E+02  0.10500000000E+00 0.  1.
         13    1    4    4    0    0 -0.64626842872E+00  0.90764825879E+01  0.31722348320E+00  0.91055946972E+01  0.10500000000E+00 0. -1.
    3000001    1    5    5    0    0  0.62397661974E+01 -0.47557687778E+02  0.10054607082E+02  0.49017991315E+02  0.10000000000E+01 0. -1.
        -13    1    6    6    0    0 -0.16393031188E+01 -0.77045525210E+01 -0.36784828778E-03  0.78777198097E+01  0.10500000000E+00 0. -1.
         13    1    6    6    0    0 -0.11065834256E+01 -0.54921743866E+01  0.91933601312E-01  0.56042825729E+01  0.10500000000E+00 0.  1.
</event>
<event>
11    0  0.3510903E-009  0.9118800E+02  0.7816531E-02  0.1126479E+00
         25   -1    0    0    0    0  0.00000000000E+00  0.00000000000E+00  0.99999998245E-14  0.12500000000E+03  0.12500000000E+03 0.  0.
    3000001    1    3    3    0    0 -0.71384421780E+00  0.32301098498E+01  0.10470558585E+01  0.36110260564E+01  0.10000000000E+01 0.  1.
    1000022    2    1    0    0    0  0.24278793549E+02  0.54273819290E+02  0.16466409487E+02  0.62499999399E+02  0.10000000344E+02 0.  0.
    3000022    2    3    3    0    0  0.24992637767E+02  0.51043709441E+02  0.15419353629E+02  0.58888973342E+02  0.24999796884E+00 0.  0.
    1000022    2    1    0    0    0 -0.24278793549E+02 -0.54273819290E+02 -0.16466409487E+02  0.62500000601E+02  0.10000007859E+02 0.  0.
    3000022    2    5    5    0    0 -0.30784257961E+01 -0.11284094514E+02 -0.69922583358E+01  0.13629441271E+02  0.24999668299E+00 0.  0.
        -13    1    4    4    0    0  0.77309042859E+01  0.15681191167E+02  0.47376593403E+01  0.18114167894E+02  0.10500000000E+00 0. -1.
         13    1    4    4    0    0  0.17261733481E+02  0.35362518274E+02  0.10681694289E+02  0.40774805448E+02  0.10500000000E+00 0.  1.
    3000001    1    5    5    0    0 -0.21200367753E+02 -0.42989724777E+02 -0.94741511516E+01  0.48870559331E+02  0.10000000000E+01 0. -1.
        -13    1    6    6    0    0 -0.12581460621E+01 -0.46443819641E+01 -0.29508100031E+01  0.56454866943E+01  0.10500000000E+00 0.  1.
         13    1    6    6    0    0 -0.18202797340E+01 -0.66397125496E+01 -0.40414483327E+01  0.79839545764E+01  0.10500000000E+00 0. -1.
</event>
<event>
11    0  0.3510903E-009  0.9118800E+02  0.7816531E-02  0.1126479E+00
         25   -1    0    0    0    0  0.00000000000E+00  0.00000000000E+00  0.99999998245E-14  0.12500000000E+03  0.12500000000E+03 0.  0.
    3000001    1    3    3    0    0 -0.34428870182E+02  0.44497721117E+01  0.14660611716E+02  0.37697229471E+02  0.10000000000E+01 0.  1.
    1000022    2    1    0    0    0 -0.57357719198E+02  0.13039983537E+02  0.18609162268E+02  0.62499999544E+02  0.99999950227E+01 0.  0.
    3000022    2    3    3    0    0 -0.22928849016E+02  0.85902114253E+01  0.39485505518E+01  0.24802770074E+02  0.25000467397E+00 0.  0.
    1000022    2    1    0    0    0  0.57357719198E+02 -0.13039983537E+02 -0.18609162268E+02  0.62500000456E+02  0.10000000718E+02 0.  0.
    3000022    2    5    5    0    0  0.17184266126E+02 -0.86501007968E+01 -0.59382095070E+01  0.20135741391E+02  0.25000626710E+00 0.  0.
        -13    1    4    4    0    0 -0.13920364828E+02  0.51552791653E+01  0.23661301228E+01  0.15032067621E+02  0.10500000000E+00 0.  1.
         13    1    4    4    0    0 -0.90084841880E+01  0.34349322600E+01  0.15824204291E+01  0.97707024523E+01  0.10500000000E+00 0. -1.
    3000001    1    5    5    0    0  0.40173453072E+02 -0.43898827403E+01 -0.12670952761E+02  0.42364259065E+02  0.10000000000E+01 0.  1.
        -13    1    6    6    0    0  0.75185757540E+01 -0.37457006838E+01 -0.26514211623E+01  0.88091040499E+01  0.10500000000E+00 0. -1.
         13    1    6    6    0    0  0.96656903718E+01 -0.49044001129E+01 -0.32867883446E+01  0.11326637341E+02  0.10500000000E+00 0.  1.
</event>
<event>
11    0  0.3510903E-009  0.9118800E+02  0.7816531E-02  0.1126479E+00
         25   -1    0    0    0    0  0.00000000000E+00  0.00000000000E+00  0.99999998245E-14  0.12500000000E+03  0.12500000000E+03 0.  0.
    3000001    1    3    3    0    0  0.46554167233E+01  0.11550533096E+02  0.57156847408E+01  0.13738878110E+02  0.10000000000E+01 0.  1.
    1000022    2    1    0    0    0  0.27288689127E+02  0.54631474064E+02  0.87737917561E+01  0.62500000038E+02  0.10000003515E+02 0.  0.
    3000022    2    3    3    0    0  0.22633272404E+02  0.43080940968E+02  0.30581070152E+01  0.48761121928E+02  0.24999751390E+00 0.  0.
    1000022    2    1    0    0    0 -0.27288689127E+02 -0.54631474064E+02 -0.87737917561E+01  0.62499999962E+02  0.10000003040E+02 0.  0.
    3000022    2    5    5    0    0 -0.23274157054E+02 -0.51912635821E+02 -0.86678121043E+01  0.57548254730E+02  0.25002258936E+00 0.  0.
        -13    1    4    4    0    0  0.56279827715E+01  0.10661257499E+02  0.75020467742E+00  0.12079339121E+02  0.10500000000E+00 0.  1.
         13    1    4    4    0    0  0.17005289632E+02  0.32419683469E+02  0.23079023378E+01  0.36681782808E+02  0.10500000000E+00 0. -1.
    3000001    1    5    5    0    0 -0.40145320733E+01 -0.27188382424E+01 -0.10597965179E+00  0.49517452320E+01  0.10000000000E+01 0.  1.
        -13    1    6    6    0    0 -0.57757050258E+01 -0.12836988591E+02 -0.21612180501E+01  0.14241802312E+02  0.10500000000E+00 0. -1.
         13    1    6    6    0    0 -0.17498452028E+02 -0.39075647230E+02 -0.65065940541E+01  0.43306452418E+02  0.10500000000E+00 0.  1.
</event>
<event>
11    0  0.3510903E-009  0.9118800E+02  0.7816531E-02  0.1126479E+00
         25   -1    0    0    0    0  0.00000000000E+00  0.00000000000E+00  0.99999998245E-14  0.12500000000E+03  0.12500000000E+03 0.  0.
    3000001    1    3    3    0    0  0.34653873789E+01  0.15768614531E+02 -0.61379592427E+01  0.17301232834E+02  0.10000000000E+01 0. -1.
    1000022    2    1    0    0    0  0.22854620940E+02  0.48422158368E+02 -0.30646535085E+02  0.62500006022E+02  0.10000076031E+02 0.  0.
    3000022    2    3    3    0    0  0.19389233561E+02  0.32653543837E+02 -0.24508575842E+02  0.45198773188E+02  0.25000925664E+00 0.  0.
    1000022    2    1    0    0    0 -0.22854620940E+02 -0.48422158368E+02  0.30646535085E+02  0.62499993978E+02  0.10000000762E+02 0.  0.
    3000022    2    5    5    0    0 -0.69913835093E+01 -0.61948385005E+01  0.48989032852E+01  0.10550697657E+02  0.25000046443E+00 0.  0.
        -13    1    4    4    0    0  0.10999918198E+02  0.18583100471E+02 -0.14006056650E+02  0.25739278765E+02  0.10500000000E+00 0. -1.
         13    1    4    4    0    0  0.83893153638E+01  0.14070443366E+02 -0.10502519192E+02  0.19459494422E+02  0.10500000000E+00 0.  1.
    3000001    1    5    5    0    0 -0.15863237431E+02 -0.42227319868E+02  0.25747631799E+02  0.51949296321E+02  0.10000000000E+01 0.  1.
        -13    1    6    6    0    0 -0.36966761290E+01 -0.33653526945E+01  0.26224314495E+01  0.56461655013E+01  0.10500000000E+00 0. -1.
         13    1    6    6    0    0 -0.32947073803E+01 -0.28294858060E+01  0.22764718357E+01  0.49045321557E+01  0.10500000000E+00 0.  1.
</event>
<event>
11    0  0.3510903E-009  0.9118800E+02  0.7816531E-02  0.1126479E+00
         25   -1    0    0    0    0  0.00000000000E+00  0.00000000000E+00  0.99999998245E-14  0.12500000000E+03  0.12500000000E+03 0.  0.
    3000001    1    3    3    0    0  0.45359792205E+01 -0.25280507997E+01 -0.79208152815E+01  0.95239415716E+01  0.10000000000E+01 0. -1.
    1000022    2    1    0    0    0  0.21628986534E+02  0.39281494411E+01 -0.57645525378E+02  0.62499999522E+02  0.99999963848E+01 0.  0.
    3000022    2    3    3    0    0  0.17093007313E+02  0.64562002407E+01 -0.49724710096E+02  0.52976057951E+02  0.25000256038E+00 0.  0.
    1000022    2    1    0    0    0 -0.21628986534E+02 -0.39281494411E+01  0.57645525378E+02  0.62500000478E+02  0.10000002356E+02 0.  0.
    3000022    2    5    5    0    0 -0.20803090838E+02 -0.13735511811E+01  0.45956836290E+02  0.50465320234E+02  0.25002659531E+00 0.  0.
        -13    1    4    4    0    0  0.48482794805E+01  0.17929402078E+01 -0.14125004719E+02  0.15041516939E+02  0.10500000000E+00 0.  1.
         13    1    4    4    0    0  0.12244727832E+02  0.46632600329E+01 -0.35599705377E+02  0.37934541012E+02  0.10500000000E+00 0. -1.
    3000001    1    5    5    0    0 -0.82589569554E+00 -0.25545982600E+01  0.11688689088E+02  0.12034680243E+02  0.10000000000E+01 0. -1.
        -13    1    6    6    0    0 -0.67275299504E+01 -0.47724575854E+00  0.14772133096E+02  0.16239284589E+02  0.10500000000E+00 0. -1.
         13    1    6    6    0    0 -0.14075560888E+02 -0.89630542256E+00  0.31184703194E+02  0.34226035646E+02  0.10500000000E+00 0.  1.
</event>
<event>
11    0  0.3510903E-009  0.9118800E+02  0.7816531E-02  0.1126479E+00
         25   -1    0    0    0    0  0.00000000000E+00  0.00000000000E+00  0.99999998245E-14  0.12500000000E+03  0.12500000000E+03 0.  0.
    3000001    1    3    3    0    0 -0.15909254694E+02  0.52539582154E+01  0.30343571420E+01  0.17056253548E+02  0.10000000000E+01 0.  1.
    1000022    2    1    0    0    0 -0.50911794189E+02  0.33409336860E+02  0.99022948280E+01  0.62500001022E+02  0.10000005394E+02 0.  0.
    3000022    2    3    3    0    0 -0.35002539495E+02  0.28155378645E+02  0.68679376860E+01  0.45443747473E+02  0.24999724034E+00 0.  0.
    1000022    2    1    0    0    0  0.50911794189E+02 -0.33409336860E+02 -0.99022948280E+01  0.62499998978E+02  0.99999926225E+01 0.  0.
    3000022    2    5    5    0    0  0.32204849202E+02 -0.26424287081E+02 -0.79585693434E+01  0.42412222100E+02  0.24999517323E+00 0.  0.
        -13    1    4    4    0    0 -0.93809119218E+01  0.75880311651E+01  0.18314923817E+01  0.12204307223E+02  0.10500000000E+00 0. -1.
         13    1    4    4    0    0 -0.25621627573E+02  0.20567347480E+02  0.50364453043E+01  0.33239440250E+02  0.10500000000E+00 0.  1.
    3000001    1    5    5    0    0  0.18706944987E+02 -0.69850497792E+01 -0.19437254846E+01  0.20087776878E+02  0.10000000000E+01 0. -1.
        -13    1    6    6    0    0  0.13366401989E+02 -0.10886420808E+02 -0.32778260469E+01  0.17547935170E+02  0.10500000000E+00 0. -1.
         13    1    6    6    0    0  0.18838447213E+02 -0.15537866273E+02 -0.46807432965E+01  0.24864286929E+02  0.10500000000E+00 0.  1.
</event>
<event>
11    0  0.3510903E-009  0.9118800E+02  0.7816531E-02  0.1126479E+00
         25   -1    0    0    0    0  0.00000000000E+00  0.00000000000E+00  0.99999998245E-14  0.12500000000E+03  0.12500000000E+03 0.  0.
    3000001    1    3    3    0    0 -0.46302621782E+01 -0.20009695516E+00  0.78753656126E+01  0.91924289588E+01  0.10000000000E+01 0. -1.
    1000022    2    1    0    0    0 -0.40077593552E+02 -0.19897303025E+02  0.42475095799E+02  0.62499999342E+02  0.99999990994E+01 0.  0.
    3000022    2    3    3    0    0 -0.35447331374E+02 -0.19697206070E+02  0.34599730186E+02  0.53307570383E+02  0.25000534068E+00 0.  0.
    1000022    2    1    0    0    0  0.40077593552E+02  0.19897303025E+02 -0.42475095799E+02  0.62500000658E+02  0.10000007330E+02 0.  0.
    3000022    2    5    5    0    0  0.25249119698E+02  0.12122494595E+02 -0.32817592903E+02  0.43145449639E+02  0.24999981426E+00 0.  0.
        -13    1    4    4    0    0 -0.21156072975E+02 -0.11714767593E+02  0.20701672624E+02  0.31833716055E+02  0.10500000000E+00 0. -1.
         13    1    4    4    0    0 -0.14291258399E+02 -0.79824384771E+01  0.13898057562E+02  0.21473854327E+02  0.10500000000E+00 0.  1.
    3000001    1    5    5    0    0  0.14828473854E+02  0.77748084308E+01 -0.96575028959E+01  0.19354551020E+02  0.10000000000E+01 0. -1.
        -13    1    6    6    0    0  0.95972655153E+01  0.46618742144E+01 -0.12445466405E+02  0.16393328997E+02  0.10500000000E+00 0. -1.
         13    1    6    6    0    0  0.15651854182E+02  0.74606203803E+01 -0.20372126498E+02  0.26752120642E+02  0.10500000000E+00 0.  1.
</event>
<event>
11    0  0.3510903E-009  0.9118800E+02  0.7816531E-02  0.1126479E+00
         25   -1    0    0    0    0  0.00000000000E+00  0.00000000000E+00  0.99999998245E-14  0.12500000000E+03  0.12500000000E+03 0.  0.
    3000001    1    3    3    0    0 -0.45244446991E+01  0.12325621947E+01  0.46812191748E+02  0.47057104731E+02  0.10000000000E+01 0.  1.
    1000022    2    1    0    0    0 -0.46825912008E+01  0.70597652274E+01  0.61110416683E+02  0.62500000921E+02  0.10000007124E+02 0.  0.
    3000022    2    3    3    0    0 -0.15814650163E+00  0.58272030326E+01  0.14298224935E+02  0.15442896190E+02  0.25000187360E+00 0.  0.
    1000022    2    1    0    0    0  0.46825912008E+01 -0.70597652274E+01 -0.61110416683E+02  0.62499999079E+02  0.99999956119E+01 0.  0.
    3000022    2    5    5    0    0  0.40691983596E+01 -0.86171111586E+01 -0.58331378133E+02  0.59105204182E+02  0.25001301416E+00 0.  0.
        -13    1    4    4    0    0 -0.36838666934E-01  0.19192641449E+01  0.45791206254E+01  0.49663168089E+01  0.10500000000E+00 0. -1.
         13    1    4    4    0    0 -0.12130783470E+00  0.39079388877E+01  0.97191043100E+01  0.10476579381E+02  0.10500000000E+00 0.  1.
    3000001    1    5    5    0    0  0.61339284121E+00  0.15573459313E+01 -0.27790385505E+01  0.33947948970E+01  0.10000000000E+01 0. -1.
        -13    1    6    6    0    0  0.25040773022E+01 -0.51606878811E+01 -0.35002665173E+02  0.35469715205E+02  0.10500000000E+00 0.  1.
         13    1    6    6    0    0  0.15651210573E+01 -0.34564232775E+01 -0.23328712960E+02  0.23635488977E+02  0.10500000000E+00 0. -1.
</event>
<event>
11    0  0.3510903E-009  0.9118800E+02  0.7816531E-02  0.1126479E+00
         25   -1    0    0    0    0  0.00000000000E+00  0.00000000000E+00  0.99999998245E-14  0.12500000000E+03  0.12500000000E+03 0.  0.
    3000001    1    3    3    0    0  0.28272481486E+02  0.19992989444E+02  0.23125391235E+02  0.41651369197E+02  0.10000000000E+01 0. -1.
    1000022    2    1    0    0    0  0.44217501007E+02  0.32366900344E+02  0.28345127764E+02  0.62500001448E+02  0.10000013994E+02 0.  0.
    3000022    2    3    3    0    0  0.15945019522E+02  0.12373910900E+02  0.52197365298E+01  0.20848632251E+02  0.24999759837E+00 0.  0.
    1000022    2    1    0    0    0 -0.44217501007E+02 -0.32366900344E+02 -0.28345127764E+02  0.62499998552E+02  0.99999958889E+01 0.  0.
    3000022    2    5    5    0    0 -0.41739724076E+02 -0.30220693103E+02 -0.28814310310E+02  0.59040848901E+02  0.25000562095E+00 0.  0.
        -13    1    4    4    0    0  0.88234416545E+01  0.67638431673E+01  0.28849620190E+01  0.11486371397E+02  0.10500000000E+00 0.  1.
         13    1    4    4    0    0  0.71215778670E+01  0.56100677328E+01  0.23347745107E+01  0.93622608540E+01  0.10500000000E+00 0. -1.
    3000001    1    5    5    0    0 -0.24777769316E+01 -0.21462072410E+01  0.46918254526E+00  0.34591496506E+01  0.10000000000E+01 0.  1.
        -13    1    6    6    0    0 -0.25139920321E+02 -0.18157739152E+02 -0.17399525444E+02  0.35559437504E+02  0.10500000000E+00 0.  1.
         13    1    6    6    0    0 -0.16599803754E+02 -0.12062953951E+02 -0.11414784865E+02  0.23481411397E+02  0.10500000000E+00 0. -1.
</event>
<event>
11    0  0.3510903E-009  0.9118800E+02  0.7816531E-02  0.1126479E+00
         25   -1    0    0    0    0  0.00000000000E+00  0.00000000000E+00  0.99999998245E-14  0.12500000000E+03  0.12500000000E+03 0.  0.
    3000001    1    3    3    0    0 -0.75625603518E+01  0.97172599809E+01 -0.14115966091E+02  0.18758410361E+02  0.10000000000E+01 0. -1.
    1000022    2    1    0    0    0 -0.35592671675E+02  0.34768737846E+02 -0.36476656760E+02  0.62500000086E+02  0.10000005699E+02 0.  0.
    3000022    2    3    3    0    0 -0.28030111323E+02  0.25051477865E+02 -0.22360690669E+02  0.43741589724E+02  0.25000079256E+00 0.  0.
    1000022    2    1    0    0    0  0.35592671675E+02 -0.34768737846E+02  0.36476656760E+02  0.62499999914E+02  0.10000004629E+02 0.  0.
    3000022    2    5    5    0    0  0.18481877975E+02 -0.24604253032E+02  0.23494675841E+02  0.38717068195E+02  0.24999207162E+00 0.  0.
        -13    1    4    4    0    0 -0.13107908864E+02  0.11760230752E+02 -0.10542486923E+02  0.20524993487E+02  0.10500000000E+00 0.  1.
         13    1    4    4    0    0 -0.14922202458E+02  0.13291247113E+02 -0.11818203746E+02  0.23216596237E+02  0.10500000000E+00 0. -1.
    3000001    1    5    5    0    0  0.17110793700E+02 -0.10164484814E+02  0.12981980919E+02  0.23782931719E+02  0.10000000000E+01 0. -1.
        -13    1    6    6    0    0  0.93147551484E+01 -0.12451771900E+02  0.11796570777E+02  0.19518744683E+02  0.10500000000E+00 0.  1.
         13    1    6    6    0    0  0.91671228264E+01 -0.12152481132E+02  0.11698105064E+02  0.19198323512E+02  0.10500000000E+00 0. -1.
</event>
<event>
11    0  0.3510903E-009  0.9118800E+02  0.7816531E-02  0.1126479E+00
         25   -1    0    0    0    0  0.00000000000E+00  0.00000000000E+00  0.99999998245E-14  0.12500000000E+03  0.12500000000E+03 0.  0.
    3000001    1    3    3    0    0 -0.51262421834E+02 -0.27125142143E+01 -0.10140691049E+02  0.52335716682E+02  0.10000000000E+01 0. -1.
    1000022    2    1    0    0    0 -0.59439846977E+02 -0.44274715710E+01 -0.15923320410E+02  0.62500000217E+02  0.99999990511E+01 0.  0.
    3000022    2    3    3    0    0 -0.81774251434E+01 -0.17149573567E+01 -0.57826293608E+01  0.10164283535E+02  0.24999348801E+00 0.  0.
    1000022    2    1    0    0    0  0.59439846977E+02  0.44274715710E+01  0.15923320410E+02  0.62499999783E+02  0.99999963405E+01 0.  0.
    3000022    2    5    5    0    0  0.51811371914E+01  0.11964278202E+01 -0.12871869511E+01  0.54767694732E+01  0.25006297283E+00 0.  0.
        -13    1    4    4    0    0 -0.39258724858E+01 -0.76182463924E+00 -0.27301137146E+01  0.48432837466E+01  0.10500000000E+00 0. -1.
         13    1    4    4    0    0 -0.42515526576E+01 -0.95313271742E+00 -0.30525156462E+01  0.53209997884E+01  0.10500000000E+00 0.  1.
    3000001    1    5    5    0    0  0.54258709786E+02  0.32310437508E+01  0.17210507361E+02  0.57023230310E+02  0.10000000000E+01 0. -1.
        -13    1    6    6    0    0  0.13462247228E+01  0.31857910785E+00 -0.36746858893E+00  0.14352253538E+01  0.10500000000E+00 0. -1.
         13    1    6    6    0    0  0.38349124686E+01  0.87784871235E+00 -0.91971836221E+00  0.40415441194E+01  0.10500000000E+00 0.  1.
</event>
<event>
11    0  0.3510903E-009  0.9118800E+02  0.7816531E-02  0.1126479E+00
         25   -1    0    0    0    0  0.00000000000E+00  0.00000000000E+00  0.99999998245E-14  0.12500000000E+03  0.12500000000E+03 0.  0.
    3000001    1    3    3    0    0 -0.46335248146E+01  0.39546072148E+02 -0.35241917947E+02  0.53182272940E+02  0.10000000000E+01 0.  1.
    1000022    2    1    0    0    0 -0.15380519950E+01  0.45186353063E+02 -0.41977111793E+02  0.62500001163E+02  0.10000006192E+02 0.  0.
    3000022    2    3    3    0    0  0.30954728196E+01  0.56402809149E+01 -0.67351938462E+01  0.93177282226E+01  0.25000461728E+00 0.  0.
    1000022    2    1    0    0    0  0.15380519950E+01 -0.45186353063E+02  0.41977111793E+02  0.62499998837E+02  0.99999916546E+01 0.  0.
    3000022    2    5    5    0    0  0.31128909799E+01 -0.45128657227E+01  0.63939304859E+01  0.84262022053E+01  0.24997852375E+00 0.  0.
        -13    1    4    4    0    0  0.94373493865E+00  0.16830906751E+01 -0.20832247214E+01  0.28415277748E+01  0.10500000000E+00 0.  1.
         13    1    4    4    0    0  0.21517378810E+01  0.39571902398E+01 -0.46519691248E+01  0.64762004479E+01  0.10500000000E+00 0. -1.
    3000001    1    5    5    0    0 -0.15748389850E+01 -0.40673487340E+02  0.35583181307E+02  0.54073796632E+02  0.10000000000E+01 0.  1.
        -13    1    6    6    0    0  0.15380598856E+01 -0.23379083197E+01  0.32188753848E+01  0.42665709025E+01  0.10500000000E+00 0. -1.
         13    1    6    6    0    0  0.15748310944E+01 -0.21749574030E+01  0.31750551011E+01  0.41596313028E+01  0.10500000000E+00 0.  1.
</event>
<event>
11    0  0.3510903E-009  0.9118800E+02  0.7816531E-02  0.1126479E+00
         25   -1    0    0    0    0  0.00000000000E+00  0.00000000000E+00  0.99999998245E-14  0.12500000000E+03  0.12500000000E+03 0.  0.
    3000001    1    3    3    0    0  0.57789988671E-01  0.54492310468E+00 -0.58023478480E+01  0.59133342052E+01  0.10000000000E+01 0. -1.
    1000022    2    1    0    0    0 -0.24565908827E+02  0.18416225893E+02 -0.53512701164E+02  0.62499996245E+02  0.99999546035E+01 0.  0.
    3000022    2    3    3    0    0 -0.24623698815E+02  0.17871302788E+02 -0.47710353316E+02  0.56586662039E+02  0.25000102971E+00 0.  0.
    1000022    2    1    0    0    0  0.24565908827E+02 -0.18416225893E+02  0.53512701164E+02  0.62500003755E+02  0.10000001546E+02 0.  0.
    3000022    2    5    5    0    0  0.20118801472E+02 -0.18887840621E+02  0.47575050146E+02  0.54999678170E+02  0.25001281931E+00 0.  0.
        -13    1    4    4    0    0 -0.17634098512E+02  0.12842593971E+02 -0.34171242520E+02  0.40541071651E+02  0.10500000000E+00 0. -1.
         13    1    4    4    0    0 -0.69896003034E+01  0.50287088171E+01 -0.13539110796E+02  0.16045590389E+02  0.10500000000E+00 0.  1.
    3000001    1    5    5    0    0  0.44471073549E+01  0.47161472767E+00  0.59376510177E+01  0.75003255853E+01  0.10000000000E+01 0.  1.
        -13    1    6    6    0    0  0.85188172850E+01 -0.79252910195E+01  0.20135081581E+02  0.23255386923E+02  0.10500000000E+00 0. -1.
         13    1    6    6    0    0  0.11599984187E+02 -0.10962549601E+02  0.27439968566E+02  0.31744291247E+02  0.10500000000E+00 0.  1.
</event>
<event>
11    0  0.3510903E-009  0.9118800E+02  0.7816531E-02  0.1126479E+00
         25   -1    0    0    0    0  0.00000000000E+00  0.00000000000E+00  0.99999998245E-14  0.12500000000E+03  0.12500000000E+03 0.  0.
    3000001    1    3    3    0    0  0.39494416368E+02  0.29353659367E+02  0.17851592696E+02  0.52355759991E+02  0.10000000000E+01 0.  1.
    1000022    2    1    0    0    0  0.48144980194E+02  0.34590107156E+02  0.17083185655E+02  0.62499999309E+02  0.10000002523E+02 0.  0.
    3000022    2    3    3    0    0  0.86505638266E+01  0.52364477895E+01 -0.76840704113E+00  0.10144239318E+02  0.25000396593E+00 0.  0.
    1000022    2    1    0    0    0 -0.48144980194E+02 -0.34590107156E+02 -0.17083185655E+02  0.62500000691E+02  0.10000011166E+02 0.  0.
    3000022    2    5    5    0    0 -0.42787316358E+02 -0.32601220563E+02 -0.17783686276E+02  0.56656120749E+02  0.24999487788E+00 0.  0.
        -13    1    4    4    0    0  0.63241574310E+01  0.38118469064E+01 -0.52784002553E+00  0.74037007059E+01  0.10500000000E+00 0.  1.
         13    1    4    4    0    0  0.23264063956E+01  0.14246008831E+01 -0.24056701560E+00  0.27405386118E+01  0.10500000000E+00 0. -1.
    3000001    1    5    5    0    0 -0.53576638357E+01 -0.19888865932E+01  0.70050062097E+00  0.58438799421E+01  0.10000000000E+01 0. -1.
        -13    1    6    6    0    0 -0.22534903959E+02 -0.17147594892E+02 -0.92931183236E+01  0.29803271300E+02  0.10500000000E+00 0. -1.
         13    1    6    6    0    0 -0.20252412400E+02 -0.15453625671E+02 -0.84905679525E+01  0.26852849449E+02  0.10500000000E+00 0.  1.
</event>
<event>
11    0  0.3510903E-009  0.9118800E+02  0.7816531E-02  0.1126479E+00
         25   -1    0    0    0    0  0.00000000000E+00  0.00000000000E+00  0.99999998245E-14  0.12500000000E+03  0.12500000000E+03 0.  0.
    3000001    1    3    3    0    0 -0.12873537232E+02 -0.98301355303E+01 -0.33539033701E+01  0.16571306322E+02  0.10000000000E+01 0.  1.
    1000022    2    1    0    0    0 -0.42954216121E+02 -0.44276372867E+02  0.88778472564E+00  0.62500000247E+02  0.99999996127E+01 0.  0.
    3000022    2    3    3    0    0 -0.30080678889E+02 -0.34446237337E+02  0.42416880957E+01  0.45928693924E+02  0.24999719907E+00 0.  0.
    1000022    2    1    0    0    0  0.42954216121E+02  0.44276372867E+02 -0.88778472564E+00  0.62499999753E+02  0.99999965302E+01 0.  0.
    3000022    2    5    5    0    0  0.32672281860E+02  0.38494916611E+02  0.10595289891E+01  0.50502690084E+02  0.24999450167E+00 0.  0.
        -13    1    4    4    0    0 -0.23025855644E+02 -0.26352146900E+02  0.32558614448E+01  0.35145943338E+02  0.10500000000E+00 0. -1.
         13    1    4    4    0    0 -0.70548232445E+01 -0.80940904372E+01  0.98582665092E+00  0.10782750586E+02  0.10500000000E+00 0.  1.
    3000001    1    5    5    0    0  0.10281934261E+02  0.57814562563E+01 -0.19473137148E+01  0.11997309669E+02  0.10000000000E+01 0. -1.
        -13    1    6    6    0    0  0.13128605529E+02  0.15404712894E+02  0.37684490854E+00  0.20243974402E+02  0.10500000000E+00 0.  1.
         13    1    6    6    0    0  0.19543676331E+02  0.23090203717E+02  0.68268408058E+00  0.30258715683E+02  0.10500000000E+00 0. -1.
</event>
<event>
11    0  0.3510903E-009  0.9118800E+02  0.7816531E-02  0.1126479E+00
         25   -1    0    0    0    0  0.00000000000E+00  0.00000000000E+00  0.99999998245E-14  0.12500000000E+03  0.12500000000E+03 0.  0.
    3000001    1    3    3    0    0 -0.36918420959E+02  0.24739115031E+02  0.21275226264E+01  0.44503033280E+02  0.10000000000E+01 0. -1.
    1000022    2    1    0    0    0 -0.53824161963E+02  0.29554246249E+02  0.59796436584E+01  0.62500001374E+02  0.10000007554E+02 0.  0.
    3000022    2    3    3    0    0 -0.16905741005E+02  0.48151312183E+01  0.38521210321E+01  0.17996968094E+02  0.24991313263E+00 0.  0.
    1000022    2    1    0    0    0  0.53824161963E+02 -0.29554246249E+02 -0.59796436584E+01  0.62499998626E+02  0.99999903757E+01 0.  0.
    3000022    2    5    5    0    0  0.15117738413E+02 -0.34594906852E+01 -0.98384285233E+00  0.15541703111E+02  0.24999657753E+00 0.  0.
        -13    1    4    4    0    0 -0.79336846480E+01  0.22503044318E+01  0.18754973675E+01  0.84578802016E+01  0.10500000000E+00 0.  1.
         13    1    4    4    0    0 -0.89720563565E+01  0.25648267864E+01  0.19766236645E+01  0.95390878925E+01  0.10500000000E+00 0. -1.
    3000001    1    5    5    0    0  0.38706423550E+02 -0.26094755564E+02 -0.49958008061E+01  0.46958295515E+02  0.10000000000E+01 0. -1.
        -13    1    6    6    0    0  0.79745997951E+01 -0.17569807787E+01 -0.50476254320E+00  0.81821166927E+01  0.10500000000E+00 0. -1.
         13    1    6    6    0    0  0.71431386181E+01 -0.17025099065E+01 -0.47908030914E+00  0.73595864179E+01  0.10500000000E+00 0.  1.
</event>
<event>
11    0  0.3510903E-009  0.9118800E+02  0.7816531E-02  0.1126479E+00
         25   -1    0    0    0    0  0.00000000000E+00  0.00000000000E+00  0.99999998245E-14  0.12500000000E+03  0.12500000000E+03 0.  0.
    3000001    1    3    3    0    0 -0.30623357702E+01  0.34392344630E+02 -0.53684205178E+01  0.34957562964E+02  0.10000000000E+01 0.  1.
    1000022    2    1    0    0    0 -0.12836857981E+02  0.60137983477E+02 -0.49887726438E+01  0.62499999959E+02  0.10000008142E+02 0.  0.
    3000022    2    3    3    0    0 -0.97745222106E+01  0.25745638847E+02  0.37964787400E+00  0.27542436995E+02  0.24999803281E+00 0.  0.
    1000022    2    1    0    0    0  0.12836857981E+02 -0.60137983477E+02  0.49887726438E+01  0.62500000041E+02  0.10000008659E+02 0.  0.
    3000022    2    5    5    0    0  0.25955802021E+01 -0.34747515638E+02  0.41424610233E+01  0.35090587954E+02  0.25000003060E+00 0.  0.
        -13    1    4    4    0    0 -0.34619250737E+01  0.90913440703E+01  0.19034296303E+00  0.97306072608E+01  0.10500000000E+00 0. -1.
         13    1    4    4    0    0 -0.63125971370E+01  0.16654294777E+02  0.18930491097E+00  0.17811829734E+02  0.10500000000E+00 0.  1.
    3000001    1    5    5    0    0  0.10241277779E+02 -0.25390467839E+02  0.84631162042E+00  0.27409412088E+02  0.10000000000E+01 0.  1.
        -13    1    6    6    0    0  0.14642593488E+01 -0.20183510135E+02  0.24542803498E+01  0.20385108630E+02  0.10500000000E+00 0.  1.
         13    1    6    6    0    0  0.11313208533E+01 -0.14564005502E+02  0.16881806736E+01  0.14705479323E+02  0.10500000000E+00 0. -1.
</event>
<event>
11    0  0.3510903E-009  0.9118800E+02  0.7816531E-02  0.1126479E+00
         25   -1    0    0    0    0  0.00000000000E+00  0.00000000000E+00  0.99999998245E-14  0.12500000000E+03  0.12500000000E+03 0.  0.
    3000001    1    3    3    0    0 -0.31281630353E+02  0.89288356214E+01 -0.58464757982E+01  0.33067291730E+02  0.10000000000E+01 0.  1.
    1000022    2    1    0    0    0 -0.56083787287E+02  0.24730854388E+02 -0.70173780761E+01  0.62499999510E+02  0.99999994289E+01 0.  0.
    3000022    2    3    3    0    0 -0.24802156933E+02  0.15802018766E+02 -0.11709022779E+01  0.29432707780E+02  0.24997897853E+00 0.  0.
    1000022    2    1    0    0    0  0.56083787287E+02 -0.24730854388E+02  0.70173780761E+01  0.62500000490E+02  0.10000005550E+02 0.  0.
    3000022    2    5    5    0    0  0.81526246056E+01 -0.53144089570E+00  0.27657768772E+01  0.86290056774E+01  0.24999972121E+00 0.  0.
        -13    1    4    4    0    0 -0.13442392756E+02  0.85924102325E+01 -0.69793437152E+00  0.15969520155E+02  0.10500000000E+00 0. -1.
         13    1    4    4    0    0 -0.11359764178E+02  0.72096085339E+01 -0.47296790635E+00  0.13463187625E+02  0.10500000000E+00 0.  1.
    3000001    1    5    5    0    0  0.47931162681E+02 -0.24199413492E+02  0.42516011989E+01  0.53870994812E+02  0.10000000000E+01 0.  1.
        -13    1    6    6    0    0  0.27750718054E+01 -0.17480973252E+00  0.99926825745E+00  0.29565425784E+01  0.10500000000E+00 0.  1.
         13    1    6    6    0    0  0.53775528002E+01 -0.35663116318E+00  0.17665086197E+01  0.56724630990E+01  0.10500000000E+00 0. -1.
</event>
<event>
11    0  0.3510903E-009  0.9118800E+02  0.7816531E-02  0.1126479E+00
         25   -1    0    0    0    0  0.00000000000E+00  0.00000000000E+00  0.99999998245E-14  0.12500000000E+03  0.12500000000E+03 0.  0.
    3000001    1    3    3    0    0  0.22760154931E+02 -0.51358203164E+02 -0.21370275576E+02  0.60111382973E+02  0.10000000000E+01 0. -1.
    1000022    2    1    0    0    0  0.22295439042E+02 -0.53623256702E+02 -0.20825698137E+02  0.62500000357E+02  0.10000004013E+02 0.  0.
    3000022    2    3    3    0    0 -0.46471588852E+00 -0.22650535381E+01  0.54457743933E+00  0.23886173837E+01  0.25000006211E+00 0.  0.
    1000022    2    1    0    0    0 -0.22295439042E+02  0.53623256702E+02  0.20825698137E+02  0.62499999643E+02  0.99999995567E+01 0.  0.
    3000022    2    5    5    0    0 -0.42632928621E+01  0.53678424313E+01 -0.17167569910E+00  0.68615865613E+01  0.24999839376E+00 0.  0.
        -13    1    4    4    0    0 -0.12765769083E+00 -0.93107301246E+00  0.20708604401E+00  0.96804084118E+00  0.10500000000E+00 0. -1.
         13    1    4    4    0    0 -0.33705819769E+00 -0.13339805256E+01  0.33749139531E+00  0.14205765425E+01  0.10500000000E+00 0.  1.
    3000001    1    5    5    0    0 -0.18032146180E+02  0.48255414271E+02  0.20997373836E+02  0.55638413082E+02  0.10000000000E+01 0.  1.
        -13    1    6    6    0    0 -0.23043261857E+01  0.27973624721E+01 -0.10990465274E+00  0.36274315987E+01  0.10500000000E+00 0.  1.
         13    1    6    6    0    0 -0.19589666764E+01  0.25704799592E+01 -0.61771046360E-01  0.32341549626E+01  0.10500000000E+00 0. -1.
</event>
<event>
11    0  0.3510903E-009  0.9118800E+02  0.7816531E-02  0.1126479E+00
         25   -1    0    0    0    0  0.00000000000E+00  0.00000000000E+00  0.99999998245E-14  0.12500000000E+03  0.12500000000E+03 0.  0.
    3000001    1    3    3    0    0  0.28875124469E+01 -0.15376497154E+01 -0.26077956294E+01  0.43014756565E+01  0.10000000000E+01 0. -1.
    1000022    2    1    0    0    0  0.40263610917E+02 -0.45010088581E+02 -0.12616795054E+02  0.62500000062E+02  0.10000002606E+02 0.  0.
    3000022    2    3    3    0    0  0.37376098470E+02 -0.43472438866E+02 -0.10008999425E+02  0.58198524406E+02  0.24999136276E+00 0.  0.
    1000022    2    1    0    0    0 -0.40263610917E+02  0.45010088581E+02  0.12616795054E+02  0.62499999938E+02  0.10000001831E+02 0.  0.
    3000022    2    5    5    0    0 -0.59413047117E+01  0.38364291674E+01  0.42048180672E+01  0.82316639618E+01  0.25001233445E+00 0.  0.
        -13    1    4    4    0    0  0.15075971126E+02 -0.17460739259E+02 -0.39860396437E+01  0.23410721004E+02  0.10500000000E+00 0. -1.
         13    1    4    4    0    0  0.22300127345E+02 -0.26011699606E+02 -0.60229597810E+01  0.34787803402E+02  0.10500000000E+00 0.  1.
    3000001    1    5    5    0    0 -0.34322306206E+02  0.41173659414E+02  0.84119769869E+01  0.54268335976E+02  0.10000000000E+01 0. -1.
        -13    1    6    6    0    0 -0.41091407606E+01  0.25949504671E+01  0.28851798833E+01  0.56527952091E+01  0.10500000000E+00 0. -1.
         13    1    6    6    0    0 -0.18321639512E+01  0.12414787003E+01  0.13196381839E+01  0.25788687527E+01  0.10500000000E+00 0.  1.
</event>
<event>
11    0  0.3510903E-009  0.9118800E+02  0.7816531E-02  0.1126479E+00
         25   -1    0    0    0    0  0.00000000000E+00  0.00000000000E+00  0.99999998245E-14  0.12500000000E+03  0.12500000000E+03 0.  0.
    3000001    1    3    3    0    0  0.35058107832E+01 -0.53539409564E+01  0.99721888597E+01  0.11891170828E+02  0.10000000000E+01 0.  1.
    1000022    2    1    0    0    0  0.33903182316E+02 -0.32160513137E+02  0.40280583367E+02  0.62500001593E+02  0.10000021317E+02 0.  0.
    3000022    2    3    3    0    0  0.30397371533E+02 -0.26806572181E+02  0.30308394507E+02  0.50608830764E+02  0.24993113616E+00 0.  0.
    1000022    2    1    0    0    0 -0.33903182316E+02  0.32160513137E+02 -0.40280583367E+02  0.62499998407E+02  0.10000001409E+02 0.  0.
    3000022    2    5    5    0    0 -0.21313374833E+02  0.16450113718E+02 -0.28249628477E+02  0.39025250743E+02  0.24999666601E+00 0.  0.
        -13    1    4    4    0    0  0.13241242795E+02 -0.11613066980E+02  0.13227012952E+02  0.22026319077E+02  0.10500000000E+00 0. -1.
         13    1    4    4    0    0  0.17156128738E+02 -0.15193505200E+02  0.17081381555E+02  0.28582511688E+02  0.10500000000E+00 0.  1.
    3000001    1    5    5    0    0 -0.12589807483E+02  0.15710399419E+02 -0.12030954889E+02  0.23474747665E+02  0.10000000000E+01 0.  1.
        -13    1    6    6    0    0 -0.63396785263E+01  0.49213496742E+01 -0.83643794462E+01  0.11592457675E+02  0.10500000000E+00 0.  1.
         13    1    6    6    0    0 -0.14973696306E+02  0.11528764044E+02 -0.19885249031E+02  0.27432793068E+02  0.10500000000E+00 0. -1.
</event>
<event>
11    0  0.3510903E-009  0.9118800E+02  0.7816531E-02  0.1126479E+00
         25   -1    0    0    0    0  0.00000000000E+00  0.00000000000E+00  0.99999998245E-14  0.12500000000E+03  0.12500000000E+03 0.  0.
    3000001    1    3    3    0    0  0.48128075000E+00  0.16021171873E+01 -0.26236870735E+01  0.32683550147E+01  0.10000000000E+01 0. -1.
    1000022    2    1    0    0    0 -0.24221265592E+02  0.43380904865E+02 -0.36574273663E+02  0.62499999643E+02  0.99999923819E+01 0.  0.
    3000022    2    3    3    0    0 -0.24702546342E+02  0.41778787677E+02 -0.33950586589E+02  0.59231644628E+02  0.25000005946E+00 0.  0.
    1000022    2    1    0    0    0  0.24221265592E+02 -0.43380904865E+02  0.36574273663E+02  0.62500000357E+02  0.99999968477E+01 0.  0.
    3000022    2    5    5    0    0  0.20591808333E+02 -0.40704186337E+02  0.35378984309E+02  0.57728575128E+02  0.24999977893E+00 0.  0.
        -13    1    4    4    0    0 -0.16449690855E+02  0.27793123371E+02 -0.22654447346E+02  0.39449778776E+02  0.10500000000E+00 0. -1.
         13    1    4    4    0    0 -0.82528554877E+01  0.13985664306E+02 -0.11296139243E+02  0.19781865852E+02  0.10500000000E+00 0.  1.
    3000001    1    5    5    0    0  0.36294572594E+01 -0.26767185278E+01  0.11952893539E+01  0.47714252289E+01  0.10000000000E+01 0. -1.
        -13    1    6    6    0    0  0.11862189788E+02 -0.23414602631E+02  0.20277029323E+02  0.33168118820E+02  0.10500000000E+00 0.  1.
         13    1    6    6    0    0  0.87296185454E+01 -0.17289583706E+02  0.15101954986E+02  0.24560456308E+02  0.10500000000E+00 0. -1.
</event>
<event>
11    0  0.3510903E-009  0.9118800E+02  0.7816531E-02  0.1126479E+00
         25   -1    0    0    0    0  0.00000000000E+00  0.00000000000E+00  0.99999998245E-14  0.12500000000E+03  0.12500000000E+03 0.  0.
    3000001    1    3    3    0    0 -0.17606770487E+02 -0.14237392601E+02 -0.51671830118E+01  0.23246537276E+02  0.10000000000E+01 0. -1.
    1000022    2    1    0    0    0 -0.40154513157E+02 -0.40005553544E+02 -0.24360219894E+02  0.62499995506E+02  0.99999941898E+01 0.  0.
    3000022    2    3    3    0    0 -0.22547742669E+02 -0.25768160944E+02 -0.19193036882E+02  0.39253458230E+02  0.25000074493E+00 0.  0.
    1000022    2    1    0    0    0  0.40154513157E+02  0.40005553544E+02  0.24360219894E+02  0.62500004494E+02  0.10000050360E+02 0.  0.
    3000022    2    5    5    0    0  0.16157765419E+01  0.54325611357E+01  0.35440444156E+01  0.66892601384E+01  0.24999210628E+00 0.  0.
        -13    1    4    4    0    0 -0.12617134299E+02 -0.14506178477E+02 -0.10814283416E+02  0.22058582065E+02  0.10500000000E+00 0. -1.
         13    1    4    4    0    0 -0.99306083706E+01 -0.11261982467E+02 -0.83787534657E+01  0.17194876165E+02  0.10500000000E+00 0.  1.
    3000001    1    5    5    0    0  0.38538736615E+02  0.34572992409E+02  0.20816175478E+02  0.55810744355E+02  0.10000000000E+01 0.  1.
        -13    1    6    6    0    0  0.86192008970E+00  0.29435492934E+01  0.18400481772E+01  0.35782944231E+01  0.10500000000E+00 0. -1.
         13    1    6    6    0    0  0.75385645216E+00  0.24890118423E+01  0.17039962384E+01  0.31109657153E+01  0.10500000000E+00 0.  1.
</event>
<event>
11    0  0.3510903E-009  0.9118800E+02  0.7816531E-02  0.1126479E+00
         25   -1    0    0    0    0  0.00000000000E+00  0.00000000000E+00  0.99999998245E-14  0.12500000000E+03  0.12500000000E+03 0.  0.
    3000001    1    3    3    0    0  0.37892664466E+01 -0.59344085908E+00 -0.30424170665E+01  0.49967002975E+01  0.10000000000E+01 0.  1.
    1000022    2    1    0    0    0  0.41494238552E+02 -0.36647213356E+02 -0.27229761395E+02  0.62500000722E+02  0.10000005243E+02 0.  0.
    3000022    2    3    3    0    0  0.37704972105E+02 -0.36053772497E+02 -0.24187344329E+02  0.57503300425E+02  0.25000265337E+00 0.  0.
    1000022    2    1    0    0    0 -0.41494238552E+02  0.36647213356E+02  0.27229761395E+02  0.62499999278E+02  0.99999962134E+01 0.  0.
    3000022    2    5    5    0    0 -0.19753219005E+02  0.13823136743E+02  0.16379624715E+02  0.29148299618E+02  0.24998871788E+00 0.  0.
        -13    1    4    4    0    0  0.18231097329E+02 -0.17341145168E+02 -0.11681360431E+02  0.27740826089E+02  0.10500000000E+00 0.  1.
         13    1    4    4    0    0  0.19473874776E+02 -0.18712627329E+02 -0.12505983898E+02  0.29762474336E+02  0.10500000000E+00 0. -1.
    3000001    1    5    5    0    0 -0.21741019547E+02  0.22824076613E+02  0.10850136681E+02  0.33351699659E+02  0.10000000000E+01 0.  1.
        -13    1    6    6    0    0 -0.67709018517E+01  0.47358313877E+01  0.55471118511E+01  0.99526220518E+01  0.10500000000E+00 0. -1.
         13    1    6    6    0    0 -0.12982317154E+02  0.90873053553E+01  0.10832512863E+02  0.19195677566E+02  0.10500000000E+00 0.  1.
</event>
<event>
11    0  0.3510903E-009  0.9118800E+02  0.7816531E-02  0.1126479E+00
         25   -1    0    0    0    0  0.00000000000E+00  0.00000000000E+00  0.99999998245E-14  0.12500000000E+03  0.12500000000E+03 0.  0.
    3000001    1    3    3    0    0  0.10664351243E+02 -0.35227520291E+02  0.19878441416E+02  0.41843267157E+02  0.10000000000E+01 0. -1.
    1000022    2    1    0    0    0  0.90203799122E+01 -0.53473906328E+02  0.29418091277E+02  0.62500001227E+02  0.10000007366E+02 0.  0.
    3000022    2    3    3    0    0 -0.16439713305E+01 -0.18246386037E+02  0.95396498603E+01  0.20656734070E+02  0.24999564172E+00 0.  0.
    1000022    2    1    0    0    0 -0.90203799122E+01  0.53473906328E+02 -0.29418091277E+02  0.62499998773E+02  0.99999920250E+01 0.  0.
    3000022    2    5    5    0    0 -0.68796315948E+01  0.34914189872E+02 -0.13944956653E+02  0.38221123730E+02  0.24999558170E+00 0.  0.
        -13    1    4    4    0    0 -0.49794344676E+00 -0.57050785803E+01  0.29300762625E+01  0.64336802211E+01  0.10500000000E+00 0.  1.
         13    1    4    4    0    0 -0.11460278838E+01 -0.12541307457E+02  0.66095735978E+01  0.14223053849E+02  0.10500000000E+00 0. -1.
    3000001    1    5    5    0    0 -0.21407483174E+01  0.18559716456E+02 -0.15473134624E+02  0.24278875043E+02  0.10000000000E+01 0. -1.
        -13    1    6    6    0    0 -0.32292359247E+01  0.16667668487E+02 -0.66966735395E+01  0.18250906798E+02  0.10500000000E+00 0. -1.
         13    1    6    6    0    0 -0.36503956701E+01  0.18246521385E+02 -0.72482831136E+01  0.19970216932E+02  0.10500000000E+00 0.  1.
</event>
<event>
11    0  0.3510903E-009  0.9118800E+02  0.7816531E-02  0.1126479E+00
         25   -1    0    0    0    0  0.00000000000E+00  0.00000000000E+00  0.99999998245E-14  0.12500000000E+03  0.12500000000E+03 0.  0.
    3000001    1    3    3    0    0  0.17973211898E+02 -0.57350586252E+02 -0.59323713233E+01  0.60401317195E+02  0.10000000000E+01 0.  1.
    1000022    2    1    0    0    0  0.17161737269E+02 -0.58825635179E+02 -0.71602610696E+01  0.62500000754E+02  0.10000008765E+02 0.  0.
    3000022    2    3    3    0    0 -0.81147462879E+00 -0.14750489277E+01 -0.12278897463E+01  0.20986835592E+01  0.24999808022E+00 0.  0.
    1000022    2    1    0    0    0 -0.17161737269E+02  0.58825635179E+02  0.71602610696E+01  0.62499999246E+02  0.99999993389E+01 0.  0.
    3000022    2    5    5    0    0 -0.12108460762E+02  0.48418555249E+02  0.24545778703E+01  0.49970579047E+02  0.25000676147E+00 0.  0.
        -13    1    4    4    0    0 -0.41749558205E+00 -0.85901187295E+00 -0.74909368490E+00  0.12183473674E+01  0.10500000000E+00 0.  1.
         13    1    4    4    0    0 -0.39397904674E+00 -0.61603705479E+00 -0.47879606142E+00  0.88033619179E+00  0.10500000000E+00 0. -1.
    3000001    1    5    5    0    0 -0.50532765073E+01  0.10407079930E+02  0.47056831993E+01  0.12529420198E+02  0.10000000000E+01 0.  1.
        -13    1    6    6    0    0 -0.28472924197E+01  0.11371065722E+02  0.56253961105E+00  0.11736084764E+02  0.10500000000E+00 0.  1.
         13    1    6    6    0    0 -0.92611683425E+01  0.37047489527E+02  0.18920382592E+01  0.38234494283E+02  0.10500000000E+00 0. -1.
</event>
<event>
11    0  0.3510903E-009  0.9118800E+02  0.7816531E-02  0.1126479E+00
         25   -1    0    0    0    0  0.00000000000E+00  0.00000000000E+00  0.99999998245E-14  0.12500000000E+03  0.12500000000E+03 0.  0.
    3000001    1    3    3    0    0 -0.78008477236E+01 -0.10331157083E+02 -0.39771306981E+01  0.13579528728E+02  0.10000000000E+01 0. -1.
    1000022    2    1    0    0    0 -0.44093298997E+02 -0.43090375053E+02 -0.22914141736E+01  0.62500000133E+02  0.99999999520E+01 0.  0.
    3000022    2    3    3    0    0 -0.36292451273E+02 -0.32759217970E+02  0.16857165245E+01  0.48920471405E+02  0.25000169079E+00 0.  0.
    1000022    2    1    0    0    0  0.44093298997E+02  0.43090375053E+02  0.22914141736E+01  0.62499999867E+02  0.99999982904E+01 0.  0.
    3000022    2    5    5    0    0  0.58612294760E+00  0.29715791204E+01  0.12913113656E+01  0.33020914537E+01  0.25000069451E+00 0.  0.
        -13    1    4    4    0    0 -0.25351364335E+02 -0.22908146171E+02  0.12203998172E+01  0.34190279837E+02  0.10500000000E+00 0. -1.
         13    1    4    4    0    0 -0.10941086939E+02 -0.98510717988E+01  0.46531670730E+00  0.14730191568E+02  0.10500000000E+00 0.  1.
    3000001    1    5    5    0    0  0.43507176049E+02  0.40118795933E+02  0.10001028080E+01  0.59197908413E+02  0.10000000000E+01 0. -1.
        -13    1    6    6    0    0  0.46482488922E+00  0.22341567227E+01  0.96273438520E+00  0.24789919192E+01  0.10500000000E+00 0. -1.
         13    1    6    6    0    0  0.12129805838E+00  0.73742239771E+00  0.32857698043E+00  0.82309953449E+00  0.10500000000E+00 0.  1.
</event>
<event>
11    0  0.3510903E-009  0.9118800E+02  0.7816531E-02  0.1126479E+00
         25   -1    0    0    0    0  0.00000000000E+00  0.00000000000E+00  0.99999998245E-14  0.12500000000E+03  0.12500000000E+03 0.  0.
    3000001    1    3    3    0    0 -0.48361796174E+02 -0.26017423287E+02 -0.13135565375E+02  0.56474000401E+02  0.10000000000E+01 0. -1.
    1000022    2    1    0    0    0 -0.53508581796E+02 -0.28551702070E+02 -0.11308494355E+02  0.62499998748E+02  0.99999890987E+01 0.  0.
    3000022    2    3    3    0    0 -0.51467856228E+01 -0.25342787832E+01  0.18270710201E+01  0.60259983466E+01  0.24999272546E+00 0.  0.
    1000022    2    1    0    0    0  0.53508581796E+02  0.28551702070E+02  0.11308494355E+02  0.62500001252E+02  0.10000004749E+02 0.  0.
    3000022    2    5    5    0    0  0.12649389670E+02  0.96959605153E+01 -0.56190043505E+00  0.15949825707E+02  0.24999730036E+00 0.  0.
        -13    1    4    4    0    0 -0.17544841170E+01 -0.86343910032E+00  0.68097383609E+00  0.20732804833E+01  0.10500000000E+00 0. -1.
         13    1    4    4    0    0 -0.33923015058E+01 -0.16708396829E+01  0.11460971840E+01  0.39527178633E+01  0.10500000000E+00 0.  1.
    3000001    1    5    5    0    0  0.40859192126E+02  0.18855741554E+02  0.11870394790E+02  0.46550175545E+02  0.10000000000E+01 0.  1.
        -13    1    6    6    0    0  0.57121104332E+01  0.44586340752E+01 -0.27593595478E+00  0.72522264905E+01  0.10500000000E+00 0. -1.
         13    1    6    6    0    0  0.69372792370E+01  0.52373264400E+01 -0.28596448026E+00  0.86975992168E+01  0.10500000000E+00 0.  1.
</event>
<event>
11    0  0.3510903E-009  0.9118800E+02  0.7816531E-02  0.1126479E+00
         25   -1    0    0    0    0  0.00000000000E+00  0.00000000000E+00  0.99999998245E-14  0.12500000000E+03  0.12500000000E+03 0.  0.
    3000001    1    3    3    0    0 -0.19313774192E+02  0.95866501009E+01  0.91026519268E+01  0.23426139370E+02  0.10000000000E+01 0. -1.
    1000022    2    1    0    0    0 -0.43515731768E+02  0.35370508112E+02  0.25720774978E+02  0.62500000390E+02  0.10000001398E+02 0.  0.
    3000022    2    3    3    0    0 -0.24201957576E+02  0.25783858011E+02  0.16618123051E+02  0.39073861020E+02  0.25003369547E+00 0.  0.
    1000022    2    1    0    0    0  0.43515731768E+02 -0.35370508112E+02 -0.25720774978E+02  0.62499999610E+02  0.99999965191E+01 0.  0.
    3000022    2    5    5    0    0  0.31495562005E+02 -0.28366635869E+02 -0.23216899462E+02  0.48329322134E+02  0.25000153884E+00 0.  0.
        -13    1    4    4    0    0 -0.17409170227E+02  0.18602825406E+02  0.11984388411E+02  0.28156365385E+02  0.10500000000E+00 0.  1.
         13    1    4    4    0    0 -0.67927873489E+01  0.71810326047E+01  0.46337346400E+01  0.10917495635E+02  0.10500000000E+00 0. -1.
    3000001    1    5    5    0    0  0.12020169763E+02 -0.70038722429E+01 -0.25038755156E+01  0.14170677476E+02  0.10000000000E+01 0.  1.
        -13    1    6    6    0    0  0.20291381679E+02 -0.18227325730E+02 -0.14991340883E+02  0.31124377909E+02  0.10500000000E+00 0. -1.
         13    1    6    6    0    0  0.11204180326E+02 -0.10139310138E+02 -0.82255585795E+01  0.17204944225E+02  0.10500000000E+00 0.  1.
</event>
<event>
11    0  0.3510903E-009  0.9118800E+02  0.7816531E-02  0.1126479E+00
         25   -1    0    0    0    0  0.00000000000E+00  0.00000000000E+00  0.99999998245E-14  0.12500000000E+03  0.12500000000E+03 0.  0.
    3000001    1    3    3    0    0  0.30740091830E+01 -0.37569014830E+02 -0.16688611052E+02  0.41235787207E+02  0.10000000000E+01 0. -1.
    1000022    2    1    0    0    0  0.65981577212E+01 -0.52993872756E+02 -0.30892778578E+02  0.62499999873E+02  0.99999990407E+01 0.  0.
    3000022    2    3    3    0    0  0.35241485382E+01 -0.15424857926E+02 -0.14204167526E+02  0.21264212666E+02  0.25000044214E+00 0.  0.
    1000022    2    1    0    0    0 -0.65981577212E+01  0.52993872756E+02  0.30892778578E+02  0.62500000127E+02  0.10000000630E+02 0.  0.
    3000022    2    5    5    0    0 -0.58935964307E+01  0.12927869479E+02  0.91022004915E+01  0.16875332254E+02  0.24999345226E+00 0.  0.
        -13    1    4    4    0    0  0.18600877861E+01 -0.80816892008E+01 -0.75337651538E+01  0.11204564664E+02  0.10500000000E+00 0. -1.
         13    1    4    4    0    0  0.16640607521E+01 -0.73431687255E+01 -0.66704023719E+01  0.10059648002E+02  0.10500000000E+00 0.  1.
    3000001    1    5    5    0    0 -0.70456129056E+00  0.40066003277E+02  0.21790578087E+02  0.45624667874E+02  0.10000000000E+01 0. -1.
        -13    1    6    6    0    0 -0.32660468401E+01  0.71451695167E+01  0.49544710872E+01  0.92886122827E+01  0.10500000000E+00 0.  1.
         13    1    6    6    0    0 -0.26275495906E+01  0.57826999623E+01  0.41477294043E+01  0.75867199709E+01  0.10500000000E+00 0. -1.
</event>
<event>
11    0  0.3510903E-009  0.9118800E+02  0.7816531E-02  0.1126479E+00
         25   -1    0    0    0    0  0.00000000000E+00  0.00000000000E+00  0.99999998245E-14  0.12500000000E+03  0.12500000000E+03 0.  0.
    3000001    1    3    3    0    0 -0.52575759132E+01  0.65280116620E+01 -0.17672365841E+02  0.19584931839E+02  0.10000000000E+01 0. -1.
    1000022    2    1    0    0    0 -0.33346083613E+01  0.26371478355E+02 -0.55674729546E+02  0.62500000570E+02  0.10000003886E+02 0.  0.
    3000022    2    3    3    0    0  0.19229675518E+01  0.19843466693E+02 -0.38002363706E+02  0.42915068731E+02  0.25000480215E+00 0.  0.
    1000022    2    1    0    0    0  0.33346083613E+01 -0.26371478355E+02  0.55674729546E+02  0.62499999430E+02  0.99999967565E+01 0.  0.
    3000022    2    5    5    0    0 -0.10271800822E+01 -0.47307361749E+01  0.39521477420E+01  0.62543561405E+01  0.25007054992E+00 0.  0.
        -13    1    4    4    0    0  0.91109147461E+00  0.10032879670E+02 -0.19138450827E+02  0.21628224319E+02  0.10500000000E+00 0.  1.
         13    1    4    4    0    0  0.10118760772E+01  0.98105870230E+01 -0.18863912879E+02  0.21286844412E+02  0.10500000000E+00 0. -1.
    3000001    1    5    5    0    0  0.43617884435E+01 -0.21640742180E+02  0.51722581804E+02  0.56245643289E+02  0.10000000000E+01 0.  1.
        -13    1    6    6    0    0 -0.53466457428E+00 -0.24190758632E+01  0.19357474147E+01  0.31457808717E+01  0.10500000000E+00 0.  1.
         13    1    6    6    0    0 -0.49251550789E+00 -0.23116603117E+01  0.20164003273E+01  0.31085752688E+01  0.10500000000E+00 0. -1.
</event>
<event>
11    0  0.3510903E-009  0.9118800E+02  0.7816531E-02  0.1126479E+00
         25   -1    0    0    0    0  0.00000000000E+00  0.00000000000E+00  0.99999998245E-14  0.12500000000E+03  0.12500000000E+03 0.  0.
    3000001    1    3    3    0    0  0.59437844888E+01  0.36064738604E+02  0.13921079618E+02  0.39125316642E+02  0.10000000000E+01 0.  1.
    1000022    2    1    0    0    0  0.50842624255E+01  0.59309961098E+02  0.16208908874E+02  0.62499999667E+02  0.10000001084E+02 0.  0.
    3000022    2    3    3    0    0 -0.85952206332E+00  0.23245222494E+02  0.22878292561E+01  0.23374683025E+02  0.24999370359E+00 0.  0.
    1000022    2    1    0    0    0 -0.50842624255E+01 -0.59309961098E+02 -0.16208908874E+02  0.62500000333E+02  0.10000005241E+02 0.  0.
    3000022    2    5    5    0    0  0.10317602615E+01 -0.87150917847E+01 -0.56631199802E+01  0.10447524909E+02  0.24998951561E+00 0.  0.
        -13    1    4    4    0    0 -0.64673370229E+00  0.17784390141E+02  0.17406731469E+01  0.17881380404E+02  0.10500000000E+00 0.  1.
         13    1    4    4    0    0 -0.21278836102E+00  0.54608323535E+01  0.54715610920E+00  0.54933026211E+01  0.10500000000E+00 0. -1.
    3000001    1    5    5    0    0 -0.61160226870E+01 -0.50594869313E+02 -0.10545788894E+02  0.52052475424E+02  0.10000000000E+01 0.  1.
        -13    1    6    6    0    0  0.67225134496E+00 -0.60757776754E+01 -0.39460393302E+01  0.72766233671E+01  0.10500000000E+00 0.  1.
         13    1    6    6    0    0  0.35950891653E+00 -0.26393141093E+01 -0.17170806500E+01  0.31709015418E+01  0.10500000000E+00 0. -1.
</event>
<event>
11    0  0.3510903E-009  0.9118800E+02  0.7816531E-02  0.1126479E+00
         25   -1    0    0    0    0  0.00000000000E+00  0.00000000000E+00  0.99999998245E-14  0.12500000000E+03  0.12500000000E+03 0.  0.
    3000001    1    3    3    0    0  0.86038168600E+01 -0.18660858654E+02 -0.10556951936E+02  0.23123636056E+02  0.10000000000E+01 0.  1.
    1000022    2    1    0    0    0  0.27442425805E+02 -0.52708300946E+02 -0.16583070442E+02  0.62500000974E+02  0.10000008688E+02 0.  0.
    3000022    2    3    3    0    0  0.18838608945E+02 -0.34047442292E+02 -0.60261185052E+01  0.39376364917E+02  0.24999256850E+00 0.  0.
    1000022    2    1    0    0    0 -0.27442425805E+02  0.52708300946E+02  0.16583070442E+02  0.62499999026E+02  0.99999965189E+01 0.  0.
    3000022    2    5    5    0    0 -0.93649212108E+01  0.24426721639E+02  0.11336529100E+02  0.28512205681E+02  0.25000289467E+00 0.  0.
        -13    1    4    4    0    0  0.10802955410E+02 -0.19654131728E+02 -0.34559495944E+01  0.22692363301E+02  0.10500000000E+00 0. -1.
         13    1    4    4    0    0  0.80356535344E+01 -0.14393310563E+02 -0.25701689108E+01  0.16684001616E+02  0.10500000000E+00 0.  1.
    3000001    1    5    5    0    0 -0.18077504594E+02  0.28281579307E+02  0.52465413415E+01  0.33987793345E+02  0.10000000000E+01 0.  1.
        -13    1    6    6    0    0 -0.54428973226E+01  0.14028368864E+02  0.64936284688E+01  0.16388974951E+02  0.10500000000E+00 0. -1.
         13    1    6    6    0    0 -0.39220238882E+01  0.10398352775E+02  0.48429006313E+01  0.12123230730E+02  0.10500000000E+00 0.  1.
</event>
<event>
11    0  0.3510903E-009  0.9118800E+02  0.7816531E-02  0.1126479E+00
         25   -1    0    0    0    0  0.00000000000E+00  0.00000000000E+00  0.99999998245E-14  0.12500000000E+03  0.12500000000E+03 0.  0.
    3000001    1    3    3    0    0 -0.36232926150E+02 -0.11594240245E+02 -0.34639550736E+02  0.51460177025E+02  0.10000000000E+01 0.  1.
    1000022    2    1    0    0    0 -0.40720201113E+02 -0.17136920382E+02 -0.43063222908E+02  0.62500000406E+02  0.10000003230E+02 0.  0.
    3000022    2    3    3    0    0 -0.44872749632E+01 -0.55426801376E+01 -0.84236721724E+01  0.11039823381E+02  0.25001542439E+00 0.  0.
    1000022    2    1    0    0    0  0.40720201113E+02  0.17136920382E+02  0.43063222908E+02  0.62499999594E+02  0.99999981607E+01 0.  0.
    3000022    2    5    5    0    0  0.18798273330E+02  0.10197403030E+02  0.26945450163E+02  0.34401771589E+02  0.24999043012E+00 0.  0.
        -13    1    4    4    0    0 -0.29108010798E+01 -0.35077441149E+01 -0.54112732793E+01  0.70760112497E+01  0.10500000000E+00 0. -1.
         13    1    4    4    0    0 -0.15764738834E+01 -0.20349360228E+01 -0.30123988930E+01  0.39638121313E+01  0.10500000000E+00 0.  1.
    3000001    1    5    5    0    0  0.21921927782E+02  0.69395173526E+01  0.16117772745E+02  0.28098228005E+02  0.10000000000E+01 0. -1.
        -13    1    6    6    0    0  0.63815849646E+01  0.34469084438E+01  0.92243007443E+01  0.11734758357E+02  0.10500000000E+00 0.  1.
         13    1    6    6    0    0  0.12416688366E+02  0.67504945860E+01  0.17721149419E+02  0.22667013232E+02  0.10500000000E+00 0. -1.
</event>
<event>
11    0  0.3510903E-009  0.9118800E+02  0.7816531E-02  0.1126479E+00
         25   -1    0    0    0    0  0.00000000000E+00  0.00000000000E+00  0.99999998245E-14  0.12500000000E+03  0.12500000000E+03 0.  0.
    3000001    1    3    3    0    0  0.24714148070E+02  0.21637602760E+01 -0.26540539484E+02  0.36343791897E+02  0.10000000000E+01 0. -1.
    1000022    2    1    0    0    0  0.42954106640E+02 -0.45190727049E+01 -0.44054201502E+02  0.62499999570E+02  0.99999990488E+01 0.  0.
    3000022    2    3    3    0    0  0.18239958570E+02 -0.66828329809E+01 -0.17513662018E+02  0.26156207674E+02  0.24999456860E+00 0.  0.
    1000022    2    1    0    0    0 -0.42954106640E+02  0.45190727049E+01  0.44054201502E+02  0.62500000430E+02  0.10000004418E+02 0.  0.
    3000022    2    5    5    0    0 -0.12704876781E+02 -0.30989344378E+00  0.19268219720E+02  0.23083256347E+02  0.25000892854E+00 0.  0.
        -13    1    4    4    0    0  0.66894344371E+01 -0.24816986432E+01 -0.63635299433E+01  0.95610093392E+01  0.10500000000E+00 0. -1.
         13    1    4    4    0    0  0.11550524133E+02 -0.42011343377E+01 -0.11150132075E+02  0.16595198334E+02  0.10500000000E+00 0.  1.
    3000001    1    5    5    0    0 -0.30249229859E+02  0.48289661487E+01  0.24785981782E+02  0.39416744082E+02  0.10000000000E+01 0. -1.
        -13    1    6    6    0    0 -0.34032397468E+01 -0.11474132770E+00  0.51917926555E+01  0.62097457536E+01  0.10500000000E+00 0.  1.
         13    1    6    6    0    0 -0.93016370340E+01 -0.19515211608E+00  0.14076427064E+02  0.16873510594E+02  0.10500000000E+00 0. -1.
</event>
<event>
11    0  0.3510903E-009  0.9118800E+02  0.7816531E-02  0.1126479E+00
         25   -1    0    0    0    0  0.00000000000E+00  0.00000000000E+00  0.99999998245E-14  0.12500000000E+03  0.12500000000E+03 0.  0.
    3000001    1    3    3    0    0 -0.25571569124E+02  0.44104671575E+02 -0.10859469853E+02  0.52134971830E+02  0.10000000000E+01 0.  1.
    1000022    2    1    0    0    0 -0.27443804499E+02  0.54281985117E+02 -0.10322488140E+02  0.62500000914E+02  0.10000001958E+02 0.  0.
    3000022    2    3    3    0    0 -0.18722353751E+01  0.10177313543E+02  0.53698171298E+00  0.10365029084E+02  0.25000462978E+00 0.  0.
    1000022    2    1    0    0    0  0.27443804499E+02 -0.54281985117E+02  0.10322488140E+02  0.62499999086E+02  0.99999905355E+01 0.  0.
    3000022    2    5    5    0    0  0.20154362263E+02 -0.30495771843E+02  0.85334439182E+01  0.37537615601E+02  0.25000271493E+00 0.  0.
        -13    1    4    4    0    0 -0.82543081774E+00  0.42309055091E+01  0.17870705013E+00  0.43156527515E+01  0.10500000000E+00 0.  1.
         13    1    4    4    0    0 -0.10468045573E+01  0.59464080335E+01  0.35827466285E+00  0.60493763328E+01  0.10500000000E+00 0. -1.
    3000001    1    5    5    0    0  0.72894422357E+01 -0.23786213274E+02  0.17890442220E+01  0.24962383485E+02  0.10000000000E+01 0.  1.
        -13    1    6    6    0    0  0.10811424315E+02 -0.16257767175E+02  0.45192054631E+01  0.20040861565E+02  0.10500000000E+00 0. -1.
         13    1    6    6    0    0  0.93429379476E+01 -0.14238004668E+02  0.40142384551E+01  0.17496754036E+02  0.10500000000E+00 0.  1.
</event>
<event>
11    0  0.3510903E-009  0.9118800E+02  0.7816531E-02  0.1126479E+00
         25   -1    0    0    0    0  0.00000000000E+00  0.00000000000E+00  0.99999998245E-14  0.12500000000E+03  0.12500000000E+03 0.  0.
    3000001    1    3    3    0    0  0.19211263996E+01  0.12539267717E+01  0.34512754827E+02  0.34603371291E+02  0.10000000000E+01 0.  1.
    1000022    2    1    0    0    0 -0.53734250340E+01  0.21712128329E+01  0.61422000443E+02  0.62500000027E+02  0.10000000162E+02 0.  0.
    3000022    2    3    3    0    0 -0.72945514337E+01  0.91728606124E+00  0.26909245616E+02  0.27896628736E+02  0.25000173781E+00 0.  0.
    1000022    2    1    0    0    0  0.53734250340E+01 -0.21712128329E+01 -0.61422000443E+02  0.62499999973E+02  0.99999998194E+01 0.  0.
    3000022    2    5    5    0    0  0.47832602454E+01 -0.46511889982E+01 -0.22192558411E+02  0.23175100756E+02  0.25001709678E+00 0.  0.
        -13    1    4    4    0    0 -0.49852210988E+01  0.67400747097E+00  0.18471280593E+02  0.19144345045E+02  0.10500000000E+00 0. -1.
         13    1    4    4    0    0 -0.23093303349E+01  0.24327859026E+00  0.84379650237E+01  0.87522836911E+01  0.10500000000E+00 0.  1.
    3000001    1    5    5    0    0  0.59016478861E+00  0.24799761653E+01 -0.39229442032E+02  0.39324899216E+02  0.10000000000E+01 0.  1.
        -13    1    6    6    0    0  0.36602110731E+01 -0.35602917117E+01 -0.16926482413E+02  0.17680205147E+02  0.10500000000E+00 0.  1.
         13    1    6    6    0    0  0.11230491723E+01 -0.10908972866E+01 -0.52660759986E+01  0.54948956093E+01  0.10500000000E+00 0. -1.
</event>
<event>
11    0  0.3510903E-009  0.9118800E+02  0.7816531E-02  0.1126479E+00
         25   -1    0    0    0    0  0.00000000000E+00  0.00000000000E+00  0.99999998245E-14  0.12500000000E+03  0.12500000000E+03 0.  0.
    3000001    1    3    3    0    0 -0.48824328274E+01  0.55881097167E+01  0.59138653914E+01  0.95414319883E+01  0.10000000000E+01 0.  1.
    1000022    2    1    0    0    0 -0.46147852574E+02  0.18950945339E+02  0.36297205840E+02  0.62500001816E+02  0.10000022435E+02 0.  0.
    3000022    2    3    3    0    0 -0.41265419747E+02  0.13362835622E+02  0.30383340449E+02  0.52958569827E+02  0.24999717790E+00 0.  0.
    1000022    2    1    0    0    0  0.46147852574E+02 -0.18950945339E+02 -0.36297205840E+02  0.62499998184E+02  0.99999997385E+01 0.  0.
    3000022    2    5    5    0    0  0.12860117991E+02 -0.50319338466E+01 -0.48829563388E+01  0.14649530827E+02  0.24999570742E+00 0.  0.
        -13    1    4    4    0    0 -0.24371067226E+02  0.79459616125E+01  0.18002178117E+02  0.31323739650E+02  0.10500000000E+00 0. -1.
         13    1    4    4    0    0 -0.16894352521E+02  0.54168740099E+01  0.12381162331E+02  0.21634830177E+02  0.10500000000E+00 0.  1.
    3000001    1    5    5    0    0  0.33287734583E+02 -0.13919011492E+02 -0.31414249501E+02  0.47850467358E+02  0.10000000000E+01 0.  1.
        -13    1    6    6    0    0  0.75050104239E+01 -0.30024662364E+01 -0.28373246110E+01  0.85674629215E+01  0.10500000000E+00 0.  1.
         13    1    6    6    0    0  0.53551075672E+01 -0.20294676102E+01 -0.20456317277E+01  0.60820679051E+01  0.10500000000E+00 0. -1.
</event>
<event>
11    0  0.3510903E-009  0.9118800E+02  0.7816531E-02  0.1126479E+00
         25   -1    0    0    0    0  0.00000000000E+00  0.00000000000E+00  0.99999998245E-14  0.12500000000E+03  0.12500000000E+03 0.  0.
    3000001    1    3    3    0    0 -0.27526723205E+02  0.12007598589E+02  0.40594698316E+02  0.50505766459E+02  0.10000000000E+01 0.  1.
    1000022    2    1    0    0    0 -0.36258896542E+02  0.17425388027E+02  0.46774975514E+02  0.62499999239E+02  0.99999922110E+01 0.  0.
    3000022    2    3    3    0    0 -0.87321733372E+01  0.54177894388E+01  0.61802771980E+01  0.11994232780E+02  0.25000029010E+00 0.  0.
    1000022    2    1    0    0    0  0.36258896542E+02 -0.17425388027E+02 -0.46774975514E+02  0.62500000761E+02  0.10000001721E+02 0.  0.
    3000022    2    5    5    0    0  0.36560753200E+02 -0.16942404787E+02 -0.45297595902E+02  0.60627291288E+02  0.24999978784E+00 0.  0.
        -13    1    4    4    0    0 -0.53712465802E+01  0.32958571724E+01  0.37274578661E+01  0.73224266107E+01  0.10500000000E+00 0. -1.
         13    1    4    4    0    0 -0.33609267571E+01  0.21219322664E+01  0.24528193319E+01  0.46718061694E+01  0.10500000000E+00 0.  1.
    3000001    1    5    5    0    0 -0.30185665772E+00 -0.48298324022E+00 -0.14773796115E+01  0.18727094726E+01  0.10000000000E+01 0. -1.
        -13    1    6    6    0    0  0.11940909797E+02 -0.54841998565E+01 -0.14811554555E+02  0.19800377476E+02  0.10500000000E+00 0. -1.
         13    1    6    6    0    0  0.24619843403E+02 -0.11458204931E+02 -0.30486041347E+02  0.40826913812E+02  0.10500000000E+00 0.  1.
</event>
<event>
11    0  0.3510903E-009  0.9118800E+02  0.7816531E-02  0.1126479E+00
         25   -1    0    0    0    0  0.00000000000E+00  0.00000000000E+00  0.99999998245E-14  0.12500000000E+03  0.12500000000E+03 0.  0.
    3000001    1    3    3    0    0 -0.36876628934E+01  0.20173850479E+02  0.30396249246E+02  0.36681263187E+02  0.10000000000E+01 0.  1.
    1000022    2    1    0    0    0  0.20087604410E+01  0.34325114785E+02  0.51225007806E+02  0.62500000590E+02  0.10000001281E+02 0.  0.
    3000022    2    3    3    0    0  0.56964233344E+01  0.14151264306E+02  0.20828758560E+02  0.25818737403E+02  0.24999543056E+00 0.  0.
    1000022    2    1    0    0    0 -0.20087604410E+01 -0.34325114785E+02 -0.51225007806E+02  0.62499999410E+02  0.99999939028E+01 0.  0.
    3000022    2    5    5    0    0 -0.15444466618E+01 -0.25594306192E+01 -0.11990265755E+01  0.32305040870E+01  0.24998268350E+00 0.  0.
        -13    1    4    4    0    0  0.27526290643E+01  0.69878018346E+01  0.10319415210E+02  0.12763529939E+02  0.10500000000E+00 0.  1.
         13    1    4    4    0    0  0.29437942702E+01  0.71634624713E+01  0.10509343350E+02  0.13055207464E+02  0.10500000000E+00 0. -1.
    3000001    1    5    5    0    0 -0.46431377918E+00 -0.31765684165E+02 -0.50025981230E+02  0.59269495323E+02  0.10000000000E+01 0.  1.
        -13    1    6    6    0    0 -0.50341915622E+00 -0.74667623320E+00 -0.35221668614E+00  0.97264476459E+00  0.10500000000E+00 0. -1.
         13    1    6    6    0    0 -0.10410275056E+01 -0.18127543860E+01 -0.84680988940E+00  0.22578593225E+01  0.10500000000E+00 0.  1.
</event>
<event>
11    0  0.3510903E-009  0.9118800E+02  0.7816531E-02  0.1126479E+00
         25   -1    0    0    0    0  0.00000000000E+00  0.00000000000E+00  0.99999998245E-14  0.12500000000E+03  0.12500000000E+03 0.  0.
    3000001    1    3    3    0    0  0.70023050191E+01 -0.28343170801E+02 -0.27449589676E+02  0.40085503364E+02  0.10000000000E+01 0. -1.
    1000022    2    1    0    0    0  0.11550215900E+02 -0.38169350343E+02 -0.47073805636E+02  0.62499999844E+02  0.10000000525E+02 0.  0.
    3000022    2    3    3    0    0  0.45479108813E+01 -0.98261795421E+01 -0.19624215960E+02  0.22414496479E+02  0.25000519029E+00 0.  0.
    1000022    2    1    0    0    0 -0.11550215900E+02  0.38169350343E+02  0.47073805636E+02  0.62500000156E+02  0.10000002478E+02 0.  0.
    3000022    2    5    5    0    0 -0.46255293416E+01  0.48044155770E+01  0.11001526093E+02  0.12867556057E+02  0.24998355129E+00 0.  0.
        -13    1    4    4    0    0  0.28101681681E+01 -0.59996229264E+01 -0.12117793101E+02  0.13811026574E+02  0.10500000000E+00 0.  1.
         13    1    4    4    0    0  0.17377427132E+01 -0.38265566157E+01 -0.75064228596E+01  0.86034699056E+01  0.10500000000E+00 0. -1.
    3000001    1    5    5    0    0 -0.69246865588E+01  0.33364934766E+02  0.36072279542E+02  0.49632444099E+02  0.10000000000E+01 0.  1.
        -13    1    6    6    0    0 -0.33051729571E+01  0.34106413947E+01  0.79071925920E+01  0.92244979640E+01  0.10500000000E+00 0. -1.
         13    1    6    6    0    0 -0.13203563845E+01  0.13937741823E+01  0.30943335014E+01  0.36430580933E+01  0.10500000000E+00 0.  1.
</event>
<event>
11    0  0.3510903E-009  0.9118800E+02  0.7816531E-02  0.1126479E+00
         25   -1    0    0    0    0  0.00000000000E+00  0.00000000000E+00  0.99999998245E-14  0.12500000000E+03  0.12500000000E+03 0.  0.
    3000001    1    3    3    0    0 -0.24669565821E+01  0.37115506421E+02 -0.77102611722E+01  0.38001247598E+02  0.10000000000E+01 0.  1.
    1000022    2    1    0    0    0  0.11017006855E+01  0.58894252617E+02 -0.18344034006E+02  0.62499997140E+02  0.99999661552E+01 0.  0.
    3000022    2    3    3    0    0  0.35686572677E+01  0.21778746196E+02 -0.10633772834E+02  0.24498749542E+02  0.25000769890E+00 0.  0.
    1000022    2    1    0    0    0 -0.11017006855E+01 -0.58894252617E+02  0.18344034006E+02  0.62500002860E+02  0.10000001911E+02 0.  0.
    3000022    2    5    5    0    0 -0.94011195571E-01 -0.51780538284E+00 -0.85187276372E+00  0.10320610818E+01  0.25000470299E+00 0.  0.
        -13    1    4    4    0    0  0.22067960351E+01  0.13200269906E+02 -0.64984246419E+01  0.14878092020E+02  0.10500000000E+00 0. -1.
         13    1    4    4    0    0  0.13618612325E+01  0.85784762903E+01 -0.41353481919E+01  0.96206575216E+01  0.10500000000E+00 0.  1.
    3000001    1    5    5    0    0 -0.10076894900E+01 -0.58376447234E+02  0.19195906770E+02  0.61467941779E+02  0.10000000000E+01 0.  1.
        -13    1    6    6    0    0 -0.86353338615E-01 -0.22198339864E+00 -0.30065543890E+00  0.39768356931E+00  0.10500000000E+00 0.  1.
         13    1    6    6    0    0 -0.76578569557E-02 -0.29582198420E+00 -0.55121732482E+00  0.63437751244E+00  0.10500000000E+00 0. -1.
</event>
<event>
11    0  0.3510903E-009  0.9118800E+02  0.7816531E-02  0.1126479E+00
         25   -1    0    0    0    0  0.00000000000E+00  0.00000000000E+00  0.99999998245E-14  0.12500000000E+03  0.12500000000E+03 0.  0.
    3000001    1    3    3    0    0  0.30098880215E+01 -0.23438655347E+01 -0.57675600888E+01  0.69869793848E+01  0.10000000000E+01 0. -1.
    1000022    2    1    0    0    0  0.29319937843E+02  0.57064455559E+01 -0.53981735688E+02  0.62500000549E+02  0.10000000236E+02 0.  0.
    3000022    2    3    3    0    0  0.26310049822E+02  0.80503110905E+01 -0.48214175599E+02  0.55513021164E+02  0.25011952064E+00 0.  0.
    1000022    2    1    0    0    0 -0.29319937843E+02 -0.57064455559E+01  0.53981735688E+02  0.62499999451E+02  0.99999933766E+01 0.  0.
    3000022    2    5    5    0    0 -0.89011947938E+01  0.19319644147E+01  0.10906948877E+02  0.14212240823E+02  0.25000026916E+00 0.  0.
        -13    1    4    4    0    0  0.18747312763E+02  0.57038621258E+01 -0.34279327226E+02  0.39485175434E+02  0.10500000000E+00 0. -1.
         13    1    4    4    0    0  0.75627370584E+01  0.23464489647E+01 -0.13934848373E+02  0.16027845730E+02  0.10500000000E+00 0.  1.
    3000001    1    5    5    0    0 -0.20418743050E+02 -0.76384099706E+01  0.43074786811E+02  0.48287758629E+02  0.10000000000E+01 0. -1.
        -13    1    6    6    0    0 -0.32268629187E+01  0.75344855613E+00  0.40113257564E+01  0.52040453829E+01  0.10500000000E+00 0. -1.
         13    1    6    6    0    0 -0.56743318751E+01  0.11785158586E+01  0.68956231206E+01  0.90081954396E+01  0.10500000000E+00 0.  1.
</event>
<event>
11    0  0.3510903E-009  0.9118800E+02  0.7816531E-02  0.1126479E+00
         25   -1    0    0    0    0  0.00000000000E+00  0.00000000000E+00  0.99999998245E-14  0.12500000000E+03  0.12500000000E+03 0.  0.
    3000001    1    3    3    0    0 -0.54596999902E+01 -0.10126366304E+02 -0.13234130733E+02  0.17563992564E+02  0.10000000000E+01 0.  1.
    1000022    2    1    0    0    0 -0.38946881624E+01 -0.37215972692E+02 -0.49051529688E+02  0.62499998255E+02  0.99999998967E+01 0.  0.
    3000022    2    3    3    0    0  0.15650118278E+01 -0.27089606387E+02 -0.35817398954E+02  0.44936005692E+02  0.25000681269E+00 0.  0.
    1000022    2    1    0    0    0  0.38946881624E+01  0.37215972692E+02  0.49051529688E+02  0.62500001745E+02  0.10000021708E+02 0.  0.
    3000022    2    5    5    0    0 -0.18598770641E+01  0.25304943028E+01  0.70071436573E+01  0.76827797369E+01  0.24999628482E+00 0.  0.
        -13    1    4    4    0    0  0.45215016340E+00 -0.82754430795E+01 -0.11005758281E+02  0.13777704391E+02  0.10500000000E+00 0.  1.
         13    1    4    4    0    0  0.11128616644E+01 -0.18814163308E+02 -0.24811640673E+02  0.31158301301E+02  0.10500000000E+00 0. -1.
    3000001    1    5    5    0    0  0.57545652265E+01  0.34685478389E+02  0.42044386030E+02  0.54817222008E+02  0.10000000000E+01 0. -1.
        -13    1    6    6    0    0 -0.13591494975E+01  0.18969900026E+01  0.52237106123E+01  0.57222404692E+01  0.10500000000E+00 0. -1.
         13    1    6    6    0    0 -0.50072756661E+00  0.63350430018E+00  0.17834330450E+01  0.19605392677E+01  0.10500000000E+00 0.  1.
</event>
<event>
11    0  0.3510903E-009  0.9118800E+02  0.7816531E-02  0.1126479E+00
         25   -1    0    0    0    0  0.00000000000E+00  0.00000000000E+00  0.99999998245E-14  0.12500000000E+03  0.12500000000E+03 0.  0.
    3000001    1    3    3    0    0  0.32749526791E+02 -0.32526760213E+02  0.16215996610E+02  0.48933426010E+02  0.10000000000E+01 0.  1.
    1000022    2    1    0    0    0  0.44188143130E+02 -0.37047089938E+02  0.21935617033E+02  0.62499998240E+02  0.99999809625E+01 0.  0.
    3000022    2    3    3    0    0  0.11438616339E+02 -0.45203297245E+01  0.57196204231E+01  0.13566572230E+02  0.24999944692E+00 0.  0.
    1000022    2    1    0    0    0 -0.44188143130E+02  0.37047089938E+02 -0.21935617033E+02  0.62500001760E+02  0.10000002962E+02 0.  0.
    3000022    2    5    5    0    0 -0.28169778549E+01  0.43577960659E+00 -0.28615623668E+01  0.40467647085E+01  0.24999465247E+00 0.  0.
        -13    1    4    4    0    0  0.87037813022E+01 -0.34321309641E+01  0.43695426130E+01  0.10326628664E+02  0.10500000000E+00 0. -1.
         13    1    4    4    0    0  0.27348350368E+01 -0.10881987604E+01  0.13500778101E+01  0.32399435665E+01  0.10500000000E+00 0.  1.
    3000001    1    5    5    0    0 -0.41371165275E+02  0.36611310331E+02 -0.19074054666E+02  0.58453237051E+02  0.10000000000E+01 0.  1.
        -13    1    6    6    0    0 -0.14634942541E+01  0.27088593243E+00 -0.14203858465E+01  0.20600280515E+01  0.10500000000E+00 0. -1.
         13    1    6    6    0    0 -0.13534836008E+01  0.16489367416E+00 -0.14411765203E+01  0.19867366569E+01  0.10500000000E+00 0.  1.
</event>
<event>
11    0  0.3510903E-009  0.9118800E+02  0.7816531E-02  0.1126479E+00
         25   -1    0    0    0    0  0.00000000000E+00  0.00000000000E+00  0.99999998245E-14  0.12500000000E+03  0.12500000000E+03 0.  0.
    3000001    1    3    3    0    0  0.10947074899E+02  0.14698437501E+02  0.21744429076E+01  0.18482713972E+02  0.10000000000E+01 0.  1.
    1000022    2    1    0    0    0  0.23509070403E+02  0.56242052928E+02  0.95081321326E+01  0.62499997047E+02  0.10000007276E+02 0.  0.
    3000022    2    3    3    0    0  0.12561995504E+02  0.41543615427E+02  0.73336892251E+01  0.44017283075E+02  0.24999579313E+00 0.  0.
    1000022    2    1    0    0    0 -0.23509070403E+02 -0.56242052928E+02 -0.95081321326E+01  0.62500002953E+02  0.10000044185E+02 0.  0.
    3000022    2    5    5    0    0 -0.19913956191E+02 -0.47881060066E+02 -0.11528698947E+02  0.53123770336E+02  0.25002217037E+00 0.  0.
        -13    1    4    4    0    0  0.60270879522E+01  0.19840419052E+02  0.34407431025E+01  0.21019461350E+02  0.10500000000E+00 0.  1.
         13    1    4    4    0    0  0.65349075520E+01  0.21703196375E+02  0.38929461225E+01  0.22997821726E+02  0.10500000000E+00 0. -1.
    3000001    1    5    5    0    0 -0.35951142129E+01 -0.83609928614E+01  0.20205668145E+01  0.93762326168E+01  0.10000000000E+01 0. -1.
        -13    1    6    6    0    0 -0.11192537055E+02 -0.27062347163E+02 -0.65426454264E+01  0.30007678248E+02  0.10500000000E+00 0.  1.
         13    1    6    6    0    0 -0.87214191356E+01 -0.20818712903E+02 -0.49860535207E+01  0.23116092088E+02  0.10500000000E+00 0. -1.
</event>
<event>
11    0  0.3510903E-009  0.9118800E+02  0.7816531E-02  0.1126479E+00
         25   -1    0    0    0    0  0.00000000000E+00  0.00000000000E+00  0.99999998245E-14  0.12500000000E+03  0.12500000000E+03 0.  0.
    3000001    1    3    3    0    0 -0.40157388136E+01 -0.45090047358E+01  0.91136741678E+00  0.61877194906E+01  0.10000000000E+01 0. -1.
    1000022    2    1    0    0    0 -0.30412213825E+02 -0.40331166922E+02  0.35422368886E+02  0.62499999857E+02  0.99999994765E+01 0.  0.
    3000022    2    3    3    0    0 -0.26396475012E+02 -0.35822162186E+02  0.34511001469E+02  0.56312280366E+02  0.25000172993E+00 0.  0.
    1000022    2    1    0    0    0  0.30412213825E+02  0.40331166922E+02 -0.35422368886E+02  0.62500000143E+02  0.10000001269E+02 0.  0.
    3000022    2    5    5    0    0  0.44699702000E+01  0.10729312624E+02 -0.46231583603E+01  0.12511389929E+02  0.25000349001E+00 0.  0.
        -13    1    4    4    0    0 -0.15284038346E+02 -0.20850784867E+02  0.20052016773E+02  0.32717754499E+02  0.10500000000E+00 0.  1.
         13    1    4    4    0    0 -0.11112436666E+02 -0.14971377319E+02  0.14458984696E+02  0.23594525867E+02  0.10500000000E+00 0. -1.
    3000001    1    5    5    0    0  0.25942243625E+02  0.29601854297E+02 -0.30799210526E+02  0.49988610214E+02  0.10000000000E+01 0.  1.
        -13    1    6    6    0    0  0.23499851661E+01  0.56287754383E+01 -0.24986121438E+01  0.65923918923E+01  0.10500000000E+00 0. -1.
         13    1    6    6    0    0  0.21199850339E+01  0.51005371861E+01 -0.21245462165E+01  0.59189980366E+01  0.10500000000E+00 0.  1.
</event>
<event>
11    0  0.3510903E-009  0.9118800E+02  0.7816531E-02  0.1126479E+00
         25   -1    0    0    0    0  0.00000000000E+00  0.00000000000E+00  0.99999998245E-14  0.12500000000E+03  0.12500000000E+03 0.  0.
    3000001    1    3    3    0    0 -0.10440950988E+02 -0.17599184054E+02 -0.17618039145E+02  0.27021103608E+02  0.10000000000E+01 0.  1.
    1000022    2    1    0    0    0 -0.14014566381E+02 -0.45509724214E+02 -0.39226372089E+02  0.62499992145E+02  0.99998840985E+01 0.  0.
    3000022    2    3    3    0    0 -0.35736153938E+01 -0.27910540160E+02 -0.21608332944E+02  0.35478888537E+02  0.25000037027E+00 0.  0.
    1000022    2    1    0    0    0  0.14014566381E+02  0.45509724214E+02  0.39226372089E+02  0.62500007855E+02  0.99999822858E+01 0.  0.
    3000022    2    5    5    0    0  0.10099224635E+02  0.42031935919E+02  0.36095497631E+02  0.56317185903E+02  0.25000697111E+00 0.  0.
        -13    1    4    4    0    0 -0.15993721990E+01 -0.12993443921E+02 -0.10080313000E+02  0.16523053941E+02  0.10500000000E+00 0. -1.
         13    1    4    4    0    0 -0.19742431947E+01 -0.14917096239E+02 -0.11528019944E+02  0.18955834596E+02  0.10500000000E+00 0.  1.
    3000001    1    5    5    0    0  0.39153417465E+01  0.34777882951E+01  0.31308744574E+01  0.61828219516E+01  0.10000000000E+01 0. -1.
        -13    1    6    6    0    0  0.50873048999E+01  0.21319646221E+02  0.18377850032E+02  0.28603572905E+02  0.10500000000E+00 0.  1.
         13    1    6    6    0    0  0.50119197350E+01  0.20712289698E+02  0.17717647599E+02  0.27713612998E+02  0.10500000000E+00 0. -1.
</event>
<event>
11    0  0.3510903E-009  0.9118800E+02  0.7816531E-02  0.1126479E+00
         25   -1    0    0    0    0  0.00000000000E+00  0.00000000000E+00  0.99999998245E-14  0.12500000000E+03  0.12500000000E+03 0.  0.
    3000001    1    3    3    0    0 -0.25842786522E+00  0.67931834582E-01  0.10460579116E+01  0.14716102915E+01  0.10000000000E+01 0. -1.
    1000022    2    1    0    0    0  0.81371841132E+01  0.47427183506E+02  0.38609562404E+02  0.62500000319E+02  0.10000011513E+02 0.  0.
    3000022    2    3    3    0    0  0.83956119784E+01  0.47359251671E+02  0.37563504493E+02  0.61028390028E+02  0.25000047546E+00 0.  0.
    1000022    2    1    0    0    0 -0.81371841132E+01 -0.47427183506E+02 -0.38609562404E+02  0.62499999681E+02  0.10000007523E+02 0.  0.
    3000022    2    5    5    0    0 -0.26814840171E+01 -0.40496907535E+01 -0.70745253449E+01  0.85849729873E+01  0.25000121108E+00 0.  0.
        -13    1    4    4    0    0  0.47861701928E+01  0.27035028919E+02  0.21359494826E+02  0.34785618551E+02  0.10500000000E+00 0. -1.
         13    1    4    4    0    0  0.36094417856E+01  0.20324222753E+02  0.16204009667E+02  0.26242771477E+02  0.10500000000E+00 0.  1.
    3000001    1    5    5    0    0 -0.54557000961E+01 -0.43377492752E+02 -0.31535037060E+02  0.53915026694E+02  0.10000000000E+01 0.  1.
        -13    1    6    6    0    0 -0.20650071994E+01 -0.31253657675E+01 -0.54508145111E+01  0.66147237092E+01  0.10500000000E+00 0. -1.
         13    1    6    6    0    0 -0.61647681776E+00 -0.92432498600E+00 -0.16237108337E+01  0.19702492782E+01  0.10500000000E+00 0.  1.
</event>
<event>
11    0  0.3510903E-009  0.9118800E+02  0.7816531E-02  0.1126479E+00
         25   -1    0    0    0    0  0.00000000000E+00  0.00000000000E+00  0.99999998245E-14  0.12500000000E+03  0.12500000000E+03 0.  0.
    3000001    1    3    3    0    0  0.42412062889E+02 -0.14918979454E+02  0.29764800227E+02  0.53928678447E+02  0.10000000000E+01 0.  1.
    1000022    2    1    0    0    0  0.49141835211E+02 -0.13349950772E+02  0.34829712711E+02  0.62499999212E+02  0.99999930213E+01 0.  0.
    3000022    2    3    3    0    0  0.67297723221E+01  0.15690286821E+01  0.50649124839E+01  0.85713207652E+01  0.25002935292E+00 0.  0.
    1000022    2    1    0    0    0 -0.49141835211E+02  0.13349950772E+02 -0.34829712711E+02  0.62500000788E+02  0.10000002870E+02 0.  0.
    3000022    2    5    5    0    0 -0.14247387882E+02  0.81118840871E+01 -0.13643186531E+02  0.21330489148E+02  0.25000741547E+00 0.  0.
        -13    1    4    4    0    0  0.37496894137E+01  0.94191448222E+00  0.28252555137E+01  0.47896207897E+01  0.10500000000E+00 0. -1.
         13    1    4    4    0    0  0.29800829084E+01  0.62711419989E+00  0.22396569702E+01  0.37816999755E+01  0.10500000000E+00 0.  1.
    3000001    1    5    5    0    0 -0.34894447330E+02  0.52380666847E+01 -0.21186526180E+02  0.41169511639E+02  0.10000000000E+01 0. -1.
        -13    1    6    6    0    0 -0.92089130607E+01  0.52896212500E+01 -0.88891995367E+01  0.13849659423E+02  0.10500000000E+00 0. -1.
         13    1    6    6    0    0 -0.50384748208E+01  0.28222628371E+01 -0.47539869942E+01  0.74808297256E+01  0.10500000000E+00 0.  1.
</event>
<event>
11    0  0.3510903E-009  0.9118800E+02  0.7816531E-02  0.1126479E+00
         25   -1    0    0    0    0  0.00000000000E+00  0.00000000000E+00  0.99999998245E-14  0.12500000000E+03  0.12500000000E+03 0.  0.
    3000001    1    3    3    0    0 -0.71111176079E+01 -0.77040739829E+01 -0.45443052334E+02  0.46647526783E+02  0.10000000000E+01 0. -1.
    1000022    2    1    0    0    0 -0.14812345292E+02 -0.11394462287E+02 -0.58796348541E+02  0.62499999432E+02  0.99999991659E+01 0.  0.
    3000022    2    3    3    0    0 -0.77012276843E+01 -0.36903883043E+01 -0.13353296208E+02  0.15852472649E+02  0.24999158318E+00 0.  0.
    1000022    2    1    0    0    0  0.14812345292E+02  0.11394462287E+02  0.58796348541E+02  0.62500000568E+02  0.10000006269E+02 0.  0.
    3000022    2    5    5    0    0  0.73560059340E+01  0.10557888233E+02  0.28481497373E+02  0.31254408013E+02  0.25000081820E+00 0.  0.
        -13    1    4    4    0    0 -0.34548683853E+01 -0.16642332742E+01 -0.61196439635E+01  0.72226626109E+01  0.10500000000E+00 0.  1.
         13    1    4    4    0    0 -0.42463592990E+01 -0.20261550301E+01 -0.72336522442E+01  0.86298100380E+01  0.10500000000E+00 0. -1.
    3000001    1    5    5    0    0  0.74563393582E+01  0.83657405463E+00  0.30314851168E+02  0.31245592555E+02  0.10000000000E+01 0. -1.
        -13    1    6    6    0    0  0.20509385095E+01  0.28918736194E+01  0.77910946941E+01  0.85604592945E+01  0.10500000000E+00 0.  1.
         13    1    6    6    0    0  0.53050674246E+01  0.76660146132E+01  0.20690402679E+02  0.22693948719E+02  0.10500000000E+00 0. -1.
</event>
<event>
11    0  0.3510903E-009  0.9118800E+02  0.7816531E-02  0.1126479E+00
         25   -1    0    0    0    0  0.00000000000E+00  0.00000000000E+00  0.99999998245E-14  0.12500000000E+03  0.12500000000E+03 0.  0.
    3000001    1    3    3    0    0  0.19154798165E+02 -0.33907392141E+02  0.36179838606E+02  0.53165762067E+02  0.10000000000E+01 0.  1.
    1000022    2    1    0    0    0  0.22047442654E+02 -0.36350440670E+02  0.44708005272E+02  0.62499999926E+02  0.99999995392E+01 0.  0.
    3000022    2    3    3    0    0  0.28926444884E+01 -0.24430485297E+01  0.85281666660E+01  0.93342378592E+01  0.24998294757E+00 0.  0.
    1000022    2    1    0    0    0 -0.22047442654E+02  0.36350440670E+02 -0.44708005272E+02  0.62500000074E+02  0.10000000467E+02 0.  0.
    3000022    2    5    5    0    0 -0.15242867668E+02  0.31978228277E+02 -0.37920618751E+02  0.51894006592E+02  0.24999049662E+00 0.  0.
        -13    1    4    4    0    0  0.15670163140E+01 -0.13428144319E+01  0.44859538046E+01  0.49389773500E+01  0.10500000000E+00 0.  1.
         13    1    4    4    0    0  0.13256281745E+01 -0.11002340978E+01  0.40422128614E+01  0.43952605092E+01  0.10500000000E+00 0. -1.
    3000001    1    5    5    0    0 -0.68045749858E+01  0.43722123933E+01 -0.67873865213E+01  0.10605993482E+02  0.10000000000E+01 0.  1.
        -13    1    6    6    0    0 -0.95569121736E+01  0.20023271751E+02 -0.23663321076E+02  0.32438091362E+02  0.10500000000E+00 0.  1.
         13    1    6    6    0    0 -0.56859554945E+01  0.11954956526E+02 -0.14257297675E+02  0.19455915230E+02  0.10500000000E+00 0. -1.
</event>
<event>
11    0  0.3510903E-009  0.9118800E+02  0.7816531E-02  0.1126479E+00
         25   -1    0    0    0    0  0.00000000000E+00  0.00000000000E+00  0.99999998245E-14  0.12500000000E+03  0.12500000000E+03 0.  0.
    3000001    1    3    3    0    0  0.59876664194E+02 -0.55678830979E+01 -0.62840250229E+01  0.60470697100E+02  0.10000000000E+01 0.  1.
    1000022    2    1    0    0    0  0.60856398472E+02 -0.65087205686E+01 -0.77708055057E+01  0.62499998830E+02  0.99999878573E+01 0.  0.
    3000022    2    3    3    0    0  0.97973427796E+00 -0.94083747070E+00 -0.14867804829E+01  0.20293017308E+01  0.24998981737E+00 0.  0.
    1000022    2    1    0    0    0 -0.60856398472E+02  0.65087205686E+01  0.77708055057E+01  0.62500001170E+02  0.10000002477E+02 0.  0.
    3000022    2    5    5    0    0 -0.19662963069E+02  0.51496461835E+01 -0.98895732151E+00  0.20351695767E+02  0.25002309479E+00 0.  0.
        -13    1    4    4    0    0  0.53049913124E+00 -0.42121374105E+00 -0.77275225380E+00  0.10329672742E+01  0.10500000000E+00 0. -1.
         13    1    4    4    0    0  0.44923514672E+00 -0.51962372965E+00 -0.71402822906E+00  0.99633445658E+00  0.10500000000E+00 0.  1.
    3000001    1    5    5    0    0 -0.41193435404E+02  0.13590743851E+01  0.87597628272E+01  0.42148305403E+02  0.10000000000E+01 0.  1.
        -13    1    6    6    0    0 -0.90063537490E+01  0.23428037448E+01 -0.38748451340E+00  0.93147359859E+01  0.10500000000E+00 0.  1.
         13    1    6    6    0    0 -0.10656609320E+02  0.28068424387E+01 -0.60147280811E+00  0.11036959781E+02  0.10500000000E+00 0. -1.
</event>
<event>
11    0  0.3510903E-009  0.9118800E+02  0.7816531E-02  0.1126479E+00
         25   -1    0    0    0    0  0.00000000000E+00  0.00000000000E+00  0.99999998245E-14  0.12500000000E+03  0.12500000000E+03 0.  0.
    3000001    1    3    3    0    0  0.22640178088E+01 -0.11144363294E+01  0.68038131919E+01  0.73252726175E+01  0.10000000000E+01 0.  1.
    1000022    2    1    0    0    0  0.27366460654E+02 -0.31188382311E+02  0.45657550254E+02  0.62499997328E+02  0.99999705438E+01 0.  0.
    3000022    2    3    3    0    0  0.25102442845E+02 -0.30073945982E+02  0.38853737062E+02  0.55174724710E+02  0.24999892767E+00 0.  0.
    1000022    2    1    0    0    0 -0.27366460654E+02  0.31188382311E+02 -0.45657550254E+02  0.62500002672E+02  0.10000003949E+02 0.  0.
    3000022    2    5    5    0    0 -0.14725886472E+02  0.14414243395E+02 -0.29483178171E+02  0.35971411224E+02  0.24997055121E+00 0.  0.
        -13    1    4    4    0    0  0.62868184352E+01 -0.75456636265E+01  0.97060560345E+01  0.13808681123E+02  0.10500000000E+00 0.  1.
         13    1    4    4    0    0  0.18815624410E+02 -0.22528282355E+02  0.29147681027E+02  0.41366043587E+02  0.10500000000E+00 0. -1.
    3000001    1    5    5    0    0 -0.12640574182E+02  0.16774138916E+02 -0.16174372082E+02  0.26528591449E+02  0.10000000000E+01 0.  1.
        -13    1    6    6    0    0 -0.58683706186E+01  0.57811650927E+01 -0.11886523634E+02  0.14462368847E+02  0.10500000000E+00 0. -1.
         13    1    6    6    0    0 -0.88575158538E+01  0.86330783028E+01 -0.17596654537E+02  0.21509042377E+02  0.10500000000E+00 0.  1.
</event>
<event>
11    0  0.3510903E-009  0.9118800E+02  0.7816531E-02  0.1126479E+00
         25   -1    0    0    0    0  0.00000000000E+00  0.00000000000E+00  0.99999998245E-14  0.12500000000E+03  0.12500000000E+03 0.  0.
    3000001    1    3    3    0    0 -0.36906964752E+02  0.35017039156E+02  0.15710680599E+02  0.53255446326E+02  0.10000000000E+01 0.  1.
    1000022    2    1    0    0    0 -0.42198894422E+02  0.39274948548E+02  0.21976853705E+02  0.62499997244E+02  0.99999641443E+01 0.  0.
    3000022    2    3    3    0    0 -0.52919296695E+01  0.42579093918E+01  0.62661731055E+01  0.92445509180E+01  0.24996854496E+00 0.  0.
    1000022    2    1    0    0    0  0.42198894422E+02 -0.39274948548E+02 -0.21976853705E+02  0.62500002756E+02  0.99999985955E+01 0.  0.
    3000022    2    5    5    0    0  0.16210328761E+02 -0.21408795701E+02 -0.11935308677E+02  0.29387503769E+02  0.24998528246E+00 0.  0.
        -13    1    4    4    0    0 -0.17689058918E+01  0.14426414515E+01  0.21777111735E+01  0.31565318574E+01  0.10500000000E+00 0. -1.
         13    1    4    4    0    0 -0.35230237777E+01  0.28152679402E+01  0.40884619320E+01  0.60880190606E+01  0.10500000000E+00 0.  1.
    3000001    1    5    5    0    0  0.25988565660E+02 -0.17866152847E+02 -0.10041545028E+02  0.33112498987E+02  0.10000000000E+01 0.  1.
        -13    1    6    6    0    0  0.89063933738E+01 -0.11730546079E+02 -0.64763049269E+01  0.16089844771E+02  0.10500000000E+00 0. -1.
         13    1    6    6    0    0  0.73039353876E+01 -0.96782496222E+01 -0.54590037498E+01  0.13297658998E+02  0.10500000000E+00 0.  1.
</event>
<event>
11    0  0.3510903E-009  0.9118800E+02  0.7816531E-02  0.1126479E+00
         25   -1    0    0    0    0  0.00000000000E+00  0.00000000000E+00  0.99999998245E-14  0.12500000000E+03  0.12500000000E+03 0.  0.
    3000001    1    3    3    0    0 -0.25243009030E+01  0.14816406833E+01  0.45326375976E+01  0.54874545788E+01  0.10000000000E+01 0.  1.
    1000022    2    1    0    0    0 -0.29011382685E+02  0.42004696034E+02  0.34643834799E+02  0.62499999358E+02  0.99999907941E+01 0.  0.
    3000022    2    3    3    0    0 -0.26487081782E+02  0.40523055351E+02  0.30111197202E+02  0.57012544779E+02  0.25009785658E+00 0.  0.
    1000022    2    1    0    0    0  0.29011382685E+02 -0.42004696034E+02 -0.34643834799E+02  0.62500000642E+02  0.99999988246E+01 0.  0.
    3000022    2    5    5    0    0  0.13420426684E+02 -0.27945761977E+02 -0.20720499293E+02  0.37289074292E+02  0.25001145657E+00 0.  0.
        -13    1    4    4    0    0 -0.10281817985E+02  0.15829810256E+02  0.11705342122E+02  0.22210914727E+02  0.10500000000E+00 0. -1.
         13    1    4    4    0    0 -0.16205263797E+02  0.24693245095E+02  0.18405855080E+02  0.34801630052E+02  0.10500000000E+00 0.  1.
    3000001    1    5    5    0    0  0.15590956000E+02 -0.14058934057E+02 -0.13923335506E+02  0.25210926351E+02  0.10000000000E+01 0. -1.
        -13    1    6    6    0    0  0.72306610209E+01 -0.15145515182E+02 -0.11283326995E+02  0.20223589741E+02  0.10500000000E+00 0. -1.
         13    1    6    6    0    0  0.61897656633E+01 -0.12800246795E+02 -0.94371722976E+01  0.17065484551E+02  0.10500000000E+00 0.  1.
</event>
<event>
11    0  0.3510903E-009  0.9118800E+02  0.7816531E-02  0.1126479E+00
         25   -1    0    0    0    0  0.00000000000E+00  0.00000000000E+00  0.99999998245E-14  0.12500000000E+03  0.12500000000E+03 0.  0.
    3000001    1    3    3    0    0 -0.19941128941E+01  0.33738574782E+02 -0.85109592797E+00  0.33822954909E+02  0.10000000000E+01 0. -1.
    1000022    2    1    0    0    0  0.78817288181E+00  0.60969990183E+02 -0.93962288717E+01  0.62499999617E+02  0.99999957818E+01 0.  0.
    3000022    2    3    3    0    0  0.27822857759E+01  0.27231415402E+02 -0.85451329437E+01  0.28677044707E+02  0.24999439603E+00 0.  0.
    1000022    2    1    0    0    0 -0.78817288181E+00 -0.60969990183E+02  0.93962288717E+01  0.62500000383E+02  0.10000000571E+02 0.  0.
    3000022    2    5    5    0    0 -0.21955928712E+01 -0.42469120276E+02  0.22308660098E+01  0.42585045115E+02  0.24999858401E+00 0.  0.
        -13    1    4    4    0    0  0.17008638504E+01  0.17204123180E+02 -0.53782005422E+01  0.18105547722E+02  0.10500000000E+00 0. -1.
         13    1    4    4    0    0  0.10814219255E+01  0.10027292222E+02 -0.31669324015E+01  0.10571496986E+02  0.10500000000E+00 0.  1.
    3000001    1    5    5    0    0  0.14074199893E+01 -0.18500869908E+02  0.71653628619E+01  0.19914955268E+02  0.10000000000E+01 0. -1.
        -13    1    6    6    0    0 -0.81734185328E+00 -0.17020293595E+02  0.90270272837E+00  0.17064124326E+02  0.10500000000E+00 0. -1.
         13    1    6    6    0    0 -0.13782510179E+01 -0.25448826680E+02  0.13281632814E+01  0.25520920790E+02  0.10500000000E+00 0.  1.
</event>
<event>
11    0  0.3510903E-009  0.9118800E+02  0.7816531E-02  0.1126479E+00
         25   -1    0    0    0    0  0.00000000000E+00  0.00000000000E+00  0.99999998245E-14  0.12500000000E+03  0.12500000000E+03 0.  0.
    3000001    1    3    3    0    0 -0.20273756448E+02  0.18177867792E+01  0.35477772954E+01  0.20686137218E+02  0.10000000000E+01 0.  1.
    1000022    2    1    0    0    0 -0.56543991141E+02  0.15731179671E+02  0.19014652942E+02  0.62500000632E+02  0.10000005225E+02 0.  0.
    3000022    2    3    3    0    0 -0.36270234693E+02  0.13913392892E+02  0.15466875646E+02  0.41813863414E+02  0.25000969672E+00 0.  0.
    1000022    2    1    0    0    0  0.56543991141E+02 -0.15731179671E+02 -0.19014652942E+02  0.62499999368E+02  0.99999973260E+01 0.  0.
    3000022    2    5    5    0    0 -0.21018954096E-01 -0.57829348776E+00 -0.10748229304E+01  0.12460376384E+01  0.25000062042E+00 0.  0.
        -13    1    4    4    0    0 -0.26613035826E+02  0.10217427628E+02  0.11385807602E+02  0.30696858845E+02  0.10500000000E+00 0. -1.
         13    1    4    4    0    0 -0.96571988672E+01  0.36959652640E+01  0.40810680445E+01  0.11117004569E+02  0.10500000000E+00 0.  1.
    3000001    1    5    5    0    0  0.56565010095E+02 -0.15152886184E+02 -0.17939830011E+02  0.61253961730E+02  0.10000000000E+01 0. -1.
        -13    1    6    6    0    0 -0.47700416863E-01 -0.28010039530E+00 -0.41382174537E+00  0.51284012924E+00  0.10500000000E+00 0. -1.
         13    1    6    6    0    0  0.26681462768E-01 -0.29819309246E+00 -0.66100118507E+00  0.73319750921E+00  0.10500000000E+00 0.  1.
</event>
<event>
11    0  0.3510903E-009  0.9118800E+02  0.7816531E-02  0.1126479E+00
         25   -1    0    0    0    0  0.00000000000E+00  0.00000000000E+00  0.99999998245E-14  0.12500000000E+03  0.12500000000E+03 0.  0.
    3000001    1    3    3    0    0  0.20708646620E+01  0.18109330466E+01 -0.20403024929E+02  0.20611923375E+02  0.10000000000E+01 0. -1.
    1000022    2    1    0    0    0 -0.25084055575E+01  0.16167248640E+02 -0.59485936860E+02  0.62499988732E+02  0.99999940161E+01 0.  0.
    3000022    2    3    3    0    0 -0.45792702196E+01  0.14356315594E+02 -0.39082911931E+02  0.41888065357E+02  0.25000237441E+00 0.  0.
    1000022    2    1    0    0    0  0.25084055575E+01 -0.16167248640E+02  0.59485936860E+02  0.62500011268E+02  0.10000134865E+02 0.  0.
    3000022    2    5    5    0    0 -0.92214059392E+00 -0.26262637990E+00  0.19609276713E+00  0.10100830787E+01  0.24999912438E+00 0.  0.
        -13    1    4    4    0    0 -0.24752849363E+01  0.75401209038E+01 -0.20556430489E+02  0.22035387862E+02  0.10500000000E+00 0.  1.
         13    1    4    4    0    0 -0.21039852833E+01  0.68161946899E+01 -0.18526481442E+02  0.19852677495E+02  0.10500000000E+00 0. -1.
    3000001    1    5    5    0    0  0.34305461515E+01 -0.15904622260E+02  0.59289844093E+02  0.61489928189E+02  0.10000000000E+01 0.  1.
        -13    1    6    6    0    0 -0.25116514950E+00 -0.35902872522E-01  0.43393255641E-01  0.27799446615E+00  0.10500000000E+00 0.  1.
         13    1    6    6    0    0 -0.67097544443E+00 -0.22672350738E+00  0.15269951149E+00  0.73208861256E+00  0.10500000000E+00 0. -1.
</event>
<event>
11    0  0.3510903E-009  0.9118800E+02  0.7816531E-02  0.1126479E+00
         25   -1    0    0    0    0  0.00000000000E+00  0.00000000000E+00  0.99999998245E-14  0.12500000000E+03  0.12500000000E+03 0.  0.
    3000001    1    3    3    0    0  0.10890284440E+02 -0.34543413686E+01  0.67384034261E+01  0.13301761169E+02  0.10000000000E+01 0.  1.
    1000022    2    1    0    0    0  0.58275500776E+02 -0.14235830569E+02  0.14406843922E+02  0.62500000117E+02  0.10000000007E+02 0.  0.
    3000022    2    3    3    0    0  0.47385216336E+02 -0.10781489200E+02  0.76684404955E+01  0.49198238947E+02  0.24999861510E+00 0.  0.
    1000022    2    1    0    0    0 -0.58275500776E+02  0.14235830569E+02 -0.14406843922E+02  0.62499999883E+02  0.99999985500E+01 0.  0.
    3000022    2    5    5    0    0 -0.53141525927E+02  0.10109581783E+02 -0.13681772348E+02  0.55798555594E+02  0.24998003499E+00 0.  0.
        -13    1    4    4    0    0  0.25562720994E+02 -0.58128834021E+01  0.40688882829E+01  0.26529402461E+02  0.10500000000E+00 0. -1.
         13    1    4    4    0    0  0.21822495342E+02 -0.49686057983E+01  0.35995522126E+01  0.22668836487E+02  0.10500000000E+00 0.  1.
    3000001    1    5    5    0    0 -0.51339748483E+01  0.41262487856E+01 -0.72507157363E+00  0.67014442899E+01  0.10000000000E+01 0.  1.
        -13    1    6    6    0    0 -0.40145614939E+02  0.76412988820E+01 -0.10312822964E+02  0.42147659364E+02  0.10500000000E+00 0.  1.
         13    1    6    6    0    0 -0.12995910989E+02  0.24682829015E+01 -0.33689493841E+01  0.13650896229E+02  0.10500000000E+00 0. -1.
</event>
<event>
11    0  0.3510903E-009  0.9118800E+02  0.7816531E-02  0.1126479E+00
         25   -1    0    0    0    0  0.00000000000E+00  0.00000000000E+00  0.99999998245E-14  0.12500000000E+03  0.12500000000E+03 0.  0.
    3000001    1    3    3    0    0  0.80827365568E+01  0.50985768339E+01 -0.32113010930E+01  0.10131069573E+02  0.10000000000E+01 0. -1.
    1000022    2    1    0    0    0  0.57155196172E+02  0.23215994760E+02 -0.74246744242E+00  0.62499998989E+02  0.99999876734E+01 0.  0.
    3000022    2    3    3    0    0  0.49072459615E+02  0.18117417927E+02  0.24688336506E+01  0.52368929416E+02  0.25000707316E+00 0.  0.
    1000022    2    1    0    0    0 -0.57155196172E+02 -0.23215994760E+02  0.74246744242E+00  0.62500001011E+02  0.10000000316E+02 0.  0.
    3000022    2    5    5    0    0 -0.35317190905E+02 -0.19395939842E+02 -0.53923789527E-01  0.40293571027E+02  0.25000519947E+00 0.  0.
        -13    1    4    4    0    0  0.37019108093E+02  0.13642118438E+02  0.18631995371E+01  0.39496889713E+02  0.10500000000E+00 0.  1.
         13    1    4    4    0    0  0.12053351523E+02  0.44752994884E+01  0.60563411345E+00  0.12872039703E+02  0.10500000000E+00 0. -1.
    3000001    1    5    5    0    0 -0.21838005267E+02 -0.38200549182E+01  0.79639123195E+00  0.22206429984E+02  0.10000000000E+01 0.  1.
        -13    1    6    6    0    0 -0.22496704078E+02 -0.12324015504E+02 -0.86245926133E-01  0.25651540224E+02  0.10500000000E+00 0. -1.
         13    1    6    6    0    0 -0.12820486827E+02 -0.70719243378E+01  0.32322136607E-01  0.14642030803E+02  0.10500000000E+00 0.  1.
</event>
<event>
11    0  0.3510903E-009  0.9118800E+02  0.7816531E-02  0.1126479E+00
         25   -1    0    0    0    0  0.00000000000E+00  0.00000000000E+00  0.99999998245E-14  0.12500000000E+03  0.12500000000E+03 0.  0.
    3000001    1    3    3    0    0 -0.53089815497E+01 -0.27922332714E+02  0.10741847911E+02  0.30401138890E+02  0.10000000000E+01 0. -1.
    1000022    2    1    0    0    0 -0.18294110712E+02 -0.52393373087E+02  0.26953850091E+02  0.62500000470E+02  0.99999996909E+01 0.  0.
    3000022    2    3    3    0    0 -0.12985129163E+02 -0.24471040373E+02  0.16212002181E+02  0.32098861580E+02  0.25000741100E+00 0.  0.
    1000022    2    1    0    0    0  0.18294110712E+02  0.52393373087E+02 -0.26953850091E+02  0.62499999530E+02  0.99999938117E+01 0.  0.
    3000022    2    5    5    0    0  0.12555804332E+02  0.46244483680E+02 -0.22869086181E+02  0.53096686429E+02  0.25002751781E+00 0.  0.
        -13    1    4    4    0    0 -0.39360860785E+01 -0.74336555038E+01  0.49762566583E+01  0.97737486716E+01  0.10500000000E+00 0. -1.
         13    1    4    4    0    0 -0.90490430842E+01 -0.17037384869E+02  0.11235745523E+02  0.22325112909E+02  0.10500000000E+00 0.  1.
    3000001    1    5    5    0    0  0.57383063808E+01  0.61488894075E+01 -0.40847639106E+01  0.94033131008E+01  0.10000000000E+01 0. -1.
        -13    1    6    6    0    0  0.62229696581E+01  0.23177546050E+02 -0.11445582854E+02  0.26588275313E+02  0.10500000000E+00 0. -1.
         13    1    6    6    0    0  0.63328346735E+01  0.23066937630E+02 -0.11423503327E+02  0.26508411116E+02  0.10500000000E+00 0.  1.
</event>
<event>
11    0  0.3510903E-009  0.9118800E+02  0.7816531E-02  0.1126479E+00
         25   -1    0    0    0    0  0.00000000000E+00  0.00000000000E+00  0.99999998245E-14  0.12500000000E+03  0.12500000000E+03 0.  0.
    3000001    1    3    3    0    0  0.40637385867E+01 -0.67039027404E+01 -0.18739261529E+02  0.20337556537E+02  0.10000000000E+01 0.  1.
    1000022    2    1    0    0    0  0.23964971042E+02 -0.12575010424E+02 -0.55441853648E+02  0.62500001038E+02  0.10000013484E+02 0.  0.
    3000022    2    3    3    0    0  0.19901232455E+02 -0.58711076834E+01 -0.36702592119E+02  0.42162444501E+02  0.24999879601E+00 0.  0.
    1000022    2    1    0    0    0 -0.23964971042E+02  0.12575010424E+02  0.55441853648E+02  0.62499998962E+02  0.10000000507E+02 0.  0.
    3000022    2    5    5    0    0  0.13721875718E+00 -0.10845889411E+01  0.24725923250E+01  0.27150271630E+01  0.24999506387E+00 0.  0.
        -13    1    4    4    0    0  0.50518857101E+01 -0.15202228613E+01 -0.93281151580E+01  0.10717153735E+02  0.10500000000E+00 0.  1.
         13    1    4    4    0    0  0.14849346745E+02 -0.43508848221E+01 -0.27374476961E+02  0.31445290766E+02  0.10500000000E+00 0. -1.
    3000001    1    5    5    0    0 -0.24102189799E+02  0.13659599365E+02  0.52969261323E+02  0.59784971799E+02  0.10000000000E+01 0. -1.
        -13    1    6    6    0    0  0.42705681131E-01 -0.27646264126E+00  0.58596565166E+00  0.65775079790E+00  0.10500000000E+00 0.  1.
         13    1    6    6    0    0  0.94513076047E-01 -0.80812629982E+00  0.18866266733E+01  0.20572763651E+01  0.10500000000E+00 0. -1.
</event>
<event>
11    0  0.3510903E-009  0.9118800E+02  0.7816531E-02  0.1126479E+00
         25   -1    0    0    0    0  0.00000000000E+00  0.00000000000E+00  0.99999998245E-14  0.12500000000E+03  0.12500000000E+03 0.  0.
    3000001    1    3    3    0    0  0.12024261142E+02 -0.25820390241E+02 -0.69497599193E+01  0.29335551318E+02  0.10000000000E+01 0. -1.
    1000022    2    1    0    0    0  0.34393837653E+02 -0.49293471136E+02 -0.13909266955E+02  0.62500000930E+02  0.10000002195E+02 0.  0.
    3000022    2    3    3    0    0  0.22369576510E+02 -0.23473080895E+02 -0.69595070352E+01  0.33164449612E+02  0.24999981194E+00 0.  0.
    1000022    2    1    0    0    0 -0.34393837653E+02  0.49293471136E+02  0.13909266955E+02  0.62499999070E+02  0.99999905687E+01 0.  0.
    3000022    2    5    5    0    0 -0.32119395982E+02  0.47179960375E+02  0.15079756504E+02  0.59034445948E+02  0.24998603884E+00 0.  0.
        -13    1    4    4    0    0  0.14984860554E+02 -0.15778751848E+02 -0.46328938692E+01  0.22248365925E+02  0.10500000000E+00 0. -1.
         13    1    4    4    0    0  0.73847159561E+01 -0.76943290474E+01 -0.23266131659E+01  0.10916083687E+02  0.10500000000E+00 0.  1.
    3000001    1    5    5    0    0 -0.22744416713E+01  0.21135107617E+01 -0.11704895491E+01  0.34655531219E+01  0.10000000000E+01 0.  1.
        -13    1    6    6    0    0 -0.24767897121E+02  0.36383893244E+02  0.11627482164E+02  0.45524123077E+02  0.10500000000E+00 0. -1.
         13    1    6    6    0    0 -0.73514988606E+01  0.10796067130E+02  0.34522743395E+01  0.13510322871E+02  0.10500000000E+00 0.  1.
</event>
<event>
11    0  0.3510903E-009  0.9118800E+02  0.7816531E-02  0.1126479E+00
         25   -1    0    0    0    0  0.00000000000E+00  0.00000000000E+00  0.99999998245E-14  0.12500000000E+03  0.12500000000E+03 0.  0.
    3000001    1    3    3    0    0 -0.29804343375E+02  0.10798250100E+02  0.30371362532E+02  0.43912649104E+02  0.10000000000E+01 0.  1.
    1000022    2    1    0    0    0 -0.46176428151E+02  0.12183343167E+02  0.39058336324E+02  0.62499999475E+02  0.99999965252E+01 0.  0.
    3000022    2    3    3    0    0 -0.16372084775E+02  0.13850930672E+01  0.86869737913E+01  0.18587350371E+02  0.24987489617E+00 0.  0.
    1000022    2    1    0    0    0  0.46176428151E+02 -0.12183343167E+02 -0.39058336324E+02  0.62500000525E+02  0.10000003086E+02 0.  0.
    3000022    2    5    5    0    0  0.30351154837E+02 -0.96389668075E+01 -0.31344543001E+02  0.44683835563E+02  0.25000726690E+00 0.  0.
        -13    1    4    4    0    0 -0.63680183256E+01  0.59864986404E+00  0.33998124791E+01  0.72442935438E+01  0.10500000000E+00 0. -1.
         13    1    4    4    0    0 -0.10004066450E+02  0.78644320312E+00  0.52871613123E+01  0.11343056827E+02  0.10500000000E+00 0.  1.
    3000001    1    5    5    0    0  0.15825273314E+02 -0.25443763600E+01 -0.77137933227E+01  0.17816164962E+02  0.10000000000E+01 0.  1.
        -13    1    6    6    0    0  0.95957106180E+01 -0.30489465859E+01 -0.98406165791E+01  0.14079151154E+02  0.10500000000E+00 0. -1.
         13    1    6    6    0    0  0.20755444219E+02 -0.65900202216E+01 -0.21503926422E+02  0.30604684410E+02  0.10500000000E+00 0.  1.
</event>
<event>
11    0  0.3510903E-009  0.9118800E+02  0.7816531E-02  0.1126479E+00
         25   -1    0    0    0    0  0.00000000000E+00  0.00000000000E+00  0.99999998245E-14  0.12500000000E+03  0.12500000000E+03 0.  0.
    3000001    1    3    3    0    0  0.14670540962E+02  0.22166962244E+02  0.40833637982E+02  0.48733817602E+02  0.10000000000E+01 0.  1.
    1000022    2    1    0    0    0  0.18328944323E+02  0.23451267943E+02  0.54040152635E+02  0.62500003840E+02  0.10000010748E+02 0.  0.
    3000022    2    3    3    0    0  0.36584033612E+01  0.12843056987E+01  0.13206514654E+02  0.13766186237E+02  0.24999589516E+00 0.  0.
    1000022    2    1    0    0    0 -0.18328944323E+02 -0.23451267943E+02 -0.54040152635E+02  0.62499996160E+02  0.99999627513E+01 0.  0.
    3000022    2    5    5    0    0 -0.12465808183E+02 -0.10302950228E+02 -0.35454061747E+02  0.38969220596E+02  0.25000491099E+00 0.  0.
        -13    1    4    4    0    0  0.19507491896E+01  0.61501550655E+00  0.70137154042E+01  0.73066336466E+01  0.10500000000E+00 0. -1.
         13    1    4    4    0    0  0.17076541716E+01  0.66929019214E+00  0.61927992494E+01  0.64595525908E+01  0.10500000000E+00 0.  1.
    3000001    1    5    5    0    0 -0.58631361408E+01 -0.13148317715E+02 -0.18586090888E+02  0.23530775564E+02  0.10000000000E+01 0. -1.
        -13    1    6    6    0    0 -0.70613604645E+01 -0.57798554664E+01 -0.20123450721E+02  0.22096014001E+02  0.10500000000E+00 0. -1.
         13    1    6    6    0    0 -0.54044477181E+01 -0.45230947616E+01 -0.15330611026E+02  0.16873206595E+02  0.10500000000E+00 0.  1.
</event>
<event>
11    0  0.3510903E-009  0.9118800E+02  0.7816531E-02  0.1126479E+00
         25   -1    0    0    0    0  0.00000000000E+00  0.00000000000E+00  0.99999998245E-14  0.12500000000E+03  0.12500000000E+03 0.  0.
    3000001    1    3    3    0    0  0.14672735544E+02  0.20558130959E+02 -0.24271630172E+02  0.35043372384E+02  0.10000000000E+01 0. -1.
    1000022    2    1    0    0    0  0.32388633286E+02  0.30513424416E+02 -0.42733563566E+02  0.62499999728E+02  0.99999937624E+01 0.  0.
    3000022    2    3    3    0    0  0.17715897742E+02  0.99552934570E+01 -0.18461933394E+02  0.27456627344E+02  0.24999964731E+00 0.  0.
    1000022    2    1    0    0    0 -0.32388633286E+02 -0.30513424416E+02  0.42733563566E+02  0.62500000272E+02  0.99999971575E+01 0.  0.
    3000022    2    5    5    0    0 -0.27702099816E+02 -0.29698926031E+02  0.39550013806E+02  0.56689493180E+02  0.25000672192E+00 0.  0.
        -13    1    4    4    0    0  0.66435190596E+01  0.37247364756E+01 -0.68391712403E+01  0.10236957339E+02  0.10500000000E+00 0. -1.
         13    1    4    4    0    0  0.11072378683E+02  0.62305569814E+01 -0.11622762154E+02  0.17219670005E+02  0.10500000000E+00 0.  1.
    3000001    1    5    5    0    0 -0.46865334704E+01 -0.81449838553E+00  0.31835497606E+01  0.58105070921E+01  0.10000000000E+01 0. -1.
        -13    1    6    6    0    0 -0.14493816970E+02 -0.15578414237E+02  0.20807362076E+02  0.29760965409E+02  0.10500000000E+00 0. -1.
         13    1    6    6    0    0 -0.13208282846E+02 -0.14120511793E+02  0.18742651729E+02  0.26928527771E+02  0.10500000000E+00 0.  1.
</event>
<event>
11    0  0.3510903E-009  0.9118800E+02  0.7816531E-02  0.1126479E+00
         25   -1    0    0    0    0  0.00000000000E+00  0.00000000000E+00  0.99999998245E-14  0.12500000000E+03  0.12500000000E+03 0.  0.
    3000001    1    3    3    0    0  0.56371336230E+02 -0.18011837806E+02 -0.13951637825E+02  0.60809555561E+02  0.10000000000E+01 0.  1.
    1000022    2    1    0    0    0  0.57410254534E+02 -0.17040388718E+02 -0.14830292693E+02  0.62499998967E+02  0.10000005809E+02 0.  0.
    3000022    2    3    3    0    0  0.10389183036E+01  0.97144908812E+00 -0.87865486853E+00  0.16904434058E+01  0.24999991594E+00 0.  0.
    1000022    2    1    0    0    0 -0.57410254534E+02  0.17040388718E+02  0.14830292693E+02  0.62500001033E+02  0.10000018723E+02 0.  0.
    3000022    2    5    5    0    0 -0.49045998557E+02  0.15089405217E+02  0.90713922800E+01  0.52110966013E+02  0.24999344212E+00 0.  0.
        -13    1    4    4    0    0  0.51796494921E+00  0.41087873577E+00 -0.36063593301E+00  0.76038957141E+00  0.10500000000E+00 0.  1.
         13    1    4    4    0    0  0.52095335438E+00  0.56057035234E+00 -0.51801893552E+00  0.93005383442E+00  0.10500000000E+00 0. -1.
    3000001    1    5    5    0    0 -0.83642559772E+01  0.19509835007E+01  0.57589004130E+01  0.10389035020E+02  0.10000000000E+01 0. -1.
        -13    1    6    6    0    0 -0.12690226864E+02  0.39171100416E+01  0.23189126202E+01  0.13482358462E+02  0.10500000000E+00 0.  1.
         13    1    6    6    0    0 -0.36355771692E+02  0.11172295175E+02  0.67524796598E+01  0.38628607552E+02  0.10500000000E+00 0. -1.
</event>
<event>
11    0  0.3510903E-009  0.9118800E+02  0.7816531E-02  0.1126479E+00
         25   -1    0    0    0    0  0.00000000000E+00  0.00000000000E+00  0.99999998245E-14  0.12500000000E+03  0.12500000000E+03 0.  0.
    3000001    1    3    3    0    0  0.81550033123E-01  0.34218425348E+01 -0.27839064593E+01  0.45239133408E+01  0.10000000000E+01 0. -1.
    1000022    2    1    0    0    0  0.29444267006E+02  0.49862581019E+02 -0.21283986206E+02  0.62500001446E+02  0.10000013327E+02 0.  0.
    3000022    2    3    3    0    0  0.29362716973E+02  0.46440738485E+02 -0.18500079746E+02  0.57976088106E+02  0.25000472288E+00 0.  0.
    1000022    2    1    0    0    0 -0.29444267006E+02 -0.49862581019E+02  0.21283986206E+02  0.62499998554E+02  0.99999952457E+01 0.  0.
    3000022    2    5    5    0    0 -0.23745779736E+02 -0.44558175485E+02  0.15730319111E+02  0.52884766188E+02  0.24999518948E+00 0.  0.
        -13    1    4    4    0    0  0.22093329411E+02  0.34896469705E+02 -0.13902583242E+02  0.43579486552E+02  0.10500000000E+00 0. -1.
         13    1    4    4    0    0  0.72693875622E+01  0.11544268780E+02 -0.45974965043E+01  0.14396601554E+02  0.10500000000E+00 0.  1.
    3000001    1    5    5    0    0 -0.56984872704E+01 -0.53044055341E+01  0.55536670944E+01  0.96152323651E+01  0.10000000000E+01 0. -1.
        -13    1    6    6    0    0 -0.11750748960E+02 -0.21959883882E+02  0.78149712010E+01  0.26103666430E+02  0.10500000000E+00 0. -1.
         13    1    6    6    0    0 -0.11995030776E+02 -0.22598291604E+02  0.79153479102E+01  0.26781099758E+02  0.10500000000E+00 0.  1.
</event>
<event>
11    0  0.3510903E-009  0.9118800E+02  0.7816531E-02  0.1126479E+00
         25   -1    0    0    0    0  0.00000000000E+00  0.00000000000E+00  0.99999998245E-14  0.12500000000E+03  0.12500000000E+03 0.  0.
    3000001    1    3    3    0    0 -0.14035343939E+02  0.16921768490E+02 -0.22715237263E+02  0.31627822123E+02  0.10000000000E+01 0.  1.
    1000022    2    1    0    0    0 -0.26154228215E+02  0.40584661631E+02 -0.38406922277E+02  0.62499999698E+02  0.99999935069E+01 0.  0.
    3000022    2    3    3    0    0 -0.12118884276E+02  0.23662893141E+02 -0.15691685014E+02  0.30872177575E+02  0.25000341752E+00 0.  0.
    1000022    2    1    0    0    0  0.26154228215E+02 -0.40584661631E+02  0.38406922277E+02  0.62500000302E+02  0.99999972878E+01 0.  0.
    3000022    2    5    5    0    0  0.23701621264E+02 -0.29178235056E+02  0.28930225331E+02  0.47435816518E+02  0.24999905287E+00 0.  0.
        -13    1    4    4    0    0 -0.67803372488E+01  0.13382118258E+02 -0.88652631462E+01  0.17425784858E+02  0.10500000000E+00 0.  1.
         13    1    4    4    0    0 -0.53385470273E+01  0.10280774884E+02 -0.68264218680E+01  0.13446392717E+02  0.10500000000E+00 0. -1.
    3000001    1    5    5    0    0  0.24526069509E+01 -0.11406426575E+02  0.94766969468E+01  0.15064183785E+02  0.10000000000E+01 0.  1.
        -13    1    6    6    0    0  0.73576273680E+01 -0.90171785413E+01  0.90084872057E+01  0.14717610406E+02  0.10500000000E+00 0.  1.
         13    1    6    6    0    0  0.16343993896E+02 -0.20161056514E+02  0.19921738125E+02  0.32718206112E+02  0.10500000000E+00 0. -1.
</event>
<event>
11    0  0.3510903E-009  0.9118800E+02  0.7816531E-02  0.1126479E+00
         25   -1    0    0    0    0  0.00000000000E+00  0.00000000000E+00  0.99999998245E-14  0.12500000000E+03  0.12500000000E+03 0.  0.
    3000001    1    3    3    0    0 -0.11097719686E+01  0.13413336511E+01  0.13207842207E+01  0.24031730573E+01  0.10000000000E+01 0.  1.
    1000022    2    1    0    0    0 -0.30486748192E+02 -0.35695712257E+01  0.53516976105E+02  0.62500000479E+02  0.99999837185E+01 0.  0.
    3000022    2    3    3    0    0 -0.29376976224E+02 -0.49109048768E+01  0.52196191885E+02  0.60096827422E+02  0.25000032031E+00 0.  0.
    1000022    2    1    0    0    0  0.30486748192E+02  0.35695712257E+01 -0.53516976105E+02  0.62499999521E+02  0.99999777296E+01 0.  0.
    3000022    2    5    5    0    0  0.75527655852E+01 -0.22813730091E+01 -0.83069681059E+01  0.11459369333E+02  0.24999122221E+00 0.  0.
        -13    1    4    4    0    0 -0.14925876513E+02 -0.24623432777E+01  0.26390161794E+02  0.30418688148E+02  0.10500000000E+00 0. -1.
         13    1    4    4    0    0 -0.14451099711E+02 -0.24485615991E+01  0.25806030090E+02  0.29678139274E+02  0.10500000000E+00 0.  1.
    3000001    1    5    5    0    0  0.22933982607E+02  0.58509442348E+01 -0.45210007999E+02  0.51040630188E+02  0.10000000000E+01 0.  1.
        -13    1    6    6    0    0  0.25841548330E+01 -0.72399896532E+00 -0.28384559306E+01  0.39076703767E+01  0.10500000000E+00 0. -1.
         13    1    6    6    0    0  0.49686107521E+01 -0.15573740437E+01 -0.54685121753E+01  0.75516989565E+01  0.10500000000E+00 0.  1.
</event>
<event>
11    0  0.3510903E-009  0.9118800E+02  0.7816531E-02  0.1126479E+00
         25   -1    0    0    0    0  0.00000000000E+00  0.00000000000E+00  0.99999998245E-14  0.12500000000E+03  0.12500000000E+03 0.  0.
    3000001    1    3    3    0    0  0.98883650148E+01 -0.15252239117E+02 -0.36417645329E+01  0.18565371250E+02  0.10000000000E+01 0. -1.
    1000022    2    1    0    0    0  0.34795483726E+02 -0.44130688353E+02 -0.25455973833E+02  0.62500000189E+02  0.10000003877E+02 0.  0.
    3000022    2    3    3    0    0  0.24907118711E+02 -0.28878449236E+02 -0.21814209300E+02  0.43934628938E+02  0.24999956793E+00 0.  0.
    1000022    2    1    0    0    0 -0.34795483726E+02  0.44130688353E+02  0.25455973833E+02  0.62499999811E+02  0.10000001521E+02 0.  0.
    3000022    2    5    5    0    0 -0.36465374561E+01  0.12030015708E+01  0.30693961416E+01  0.49222088941E+01  0.24999905012E+00 0.  0.
        -13    1    4    4    0    0  0.14306541297E+02 -0.16644885107E+02 -0.12493243573E+02  0.25255127877E+02  0.10500000000E+00 0. -1.
         13    1    4    4    0    0  0.10600577415E+02 -0.12233564129E+02 -0.93209657267E+01  0.18679501061E+02  0.10500000000E+00 0.  1.
    3000001    1    5    5    0    0 -0.31148946270E+02  0.42927686782E+02  0.22386577691E+02  0.57577790917E+02  0.10000000000E+01 0. -1.
        -13    1    6    6    0    0 -0.17194029904E+01  0.50464712399E+00  0.13916446384E+01  0.22712805117E+01  0.10500000000E+00 0. -1.
         13    1    6    6    0    0 -0.19271344657E+01  0.69835444678E+00  0.16777515032E+01  0.26509283824E+01  0.10500000000E+00 0.  1.
</event>
<event>
11    0  0.3510903E-009  0.9118800E+02  0.7816531E-02  0.1126479E+00
         25   -1    0    0    0    0  0.00000000000E+00  0.00000000000E+00  0.99999998245E-14  0.12500000000E+03  0.12500000000E+03 0.  0.
    3000001    1    3    3    0    0 -0.42399586933E+02  0.90785220250E+01  0.15096280244E+02  0.45924309591E+02  0.10000000000E+01 0. -1.
    1000022    2    1    0    0    0 -0.57363261128E+02  0.65287130404E+01  0.21750450096E+02  0.62500001082E+02  0.10000011732E+02 0.  0.
    3000022    2    3    3    0    0 -0.14963674195E+02 -0.25498089845E+01  0.66541698521E+01  0.16575691491E+02  0.25000138565E+00 0.  0.
    1000022    2    1    0    0    0  0.57363261128E+02 -0.65287130404E+01 -0.21750450096E+02  0.62499998918E+02  0.99999982053E+01 0.  0.
    3000022    2    5    5    0    0  0.32416137995E+02 -0.85956708825E+01 -0.12120972092E+02  0.35660510958E+02  0.25003370393E+00 0.  0.
        -13    1    4    4    0    0 -0.98434464999E+01 -0.16256007240E+01  0.43498717215E+01  0.10884320177E+02  0.10500000000E+00 0.  1.
         13    1    4    4    0    0 -0.51202276954E+01 -0.92420826049E+00  0.23042981306E+01  0.56913713142E+01  0.10500000000E+00 0. -1.
    3000001    1    5    5    0    0  0.24947123133E+02  0.20669578421E+01 -0.96294780040E+01  0.26839487960E+02  0.10000000000E+01 0. -1.
        -13    1    6    6    0    0  0.21326192041E+02 -0.57106663488E+01 -0.79666601146E+01  0.23471192460E+02  0.10500000000E+00 0. -1.
         13    1    6    6    0    0  0.11089945954E+02 -0.28850045336E+01 -0.41543119775E+01  0.12189318498E+02  0.10500000000E+00 0.  1.
</event>
<event>
11    0  0.3510903E-009  0.9118800E+02  0.7816531E-02  0.1126479E+00
         25   -1    0    0    0    0  0.00000000000E+00  0.00000000000E+00  0.99999998245E-14  0.12500000000E+03  0.12500000000E+03 0.  0.
    3000001    1    3    3    0    0 -0.15948058036E+02  0.16329127865E+02  0.57542504805E+02  0.61912202604E+02  0.10000000000E+01 0.  1.
    1000022    2    1    0    0    0 -0.15996369666E+02  0.16724352016E+02  0.57189702600E+02  0.62500000299E+02  0.10000008056E+02 0.  0.
    3000022    2    3    3    0    0 -0.48311629844E-01  0.39522415143E+00 -0.35280220585E+00  0.58779769566E+00  0.25000118222E+00 0.  0.
    1000022    2    1    0    0    0  0.15996369666E+02 -0.16724352016E+02 -0.57189702600E+02  0.62499999701E+02  0.10000004314E+02 0.  0.
    3000022    2    5    5    0    0  0.25862004968E+01 -0.13819489319E+01 -0.18771630911E+02  0.19000916930E+02  0.25000257762E+00 0.  0.
        -13    1    4    4    0    0 -0.89972950490E-01  0.22345258315E+00 -0.22315350100E+00  0.34474435999E+00  0.10500000000E+00 0. -1.
         13    1    4    4    0    0  0.41661320646E-01  0.17177156828E+00 -0.12964870486E+00  0.24305333567E+00  0.10500000000E+00 0.  1.
    3000001    1    5    5    0    0  0.13410169169E+02 -0.15342403085E+02 -0.38418071689E+02  0.43499082770E+02  0.10000000000E+01 0.  1.
        -13    1    6    6    0    0  0.16666856957E+01 -0.82910695395E+00 -0.11744338044E+02  0.11891415418E+02  0.10500000000E+00 0. -1.
         13    1    6    6    0    0  0.91951480118E+00 -0.55284197794E+00 -0.70272928671E+01  0.71095015129E+01  0.10500000000E+00 0.  1.
</event>
<event>
11    0  0.3510903E-009  0.9118800E+02  0.7816531E-02  0.1126479E+00
         25   -1    0    0    0    0  0.00000000000E+00  0.00000000000E+00  0.99999998245E-14  0.12500000000E+03  0.12500000000E+03 0.  0.
    3000001    1    3    3    0    0  0.18458720232E+01 -0.29454235410E+01  0.85108183277E+01  0.92475289656E+01  0.10000000000E+01 0.  1.
    1000022    2    1    0    0    0  0.19975902868E+02  0.19927579425E+01  0.58337313527E+02  0.62500001029E+02  0.10000009976E+02 0.  0.
    3000022    2    3    3    0    0  0.18130030845E+02  0.49381814835E+01  0.49826495199E+02  0.53252472063E+02  0.25000453739E+00 0.  0.
    1000022    2    1    0    0    0 -0.19975902868E+02 -0.19927579425E+01 -0.58337313527E+02  0.62499998971E+02  0.99999971147E+01 0.  0.
    3000022    2    5    5    0    0 -0.66417924216E+01 -0.43242946202E+01 -0.30728106893E+02  0.31734712436E+02  0.24997922626E+00 0.  0.
        -13    1    4    4    0    0  0.83740027246E+01  0.22294677380E+01  0.22850484543E+02  0.24438701211E+02  0.10500000000E+00 0.  1.
         13    1    4    4    0    0  0.97560281200E+01  0.27087137455E+01  0.26976010656E+02  0.28813770852E+02  0.10500000000E+00 0. -1.
    3000001    1    5    5    0    0 -0.13334110446E+02  0.23315366777E+01 -0.27609206633E+02  0.30765286535E+02  0.10000000000E+01 0. -1.
        -13    1    6    6    0    0 -0.25423536118E+01 -0.16741177892E+01 -0.12042645003E+02  0.12421857990E+02  0.10500000000E+00 0.  1.
         13    1    6    6    0    0 -0.40994388098E+01 -0.26501768310E+01 -0.18685461890E+02  0.19312854446E+02  0.10500000000E+00 0. -1.
</event>
<event>
11    0  0.3510903E-009  0.9118800E+02  0.7816531E-02  0.1126479E+00
         25   -1    0    0    0    0  0.00000000000E+00  0.00000000000E+00  0.99999998245E-14  0.12500000000E+03  0.12500000000E+03 0.  0.
    3000001    1    3    3    0    0 -0.44163320489E+02 -0.16227854142E+02 -0.62263574974E+01  0.47471145492E+02  0.10000000000E+01 0.  1.
    1000022    2    1    0    0    0 -0.59056259978E+02 -0.17268559984E+02 -0.45171754729E+01  0.62500001371E+02  0.10000014532E+02 0.  0.
    3000022    2    3    3    0    0 -0.14892939489E+02 -0.10407058418E+01  0.17091820244E+01  0.15028855879E+02  0.24998112285E+00 0.  0.
    1000022    2    1    0    0    0  0.59056259978E+02  0.17268559984E+02  0.45171754729E+01  0.62499998629E+02  0.99999973971E+01 0.  0.
    3000022    2    5    5    0    0  0.25485824907E+02  0.74629153859E+01  0.68765489570E+01  0.27433042388E+02  0.25002367505E+00 0.  0.
        -13    1    4    4    0    0 -0.10209719336E+02 -0.71767184639E+00  0.11220548089E+01  0.10296769094E+02  0.10500000000E+00 0. -1.
         13    1    4    4    0    0 -0.46832201532E+01 -0.32303399539E+00  0.58712721553E+00  0.47320867841E+01  0.10500000000E+00 0.  1.
    3000001    1    5    5    0    0  0.33570435070E+02  0.98056445977E+01 -0.23593734841E+01  0.35066956241E+02  0.10000000000E+01 0.  1.
        -13    1    6    6    0    0  0.18660197041E+02  0.54293215802E+01  0.50206804426E+01  0.20072337770E+02  0.10500000000E+00 0. -1.
         13    1    6    6    0    0  0.68256278663E+01  0.20335938057E+01  0.18558685144E+01  0.73607046183E+01  0.10500000000E+00 0.  1.
</event>
<event>
11    0  0.3510903E-009  0.9118800E+02  0.7816531E-02  0.1126479E+00
         25   -1    0    0    0    0  0.00000000000E+00  0.00000000000E+00  0.99999998245E-14  0.12500000000E+03  0.12500000000E+03 0.  0.
    3000001    1    3    3    0    0  0.24404555349E+02 -0.32225231121E-01  0.35131756831E+02  0.42788125669E+02  0.10000000000E+01 0.  1.
    1000022    2    1    0    0    0  0.31146334362E+02  0.46466599728E+01  0.53052470717E+02  0.62500001168E+02  0.99999951862E+01 0.  0.
    3000022    2    3    3    0    0  0.67417790139E+01  0.46788852039E+01  0.17920713886E+02  0.19711875499E+02  0.24999698229E+00 0.  0.
    1000022    2    1    0    0    0 -0.31146334362E+02 -0.46466599728E+01 -0.53052470717E+02  0.62499998832E+02  0.99999805888E+01 0.  0.
    3000022    2    5    5    0    0 -0.29980822605E+02 -0.56656533869E+01 -0.52212831248E+02  0.60474718685E+02  0.25000164374E+00 0.  0.
        -13    1    4    4    0    0  0.23443306250E+01  0.15627503693E+01  0.61140404836E+01  0.67327996280E+01  0.10500000000E+00 0. -1.
         13    1    4    4    0    0  0.43974483888E+01  0.31161348345E+01  0.11806673402E+02  0.12979075871E+02  0.10500000000E+00 0.  1.
    3000001    1    5    5    0    0 -0.11655117576E+01  0.10189934141E+01 -0.83963946884E+00  0.20252801468E+01  0.10000000000E+01 0. -1.
        -13    1    6    6    0    0 -0.22185664633E+02 -0.41613073904E+01 -0.38642258120E+02  0.44752154496E+02  0.10500000000E+00 0. -1.
         13    1    6    6    0    0 -0.77951579719E+01 -0.15043459965E+01 -0.13570573128E+02  0.15722564190E+02  0.10500000000E+00 0.  1.
</event>
<event>
11    0  0.3510903E-009  0.9118800E+02  0.7816531E-02  0.1126479E+00
         25   -1    0    0    0    0  0.00000000000E+00  0.00000000000E+00  0.99999998245E-14  0.12500000000E+03  0.12500000000E+03 0.  0.
    3000001    1    3    3    0    0 -0.10970967077E+02 -0.51293768410E+01 -0.31533430518E+01  0.12554528975E+02  0.10000000000E+01 0. -1.
    1000022    2    1    0    0    0 -0.42539004995E+02 -0.35334284390E+02 -0.27352725221E+02  0.62499999795E+02  0.99999899044E+01 0.  0.
    3000022    2    3    3    0    0 -0.31568037918E+02 -0.30204907549E+02 -0.24199382169E+02  0.49945470820E+02  0.25000014006E+00 0.  0.
    1000022    2    1    0    0    0  0.42539004995E+02  0.35334284390E+02  0.27352725221E+02  0.62500000205E+02  0.99999924677E+01 0.  0.
    3000022    2    5    5    0    0  0.33108314012E+02  0.31035099243E+02  0.19198528903E+02  0.49274576094E+02  0.24999087055E+00 0.  0.
        -13    1    4    4    0    0 -0.10642654786E+02 -0.10163476277E+02 -0.80912651279E+01  0.16794104540E+02  0.10500000000E+00 0.  1.
         13    1    4    4    0    0 -0.20925383132E+02 -0.20041431272E+02 -0.16108117041E+02  0.33151366280E+02  0.10500000000E+00 0. -1.
    3000001    1    5    5    0    0  0.94306909826E+01  0.42991851469E+01  0.81541963179E+01  0.13225424111E+02  0.10000000000E+01 0.  1.
        -13    1    6    6    0    0  0.23785933348E+02  0.22320857574E+02  0.13760672001E+02  0.35402802530E+02  0.10500000000E+00 0. -1.
         13    1    6    6    0    0  0.93223806641E+01  0.87142416691E+01  0.54378569018E+01  0.13871773564E+02  0.10500000000E+00 0.  1.
</event>
<event>
11    0  0.3510903E-009  0.9118800E+02  0.7816531E-02  0.1126479E+00
         25   -1    0    0    0    0  0.00000000000E+00  0.00000000000E+00  0.99999998245E-14  0.12500000000E+03  0.12500000000E+03 0.  0.
    3000001    1    3    3    0    0  0.21649698048E+01 -0.27944900724E+01 -0.64431696632E+00  0.37298007150E+01  0.10000000000E+01 0.  1.
    1000022    2    1    0    0    0  0.58339943475E+02 -0.18223662532E+02 -0.84023293483E+01  0.62499999673E+02  0.99999969905E+01 0.  0.
    3000022    2    3    3    0    0  0.56174973671E+02 -0.15429172459E+02 -0.77580123820E+01  0.58770198958E+02  0.24999944335E+00 0.  0.
    1000022    2    1    0    0    0 -0.58339943475E+02  0.18223662532E+02  0.84023293483E+01  0.62500000327E+02  0.10000001084E+02 0.  0.
    3000022    2    5    5    0    0 -0.17998811581E+02  0.66795194331E+01  0.72154058618E+01  0.20510919011E+02  0.25003751193E+00 0.  0.
        -13    1    4    4    0    0  0.29066110299E+02 -0.80040449332E+01 -0.40801365257E+01  0.30423051167E+02  0.10500000000E+00 0.  1.
         13    1    4    4    0    0  0.27108863371E+02 -0.74251275260E+01 -0.36778758564E+01  0.28347147791E+02  0.10500000000E+00 0. -1.
    3000001    1    5    5    0    0 -0.40341131894E+02  0.11544143099E+02  0.11869234866E+01  0.41989081316E+02  0.10000000000E+01 0. -1.
        -13    1    6    6    0    0 -0.10485770979E+02  0.38362828726E+01  0.42379358717E+01  0.11943181518E+02  0.10500000000E+00 0.  1.
         13    1    6    6    0    0 -0.75130406015E+01  0.28432365605E+01  0.29774699901E+01  0.85677374937E+01  0.10500000000E+00 0. -1.
</event>
<event>
11    0  0.3510903E-009  0.9118800E+02  0.7816531E-02  0.1126479E+00
         25   -1    0    0    0    0  0.00000000000E+00  0.00000000000E+00  0.99999998245E-14  0.12500000000E+03  0.12500000000E+03 0.  0.
    3000001    1    3    3    0    0  0.30547185939E+00  0.23728762474E+00 -0.26805102566E+00  0.11052012604E+01  0.10000000000E+01 0.  1.
    1000022    2    1    0    0    0  0.11731084022E+02 -0.48886704935E+01 -0.60371618726E+02  0.62500000810E+02  0.10000016108E+02 0.  0.
    3000022    2    3    3    0    0  0.11425612163E+02 -0.51259581183E+01 -0.60103567700E+02  0.61394799550E+02  0.25000305335E+00 0.  0.
    1000022    2    1    0    0    0 -0.11731084022E+02  0.48886704935E+01  0.60371618726E+02  0.62499999190E+02  0.10000005982E+02 0.  0.
    3000022    2    5    5    0    0 -0.10218376282E+02  0.66981851650E+01  0.56829361841E+02  0.58128476356E+02  0.24999560821E+00 0.  0.
        -13    1    4    4    0    0  0.72170369167E+01 -0.32263652963E+01 -0.37652593842E+02  0.38473678053E+02  0.10500000000E+00 0. -1.
         13    1    4    4    0    0  0.42085752463E+01 -0.18995928219E+01 -0.22450973858E+02  0.22921121497E+02  0.10500000000E+00 0.  1.
    3000001    1    5    5    0    0 -0.15127077408E+01 -0.18095146715E+01  0.35422568844E+01  0.43715228342E+01  0.10000000000E+01 0. -1.
        -13    1    6    6    0    0 -0.68379272219E+01  0.44197349814E+01  0.37810644164E+02  0.38677475914E+02  0.10500000000E+00 0. -1.
         13    1    6    6    0    0 -0.33804490597E+01  0.22784501835E+01  0.19018717678E+02  0.19451000442E+02  0.10500000000E+00 0.  1.
</event>
<event>
11    0  0.3510903E-009  0.9118800E+02  0.7816531E-02  0.1126479E+00
         25   -1    0    0    0    0  0.00000000000E+00  0.00000000000E+00  0.99999998245E-14  0.12500000000E+03  0.12500000000E+03 0.  0.
    3000001    1    3    3    0    0  0.28219835138E+02  0.18699114896E+02 -0.13728273939E+02  0.36544240291E+02  0.10000000000E+01 0. -1.
    1000022    2    1    0    0    0  0.52074042693E+02  0.24698045691E+02 -0.22012511598E+02  0.62500000440E+02  0.10000000243E+02 0.  0.
    3000022    2    3    3    0    0  0.23854207555E+02  0.59989307955E+01 -0.82842376585E+01  0.25955760149E+02  0.25000517001E+00 0.  0.
    1000022    2    1    0    0    0 -0.52074042693E+02 -0.24698045691E+02  0.22012511598E+02  0.62499999560E+02  0.99999947378E+01 0.  0.
    3000022    2    5    5    0    0 -0.19347355901E+02 -0.68203444426E+01  0.12417097218E+02  0.23980910689E+02  0.24999092981E+00 0.  0.
        -13    1    4    4    0    0  0.70514427370E+01  0.18115065374E+01 -0.24257403587E+01  0.76746102113E+01  0.10500000000E+00 0.  1.
         13    1    4    4    0    0  0.16802764818E+02  0.41874242581E+01 -0.58584972998E+01  0.18281149938E+02  0.10500000000E+00 0. -1.
    3000001    1    5    5    0    0 -0.32726686792E+02 -0.17877701249E+02  0.95954143794E+01  0.38519088871E+02  0.10000000000E+01 0.  1.
        -13    1    6    6    0    0 -0.13780438511E+02 -0.48931151985E+01  0.88810918613E+01  0.17109292199E+02  0.10500000000E+00 0. -1.
         13    1    6    6    0    0 -0.55669173897E+01 -0.19272292441E+01  0.35360053572E+01  0.68716184898E+01  0.10500000000E+00 0.  1.
</event>
<event>
11    0  0.3510903E-009  0.9118800E+02  0.7816531E-02  0.1126479E+00
         25   -1    0    0    0    0  0.00000000000E+00  0.00000000000E+00  0.99999998245E-14  0.12500000000E+03  0.12500000000E+03 0.  0.
    3000001    1    3    3    0    0 -0.41393759933E+02 -0.18101606093E+02 -0.21537183139E+00  0.45190241087E+02  0.10000000000E+01 0.  1.
    1000022    2    1    0    0    0 -0.56561321974E+02 -0.23825707429E+02 -0.62771348696E+01  0.62499999795E+02  0.10000003712E+02 0.  0.
    3000022    2    3    3    0    0 -0.15167562041E+02 -0.57241013357E+01 -0.60617630382E+01  0.17309758707E+02  0.25000198750E+00 0.  0.
    1000022    2    1    0    0    0  0.56561321974E+02  0.23825707429E+02  0.62771348696E+01  0.62500000205E+02  0.10000006279E+02 0.  0.
    3000022    2    5    5    0    0  0.31790367267E+02  0.17567227163E+02  0.66628583486E+01  0.36928188480E+02  0.25000372174E+00 0.  0.
        -13    1    4    4    0    0 -0.11609754482E+02 -0.43678313622E+01 -0.46304531209E+01  0.13240712634E+02  0.10500000000E+00 0.  1.
         13    1    4    4    0    0 -0.35578075593E+01 -0.13562699734E+01 -0.14313099173E+01  0.40690460736E+01  0.10500000000E+00 0. -1.
    3000001    1    5    5    0    0  0.24770954707E+02  0.62584802661E+01 -0.38572347908E+00  0.25571811725E+02  0.10000000000E+01 0.  1.
        -13    1    6    6    0    0  0.24086565788E+02  0.13294612471E+02  0.50299829304E+01  0.27968216344E+02  0.10500000000E+00 0. -1.
         13    1    6    6    0    0  0.77038014794E+01  0.42726146916E+01  0.16328754182E+01  0.89599721355E+01  0.10500000000E+00 0.  1.
</event>
<event>
11    0  0.3510903E-009  0.9118800E+02  0.7816531E-02  0.1126479E+00
         25   -1    0    0    0    0  0.00000000000E+00  0.00000000000E+00  0.99999998245E-14  0.12500000000E+03  0.12500000000E+03 0.  0.
    3000001    1    3    3    0    0 -0.35977140947E+01 -0.28432015706E+02 -0.24540959511E+02  0.37743632013E+02  0.10000000000E+01 0.  1.
    1000022    2    1    0    0    0  0.35342771757E+00 -0.49761646962E+02 -0.36467843913E+02  0.62500000144E+02  0.99999979418E+01 0.  0.
    3000022    2    3    3    0    0  0.39511418122E+01 -0.21329631256E+02 -0.11926884402E+02  0.24756368131E+02  0.25000074254E+00 0.  0.
    1000022    2    1    0    0    0 -0.35342771757E+00  0.49761646962E+02  0.36467843913E+02  0.62499999856E+02  0.99999961385E+01 0.  0.
    3000022    2    5    5    0    0  0.28085043151E+01  0.41048203754E+01  0.36745889803E+01  0.61888890761E+01  0.24999404111E+00 0.  0.
        -13    1    4    4    0    0  0.16691361894E+01 -0.92181653879E+01 -0.50895326226E+01  0.10661845809E+02  0.10500000000E+00 0. -1.
         13    1    4    4    0    0  0.22820056229E+01 -0.12111465868E+02 -0.68373517797E+01  0.14094522322E+02  0.10500000000E+00 0.  1.
    3000001    1    5    5    0    0 -0.31619320327E+01  0.45656826587E+02  0.32793254933E+02  0.56311110780E+02  0.10000000000E+01 0.  1.
        -13    1    6    6    0    0  0.17189950802E+01  0.25843557661E+01  0.23472605419E+01  0.38928775813E+01  0.10500000000E+00 0. -1.
         13    1    6    6    0    0  0.10895092349E+01  0.15204646093E+01  0.13273284383E+01  0.22960114948E+01  0.10500000000E+00 0.  1.
</event>
<event>
11    0  0.3510903E-009  0.9118800E+02  0.7816531E-02  0.1126479E+00
         25   -1    0    0    0    0  0.00000000000E+00  0.00000000000E+00  0.99999998245E-14  0.12500000000E+03  0.12500000000E+03 0.  0.
    3000001    1    3    3    0    0 -0.21709245980E+01 -0.43190276243E-01  0.38695688532E+01  0.45484439229E+01  0.10000000000E+01 0. -1.
    1000022    2    1    0    0    0  0.62699967528E+00  0.99421467612E+01  0.60885224909E+02  0.62500000196E+02  0.10000000073E+02 0.  0.
    3000022    2    3    3    0    0  0.27979242733E+01  0.99853370374E+01  0.57015656056E+02  0.57951556273E+02  0.25000600166E+00 0.  0.
    1000022    2    1    0    0    0 -0.62699967528E+00 -0.99421467612E+01 -0.60885224909E+02  0.62499999804E+02  0.99999976244E+01 0.  0.
    3000022    2    5    5    0    0  0.69386136718E+00  0.19621394547E+01 -0.89950312665E+01  0.92360448209E+01  0.25000322311E+00 0.  0.
        -13    1    4    4    0    0  0.17471276335E+01  0.60969731585E+01  0.34591618234E+02  0.35168403628E+02  0.10500000000E+00 0. -1.
         13    1    4    4    0    0  0.10507966398E+01  0.38883638790E+01  0.22424037822E+02  0.22783152645E+02  0.10500000000E+00 0.  1.
    3000001    1    5    5    0    0 -0.13208610425E+01 -0.11904286216E+02 -0.51890193642E+02  0.53263954983E+02  0.10000000000E+01 0.  1.
        -13    1    6    6    0    0  0.47322648692E+00  0.12666616435E+01 -0.55971528140E+01  0.57591249032E+01  0.10500000000E+00 0. -1.
         13    1    6    6    0    0  0.22063488026E+00  0.69547781120E+00 -0.33978784525E+01  0.34769199177E+01  0.10500000000E+00 0.  1.
</event>
<event>
11    0  0.3510903E-009  0.9118800E+02  0.7816531E-02  0.1126479E+00
         25   -1    0    0    0    0  0.00000000000E+00  0.00000000000E+00  0.99999998245E-14  0.12500000000E+03  0.12500000000E+03 0.  0.
    3000001    1    3    3    0    0  0.49744726564E+02  0.10720102227E+02  0.15488618604E+02  0.53201087573E+02  0.10000000000E+01 0. -1.
    1000022    2    1    0    0    0  0.58724000797E+02  0.12652806864E+02  0.14058744972E+02  0.62499999079E+02  0.99999891738E+01 0.  0.
    3000022    2    3    3    0    0  0.89792742337E+01  0.19327046371E+01 -0.14298736330E+01  0.92989115060E+01  0.25000722109E+00 0.  0.
    1000022    2    1    0    0    0 -0.58724000797E+02 -0.12652806864E+02 -0.14058744972E+02  0.62500000921E+02  0.10000000690E+02 0.  0.
    3000022    2    5    5    0    0 -0.48342637972E+02 -0.13809360787E+02 -0.13145050126E+02  0.51966950586E+02  0.25003794058E+00 0.  0.
        -13    1    4    4    0    0  0.35874840417E+01  0.73489677727E+00 -0.51824491415E+00  0.36999618665E+01  0.10500000000E+00 0. -1.
         13    1    4    4    0    0  0.53917901920E+01  0.11978078598E+01 -0.91162871882E+00  0.55989496394E+01  0.10500000000E+00 0.  1.
    3000001    1    5    5    0    0 -0.10381362825E+02  0.11565539233E+01 -0.91369484553E+00  0.10533050335E+02  0.10000000000E+01 0.  1.
        -13    1    6    6    0    0 -0.25862148026E+02 -0.73468953462E+01 -0.69728109751E+01  0.27775145177E+02  0.10500000000E+00 0. -1.
         13    1    6    6    0    0 -0.22480489946E+02 -0.64624654413E+01 -0.61722391509E+01  0.24191805409E+02  0.10500000000E+00 0.  1.
</event>
<event>
11    0  0.3510903E-009  0.9118800E+02  0.7816531E-02  0.1126479E+00
         25   -1    0    0    0    0  0.00000000000E+00  0.00000000000E+00  0.99999998245E-14  0.12500000000E+03  0.12500000000E+03 0.  0.
    3000001    1    3    3    0    0  0.10442479121E+02 -0.64088443544E+01 -0.26943871652E+02  0.29615720078E+02  0.10000000000E+01 0. -1.
    1000022    2    1    0    0    0  0.30940599343E+02 -0.10588848146E+02 -0.52314484445E+02  0.62499999696E+02  0.10000014322E+02 0.  0.
    3000022    2    3    3    0    0  0.20498120222E+02 -0.41800037912E+01 -0.25370612794E+02  0.32884279618E+02  0.24997626244E+00 0.  0.
    1000022    2    1    0    0    0 -0.30940599343E+02  0.10588848146E+02  0.52314484445E+02  0.62500000304E+02  0.10000018124E+02 0.  0.
    3000022    2    5    5    0    0 -0.96613295350E+01  0.76217784848E+01  0.14721599485E+02  0.19189079908E+02  0.25000131108E+00 0.  0.
        -13    1    4    4    0    0  0.58677351777E+01 -0.12164908970E+01 -0.72100290841E+01  0.93758045314E+01  0.10500000000E+00 0. -1.
         13    1    4    4    0    0  0.14630385044E+02 -0.29635128942E+01 -0.18160583710E+02  0.23508475086E+02  0.10500000000E+00 0.  1.
    3000001    1    5    5    0    0 -0.21279269808E+02  0.29670696608E+01  0.37592884961E+02  0.43310920396E+02  0.10000000000E+01 0. -1.
        -13    1    6    6    0    0 -0.26199541247E+01  0.20915012804E+01  0.39627639817E+01  0.51916337116E+01  0.10500000000E+00 0. -1.
         13    1    6    6    0    0 -0.70413754103E+01  0.55302772043E+01  0.10758835503E+02  0.13997446196E+02  0.10500000000E+00 0.  1.
</event>
<event>
11    0  0.3510903E-009  0.9118800E+02  0.7816531E-02  0.1126479E+00
         25   -1    0    0    0    0  0.00000000000E+00  0.00000000000E+00  0.99999998245E-14  0.12500000000E+03  0.12500000000E+03 0.  0.
    3000001    1    3    3    0    0 -0.48951474880E+01 -0.23383985475E+02  0.23047137098E+02  0.33210597315E+02  0.10000000000E+01 0.  1.
    1000022    2    1    0    0    0 -0.13867082370E+02 -0.37020370128E+02  0.47365031487E+02  0.62499999623E+02  0.99999983623E+01 0.  0.
    3000022    2    3    3    0    0 -0.89719348816E+01 -0.13636384653E+02  0.24317894389E+02  0.29289402308E+02  0.24999619759E+00 0.  0.
    1000022    2    1    0    0    0  0.13867082370E+02  0.37020370128E+02 -0.47365031487E+02  0.62500000377E+02  0.10000003075E+02 0.  0.
    3000022    2    5    5    0    0  0.13217692665E+02  0.24836578215E+02 -0.28803495265E+02  0.40264957780E+02  0.24993747343E+00 0.  0.
        -13    1    4    4    0    0 -0.49754801801E+01 -0.74885747999E+01  0.13298873655E+02  0.16053199714E+02  0.10500000000E+00 0. -1.
         13    1    4    4    0    0 -0.39964547014E+01 -0.61478098530E+01  0.11019020734E+02  0.13236202594E+02  0.10500000000E+00 0.  1.
    3000001    1    5    5    0    0  0.64938970487E+00  0.12183791913E+02 -0.18561536222E+02  0.22235042597E+02  0.10000000000E+01 0. -1.
        -13    1    6    6    0    0  0.54609596336E+01  0.10255427282E+02 -0.11986909742E+02  0.16694097730E+02  0.10500000000E+00 0.  1.
         13    1    6    6    0    0  0.77567330311E+01  0.14581150933E+02 -0.16816585523E+02  0.23570860050E+02  0.10500000000E+00 0. -1.
</event>
<event>
11    0  0.3510903E-009  0.9118800E+02  0.7816531E-02  0.1126479E+00
         25   -1    0    0    0    0  0.00000000000E+00  0.00000000000E+00  0.99999998245E-14  0.12500000000E+03  0.12500000000E+03 0.  0.
    3000001    1    3    3    0    0 -0.96668266954E+01 -0.18443967626E+02  0.52197587802E+01  0.21491239189E+02  0.10000000000E+01 0. -1.
    1000022    2    1    0    0    0 -0.39039185381E+02 -0.45579917959E+02  0.14306054378E+02  0.62500000672E+02  0.99999987913E+01 0.  0.
    3000022    2    3    3    0    0 -0.29372358685E+02 -0.27135950333E+02  0.90862955982E+01  0.41008761483E+02  0.24999099295E+00 0.  0.
    1000022    2    1    0    0    0  0.39039185381E+02  0.45579917959E+02 -0.14306054378E+02  0.62499999328E+02  0.99999903853E+01 0.  0.
    3000022    2    5    5    0    0  0.61534557207E+00 -0.32723157235E+00  0.40720037036E+00  0.84500999938E+00  0.24999816482E+00 0.  0.
        -13    1    4    4    0    0 -0.14804716299E+02 -0.13717895712E+02  0.46485631530E+01  0.20711843275E+02  0.10500000000E+00 0. -1.
         13    1    4    4    0    0 -0.14567642387E+02 -0.13418054621E+02  0.44377324453E+01  0.20296918209E+02  0.10500000000E+00 0.  1.
    3000001    1    5    5    0    0  0.38423839809E+02  0.45907149532E+02 -0.14713254749E+02  0.61654989328E+02  0.10000000000E+01 0.  1.
        -13    1    6    6    0    0  0.21555845660E+00 -0.18219131474E+00  0.14205938327E+00  0.33296394963E+00  0.10500000000E+00 0. -1.
         13    1    6    6    0    0  0.39978711547E+00 -0.14504025761E+00  0.26514098710E+00  0.51204604975E+00  0.10500000000E+00 0.  1.
</event>
<event>
11    0  0.3510903E-009  0.9118800E+02  0.7816531E-02  0.1126479E+00
         25   -1    0    0    0    0  0.00000000000E+00  0.00000000000E+00  0.99999998245E-14  0.12500000000E+03  0.12500000000E+03 0.  0.
    3000001    1    3    3    0    0 -0.42282303274E+01 -0.39666657465E+02  0.18811044723E+02  0.44115496707E+02  0.10000000000E+01 0.  1.
    1000022    2    1    0    0    0 -0.10615095576E+02 -0.53009966467E+02  0.29723955219E+02  0.62500002572E+02  0.10000000434E+02 0.  0.
    3000022    2    3    3    0    0 -0.63868652490E+01 -0.13343309002E+02  0.10912910496E+02  0.18384505865E+02  0.24999511245E+00 0.  0.
    1000022    2    1    0    0    0  0.10615095576E+02  0.53009966467E+02 -0.29723955219E+02  0.62499997428E+02  0.99999682844E+01 0.  0.
    3000022    2    5    5    0    0  0.11503346580E+02  0.49499257704E+02 -0.29444325134E+02  0.58732735976E+02  0.24999362103E+00 0.  0.
        -13    1    4    4    0    0 -0.48003906324E+01 -0.10042195342E+02  0.81801890499E+01  0.13813614856E+02  0.10500000000E+00 0.  1.
         13    1    4    4    0    0 -0.15864746165E+01 -0.33011136601E+01  0.27327214465E+01  0.45708910083E+01  0.10500000000E+00 0. -1.
    3000001    1    5    5    0    0 -0.88825100397E+00  0.35107087626E+01 -0.27963008529E+00  0.37672614518E+01  0.10000000000E+01 0. -1.
        -13    1    6    6    0    0  0.36171557986E+01  0.15351864859E+02 -0.91322635401E+01  0.18225609266E+02  0.10500000000E+00 0. -1.
         13    1    6    6    0    0  0.78861907817E+01  0.34147392845E+02 -0.20312061594E+02  0.40507126711E+02  0.10500000000E+00 0.  1.
</event>
<event>
11    0  0.3510903E-009  0.9118800E+02  0.7816531E-02  0.1126479E+00
         25   -1    0    0    0    0  0.00000000000E+00  0.00000000000E+00  0.99999998245E-14  0.12500000000E+03  0.12500000000E+03 0.  0.
    3000001    1    3    3    0    0  0.54149365063E+00 -0.24639261454E+02  0.20886760174E+02  0.32320940130E+02  0.10000000000E+01 0.  1.
    1000022    2    1    0    0    0 -0.12664577199E+01 -0.52453814159E+02  0.32453749087E+02  0.62500001809E+02  0.99998930648E+01 0.  0.
    3000022    2    3    3    0    0 -0.18079513705E+01 -0.27814552705E+02  0.11566988913E+02  0.30179061678E+02  0.25000182806E+00 0.  0.
    1000022    2    1    0    0    0  0.12664577199E+01  0.52453814159E+02 -0.32453749087E+02  0.62499998191E+02  0.99998704582E+01 0.  0.
    3000022    2    5    5    0    0  0.45456286805E+01  0.17469755242E+02 -0.84381631396E+01  0.19927874579E+02  0.24999950333E+00 0.  0.
        -13    1    4    4    0    0 -0.80152121017E+00 -0.11461320898E+02  0.47347994167E+01  0.12427134163E+02  0.10500000000E+00 0.  1.
         13    1    4    4    0    0 -0.10064301603E+01 -0.16353231807E+02  0.68321894964E+01  0.17751927516E+02  0.10500000000E+00 0. -1.
    3000001    1    5    5    0    0 -0.32791709606E+01  0.34984058917E+02 -0.24015585947E+02  0.42572123613E+02  0.10000000000E+01 0. -1.
        -13    1    6    6    0    0  0.16215052694E+01  0.63554555710E+01 -0.31209982229E+01  0.72644855125E+01  0.10500000000E+00 0. -1.
         13    1    6    6    0    0  0.29241234111E+01  0.11114299671E+02 -0.53171649166E+01  0.12663389066E+02  0.10500000000E+00 0.  1.
</event>
<event>
11    0  0.3510903E-009  0.9118800E+02  0.7816531E-02  0.1126479E+00
         25   -1    0    0    0    0  0.00000000000E+00  0.00000000000E+00  0.99999998245E-14  0.12500000000E+03  0.12500000000E+03 0.  0.
    3000001    1    3    3    0    0 -0.19218510307E+02 -0.16877375166E+02 -0.14696873699E+02  0.29516013068E+02  0.10000000000E+01 0.  1.
    1000022    2    1    0    0    0 -0.40457723841E+02 -0.41003145091E+02 -0.22094444280E+02  0.62500001857E+02  0.10000021915E+02 0.  0.
    3000022    2    3    3    0    0 -0.21239213534E+02 -0.24125769925E+02 -0.73975705810E+01  0.32983988789E+02  0.24999975960E+00 0.  0.
    1000022    2    1    0    0    0  0.40457723841E+02  0.41003145091E+02  0.22094444280E+02  0.62499998143E+02  0.99999987012E+01 0.  0.
    3000022    2    5    5    0    0  0.33321508947E+02  0.35561959525E+02  0.14919588080E+02  0.50966974911E+02  0.24999854101E+00 0.  0.
        -13    1    4    4    0    0 -0.78510765753E+01 -0.89162101170E+01 -0.27952628574E+01  0.12205028705E+02  0.10500000000E+00 0.  1.
         13    1    4    4    0    0 -0.13388136959E+02 -0.15209559808E+02 -0.46023077236E+01  0.20778960084E+02  0.10500000000E+00 0. -1.
    3000001    1    5    5    0    0  0.71362148937E+01  0.54411855658E+01  0.71748562008E+01  0.11533023232E+02  0.10000000000E+01 0. -1.
        -13    1    6    6    0    0  0.22081721055E+02  0.23566023696E+02  0.99436174081E+01  0.33791218234E+02  0.10500000000E+00 0. -1.
         13    1    6    6    0    0  0.11239787893E+02  0.11995935829E+02  0.49759706716E+01  0.17175756677E+02  0.10500000000E+00 0.  1.
</event>
<event>
11    0  0.3510903E-009  0.9118800E+02  0.7816531E-02  0.1126479E+00
         25   -1    0    0    0    0  0.00000000000E+00  0.00000000000E+00  0.99999998245E-14  0.12500000000E+03  0.12500000000E+03 0.  0.
    3000001    1    3    3    0    0  0.62654941652E+01  0.73731448887E+01 -0.34622945086E+01  0.10325074622E+02  0.10000000000E+01 0. -1.
    1000022    2    1    0    0    0  0.35873410819E+02  0.50193110712E+02 -0.76597839776E-03  0.62500000406E+02  0.10000004169E+02 0.  0.
    3000022    2    3    3    0    0  0.29607916654E+02  0.42819965824E+02  0.34615285303E+01  0.52174925784E+02  0.24999816004E+00 0.  0.
    1000022    2    1    0    0    0 -0.35873410819E+02 -0.50193110712E+02  0.76597839776E-03  0.62499999594E+02  0.99999990976E+01 0.  0.
    3000022    2    5    5    0    0 -0.17106003749E+02 -0.32297625768E+02  0.24805943169E-01  0.36548804488E+02  0.24999932159E+00 0.  0.
        -13    1    4    4    0    0  0.14235534845E+02  0.20565991772E+02  0.15964777221E+01  0.25063324520E+02  0.10500000000E+00 0. -1.
         13    1    4    4    0    0  0.15372381809E+02  0.22253974051E+02  0.18650508082E+01  0.27111601264E+02  0.10500000000E+00 0.  1.
    3000001    1    5    5    0    0 -0.18767407070E+02 -0.17895484944E+02 -0.24039964771E-01  0.25951195106E+02  0.10000000000E+01 0. -1.
        -13    1    6    6    0    0 -0.97841357497E+01 -0.18352146294E+02 -0.18846424414E-01  0.20797643283E+02  0.10500000000E+00 0. -1.
         13    1    6    6    0    0 -0.73218679989E+01 -0.13945479474E+02  0.43652367583E-01  0.15751161205E+02  0.10500000000E+00 0.  1.
</event>
<event>
11    0  0.3510903E-009  0.9118800E+02  0.7816531E-02  0.1126479E+00
         25   -1    0    0    0    0  0.00000000000E+00  0.00000000000E+00  0.99999998245E-14  0.12500000000E+03  0.12500000000E+03 0.  0.
    3000001    1    3    3    0    0 -0.42234663457E+01 -0.98328037506E+01 -0.11437882461E+02  0.15695440508E+02  0.10000000000E+01 0. -1.
    1000022    2    1    0    0    0 -0.44613000704E+01 -0.30647690146E+02 -0.53357906890E+02  0.62500002357E+02  0.99999978709E+01 0.  0.
    3000022    2    3    3    0    0 -0.23783372463E+00 -0.20814886396E+02 -0.41920024429E+02  0.46804561849E+02  0.25000240334E+00 0.  0.
    1000022    2    1    0    0    0  0.44613000704E+01  0.30647690146E+02  0.53357906890E+02  0.62499997643E+02  0.99999684032E+01 0.  0.
    3000022    2    5    5    0    0 -0.29849050252E+00  0.24632286384E+02  0.43216838103E+02  0.49745313606E+02  0.25000225369E+00 0.  0.
        -13    1    4    4    0    0 -0.10703283162E+00 -0.12691612146E+02 -0.25448394363E+02  0.28438007587E+02  0.10500000000E+00 0. -1.
         13    1    4    4    0    0 -0.13080089301E+00 -0.81232742499E+01 -0.16471630066E+02  0.18366554262E+02  0.10500000000E+00 0.  1.
    3000001    1    5    5    0    0  0.47597905729E+01  0.60154037625E+01  0.10141068787E+02  0.12754684036E+02  0.10000000000E+01 0.  1.
        -13    1    6    6    0    0 -0.17358505421E+00  0.16499705247E+02  0.28854469035E+02  0.33239461688E+02  0.10500000000E+00 0. -1.
         13    1    6    6    0    0 -0.12490544831E+00  0.81325811362E+01  0.14362369068E+02  0.16505851919E+02  0.10500000000E+00 0.  1.
</event>
<event>
11    0  0.3510903E-009  0.9118800E+02  0.7816531E-02  0.1126479E+00
         25   -1    0    0    0    0  0.00000000000E+00  0.00000000000E+00  0.99999998245E-14  0.12500000000E+03  0.12500000000E+03 0.  0.
    3000001    1    3    3    0    0  0.12515038958E+02 -0.11562369006E+02 -0.38669419441E+01  0.17500509054E+02  0.10000000000E+01 0.  1.
    1000022    2    1    0    0    0  0.45979889813E+02 -0.41092366659E+02  0.18754202048E+01  0.62500000490E+02  0.99999997724E+01 0.  0.
    3000022    2    3    3    0    0  0.33464850855E+02 -0.29529997654E+02  0.57423621489E+01  0.44999491437E+02  0.25000461640E+00 0.  0.
    1000022    2    1    0    0    0 -0.45979889813E+02  0.41092366659E+02 -0.18754202048E+01  0.62499999510E+02  0.99999936431E+01 0.  0.
    3000022    2    5    5    0    0 -0.12272061622E+02  0.55994300772E+01 -0.10814764243E+01  0.13534740649E+02  0.24999905497E+00 0.  0.
        -13    1    4    4    0    0  0.14374770240E+02 -0.12597383499E+02  0.24616991312E+01  0.19271717051E+02  0.10500000000E+00 0.  1.
         13    1    4    4    0    0  0.19090080615E+02 -0.16932614155E+02  0.32806630177E+01  0.25727774386E+02  0.10500000000E+00 0. -1.
    3000001    1    5    5    0    0 -0.33707828191E+02  0.35492936582E+02 -0.79394378049E+00  0.48965258861E+02  0.10000000000E+01 0.  1.
        -13    1    6    6    0    0 -0.64688326165E+01  0.28775625640E+01 -0.56221693157E+00  0.71030468539E+01  0.10500000000E+00 0.  1.
         13    1    6    6    0    0 -0.58032290056E+01  0.27218675132E+01 -0.51925949272E+00  0.64316937949E+01  0.10500000000E+00 0. -1.
</event>
<event>
11    0  0.3510903E-009  0.9118800E+02  0.7816531E-02  0.1126479E+00
         25   -1    0    0    0    0  0.00000000000E+00  0.00000000000E+00  0.99999998245E-14  0.12500000000E+03  0.12500000000E+03 0.  0.
    3000001    1    3    3    0    0  0.47347418246E+01  0.36381490345E+01 -0.90572931983E+00  0.61216218557E+01  0.10000000000E+01 0. -1.
    1000022    2    1    0    0    0  0.60468517771E+02  0.12011660744E+02 -0.23512515125E+01  0.62499999939E+02  0.99999986716E+01 0.  0.
    3000022    2    3    3    0    0  0.55733775946E+02  0.83735117090E+01 -0.14455221926E+01  0.56378378083E+02  0.25000257210E+00 0.  0.
    1000022    2    1    0    0    0 -0.60468517771E+02 -0.12011660744E+02  0.23512515125E+01  0.62500000061E+02  0.99999994380E+01 0.  0.
    3000022    2    5    5    0    0 -0.70646943483E+01  0.17276489168E+01 -0.31131296023E+00  0.72838227609E+01  0.24996247526E+00 0.  0.
        -13    1    4    4    0    0  0.29929854185E+02  0.45567192126E+01 -0.74500393037E+00  0.30284086867E+02  0.10500000000E+00 0.  1.
         13    1    4    4    0    0  0.25803921761E+02  0.38167924963E+01 -0.70051826228E+00  0.26094291216E+02  0.10500000000E+00 0. -1.
    3000001    1    5    5    0    0 -0.53403823423E+02 -0.13739309660E+02  0.26625644727E+01  0.55216177300E+02  0.10000000000E+01 0.  1.
        -13    1    6    6    0    0 -0.44671168384E+01  0.10744797177E+01 -0.25331442408E+00  0.46026984161E+01  0.10500000000E+00 0. -1.
         13    1    6    6    0    0 -0.25975775098E+01  0.65316919909E+00 -0.57998536142E-01  0.26811243448E+01  0.10500000000E+00 0.  1.
</event>
<event>
11    0  0.3510903E-009  0.9118800E+02  0.7816531E-02  0.1126479E+00
         25   -1    0    0    0    0  0.00000000000E+00  0.00000000000E+00  0.99999998245E-14  0.12500000000E+03  0.12500000000E+03 0.  0.
    3000001    1    3    3    0    0 -0.92350091112E+01  0.13953729240E+02 -0.23305766016E+01  0.16924052124E+02  0.10000000000E+01 0. -1.
    1000022    2    1    0    0    0 -0.43603868380E+02  0.40693638586E+02 -0.15779118038E+02  0.62499999768E+02  0.99999922939E+01 0.  0.
    3000022    2    3    3    0    0 -0.34368859269E+02  0.26739909345E+02 -0.13448541436E+02  0.45575947644E+02  0.24999527601E+00 0.  0.
    1000022    2    1    0    0    0  0.43603868380E+02 -0.40693638586E+02  0.15779118038E+02  0.62500000232E+02  0.99999951957E+01 0.  0.
    3000022    2    5    5    0    0  0.13072892298E+02 -0.89056274976E+01  0.80169221202E+01  0.17735395521E+02  0.24999970052E+00 0.  0.
        -13    1    4    4    0    0 -0.19580614181E+02  0.15302788264E+02 -0.76362522631E+01  0.25998060581E+02  0.10500000000E+00 0. -1.
         13    1    4    4    0    0 -0.14788245089E+02  0.11437121081E+02 -0.58122891729E+01  0.19577887063E+02  0.10500000000E+00 0.  1.
    3000001    1    5    5    0    0  0.30530976082E+02 -0.31788011088E+02  0.77621959174E+01  0.44764604711E+02  0.10000000000E+01 0.  1.
        -13    1    6    6    0    0  0.32573498234E+01 -0.22362452293E+01  0.19783017040E+01  0.44199347540E+01  0.10500000000E+00 0. -1.
         13    1    6    6    0    0  0.98155424749E+01 -0.66693822683E+01  0.60386204162E+01  0.13315460767E+02  0.10500000000E+00 0.  1.
</event>
<event>
11    0  0.3510903E-009  0.9118800E+02  0.7816531E-02  0.1126479E+00
         25   -1    0    0    0    0  0.00000000000E+00  0.00000000000E+00  0.99999998245E-14  0.12500000000E+03  0.12500000000E+03 0.  0.
    3000001    1    3    3    0    0 -0.32699964365E+01  0.45286848838E+01 -0.85279684561E+01  0.10243442266E+02  0.10000000000E+01 0. -1.
    1000022    2    1    0    0    0 -0.75125366018E+01  0.43343864263E+02 -0.43256452616E+02  0.62499996048E+02  0.10000001884E+02 0.  0.
    3000022    2    3    3    0    0 -0.42425401653E+01  0.38815179379E+02 -0.34728484160E+02  0.52256553782E+02  0.25000771129E+00 0.  0.
    1000022    2    1    0    0    0  0.75125366018E+01 -0.43343864263E+02  0.43256452616E+02  0.62500003952E+02  0.10000051279E+02 0.  0.
    3000022    2    5    5    0    0  0.26968653011E+01 -0.27311029124E+01  0.17640211793E+01  0.42315824770E+01  0.25002793522E+00 0.  0.
        -13    1    4    4    0    0 -0.24520754825E+01  0.22849156459E+02 -0.20377949482E+02  0.30714304081E+02  0.10500000000E+00 0. -1.
         13    1    4    4    0    0 -0.17904646828E+01  0.15966022920E+02 -0.14350534678E+02  0.21542249702E+02  0.10500000000E+00 0.  1.
    3000001    1    5    5    0    0  0.48156713007E+01 -0.40612761351E+02  0.41492431437E+02  0.58268421475E+02  0.10000000000E+01 0. -1.
        -13    1    6    6    0    0  0.73264744250E+00 -0.72610163006E+00  0.43845889582E+00  0.11257295659E+01  0.10500000000E+00 0.  1.
         13    1    6    6    0    0  0.19642178586E+01 -0.20050012823E+01  0.13255622835E+01  0.31058529111E+01  0.10500000000E+00 0. -1.
</event>
<event>
11    0  0.3510903E-009  0.9118800E+02  0.7816531E-02  0.1126479E+00
         25   -1    0    0    0    0  0.00000000000E+00  0.00000000000E+00  0.99999998245E-14  0.12500000000E+03  0.12500000000E+03 0.  0.
    3000001    1    3    3    0    0  0.44986575313E+02 -0.20074466290E+02 -0.10047210950E+02  0.50286405748E+02  0.10000000000E+01 0. -1.
    1000022    2    1    0    0    0  0.54492795728E+02 -0.23460617536E+02 -0.16922902971E+02  0.62500000133E+02  0.10000000512E+02 0.  0.
    3000022    2    3    3    0    0  0.95062204148E+01 -0.33861512460E+01 -0.68756920211E+01  0.12213594384E+02  0.25000036723E+00 0.  0.
    1000022    2    1    0    0    0 -0.54492795728E+02  0.23460617536E+02  0.16922902971E+02  0.62499999867E+02  0.99999988522E+01 0.  0.
    3000022    2    5    5    0    0 -0.22786987971E+02  0.15063999886E+02  0.87348910414E+01  0.28679813989E+02  0.24999119855E+00 0.  0.
        -13    1    4    4    0    0  0.23171038362E+01 -0.84283404244E+00 -0.16999757909E+01  0.29967118814E+01  0.10500000000E+00 0.  1.
         13    1    4    4    0    0  0.71891165786E+01 -0.25433172035E+01 -0.51757162302E+01  0.92168825031E+01  0.10500000000E+00 0.  1.
    3000001    1    5    5    0    0 -0.31705807757E+02  0.83966176501E+01  0.81880119301E+01  0.33820185878E+02  0.10000000000E+01 0. -1.
        -13    1    6    6    0    0 -0.11261488279E+02  0.74840017757E+01  0.43860992613E+01  0.14215494806E+02  0.10500000000E+00 0. -1.
         13    1    6    6    0    0 -0.11525499692E+02  0.75799981099E+01  0.43487917801E+01  0.14464319183E+02  0.10500000000E+00 0.  1.
</event>
<event>
11    0  0.3510903E-009  0.9118800E+02  0.7816531E-02  0.1126479E+00
         25   -1    0    0    0    0  0.00000000000E+00  0.00000000000E+00  0.99999998245E-14  0.12500000000E+03  0.12500000000E+03 0.  0.
    3000001    1    3    3    0    0  0.30899670913E+02 -0.27289103471E+02 -0.13325555665E+02  0.43336534986E+02  0.10000000000E+01 0.  1.
    1000022    2    1    0    0    0  0.45175762257E+02 -0.40054834438E+02 -0.12688998568E+02  0.62499999507E+02  0.99999998158E+01 0.  0.
    3000022    2    3    3    0    0  0.14276091344E+02 -0.12765730967E+02  0.63655709735E+00  0.19163464521E+02  0.24999264491E+00 0.  0.
    1000022    2    1    0    0    0 -0.45175762257E+02  0.40054834438E+02  0.12688998568E+02  0.62500000493E+02  0.10000005984E+02 0.  0.
    3000022    2    5    5    0    0 -0.27300073144E+01  0.58672632821E+01  0.29898941539E+01  0.71329998469E+01  0.25000281002E+00 0.  0.
        -13    1    4    4    0    0  0.45643434842E+01 -0.40654822004E+01  0.15402615911E+00  0.61152372007E+01  0.10500000000E+00 0. -1.
         13    1    4    4    0    0  0.97117478595E+01 -0.87002487669E+01  0.48253093824E+00  0.13048227320E+02  0.10500000000E+00 0.  1.
    3000001    1    5    5    0    0 -0.42445754942E+02  0.34187571156E+02  0.96991044137E+01  0.55367000647E+02  0.10000000000E+01 0.  1.
        -13    1    6    6    0    0 -0.10516194147E+01  0.21978896545E+01  0.10662977446E+01  0.26616983689E+01  0.10500000000E+00 0. -1.
         13    1    6    6    0    0 -0.16783878997E+01  0.36693736276E+01  0.19235964093E+01  0.44713014780E+01  0.10500000000E+00 0.  1.
</event>
<event>
11    0  0.3510903E-009  0.9118800E+02  0.7816531E-02  0.1126479E+00
         25   -1    0    0    0    0  0.00000000000E+00  0.00000000000E+00  0.99999998245E-14  0.12500000000E+03  0.12500000000E+03 0.  0.
    3000001    1    3    3    0    0  0.22147432629E+01  0.18600038234E+02 -0.93298411925E+01  0.20950237390E+02  0.10000000000E+01 0. -1.
    1000022    2    1    0    0    0  0.15410107130E+02  0.48031003232E+02 -0.35521843491E+02  0.62499999948E+02  0.99999977632E+01 0.  0.
    3000022    2    3    3    0    0  0.13195363867E+02  0.29430964999E+02 -0.26192002298E+02  0.41549762558E+02  0.24991181136E+00 0.  0.
    1000022    2    1    0    0    0 -0.15410107130E+02 -0.48031003232E+02  0.35521843491E+02  0.62500000052E+02  0.99999984106E+01 0.  0.
    3000022    2    5    5    0    0 -0.31511025937E+01 -0.93201530037E+01  0.12157382891E+02  0.15641584193E+02  0.24999548715E+00 0.  0.
        -13    1    4    4    0    0  0.55718619515E+01  0.12315552035E+02 -0.11035781909E+02  0.17450443401E+02  0.10500000000E+00 0.  1.
         13    1    4    4    0    0  0.76235019159E+01  0.17115412964E+02 -0.15156220389E+02  0.24099319158E+02  0.10500000000E+00 0. -1.
    3000001    1    5    5    0    0 -0.12259004537E+02 -0.38710850229E+02  0.23364460599E+02  0.46858415858E+02  0.10000000000E+01 0. -1.
        -13    1    6    6    0    0 -0.75874306633E+00 -0.22457654348E+01  0.29633218952E+01  0.37962422319E+01  0.10500000000E+00 0.  1.
         13    1    6    6    0    0 -0.23923595274E+01 -0.70743875689E+01  0.91940609962E+01  0.11845341962E+02  0.10500000000E+00 0. -1.
</event>
<event>
11    0  0.3510903E-009  0.9118800E+02  0.7816531E-02  0.1126479E+00
         25   -1    0    0    0    0  0.00000000000E+00  0.00000000000E+00  0.99999998245E-14  0.12500000000E+03  0.12500000000E+03 0.  0.
    3000001    1    3    3    0    0  0.25228995922E+01  0.32563682195E+02 -0.26178644937E+01  0.32781269575E+02  0.10000000000E+01 0.  1.
    1000022    2    1    0    0    0 -0.89757692018E+00  0.61637835500E+02  0.24943131697E+01  0.62499999904E+02  0.99999990174E+01 0.  0.
    3000022    2    3    3    0    0 -0.34204765124E+01  0.29074153305E+02  0.51121776634E+01  0.29718730328E+02  0.25004383547E+00 0.  0.
    1000022    2    1    0    0    0  0.89757692018E+00 -0.61637835500E+02 -0.24943131697E+01  0.62500000096E+02  0.10000000222E+02 0.  0.
    3000022    2    5    5    0    0 -0.10510026047E+01 -0.58813187053E+02 -0.29485170174E+01  0.58896959416E+02  0.24999597807E+00 0.  0.
        -13    1    4    4    0    0 -0.92894796487E+00  0.79630921248E+01  0.13628357769E+01  0.81327810044E+01  0.10500000000E+00 0.  1.
         13    1    4    4    0    0 -0.24915285475E+01  0.21111061180E+02  0.37493418864E+01  0.21585949324E+02  0.10500000000E+00 0. -1.
    3000001    1    5    5    0    0  0.19485795248E+01 -0.28246484467E+01  0.45420384772E+00  0.36030406808E+01  0.10000000000E+01 0. -1.
        -13    1    6    6    0    0 -0.43552992670E+00 -0.22265841276E+02 -0.10686823732E+01  0.22295974548E+02  0.10500000000E+00 0. -1.
         13    1    6    6    0    0 -0.61547267796E+00 -0.36547345777E+02 -0.18798346441E+01  0.36600984867E+02  0.10500000000E+00 0.  1.
</event>
<event>
11    0  0.3510903E-009  0.9118800E+02  0.7816531E-02  0.1126479E+00
         25   -1    0    0    0    0  0.00000000000E+00  0.00000000000E+00  0.99999998245E-14  0.12500000000E+03  0.12500000000E+03 0.  0.
    3000001    1    3    3    0    0 -0.10408323961E+02  0.54284322090E+01 -0.51604729335E+01  0.12862020247E+02  0.10000000000E+01 0.  1.
    1000022    2    1    0    0    0 -0.48575073015E+02  0.36906075055E+02 -0.92007663034E+01  0.62500001695E+02  0.10000000849E+02 0.  0.
    3000022    2    3    3    0    0 -0.38166749053E+02  0.31477642846E+02 -0.40402933699E+01  0.49637981448E+02  0.24999862687E+00 0.  0.
    1000022    2    1    0    0    0  0.48575073015E+02 -0.36906075055E+02  0.92007663034E+01  0.62499998305E+02  0.99999796591E+01 0.  0.
    3000022    2    5    5    0    0  0.37918914220E+02 -0.33000032820E+02  0.57541196529E+01  0.50596626541E+02  0.25000533152E+00 0.  0.
        -13    1    4    4    0    0 -0.18532207689E+02  0.15338704949E+02 -0.19113201078E+01  0.24132607835E+02  0.10500000000E+00 0.  1.
         13    1    4    4    0    0 -0.19634541364E+02  0.16138937897E+02 -0.21289732621E+01  0.25505373614E+02  0.10500000000E+00 0. -1.
    3000001    1    5    5    0    0  0.10656158795E+02 -0.39060422350E+01  0.34466466505E+01  0.11903371763E+02  0.10000000000E+01 0. -1.
        -13    1    6    6    0    0  0.15998340732E+02 -0.14005807055E+02  0.24522327468E+01  0.21404065219E+02  0.10500000000E+00 0. -1.
         13    1    6    6    0    0  0.21920573488E+02 -0.18994225765E+02  0.33018869061E+01  0.29192561322E+02  0.10500000000E+00 0.  1.
</event>
<event>
11    0  0.3510903E-009  0.9118800E+02  0.7816531E-02  0.1126479E+00
         25   -1    0    0    0    0  0.00000000000E+00  0.00000000000E+00  0.99999998245E-14  0.12500000000E+03  0.12500000000E+03 0.  0.
    3000001    1    3    3    0    0  0.81437671770E+01  0.12347559351E+02  0.11414577150E+02  0.18710310988E+02  0.10000000000E+01 0.  1.
    1000022    2    1    0    0    0  0.26440179162E+02  0.49516596296E+02  0.25598316020E+02  0.62500000986E+02  0.99999978662E+01 0.  0.
    3000022    2    3    3    0    0  0.18296411985E+02  0.37169036945E+02  0.14183738870E+02  0.43789689998E+02  0.25000564785E+00 0.  0.
    1000022    2    1    0    0    0 -0.26440179162E+02 -0.49516596296E+02 -0.25598316020E+02  0.62499999014E+02  0.99999855412E+01 0.  0.
    3000022    2    5    5    0    0 -0.24965594103E+02 -0.38737903873E+02 -0.20339142072E+02  0.50375085733E+02  0.24995402040E+00 0.  0.
        -13    1    4    4    0    0  0.77073412102E+01  0.15607667174E+02  0.58951786217E+01  0.18378425915E+02  0.10500000000E+00 0.  1.
         13    1    4    4    0    0  0.10589070775E+02  0.21561369772E+02  0.82885602485E+01  0.25411264083E+02  0.10500000000E+00 0. -1.
    3000001    1    5    5    0    0 -0.14745850584E+01 -0.10778692423E+02 -0.52591739482E+01  0.12124913281E+02  0.10000000000E+01 0. -1.
        -13    1    6    6    0    0 -0.11251842654E+02 -0.17397121466E+02 -0.90809031791E+01  0.22621618553E+02  0.10500000000E+00 0.  1.
         13    1    6    6    0    0 -0.13713751449E+02 -0.21340782407E+02 -0.11258238893E+02  0.27753467180E+02  0.10500000000E+00 0. -1.
</event>
<event>
11    0  0.3510903E-009  0.9118800E+02  0.7816531E-02  0.1126479E+00
         25   -1    0    0    0    0  0.00000000000E+00  0.00000000000E+00  0.99999998245E-14  0.12500000000E+03  0.12500000000E+03 0.  0.
    3000001    1    3    3    0    0  0.24946223960E+02 -0.17585416585E+02  0.61198779759E+01  0.31145045718E+02  0.10000000000E+01 0. -1.
    1000022    2    1    0    0    0  0.54520352887E+02 -0.27927576407E+02  0.73369930295E+01  0.62500001329E+02  0.10000014827E+02 0.  0.
    3000022    2    3    3    0    0  0.29574128927E+02 -0.10342159822E+02  0.12171150536E+01  0.31354955611E+02  0.25000150353E+00 0.  0.
    1000022    2    1    0    0    0 -0.54520352887E+02  0.27927576407E+02 -0.73369930295E+01  0.62499998671E+02  0.99999982134E+01 0.  0.
    3000022    2    5    5    0    0 -0.43885058458E+02  0.19652320300E+02 -0.25078304305E+01  0.48150428550E+02  0.25001424850E+00 0.  0.
        -13    1    4    4    0    0  0.19598445796E+02 -0.69019786577E+01  0.77794513000E+00  0.20793090455E+02  0.10500000000E+00 0.  1.
         13    1    4    4    0    0  0.99756831310E+01 -0.34401811638E+01  0.43916992361E+00  0.10561865157E+02  0.10500000000E+00 0. -1.
    3000001    1    5    5    0    0 -0.10635294430E+02  0.82752561070E+01 -0.48291625990E+01  0.14349570121E+02  0.10000000000E+01 0.  1.
        -13    1    6    6    0    0 -0.28708958118E+02  0.12796019384E+02 -0.16494595642E+01  0.31474976253E+02  0.10500000000E+00 0.  1.
         13    1    6    6    0    0 -0.15176100340E+02  0.68563009155E+01 -0.85837086624E+00  0.16675452297E+02  0.10500000000E+00 0. -1.
</event>
<event>
11    0  0.3510903E-009  0.9118800E+02  0.7816531E-02  0.1126479E+00
         25   -1    0    0    0    0  0.00000000000E+00  0.00000000000E+00  0.99999998245E-14  0.12500000000E+03  0.12500000000E+03 0.  0.
    3000001    1    3    3    0    0  0.10982328378E+01 -0.21158522816E+01  0.73368121894E+00  0.26872354520E+01  0.10000000000E+01 0. -1.
    1000022    2    1    0    0    0  0.32116590033E+02 -0.47061176363E+02 -0.23664751877E+02  0.62499998947E+02  0.99999855489E+01 0.  0.
    3000022    2    3    3    0    0  0.31018357195E+02 -0.44945324081E+02 -0.24398433096E+02  0.59812763495E+02  0.24999903098E+00 0.  0.
    1000022    2    1    0    0    0 -0.32116590033E+02  0.47061176363E+02  0.23664751877E+02  0.62500001053E+02  0.99999987078E+01 0.  0.
    3000022    2    5    5    0    0 -0.24438309621E+02  0.27410638354E+02  0.15257582222E+02  0.39767202375E+02  0.24999467711E+00 0.  0.
        -13    1    4    4    0    0  0.16801165760E+02 -0.24310878538E+02 -0.13273333750E+02  0.32395839239E+02  0.10500000000E+00 0. -1.
         13    1    4    4    0    0  0.14217191435E+02 -0.20634445543E+02 -0.11125099347E+02  0.27416924256E+02  0.10500000000E+00 0.  1.
    3000001    1    5    5    0    0 -0.76782804122E+01  0.19650538009E+02  0.84071696553E+01  0.22732798678E+02  0.10000000000E+01 0. -1.
        -13    1    6    6    0    0 -0.12649250579E+02  0.14129338469E+02  0.79392206805E+01  0.20559280041E+02  0.10500000000E+00 0. -1.
         13    1    6    6    0    0 -0.11789059043E+02  0.13281299885E+02  0.73183615414E+01  0.19207922334E+02  0.10500000000E+00 0.  1.
</event>
<event>
11    0  0.3510903E-009  0.9118800E+02  0.7816531E-02  0.1126479E+00
         25   -1    0    0    0    0  0.00000000000E+00  0.00000000000E+00  0.99999998245E-14  0.12500000000E+03  0.12500000000E+03 0.  0.
    3000001    1    3    3    0    0 -0.21181739910E+02 -0.32700958044E+02 -0.15060489071E+02  0.41783215454E+02  0.10000000000E+01 0. -1.
    1000022    2    1    0    0    0 -0.33090766202E+02 -0.44216925599E+02 -0.27497540724E+02  0.62500000194E+02  0.99999980549E+01 0.  0.
    3000022    2    3    3    0    0 -0.11909026293E+02 -0.11515967555E+02 -0.12437051653E+02  0.20716784740E+02  0.25000037447E+00 0.  0.
    1000022    2    1    0    0    0  0.33090766202E+02  0.44216925599E+02  0.27497540724E+02  0.62499999806E+02  0.99999956327E+01 0.  0.
    3000022    2    5    5    0    0  0.18314367467E+02  0.17041079108E+02  0.99617951543E+01  0.26927946664E+02  0.25003192702E+00 0.  0.
        -13    1    4    4    0    0 -0.49627620121E+01 -0.48789751462E+01 -0.51874224423E+01  0.86806556124E+01  0.10500000000E+00 0. -1.
         13    1    4    4    0    0 -0.69462642805E+01 -0.66369924083E+01 -0.72496292103E+01  0.12036129127E+02  0.10500000000E+00 0.  1.
    3000001    1    5    5    0    0  0.14776398736E+02  0.27175846491E+02  0.17535745570E+02  0.35572053142E+02  0.10000000000E+01 0. -1.
        -13    1    6    6    0    0  0.57051031844E+01  0.53752012561E+01  0.31148133820E+01  0.84352876829E+01  0.10500000000E+00 0.  1.
         13    1    6    6    0    0  0.12609264282E+02  0.11665877852E+02  0.68469817723E+01  0.18492658981E+02  0.10500000000E+00 0. -1.
</event>
<event>
11    0  0.3510903E-009  0.9118800E+02  0.7816531E-02  0.1126479E+00
         25   -1    0    0    0    0  0.00000000000E+00  0.00000000000E+00  0.99999998245E-14  0.12500000000E+03  0.12500000000E+03 0.  0.
    3000001    1    3    3    0    0  0.36504652377E+02  0.19269429609E+02 -0.24915316097E+02  0.48225237572E+02  0.10000000000E+01 0. -1.
    1000022    2    1    0    0    0  0.44778677043E+02  0.29424389063E+02 -0.30583088963E+02  0.62499999783E+02  0.10000002650E+02 0.  0.
    3000022    2    3    3    0    0  0.82740246653E+01  0.10154959454E+02 -0.56677728663E+01  0.14274762212E+02  0.25000253359E+00 0.  0.
    1000022    2    1    0    0    0 -0.44778677043E+02 -0.29424389063E+02  0.30583088963E+02  0.62500000217E+02  0.10000005356E+02 0.  0.
    3000022    2    5    5    0    0 -0.19700222062E+02 -0.85258377518E+01  0.15772300698E+02  0.26638631027E+02  0.25007001640E+00 0.  0.
        -13    1    4    4    0    0  0.24848981081E+01  0.31036909948E+01 -0.17556135083E+01  0.43475073536E+01  0.10500000000E+00 0.  1.
         13    1    4    4    0    0  0.57891265572E+01  0.70512684591E+01 -0.39121593579E+01  0.99272548582E+01  0.10500000000E+00 0. -1.
    3000001    1    5    5    0    0 -0.25078454980E+02 -0.20898551311E+02  0.14810788265E+02  0.35861369189E+02  0.10000000000E+01 0. -1.
        -13    1    6    6    0    0 -0.87100312843E+01 -0.37482561463E+01  0.68886700508E+01  0.11720873226E+02  0.10500000000E+00 0. -1.
         13    1    6    6    0    0 -0.10990190778E+02 -0.47775816055E+01  0.88836306476E+01  0.14917757801E+02  0.10500000000E+00 0.  1.
</event>
<event>
11    0  0.3510903E-009  0.9118800E+02  0.7816531E-02  0.1126479E+00
         25   -1    0    0    0    0  0.00000000000E+00  0.00000000000E+00  0.99999998245E-14  0.12500000000E+03  0.12500000000E+03 0.  0.
    3000001    1    3    3    0    0  0.12829303822E+02 -0.53832112672E+01 -0.15771533949E+01  0.14037713950E+02  0.10000000000E+01 0.  1.
    1000022    2    1    0    0    0  0.50009904980E+02 -0.27586111931E+02 -0.23329505197E+02  0.62500000434E+02  0.10000003698E+02 0.  0.
    3000022    2    3    3    0    0  0.37180601158E+02 -0.22202900663E+02 -0.21752351802E+02  0.48462286484E+02  0.25000403498E+00 0.  0.
    1000022    2    1    0    0    0 -0.50009904980E+02  0.27586111931E+02  0.23329505197E+02  0.62499999566E+02  0.99999982715E+01 0.  0.
    3000022    2    5    5    0    0 -0.36842969691E+02  0.24242078957E+02  0.20270521058E+02  0.48539049548E+02  0.24999854997E+00 0.  0.
        -13    1    4    4    0    0  0.22430923045E+02 -0.13384618069E+02 -0.13189882452E+02  0.29262233913E+02  0.10500000000E+00 0. -1.
         13    1    4    4    0    0  0.14749678113E+02 -0.88182825948E+01 -0.85624693504E+01  0.19200052571E+02  0.10500000000E+00 0.  1.
    3000001    1    5    5    0    0 -0.13166935289E+02  0.33440329738E+01  0.30589841395E+01  0.13960950018E+02  0.10000000000E+01 0. -1.
        -13    1    6    6    0    0 -0.13116704152E+02  0.85627639639E+01  0.72094125737E+01  0.17243999222E+02  0.10500000000E+00 0.  1.
         13    1    6    6    0    0 -0.23726265539E+02  0.15679314993E+02  0.13061108484E+02  0.31295050326E+02  0.10500000000E+00 0. -1.
</event>
<event>
11    0  0.3510903E-009  0.9118800E+02  0.7816531E-02  0.1126479E+00
         25   -1    0    0    0    0  0.00000000000E+00  0.00000000000E+00  0.99999998245E-14  0.12500000000E+03  0.12500000000E+03 0.  0.
    3000001    1    3    3    0    0  0.27273189008E+02  0.86028088783E+01 -0.16683197792E+01  0.28663887561E+02  0.10000000000E+01 0. -1.
    1000022    2    1    0    0    0  0.55634218434E+02  0.23593351998E+02 -0.12427294334E+02  0.62499998555E+02  0.99999827802E+01 0.  0.
    3000022    2    3    3    0    0  0.28361029426E+02  0.14990543120E+02 -0.10758974555E+02  0.33836110993E+02  0.25000107594E+00 0.  0.
    1000022    2    1    0    0    0 -0.55634218434E+02 -0.23593351998E+02  0.12427294334E+02  0.62500001445E+02  0.10000000846E+02 0.  0.
    3000022    2    5    5    0    0 -0.54611372622E+02 -0.21985167678E+02  0.12964274495E+02  0.60281709748E+02  0.24999891706E+00 0.  0.
        -13    1    4    4    0    0  0.11940846623E+02  0.62688683351E+01 -0.44675583920E+01  0.14207485044E+02  0.10500000000E+00 0.  1.
         13    1    4    4    0    0  0.16420182803E+02  0.87216747845E+01 -0.62914161626E+01  0.19628625950E+02  0.10500000000E+00 0. -1.
    3000001    1    5    5    0    0 -0.10228458124E+01 -0.16081843198E+01 -0.53698016100E+00  0.22182916976E+01  0.10000000000E+01 0. -1.
        -13    1    6    6    0    0 -0.28943296279E+02 -0.11717940963E+02  0.69049662528E+01  0.31979901873E+02  0.10500000000E+00 0. -1.
         13    1    6    6    0    0 -0.25668076343E+02 -0.10267226715E+02  0.60593082419E+01  0.28301807874E+02  0.10500000000E+00 0.  1.
</event>
<event>
11    0  0.3510903E-009  0.9118800E+02  0.7816531E-02  0.1126479E+00
         25   -1    0    0    0    0  0.00000000000E+00  0.00000000000E+00  0.99999998245E-14  0.12500000000E+03  0.12500000000E+03 0.  0.
    3000001    1    3    3    0    0  0.36825960730E+02 -0.16098216802E+01  0.26175768856E+02  0.45220722957E+02  0.10000000000E+01 0. -1.
    1000022    2    1    0    0    0  0.47934313766E+02 -0.72118261051E+01  0.38164646000E+02  0.62500006343E+02  0.10000085830E+02 0.  0.
    3000022    2    3    3    0    0  0.11108353036E+02 -0.56020044249E+01  0.11988877144E+02  0.17279283387E+02  0.24999685860E+00 0.  0.
    1000022    2    1    0    0    0 -0.47934313766E+02  0.72118261051E+01 -0.38164646000E+02  0.62499993657E+02  0.10000006539E+02 0.  0.
    3000022    2    5    5    0    0 -0.38485363780E+02  0.48048119017E+01 -0.25222397984E+02  0.46264903360E+02  0.24996036638E+00 0.  0.
        -13    1    4    4    0    0  0.80978520026E+01 -0.41087492424E+01  0.87101514460E+01  0.12583115298E+02  0.10500000000E+00 0. -1.
         13    1    4    4    0    0  0.30105010337E+01 -0.14932551825E+01  0.32787256978E+01  0.46961680885E+01  0.10500000000E+00 0.  1.
    3000001    1    5    5    0    0 -0.94489499859E+01  0.24070142034E+01 -0.12942248017E+02  0.16235090297E+02  0.10000000000E+01 0. -1.
        -13    1    6    6    0    0 -0.22455935900E+02  0.28545541329E+01 -0.14768804031E+02  0.27028616945E+02  0.10500000000E+00 0. -1.
         13    1    6    6    0    0 -0.16029427880E+02  0.19502577688E+01 -0.10453593953E+02  0.19236286416E+02  0.10500000000E+00 0.  1.
</event>
<event>
11    0  0.3510903E-009  0.9118800E+02  0.7816531E-02  0.1126479E+00
         25   -1    0    0    0    0  0.00000000000E+00  0.00000000000E+00  0.99999998245E-14  0.12500000000E+03  0.12500000000E+03 0.  0.
    3000001    1    3    3    0    0 -0.43124778157E+02  0.35693647159E+02  0.94604961358E+01  0.56782778426E+02  0.10000000000E+01 0.  1.
    1000022    2    1    0    0    0 -0.45388092166E+02  0.39805765851E+02  0.12715034114E+02  0.62500000640E+02  0.10000004103E+02 0.  0.
    3000022    2    3    3    0    0 -0.22633140095E+01  0.41121186914E+01  0.32545379783E+01  0.57172222146E+01  0.25000392254E+00 0.  0.
    1000022    2    1    0    0    0  0.45388092166E+02 -0.39805765851E+02 -0.12715034114E+02  0.62499999360E+02  0.99999960984E+01 0.  0.
    3000022    2    5    5    0    0  0.40666318985E+02 -0.38509165724E+02 -0.12994489326E+02  0.57494561409E+02  0.24998836088E+00 0.  0.
        -13    1    4    4    0    0 -0.12965182573E+01  0.23054300107E+01  0.19079049165E+01  0.32629883996E+01  0.10500000000E+00 0.  1.
         13    1    4    4    0    0 -0.96679575224E+00  0.18066886807E+01  0.13466330619E+01  0.24542338151E+01  0.10500000000E+00 0. -1.
    3000001    1    5    5    0    0  0.47217731809E+01 -0.12966001264E+01  0.27945521208E+00  0.50054379504E+01  0.10000000000E+01 0. -1.
        -13    1    6    6    0    0  0.23649529592E+02 -0.22379443848E+02 -0.74890627874E+01  0.33410130848E+02  0.10500000000E+00 0.  1.
         13    1    6    6    0    0  0.17016789393E+02 -0.16129721877E+02 -0.55054265388E+01  0.24084430561E+02  0.10500000000E+00 0. -1.
</event>
<event>
11    0  0.3510903E-009  0.9118800E+02  0.7816531E-02  0.1126479E+00
         25   -1    0    0    0    0  0.00000000000E+00  0.00000000000E+00  0.99999998245E-14  0.12500000000E+03  0.12500000000E+03 0.  0.
    3000001    1    3    3    0    0  0.10269602435E+01  0.30154347594E+02  0.23104965493E+02  0.38015506791E+02  0.10000000000E+01 0. -1.
    1000022    2    1    0    0    0  0.92341023714E+01  0.49623490858E+02  0.35475216482E+02  0.62499998555E+02  0.99999671671E+01 0.  0.
    3000022    2    3    3    0    0  0.82071421279E+01  0.19469143264E+02  0.12370250989E+02  0.24484491764E+02  0.25001208078E+00 0.  0.
    1000022    2    1    0    0    0 -0.92341023714E+01 -0.49623490858E+02 -0.35475216482E+02  0.62500001445E+02  0.99999852324E+01 0.  0.
    3000022    2    5    5    0    0 -0.97687384751E+01 -0.33307455213E+02 -0.27603123558E+02  0.44348728709E+02  0.24996755197E+00 0.  0.
        -13    1    4    4    0    0  0.30781093889E+01  0.74541185486E+01  0.47041094482E+01  0.93369326573E+01  0.10500000000E+00 0.  1.
         13    1    4    4    0    0  0.51290327390E+01  0.12015024715E+02  0.76661415411E+01  0.15147559106E+02  0.10500000000E+00 0. -1.
    3000001    1    5    5    0    0  0.53463610372E+00 -0.16316035645E+02 -0.78720929233E+01  0.18151272736E+02  0.10000000000E+01 0.  1.
        -13    1    6    6    0    0 -0.37089492375E+01 -0.12777159839E+02 -0.10518097304E+02  0.16960351231E+02  0.10500000000E+00 0. -1.
         13    1    6    6    0    0 -0.60597892376E+01 -0.20530295374E+02 -0.17085026255E+02  0.27388377478E+02  0.10500000000E+00 0.  1.
</event>
<event>
11    0  0.3510903E-009  0.9118800E+02  0.7816531E-02  0.1126479E+00
         25   -1    0    0    0    0  0.00000000000E+00  0.00000000000E+00  0.99999998245E-14  0.12500000000E+03  0.12500000000E+03 0.  0.
    3000001    1    3    3    0    0 -0.53547661196E+02  0.60018105151E-01  0.25428348879E+02  0.59287068982E+02  0.10000000000E+01 0. -1.
    1000022    2    1    0    0    0 -0.56573158655E+02 -0.59408596452E+00  0.24604362090E+02  0.62500002333E+02  0.10000021973E+02 0.  0.
    3000022    2    3    3    0    0 -0.30254974588E+01 -0.65410406967E+00 -0.82398678878E+00  0.32129333514E+01  0.24999897090E+00 0.  0.
    1000022    2    1    0    0    0  0.56573158655E+02  0.59408596452E+00 -0.24604362090E+02  0.62499997667E+02  0.99999928064E+01 0.  0.
    3000022    2    5    5    0    0  0.19158022610E+02 -0.32573482798E+01 -0.49744233059E+01  0.20061095140E+02  0.25000568470E+00 0.  0.
        -13    1    4    4    0    0 -0.11230635632E+01 -0.21956398300E+00 -0.36218654418E+00  0.12048585820E+01  0.10500000000E+00 0. -1.
         13    1    4    4    0    0 -0.19024338955E+01 -0.43454008667E+00 -0.46180024460E+00  0.20080747695E+01  0.10500000000E+00 0.  1.
    3000001    1    5    5    0    0  0.37415136045E+02  0.38514342443E+01 -0.19629938784E+02  0.42438902527E+02  0.10000000000E+01 0.  1.
        -13    1    6    6    0    0  0.11042215310E+02 -0.18124572380E+01 -0.28522734090E+01  0.11548247000E+02  0.10500000000E+00 0. -1.
         13    1    6    6    0    0  0.81158073006E+01 -0.14448910417E+01 -0.21221498968E+01  0.85128481396E+01  0.10500000000E+00 0.  1.
</event>
<event>
11    0  0.3510903E-009  0.9118800E+02  0.7816531E-02  0.1126479E+00
         25   -1    0    0    0    0  0.00000000000E+00  0.00000000000E+00  0.99999998245E-14  0.12500000000E+03  0.12500000000E+03 0.  0.
    3000001    1    3    3    0    0  0.30871771823E+02  0.97902126003E+01 -0.24358670861E+02  0.40537136115E+02  0.10000000000E+01 0. -1.
    1000022    2    1    0    0    0  0.51031790603E+02  0.10505068996E+02 -0.33040122419E+02  0.62500001929E+02  0.10000021244E+02 0.  0.
    3000022    2    3    3    0    0  0.20160018780E+02  0.71485639549E+00 -0.86814515574E+01  0.21962865814E+02  0.24999348699E+00 0.  0.
    1000022    2    1    0    0    0 -0.51031790603E+02 -0.10505068996E+02  0.33040122419E+02  0.62499998071E+02  0.99999971376E+01 0.  0.
    3000022    2    5    5    0    0 -0.30390381042E+02 -0.11071073661E+02  0.21248523712E+02  0.38700209207E+02  0.25000165505E+00 0.  0.
        -13    1    4    4    0    0  0.15235331877E+02  0.56078282710E+00 -0.65710475517E+01  0.16601792244E+02  0.10500000000E+00 0.  1.
         13    1    4    4    0    0  0.49246869026E+01  0.15407356838E+00 -0.21104040057E+01  0.53610735698E+01  0.10500000000E+00 0. -1.
    3000001    1    5    5    0    0 -0.20641409560E+02  0.56600466545E+00  0.11791598707E+02  0.23799788864E+02  0.10000000000E+01 0. -1.
        -13    1    6    6    0    0 -0.20913137811E+02 -0.75669262123E+01  0.14618531191E+02  0.26614473217E+02  0.10500000000E+00 0.  1.
         13    1    6    6    0    0 -0.94772432316E+01 -0.35041474489E+01  0.66299925207E+01  0.12085735991E+02  0.10500000000E+00 0. -1.
</event>
<event>
11    0  0.3510903E-009  0.9118800E+02  0.7816531E-02  0.1126479E+00
         25   -1    0    0    0    0  0.00000000000E+00  0.00000000000E+00  0.99999998245E-14  0.12500000000E+03  0.12500000000E+03 0.  0.
    3000001    1    3    3    0    0 -0.72974386569E+01 -0.15672191043E+02  0.51641252867E+02  0.54467322137E+02  0.10000000000E+01 0.  1.
    1000022    2    1    0    0    0 -0.49246338577E+01 -0.19339276124E+02  0.58377995434E+02  0.62500000100E+02  0.10000002098E+02 0.  0.
    3000022    2    3    3    0    0  0.23728047993E+01 -0.36670850818E+01  0.67367425666E+01  0.80326779633E+01  0.24999848346E+00 0.  0.
    1000022    2    1    0    0    0  0.49246338577E+01  0.19339276124E+02 -0.58377995434E+02  0.62499999900E+02  0.10000000848E+02 0.  0.
    3000022    2    5    5    0    0  0.79886016887E+00  0.15076982312E+02 -0.49681439607E+02  0.51925538196E+02  0.25000467143E+00 0.  0.
        -13    1    4    4    0    0  0.67969762957E+00 -0.99112987184E+00  0.18950344443E+01  0.22464433747E+01  0.10500000000E+00 0.  1.
         13    1    4    4    0    0  0.16931071697E+01 -0.26759552099E+01  0.48417081223E+01  0.57862345886E+01  0.10500000000E+00 0. -1.
    3000001    1    5    5    0    0  0.41257736888E+01  0.42622938120E+01 -0.86965558274E+01  0.10574461704E+02  0.10000000000E+01 0. -1.
        -13    1    6    6    0    0  0.50576879841E+00  0.10201254603E+02 -0.33475613216E+02  0.34999272889E+02  0.10500000000E+00 0. -1.
         13    1    6    6    0    0  0.29309137046E+00  0.48757277092E+01 -0.16205826390E+02  0.16926265307E+02  0.10500000000E+00 0.  1.
</event>
<event>
11    0  0.3510903E-009  0.9118800E+02  0.7816531E-02  0.1126479E+00
         25   -1    0    0    0    0  0.00000000000E+00  0.00000000000E+00  0.99999998245E-14  0.12500000000E+03  0.12500000000E+03 0.  0.
    3000001    1    3    3    0    0 -0.65873957620E+01 -0.36234541395E+01 -0.18700871668E+02  0.20180332107E+02  0.10000000000E+01 0.  1.
    1000022    2    1    0    0    0 -0.64168131580E+01 -0.10307284996E+02 -0.60488298496E+02  0.62499999336E+02  0.10000002348E+02 0.  0.
    3000022    2    3    3    0    0  0.17058260400E+00 -0.66838308565E+01 -0.41787426828E+02  0.42319667229E+02  0.25000014821E+00 0.  0.
    1000022    2    1    0    0    0  0.64168131580E+01  0.10307284996E+02  0.60488298496E+02  0.62500000664E+02  0.10000010652E+02 0.  0.
    3000022    2    5    5    0    0  0.10024465629E+01  0.10169212319E+02  0.39147420129E+02  0.40459866383E+02  0.25001327480E+00 0.  0.
        -13    1    4    4    0    0  0.82025018754E-01 -0.33300073158E+01 -0.21247471998E+02  0.21507249199E+02  0.10500000000E+00 0.  1.
         13    1    4    4    0    0  0.88557585248E-01 -0.33538235407E+01 -0.20539954831E+02  0.20812418029E+02  0.10500000000E+00 0. -1.
    3000001    1    5    5    0    0  0.54143665951E+01  0.13807267685E+00  0.21340878366E+02  0.22040134281E+02  0.10000000000E+01 0. -1.
        -13    1    6    6    0    0  0.69402968022E+00  0.66852996908E+01  0.25575740934E+02  0.26444365344E+02  0.10500000000E+00 0. -1.
         13    1    6    6    0    0  0.30841688269E+00  0.34839126284E+01  0.13571679196E+02  0.14015501039E+02  0.10500000000E+00 0.  1.
</event>
<event>
11    0  0.3510903E-009  0.9118800E+02  0.7816531E-02  0.1126479E+00
         25   -1    0    0    0    0  0.00000000000E+00  0.00000000000E+00  0.99999998245E-14  0.12500000000E+03  0.12500000000E+03 0.  0.
    3000001    1    3    3    0    0 -0.77517700138E+01 -0.37552669530E+01  0.15935066339E+02  0.18141618105E+02  0.10000000000E+01 0. -1.
    1000022    2    1    0    0    0 -0.19523930397E+02  0.14502457582E+00  0.58523885343E+02  0.62499999744E+02  0.99999961043E+01 0.  0.
    3000022    2    3    3    0    0 -0.11772160383E+02  0.39002915288E+01  0.42588819004E+02  0.44358381640E+02  0.24996677082E+00 0.  0.
    1000022    2    1    0    0    0  0.19523930397E+02 -0.14502457582E+00 -0.58523885343E+02  0.62500000256E+02  0.99999993031E+01 0.  0.
    3000022    2    5    5    0    0  0.82816146332E+01  0.46151363058E+01 -0.21400544247E+02  0.23407913467E+02  0.24998954064E+00 0.  0.
        -13    1    4    4    0    0 -0.80519357580E+01  0.26731198304E+01  0.28955496038E+02  0.30173017994E+02  0.10500000000E+00 0. -1.
         13    1    4    4    0    0 -0.37202246253E+01  0.12271716984E+01  0.13633322967E+02  0.14185363645E+02  0.10500000000E+00 0.  1.
    3000001    1    5    5    0    0  0.11242315764E+02 -0.47601608816E+01 -0.37123341096E+02  0.39092086789E+02  0.10000000000E+01 0. -1.
        -13    1    6    6    0    0  0.40843936788E+01  0.22617894277E+01 -0.10374420895E+02  0.11377064518E+02  0.10500000000E+00 0.  1.
         13    1    6    6    0    0  0.41972209544E+01  0.23533468781E+01 -0.11026123352E+02  0.12030848949E+02  0.10500000000E+00 0. -1.
</event>
<event>
11    0  0.3510903E-009  0.9118800E+02  0.7816531E-02  0.1126479E+00
         25   -1    0    0    0    0  0.00000000000E+00  0.00000000000E+00  0.99999998245E-14  0.12500000000E+03  0.12500000000E+03 0.  0.
    3000001    1    3    3    0    0  0.41832684793E+02 -0.28328015536E+02  0.86413044902E+01  0.51265213590E+02  0.10000000000E+01 0.  1.
    1000022    2    1    0    0    0  0.48495309913E+02 -0.37331273150E+02  0.77993642214E+01  0.62500006981E+02  0.10000087589E+02 0.  0.
    3000022    2    3    3    0    0  0.66626251207E+01 -0.90032576135E+01 -0.84194026882E+00  0.11234793391E+02  0.24999591591E+00 0.  0.
    1000022    2    1    0    0    0 -0.48495309913E+02  0.37331273150E+02 -0.77993642214E+01  0.62499993019E+02  0.10000000328E+02 0.  0.
    3000022    2    5    5    0    0 -0.22426746061E+02  0.14229208350E+02 -0.76953081205E+01  0.27653382754E+02  0.25000297533E+00 0.  0.
        -13    1    4    4    0    0  0.38362853850E+01 -0.52064440710E+01 -0.54990162418E+00  0.64913451777E+01  0.10500000000E+00 0.  1.
         13    1    4    4    0    0  0.28263397357E+01 -0.37968135424E+01 -0.29203864465E+00  0.47434482128E+01  0.10500000000E+00 0. -1.
    3000001    1    5    5    0    0 -0.26068563852E+02  0.23102064800E+02 -0.10405610090E+00  0.34846610265E+02  0.10000000000E+01 0.  1.
        -13    1    6    6    0    0 -0.11672386307E+02  0.73744405145E+01 -0.39354761774E+01  0.14357087892E+02  0.10500000000E+00 0.  1.
         13    1    6    6    0    0 -0.10754359755E+02  0.68547678355E+01 -0.37598319430E+01  0.13296294862E+02  0.10500000000E+00 0. -1.
</event>
<event>
11    0  0.3510903E-009  0.9118800E+02  0.7816531E-02  0.1126479E+00
         25   -1    0    0    0    0  0.00000000000E+00  0.00000000000E+00  0.99999998245E-14  0.12500000000E+03  0.12500000000E+03 0.  0.
    3000001    1    3    3    0    0 -0.40823276739E+01 -0.43393814770E+00  0.72737343443E+01  0.84119505981E+01  0.10000000000E+01 0.  1.
    1000022    2    1    0    0    0 -0.11617861336E+02 -0.18423545645E+02  0.57722166719E+02  0.62499999866E+02  0.99999858182E+01 0.  0.
    3000022    2    3    3    0    0 -0.75355336619E+01 -0.17989607497E+02  0.50448432375E+02  0.54088049268E+02  0.24999813889E+00 0.  0.
    1000022    2    1    0    0    0  0.11617861336E+02  0.18423545645E+02 -0.57722166719E+02  0.62500000134E+02  0.99999874883E+01 0.  0.
    3000022    2    5    5    0    0  0.70172387097E+01  0.16277418506E+02 -0.35457905836E+02  0.39642421458E+02  0.25000085769E+00 0.  0.
        -13    1    4    4    0    0 -0.54733657913E+01 -0.12973247998E+02  0.36376956914E+02  0.39007139295E+02  0.10500000000E+00 0. -1.
         13    1    4    4    0    0 -0.20621678707E+01 -0.50163594996E+01  0.14071475461E+02  0.15080909973E+02  0.10500000000E+00 0.  1.
    3000001    1    5    5    0    0  0.46006226262E+01  0.21461271393E+01 -0.22264260883E+02  0.22857578676E+02  0.10000000000E+01 0.  1.
        -13    1    6    6    0    0  0.35438993763E+01  0.83020828231E+01 -0.18190227827E+02  0.20307122283E+02  0.10500000000E+00 0. -1.
         13    1    6    6    0    0  0.34733393334E+01  0.79753356824E+01 -0.17267678009E+02  0.19335299175E+02  0.10500000000E+00 0.  1.
</event>
<event>
11    0  0.3510903E-009  0.9118800E+02  0.7816531E-02  0.1126479E+00
         25   -1    0    0    0    0  0.00000000000E+00  0.00000000000E+00  0.99999998245E-14  0.12500000000E+03  0.12500000000E+03 0.  0.
    3000001    1    3    3    0    0  0.14608181524E+02 -0.20160238699E+01 -0.26449452472E+01  0.15015294038E+02  0.10000000000E+01 0.  1.
    1000022    2    1    0    0    0  0.59328989973E+02 -0.16338640690E+02  0.44010949360E+01  0.62499999367E+02  0.10000002673E+02 0.  0.
    3000022    2    3    3    0    0  0.44720808449E+02 -0.14322616820E+02  0.70460401832E+01  0.47484705329E+02  0.24999409744E+00 0.  0.
    1000022    2    1    0    0    0 -0.59328989973E+02  0.16338640690E+02 -0.44010949360E+01  0.62500000633E+02  0.10000010582E+02 0.  0.
    3000022    2    5    5    0    0 -0.37385701921E+02  0.62553224294E+01 -0.55107131336E+01  0.38304702531E+02  0.25001988583E+00 0.  0.
        -13    1    4    4    0    0  0.33718438476E+02 -0.10812453700E+02  0.53333176709E+01  0.35809182491E+02  0.10500000000E+00 0.  1.
         13    1    4    4    0    0  0.11002369973E+02 -0.35101631200E+01  0.17127225123E+01  0.11675522838E+02  0.10500000000E+00 0. -1.
    3000001    1    5    5    0    0 -0.21943288053E+02  0.10083318260E+02  0.11096181976E+01  0.24195298102E+02  0.10000000000E+01 0. -1.
        -13    1    6    6    0    0 -0.96668356872E+01  0.16242925929E+01 -0.13945745030E+01  0.99016110646E+01  0.10500000000E+00 0. -1.
         13    1    6    6    0    0 -0.27718866233E+02  0.46310298364E+01 -0.41161386306E+01  0.28403091466E+02  0.10500000000E+00 0.  1.
</event>
<event>
11    0  0.3510903E-009  0.9118800E+02  0.7816531E-02  0.1126479E+00
         25   -1    0    0    0    0  0.00000000000E+00  0.00000000000E+00  0.99999998245E-14  0.12500000000E+03  0.12500000000E+03 0.  0.
    3000001    1    3    3    0    0  0.36360194402E+00  0.18032216722E+00 -0.94297433133E-01  0.10833348806E+01  0.10000000000E+01 0. -1.
    1000022    2    1    0    0    0  0.41006208985E+02  0.30837044536E+02  0.34261021776E+02  0.62499998627E+02  0.99999862128E+01 0.  0.
    3000022    2    3    3    0    0  0.40642607041E+02  0.30656722369E+02  0.34355319209E+02  0.61416663747E+02  0.24998868590E+00 0.  0.
    1000022    2    1    0    0    0 -0.41006208985E+02 -0.30837044536E+02 -0.34261021776E+02  0.62500001373E+02  0.10000003370E+02 0.  0.
    3000022    2    5    5    0    0 -0.20519951041E+02 -0.21538200513E+02 -0.19157166702E+02  0.35383923065E+02  0.25000666172E+00 0.  0.
        -13    1    4    4    0    0  0.20266608091E+02  0.15202250641E+02  0.17100589876E+02  0.30566076411E+02  0.10500000000E+00 0. -1.
         13    1    4    4    0    0  0.20375998950E+02  0.15454471728E+02  0.17254729333E+02  0.30850587336E+02  0.10500000000E+00 0.  1.
    3000001    1    5    5    0    0 -0.20486257944E+02 -0.92988440232E+01 -0.15103855074E+02  0.27116078308E+02  0.10000000000E+01 0.  1.
        -13    1    6    6    0    0 -0.86315787741E+01 -0.89816686593E+01 -0.80644592804E+01  0.14839846782E+02  0.10500000000E+00 0. -1.
         13    1    6    6    0    0 -0.11888372267E+02 -0.12556531854E+02 -0.11092707422E+02  0.20544076282E+02  0.10500000000E+00 0.  1.
</event>
<event>
11    0  0.3510903E-009  0.9118800E+02  0.7816531E-02  0.1126479E+00
         25   -1    0    0    0    0  0.00000000000E+00  0.00000000000E+00  0.99999998245E-14  0.12500000000E+03  0.12500000000E+03 0.  0.
    3000001    1    3    3    0    0  0.79073562488E+01 -0.14759088864E+02 -0.42894508590E+01  0.17313473817E+02  0.10000000000E+01 0.  1.
    1000022    2    1    0    0    0  0.34377307554E+02 -0.43717959183E+02 -0.26705633151E+02  0.62500000965E+02  0.10000002443E+02 0.  0.
    3000022    2    3    3    0    0  0.26469951305E+02 -0.28958870320E+02 -0.22416182292E+02  0.45186527148E+02  0.25002985107E+00 0.  0.
    1000022    2    1    0    0    0 -0.34377307554E+02  0.43717959183E+02  0.26705633151E+02  0.62499999035E+02  0.99999903792E+01 0.  0.
    3000022    2    5    5    0    0 -0.24429184979E+02  0.36328558363E+02  0.23376877787E+02  0.49629528976E+02  0.24999981666E+00 0.  0.
        -13    1    4    4    0    0  0.18834443455E+02 -0.20609038976E+02 -0.16000203127E+02  0.32178972527E+02  0.10500000000E+00 0. -1.
         13    1    4    4    0    0  0.76355078496E+01 -0.83498313430E+01 -0.64159791650E+01  0.13007554621E+02  0.10500000000E+00 0.  1.
    3000001    1    5    5    0    0 -0.99481225751E+01  0.73894008204E+01  0.33287553637E+01  0.12870470058E+02  0.10000000000E+01 0. -1.
        -13    1    6    6    0    0 -0.16505296674E+02  0.24483739505E+02  0.15811393179E+02  0.33494618937E+02  0.10500000000E+00 0. -1.
         13    1    6    6    0    0 -0.79238883047E+01  0.11844818857E+02  0.75654846081E+01  0.16134910040E+02  0.10500000000E+00 0.  1.
</event>
<event>
11    0  0.3510903E-009  0.9118800E+02  0.7816531E-02  0.1126479E+00
         25   -1    0    0    0    0  0.00000000000E+00  0.00000000000E+00  0.99999998245E-14  0.12500000000E+03  0.12500000000E+03 0.  0.
    3000001    1    3    3    0    0  0.66350570364E+01  0.13391579102E+02 -0.24914087238E+01  0.15184383101E+02  0.10000000000E+01 0.  1.
    1000022    2    1    0    0    0  0.33429026293E+02  0.51559989093E+02  0.55061348237E+01  0.62499998958E+02  0.10000003742E+02 0.  0.
    3000022    2    3    3    0    0  0.26793969257E+02  0.38168409991E+02  0.79975435474E+01  0.47315615857E+02  0.24998271700E+00 0.  0.
    1000022    2    1    0    0    0 -0.33429026293E+02 -0.51559989093E+02 -0.55061348237E+01  0.62500001042E+02  0.10000016767E+02 0.  0.
    3000022    2    5    5    0    0 -0.56870809259E+01 -0.64588500789E+01  0.24376355254E+01  0.89478604637E+01  0.25001224759E+00 0.  0.
        -13    1    4    4    0    0  0.10252310992E+02  0.14677248212E+02  0.30248581737E+01  0.18157430647E+02  0.10500000000E+00 0.  1.
         13    1    4    4    0    0  0.16541658265E+02  0.23491161780E+02  0.49726853737E+01  0.29158185210E+02  0.10500000000E+00 0. -1.
    3000001    1    5    5    0    0 -0.27741945367E+02 -0.45101139015E+02 -0.79437703490E+01  0.53552140578E+02  0.10000000000E+01 0. -1.
        -13    1    6    6    0    0 -0.23998323951E+01 -0.28217288689E+01  0.10658304910E+01  0.38559524076E+01  0.10500000000E+00 0. -1.
         13    1    6    6    0    0 -0.32872485308E+01 -0.36371212100E+01  0.13718050344E+01  0.50919080561E+01  0.10500000000E+00 0.  1.
</event>
<event>
11    0  0.3510903E-009  0.9118800E+02  0.7816531E-02  0.1126479E+00
         25   -1    0    0    0    0  0.00000000000E+00  0.00000000000E+00  0.99999998245E-14  0.12500000000E+03  0.12500000000E+03 0.  0.
    3000001    1    3    3    0    0 -0.37264908319E+01  0.60222316687E+01 -0.12032267018E+02  0.13997480408E+02  0.10000000000E+01 0.  1.
    1000022    2    1    0    0    0 -0.32830996237E+02  0.21142444971E+02 -0.47763732199E+02  0.62499987467E+02  0.99998513236E+01 0.  0.
    3000022    2    3    3    0    0 -0.29104505405E+02  0.15120213302E+02 -0.35731465182E+02  0.48502507059E+02  0.25000356911E+00 0.  0.
    1000022    2    1    0    0    0  0.32830996237E+02 -0.21142444971E+02  0.47763732199E+02  0.62500012533E+02  0.10000007992E+02 0.  0.
    3000022    2    5    5    0    0  0.27635807022E+02 -0.17385883380E+02  0.44619182368E+02  0.55289607579E+02  0.25000083636E+00 0.  0.
        -13    1    4    4    0    0 -0.10213936843E+02  0.53362234736E+01 -0.12480799687E+02  0.16987677082E+02  0.10500000000E+00 0.  1.
         13    1    4    4    0    0 -0.18890568561E+02  0.97839898289E+01 -0.23250665494E+02  0.31514829977E+02  0.10500000000E+00 0. -1.
    3000001    1    5    5    0    0  0.51951892143E+01 -0.37565615914E+01  0.31445498314E+01  0.72104049543E+01  0.10000000000E+01 0.  1.
        -13    1    6    6    0    0  0.12506083971E+02 -0.78428952563E+01  0.20281030279E+02  0.25084743500E+02  0.10500000000E+00 0. -1.
         13    1    6    6    0    0  0.15129723051E+02 -0.95429881234E+01  0.24338152089E+02  0.30204864079E+02  0.10500000000E+00 0.  1.
</event>
<event>
11    0  0.3510903E-009  0.9118800E+02  0.7816531E-02  0.1126479E+00
         25   -1    0    0    0    0  0.00000000000E+00  0.00000000000E+00  0.99999998245E-14  0.12500000000E+03  0.12500000000E+03 0.  0.
    3000001    1    3    3    0    0  0.40206448342E+01  0.12818264602E+02 -0.10550762275E+02  0.17111168191E+02  0.10000000000E+01 0. -1.
    1000022    2    1    0    0    0 -0.54370446891E+00  0.44465615795E+02 -0.42764040141E+02  0.62499998247E+02  0.10000002456E+02 0.  0.
    3000022    2    3    3    0    0 -0.45643493031E+01  0.31647351193E+02 -0.32213277866E+02  0.45388830056E+02  0.25000171894E+00 0.  0.
    1000022    2    1    0    0    0  0.54370446891E+00 -0.44465615795E+02  0.42764040141E+02  0.62500001753E+02  0.10000024370E+02 0.  0.
    3000022    2    5    5    0    0 -0.93886028087E+00 -0.85886972446E+01  0.14123144244E+02  0.16558166781E+02  0.25000958803E+00 0.  0.
        -13    1    4    4    0    0 -0.11850151270E+01  0.80578626901E+01 -0.81800243035E+01  0.11543709741E+02  0.10500000000E+00 0.  1.
         13    1    4    4    0    0 -0.33793341761E+01  0.23589488503E+02 -0.24033253563E+02  0.33845120314E+02  0.10500000000E+00 0. -1.
    3000001    1    5    5    0    0  0.14825647498E+01 -0.35876918550E+02  0.28640895897E+02  0.45941834973E+02  0.10000000000E+01 0.  1.
        -13    1    6    6    0    0 -0.34182032420E+00 -0.34786244559E+01  0.56173537771E+01  0.66168994020E+01  0.10500000000E+00 0.  1.
         13    1    6    6    0    0 -0.59703995666E+00 -0.51100727887E+01  0.85057904674E+01  0.99412673785E+01  0.10500000000E+00 0.  1.
</event>
<event>
11    0  0.3510903E-009  0.9118800E+02  0.7816531E-02  0.1126479E+00
         25   -1    0    0    0    0  0.00000000000E+00  0.00000000000E+00  0.99999998245E-14  0.12500000000E+03  0.12500000000E+03 0.  0.
    3000001    1    3    3    0    0  0.65833558377E+01  0.93186017443E+01 -0.17961270671E+02  0.21302210136E+02  0.10000000000E+01 0.  1.
    1000022    2    1    0    0    0  0.30863492189E+02  0.20880109392E+02 -0.49170274328E+02  0.62500000017E+02  0.10000000315E+02 0.  0.
    3000022    2    3    3    0    0  0.24280136351E+02  0.11561507647E+02 -0.31209003657E+02  0.41197789881E+02  0.25000299395E+00 0.  0.
    1000022    2    1    0    0    0 -0.30863492189E+02 -0.20880109392E+02  0.49170274328E+02  0.62499999983E+02  0.10000000104E+02 0.  0.
    3000022    2    5    5    0    0 -0.95429114631E+01 -0.76694272812E+01  0.24048812199E+02  0.26986944020E+02  0.25001072268E+00 0.  0.
        -13    1    4    4    0    0  0.86988486015E+01  0.40797674657E+01 -0.11169630578E+02  0.14733843416E+02  0.10500000000E+00 0. -1.
         13    1    4    4    0    0  0.15581287750E+02  0.74817401818E+01 -0.20039373080E+02  0.26463946465E+02  0.10500000000E+00 0.  1.
    3000001    1    5    5    0    0 -0.21320580726E+02 -0.13210682111E+02  0.25121462129E+02  0.35513055963E+02  0.10000000000E+01 0. -1.
        -13    1    6    6    0    0 -0.23765602938E+01 -0.19425702734E+01  0.60505805777E+01  0.67854379685E+01  0.10500000000E+00 0.  1.
         13    1    6    6    0    0 -0.71663511693E+01 -0.57268570079E+01  0.17998231621E+02  0.20201506052E+02  0.10500000000E+00 0. -1.
</event>
<event>
11    0  0.3510903E-009  0.9118800E+02  0.7816531E-02  0.1126479E+00
         25   -1    0    0    0    0  0.00000000000E+00  0.00000000000E+00  0.99999998245E-14  0.12500000000E+03  0.12500000000E+03 0.  0.
    3000001    1    3    3    0    0  0.46244262334E+02 -0.14415187765E+02 -0.35908786930E+02  0.60305641659E+02  0.10000000000E+01 0. -1.
    1000022    2    1    0    0    0  0.46228178707E+02 -0.15488698885E+02 -0.37806158955E+02  0.62499998857E+02  0.99999951246E+01 0.  0.
    3000022    2    3    3    0    0 -0.16083627498E-01 -0.10735111198E+01 -0.18973720248E+01  0.21943571976E+01  0.24999620548E+00 0.  0.
    1000022    2    1    0    0    0 -0.46228178707E+02  0.15488698885E+02  0.37806158955E+02  0.62500001143E+02  0.10000009412E+02 0.  0.
    3000022    2    5    5    0    0 -0.27590200833E+02  0.41046621553E+01  0.21857491997E+02  0.35438395699E+02  0.24999974861E+00 0.  0.
        -13    1    4    4    0    0 -0.55818875805E-01 -0.67354779466E+00 -0.11011385669E+01  0.12962690778E+01  0.10500000000E+00 0.  1.
         13    1    4    4    0    0  0.39735248306E-01 -0.39996332514E+00 -0.79623345793E+00  0.89808811981E+00  0.10500000000E+00 0. -1.
    3000001    1    5    5    0    0 -0.18637977874E+02  0.11384036730E+02  0.15948666957E+02  0.27061605444E+02  0.10000000000E+01 0. -1.
        -13    1    6    6    0    0 -0.16986915827E+02  0.25411226431E+01  0.13534701209E+02  0.21868053764E+02  0.10500000000E+00 0.  1.
         13    1    6    6    0    0 -0.10603285006E+02  0.15635395122E+01  0.83227907881E+01  0.13570341934E+02  0.10500000000E+00 0. -1.
</event>
<event>
11    0  0.3510903E-009  0.9118800E+02  0.7816531E-02  0.1126479E+00
         25   -1    0    0    0    0  0.00000000000E+00  0.00000000000E+00  0.99999998245E-14  0.12500000000E+03  0.12500000000E+03 0.  0.
    3000001    1    3    3    0    0  0.27548438163E+02  0.55437713833E+02 -0.31036219107E+01  0.61991039911E+02  0.10000000000E+01 0. -1.
    1000022    2    1    0    0    0  0.27709420322E+02  0.55030605021E+02 -0.31735000686E+01  0.62499994969E+02  0.99999402414E+01 0.  0.
    3000022    2    3    3    0    0  0.16098215923E+00 -0.40710881199E+00 -0.69878157884E-01  0.50895505798E+00  0.24999890741E+00 0.  0.
    1000022    2    1    0    0    0 -0.27709420322E+02 -0.55030605021E+02  0.31735000686E+01  0.62500005031E+02  0.10000003135E+02 0.  0.
    3000022    2    5    5    0    0 -0.24949100933E+02 -0.52197735600E+02  0.49178435936E+01  0.58062973747E+02  0.24999121446E+00 0.  0.
        -13    1    4    4    0    0  0.46368678929E-01 -0.79942564040E-01 -0.40133896540E-01  0.14552181136E+00  0.10500000000E+00 0. -1.
         13    1    4    4    0    0  0.11461348030E+00 -0.32716624795E+00 -0.29744261344E-01  0.36343324662E+00  0.10500000000E+00 0.  1.
    3000001    1    5    5    0    0 -0.27603193891E+01 -0.28328694211E+01 -0.17443435251E+01  0.44370312845E+01  0.10000000000E+01 0.  1.
        -13    1    6    6    0    0 -0.15566703029E+02 -0.32577184305E+02  0.30087140358E+01  0.36230630212E+02  0.10500000000E+00 0. -1.
         13    1    6    6    0    0 -0.93823979040E+01 -0.19620551295E+02  0.19091295578E+01  0.21832343535E+02  0.10500000000E+00 0.  1.
</event>
<event>
11    0  0.3510903E-009  0.9118800E+02  0.7816531E-02  0.1126479E+00
         25   -1    0    0    0    0  0.00000000000E+00  0.00000000000E+00  0.99999998245E-14  0.12500000000E+03  0.12500000000E+03 0.  0.
    3000001    1    3    3    0    0  0.34748161689E+02  0.24869072910E+02  0.44626557512E+02  0.61793488035E+02  0.10000000000E+01 0. -1.
    1000022    2    1    0    0    0  0.35114790850E+02  0.24331741673E+02  0.44510311582E+02  0.62499999520E+02  0.99999956755E+01 0.  0.
    3000022    2    3    3    0    0  0.36662916174E+00 -0.53733123656E+00 -0.11624592960E+00  0.70651148515E+00  0.25000712486E+00 0.  0.
    1000022    2    1    0    0    0 -0.35114790850E+02 -0.24331741673E+02 -0.44510311582E+02  0.62500000480E+02  0.10000001677E+02 0.  0.
    3000022    2    5    5    0    0 -0.33082058179E+02 -0.24557185093E+02 -0.39881985370E+02  0.57342071596E+02  0.25000959345E+00 0.  0.
        -13    1    4    4    0    0  0.83845615032E-01 -0.15682675410E+00  0.29083056873E-02  0.20653855864E+00  0.10500000000E+00 0.  1.
         13    1    4    4    0    0  0.28278354671E+00 -0.38050448246E+00 -0.11915423529E+00  0.49997292651E+00  0.10500000000E+00 0. -1.
    3000001    1    5    5    0    0 -0.20327326716E+01  0.22544341974E+00 -0.46283262123E+01  0.51579288845E+01  0.10000000000E+01 0. -1.
        -13    1    6    6    0    0 -0.86034475404E+01 -0.63482308249E+01 -0.10359538670E+02  0.14887928353E+02  0.10500000000E+00 0. -1.
         13    1    6    6    0    0 -0.24478610638E+02 -0.18208954268E+02 -0.29522446700E+02  0.42454143243E+02  0.10500000000E+00 0.  1.
</event>
<event>
11    0  0.3510903E-009  0.9118800E+02  0.7816531E-02  0.1126479E+00
         25   -1    0    0    0    0  0.00000000000E+00  0.00000000000E+00  0.99999998245E-14  0.12500000000E+03  0.12500000000E+03 0.  0.
    3000001    1    3    3    0    0 -0.75828070995E+01 -0.17151464529E+01  0.14863755610E+01  0.79780952095E+01  0.10000000000E+01 0.  1.
    1000022    2    1    0    0    0 -0.54208877520E+02  0.36910181208E+01  0.29223686739E+02  0.62499998992E+02  0.99999995297E+01 0.  0.
    3000022    2    3    3    0    0 -0.46626070421E+02  0.54061645738E+01  0.27737311178E+02  0.54521903782E+02  0.25000478809E+00 0.  0.
    1000022    2    1    0    0    0  0.54208877520E+02 -0.36910181208E+01 -0.29223686739E+02  0.62500001008E+02  0.10000012131E+02 0.  0.
    3000022    2    5    5    0    0  0.16270117167E+02 -0.51027654096E+01 -0.11650628768E+02  0.20653197857E+02  0.25000711196E+00 0.  0.
        -13    1    4    4    0    0 -0.13303614396E+02  0.15046790683E+01  0.79320461282E+01  0.15562088416E+02  0.10500000000E+00 0.  1.
         13    1    4    4    0    0 -0.33322456025E+02  0.39014855055E+01  0.19805265050E+02  0.38959815366E+02  0.10500000000E+00 0. -1.
    3000001    1    5    5    0    0  0.37938760353E+02  0.14117472887E+01 -0.17573057971E+02  0.41846803151E+02  0.10000000000E+01 0. -1.
        -13    1    6    6    0    0  0.53139937030E+01 -0.16213952581E+01 -0.37612448734E+01  0.67100998246E+01  0.10500000000E+00 0.  1.
         13    1    6    6    0    0  0.10956123464E+02 -0.34813701514E+01 -0.78893838950E+01  0.13943098032E+02  0.10500000000E+00 0. -1.
</event>
<event>
11    0  0.3510903E-009  0.9118800E+02  0.7816531E-02  0.1126479E+00
         25   -1    0    0    0    0  0.00000000000E+00  0.00000000000E+00  0.99999998245E-14  0.12500000000E+03  0.12500000000E+03 0.  0.
    3000001    1    3    3    0    0  0.37483119500E+01  0.27752235348E+02 -0.42053350581E+01  0.28335865122E+02  0.10000000000E+01 0. -1.
    1000022    2    1    0    0    0  0.76859398034E+01  0.57984648501E+02 -0.19620323214E+02  0.62499999457E+02  0.99999858364E+01 0.  0.
    3000022    2    3    3    0    0  0.39376278533E+01  0.30232413153E+02 -0.15414988155E+02  0.34164134335E+02  0.24999372137E+00 0.  0.
    1000022    2    1    0    0    0 -0.76859398034E+01 -0.57984648501E+02  0.19620323214E+02  0.62500000543E+02  0.99999926226E+01 0.  0.
    3000022    2    5    5    0    0 -0.94975121683E+01 -0.53457963988E+02  0.18783495862E+02  0.57452927418E+02  0.25000197929E+00 0.  0.
        -13    1    4    4    0    0  0.18332371681E+01  0.14485453170E+02 -0.73353420200E+01  0.16340360449E+02  0.10500000000E+00 0. -1.
         13    1    4    4    0    0  0.21043906852E+01  0.15746959983E+02 -0.80796461354E+01  0.17823773886E+02  0.10500000000E+00 0.  1.
    3000001    1    5    5    0    0  0.18115723649E+01 -0.45266845129E+01  0.83682735169E+00  0.50470731250E+01  0.10000000000E+01 0.  1.
        -13    1    6    6    0    0 -0.43323687796E+01 -0.24010193439E+02  0.84527858364E+01  0.25820910550E+02  0.10500000000E+00 0.  1.
         13    1    6    6    0    0 -0.51651433887E+01 -0.29447770549E+02  0.10330710025E+02  0.31632016868E+02  0.10500000000E+00 0. -1.
</event>
<event>
11    0  0.3510903E-009  0.9118800E+02  0.7816531E-02  0.1126479E+00
         25   -1    0    0    0    0  0.00000000000E+00  0.00000000000E+00  0.99999998245E-14  0.12500000000E+03  0.12500000000E+03 0.  0.
    3000001    1    3    3    0    0  0.36089822792E+02 -0.38247496727E+01  0.29065516370E+02  0.46507077537E+02  0.10000000000E+01 0. -1.
    1000022    2    1    0    0    0  0.44310656573E+02 -0.76170232998E+01  0.42246854168E+02  0.62500001612E+02  0.10000009230E+02 0.  0.
    3000022    2    3    3    0    0  0.82208337808E+01 -0.37922736271E+01  0.13181337798E+02  0.15992924075E+02  0.25001401529E+00 0.  0.
    1000022    2    1    0    0    0 -0.44310656573E+02  0.76170232998E+01 -0.42246854168E+02  0.62499998388E+02  0.99999890746E+01 0.  0.
    3000022    2    5    5    0    0 -0.15795754693E+02  0.46349456849E+01 -0.96754674585E+01  0.19096223802E+02  0.25001024461E+00 0.  0.
        -13    1    4    4    0    0  0.48927398950E+01 -0.22941006339E+01  0.77718926061E+01  0.94665274035E+01  0.10500000000E+00 0. -1.
         13    1    4    4    0    0  0.33280938858E+01 -0.14981729932E+01  0.54094451920E+01  0.65263966716E+01  0.10500000000E+00 0.  1.
    3000001    1    5    5    0    0 -0.28514901880E+02  0.29820776149E+01 -0.32571386710E+02  0.43403774586E+02  0.10000000000E+01 0. -1.
        -13    1    6    6    0    0 -0.47996912626E+01  0.13641911326E+01 -0.29104595584E+01  0.57775300522E+01  0.10500000000E+00 0.  1.
         13    1    6    6    0    0 -0.10996063430E+02  0.32707545523E+01 -0.67650079001E+01  0.13318693750E+02  0.10500000000E+00 0. -1.
</event>
<event>
11    0  0.3510903E-009  0.9118800E+02  0.7816531E-02  0.1126479E+00
         25   -1    0    0    0    0  0.00000000000E+00  0.00000000000E+00  0.99999998245E-14  0.12500000000E+03  0.12500000000E+03 0.  0.
    3000001    1    3    3    0    0 -0.46323355932E+02  0.83102298820E+01  0.12259592364E+02  0.48643713165E+02  0.10000000000E+01 0. -1.
    1000022    2    1    0    0    0 -0.59133894356E+02  0.13494178718E+02  0.11284483046E+02  0.62499995374E+02  0.99999771571E+01 0.  0.
    3000022    2    3    3    0    0 -0.12810538424E+02  0.51839488357E+01 -0.97510931835E+00  0.13856282209E+02  0.24999647377E+00 0.  0.
    1000022    2    1    0    0    0  0.59133894356E+02 -0.13494178718E+02 -0.11284483046E+02  0.62500004626E+02  0.10000034984E+02 0.  0.
    3000022    2    5    5    0    0  0.38315991929E+02 -0.77061699244E+01 -0.25330531951E+01  0.39166045860E+02  0.24999486420E+00 0.  0.
        -13    1    4    4    0    0 -0.86891743161E+01  0.35331934461E+01 -0.61314604509E+00  0.94006478126E+01  0.10500000000E+00 0. -1.
         13    1    4    4    0    0 -0.41213641079E+01  0.16507553896E+01 -0.36196327326E+00  0.44556343967E+01  0.10500000000E+00 0.  1.
    3000001    1    5    5    0    0  0.20817902427E+02 -0.57880087934E+01 -0.87514298509E+01  0.23333958766E+02  0.10000000000E+01 0.  1.
        -13    1    6    6    0    0  0.24528565378E+02 -0.48740808698E+01 -0.16246961169E+01  0.25061082305E+02  0.10500000000E+00 0.  1.
         13    1    6    6    0    0  0.13787426551E+02 -0.28320890546E+01 -0.90835707819E+00  0.14104963555E+02  0.10500000000E+00 0. -1.
</event>
<event>
11    0  0.3510903E-009  0.9118800E+02  0.7816531E-02  0.1126479E+00
         25   -1    0    0    0    0  0.00000000000E+00  0.00000000000E+00  0.99999998245E-14  0.12500000000E+03  0.12500000000E+03 0.  0.
    3000001    1    3    3    0    0 -0.16736017361E+02  0.22532934926E+02 -0.66656621745E+01  0.28866217031E+02  0.10000000000E+01 0. -1.
    1000022    2    1    0    0    0 -0.36317125113E+02  0.49727748723E+02 -0.38036177659E+01  0.62500001566E+02  0.10000005906E+02 0.  0.
    3000022    2    3    3    0    0 -0.19581107752E+02  0.27194813796E+02  0.28620444086E+01  0.33633784534E+02  0.24997133819E+00 0.  0.
    1000022    2    1    0    0    0  0.36317125113E+02 -0.49727748723E+02  0.38036177659E+01  0.62499998434E+02  0.99999863340E+01 0.  0.
    3000022    2    5    5    0    0  0.21026645099E+02 -0.21159686701E+02  0.38732052442E+01  0.30081827771E+02  0.24999556671E+00 0.  0.
        -13    1    4    4    0    0 -0.76719660214E+01  0.10756562639E+02  0.11479654968E+01  0.13262411252E+02  0.10500000000E+00 0. -1.
         13    1    4    4    0    0 -0.11909141731E+02  0.16438251158E+02  0.17140789118E+01  0.20371373282E+02  0.10500000000E+00 0.  1.
    3000001    1    5    5    0    0  0.15290480014E+02 -0.28568062021E+02 -0.69587478358E-01  0.32418170663E+02  0.10000000000E+01 0. -1.
        -13    1    6    6    0    0  0.67238311302E+01 -0.68367432240E+01  0.12573124243E+01  0.96717538487E+01  0.10500000000E+00 0.  1.
         13    1    6    6    0    0  0.14302813969E+02 -0.14322943477E+02  0.26158928200E+01  0.20410073923E+02  0.10500000000E+00 0. -1.
</event>
<event>
11    0  0.3510903E-009  0.9118800E+02  0.7816531E-02  0.1126479E+00
         25   -1    0    0    0    0  0.00000000000E+00  0.00000000000E+00  0.99999998245E-14  0.12500000000E+03  0.12500000000E+03 0.  0.
    3000001    1    3    3    0    0 -0.34631316190E+01 -0.21707600471E+02  0.16691151026E+02  0.27618973938E+02  0.10000000000E+01 0. -1.
    1000022    2    1    0    0    0 -0.18185451375E+02 -0.45102567100E+02  0.37964424759E+02  0.62499997974E+02  0.99999999336E+01 0.  0.
    3000022    2    3    3    0    0 -0.14722319756E+02 -0.23394966630E+02  0.21273273734E+02  0.34881024036E+02  0.24999973668E+00 0.  0.
    1000022    2    1    0    0    0  0.18185451375E+02  0.45102567100E+02 -0.37964424759E+02  0.62500002026E+02  0.10000025261E+02 0.  0.
    3000022    2    5    5    0    0  0.45715150412E+00  0.12408237825E+02 -0.10354292126E+02  0.16169329604E+02  0.25000197808E+00 0.  0.
        -13    1    4    4    0    0 -0.10613818221E+02 -0.16836460311E+02  0.15270950935E+02  0.25086500363E+02  0.10500000000E+00 0.  1.
         13    1    4    4    0    0 -0.41085015350E+01 -0.65585063183E+01  0.60023227990E+01  0.97945236726E+01  0.10500000000E+00 0. -1.
    3000001    1    5    5    0    0  0.17728299871E+02  0.32694329276E+02 -0.27610132633E+02  0.46330672422E+02  0.10000000000E+01 0. -1.
        -13    1    6    6    0    0  0.25206615828E+00  0.51068894569E+01 -0.42562600444E+01  0.66536179511E+01  0.10500000000E+00 0. -1.
         13    1    6    6    0    0  0.20508534585E+00  0.73013483679E+01 -0.60980320818E+01  0.95157116528E+01  0.10500000000E+00 0.  1.
</event>
<event>
11    0  0.3510903E-009  0.9118800E+02  0.7816531E-02  0.1126479E+00
         25   -1    0    0    0    0  0.00000000000E+00  0.00000000000E+00  0.99999998245E-14  0.12500000000E+03  0.12500000000E+03 0.  0.
    3000001    1    3    3    0    0 -0.47611991869E+02 -0.18554928056E+02 -0.23224068406E+02  0.56138618422E+02  0.10000000000E+01 0.  1.
    1000022    2    1    0    0    0 -0.53960585634E+02 -0.18465310482E+02 -0.23527378093E+02  0.62499999665E+02  0.99999972526E+01 0.  0.
    3000022    2    3    3    0    0 -0.63485937641E+01  0.89617574647E-01 -0.30330968670E+00  0.63613812430E+01  0.25000092305E+00 0.  0.
    1000022    2    1    0    0    0  0.53960585634E+02  0.18465310482E+02  0.23527378093E+02  0.62500000335E+02  0.10000001444E+02 0.  0.
    3000022    2    5    5    0    0  0.41878307443E+02  0.12865040015E+02  0.22100843521E+02  0.49069457664E+02  0.25000435724E+00 0.  0.
        -13    1    4    4    0    0 -0.45234616400E+01  0.37865784189E-01 -0.18266878576E+00  0.45285242531E+01  0.10500000000E+00 0.  1.
         13    1    4    4    0    0 -0.18251321241E+01  0.51751790458E-01 -0.12064090094E+00  0.18328569898E+01  0.10500000000E+00 0. -1.
    3000001    1    5    5    0    0  0.12082278190E+02  0.56002704669E+01  0.14265345724E+01  0.13430542672E+02  0.10000000000E+01 0. -1.
        -13    1    6    6    0    0  0.19350965449E+02  0.59092077575E+01  0.10272006040E+02  0.22691490326E+02  0.10500000000E+00 0.  1.
         13    1    6    6    0    0  0.22527341994E+02  0.69558322573E+01  0.11828837481E+02  0.26377967337E+02  0.10500000000E+00 0. -1.
</event>
<event>
11    0  0.3510903E-009  0.9118800E+02  0.7816531E-02  0.1126479E+00
         25   -1    0    0    0    0  0.00000000000E+00  0.00000000000E+00  0.99999998245E-14  0.12500000000E+03  0.12500000000E+03 0.  0.
    3000001    1    3    3    0    0 -0.35899631686E+02  0.38128181651E+02  0.33433578840E+01  0.52485424959E+02  0.10000000000E+01 0.  1.
    1000022    2    1    0    0    0 -0.39278975484E+02  0.47215708353E+02  0.58385792650E+01  0.62500001030E+02  0.10000004530E+02 0.  0.
    3000022    2    3    3    0    0 -0.33793437974E+01  0.90875267013E+01  0.24952213809E+01  0.10014576070E+02  0.24999615683E+00 0.  0.
    1000022    2    1    0    0    0  0.39278975484E+02 -0.47215708353E+02 -0.58385792650E+01  0.62499998970E+02  0.99999916594E+01 0.  0.
    3000022    2    5    5    0    0  0.39172389282E+01 -0.20191048225E+01 -0.23461523438E+01  0.49988474282E+01  0.24999937171E+00 0.  0.
        -13    1    4    4    0    0 -0.11557043466E+01  0.29698619139E+01  0.79837403170E+00  0.32869679674E+01  0.10500000000E+00 0. -1.
         13    1    4    4    0    0 -0.22236394508E+01  0.61176647874E+01  0.16968473492E+01  0.67276081027E+01  0.10500000000E+00 0.  1.
    3000001    1    5    5    0    0  0.35361736555E+02 -0.45196603530E+02 -0.34924269212E+01  0.57501151542E+02  0.10000000000E+01 0.  1.
        -13    1    6    6    0    0  0.24945763265E+01 -0.12258886871E+01 -0.14484967480E+01  0.31360615349E+01  0.10500000000E+00 0.  1.
         13    1    6    6    0    0  0.14226626017E+01 -0.79321613535E+00 -0.89765559575E+00  0.18627858933E+01  0.10500000000E+00 0. -1.
</event>
<event>
11    0  0.3510903E-009  0.9118800E+02  0.7816531E-02  0.1126479E+00
         25   -1    0    0    0    0  0.00000000000E+00  0.00000000000E+00  0.99999998245E-14  0.12500000000E+03  0.12500000000E+03 0.  0.
    3000001    1    3    3    0    0  0.35856688537E+01  0.15601399981E+00  0.45574548958E+02  0.45726588263E+02  0.10000000000E+01 0.  1.
    1000022    2    1    0    0    0  0.99782180526E+01  0.30604541504E+01  0.60805581922E+02  0.62499999464E+02  0.99999962481E+01 0.  0.
    3000022    2    3    3    0    0  0.63925491988E+01  0.29044401506E+01  0.15231032964E+02  0.16773411200E+02  0.25000057542E+00 0.  0.
    1000022    2    1    0    0    0 -0.99782180526E+01 -0.30604541504E+01 -0.60805581922E+02  0.62500000536E+02  0.10000002953E+02 0.  0.
    3000022    2    5    5    0    0  0.16558154059E+01 -0.28206997194E+00 -0.28755145020E+01  0.33395165590E+01  0.24999813716E+00 0.  0.
        -13    1    4    4    0    0  0.38536113103E+01  0.18192940073E+01  0.92344332060E+01  0.10170837353E+02  0.10500000000E+00 0.  1.
         13    1    4    4    0    0  0.25389378885E+01  0.10851461433E+01  0.59965997582E+01  0.66025738476E+01  0.10500000000E+00 0. -1.
    3000001    1    5    5    0    0 -0.11634033458E+02 -0.27783841785E+01 -0.57930067420E+02  0.59160483977E+02  0.10000000000E+01 0.  1.
        -13    1    6    6    0    0  0.64499608384E+00 -0.10514168842E+00 -0.10040321726E+01  0.12025723788E+01  0.10500000000E+00 0. -1.
         13    1    6    6    0    0  0.10108193221E+01 -0.17692828352E+00 -0.18714823295E+01  0.21369441801E+01  0.10500000000E+00 0.  1.
</event>
<event>
11    0  0.3510903E-009  0.9118800E+02  0.7816531E-02  0.1126479E+00
         25   -1    0    0    0    0  0.00000000000E+00  0.00000000000E+00  0.99999998245E-14  0.12500000000E+03  0.12500000000E+03 0.  0.
    3000001    1    3    3    0    0  0.25030783293E+02 -0.56812314648E+01  0.34502724136E+01  0.25917578648E+02  0.10000000000E+01 0. -1.
    1000022    2    1    0    0    0  0.58601099649E+02 -0.71749210952E+01  0.17907582357E+02  0.62500000125E+02  0.10000006848E+02 0.  0.
    3000022    2    3    3    0    0  0.33570316356E+02 -0.14936896304E+01  0.14457309943E+02  0.36582421477E+02  0.25000281769E+00 0.  0.
    1000022    2    1    0    0    0 -0.58601099649E+02  0.71749210952E+01 -0.17907582357E+02  0.62499999875E+02  0.10000005288E+02 0.  0.
    3000022    2    5    5    0    0 -0.14551552879E+02  0.17226156626E+01 -0.74816065737E-01  0.14655483379E+02  0.24999943445E+00 0.  0.
        -13    1    4    4    0    0  0.25487434402E+02 -0.11321484778E+01  0.10954418474E+02  0.27765110871E+02  0.10500000000E+00 0. -1.
         13    1    4    4    0    0  0.80828819532E+01 -0.36154115259E+00  0.35028914694E+01  0.88173106059E+01  0.10500000000E+00 0.  1.
    3000001    1    5    5    0    0 -0.44049546770E+02  0.54523054326E+01 -0.17832766291E+02  0.47844516496E+02  0.10000000000E+01 0. -1.
        -13    1    6    6    0    0 -0.60526280883E+01  0.70130348140E+00 -0.93795378552E-01  0.60947482246E+01  0.10500000000E+00 0. -1.
         13    1    6    6    0    0 -0.84989247906E+01  0.10213121812E+01  0.18979312815E-01  0.85607351543E+01  0.10500000000E+00 0.  1.
</event>
<event>
11    0  0.3510903E-009  0.9118800E+02  0.7816531E-02  0.1126479E+00
         25   -1    0    0    0    0  0.00000000000E+00  0.00000000000E+00  0.99999998245E-14  0.12500000000E+03  0.12500000000E+03 0.  0.
    3000001    1    3    3    0    0  0.76794540302E+01  0.59339815629E+02  0.33912011798E+01  0.59939035516E+02  0.10000000000E+01 0. -1.
    1000022    2    1    0    0    0  0.89775655101E+01  0.60833178259E+02  0.49977015413E+01  0.62500006092E+02  0.10000074058E+02 0.  0.
    3000022    2    3    3    0    0  0.12981114799E+01  0.14933626303E+01  0.16065003615E+01  0.25609705764E+01  0.25000304314E+00 0.  0.
    1000022    2    1    0    0    0 -0.89775655101E+01 -0.60833178259E+02 -0.49977015413E+01  0.62499993908E+02  0.99999979095E+01 0.  0.
    3000022    2    5    5    0    0  0.20573490531E+01 -0.12157436909E+02 -0.33470806757E-01  0.12332866003E+02  0.25001247802E+00 0.  0.
        -13    1    4    4    0    0  0.48686271489E+00  0.55763301058E+00  0.68148448825E+00  0.10116501299E+01  0.10500000000E+00 0. -1.
         13    1    4    4    0    0  0.81124876506E+00  0.93572961970E+00  0.92501587326E+00  0.15493204464E+01  0.10500000000E+00 0.  1.
    3000001    1    5    5    0    0 -0.11034914563E+02 -0.48675741350E+02 -0.49642307345E+01  0.50167127905E+02  0.10000000000E+01 0. -1.
        -13    1    6    6    0    0  0.10609302099E+01 -0.64376296389E+01 -0.79028627929E-01  0.65257887494E+01  0.10500000000E+00 0. -1.
         13    1    6    6    0    0  0.99641884321E+00 -0.57198072701E+01  0.45557821171E-01  0.58070772540E+01  0.10500000000E+00 0.  1.
</event>
<event>
11    0  0.3510903E-009  0.9118800E+02  0.7816531E-02  0.1126479E+00
         25   -1    0    0    0    0  0.00000000000E+00  0.00000000000E+00  0.99999998245E-14  0.12500000000E+03  0.12500000000E+03 0.  0.
    3000001    1    3    3    0    0 -0.40478483949E+01  0.38213004501E+01 -0.10898570473E+02  0.12278690977E+02  0.10000000000E+01 0. -1.
    1000022    2    1    0    0    0 -0.93838258199E+01  0.34726099866E+02 -0.50122769981E+02  0.62499997332E+02  0.99999698529E+01 0.  0.
    3000022    2    3    3    0    0 -0.53359774250E+01  0.30904799416E+02 -0.39224199508E+02  0.50221306355E+02  0.25000592880E+00 0.  0.
    1000022    2    1    0    0    0  0.93838258199E+01 -0.34726099866E+02  0.50122769981E+02  0.62500002668E+02  0.10000003201E+02 0.  0.
    3000022    2    5    5    0    0 -0.15506392002E+01 -0.25145182795E+01  0.20657871724E+01  0.36134837503E+01  0.25000813024E+00 0.  0.
        -13    1    4    4    0    0 -0.27851806291E+01  0.15750950117E+02 -0.20037385495E+02  0.25638984051E+02  0.10500000000E+00 0. -1.
         13    1    4    4    0    0 -0.25507967960E+01  0.15153849299E+02 -0.19186814013E+02  0.24582322304E+02  0.10500000000E+00 0.  1.
    3000001    1    5    5    0    0  0.10934465020E+02 -0.32211581586E+02  0.48056982808E+02  0.58886518917E+02  0.10000000000E+01 0.  1.
        -13    1    6    6    0    0 -0.63817488998E+00 -0.98837229566E+00  0.75334235934E+00  0.14009627745E+01  0.10500000000E+00 0.  1.
         13    1    6    6    0    0 -0.91246431025E+00 -0.15261459839E+01  0.13124448130E+01  0.22125209759E+01  0.10500000000E+00 0. -1.
</event>
<event>
11    0  0.3510903E-009  0.9118800E+02  0.7816531E-02  0.1126479E+00
         25   -1    0    0    0    0  0.00000000000E+00  0.00000000000E+00  0.99999998245E-14  0.12500000000E+03  0.12500000000E+03 0.  0.
    3000001    1    3    3    0    0 -0.21021844358E+01  0.43178185791E+01  0.43053129612E+01  0.65267492964E+01  0.10000000000E+01 0. -1.
    1000022    2    1    0    0    0 -0.34684306820E+02  0.18478511735E+02  0.47558316705E+02  0.62499999718E+02  0.99999970700E+01 0.  0.
    3000022    2    3    3    0    0 -0.32582122384E+02  0.14160693156E+02  0.43253003743E+02  0.55973250421E+02  0.25000034464E+00 0.  0.
    1000022    2    1    0    0    0  0.34684306820E+02 -0.18478511735E+02 -0.47558316705E+02  0.62500000282E+02  0.10000000597E+02 0.  0.
    3000022    2    5    5    0    0  0.16318135567E+02 -0.73545017338E+01 -0.29109391876E+02  0.34172934209E+02  0.24998576592E+00 0.  0.
        -13    1    4    4    0    0 -0.24203010124E+02  0.10489628324E+02  0.32092668505E+02  0.41542368712E+02  0.10500000000E+00 0. -1.
         13    1    4    4    0    0 -0.83791122604E+01  0.36710648324E+01  0.11160335239E+02  0.14430881710E+02  0.10500000000E+00 0.  1.
    3000001    1    5    5    0    0  0.18366171253E+02 -0.11124010002E+02 -0.18448924828E+02  0.28327066074E+02  0.10000000000E+01 0.  1.
        -13    1    6    6    0    0  0.10143613012E+02 -0.45907830900E+01 -0.17996213903E+02  0.21162299359E+02  0.10500000000E+00 0. -1.
         13    1    6    6    0    0  0.61745225549E+01 -0.27637186437E+01 -0.11113177974E+02  0.13010634850E+02  0.10500000000E+00 0.  1.
</event>
<event>
11    0  0.3510903E-009  0.9118800E+02  0.7816531E-02  0.1126479E+00
         25   -1    0    0    0    0  0.00000000000E+00  0.00000000000E+00  0.99999998245E-14  0.12500000000E+03  0.12500000000E+03 0.  0.
    3000001    1    3    3    0    0 -0.18797840718E+02  0.51219021624E+01  0.40676176272E+00  0.19513025203E+02  0.10000000000E+01 0. -1.
    1000022    2    1    0    0    0 -0.61511074493E+02  0.28079943665E+01 -0.38409588024E+01  0.62500001629E+02  0.10000006071E+02 0.  0.
    3000022    2    3    3    0    0 -0.42713233775E+02 -0.23139077959E+01 -0.42477205651E+01  0.42986976426E+02  0.25000692259E+00 0.  0.
    1000022    2    1    0    0    0  0.61511074493E+02 -0.28079943665E+01  0.38409588024E+01  0.62499998371E+02  0.99999857089E+01 0.  0.
    3000022    2    5    5    0    0  0.17713597621E+02 -0.64543366285E+00  0.56347394059E+01  0.18601099774E+02  0.24999868018E+00 0.  0.
        -13    1    4    4    0    0 -0.25669083465E+02 -0.14298754489E+01 -0.26023865028E+01  0.25840468847E+02  0.10500000000E+00 0.  1.
         13    1    4    4    0    0 -0.17044150310E+02 -0.88403234701E+00 -0.16453340624E+01  0.17146507579E+02  0.10500000000E+00 0. -1.
    3000001    1    5    5    0    0  0.43797476872E+02 -0.21625607036E+01 -0.17937806035E+01  0.43898898597E+02  0.10000000000E+01 0. -1.
        -13    1    6    6    0    0  0.12750239251E+02 -0.47243470149E+00  0.40148319335E+01  0.13376161481E+02  0.10500000000E+00 0.  1.
         13    1    6    6    0    0  0.49633583702E+01 -0.17299896136E+00  0.16199074724E+01  0.52249382935E+01  0.10500000000E+00 0. -1.
</event>
<event>
11    0  0.3510903E-009  0.9118800E+02  0.7816531E-02  0.1126479E+00
         25   -1    0    0    0    0  0.00000000000E+00  0.00000000000E+00  0.99999998245E-14  0.12500000000E+03  0.12500000000E+03 0.  0.
    3000001    1    3    3    0    0 -0.81992022456E+01  0.74125576845E+01 -0.29419705888E+01  0.11481642732E+02  0.10000000000E+01 0.  1.
    1000022    2    1    0    0    0 -0.53682887098E+02  0.30398772242E+02 -0.55905820370E+00  0.62499996465E+02  0.99999645506E+01 0.  0.
    3000022    2    3    3    0    0 -0.45483684852E+02  0.22986214558E+02  0.23829123851E+01  0.51018353732E+02  0.24999735801E+00 0.  0.
    1000022    2    1    0    0    0  0.53682887098E+02 -0.30398772242E+02  0.55905820370E+00  0.62500003535E+02  0.10000008740E+02 0.  0.
    3000022    2    5    5    0    0  0.50618030952E+02 -0.25626529508E+02  0.66695466079E+00  0.56739857221E+02  0.24999369296E+00 0.  0.
        -13    1    4    4    0    0 -0.13421314303E+02  0.67334536471E+01  0.70732748230E+00  0.15032711426E+02  0.10500000000E+00 0. -1.
         13    1    4    4    0    0 -0.32062370549E+02  0.16252760911E+02  0.16755849028E+01  0.35985642307E+02  0.10500000000E+00 0.  1.
    3000001    1    5    5    0    0  0.30648561456E+01 -0.47722427349E+01 -0.10789645709E+00  0.57601463140E+01  0.10000000000E+01 0. -1.
        -13    1    6    6    0    0  0.25319622675E+02 -0.12780129793E+02  0.39188937860E+00  0.28365112590E+02  0.10500000000E+00 0.  1.
         13    1    6    6    0    0  0.25298408277E+02 -0.12846399715E+02  0.27506528219E+00  0.28374744631E+02  0.10500000000E+00 0. -1.
</event>
<event>
11    0  0.3510903E-009  0.9118800E+02  0.7816531E-02  0.1126479E+00
         25   -1    0    0    0    0  0.00000000000E+00  0.00000000000E+00  0.99999998245E-14  0.12500000000E+03  0.12500000000E+03 0.  0.
    3000001    1    3    3    0    0 -0.32748486272E+01 -0.42757786089E+02  0.46184372286E+01  0.43142587628E+02  0.10000000000E+01 0. -1.
    1000022    2    1    0    0    0 -0.88771094913E+01 -0.59960206881E+02  0.11498719677E+02  0.62499999413E+02  0.99999945147E+01 0.  0.
    3000022    2    3    3    0    0 -0.56022608641E+01 -0.17202420792E+02  0.68802824481E+01  0.19357411785E+02  0.24999314681E+00 0.  0.
    1000022    2    1    0    0    0  0.88771094913E+01  0.59960206881E+02 -0.11498719677E+02  0.62500000587E+02  0.10000001850E+02 0.  0.
    3000022    2    5    5    0    0  0.58952403724E+01  0.12155003199E+02 -0.30653586768E+01  0.13854850569E+02  0.24999729531E+00 0.  0.
        -13    1    4    4    0    0 -0.39534527421E+01 -0.12251105712E+02  0.48689847295E+01  0.13763626595E+02  0.10500000000E+00 0. -1.
         13    1    4    4    0    0 -0.16488081221E+01 -0.49513150803E+01  0.20112977186E+01  0.55937851908E+01  0.10500000000E+00 0.  1.
    3000001    1    5    5    0    0  0.29818691190E+01  0.47805203682E+02 -0.84333610000E+01  0.48645150018E+02  0.10000000000E+01 0. -1.
        -13    1    6    6    0    0  0.18318868651E+01  0.36922561182E+01 -0.90540204838E+00  0.42212963172E+01  0.10500000000E+00 0.  1.
         13    1    6    6    0    0  0.40633535073E+01  0.84627470808E+01 -0.21599566284E+01  0.96335542514E+01  0.10500000000E+00 0. -1.
</event>
<event>
11    0  0.3510903E-009  0.9118800E+02  0.7816531E-02  0.1126479E+00
         25   -1    0    0    0    0  0.00000000000E+00  0.00000000000E+00  0.99999998245E-14  0.12500000000E+03  0.12500000000E+03 0.  0.
    3000001    1    3    3    0    0  0.19861405398E+00 -0.55048587340E+02 -0.16587863285E+02  0.57502553196E+02  0.10000000000E+01 0. -1.
    1000022    2    1    0    0    0  0.19535148304E+01 -0.59634163334E+02 -0.15690769936E+02  0.62499998674E+02  0.99999958125E+01 0.  0.
    3000022    2    3    3    0    0  0.17549007764E+01 -0.45855759945E+01  0.89709334899E+00  0.49974454781E+01  0.25000178608E+00 0.  0.
    1000022    2    1    0    0    0 -0.19535148304E+01  0.59634163334E+02  0.15690769936E+02  0.62500001326E+02  0.10000012392E+02 0.  0.
    3000022    2    5    5    0    0  0.19618170158E+01  0.45473616328E+02  0.93499415998E+01  0.46467003510E+02  0.24999868530E+00 0.  0.
        -13    1    4    4    0    0  0.13327319826E+01 -0.34388315188E+01  0.65229147088E+00  0.37467647265E+01  0.10500000000E+00 0. -1.
         13    1    4    4    0    0  0.42216879383E+00 -0.11467444756E+01  0.24480187810E+00  0.12506807516E+01  0.10500000000E+00 0.  1.
    3000001    1    5    5    0    0 -0.39153318462E+01  0.14160547006E+02  0.63408283364E+01  0.16032997816E+02  0.10000000000E+01 0.  1.
        -13    1    6    6    0    0  0.14457920044E+01  0.33882309933E+02  0.69912494820E+01  0.34626432610E+02  0.10500000000E+00 0.  1.
         13    1    6    6    0    0  0.51602501140E+00  0.11591306394E+02  0.23586921178E+01  0.11840570900E+02  0.10500000000E+00 0. -1.
</event>
<event>
11    0  0.3510903E-009  0.9118800E+02  0.7816531E-02  0.1126479E+00
         25   -1    0    0    0    0  0.00000000000E+00  0.00000000000E+00  0.99999998245E-14  0.12500000000E+03  0.12500000000E+03 0.  0.
    3000001    1    3    3    0    0  0.17661053604E+02  0.70034425210E+01 -0.52886060078E+02  0.56204060103E+02  0.10000000000E+01 0. -1.
    1000022    2    1    0    0    0  0.20011665209E+02  0.45516616975E+01 -0.58181316946E+02  0.62499999304E+02  0.99999951357E+01 0.  0.
    3000022    2    3    3    0    0  0.23506116053E+01 -0.24517808235E+01 -0.52952568684E+01  0.62959392004E+01  0.25000197465E+00 0.  0.
    1000022    2    1    0    0    0 -0.20011665209E+02 -0.45516616975E+01  0.58181316946E+02  0.62500000696E+02  0.10000003841E+02 0.  0.
    3000022    2    5    5    0    0 -0.19186427256E+02 -0.34169710699E+01  0.57380279636E+02  0.60599947731E+02  0.24998344325E+00 0.  0.
        -13    1    4    4    0    0  0.18078031474E+01 -0.18919248820E+01 -0.40608753101E+01  0.48321077454E+01  0.10500000000E+00 0.  1.
         13    1    4    4    0    0  0.54280845785E+00 -0.55985594147E+00 -0.12343815584E+01  0.14638314550E+01  0.10500000000E+00 0. -1.
    3000001    1    5    5    0    0 -0.82523795318E+00 -0.11346906276E+01  0.80103730987E+00  0.19000529654E+01  0.10000000000E+01 0.  1.
        -13    1    6    6    0    0 -0.12583621657E+02 -0.22601022266E+01  0.37479508432E+02  0.39600254714E+02  0.10500000000E+00 0. -1.
         13    1    6    6    0    0 -0.66028055991E+01 -0.11568688434E+01  0.19900771204E+02  0.20999693017E+02  0.10500000000E+00 0.  1.
</event>
<event>
11    0  0.3510903E-009  0.9118800E+02  0.7816531E-02  0.1126479E+00
         25   -1    0    0    0    0  0.00000000000E+00  0.00000000000E+00  0.99999998245E-14  0.12500000000E+03  0.12500000000E+03 0.  0.
    3000001    1    3    3    0    0 -0.13917682449E+02 -0.57259392674E+01  0.23046219981E+02  0.27542994039E+02  0.10000000000E+01 0.  1.
    1000022    2    1    0    0    0 -0.39337928464E+02 -0.70135746883E+01  0.47006245747E+02  0.62499999794E+02  0.99999994647E+01 0.  0.
    3000022    2    3    3    0    0 -0.25420246015E+02 -0.12876354209E+01  0.23960025766E+02  0.34957005754E+02  0.25000837539E+00 0.  0.
    1000022    2    1    0    0    0  0.39337928464E+02  0.70135746883E+01 -0.47006245747E+02  0.62500000206E+02  0.10000002043E+02 0.  0.
    3000022    2    5    5    0    0  0.60127762811E+00  0.11796539358E+01 -0.60472566953E-01  0.13488075053E+01  0.25001312076E+00 0.  0.
        -13    1    4    4    0    0 -0.13079688249E+02 -0.65567565958E+00  0.12235444850E+02  0.17922759022E+02  0.10500000000E+00 0. -1.
         13    1    4    4    0    0 -0.12340557766E+02 -0.63195976132E+00  0.11724580916E+02  0.17034246733E+02  0.10500000000E+00 0.  1.
    3000001    1    5    5    0    0  0.38736650835E+02  0.58339207524E+01 -0.46945773180E+02  0.61151192701E+02  0.10000000000E+01 0.  1.
        -13    1    6    6    0    0  0.33330239975E+00  0.51242677621E+00 -0.47174016723E-01  0.62203060898E+00  0.10500000000E+00 0.  1.
         13    1    6    6    0    0  0.26797522837E+00  0.66722715964E+00 -0.13298550231E-01  0.72677689632E+00  0.10500000000E+00 0. -1.
</event>
<event>
11    0  0.3510903E-009  0.9118800E+02  0.7816531E-02  0.1126479E+00
         25   -1    0    0    0    0  0.00000000000E+00  0.00000000000E+00  0.99999998245E-14  0.12500000000E+03  0.12500000000E+03 0.  0.
    3000001    1    3    3    0    0  0.15398032507E+02 -0.11275745204E+02  0.15150369411E+02  0.24388020179E+02  0.10000000000E+01 0.  1.
    1000022    2    1    0    0    0  0.45768571654E+02 -0.18452308475E+02  0.37027019623E+02  0.62499999917E+02  0.99999984071E+01 0.  0.
    3000022    2    3    3    0    0  0.30370539147E+02 -0.71765632715E+01  0.21876650212E+02  0.38111979737E+02  0.24993306778E+00 0.  0.
    1000022    2    1    0    0    0 -0.45768571654E+02  0.18452308475E+02 -0.37027019623E+02  0.62500000083E+02  0.99999994477E+01 0.  0.
    3000022    2    5    5    0    0 -0.41692031772E+02  0.13857385950E+02 -0.30518044451E+02  0.53494543504E+02  0.24997776092E+00 0.  0.
        -13    1    4    4    0    0  0.13359547028E+02 -0.31181614049E+01  0.96833326994E+01  0.16792212019E+02  0.10500000000E+00 0.  1.
         13    1    4    4    0    0  0.17010992119E+02 -0.40584018665E+01  0.12193317513E+02  0.21319767718E+02  0.10500000000E+00 0. -1.
    3000001    1    5    5    0    0 -0.40765398816E+01  0.45949225254E+01 -0.65089751718E+01  0.90054565797E+01  0.10000000000E+01 0. -1.
        -13    1    6    6    0    0 -0.28883628940E+02  0.96269158611E+01 -0.21197232890E+02  0.37098183741E+02  0.10500000000E+00 0.  1.
         13    1    6    6    0    0 -0.12808402832E+02  0.42304700888E+01 -0.93208115615E+01  0.16396359762E+02  0.10500000000E+00 0. -1.
</event>
<event>
11    0  0.3510903E-009  0.9118800E+02  0.7816531E-02  0.1126479E+00
         25   -1    0    0    0    0  0.00000000000E+00  0.00000000000E+00  0.99999998245E-14  0.12500000000E+03  0.12500000000E+03 0.  0.
    3000001    1    3    3    0    0  0.23092713039E+02  0.24850960230E+02 -0.15925333667E+02  0.37489463483E+02  0.10000000000E+01 0.  1.
    1000022    2    1    0    0    0  0.38534901918E+02  0.44285198352E+02 -0.18977158695E+02  0.62500000086E+02  0.99999999844E+01 0.  0.
    3000022    2    3    3    0    0  0.15442188879E+02  0.19434238122E+02 -0.30518250283E+01  0.25010536602E+02  0.24999278773E+00 0.  0.
    1000022    2    1    0    0    0 -0.38534901918E+02 -0.44285198352E+02  0.18977158695E+02  0.62499999914E+02  0.99999989139E+01 0.  0.
    3000022    2    5    5    0    0 -0.29112299856E+02 -0.37976537924E+02  0.17801833183E+02  0.51055961463E+02  0.25000132993E+00 0.  0.
        -13    1    4    4    0    0  0.88454316715E+01  0.11058209280E+02 -0.16939927117E+01  0.14262057714E+02  0.10500000000E+00 0.  1.
         13    1    4    4    0    0  0.65967572076E+01  0.83760288415E+01 -0.13578323165E+01  0.10748478888E+02  0.10500000000E+00 0. -1.
    3000001    1    5    5    0    0 -0.94226020620E+01 -0.63086604278E+01  0.11753255121E+01  0.11444038451E+02  0.10000000000E+01 0.  1.
        -13    1    6    6    0    0 -0.15376656828E+02 -0.19959750281E+02  0.94061387149E+01  0.26894603121E+02  0.10500000000E+00 0. -1.
         13    1    6    6    0    0 -0.13735643028E+02 -0.18016787642E+02  0.83956944684E+01  0.24161358343E+02  0.10500000000E+00 0.  1.
</event>
<event>
11    0  0.3510903E-009  0.9118800E+02  0.7816531E-02  0.1126479E+00
         25   -1    0    0    0    0  0.00000000000E+00  0.00000000000E+00  0.99999998245E-14  0.12500000000E+03  0.12500000000E+03 0.  0.
    3000001    1    3    3    0    0  0.23343325063E+02  0.64483634030E+01  0.76893560783E+01  0.25428692701E+02  0.10000000000E+01 0.  1.
    1000022    2    1    0    0    0  0.53695762801E+02  0.26464692196E+02  0.14920937856E+02  0.62500005001E+02  0.10000068143E+02 0.  0.
    3000022    2    3    3    0    0  0.30352437738E+02  0.20016328793E+02  0.72315817781E+01  0.37071312300E+02  0.25005137464E+00 0.  0.
    1000022    2    1    0    0    0 -0.53695762801E+02 -0.26464692196E+02 -0.14920937856E+02  0.62499994999E+02  0.10000005626E+02 0.  0.
    3000022    2    5    5    0    0 -0.48271240388E+02 -0.20198004747E+02 -0.13376712592E+02  0.54009915691E+02  0.25001753365E+00 0.  0.
        -13    1    4    4    0    0  0.90446536107E+01  0.59242729905E+01  0.21812459185E+01  0.11030486307E+02  0.10500000000E+00 0. -1.
         13    1    4    4    0    0  0.21307784127E+02  0.14092055803E+02  0.50503358596E+01  0.26040825994E+02  0.10500000000E+00 0.  1.
    3000001    1    5    5    0    0 -0.54245224124E+01 -0.62666874490E+01 -0.15442252643E+01  0.84900793078E+01  0.10000000000E+01 0.  1.
        -13    1    6    6    0    0 -0.11968030322E+02 -0.50172249529E+01 -0.32931922288E+01  0.13388892264E+02  0.10500000000E+00 0.  1.
         13    1    6    6    0    0 -0.36303210067E+02 -0.15180779795E+02 -0.10083520363E+02  0.40621023427E+02  0.10500000000E+00 0. -1.
</event>
<event>
11    0  0.3510903E-009  0.9118800E+02  0.7816531E-02  0.1126479E+00
         25   -1    0    0    0    0  0.00000000000E+00  0.00000000000E+00  0.99999998245E-14  0.12500000000E+03  0.12500000000E+03 0.  0.
    3000001    1    3    3    0    0  0.25682917205E+01 -0.44398248379E+01  0.27577561423E+00  0.52329933253E+01  0.10000000000E+01 0. -1.
    1000022    2    1    0    0    0  0.47489500540E+02 -0.33545586372E+02  0.20632274060E+02  0.62499998542E+02  0.10000002911E+02 0.  0.
    3000022    2    3    3    0    0  0.44921208820E+02 -0.29105761534E+02  0.20356498446E+02  0.57267005216E+02  0.25000234596E+00 0.  0.
    1000022    2    1    0    0    0 -0.47489500540E+02  0.33545586372E+02 -0.20632274060E+02  0.62500001458E+02  0.10000021139E+02 0.  0.
    3000022    2    5    5    0    0 -0.28333810526E+02  0.25757911959E+02 -0.13574669223E+02  0.40627687481E+02  0.24999625254E+00 0.  0.
        -13    1    4    4    0    0  0.14931807176E+02 -0.97351024029E+01  0.67973470784E+01  0.19077369751E+02  0.10500000000E+00 0. -1.
         13    1    4    4    0    0  0.29989401644E+02 -0.19370659131E+02  0.13559151368E+02  0.38189635465E+02  0.10500000000E+00 0.  1.
    3000001    1    5    5    0    0 -0.19155690014E+02  0.77876744129E+01 -0.70576048368E+01  0.21872313977E+02  0.10000000000E+01 0. -1.
        -13    1    6    6    0    0 -0.19892608125E+02  0.18026704892E+02 -0.95340657072E+01  0.28488372737E+02  0.10500000000E+00 0. -1.
         13    1    6    6    0    0 -0.84412024007E+01  0.77312070676E+01 -0.40406035163E+01  0.12139314745E+02  0.10500000000E+00 0.  1.
</event>
<event>
11    0  0.3510903E-009  0.9118800E+02  0.7816531E-02  0.1126479E+00
         25   -1    0    0    0    0  0.00000000000E+00  0.00000000000E+00  0.99999998245E-14  0.12500000000E+03  0.12500000000E+03 0.  0.
    3000001    1    3    3    0    0  0.24880473757E+02 -0.30330482586E+02 -0.28485185916E+02  0.48491050359E+02  0.10000000000E+01 0.  1.
    1000022    2    1    0    0    0  0.33755371872E+02 -0.34374444763E+02 -0.38538581243E+02  0.62499999066E+02  0.10000002806E+02 0.  0.
    3000022    2    3    3    0    0  0.88748981151E+01 -0.40439621764E+01 -0.10053395327E+02  0.14008948707E+02  0.24987924640E+00 0.  0.
    1000022    2    1    0    0    0 -0.33755371872E+02  0.34374444763E+02  0.38538581243E+02  0.62500000934E+02  0.10000014475E+02 0.  0.
    3000022    2    5    5    0    0 -0.27045475221E+02  0.23295597509E+02  0.32076168246E+02  0.47990474708E+02  0.25000029466E+00 0.  0.
        -13    1    4    4    0    0  0.42227568069E+01 -0.18602228514E+01 -0.47075420294E+01  0.65927294094E+01  0.10500000000E+00 0. -1.
         13    1    4    4    0    0  0.46521413081E+01 -0.21837393249E+01 -0.53458532978E+01  0.74162192977E+01  0.10500000000E+00 0.  1.
    3000001    1    5    5    0    0 -0.67098966510E+01  0.11078847254E+02  0.64624129973E+01  0.14509526226E+02  0.10000000000E+01 0. -1.
        -13    1    6    6    0    0 -0.17533944038E+02  0.15082085301E+02  0.20856451218E+02  0.31143395334E+02  0.10500000000E+00 0.  1.
         13    1    6    6    0    0 -0.95115311833E+01  0.82135122079E+01  0.11219717028E+02  0.16847079374E+02  0.10500000000E+00 0. -1.
</event>
<event>
11    0  0.3510903E-009  0.9118800E+02  0.7816531E-02  0.1126479E+00
         25   -1    0    0    0    0  0.00000000000E+00  0.00000000000E+00  0.99999998245E-14  0.12500000000E+03  0.12500000000E+03 0.  0.
    3000001    1    3    3    0    0  0.19907916120E+02 -0.18503642524E+02  0.27231089480E+01  0.27333591664E+02  0.10000000000E+01 0. -1.
    1000022    2    1    0    0    0  0.39073446265E+02 -0.45371021189E+02  0.14865594388E+02  0.62499996614E+02  0.99999956733E+01 0.  0.
    3000022    2    3    3    0    0  0.19165530145E+02 -0.26867378665E+02  0.12142485440E+02  0.35166404950E+02  0.25000477698E+00 0.  0.
    1000022    2    1    0    0    0 -0.39073446265E+02  0.45371021189E+02 -0.14865594388E+02  0.62500003386E+02  0.10000037996E+02 0.  0.
    3000022    2    5    5    0    0 -0.32451683663E+02  0.34728991162E+02 -0.80853722505E+01  0.48214627812E+02  0.24998178548E+00 0.  0.
        -13    1    4    4    0    0  0.86998035751E+01 -0.12205563197E+02  0.55857434865E+01  0.15996059218E+02  0.10500000000E+00 0.  1.
         13    1    4    4    0    0  0.10465726570E+02 -0.14661815468E+02  0.65567419533E+01  0.19170345732E+02  0.10500000000E+00 0. -1.
    3000001    1    5    5    0    0 -0.66217626020E+01  0.10642030027E+02 -0.67802221372E+01  0.14285375574E+02  0.10000000000E+01 0. -1.
        -13    1    6    6    0    0 -0.14363173075E+02  0.15455692553E+02 -0.36222510450E+01  0.21408197045E+02  0.10500000000E+00 0.  1.
         13    1    6    6    0    0 -0.18088510588E+02  0.19273298609E+02 -0.44631212056E+01  0.26806430767E+02  0.10500000000E+00 0. -1.
</event>
<event>
11    0  0.3510903E-009  0.9118800E+02  0.7816531E-02  0.1126479E+00
         25   -1    0    0    0    0  0.00000000000E+00  0.00000000000E+00  0.99999998245E-14  0.12500000000E+03  0.12500000000E+03 0.  0.
    3000001    1    3    3    0    0 -0.10697504099E+02 -0.21019713710E+02  0.21403990471E+02  0.31865275245E+02  0.10000000000E+01 0.  1.
    1000022    2    1    0    0    0 -0.23150791284E+02 -0.33024878819E+02  0.46686702624E+02  0.62500000347E+02  0.10000004169E+02 0.  0.
    3000022    2    3    3    0    0 -0.12453287186E+02 -0.12005165109E+02  0.25282712153E+02  0.30634725101E+02  0.24999443210E+00 0.  0.
    1000022    2    1    0    0    0  0.23150791284E+02  0.33024878819E+02 -0.46686702624E+02  0.62499999653E+02  0.99999998332E+01 0.  0.
    3000022    2    5    5    0    0  0.13567627025E+02  0.14261284199E+02 -0.28566886899E+02  0.34692855928E+02  0.24999042930E+00 0.  0.
        -13    1    4    4    0    0 -0.94119537561E+01 -0.90775663203E+01  0.19071740202E+02  0.23124216379E+02  0.10500000000E+00 0. -1.
         13    1    4    4    0    0 -0.30413334295E+01 -0.29275987890E+01  0.62109719505E+01  0.75105087224E+01  0.10500000000E+00 0.  1.
    3000001    1    5    5    0    0  0.95831642588E+01  0.18763594619E+02 -0.18119815725E+02  0.27807143725E+02  0.10000000000E+01 0. -1.
        -13    1    6    6    0    0  0.47427270549E+01  0.49046011728E+01 -0.99132539348E+01  0.12034625094E+02  0.10500000000E+00 0.  1.
         13    1    6    6    0    0  0.88248999706E+01  0.93566830266E+01 -0.18653632964E+02  0.22658230834E+02  0.10500000000E+00 0. -1.
</event>
<event>
11    0  0.3510903E-009  0.9118800E+02  0.7816531E-02  0.1126479E+00
         25   -1    0    0    0    0  0.00000000000E+00  0.00000000000E+00  0.99999998245E-14  0.12500000000E+03  0.12500000000E+03 0.  0.
    3000001    1    3    3    0    0 -0.34593174185E+01  0.41520103188E+02  0.39962247533E+02  0.57739649060E+02  0.10000000000E+01 0.  1.
    1000022    2    1    0    0    0 -0.46833692039E+01  0.46035651156E+02  0.40804840363E+02  0.62499999771E+02  0.99999924891E+01 0.  0.
    3000022    2    3    3    0    0 -0.12240517854E+01  0.45155479685E+01  0.84259283088E+00  0.47603507107E+01  0.24999996267E+00 0.  0.
    1000022    2    1    0    0    0  0.46833692039E+01 -0.46035651156E+02 -0.40804840363E+02  0.62500000229E+02  0.99999953559E+01 0.  0.
    3000022    2    5    5    0    0 -0.19493461459E+01 -0.48555019616E+01 -0.73247153010E+01  0.90049876133E+01  0.24999596023E+00 0.  0.
        -13    1    4    4    0    0 -0.83399045475E+00  0.31730985391E+01  0.62891760983E+00  0.33422532485E+01  0.10500000000E+00 0.  1.
         13    1    4    4    0    0 -0.39006133067E+00  0.13424494294E+01  0.21367522104E+00  0.14180974622E+01  0.10500000000E+00 0. -1.
    3000001    1    5    5    0    0  0.66327153498E+01 -0.41180149194E+02 -0.33480125063E+02  0.53495012616E+02  0.10000000000E+01 0.  1.
        -13    1    6    6    0    0 -0.88184938573E+00 -0.20656773157E+01 -0.32198613742E+01  0.39272399189E+01  0.10500000000E+00 0.  1.
         13    1    6    6    0    0 -0.10674967601E+01 -0.27898246459E+01 -0.41048539268E+01  0.50777476944E+01  0.10500000000E+00 0. -1.
</event>
<event>
11    0  0.3510903E-009  0.9118800E+02  0.7816531E-02  0.1126479E+00
         25   -1    0    0    0    0  0.00000000000E+00  0.00000000000E+00  0.99999998245E-14  0.12500000000E+03  0.12500000000E+03 0.  0.
    3000001    1    3    3    0    0 -0.24711612845E+02  0.15459839387E+02  0.38605954072E+02  0.48384813042E+02  0.10000000000E+01 0. -1.
    1000022    2    1    0    0    0 -0.35924224330E+02  0.18599415223E+02  0.46580695320E+02  0.62500002919E+02  0.10000052401E+02 0.  0.
    3000022    2    3    3    0    0 -0.11212611485E+02  0.31395758360E+01  0.79747412478E+01  0.14115189877E+02  0.24998910165E+00 0.  0.
    1000022    2    1    0    0    0  0.35924224330E+02 -0.18599415223E+02 -0.46580695320E+02  0.62499997081E+02  0.10000015912E+02 0.  0.
    3000022    2    5    5    0    0  0.15231471544E+02 -0.71264442362E+01 -0.12304728510E+02  0.20838732315E+02  0.24997586797E+00 0.  0.
        -13    1    4    4    0    0 -0.47676724341E+01  0.14008755288E+01  0.34219380745E+01  0.60343879451E+01  0.10500000000E+00 0. -1.
         13    1    4    4    0    0 -0.64449390511E+01  0.17387003072E+01  0.45528031733E+01  0.80808019321E+01  0.10500000000E+00 0.  1.
    3000001    1    5    5    0    0  0.20692752786E+02 -0.11472970987E+02 -0.34275966810E+02  0.41661264766E+02  0.10000000000E+01 0.  1.
        -13    1    6    6    0    0  0.57288421137E+01 -0.27409668509E+01 -0.46787736139E+01  0.78888832399E+01  0.10500000000E+00 0.  1.
         13    1    6    6    0    0  0.95026294307E+01 -0.43854773853E+01 -0.76259548962E+01  0.12949849075E+02  0.10500000000E+00 0. -1.
</event>
<event>
11    0  0.3510903E-009  0.9118800E+02  0.7816531E-02  0.1126479E+00
         25   -1    0    0    0    0  0.00000000000E+00  0.00000000000E+00  0.99999998245E-14  0.12500000000E+03  0.12500000000E+03 0.  0.
    3000001    1    3    3    0    0 -0.50024033546E+02 -0.30077368096E+02 -0.68125700952E+01  0.58774680902E+02  0.10000000000E+01 0.  1.
    1000022    2    1    0    0    0 -0.51822489616E+02 -0.32154126956E+02 -0.93161925096E+01  0.62499999893E+02  0.10000011672E+02 0.  0.
    3000022    2    3    3    0    0 -0.17984560701E+01 -0.20767588599E+01 -0.25036224144E+01  0.37253189914E+01  0.25000958984E+00 0.  0.
    1000022    2    1    0    0    0  0.51822489616E+02  0.32154126956E+02  0.93161925096E+01  0.62500000107E+02  0.10000013009E+02 0.  0.
    3000022    2    5    5    0    0  0.15866176609E+02  0.75830908727E+01  0.68336210341E+01  0.18867954310E+02  0.24999209110E+00 0.  0.
        -13    1    4    4    0    0 -0.11678710835E+01 -0.12862436250E+01 -0.15220079988E+01  0.23121156716E+01  0.10500000000E+00 0. -1.
         13    1    4    4    0    0 -0.63058498664E+00 -0.79051523497E+00 -0.98161441558E+00  0.14132033198E+01  0.10500000000E+00 0.  1.
    3000001    1    5    5    0    0  0.35956313007E+02  0.24571036083E+02  0.24825714755E+01  0.43632045796E+02  0.10000000000E+01 0.  1.
        -13    1    6    6    0    0  0.63623875749E+01  0.30581413508E+01  0.26776557533E+01  0.75506999349E+01  0.10500000000E+00 0. -1.
         13    1    6    6    0    0  0.95037890344E+01  0.45249495219E+01  0.41559652808E+01  0.11317254376E+02  0.10500000000E+00 0.  1.
</event>
<event>
11    0  0.3510903E-009  0.9118800E+02  0.7816531E-02  0.1126479E+00
         25   -1    0    0    0    0  0.00000000000E+00  0.00000000000E+00  0.99999998245E-14  0.12500000000E+03  0.12500000000E+03 0.  0.
    3000001    1    3    3    0    0 -0.11346000147E+02  0.23037394833E+02  0.25749925029E+01  0.25827966750E+02  0.10000000000E+01 0. -1.
    1000022    2    1    0    0    0 -0.24177131220E+02  0.54028082817E+02  0.17397771285E+02  0.62499998883E+02  0.10000000390E+02 0.  0.
    3000022    2    3    3    0    0 -0.12831131073E+02  0.30990687984E+02  0.14822778782E+02  0.36672032134E+02  0.25000729792E+00 0.  0.
    1000022    2    1    0    0    0  0.24177131220E+02 -0.54028082817E+02 -0.17397771285E+02  0.62500001117E+02  0.10000014349E+02 0.  0.
    3000022    2    5    5    0    0  0.96041407900E+01 -0.14777019847E+02 -0.89801951047E+01  0.19781462014E+02  0.24999880965E+00 0.  0.
        -13    1    4    4    0    0 -0.48119829646E+01  0.11494699161E+02  0.55446082186E+01  0.13639537901E+02  0.10500000000E+00 0.  1.
         13    1    4    4    0    0 -0.80191481079E+01  0.19495988823E+02  0.92781705638E+01  0.23032494233E+02  0.10500000000E+00 0. -1.
    3000001    1    5    5    0    0  0.14572990430E+02 -0.39251062970E+02 -0.84175761805E+01  0.42718539103E+02  0.10000000000E+01 0.  1.
        -13    1    6    6    0    0  0.59830694823E+01 -0.93142832559E+01 -0.56497162051E+01  0.12429131554E+02  0.10500000000E+00 0. -1.
         13    1    6    6    0    0  0.36210713077E+01 -0.54627365912E+01 -0.33304788997E+01  0.73523304592E+01  0.10500000000E+00 0.  1.
</event>
<event>
11    0  0.3510903E-009  0.9118800E+02  0.7816531E-02  0.1126479E+00
         25   -1    0    0    0    0  0.00000000000E+00  0.00000000000E+00  0.99999998245E-14  0.12500000000E+03  0.12500000000E+03 0.  0.
    3000001    1    3    3    0    0  0.70667491018E+01 -0.39310984398E+00 -0.17705901278E+02  0.19094303294E+02  0.10000000000E+01 0. -1.
    1000022    2    1    0    0    0  0.89486365332E+01 -0.44460622758E+01 -0.60880246498E+02  0.62499999975E+02  0.10000000878E+02 0.  0.
    3000022    2    3    3    0    0  0.18818874315E+01 -0.40529524318E+01 -0.43174345220E+02  0.43405696680E+02  0.24999079866E+00 0.  0.
    1000022    2    1    0    0    0 -0.89486365332E+01  0.44460622758E+01  0.60880246498E+02  0.62500000025E+02  0.10000001195E+02 0.  0.
    3000022    2    5    5    0    0 -0.94794030769E+01  0.24433690777E+01  0.57965115796E+02  0.58786446447E+02  0.25000287436E+00 0.  0.
        -13    1    4    4    0    0  0.82243531562E+00 -0.18695338213E+01 -0.20245895586E+02  0.20348927973E+02  0.10500000000E+00 0. -1.
         13    1    4    4    0    0  0.10594521158E+01 -0.21834186105E+01 -0.22928449634E+02  0.23056768708E+02  0.10500000000E+00 0.  1.
    3000001    1    5    5    0    0  0.53076654365E+00  0.20026931981E+01  0.29151307022E+01  0.37135535785E+01  0.10000000000E+01 0.  1.
        -13    1    6    6    0    0 -0.40070657683E+01  0.10945975353E+01  0.24441765160E+02  0.24792451048E+02  0.10500000000E+00 0. -1.
         13    1    6    6    0    0 -0.54723373086E+01  0.13487715424E+01  0.33523350636E+02  0.33993995399E+02  0.10500000000E+00 0.  1.
</event>
<event>
11    0  0.3510903E-009  0.9118800E+02  0.7816531E-02  0.1126479E+00
         25   -1    0    0    0    0  0.00000000000E+00  0.00000000000E+00  0.99999998245E-14  0.12500000000E+03  0.12500000000E+03 0.  0.
    3000001    1    3    3    0    0 -0.56410235615E+01 -0.22237175853E+02  0.16955570617E+02  0.28544780813E+02  0.10000000000E+01 0. -1.
    1000022    2    1    0    0    0 -0.21231275598E+02 -0.48922498037E+02  0.31017290890E+02  0.62499998160E+02  0.99999779093E+01 0.  0.
    3000022    2    3    3    0    0 -0.15590252037E+02 -0.26685322184E+02  0.14061720274E+02  0.33955217347E+02  0.24985879317E+00 0.  0.
    1000022    2    1    0    0    0  0.21231275598E+02  0.48922498037E+02 -0.31017290890E+02  0.62500001840E+02  0.10000000904E+02 0.  0.
    3000022    2    5    5    0    0  0.90858835614E+01  0.23382988195E+02 -0.90266725378E+01  0.26661971673E+02  0.24999874489E+00 0.  0.
        -13    1    4    4    0    0 -0.37648110984E+01 -0.64830009938E+01  0.34026690965E+01  0.82336071362E+01  0.10500000000E+00 0.  1.
         13    1    4    4    0    0 -0.11825440938E+02 -0.20202321190E+02  0.10659051177E+02  0.25721610211E+02  0.10500000000E+00 0. -1.
    3000001    1    5    5    0    0  0.12145392037E+02  0.25539509842E+02 -0.21990618353E+02  0.35838030167E+02  0.10000000000E+01 0.  1.
        -13    1    6    6    0    0  0.46821482017E+01  0.12145814875E+02 -0.47455057532E+01  0.13855474752E+02  0.10500000000E+00 0.  1.
         13    1    6    6    0    0  0.44037353597E+01  0.11237173320E+02 -0.42811667845E+01  0.12806496921E+02  0.10500000000E+00 0. -1.
</event>
<event>
11    0  0.3510903E-009  0.9118800E+02  0.7816531E-02  0.1126479E+00
         25   -1    0    0    0    0  0.00000000000E+00  0.00000000000E+00  0.99999998245E-14  0.12500000000E+03  0.12500000000E+03 0.  0.
    3000001    1    3    3    0    0  0.26637806979E+02 -0.51141467632E+02  0.12165529378E+02  0.58940839638E+02  0.10000000000E+01 0. -1.
    1000022    2    1    0    0    0  0.27326353379E+02 -0.54277807624E+02  0.10650793112E+02  0.62500004183E+02  0.10000056972E+02 0.  0.
    3000022    2    3    3    0    0  0.68854640019E+00 -0.31363399927E+01 -0.15147362656E+01  0.35591645451E+01  0.25000322055E+00 0.  0.
    1000022    2    1    0    0    0 -0.27326353379E+02  0.54277807624E+02 -0.10650793112E+02  0.62499995817E+02  0.10000004682E+02 0.  0.
    3000022    2    5    5    0    0 -0.10239638186E+02  0.24219357362E+02  0.37837659003E-01  0.26296223968E+02  0.25000420566E+00 0.  0.
        -13    1    4    4    0    0  0.53176809270E+00 -0.23964577545E+01 -0.11721187198E+01  0.27222553824E+01  0.10500000000E+00 0.  1.
         13    1    4    4    0    0  0.15677830749E+00 -0.73988223817E+00 -0.34261754577E+00  0.83690916277E+00  0.10500000000E+00 0. -1.
    3000001    1    5    5    0    0 -0.17086715193E+02  0.30058450263E+02 -0.10688630771E+02  0.36203771849E+02  0.10000000000E+01 0. -1.
        -13    1    6    6    0    0 -0.56884268003E+01  0.13335059329E+02  0.68500570057E-01  0.14498197271E+02  0.10500000000E+00 0.  1.
         13    1    6    6    0    0 -0.45512113857E+01  0.10884298033E+02 -0.30662911055E-01  0.11798026698E+02  0.10500000000E+00 0. -1.
</event>
<event>
11    0  0.3510903E-009  0.9118800E+02  0.7816531E-02  0.1126479E+00
         25   -1    0    0    0    0  0.00000000000E+00  0.00000000000E+00  0.99999998245E-14  0.12500000000E+03  0.12500000000E+03 0.  0.
    3000001    1    3    3    0    0 -0.41650357231E+01  0.51366297852E+01 -0.12812156557E+02  0.14452814390E+02  0.10000000000E+01 0.  1.
    1000022    2    1    0    0    0 -0.33234173170E+02  0.14800798005E+02 -0.49826459771E+02  0.62499999847E+02  0.99999999861E+01 0.  0.
    3000022    2    3    3    0    0 -0.29069137447E+02  0.96641682199E+01 -0.37014303213E+02  0.48047185458E+02  0.24997747752E+00 0.  0.
    1000022    2    1    0    0    0  0.33234173170E+02 -0.14800798005E+02  0.49826459771E+02  0.62500000153E+02  0.10000001897E+02 0.  0.
    3000022    2    5    5    0    0  0.10418022110E+02 -0.79602099519E+01  0.24022188408E+02  0.27368378860E+02  0.24999670512E+00 0.  0.
        -13    1    4    4    0    0 -0.10901604793E+02  0.35631142463E+01 -0.13882592318E+02  0.18007725138E+02  0.10500000000E+00 0. -1.
         13    1    4    4    0    0 -0.18167532655E+02  0.61010539736E+01 -0.23131710895E+02  0.30039460320E+02  0.10500000000E+00 0.  1.
    3000001    1    5    5    0    0  0.22816151060E+02 -0.68405880532E+01  0.25804271363E+02  0.35131621293E+02  0.10000000000E+01 0.  1.
        -13    1    6    6    0    0  0.68393714164E+01 -0.52946110149E+01  0.15836254609E+02  0.18044608397E+02  0.10500000000E+00 0.  1.
         13    1    6    6    0    0  0.35786506938E+01 -0.26655989370E+01  0.81859337986E+01  0.93237704624E+01  0.10500000000E+00 0. -1.
</event>
<event>
11    0  0.3510903E-009  0.9118800E+02  0.7816531E-02  0.1126479E+00
         25   -1    0    0    0    0  0.00000000000E+00  0.00000000000E+00  0.99999998245E-14  0.12500000000E+03  0.12500000000E+03 0.  0.
    3000001    1    3    3    0    0  0.23601935799E+02  0.26731368378E+01  0.23443549405E+02  0.33388576531E+02  0.10000000000E+01 0.  1.
    1000022    2    1    0    0    0  0.45422276697E+02  0.13118574843E+02  0.39635462976E+02  0.62500000857E+02  0.99999977807E+01 0.  0.
    3000022    2    3    3    0    0  0.21820340898E+02  0.10445438005E+02  0.16191913570E+02  0.29111424327E+02  0.25001847490E+00 0.  0.
    1000022    2    1    0    0    0 -0.45422276697E+02 -0.13118574843E+02 -0.39635462976E+02  0.62499999143E+02  0.99999870627E+01 0.  0.
    3000022    2    5    5    0    0 -0.26283909602E+02 -0.12393989145E+02 -0.25687243776E+02  0.38785975057E+02  0.24999477560E+00 0.  0.
        -13    1    4    4    0    0  0.50954767204E+01  0.24528047402E+01  0.37911219620E+01  0.68090942740E+01  0.10500000000E+00 0. -1.
         13    1    4    4    0    0  0.16724864177E+02  0.79926332653E+01  0.12400791608E+02  0.22302330053E+02  0.10500000000E+00 0.  1.
    3000001    1    5    5    0    0 -0.19138367095E+02 -0.72458569795E+00 -0.13948219199E+02  0.23714024086E+02  0.10000000000E+01 0. -1.
        -13    1    6    6    0    0 -0.10242861202E+02 -0.47697824120E+01 -0.10027132147E+02  0.15106999502E+02  0.10500000000E+00 0. -1.
         13    1    6    6    0    0 -0.16041048400E+02 -0.76242067333E+01 -0.15660111629E+02  0.23678975555E+02  0.10500000000E+00 0.  1.
</event>
<event>
11    0  0.3510903E-009  0.9118800E+02  0.7816531E-02  0.1126479E+00
         25   -1    0    0    0    0  0.00000000000E+00  0.00000000000E+00  0.99999998245E-14  0.12500000000E+03  0.12500000000E+03 0.  0.
    3000001    1    3    3    0    0 -0.38512558325E+01 -0.97160406550E+01 -0.36924658141E+01  0.11129596636E+02  0.10000000000E+01 0. -1.
    1000022    2    1    0    0    0 -0.26149608573E+02 -0.42046307609E+02 -0.36804293297E+02  0.62499999758E+02  0.99999976305E+01 0.  0.
    3000022    2    3    3    0    0 -0.22298352740E+02 -0.32330266954E+02 -0.33111827483E+02  0.51370403122E+02  0.25000279930E+00 0.  0.
    1000022    2    1    0    0    0  0.26149608573E+02  0.42046307609E+02  0.36804293297E+02  0.62500000242E+02  0.10000000654E+02 0.  0.
    3000022    2    5    5    0    0  0.86492363323E+01  0.96977000889E+01  0.52047282030E+01  0.14000227550E+02  0.24999927231E+00 0.  0.
        -13    1    4    4    0    0 -0.12546560120E+02 -0.18232095459E+02 -0.18739976299E+02  0.29000400210E+02  0.10500000000E+00 0. -1.
         13    1    4    4    0    0 -0.97517926200E+01 -0.14098171496E+02 -0.14371851184E+02  0.22370002912E+02  0.10500000000E+00 0.  1.
    3000001    1    5    5    0    0  0.17500372240E+02  0.32348607520E+02  0.31599565094E+02  0.48499772692E+02  0.10000000000E+01 0. -1.
        -13    1    6    6    0    0  0.26539218814E+01  0.30105248184E+01  0.16532270872E+01  0.43417445614E+01  0.10500000000E+00 0. -1.
         13    1    6    6    0    0  0.59953144509E+01  0.66871752705E+01  0.35515011158E+01  0.96584829885E+01  0.10500000000E+00 0.  1.
</event>
<event>
11    0  0.3510903E-009  0.9118800E+02  0.7816531E-02  0.1126479E+00
         25   -1    0    0    0    0  0.00000000000E+00  0.00000000000E+00  0.99999998245E-14  0.12500000000E+03  0.12500000000E+03 0.  0.
    3000001    1    3    3    0    0 -0.24457307300E+02 -0.11357855151E+02 -0.52935226130E+02  0.59416318629E+02  0.10000000000E+01 0.  1.
    1000022    2    1    0    0    0 -0.24499896904E+02 -0.13684531782E+02 -0.54943050893E+02  0.62500001194E+02  0.99999974735E+01 0.  0.
    3000022    2    3    3    0    0 -0.42589603837E-01 -0.23266766310E+01 -0.20078247625E+01  0.30836825648E+01  0.24999972797E+00 0.  0.
    1000022    2    1    0    0    0  0.24499896904E+02  0.13684531782E+02  0.54943050893E+02  0.62499998806E+02  0.99999825468E+01 0.  0.
    3000022    2    5    5    0    0  0.20986721550E+02  0.99148004215E+01  0.50661777645E+02  0.55726330950E+02  0.24999647166E+00 0.  0.
        -13    1    4    4    0    0 -0.81624345549E-01 -0.14821527728E+01 -0.13051292102E+01  0.19793500526E+01  0.10500000000E+00 0. -1.
         13    1    4    4    0    0  0.39034741712E-01 -0.84452385821E+00 -0.70269555229E+00  0.11043325121E+01  0.10500000000E+00 0.  1.
    3000001    1    5    5    0    0  0.35131753532E+01  0.37697313602E+01  0.42812732483E+01  0.67736678556E+01  0.10000000000E+01 0. -1.
        -13    1    6    6    0    0  0.67985448413E+01  0.32244139792E+01  0.16545340903E+02  0.18176258913E+02  0.10500000000E+00 0. -1.
         13    1    6    6    0    0  0.14188176709E+02  0.66903864423E+01  0.34116436741E+02  0.37550072037E+02  0.10500000000E+00 0.  1.
</event>
<event>
11    0  0.3510903E-009  0.9118800E+02  0.7816531E-02  0.1126479E+00
         25   -1    0    0    0    0  0.00000000000E+00  0.00000000000E+00  0.99999998245E-14  0.12500000000E+03  0.12500000000E+03 0.  0.
    3000001    1    3    3    0    0 -0.21404398013E+01 -0.51576166562E+00 -0.38170575614E+01  0.45185640491E+01  0.10000000000E+01 0.  1.
    1000022    2    1    0    0    0 -0.29421901344E+01  0.11106971974E+02 -0.60615417613E+02  0.62500000327E+02  0.99999939629E+01 0.  0.
    3000022    2    3    3    0    0 -0.80175033318E+00  0.11622733640E+02 -0.56798360052E+02  0.57981436278E+02  0.25001488515E+00 0.  0.
    1000022    2    1    0    0    0  0.29421901344E+01 -0.11106971974E+02  0.60615417613E+02  0.62499999673E+02  0.99999898696E+01 0.  0.
    3000022    2    5    5    0    0 -0.34435413156E+01 -0.61621327876E+01  0.30150770900E+02  0.30967100977E+02  0.24999960996E+00 0.  0.
        -13    1    4    4    0    0 -0.62599086190E+00  0.86401304085E+01 -0.42222196326E+02  0.43101839933E+02  0.10500000000E+00 0. -1.
         13    1    4    4    0    0 -0.17575947128E+00  0.29826032314E+01 -0.14576163726E+02  0.14879596345E+02  0.10500000000E+00 0.  1.
    3000001    1    5    5    0    0  0.63857314501E+01 -0.49448391867E+01  0.30464646714E+02  0.31532898695E+02  0.10000000000E+01 0. -1.
        -13    1    6    6    0    0 -0.18106494009E+01 -0.33646136636E+01  0.16191822844E+02  0.16636863538E+02  0.10500000000E+00 0.  1.
         13    1    6    6    0    0 -0.16328919147E+01 -0.27975191239E+01  0.13958948056E+02  0.14330237440E+02  0.10500000000E+00 0. -1.
</event>
<event>
11    0  0.3510903E-009  0.9118800E+02  0.7816531E-02  0.1126479E+00
         25   -1    0    0    0    0  0.00000000000E+00  0.00000000000E+00  0.99999998245E-14  0.12500000000E+03  0.12500000000E+03 0.  0.
    3000001    1    3    3    0    0 -0.26229923060E+02  0.14341503781E+01  0.82912911659E+01  0.27564672323E+02  0.10000000000E+01 0.  1.
    1000022    2    1    0    0    0 -0.60936787765E+02  0.54033393339E+01  0.79850981821E+01  0.62500000314E+02  0.10000003357E+02 0.  0.
    3000022    2    3    3    0    0 -0.34706864705E+02  0.39691889558E+01 -0.30619298386E+00  0.34935327991E+02  0.24993816930E+00 0.  0.
    1000022    2    1    0    0    0  0.60936787765E+02 -0.54033393339E+01 -0.79850981821E+01  0.62499999686E+02  0.99999994375E+01 0.  0.
    3000022    2    5    5    0    0  0.60410272483E+02 -0.45782614284E+01 -0.79163143911E+01  0.61099034626E+02  0.24999885025E+00 0.  0.
        -13    1    4    4    0    0 -0.11203142034E+02  0.12692467781E+01 -0.14871123157E+00  0.11276281251E+02  0.10500000000E+00 0. -1.
         13    1    4    4    0    0 -0.23503722670E+02  0.26999421777E+01 -0.15748175228E+00  0.23659046740E+02  0.10500000000E+00 0.  1.
    3000001    1    5    5    0    0  0.52651528181E+00 -0.82507790548E+00 -0.68783790967E-01  0.14009650609E+01  0.10000000000E+01 0. -1.
        -13    1    6    6    0    0  0.43886724557E+02 -0.33260944569E+01 -0.57886533050E+01  0.44391745052E+02  0.10500000000E+00 0. -1.
         13    1    6    6    0    0  0.16523547926E+02 -0.12521669715E+01 -0.21276610861E+01  0.16707289574E+02  0.10500000000E+00 0.  1.
</event>
<event>
11    0  0.3510903E-009  0.9118800E+02  0.7816531E-02  0.1126479E+00
         25   -1    0    0    0    0  0.00000000000E+00  0.00000000000E+00  0.99999998245E-14  0.12500000000E+03  0.12500000000E+03 0.  0.
    3000001    1    3    3    0    0 -0.37649622565E+02  0.13772419946E+02  0.35967786977E+02  0.53868871628E+02  0.10000000000E+01 0.  1.
    1000022    2    1    0    0    0 -0.45673352089E+02  0.15924636552E+02  0.38296226829E+02  0.62500001231E+02  0.10000001211E+02 0.  0.
    3000022    2    3    3    0    0 -0.80237295241E+01  0.21522166058E+01  0.23284398523E+01  0.86311296034E+01  0.24998858380E+00 0.  0.
    1000022    2    1    0    0    0  0.45673352089E+02 -0.15924636552E+02 -0.38296226829E+02  0.62499998769E+02  0.99999858198E+01 0.  0.
    3000022    2    5    5    0    0  0.27861547635E+02 -0.14541802837E+02 -0.25990617496E+02  0.40783631023E+02  0.24999050408E+00 0.  0.
        -13    1    4    4    0    0 -0.45397388848E+01  0.12855941245E+01  0.13255628121E+01  0.49020529540E+01  0.10500000000E+00 0.  1.
         13    1    4    4    0    0 -0.34839906393E+01  0.86662248131E+00  0.10028770402E+01  0.37290766495E+01  0.10500000000E+00 0. -1.
    3000001    1    5    5    0    0  0.17811804454E+02 -0.13828337145E+01 -0.12305609333E+02  0.21716367745E+02  0.10000000000E+01 0.  1.
        -13    1    6    6    0    0  0.75795715451E+01 -0.39335137519E+01 -0.71022368614E+01  0.11107440240E+02  0.10500000000E+00 0. -1.
         13    1    6    6    0    0  0.20281976090E+02 -0.10608289086E+02 -0.18888380635E+02  0.29676190784E+02  0.10500000000E+00 0.  1.
</event>
<event>
11    0  0.3510903E-009  0.9118800E+02  0.7816531E-02  0.1126479E+00
         25   -1    0    0    0    0  0.00000000000E+00  0.00000000000E+00  0.99999998245E-14  0.12500000000E+03  0.12500000000E+03 0.  0.
    3000001    1    3    3    0    0 -0.26452027474E+00 -0.18565992428E+02 -0.87144415244E+01  0.20535518910E+02  0.10000000000E+01 0. -1.
    1000022    2    1    0    0    0 -0.10058826163E+02 -0.58687209628E+02 -0.16151825586E+02  0.62499999996E+02  0.99999986077E+01 0.  0.
    3000022    2    3    3    0    0 -0.97943058879E+01 -0.40121217200E+02 -0.74373840613E+01  0.41964481087E+02  0.24998757735E+00 0.  0.
    1000022    2    1    0    0    0  0.10058826163E+02  0.58687209628E+02  0.16151825586E+02  0.62500000004E+02  0.99999986520E+01 0.  0.
    3000022    2    5    5    0    0  0.38397373066E+01  0.68770885417E+01  0.43092971930E+01  0.89816742462E+01  0.25000114492E+00 0.  0.
        -13    1    4    4    0    0 -0.54721024929E+01 -0.22358205806E+02 -0.40792905197E+01  0.23377016677E+02  0.10500000000E+00 0.  1.
         13    1    4    4    0    0 -0.43222033949E+01 -0.17763011394E+02 -0.33580935416E+01  0.18587464410E+02  0.10500000000E+00 0. -1.
    3000001    1    5    5    0    0  0.62190888560E+01  0.51810121086E+02  0.11842528393E+02  0.53518325757E+02  0.10000000000E+01 0. -1.
        -13    1    6    6    0    0  0.14219586441E+01  0.25222982428E+01  0.15186317028E+01  0.32712722387E+01  0.10500000000E+00 0. -1.
         13    1    6    6    0    0  0.24177786625E+01  0.43547902990E+01  0.27906654902E+01  0.57104020075E+01  0.10500000000E+00 0.  1.
</event>
<event>
11    0  0.3510903E-009  0.9118800E+02  0.7816531E-02  0.1126479E+00
         25   -1    0    0    0    0  0.00000000000E+00  0.00000000000E+00  0.99999998245E-14  0.12500000000E+03  0.12500000000E+03 0.  0.
    3000001    1    3    3    0    0 -0.12595474876E+01 -0.23782751801E+01  0.45811436527E+00  0.29073220457E+01  0.10000000000E+01 0. -1.
    1000022    2    1    0    0    0  0.10705502339E+02 -0.56593078088E+02  0.22110308776E+02  0.62500000246E+02  0.10000000443E+02 0.  0.
    3000022    2    3    3    0    0  0.11965049827E+02 -0.54214802907E+02  0.21652194410E+02  0.59592678200E+02  0.25000132730E+00 0.  0.
    1000022    2    1    0    0    0 -0.10705502339E+02  0.56593078088E+02 -0.22110308776E+02  0.62499999754E+02  0.99999973655E+01 0.  0.
    3000022    2    5    5    0    0 -0.12537981092E+02  0.47378535874E+02 -0.18603913101E+02  0.52422272966E+02  0.24997763991E+00 0.  0.
        -13    1    4    4    0    0  0.32593909272E+01 -0.14669248645E+02  0.58918908822E+01  0.16141124130E+02  0.10500000000E+00 0. -1.
         13    1    4    4    0    0  0.87056588996E+01 -0.39545554263E+02  0.15760303528E+02  0.43451554070E+02  0.10500000000E+00 0.  1.
    3000001    1    5    5    0    0  0.18324787526E+01  0.92145422133E+01 -0.35063956750E+01  0.10077726788E+02  0.10000000000E+01 0. -1.
        -13    1    6    6    0    0 -0.68595899770E+01  0.26075283831E+02 -0.10292302713E+02  0.28860300097E+02  0.10500000000E+00 0. -1.
         13    1    6    6    0    0 -0.56783911147E+01  0.21303252043E+02 -0.83116103873E+01  0.23561972869E+02  0.10500000000E+00 0.  1.
</event>
<event>
11    0  0.3510903E-009  0.9118800E+02  0.7816531E-02  0.1126479E+00
         25   -1    0    0    0    0  0.00000000000E+00  0.00000000000E+00  0.99999998245E-14  0.12500000000E+03  0.12500000000E+03 0.  0.
    3000001    1    3    3    0    0 -0.33674996618E+02 -0.79292176117E+01  0.31007973572E+00  0.34611761564E+02  0.10000000000E+01 0.  1.
    1000022    2    1    0    0    0 -0.60268434513E+02 -0.10167698455E+02  0.84014088573E+01  0.62499999931E+02  0.10000001500E+02 0.  0.
    3000022    2    3    3    0    0 -0.26593437895E+02 -0.22384808438E+01  0.80913291216E+01  0.27888238366E+02  0.24999328241E+00 0.  0.
    1000022    2    1    0    0    0  0.60268434513E+02  0.10167698455E+02 -0.84014088573E+01  0.62500000069E+02  0.10000002367E+02 0.  0.
    3000022    2    5    5    0    0  0.41721453913E+02  0.60552162465E+01 -0.10247601827E+02  0.43386878195E+02  0.24999183418E+00 0.  0.
        -13    1    4    4    0    0 -0.12278004846E+02 -0.10942319922E+01  0.37676549107E+01  0.12890034723E+02  0.10500000000E+00 0.  1.
         13    1    4    4    0    0 -0.14315433050E+02 -0.11442488515E+01  0.43236742109E+01  0.14998203643E+02  0.10500000000E+00 0. -1.
    3000001    1    5    5    0    0  0.18546980600E+02  0.41124822089E+01  0.18461929693E+01  0.19113121874E+02  0.10000000000E+01 0. -1.
        -13    1    6    6    0    0  0.19767529581E+02  0.29070849496E+01 -0.49142254388E+01  0.20575884071E+02  0.10500000000E+00 0.  1.
         13    1    6    6    0    0  0.21953924332E+02  0.31481312969E+01 -0.53333763878E+01  0.22810994124E+02  0.10500000000E+00 0. -1.
</event>
<event>
11    0  0.3510903E-009  0.9118800E+02  0.7816531E-02  0.1126479E+00
         25   -1    0    0    0    0  0.00000000000E+00  0.00000000000E+00  0.99999998245E-14  0.12500000000E+03  0.12500000000E+03 0.  0.
    3000001    1    3    3    0    0  0.78441098288E+00 -0.12925622318E+02  0.65409652601E+01  0.14542050730E+02  0.10000000000E+01 0. -1.
    1000022    2    1    0    0    0  0.14368061600E+02 -0.46117998029E+02  0.38378887045E+02  0.62500002433E+02  0.10000019849E+02 0.  0.
    3000022    2    3    3    0    0  0.13583650617E+02 -0.33192375711E+02  0.31837921784E+02  0.47957951703E+02  0.24999712505E+00 0.  0.
    1000022    2    1    0    0    0 -0.14368061600E+02  0.46117998029E+02 -0.38378887045E+02  0.62499997567E+02  0.99999894334E+01 0.  0.
    3000022    2    5    5    0    0 -0.70803592469E+01  0.14761450975E+02 -0.79912592816E+01  0.18219623022E+02  0.25003239929E+00 0.  0.
        -13    1    4    4    0    0  0.55742026542E+01 -0.13454092572E+02  0.12938394446E+02  0.19480693469E+02  0.10500000000E+00 0.  1.
         13    1    4    4    0    0  0.80094479630E+01 -0.19738283139E+02  0.18899527338E+02  0.28477258235E+02  0.10500000000E+00 0. -1.
    3000001    1    5    5    0    0 -0.72877023532E+01  0.31356547054E+02 -0.30387627763E+02  0.44280374545E+02  0.10000000000E+01 0. -1.
        -13    1    6    6    0    0 -0.16342836883E+01  0.33989352471E+01 -0.18490223587E+01  0.42016131034E+01  0.10500000000E+00 0.  1.
         13    1    6    6    0    0 -0.54460755586E+01  0.11362515728E+02 -0.61422369229E+01  0.14018009919E+02  0.10500000000E+00 0. -1.
</event>
<event>
11    0  0.3510903E-009  0.9118800E+02  0.7816531E-02  0.1126479E+00
         25   -1    0    0    0    0  0.00000000000E+00  0.00000000000E+00  0.99999998245E-14  0.12500000000E+03  0.12500000000E+03 0.  0.
    3000001    1    3    3    0    0 -0.14471695855E+02  0.17731180071E+02  0.15944249534E+02  0.27911356485E+02  0.10000000000E+01 0.  1.
    1000022    2    1    0    0    0 -0.40787261430E+02  0.34111304482E+02  0.31290068670E+02  0.62499998110E+02  0.99999788970E+01 0.  0.
    3000022    2    3    3    0    0 -0.26315565575E+02  0.16380124411E+02  0.15345819136E+02  0.34588641625E+02  0.24999450100E+00 0.  0.
    1000022    2    1    0    0    0  0.40787261430E+02 -0.34111304482E+02 -0.31290068670E+02  0.62500001890E+02  0.10000002522E+02 0.  0.
    3000022    2    5    5    0    0  0.12361646371E+02 -0.84062710632E+01 -0.41122707929E+01  0.15506416881E+02  0.24999844995E+00 0.  0.
        -13    1    4    4    0    0 -0.17621301574E+02  0.10910172269E+02  0.10282160824E+02  0.23136032164E+02  0.10500000000E+00 0.  1.
         13    1    4    4    0    0 -0.86942640013E+01  0.54699521416E+01  0.50636583121E+01  0.11452609461E+02  0.10500000000E+00 0. -1.
    3000001    1    5    5    0    0  0.28425615060E+02 -0.25705033419E+02 -0.27177797877E+02  0.46993585009E+02  0.10000000000E+01 0. -1.
        -13    1    6    6    0    0  0.31902937917E+01 -0.21332445832E+01 -0.10540637857E+01  0.39813041072E+01  0.10500000000E+00 0. -1.
         13    1    6    6    0    0  0.91713525792E+01 -0.62730264800E+01 -0.30582070072E+01  0.11525112774E+02  0.10500000000E+00 0.  1.
</event>
<event>
11    0  0.3510903E-009  0.9118800E+02  0.7816531E-02  0.1126479E+00
         25   -1    0    0    0    0  0.00000000000E+00  0.00000000000E+00  0.99999998245E-14  0.12500000000E+03  0.12500000000E+03 0.  0.
    3000001    1    3    3    0    0  0.19830353626E+02 -0.22344542040E+02  0.16904171651E+02  0.34340537315E+02  0.10000000000E+01 0. -1.
    1000022    2    1    0    0    0  0.37099060841E+02 -0.43881895776E+02  0.22456377651E+02  0.62500000074E+02  0.10000000989E+02 0.  0.
    3000022    2    3    3    0    0  0.17268707216E+02 -0.21537353737E+02  0.55522060004E+01  0.28159462759E+02  0.24999303648E+00 0.  0.
    1000022    2    1    0    0    0 -0.37099060841E+02  0.43881895776E+02 -0.22456377651E+02  0.62499999926E+02  0.10000000065E+02 0.  0.
    3000022    2    5    5    0    0 -0.34069548015E+02  0.34991484980E+02 -0.19683866023E+02  0.52656008214E+02  0.24999282857E+00 0.  0.
        -13    1    4    4    0    0  0.54975653569E+01 -0.69104546507E+01  0.18147257586E+01  0.90156454517E+01  0.10500000000E+00 0.  1.
         13    1    4    4    0    0  0.11771141859E+02 -0.14626899086E+02  0.37374802417E+01  0.19143817307E+02  0.10500000000E+00 0. -1.
    3000001    1    5    5    0    0 -0.30295128267E+01  0.88904107961E+01 -0.27725116283E+01  0.98439917117E+01  0.10000000000E+01 0.  1.
        -13    1    6    6    0    0 -0.25514814478E+02  0.26213491843E+02 -0.14715238777E+02  0.39429712016E+02  0.10500000000E+00 0.  1.
         13    1    6    6    0    0 -0.85547335363E+01  0.87779931377E+01 -0.49686272463E+01  0.13226296198E+02  0.10500000000E+00 0. -1.
</event>
<event>
11    0  0.3510903E-009  0.9118800E+02  0.7816531E-02  0.1126479E+00
         25   -1    0    0    0    0  0.00000000000E+00  0.00000000000E+00  0.99999998245E-14  0.12500000000E+03  0.12500000000E+03 0.  0.
    3000001    1    3    3    0    0  0.49759032197E+01 -0.25126316709E+02 -0.25909810666E+02  0.36447355089E+02  0.10000000000E+01 0. -1.
    1000022    2    1    0    0    0  0.15082567007E+02 -0.44897433568E+02 -0.39534642550E+02  0.62499999078E+02  0.99999277342E+01 0.  0.
    3000022    2    3    3    0    0  0.10106663788E+02 -0.19771116859E+02 -0.13624831884E+02  0.26052643990E+02  0.25000040079E+00 0.  0.
    1000022    2    1    0    0    0 -0.15082567007E+02  0.44897433568E+02  0.39534642550E+02  0.62500000922E+02  0.99999392572E+01 0.  0.
    3000022    2    5    5    0    0 -0.34161933096E+01  0.25585070809E+02  0.20479464152E+02  0.32950526233E+02  0.25000413557E+00 0.  0.
        -13    1    4    4    0    0  0.30595497587E+01 -0.60799371722E+01 -0.42002087155E+01  0.79987035823E+01  0.10500000000E+00 0. -1.
         13    1    4    4    0    0  0.70471140290E+01 -0.13691179687E+02 -0.94246231681E+01  0.18053940407E+02  0.10500000000E+00 0.  1.
    3000001    1    5    5    0    0 -0.11666373698E+02  0.19312362759E+02  0.19055178398E+02  0.29549474689E+02  0.10000000000E+01 0. -1.
        -13    1    6    6    0    0 -0.18851897505E+01  0.14226243211E+02  0.11468477597E+02  0.18370545438E+02  0.10500000000E+00 0.  1.
         13    1    6    6    0    0 -0.15310035591E+01  0.11358827597E+02  0.90109865551E+01  0.14579980795E+02  0.10500000000E+00 0. -1.
</event>
<event>
11    0  0.3510903E-009  0.9118800E+02  0.7816531E-02  0.1126479E+00
         25   -1    0    0    0    0  0.00000000000E+00  0.00000000000E+00  0.99999998245E-14  0.12500000000E+03  0.12500000000E+03 0.  0.
    3000001    1    3    3    0    0  0.15673766385E+02 -0.18682389968E+02  0.15136989514E+02  0.28719803258E+02  0.10000000000E+01 0. -1.
    1000022    2    1    0    0    0  0.28105572850E+02 -0.47597787290E+02  0.27400316192E+02  0.62500000074E+02  0.10000005084E+02 0.  0.
    3000022    2    3    3    0    0  0.12431806465E+02 -0.28915397321E+02  0.12263326678E+02  0.33780196816E+02  0.25000295502E+00 0.  0.
    1000022    2    1    0    0    0 -0.28105572850E+02  0.47597787290E+02 -0.27400316192E+02  0.62499999926E+02  0.10000004165E+02 0.  0.
    3000022    2    5    5    0    0 -0.15376786279E+02  0.35000754353E+02 -0.19110037088E+02  0.42740547151E+02  0.24998337667E+00 0.  0.
        -13    1    4    4    0    0  0.51940638234E+01 -0.11952846517E+02  0.50352488659E+01  0.13971885879E+02  0.10500000000E+00 0. -1.
         13    1    4    4    0    0  0.72377426415E+01 -0.16962550804E+02  0.72280778122E+01  0.19808310937E+02  0.10500000000E+00 0.  1.
    3000001    1    5    5    0    0 -0.12728786571E+02  0.12597032937E+02 -0.82902791037E+01  0.19759452776E+02  0.10000000000E+01 0. -1.
        -13    1    6    6    0    0 -0.66522727331E+01  0.15198150756E+02 -0.82240698244E+01  0.18517096651E+02  0.10500000000E+00 0. -1.
         13    1    6    6    0    0 -0.87245135458E+01  0.19802603597E+02 -0.10885967264E+02  0.24223450499E+02  0.10500000000E+00 0.  1.
</event>
<event>
11    0  0.3510903E-009  0.9118800E+02  0.7816531E-02  0.1126479E+00
         25   -1    0    0    0    0  0.00000000000E+00  0.00000000000E+00  0.99999998245E-14  0.12500000000E+03  0.12500000000E+03 0.  0.
    3000001    1    3    3    0    0  0.13262463146E+02 -0.70478855488E+01  0.35300158781E+01  0.15460486135E+02  0.10000000000E+01 0. -1.
    1000022    2    1    0    0    0  0.47722516660E+02 -0.25139533096E+02  0.29946873643E+02  0.62500000168E+02  0.10000002965E+02 0.  0.
    3000022    2    3    3    0    0  0.34460053514E+02 -0.18091647547E+02  0.26416857765E+02  0.47039514033E+02  0.25001429094E+00 0.  0.
    1000022    2    1    0    0    0 -0.47722516660E+02  0.25139533096E+02 -0.29946873643E+02  0.62499999832E+02  0.10000000869E+02 0.  0.
    3000022    2    5    5    0    0 -0.64114718492E+01  0.34525039060E+01 -0.46861675871E+00  0.73012925340E+01  0.25003300917E+00 0.  0.
        -13    1    4    4    0    0  0.13427786224E+02 -0.69799468040E+01  0.10266084854E+02  0.18287389740E+02  0.10500000000E+00 0. -1.
         13    1    4    4    0    0  0.21032267290E+02 -0.11111700743E+02  0.16150772911E+02  0.28752124293E+02  0.10500000000E+00 0.  1.
    3000001    1    5    5    0    0 -0.41311044811E+02  0.21687029190E+02 -0.29478256884E+02  0.55198707298E+02  0.10000000000E+01 0. -1.
        -13    1    6    6    0    0 -0.45852237405E+01  0.24227829627E+01 -0.32211325484E+00  0.51970122170E+01  0.10500000000E+00 0. -1.
         13    1    6    6    0    0 -0.18262481088E+01  0.10297209434E+01 -0.14650350387E+00  0.21042803170E+01  0.10500000000E+00 0.  1.
</event>
<event>
11    0  0.3510903E-009  0.9118800E+02  0.7816531E-02  0.1126479E+00
         25   -1    0    0    0    0  0.00000000000E+00  0.00000000000E+00  0.99999998245E-14  0.12500000000E+03  0.12500000000E+03 0.  0.
    3000001    1    3    3    0    0  0.16790375550E+02  0.91820352724E-01 -0.12744501435E+02  0.21103257069E+02  0.10000000000E+01 0.  1.
    1000022    2    1    0    0    0  0.41069367433E+02 -0.71734005887E+01 -0.45476367417E+02  0.62500001177E+02  0.99999768155E+01 0.  0.
    3000022    2    3    3    0    0  0.24278991883E+02 -0.72652209414E+01 -0.32731865982E+02  0.41396744108E+02  0.24997980883E+00 0.  0.
    1000022    2    1    0    0    0 -0.41069367433E+02  0.71734005887E+01  0.45476367417E+02  0.62499998823E+02  0.99999621037E+01 0.  0.
    3000022    2    5    5    0    0 -0.33425596131E+02  0.81338330181E+01  0.41048834894E+02  0.53558370648E+02  0.25000812171E+00 0.  0.
        -13    1    4    4    0    0  0.15082101662E+02 -0.44503623746E+01 -0.20323226168E+02  0.25696693614E+02  0.10500000000E+00 0. -1.
         13    1    4    4    0    0  0.91968902218E+01 -0.28148585669E+01 -0.12408639814E+02  0.15700050494E+02  0.10500000000E+00 0.  1.
    3000001    1    5    5    0    0 -0.76437713027E+01 -0.96043242936E+00  0.44275325225E+01  0.89416281749E+01  0.10000000000E+01 0. -1.
        -13    1    6    6    0    0 -0.14858782853E+02  0.35784097949E+01  0.18323690422E+02  0.23861204920E+02  0.10500000000E+00 0. -1.
         13    1    6    6    0    0 -0.18566813278E+02  0.45554232232E+01  0.22725144472E+02  0.29697165729E+02  0.10500000000E+00 0.  1.
</event>
<event>
11    0  0.3510903E-009  0.9118800E+02  0.7816531E-02  0.1126479E+00
         25   -1    0    0    0    0  0.00000000000E+00  0.00000000000E+00  0.99999998245E-14  0.12500000000E+03  0.12500000000E+03 0.  0.
    3000001    1    3    3    0    0 -0.20064287765E+02 -0.10997568485E+02  0.17127263123E+02  0.28598344326E+02  0.10000000000E+01 0. -1.
    1000022    2    1    0    0    0 -0.46976047538E+02 -0.13737755845E+02  0.37560283809E+02  0.62500000260E+02  0.10000006733E+02 0.  0.
    3000022    2    3    3    0    0 -0.26911759773E+02 -0.27401873599E+01  0.20433020686E+02  0.33901655934E+02  0.24999965461E+00 0.  0.
    1000022    2    1    0    0    0  0.46976047538E+02  0.13737755845E+02 -0.37560283809E+02  0.62499999740E+02  0.10000003487E+02 0.  0.
    3000022    2    5    5    0    0  0.18376787432E+02  0.24363949831E+01 -0.19106963949E+02  0.26622939523E+02  0.25000134929E+00 0.  0.
        -13    1    4    4    0    0 -0.88119799378E+01 -0.90787267415E+00  0.66274514007E+01  0.11063876368E+02  0.10500000000E+00 0.  1.
         13    1    4    4    0    0 -0.18099779836E+02 -0.18323146858E+01  0.13805569285E+02  0.22837779566E+02  0.10500000000E+00 0. -1.
    3000001    1    5    5    0    0  0.28599260107E+02  0.11301360862E+02 -0.18453319860E+02  0.35877060217E+02  0.10000000000E+01 0. -1.
        -13    1    6    6    0    0  0.85481029277E+01  0.11122306205E+01 -0.87932106642E+01  0.12314166614E+02  0.10500000000E+00 0. -1.
         13    1    6    6    0    0  0.98286845039E+01  0.13241643626E+01 -0.10313753285E+02  0.14308772909E+02  0.10500000000E+00 0.  1.
</event>
<event>
11    0  0.3510903E-009  0.9118800E+02  0.7816531E-02  0.1126479E+00
         25   -1    0    0    0    0  0.00000000000E+00  0.00000000000E+00  0.99999998245E-14  0.12500000000E+03  0.12500000000E+03 0.  0.
    3000001    1    3    3    0    0 -0.25526988091E+02 -0.16041536259E+02  0.19036902782E+02  0.35670179059E+02  0.10000000000E+01 0.  1.
    1000022    2    1    0    0    0 -0.37898121513E+02 -0.30365486507E+02  0.38051536527E+02  0.62499999944E+02  0.10000008792E+02 0.  0.
    3000022    2    3    3    0    0 -0.12371133422E+02 -0.14323950248E+02  0.19014633745E+02  0.26829820885E+02  0.24999877533E+00 0.  0.
    1000022    2    1    0    0    0  0.37898121513E+02  0.30365486507E+02 -0.38051536527E+02  0.62500000056E+02  0.10000009495E+02 0.  0.
    3000022    2    5    5    0    0  0.10103441535E+02  0.36369736774E+01 -0.11080557519E+02  0.15432056168E+02  0.24998853706E+00 0.  0.
        -13    1    4    4    0    0 -0.68707903869E+01 -0.78534949946E+01  0.10480989320E+02  0.14790108394E+02  0.10500000000E+00 0.  1.
         13    1    4    4    0    0 -0.55003430349E+01 -0.64704552536E+01  0.85336444255E+01  0.12039712491E+02  0.10500000000E+00 0. -1.
    3000001    1    5    5    0    0  0.27794679979E+02  0.26728512830E+02 -0.26970979008E+02  0.47067943888E+02  0.10000000000E+01 0.  1.
        -13    1    6    6    0    0  0.75338652143E+01  0.26885687042E+01 -0.82802890487E+01  0.11513545869E+02  0.10500000000E+00 0.  1.
         13    1    6    6    0    0  0.25695763202E+01  0.94840497316E+00 -0.28002684706E+01  0.39185102993E+01  0.10500000000E+00 0. -1.
</event>
<event>
11    0  0.3510903E-009  0.9118800E+02  0.7816531E-02  0.1126479E+00
         25   -1    0    0    0    0  0.00000000000E+00  0.00000000000E+00  0.99999998245E-14  0.12500000000E+03  0.12500000000E+03 0.  0.
    3000001    1    3    3    0    0 -0.63011526971E+01 -0.58991752430E+01  0.23768545454E+01  0.90085643357E+01  0.10000000000E+01 0. -1.
    1000022    2    1    0    0    0 -0.56576785457E+02 -0.23425197809E+02  0.75218027339E+01  0.62499999904E+02  0.99999963327E+01 0.  0.
    3000022    2    3    3    0    0 -0.50275632760E+02 -0.17526022566E+02  0.51449481885E+01  0.53491435569E+02  0.24994190555E+00 0.  0.
    1000022    2    1    0    0    0  0.56576785457E+02  0.23425197809E+02 -0.75218027339E+01  0.62500000096E+02  0.99999975275E+01 0.  0.
    3000022    2    5    5    0    0  0.33556142237E+02  0.16901263827E+02 -0.85360382712E+01  0.38530427663E+02  0.25001154827E+00 0.  0.
        -13    1    4    4    0    0 -0.35381996716E+02 -0.12371700130E+02  0.35947654311E+01  0.37654721075E+02  0.10500000000E+00 0.  1.
         13    1    4    4    0    0 -0.14893636044E+02 -0.51543224352E+01  0.15501827574E+01  0.15836714494E+02  0.10500000000E+00 0. -1.
    3000001    1    5    5    0    0  0.23020643220E+02  0.65239339820E+01  0.10142355373E+01  0.23969572432E+02  0.10000000000E+01 0. -1.
        -13    1    6    6    0    0  0.25746814995E+02  0.12968593424E+02 -0.65375100207E+01  0.29560665758E+02  0.10500000000E+00 0.  1.
         13    1    6    6    0    0  0.78093272419E+01  0.39326704026E+01 -0.19985282505E+01  0.89697619051E+01  0.10500000000E+00 0. -1.
</event>
<event>
11    0  0.3510903E-009  0.9118800E+02  0.7816531E-02  0.1126479E+00
         25   -1    0    0    0    0  0.00000000000E+00  0.00000000000E+00  0.99999998245E-14  0.12500000000E+03  0.12500000000E+03 0.  0.
    3000001    1    3    3    0    0 -0.42046277896E+02  0.68080534947E+01  0.58300078188E+01  0.43002651877E+02  0.10000000000E+01 0. -1.
    1000022    2    1    0    0    0 -0.60926314291E+02  0.95376051462E+01  0.18078429322E+01  0.62499999353E+02  0.99999969027E+01 0.  0.
    3000022    2    3    3    0    0 -0.18880036395E+02  0.27295516514E+01 -0.40221648867E+01  0.19497347476E+02  0.25004345290E+00 0.  0.
    1000022    2    1    0    0    0  0.60926314291E+02 -0.95376051462E+01 -0.18078429322E+01  0.62500000647E+02  0.10000004990E+02 0.  0.
    3000022    2    5    5    0    0  0.55574547081E+01  0.19828612628E+01 -0.38902324967E+00  0.59186891821E+01  0.25000185176E+00 0.  0.
        -13    1    4    4    0    0 -0.80399839476E+01  0.11166295705E+01 -0.16634568258E+01  0.82865141698E+01  0.10500000000E+00 0.  1.
         13    1    4    4    0    0 -0.10840052448E+02  0.16129220809E+01 -0.23587080609E+01  0.11210833306E+02  0.10500000000E+00 0. -1.
    3000001    1    5    5    0    0  0.55368859583E+02 -0.11520466409E+02 -0.14188196825E+01  0.56581311465E+02  0.10000000000E+01 0. -1.
        -13    1    6    6    0    0  0.36275357335E+01  0.12866661828E+01 -0.30946709201E+00  0.38628124786E+01  0.10500000000E+00 0. -1.
         13    1    6    6    0    0  0.19299189746E+01  0.69619508000E+00 -0.79556157666E-01  0.20558767035E+01  0.10500000000E+00 0.  1.
</event>
<event>
11    0  0.3510903E-009  0.9118800E+02  0.7816531E-02  0.1126479E+00
         25   -1    0    0    0    0  0.00000000000E+00  0.00000000000E+00  0.99999998245E-14  0.12500000000E+03  0.12500000000E+03 0.  0.
    3000001    1    3    3    0    0 -0.25961530489E+02  0.23254692653E+02  0.21952468994E+02  0.41203066520E+02  0.10000000000E+01 0.  1.
    1000022    2    1    0    0    0 -0.38793779414E+02  0.39330194091E+02  0.27466861104E+02  0.62500000051E+02  0.10000002949E+02 0.  0.
    3000022    2    3    3    0    0 -0.12832248925E+02  0.16075501438E+02  0.55143921100E+01  0.21296933531E+02  0.24999703528E+00 0.  0.
    1000022    2    1    0    0    0  0.38793779414E+02 -0.39330194091E+02 -0.27466861104E+02  0.62499999949E+02  0.10000002314E+02 0.  0.
    3000022    2    5    5    0    0 -0.51959301856E+00 -0.12784293750E+01 -0.93356553588E+00  0.16847565991E+01  0.25000323287E+00 0.  0.
        -13    1    4    4    0    0 -0.76468009882E+01  0.96759869460E+01  0.32867003426E+01  0.12763687276E+02  0.10500000000E+00 0.  1.
         13    1    4    4    0    0 -0.51854479368E+01  0.63995144922E+01  0.22276917674E+01  0.85332462552E+01  0.10500000000E+00 0. -1.
    3000001    1    5    5    0    0  0.39313372433E+02 -0.38051764716E+02 -0.26533295568E+02  0.60815243350E+02  0.10000000000E+01 0. -1.
        -13    1    6    6    0    0 -0.30075763566E+00 -0.78447311795E+00 -0.63715657823E+00  0.10596446260E+01  0.10500000000E+00 0.  1.
         13    1    6    6    0    0 -0.21883538290E+00 -0.49395625710E+00 -0.29640895764E+00  0.62511197309E+00  0.10500000000E+00 0. -1.
</event>
<event>
11    0  0.3510903E-009  0.9118800E+02  0.7816531E-02  0.1126479E+00
         25   -1    0    0    0    0  0.00000000000E+00  0.00000000000E+00  0.99999998245E-14  0.12500000000E+03  0.12500000000E+03 0.  0.
    3000001    1    3    3    0    0 -0.13582619231E+02  0.27932425563E+01 -0.25742098476E+02  0.29256544279E+02  0.10000000000E+01 0.  1.
    1000022    2    1    0    0    0 -0.22020609321E+02 -0.14667541286E+01 -0.57612422899E+02  0.62499999725E+02  0.10000004542E+02 0.  0.
    3000022    2    3    3    0    0 -0.84379900901E+01 -0.42599966848E+01 -0.31870324423E+02  0.33243455447E+02  0.25000546168E+00 0.  0.
    1000022    2    1    0    0    0  0.22020609321E+02  0.14667541286E+01  0.57612422899E+02  0.62500000275E+02  0.10000007974E+02 0.  0.
    3000022    2    5    5    0    0  0.10750478907E+01  0.21223628548E+01  0.22040322556E+01  0.32527545991E+01  0.25000448640E+00 0.  0.
        -13    1    4    4    0    0 -0.61683987601E+01 -0.30852199410E+01 -0.23160102691E+02  0.24165452758E+02  0.10500000000E+00 0.  1.
         13    1    4    4    0    0 -0.22695913300E+01 -0.11747767438E+01 -0.87102217318E+01  0.90780026889E+01  0.10500000000E+00 0. -1.
    3000001    1    5    5    0    0  0.20945561431E+02 -0.65560872624E+00  0.55408390643E+02  0.59247245675E+02  0.10000000000E+01 0. -1.
        -13    1    6    6    0    0  0.41758577326E+00  0.85757612538E+00  0.80245726249E+00  0.12509106071E+01  0.10500000000E+00 0. -1.
         13    1    6    6    0    0  0.65746211746E+00  0.12647867294E+01  0.14015749931E+01  0.20018439920E+01  0.10500000000E+00 0.  1.
</event>
<event>
11    0  0.3510903E-009  0.9118800E+02  0.7816531E-02  0.1126479E+00
         25   -1    0    0    0    0  0.00000000000E+00  0.00000000000E+00  0.99999998245E-14  0.12500000000E+03  0.12500000000E+03 0.  0.
    3000001    1    3    3    0    0 -0.25646427593E+02  0.19187297744E+00  0.31156951803E+01  0.25855050183E+02  0.10000000000E+01 0. -1.
    1000022    2    1    0    0    0 -0.61364111940E+02 -0.59514790064E+01 -0.22968875096E+01  0.62499999382E+02  0.99999947000E+01 0.  0.
    3000022    2    3    3    0    0 -0.35717684347E+02 -0.61433519838E+01 -0.54125826900E+01  0.36644949199E+02  0.25000342095E+00 0.  0.
    1000022    2    1    0    0    0  0.61364111940E+02  0.59514790064E+01  0.22968875096E+01  0.62500000618E+02  0.10000002420E+02 0.  0.
    3000022    2    5    5    0    0  0.54655633341E+02  0.27430179773E+01  0.37656659748E+01  0.54854399433E+02  0.24998684852E+00 0.  0.
        -13    1    4    4    0    0 -0.13607786209E+02 -0.23608675395E+01 -0.20044372779E+01  0.13956157597E+02  0.10500000000E+00 0.  1.
         13    1    4    4    0    0 -0.22109898138E+02 -0.37824844444E+01 -0.34081454121E+01  0.22688791603E+02  0.10500000000E+00 0. -1.
    3000001    1    5    5    0    0  0.67084785995E+01  0.32084610291E+01 -0.14687784651E+01  0.76456011846E+01  0.10000000000E+01 0. -1.
        -13    1    6    6    0    0  0.15373155855E+02  0.73368754475E+00  0.10724668395E+01  0.15428332005E+02  0.10500000000E+00 0.  1.
         13    1    6    6    0    0  0.39282477486E+02  0.20093304326E+01  0.26931991352E+01  0.39426067427E+02  0.10500000000E+00 0. -1.
</event>
<event>
11    0  0.3510903E-009  0.9118800E+02  0.7816531E-02  0.1126479E+00
         25   -1    0    0    0    0  0.00000000000E+00  0.00000000000E+00  0.99999998245E-14  0.12500000000E+03  0.12500000000E+03 0.  0.
    3000001    1    3    3    0    0 -0.46034915830E+02  0.26907391375E+01 -0.40998514461E+02  0.61711682368E+02  0.10000000000E+01 0. -1.
    1000022    2    1    0    0    0 -0.45564669839E+02  0.24402769006E+01 -0.41522956588E+02  0.62500000685E+02  0.10000003647E+02 0.  0.
    3000022    2    3    3    0    0  0.47024599137E+00 -0.25046223698E+00 -0.52444212694E+00  0.78831831754E+00  0.25008718621E+00 0.  0.
    1000022    2    1    0    0    0  0.45564669839E+02 -0.24402769006E+01  0.41522956588E+02  0.62499999315E+02  0.99999950832E+01 0.  0.
    3000022    2    5    5    0    0  0.31948261640E+02 -0.60458354338E+01  0.30556500836E+02  0.44620687909E+02  0.24999648944E+00 0.  0.
        -13    1    4    4    0    0  0.31858492517E+00 -0.19430644044E+00 -0.28638458106E+00  0.48196729724E+00  0.10500000000E+00 0. -1.
         13    1    4    4    0    0  0.15166106620E+00 -0.56155796533E-01 -0.23805754589E+00  0.30635102030E+00  0.10500000000E+00 0.  1.
    3000001    1    5    5    0    0  0.13616408199E+02  0.36055585332E+01  0.10966455752E+02  0.17879311406E+02  0.10000000000E+01 0.  1.
        -13    1    6    6    0    0  0.22405162528E+02 -0.41951180341E+01  0.21436958351E+02  0.31291285234E+02  0.10500000000E+00 0. -1.
         13    1    6    6    0    0  0.95430991111E+01 -0.18507173996E+01  0.91195424851E+01  0.13329402675E+02  0.10500000000E+00 0.  1.
</event>
<event>
11    0  0.3510903E-009  0.9118800E+02  0.7816531E-02  0.1126479E+00
         25   -1    0    0    0    0  0.00000000000E+00  0.00000000000E+00  0.99999998245E-14  0.12500000000E+03  0.12500000000E+03 0.  0.
    3000001    1    3    3    0    0 -0.44346987877E+02  0.34801068801E+01  0.19518164859E+02  0.48587295018E+02  0.10000000000E+01 0.  1.
    1000022    2    1    0    0    0 -0.57845132575E+02  0.67325511487E+01  0.20368198141E+02  0.62500000068E+02  0.99999952730E+01 0.  0.
    3000022    2    3    3    0    0 -0.13498144698E+02  0.32524442686E+01  0.85003328137E+00  0.13912705051E+02  0.25000247996E+00 0.  0.
    1000022    2    1    0    0    0  0.57845132575E+02 -0.67325511487E+01 -0.20368198141E+02  0.62499999932E+02  0.99999944175E+01 0.  0.
    3000022    2    5    5    0    0  0.24962058052E+02  0.20168656583E+01 -0.84182418746E+01  0.26421608347E+02  0.25000423771E+00 0.  0.
        -13    1    4    4    0    0 -0.90898070962E+01  0.22289363530E+01  0.53692424483E+00  0.93750766908E+01  0.10500000000E+00 0. -1.
         13    1    4    4    0    0 -0.44083376019E+01  0.10235079156E+01  0.31310903655E+00  0.45376283601E+01  0.10500000000E+00 0.  1.
    3000001    1    5    5    0    0  0.32883074523E+02 -0.87494168070E+01 -0.11949956266E+02  0.36078391584E+02  0.10000000000E+01 0.  1.
        -13    1    6    6    0    0  0.17749424553E+02  0.13959364562E+01 -0.60049948158E+01  0.18789936091E+02  0.10500000000E+00 0. -1.
         13    1    6    6    0    0  0.72126334989E+01  0.62092920207E+00 -0.24132470588E+01  0.76316722564E+01  0.10500000000E+00 0.  1.
</event>
<event>
11    0  0.3510903E-009  0.9118800E+02  0.7816531E-02  0.1126479E+00
         25   -1    0    0    0    0  0.00000000000E+00  0.00000000000E+00  0.99999998245E-14  0.12500000000E+03  0.12500000000E+03 0.  0.
    3000001    1    3    3    0    0  0.22682724370E+01 -0.24509978990E+01  0.55729409253E+02  0.55838333662E+02  0.10000000000E+01 0.  1.
    1000022    2    1    0    0    0  0.42546971082E+01  0.10149601974E+00  0.61547844625E+02  0.62499999685E+02  0.10000001685E+02 0.  0.
    3000022    2    3    3    0    0  0.19864246711E+01  0.25524939187E+01  0.58184353726E+01  0.66616660226E+01  0.24999166531E+00 0.  0.
    1000022    2    1    0    0    0 -0.42546971082E+01 -0.10149601974E+00 -0.61547844625E+02  0.62500000315E+02  0.10000005622E+02 0.  0.
    3000022    2    5    5    0    0 -0.41599727211E+01  0.76021409567E+00 -0.91243130583E+01  0.10059765962E+02  0.25000783419E+00 0.  0.
        -13    1    4    4    0    0  0.84123532655E+00  0.10495352413E+01  0.22959965400E+01  0.26630482926E+01  0.10500000000E+00 0.  1.
         13    1    4    4    0    0  0.11451893446E+01  0.15029586775E+01  0.35224388326E+01  0.39986177300E+01  0.10500000000E+00 0. -1.
    3000001    1    5    5    0    0 -0.94724387098E-01 -0.86171011541E+00 -0.52423531567E+02  0.52440234353E+02  0.10000000000E+01 0.  1.
        -13    1    6    6    0    0 -0.14643303468E+01  0.21594268658E+00 -0.32553728424E+01  0.35776209905E+01  0.10500000000E+00 0. -1.
         13    1    6    6    0    0 -0.26956423743E+01  0.54427140909E+00 -0.58689402159E+01  0.64821449717E+01  0.10500000000E+00 0.  1.
</event>
<event>
11    0  0.3510903E-009  0.9118800E+02  0.7816531E-02  0.1126479E+00
         25   -1    0    0    0    0  0.00000000000E+00  0.00000000000E+00  0.99999998245E-14  0.12500000000E+03  0.12500000000E+03 0.  0.
    3000001    1    3    3    0    0  0.32083614233E+02  0.18047616274E+02 -0.43745488377E+02  0.57181662347E+02  0.10000000000E+01 0. -1.
    1000022    2    1    0    0    0  0.36641440320E+02  0.17550146439E+02 -0.46428948192E+02  0.62499999387E+02  0.99999952192E+01 0.  0.
    3000022    2    3    3    0    0  0.45578260874E+01 -0.49746983485E+00 -0.26834598151E+01  0.53183370402E+01  0.24999482802E+00 0.  0.
    1000022    2    1    0    0    0 -0.36641440320E+02 -0.17550146439E+02  0.46428948192E+02  0.62500000613E+02  0.10000002883E+02 0.  0.
    3000022    2    5    5    0    0  0.22644147614E+00  0.63438163575E+00  0.74350761039E+00  0.10339347671E+01  0.25000346821E+00 0.  0.
        -13    1    4    4    0    0  0.18781718001E+01 -0.26517922406E+00 -0.11375541541E+01  0.22142501632E+01  0.10500000000E+00 0.  1.
         13    1    4    4    0    0  0.26796542873E+01 -0.23229061079E+00 -0.15459056611E+01  0.31040868770E+01  0.10500000000E+00 0. -1.
    3000001    1    5    5    0    0 -0.36867881796E+02 -0.18184528075E+02  0.45685440582E+02  0.61466065846E+02  0.10000000000E+01 0. -1.
        -13    1    6    6    0    0  0.84731352281E-01  0.17602140926E+00  0.29307635003E+00  0.36753460452E+00  0.10500000000E+00 0. -1.
         13    1    6    6    0    0  0.14171012386E+00  0.45836022649E+00  0.45043126036E+00  0.66640016263E+00  0.10500000000E+00 0.  1.
</event>
<event>
11    0  0.3510903E-009  0.9118800E+02  0.7816531E-02  0.1126479E+00
         25   -1    0    0    0    0  0.00000000000E+00  0.00000000000E+00  0.99999998245E-14  0.12500000000E+03  0.12500000000E+03 0.  0.
    3000001    1    3    3    0    0  0.15345460547E+02 -0.25996915748E+02  0.10051862466E+02  0.31833358712E+02  0.10000000000E+01 0. -1.
    1000022    2    1    0    0    0  0.29128563716E+02 -0.53388676966E+02  0.10364666680E+02  0.62499999557E+02  0.99999788463E+01 0.  0.
    3000022    2    3    3    0    0  0.13783103169E+02 -0.27391761217E+02  0.31280421432E+00  0.30666640845E+02  0.24999742530E+00 0.  0.
    1000022    2    1    0    0    0 -0.29128563716E+02  0.53388676966E+02 -0.10364666680E+02  0.62500000443E+02  0.99999843836E+01 0.  0.
    3000022    2    5    5    0    0 -0.19382947465E+02  0.29153884357E+02 -0.97918076796E+01  0.36353674194E+02  0.25000843428E+00 0.  0.
        -13    1    4    4    0    0  0.97726475173E+01 -0.19332271686E+02  0.23897442756E+00  0.21663552382E+02  0.10500000000E+00 0.  1.
         13    1    4    4    0    0  0.40104556517E+01 -0.80594895318E+01  0.73829786756E-01  0.90030884637E+01  0.10500000000E+00 0. -1.
    3000001    1    5    5    0    0 -0.97456162515E+01  0.24234792609E+02 -0.57285900033E+00  0.26146326249E+02  0.10000000000E+01 0. -1.
        -13    1    6    6    0    0 -0.14649622891E+02  0.21996810899E+02 -0.74023681677E+01  0.27445896233E+02  0.10500000000E+00 0. -1.
         13    1    6    6    0    0 -0.47333245733E+01  0.71570734584E+01 -0.23894395118E+01  0.89077779601E+01  0.10500000000E+00 0.  1.
</event>
<event>
11    0  0.3510903E-009  0.9118800E+02  0.7816531E-02  0.1126479E+00
         25   -1    0    0    0    0  0.00000000000E+00  0.00000000000E+00  0.99999998245E-14  0.12500000000E+03  0.12500000000E+03 0.  0.
    3000001    1    3    3    0    0  0.23799734262E+01 -0.47750458392E+01  0.66976609319E+01  0.86211367136E+01  0.10000000000E+01 0.  1.
    1000022    2    1    0    0    0  0.35815499000E+02 -0.19463743616E+02  0.46310502443E+02  0.62500000137E+02  0.10000004827E+02 0.  0.
    3000022    2    3    3    0    0  0.33435525573E+02 -0.14688697776E+02  0.39612841511E+02  0.53878863424E+02  0.24999707039E+00 0.  0.
    1000022    2    1    0    0    0 -0.35815499000E+02  0.19463743616E+02 -0.46310502443E+02  0.62499999863E+02  0.10000003112E+02 0.  0.
    3000022    2    5    5    0    0 -0.34662396532E+02  0.19904395236E+02 -0.42358478685E+02  0.58240620691E+02  0.24999768213E+00 0.  0.
        -13    1    4    4    0    0  0.20570473660E+02 -0.90813098450E+01  0.24322332221E+02  0.33124031228E+02  0.10500000000E+00 0. -1.
         13    1    4    4    0    0  0.12865051914E+02 -0.56073879314E+01  0.15290509290E+02  0.20754832196E+02  0.10500000000E+00 0.  1.
    3000001    1    5    5    0    0 -0.11531024672E+01 -0.44065162059E+00 -0.39520237577E+01  0.42593791722E+01  0.10000000000E+01 0.  1.
        -13    1    6    6    0    0 -0.83879831829E+01  0.48108423515E+01 -0.10277264717E+02  0.14111543539E+02  0.10500000000E+00 0. -1.
         13    1    6    6    0    0 -0.26274413349E+02  0.15093552885E+02 -0.32081213968E+02  0.44129077151E+02  0.10500000000E+00 0.  1.
</event>
<event>
11    0  0.3510903E-009  0.9118800E+02  0.7816531E-02  0.1126479E+00
         25   -1    0    0    0    0  0.00000000000E+00  0.00000000000E+00  0.99999998245E-14  0.12500000000E+03  0.12500000000E+03 0.  0.
    3000001    1    3    3    0    0  0.85248176008E+01  0.50432028662E+02  0.18680500954E+02  0.54461207717E+02  0.10000000000E+01 0. -1.
    1000022    2    1    0    0    0  0.61394400219E+01  0.57188846946E+02  0.22315755140E+02  0.62500000639E+02  0.10000010681E+02 0.  0.
    3000022    2    3    3    0    0 -0.23853775789E+01  0.67568182835E+01  0.36352541858E+01  0.80387929216E+01  0.24999826174E+00 0.  0.
    1000022    2    1    0    0    0 -0.61394400219E+01 -0.57188846946E+02 -0.22315755140E+02  0.62499999361E+02  0.10000002694E+02 0.  0.
    3000022    2    5    5    0    0 -0.49121613365E+01 -0.31579460506E+02 -0.17349132815E+02  0.36365458537E+02  0.25002057231E+00 0.  0.
        -13    1    4    4    0    0 -0.73504594902E+00  0.20220071830E+01  0.11386778371E+01  0.24364765158E+01  0.10500000000E+00 0. -1.
         13    1    4    4    0    0 -0.16503316299E+01  0.47348111005E+01  0.24965763487E+01  0.56023164058E+01  0.10500000000E+00 0.  1.
    3000001    1    5    5    0    0 -0.12272786854E+01 -0.25609386440E+02 -0.49666223249E+01  0.26134540824E+02  0.10000000000E+01 0.  1.
        -13    1    6    6    0    0 -0.12904033773E+01 -0.81014866588E+01 -0.44499275196E+01  0.93333866784E+01  0.10500000000E+00 0.  1.
         13    1    6    6    0    0 -0.36217579592E+01 -0.23477973848E+02 -0.12899205295E+02  0.27032071858E+02  0.10500000000E+00 0. -1.
</event>
<event>
11    0  0.3510903E-009  0.9118800E+02  0.7816531E-02  0.1126479E+00
         25   -1    0    0    0    0  0.00000000000E+00  0.00000000000E+00  0.99999998245E-14  0.12500000000E+03  0.12500000000E+03 0.  0.
    3000001    1    3    3    0    0 -0.33019355418E+02  0.32779939941E+01 -0.10190951774E+01  0.33212371668E+02  0.10000000000E+01 0. -1.
    1000022    2    1    0    0    0 -0.60634323343E+02  0.91751765022E+01  0.67487373309E+01  0.62499995979E+02  0.99999505347E+01 0.  0.
    3000022    2    3    3    0    0 -0.27614967925E+02  0.58971825081E+01  0.77678325083E+01  0.29287624311E+02  0.25000171729E+00 0.  0.
    1000022    2    1    0    0    0  0.60634323343E+02 -0.91751765022E+01 -0.67487373309E+01  0.62500004021E+02  0.10000000802E+02 0.  0.
    3000022    2    5    5    0    0  0.60189996211E+02 -0.93852591898E+01 -0.61299586549E+01  0.61225465522E+02  0.25000277829E+00 0.  0.
        -13    1    4    4    0    0 -0.13910279455E+02  0.30397169252E+01  0.39118514830E+01  0.14766494524E+02  0.10500000000E+00 0. -1.
         13    1    4    4    0    0 -0.13704688470E+02  0.28574655829E+01  0.38559810253E+01  0.14521129786E+02  0.10500000000E+00 0.  1.
    3000001    1    5    5    0    0  0.44432713172E+00  0.21008268760E+00 -0.61877867596E+00  0.12745384990E+01  0.10000000000E+01 0. -1.
        -13    1    6    6    0    0  0.30965009671E+02 -0.47868897337E+01 -0.30986838457E+01  0.31485854027E+02  0.10500000000E+00 0. -1.
         13    1    6    6    0    0  0.29224986540E+02 -0.45983694561E+01 -0.30312748092E+01  0.29739611495E+02  0.10500000000E+00 0.  1.
</event>
<event>
11    0  0.3510903E-009  0.9118800E+02  0.7816531E-02  0.1126479E+00
         25   -1    0    0    0    0  0.00000000000E+00  0.00000000000E+00  0.99999998245E-14  0.12500000000E+03  0.12500000000E+03 0.  0.
    3000001    1    3    3    0    0  0.12103935189E+02 -0.28896527631E+02 -0.15086950072E+02  0.34786931722E+02  0.10000000000E+01 0. -1.
    1000022    2    1    0    0    0  0.13118889823E+02 -0.53836554752E+02 -0.27125080854E+02  0.62500000563E+02  0.10000008069E+02 0.  0.
    3000022    2    3    3    0    0  0.10149546341E+01 -0.24940027121E+02 -0.12038130782E+02  0.27713068841E+02  0.25001234541E+00 0.  0.
    1000022    2    1    0    0    0 -0.13118889823E+02  0.53836554752E+02  0.27125080854E+02  0.62499999437E+02  0.10000001028E+02 0.  0.
    3000022    2    5    5    0    0 -0.10717434847E+02  0.51987097592E+02  0.26077629593E+02  0.59140738814E+02  0.24999316396E+00 0.  0.
        -13    1    4    4    0    0  0.52928110737E+00 -0.12588471660E+02 -0.61494749301E+01  0.14020585728E+02  0.10500000000E+00 0. -1.
         13    1    4    4    0    0  0.48567352676E+00 -0.12351555460E+02 -0.58886558518E+01  0.13692483113E+02  0.10500000000E+00 0.  1.
    3000001    1    5    5    0    0 -0.24014549759E+01  0.18494571599E+01  0.10474512613E+01  0.33592606228E+01  0.10000000000E+01 0.  1.
        -13    1    6    6    0    0 -0.63749246787E+01  0.30875994157E+02  0.15418744198E+02  0.35095802847E+02  0.10500000000E+00 0. -1.
         13    1    6    6    0    0 -0.43425101682E+01  0.21111103434E+02  0.10658885395E+02  0.24044935967E+02  0.10500000000E+00 0.  1.
</event>
<event>
11    0  0.3510903E-009  0.9118800E+02  0.7816531E-02  0.1126479E+00
         25   -1    0    0    0    0  0.00000000000E+00  0.00000000000E+00  0.99999998245E-14  0.12500000000E+03  0.12500000000E+03 0.  0.
    3000001    1    3    3    0    0 -0.23116748087E+02  0.16759706937E+02 -0.10129805270E+02  0.30313112237E+02  0.10000000000E+01 0.  1.
    1000022    2    1    0    0    0 -0.40750323308E+02  0.36902594260E+02 -0.27997495114E+02  0.62499999846E+02  0.99999967652E+01 0.  0.
    3000022    2    3    3    0    0 -0.17633575221E+02  0.20142887323E+02 -0.17867689844E+02  0.32186887609E+02  0.25001755174E+00 0.  0.
    1000022    2    1    0    0    0  0.40750323308E+02 -0.36902594260E+02  0.27997495114E+02  0.62500000154E+02  0.99999986943E+01 0.  0.
    3000022    2    5    5    0    0  0.18968256497E+02 -0.12438656471E+02  0.77161503676E+01  0.23960726272E+02  0.24999529454E+00 0.  0.
        -13    1    4    4    0    0 -0.45054134257E+01  0.51169843240E+01 -0.45765841139E+01  0.82120902248E+01  0.10500000000E+00 0. -1.
         13    1    4    4    0    0 -0.13128161795E+02  0.15025902999E+02 -0.13291105730E+02  0.23974797384E+02  0.10500000000E+00 0.  1.
    3000001    1    5    5    0    0  0.21782066811E+02 -0.24463937789E+02  0.20281344746E+02  0.38539273883E+02  0.10000000000E+01 0.  1.
        -13    1    6    6    0    0  0.11662299790E+02 -0.75747594991E+01  0.47209167747E+01  0.14686194131E+02  0.10500000000E+00 0. -1.
         13    1    6    6    0    0  0.73059567067E+01 -0.48638969716E+01  0.29952335929E+01  0.92745321406E+01  0.10500000000E+00 0.  1.
</event>
<event>
11    0  0.3510903E-009  0.9118800E+02  0.7816531E-02  0.1126479E+00
         25   -1    0    0    0    0  0.00000000000E+00  0.00000000000E+00  0.99999998245E-14  0.12500000000E+03  0.12500000000E+03 0.  0.
    3000001    1    3    3    0    0 -0.20197126871E+02 -0.36446663950E+01  0.14928336246E+02  0.25398085559E+02  0.10000000000E+01 0.  1.
    1000022    2    1    0    0    0 -0.55206524416E+02 -0.86184855389E+01  0.26157435330E+02  0.62499998598E+02  0.99999885324E+01 0.  0.
    3000022    2    3    3    0    0 -0.35009397545E+02 -0.49738191440E+01  0.11229099084E+02  0.37101913039E+02  0.24998322687E+00 0.  0.
    1000022    2    1    0    0    0  0.55206524416E+02  0.86184855389E+01 -0.26157435330E+02  0.62500001402E+02  0.10000006056E+02 0.  0.
    3000022    2    5    5    0    0  0.35974901338E+02  0.10325360768E+02 -0.17017328476E+02  0.41115186636E+02  0.25000480615E+00 0.  0.
        -13    1    4    4    0    0 -0.17114994892E+02 -0.24882119013E+01  0.54522385342E+01  0.18134281862E+02  0.10500000000E+00 0. -1.
         13    1    4    4    0    0 -0.17894402653E+02 -0.24856072426E+01  0.57768605499E+01  0.18967631177E+02  0.10500000000E+00 0.  1.
    3000001    1    5    5    0    0  0.19231623078E+02 -0.17068752289E+01 -0.91401068539E+01  0.21384814766E+02  0.10000000000E+01 0. -1.
        -13    1    6    6    0    0  0.12165647838E+02  0.35483779547E+01 -0.57650260215E+01  0.13922662226E+02  0.10500000000E+00 0. -1.
         13    1    6    6    0    0  0.23809253499E+02  0.67769828132E+01 -0.11252302455E+02  0.27192524410E+02  0.10500000000E+00 0.  1.
</event>
<event>
11    0  0.3510903E-009  0.9118800E+02  0.7816531E-02  0.1126479E+00
         25   -1    0    0    0    0  0.00000000000E+00  0.00000000000E+00  0.99999998245E-14  0.12500000000E+03  0.12500000000E+03 0.  0.
    3000001    1    3    3    0    0 -0.11760066426E+02  0.54456503758E+02  0.10293099974E+02  0.56663549756E+02  0.10000000000E+01 0.  1.
    1000022    2    1    0    0    0 -0.11468362759E+02  0.58994058938E+02  0.13943738166E+02  0.62499999781E+02  0.99999902115E+01 0.  0.
    3000022    2    3    3    0    0  0.29170366705E+00  0.45375551801E+01  0.36506381915E+01  0.58364500248E+01  0.24998328997E+00 0.  0.
    1000022    2    1    0    0    0  0.11468362759E+02 -0.58994058938E+02 -0.13943738166E+02  0.62500000219E+02  0.99999929496E+01 0.  0.
    3000022    2    5    5    0    0 -0.65301756428E+00 -0.21400685358E+02 -0.50465463402E+01  0.21998770356E+02  0.25000293355E+00 0.  0.
        -13    1    4    4    0    0  0.14207682935E+00  0.14415088124E+01  0.11778431126E+01  0.18698857932E+01  0.10500000000E+00 0.  1.
         13    1    4    4    0    0  0.14962683769E+00  0.30960463677E+01  0.24727950790E+01  0.39665642317E+01  0.10500000000E+00 0. -1.
    3000001    1    5    5    0    0  0.12121380323E+02 -0.37593373580E+02 -0.88971918253E+01  0.40501229863E+02  0.10000000000E+01 0. -1.
        -13    1    6    6    0    0 -0.14408060021E+00 -0.55997948162E+01 -0.13017435083E+01  0.57518712055E+01  0.10500000000E+00 0. -1.
         13    1    6    6    0    0 -0.50893696407E+00 -0.15800890542E+02 -0.37448028319E+01  0.16246899150E+02  0.10500000000E+00 0.  1.
</event>
<event>
11    0  0.3510903E-009  0.9118800E+02  0.7816531E-02  0.1126479E+00
         25   -1    0    0    0    0  0.00000000000E+00  0.00000000000E+00  0.99999998245E-14  0.12500000000E+03  0.12500000000E+03 0.  0.
    3000001    1    3    3    0    0 -0.33196758481E+02 -0.70131923101E+01 -0.25840790127E+02  0.42660943197E+02  0.10000000000E+01 0. -1.
    1000022    2    1    0    0    0 -0.50450143567E+02 -0.14105743481E+02 -0.32589277391E+02  0.62499999570E+02  0.99999980132E+01 0.  0.
    3000022    2    3    3    0    0 -0.17253385086E+02 -0.70925511707E+01 -0.67484872640E+01  0.19839056373E+02  0.24999678685E+00 0.  0.
    1000022    2    1    0    0    0  0.50450143567E+02  0.14105743481E+02  0.32589277391E+02  0.62500000430E+02  0.10000003392E+02 0.  0.
    3000022    2    5    5    0    0  0.49000180113E+02  0.14884812049E+02  0.32314221080E+02  0.60554493343E+02  0.24999843686E+00 0.  0.
        -13    1    4    4    0    0 -0.61352541608E+01 -0.25643634369E+01 -0.24506401323E+01  0.70875923635E+01  0.10500000000E+00 0. -1.
         13    1    4    4    0    0 -0.11118130925E+02 -0.45281877338E+01 -0.42978471317E+01  0.12751464009E+02  0.10500000000E+00 0.  1.
    3000001    1    5    5    0    0  0.14499634536E+01 -0.77906856809E+00  0.27505631125E+00  0.19455070868E+01  0.10000000000E+01 0. -1.
        -13    1    6    6    0    0  0.15617463761E+02  0.47968370518E+01  0.10312635689E+02  0.19320359725E+02  0.10500000000E+00 0. -1.
         13    1    6    6    0    0  0.33382716352E+02  0.10087974997E+02  0.22001585391E+02  0.41234133619E+02  0.10500000000E+00 0.  1.
</event>
<event>
11    0  0.3510903E-009  0.9118800E+02  0.7816531E-02  0.1126479E+00
         25   -1    0    0    0    0  0.00000000000E+00  0.00000000000E+00  0.99999998245E-14  0.12500000000E+03  0.12500000000E+03 0.  0.
    3000001    1    3    3    0    0  0.22114112644E+02  0.24950659453E+01  0.19087006048E+02  0.29335526788E+02  0.10000000000E+01 0.  1.
    1000022    2    1    0    0    0  0.47734477419E+02 -0.50045777073E+01  0.38763692566E+02  0.62499999305E+02  0.99999959628E+01 0.  0.
    3000022    2    3    3    0    0  0.25620364776E+02 -0.74996436526E+01  0.19676686519E+02  0.33164472517E+02  0.24999763179E+00 0.  0.
    1000022    2    1    0    0    0 -0.47734477419E+02  0.50045777073E+01 -0.38763692566E+02  0.62500000695E+02  0.10000004646E+02 0.  0.
    3000022    2    5    5    0    0 -0.18206221026E+02 -0.10593043029E+01 -0.19561219411E+02  0.26744951178E+02  0.24999800410E+00 0.  0.
        -13    1    4    4    0    0  0.19611356389E+02 -0.57275931397E+01  0.15066671911E+02  0.25385551995E+02  0.10500000000E+00 0. -1.
         13    1    4    4    0    0  0.60090083870E+01 -0.17720505128E+01  0.46100146074E+01  0.77789205226E+01  0.10500000000E+00 0.  1.
    3000001    1    5    5    0    0 -0.29528256393E+02  0.60638820102E+01 -0.19202473155E+02  0.35755049516E+02  0.10000000000E+01 0.  1.
        -13    1    6    6    0    0 -0.12407411133E+02 -0.68119376724E+00 -0.13283827108E+02  0.18190078713E+02  0.10500000000E+00 0.  1.
         13    1    6    6    0    0 -0.57988098937E+01 -0.37811053566E+00 -0.62773923037E+01  0.85548724651E+01  0.10500000000E+00 0. -1.
</event>
<event>
11    0  0.3510903E-009  0.9118800E+02  0.7816531E-02  0.1126479E+00
         25   -1    0    0    0    0  0.00000000000E+00  0.00000000000E+00  0.99999998245E-14  0.12500000000E+03  0.12500000000E+03 0.  0.
    3000001    1    3    3    0    0 -0.46382352272E+01  0.42531054438E+01  0.10650199756E+02  0.12410837473E+02  0.10000000000E+01 0.  1.
    1000022    2    1    0    0    0 -0.20002985269E+02  0.27118648059E+01  0.58299013948E+02  0.62499987570E+02  0.99999894288E+01 0.  0.
    3000022    2    3    3    0    0 -0.15364750042E+02 -0.15412406379E+01  0.47648814192E+02  0.50089150097E+02  0.24999401195E+00 0.  0.
    1000022    2    1    0    0    0  0.20002985269E+02 -0.27118648059E+01 -0.58299013948E+02  0.62500012430E+02  0.10000144800E+02 0.  0.
    3000022    2    5    5    0    0  0.13316249139E+02  0.28848962632E+01 -0.38573110265E+02  0.40909564295E+02  0.24999547052E+00 0.  0.
        -13    1    4    4    0    0 -0.97461422332E+01 -0.99276042735E+00  0.30042770570E+02  0.31599872630E+02  0.10500000000E+00 0.  1.
         13    1    4    4    0    0 -0.56186078086E+01 -0.54848021058E+00  0.17606043622E+02  0.18489277468E+02  0.10500000000E+00 0. -1.
    3000001    1    5    5    0    0  0.66867361295E+01 -0.55967610691E+01 -0.19725903683E+02  0.21590448134E+02  0.10000000000E+01 0. -1.
        -13    1    6    6    0    0  0.55030698171E+01  0.11394903592E+01 -0.16025171744E+02  0.16982325227E+02  0.10500000000E+00 0.  1.
         13    1    6    6    0    0  0.78131793224E+01  0.17454059041E+01 -0.22547938521E+02  0.23927239068E+02  0.10500000000E+00 0. -1.
</event>
<event>
11    0  0.3510903E-009  0.9118800E+02  0.7816531E-02  0.1126479E+00
         25   -1    0    0    0    0  0.00000000000E+00  0.00000000000E+00  0.99999998245E-14  0.12500000000E+03  0.12500000000E+03 0.  0.
    3000001    1    3    3    0    0 -0.96869074066E+01 -0.16332372034E+00  0.34582408355E+02  0.35927786146E+02  0.10000000000E+01 0.  1.
    1000022    2    1    0    0    0 -0.16097418406E+02 -0.86784576615E+01  0.58922040055E+02  0.62499995879E+02  0.10000008697E+02 0.  0.
    3000022    2    3    3    0    0 -0.64105109994E+01 -0.85151339411E+01  0.24339631701E+02  0.26572209734E+02  0.25000299154E+00 0.  0.
    1000022    2    1    0    0    0  0.16097418406E+02  0.86784576615E+01 -0.58922040055E+02  0.62500004121E+02  0.10000060204E+02 0.  0.
    3000022    2    5    5    0    0  0.16910371023E+02  0.86714922726E+01 -0.50091108912E+02  0.53575527366E+02  0.25002837849E+00 0.  0.
        -13    1    4    4    0    0 -0.26462348877E+01 -0.35280901168E+01  0.99132302278E+01  0.10850490196E+02  0.10500000000E+00 0. -1.
         13    1    4    4    0    0 -0.37642761116E+01 -0.49870438244E+01  0.14426401473E+02  0.15721719537E+02  0.10500000000E+00 0.  1.
    3000001    1    5    5    0    0 -0.81295261749E+00  0.69653888729E-02 -0.88309311434E+01  0.89244767541E+01  0.10000000000E+01 0. -1.
        -13    1    6    6    0    0  0.60449152934E+01  0.30464446222E+01 -0.17934773431E+02  0.19170001272E+02  0.10500000000E+00 0. -1.
         13    1    6    6    0    0  0.10865455730E+02  0.56250476503E+01 -0.32156335480E+02  0.34405526094E+02  0.10500000000E+00 0.  1.
</event>
<event>
11    0  0.3510903E-009  0.9118800E+02  0.7816531E-02  0.1126479E+00
         25   -1    0    0    0    0  0.00000000000E+00  0.00000000000E+00  0.99999998245E-14  0.12500000000E+03  0.12500000000E+03 0.  0.
    3000001    1    3    3    0    0  0.12027869572E+02 -0.20383535034E+02  0.41541709281E+01  0.24050265758E+02  0.10000000000E+01 0.  1.
    1000022    2    1    0    0    0  0.39527725730E+02 -0.44816309937E+02  0.15339743258E+02  0.62500000538E+02  0.99999803155E+01 0.  0.
    3000022    2    3    3    0    0  0.27499856158E+02 -0.24432774903E+02  0.11185572330E+02  0.38449734780E+02  0.24999631442E+00 0.  0.
    1000022    2    1    0    0    0 -0.39527725730E+02  0.44816309937E+02 -0.15339743258E+02  0.62499999462E+02  0.99999735852E+01 0.  0.
    3000022    2    5    5    0    0 -0.26213836937E+02  0.23765324608E+02 -0.60502967158E+01  0.35897416219E+02  0.25000031705E+00 0.  0.
        -13    1    4    4    0    0  0.16477767415E+02 -0.14615483375E+02  0.67605204429E+01  0.23040070202E+02  0.10500000000E+00 0. -1.
         13    1    4    4    0    0  0.11022088744E+02 -0.98172915275E+01  0.44250518871E+01  0.15409664578E+02  0.10500000000E+00 0.  1.
    3000001    1    5    5    0    0 -0.13313888793E+02  0.21050985329E+02 -0.92894465424E+01  0.26602583243E+02  0.10000000000E+01 0. -1.
        -13    1    6    6    0    0 -0.18706331269E+02  0.16929565900E+02 -0.42776912546E+01  0.25589972618E+02  0.10500000000E+00 0.  1.
         13    1    6    6    0    0 -0.75075056676E+01  0.68357587073E+01 -0.17726054611E+01  0.10307443600E+02  0.10500000000E+00 0. -1.
</event>
<event>
11    0  0.3510903E-009  0.9118800E+02  0.7816531E-02  0.1126479E+00
         25   -1    0    0    0    0  0.00000000000E+00  0.00000000000E+00  0.99999998245E-14  0.12500000000E+03  0.12500000000E+03 0.  0.
    3000001    1    3    3    0    0  0.97391874154E+01 -0.38503723241E+01 -0.43646310710E+01  0.11389782392E+02  0.10000000000E+01 0. -1.
    1000022    2    1    0    0    0  0.50290389103E+02 -0.43612738730E+01 -0.35469790286E+02  0.62500000462E+02  0.10000004442E+02 0.  0.
    3000022    2    3    3    0    0  0.40551201688E+02 -0.51090154892E+00 -0.31105159215E+02  0.51110218070E+02  0.24996530448E+00 0.  0.
    1000022    2    1    0    0    0 -0.50290389103E+02  0.43612738730E+01  0.35469790286E+02  0.62499999538E+02  0.99999986675E+01 0.  0.
    3000022    2    5    5    0    0 -0.46175278068E+02  0.13055332661E+01  0.32620468040E+02  0.56551022588E+02  0.24999765878E+00 0.  0.
        -13    1    4    4    0    0  0.12447871707E+02 -0.20301630285E+00 -0.95635691960E+01  0.15699159418E+02  0.10500000000E+00 0. -1.
         13    1    4    4    0    0  0.28103329981E+02 -0.30788524607E+00 -0.21541590019E+02  0.35411058653E+02  0.10500000000E+00 0.  1.
    3000001    1    5    5    0    0 -0.41151110349E+01  0.30557406069E+01  0.28493222462E+01  0.59489769498E+01  0.10000000000E+01 0.  1.
        -13    1    6    6    0    0 -0.14906938952E+02  0.37661292150E+00  0.10560913548E+02  0.18273001564E+02  0.10500000000E+00 0. -1.
         13    1    6    6    0    0 -0.31268339117E+02  0.92892034461E+00  0.22059554492E+02  0.38278021024E+02  0.10500000000E+00 0.  1.
</event>
<event>
11    0  0.3510903E-009  0.9118800E+02  0.7816531E-02  0.1126479E+00
         25   -1    0    0    0    0  0.00000000000E+00  0.00000000000E+00  0.99999998245E-14  0.12500000000E+03  0.12500000000E+03 0.  0.
    3000001    1    3    3    0    0  0.38553430381E+01 -0.46656469268E+01 -0.26937070921E+01  0.66998499301E+01  0.10000000000E+01 0.  1.
    1000022    2    1    0    0    0  0.50281311225E+02 -0.20457249957E+02 -0.29317922987E+02  0.62499998853E+02  0.99999956966E+01 0.  0.
    3000022    2    3    3    0    0  0.46425968187E+02 -0.15791603031E+02 -0.26624215895E+02  0.55800148923E+02  0.24999869954E+00 0.  0.
    1000022    2    1    0    0    0 -0.50281311225E+02  0.20457249957E+02  0.29317922987E+02  0.62500001147E+02  0.10000010037E+02 0.  0.
    3000022    2    5    5    0    0 -0.43328279627E+02  0.13928894693E+02  0.22795883016E+02  0.50902541242E+02  0.24999917456E+00 0.  0.
        -13    1    4    4    0    0  0.19523431190E+02 -0.66879533500E+01 -0.11258103399E+02  0.23508487884E+02  0.10500000000E+00 0. -1.
         13    1    4    4    0    0  0.26902536997E+02 -0.91036496806E+01 -0.15366112497E+02  0.32291661039E+02  0.10500000000E+00 0.  1.
    3000001    1    5    5    0    0 -0.69530315982E+01  0.65283552645E+01  0.65220399718E+01  0.11597459905E+02  0.10000000000E+01 0. -1.
        -13    1    6    6    0    0 -0.22854716514E+02  0.72840866663E+01  0.11980245762E+02  0.26812931564E+02  0.10500000000E+00 0.  1.
         13    1    6    6    0    0 -0.20473563113E+02  0.66448080267E+01  0.10815637254E+02  0.24089609678E+02  0.10500000000E+00 0. -1.
</event>
<event>
11    0  0.3510903E-009  0.9118800E+02  0.7816531E-02  0.1126479E+00
         25   -1    0    0    0    0  0.00000000000E+00  0.00000000000E+00  0.99999998245E-14  0.12500000000E+03  0.12500000000E+03 0.  0.
    3000001    1    3    3    0    0  0.20377358547E+01 -0.25749613945E+02  0.27819547535E+02  0.37975284209E+02  0.10000000000E+01 0. -1.
    1000022    2    1    0    0    0  0.87498447422E+01 -0.45445902132E+02  0.40796568222E+02  0.62500001091E+02  0.10000017701E+02 0.  0.
    3000022    2    3    3    0    0  0.67121088875E+01 -0.19696288187E+02  0.12977020687E+02  0.24524716881E+02  0.24999624556E+00 0.  0.
    1000022    2    1    0    0    0 -0.87498447422E+01  0.45445902132E+02 -0.40796568222E+02  0.62499998909E+02  0.10000004068E+02 0.  0.
    3000022    2    5    5    0    0 -0.23352273262E+01  0.25402235667E+02 -0.27865931981E+02  0.37779617934E+02  0.25000507108E+00 0.  0.
        -13    1    4    4    0    0  0.29728123245E+01 -0.89200549522E+01  0.58390277824E+01  0.11068435477E+02  0.10500000000E+00 0.  1.
         13    1    4    4    0    0  0.37392965630E+01 -0.10776233235E+02  0.71379929047E+01  0.13456281404E+02  0.10500000000E+00 0. -1.
    3000001    1    5    5    0    0 -0.64146174161E+01  0.20043666465E+02 -0.12930636241E+02  0.24720380975E+02  0.10000000000E+01 0. -1.
        -13    1    6    6    0    0 -0.10598618151E+01  0.11671786313E+02 -0.12705182832E+02  0.17285444703E+02  0.10500000000E+00 0. -1.
         13    1    6    6    0    0 -0.12753655111E+01  0.13730449354E+02 -0.15160749149E+02  0.20494173231E+02  0.10500000000E+00 0.  1.
</event>
<event>
11    0  0.3510903E-009  0.9118800E+02  0.7816531E-02  0.1126479E+00
         25   -1    0    0    0    0  0.00000000000E+00  0.00000000000E+00  0.99999998245E-14  0.12500000000E+03  0.12500000000E+03 0.  0.
    3000001    1    3    3    0    0  0.15665469585E+02  0.17314546843E+02  0.14118131680E+02  0.27304250801E+02  0.10000000000E+01 0. -1.
    1000022    2    1    0    0    0  0.28476019321E+02  0.36990650646E+02  0.40336810724E+02  0.62500001640E+02  0.99999996998E+01 0.  0.
    3000022    2    3    3    0    0  0.12810549736E+02  0.19676103803E+02  0.26218679044E+02  0.35195750838E+02  0.25000168949E+00 0.  0.
    1000022    2    1    0    0    0 -0.28476019321E+02 -0.36990650646E+02 -0.40336810724E+02  0.62499998360E+02  0.99999792056E+01 0.  0.
    3000022    2    5    5    0    0 -0.22917245040E+00 -0.39689900513E+01 -0.55277416536E+01  0.68135034439E+01  0.24999870312E+00 0.  0.
        -13    1    4    4    0    0  0.33005233096E+01  0.50765342564E+01  0.67169169695E+01  0.90439290549E+01  0.10500000000E+00 0.  1.
         13    1    4    4    0    0  0.95100264267E+01  0.14599569547E+02  0.19501762075E+02  0.26151821784E+02  0.10500000000E+00 0. -1.
    3000001    1    5    5    0    0 -0.28246846871E+02 -0.33021660594E+02 -0.34809069070E+02  0.55686494917E+02  0.10000000000E+01 0.  1.
        -13    1    6    6    0    0 -0.11919262400E+00 -0.24296392986E+01 -0.32803074308E+01  0.40851922652E+01  0.10500000000E+00 0. -1.
         13    1    6    6    0    0 -0.10997982640E+00 -0.15393507527E+01 -0.22474342228E+01  0.27283111787E+01  0.10500000000E+00 0.  1.
</event>
<event>
11    0  0.3510903E-009  0.9118800E+02  0.7816531E-02  0.1126479E+00
         25   -1    0    0    0    0  0.00000000000E+00  0.00000000000E+00  0.99999998245E-14  0.12500000000E+03  0.12500000000E+03 0.  0.
    3000001    1    3    3    0    0  0.19696171437E+02 -0.26560296903E+02 -0.40988003192E+01  0.33334497220E+02  0.10000000000E+01 0. -1.
    1000022    2    1    0    0    0  0.43434789006E+02 -0.43237627630E+02 -0.70835841679E+01  0.62500003561E+02  0.99999970659E+01 0.  0.
    3000022    2    3    3    0    0  0.23738617570E+02 -0.16677330728E+02 -0.29847838487E+01  0.29165506341E+02  0.25000240958E+00 0.  0.
    1000022    2    1    0    0    0 -0.43434789006E+02  0.43237627630E+02  0.70835841679E+01  0.62499996439E+02  0.99999525537E+01 0.  0.
    3000022    2    5    5    0    0 -0.27981387877E+02  0.26658567049E+02  0.91590291363E+01  0.39718856695E+02  0.24999559120E+00 0.  0.
        -13    1    4    4    0    0  0.11828698092E+02 -0.82294016985E+01 -0.14979443430E+01  0.14487788413E+02  0.10500000000E+00 0.  1.
         13    1    4    4    0    0  0.11909919478E+02 -0.84479290291E+01 -0.14868395056E+01  0.14677717928E+02  0.10500000000E+00 0. -1.
    3000001    1    5    5    0    0 -0.15453401129E+02  0.16579060581E+02 -0.20754449684E+01  0.22781139744E+02  0.10000000000E+01 0.  1.
        -13    1    6    6    0    0 -0.11872203320E+02  0.11364393444E+02  0.38409248681E+01  0.16877866538E+02  0.10500000000E+00 0.  1.
         13    1    6    6    0    0 -0.16109184557E+02  0.15294173605E+02  0.53181042681E+01  0.22840990157E+02  0.10500000000E+00 0. -1.
</event>
<event>
11    0  0.3510903E-009  0.9118800E+02  0.7816531E-02  0.1126479E+00
         25   -1    0    0    0    0  0.00000000000E+00  0.00000000000E+00  0.99999998245E-14  0.12500000000E+03  0.12500000000E+03 0.  0.
    3000001    1    3    3    0    0 -0.38879354151E+02  0.19421251023E+02  0.22523980031E+02  0.48960380380E+02  0.10000000000E+01 0.  1.
    1000022    2    1    0    0    0 -0.50678075313E+02  0.25939793168E+02  0.23772032339E+02  0.62500001930E+02  0.10000026632E+02 0.  0.
    3000022    2    3    3    0    0 -0.11798721163E+02  0.65185421450E+01  0.12480523082E+01  0.13539621551E+02  0.25000878727E+00 0.  0.
    1000022    2    1    0    0    0  0.50678075313E+02 -0.25939793168E+02 -0.23772032339E+02  0.62499998070E+02  0.10000002505E+02 0.  0.
    3000022    2    5    5    0    0  0.35629500719E+02 -0.21220817384E+02 -0.13337315153E+02  0.43562953619E+02  0.25008117525E+00 0.  0.
        -13    1    4    4    0    0 -0.30647019351E+01  0.17291268266E+01  0.31928364833E+00  0.35348613242E+01  0.10500000000E+00 0. -1.
         13    1    4    4    0    0 -0.87340192277E+01  0.47894153184E+01  0.92876865991E+00  0.10004760226E+02  0.10500000000E+00 0.  1.
    3000001    1    5    5    0    0  0.15048574594E+02 -0.47189757844E+01 -0.10434717186E+02  0.18937044451E+02  0.10000000000E+01 0. -1.
        -13    1    6    6    0    0  0.18343154711E+02 -0.10857112333E+02 -0.68913940261E+01  0.22402021105E+02  0.10500000000E+00 0. -1.
         13    1    6    6    0    0  0.17286346008E+02 -0.10363705051E+02 -0.64459211273E+01  0.21160932514E+02  0.10500000000E+00 0.  1.
</event>
<event>
11    0  0.3510903E-009  0.9118800E+02  0.7816531E-02  0.1126479E+00
         25   -1    0    0    0    0  0.00000000000E+00  0.00000000000E+00  0.99999998245E-14  0.12500000000E+03  0.12500000000E+03 0.  0.
    3000001    1    3    3    0    0 -0.11864907679E+02  0.72225472453E+01  0.78119717856E+01  0.15967721382E+02  0.10000000000E+01 0. -1.
    1000022    2    1    0    0    0 -0.33367641375E+02  0.33599355434E+02  0.39546602900E+02  0.62499999219E+02  0.99999962475E+01 0.  0.
    3000022    2    3    3    0    0 -0.21502733696E+02  0.26376808188E+02  0.31734631114E+02  0.46532277837E+02  0.25000431757E+00 0.  0.
    1000022    2    1    0    0    0  0.33367641375E+02 -0.33599355434E+02 -0.39546602900E+02  0.62500000781E+02  0.10000006015E+02 0.  0.
    3000022    2    5    5    0    0  0.18591171433E+01 -0.38890752472E+01 -0.73587508411E+01  0.85319948136E+01  0.24999745462E+00 0.  0.
        -13    1    4    4    0    0 -0.12831205127E+02  0.15639054675E+02  0.18864721825E+02  0.27660596716E+02  0.10500000000E+00 0. -1.
         13    1    4    4    0    0 -0.86715285688E+01  0.10737753513E+02  0.12869909289E+02  0.18871681121E+02  0.10500000000E+00 0.  1.
    3000001    1    5    5    0    0  0.31508524232E+02 -0.29710280186E+02 -0.32187852058E+02  0.53968005968E+02  0.10000000000E+01 0. -1.
        -13    1    6    6    0    0  0.13822485458E+01 -0.29132555632E+01 -0.54470738427E+01  0.63308220214E+01  0.10500000000E+00 0.  1.
         13    1    6    6    0    0  0.47686859752E+00 -0.97581968396E+00 -0.19116769983E+01  0.22011727922E+01  0.10500000000E+00 0. -1.
</event>
<event>
11    0  0.3510903E-009  0.9118800E+02  0.7816531E-02  0.1126479E+00
         25   -1    0    0    0    0  0.00000000000E+00  0.00000000000E+00  0.99999998245E-14  0.12500000000E+03  0.12500000000E+03 0.  0.
    3000001    1    3    3    0    0 -0.68248363621E+01  0.25370318043E+01 -0.17834535623E+02  0.19289520021E+02  0.10000000000E+01 0.  1.
    1000022    2    1    0    0    0 -0.33487634167E+02  0.13437184011E+02 -0.50042688659E+02  0.62500001686E+02  0.99999983114E+01 0.  0.
    3000022    2    3    3    0    0 -0.26662797805E+02  0.10900152207E+02 -0.32208153035E+02  0.43210481664E+02  0.24999757383E+00 0.  0.
    1000022    2    1    0    0    0  0.33487634167E+02 -0.13437184011E+02  0.50042688659E+02  0.62499998314E+02  0.99999772412E+01 0.  0.
    3000022    2    5    5    0    0  0.22677434548E+02 -0.42291341092E+01  0.33505876361E+02  0.40679944241E+02  0.24999943569E+00 0.  0.
        -13    1    4    4    0    0 -0.14014800235E+02  0.57835446540E+01 -0.17020352740E+02  0.22794022172E+02  0.10500000000E+00 0.  1.
         13    1    4    4    0    0 -0.12647997571E+02  0.51166075527E+01 -0.15187800295E+02  0.20416459492E+02  0.10500000000E+00 0. -1.
    3000001    1    5    5    0    0  0.10810199619E+02 -0.92080499017E+01  0.16536812298E+02  0.21820054073E+02  0.10000000000E+01 0.  1.
        -13    1    6    6    0    0  0.63145671068E+01 -0.11495275373E+01  0.93719088999E+01  0.11359527839E+02  0.10500000000E+00 0. -1.
         13    1    6    6    0    0  0.16362867441E+02 -0.30796065719E+01  0.24133967461E+02  0.29320416402E+02  0.10500000000E+00 0.  1.
</event>
<event>
11    0  0.3510903E-009  0.9118800E+02  0.7816531E-02  0.1126479E+00
         25   -1    0    0    0    0  0.00000000000E+00  0.00000000000E+00  0.99999998245E-14  0.12500000000E+03  0.12500000000E+03 0.  0.
    3000001    1    3    3    0    0 -0.13226907206E+00 -0.66218459178E+00  0.36518256716E+01  0.38460127764E+01  0.10000000000E+01 0. -1.
    1000022    2    1    0    0    0  0.37784940529E+01 -0.42664272470E+02  0.44404211763E+02  0.62499989016E+02  0.99998721007E+01 0.  0.
    3000022    2    3    3    0    0  0.39107631250E+01 -0.42002087878E+02  0.40752386091E+02  0.58653976240E+02  0.25000447918E+00 0.  0.
    1000022    2    1    0    0    0 -0.37784940529E+01  0.42664272470E+02 -0.44404211763E+02  0.62500010984E+02  0.10000009400E+02 0.  0.
    3000022    2    5    5    0    0  0.41698712044E+00 -0.41673365321E+00 -0.34270091356E+00  0.72629578733E+00  0.25003291425E+00 0.  0.
        -13    1    4    4    0    0  0.23588581845E+01 -0.25819656743E+02  0.24988963569E+02  0.36009418372E+02  0.10500000000E+00 0.  1.
         13    1    4    4    0    0  0.15519049404E+01 -0.16182431135E+02  0.15763422523E+02  0.22644557867E+02  0.10500000000E+00 0. -1.
    3000001    1    5    5    0    0 -0.41954811733E+01  0.43081006123E+02 -0.44061510849E+02  0.61773715197E+02  0.10000000000E+01 0. -1.
        -13    1    6    6    0    0  0.23461645218E+00 -0.22105010780E+00 -0.10964440750E+00  0.35630734751E+00  0.10500000000E+00 0. -1.
         13    1    6    6    0    0  0.18237066826E+00 -0.19568354541E+00 -0.23305650606E+00  0.36998843982E+00  0.10500000000E+00 0.  1.
</event>
<event>
11    0  0.3510903E-009  0.9118800E+02  0.7816531E-02  0.1126479E+00
         25   -1    0    0    0    0  0.00000000000E+00  0.00000000000E+00  0.99999998245E-14  0.12500000000E+03  0.12500000000E+03 0.  0.
    3000001    1    3    3    0    0 -0.32326598598E+01 -0.69700596778E+01  0.31593192072E+01  0.83673842708E+01  0.10000000000E+01 0. -1.
    1000022    2    1    0    0    0 -0.31090231219E+02 -0.53288048171E+02  0.17973210241E+00  0.62500006216E+02  0.99999959132E+01 0.  0.
    3000022    2    3    3    0    0 -0.27857571359E+02 -0.46317988493E+02 -0.29795871048E+01  0.54132621946E+02  0.24995855620E+00 0.  0.
    1000022    2    1    0    0    0  0.31090231219E+02  0.53288048171E+02 -0.17973210241E+00  0.62499993784E+02  0.99999182082E+01 0.  0.
    3000022    2    5    5    0    0  0.15541043917E+02  0.30559508355E+02 -0.45959726491E+01  0.34591806302E+02  0.25000344551E+00 0.  0.
        -13    1    4    4    0    0 -0.12516582325E+02 -0.20789447798E+02 -0.12719905609E+01  0.24300102013E+02  0.10500000000E+00 0. -1.
         13    1    4    4    0    0 -0.15340989034E+02 -0.25528540695E+02 -0.17075965439E+01  0.29832519932E+02  0.10500000000E+00 0.  1.
    3000001    1    5    5    0    0  0.15549187302E+02  0.22728539816E+02  0.44162405467E+01  0.27908187481E+02  0.10000000000E+01 0. -1.
        -13    1    6    6    0    0  0.98669821778E+01  0.19475182968E+02 -0.28779028608E+01  0.22021204300E+02  0.10500000000E+00 0. -1.
         13    1    6    6    0    0  0.56740617387E+01  0.11084325387E+02 -0.17180697883E+01  0.12570602002E+02  0.10500000000E+00 0.  1.
</event>
<event>
11    0  0.3510903E-009  0.9118800E+02  0.7816531E-02  0.1126479E+00
         25   -1    0    0    0    0  0.00000000000E+00  0.00000000000E+00  0.99999998245E-14  0.12500000000E+03  0.12500000000E+03 0.  0.
    3000001    1    3    3    0    0 -0.21660738074E+02  0.33332644314E+02 -0.22339820003E+02  0.45610528484E+02  0.10000000000E+01 0.  1.
    1000022    2    1    0    0    0 -0.34242615478E+02  0.43411201903E+02 -0.27370801587E+02  0.62499999675E+02  0.10000000719E+02 0.  0.
    3000022    2    3    3    0    0 -0.12581877404E+02  0.10078557589E+02 -0.50309815845E+01  0.16889471191E+02  0.24999860624E+00 0.  0.
    1000022    2    1    0    0    0  0.34242615478E+02 -0.43411201903E+02  0.27370801587E+02  0.62500000325E+02  0.10000004784E+02 0.  0.
    3000022    2    5    5    0    0  0.11512849580E+02 -0.80939768196E+01  0.85197287097E+01  0.16453159022E+02  0.24999661549E+00 0.  0.
        -13    1    4    4    0    0 -0.86503507919E+01  0.68772981085E+01 -0.34782838337E+01  0.11585995060E+02  0.10500000000E+00 0.  1.
         13    1    4    4    0    0 -0.39315266122E+01  0.32012594808E+01 -0.15526977508E+01  0.53034761309E+01  0.10500000000E+00 0. -1.
    3000001    1    5    5    0    0  0.22729765898E+02 -0.35317225083E+02  0.18851072878E+02  0.46046841303E+02  0.10000000000E+01 0. -1.
        -13    1    6    6    0    0  0.62459930468E+01 -0.43143042687E+01  0.46226549993E+01  0.88885102636E+01  0.10500000000E+00 0.  1.
         13    1    6    6    0    0  0.52668565329E+01 -0.37796725509E+01  0.38970737104E+01  0.75646487581E+01  0.10500000000E+00 0.  1.
</event>
<event>
11    0  0.3510903E-009  0.9118800E+02  0.7816531E-02  0.1126479E+00
         25   -1    0    0    0    0  0.00000000000E+00  0.00000000000E+00  0.99999998245E-14  0.12500000000E+03  0.12500000000E+03 0.  0.
    3000001    1    3    3    0    0 -0.25363678896E+01  0.23992727037E+01 -0.83869384969E+00  0.37273420760E+01  0.10000000000E+01 0.  1.
    1000022    2    1    0    0    0 -0.30363540690E+02  0.27926291668E+02 -0.45874041369E+02  0.62499999554E+02  0.99999951611E+01 0.  0.
    3000022    2    3    3    0    0 -0.27827172801E+02  0.25527018964E+02 -0.45035347519E+02  0.58772657478E+02  0.24999525313E+00 0.  0.
    1000022    2    1    0    0    0  0.30363540690E+02 -0.27926291668E+02  0.45874041369E+02  0.62500000446E+02  0.10000000735E+02 0.  0.
    3000022    2    5    5    0    0  0.22980041071E+02 -0.15785849558E+02  0.26608016364E+02  0.38539906108E+02  0.24998806051E+00 0.  0.
        -13    1    4    4    0    0 -0.16071404041E+02  0.14824422170E+02 -0.26037069295E+02  0.33999904749E+02  0.10500000000E+00 0.  1.
         13    1    4    4    0    0 -0.11755768760E+02  0.10702596794E+02 -0.18998278224E+02  0.24772752729E+02  0.10500000000E+00 0. -1.
    3000001    1    5    5    0    0  0.73834996189E+01 -0.12140442109E+02  0.19266025004E+02  0.23960094338E+02  0.10000000000E+01 0.  1.
        -13    1    6    6    0    0  0.72789967654E+01 -0.50346422257E+01  0.85043398005E+01  0.12274617578E+02  0.10500000000E+00 0.  1.
         13    1    6    6    0    0  0.15701044306E+02 -0.10751207333E+02  0.18103676564E+02  0.26265288529E+02  0.10500000000E+00 0. -1.
</event>
<event>
11    0  0.3510903E-009  0.9118800E+02  0.7816531E-02  0.1126479E+00
         25   -1    0    0    0    0  0.00000000000E+00  0.00000000000E+00  0.99999998245E-14  0.12500000000E+03  0.12500000000E+03 0.  0.
    3000001    1    3    3    0    0  0.84590948924E+01  0.10982807222E+02  0.24753295861E+02  0.28388448299E+02  0.10000000000E+01 0.  1.
    1000022    2    1    0    0    0  0.16878160376E+02  0.13969937817E+02  0.57673379022E+02  0.62500000441E+02  0.99999973526E+01 0.  0.
    3000022    2    3    3    0    0  0.84190654836E+01  0.29871305951E+01  0.32920083161E+02  0.34111552142E+02  0.25000275779E+00 0.  0.
    1000022    2    1    0    0    0 -0.16878160376E+02 -0.13969937817E+02 -0.57673379022E+02  0.62499999559E+02  0.99999918364E+01 0.  0.
    3000022    2    5    5    0    0 -0.81984723951E+01 -0.20356750871E+01 -0.13609202180E+02  0.16019731798E+02  0.25000045325E+00 0.  0.
        -13    1    4    4    0    0  0.44281516708E+01  0.15134159680E+01  0.17090172342E+02  0.17719592851E+02  0.10500000000E+00 0.  1.
         13    1    4    4    0    0  0.39909138129E+01  0.14737146271E+01  0.15829910819E+02  0.16391959291E+02  0.10500000000E+00 0. -1.
    3000001    1    5    5    0    0 -0.86796879810E+01 -0.11934262730E+02 -0.44064176842E+02  0.46480267761E+02  0.10000000000E+01 0. -1.
        -13    1    6    6    0    0 -0.48737992041E+01 -0.12490212381E+01 -0.82010870605E+01  0.96219970229E+01  0.10500000000E+00 0.  1.
         13    1    6    6    0    0 -0.33246731910E+01 -0.78665384898E+00 -0.54081151196E+01  0.63977347750E+01  0.10500000000E+00 0. -1.
</event>
<event>
11    0  0.3510903E-009  0.9118800E+02  0.7816531E-02  0.1126479E+00
         25   -1    0    0    0    0  0.00000000000E+00  0.00000000000E+00  0.99999998245E-14  0.12500000000E+03  0.12500000000E+03 0.  0.
    3000001    1    3    3    0    0  0.24221579971E+02  0.24819553664E+02 -0.15037827175E+02  0.37813111833E+02  0.10000000000E+01 0.  1.
    1000022    2    1    0    0    0  0.36236743254E+02  0.38726084992E+02 -0.31518856250E+02  0.62500003381E+02  0.10000045145E+02 0.  0.
    3000022    2    3    3    0    0  0.12015163283E+02  0.13906531328E+02 -0.16481029075E+02  0.24686891548E+02  0.25006527098E+00 0.  0.
    1000022    2    1    0    0    0 -0.36236743254E+02 -0.38726084992E+02  0.31518856250E+02  0.62499996619E+02  0.10000002882E+02 0.  0.
    3000022    2    5    5    0    0 -0.16676191761E+02 -0.23355003982E+02  0.13196804550E+02  0.31587492925E+02  0.24995267715E+00 0.  0.
        -13    1    4    4    0    0  0.61620523501E+01  0.71085486178E+01 -0.83476931471E+01  0.12577653139E+02  0.10500000000E+00 0. -1.
         13    1    4    4    0    0  0.58531109326E+01  0.67979827100E+01 -0.81333359281E+01  0.12109238408E+02  0.10500000000E+00 0.  1.
    3000001    1    5    5    0    0 -0.19560551492E+02 -0.15371081010E+02  0.18322051700E+02  0.30912503694E+02  0.10000000000E+01 0.  1.
        -13    1    6    6    0    0 -0.86060185156E+01 -0.12168845714E+02  0.68492421102E+01  0.16403277208E+02  0.10500000000E+00 0. -1.
         13    1    6    6    0    0 -0.80701732458E+01 -0.11186158268E+02  0.63475624394E+01  0.15184215717E+02  0.10500000000E+00 0.  1.
</event>
<event>
11    0  0.3510903E-009  0.9118800E+02  0.7816531E-02  0.1126479E+00
         25   -1    0    0    0    0  0.00000000000E+00  0.00000000000E+00  0.99999998245E-14  0.12500000000E+03  0.12500000000E+03 0.  0.
    3000001    1    3    3    0    0 -0.77242678866E+01 -0.38719125474E+01 -0.13783023892E+02  0.16298090954E+02  0.10000000000E+01 0.  1.
    1000022    2    1    0    0    0 -0.32435589214E+02  0.14089902134E+01 -0.52461393417E+02  0.62499996505E+02  0.99999531381E+01 0.  0.
    3000022    2    3    3    0    0 -0.24711321328E+02  0.52809027608E+01 -0.38678369525E+02  0.46201905551E+02  0.24994326647E+00 0.  0.
    1000022    2    1    0    0    0  0.32435589214E+02 -0.14089902134E+01  0.52461393417E+02  0.62500003495E+02  0.99999968245E+01 0.  0.
    3000022    2    5    5    0    0  0.21180769610E+02 -0.56061796035E+01  0.33266851937E+02  0.39834660221E+02  0.24993215727E+00 0.  0.
        -13    1    4    4    0    0 -0.91364528031E+01  0.20128994844E+01 -0.14307143756E+02  0.17094792237E+02  0.10500000000E+00 0. -1.
         13    1    4    4    0    0 -0.15574868525E+02  0.32680032764E+01 -0.24371225769E+02  0.29107113314E+02  0.10500000000E+00 0.  1.
    3000001    1    5    5    0    0  0.11254819604E+02  0.41971893901E+01  0.19194541480E+02  0.22665343274E+02  0.10000000000E+01 0. -1.
        -13    1    6    6    0    0  0.14105324744E+02 -0.37097191875E+01  0.22055955317E+02  0.26442359814E+02  0.10500000000E+00 0. -1.
         13    1    6    6    0    0  0.70754448656E+01 -0.18964604160E+01  0.11210896621E+02  0.13392300407E+02  0.10500000000E+00 0.  1.
</event>
<event>
11    0  0.3510903E-009  0.9118800E+02  0.7816531E-02  0.1126479E+00
         25   -1    0    0    0    0  0.00000000000E+00  0.00000000000E+00  0.99999998245E-14  0.12500000000E+03  0.12500000000E+03 0.  0.
    3000001    1    3    3    0    0 -0.28729727163E+02  0.37659240935E+02 -0.15529409333E+02  0.49857579212E+02  0.10000000000E+01 0.  1.
    1000022    2    1    0    0    0 -0.34148989887E+02  0.49074454378E+02 -0.15224798854E+02  0.62499999923E+02  0.99999953736E+01 0.  0.
    3000022    2    3    3    0    0 -0.54192627240E+01  0.11415213443E+02  0.30461047934E+00  0.12642420711E+02  0.25001494605E+00 0.  0.
    1000022    2    1    0    0    0  0.34148989887E+02 -0.49074454378E+02  0.15224798854E+02  0.62500000077E+02  0.99999963313E+01 0.  0.
    3000022    2    5    5    0    0  0.12450006662E+02 -0.23843361222E+02  0.31435258428E+01  0.27082333688E+02  0.25000602707E+00 0.  0.
        -13    1    4    4    0    0 -0.20437437842E+01  0.42436365069E+01  0.59706889950E-01  0.47116801006E+01  0.10500000000E+00 0.  1.
         13    1    4    4    0    0 -0.33755189398E+01  0.71715769360E+01  0.24490358939E+00  0.79307406105E+01  0.10500000000E+00 0. -1.
    3000001    1    5    5    0    0  0.21698983225E+02 -0.25231093156E+02  0.12081273011E+02  0.35417666388E+02  0.10000000000E+01 0.  1.
        -13    1    6    6    0    0  0.54044915761E+01 -0.10361473056E+02  0.12997028113E+01  0.11758779932E+02  0.10500000000E+00 0. -1.
         13    1    6    6    0    0  0.70455150860E+01 -0.13481888166E+02  0.18438230315E+01  0.15323553756E+02  0.10500000000E+00 0.  1.
</event>
<event>
11    0  0.3510903E-009  0.9118800E+02  0.7816531E-02  0.1126479E+00
         25   -1    0    0    0    0  0.00000000000E+00  0.00000000000E+00  0.99999998245E-14  0.12500000000E+03  0.12500000000E+03 0.  0.
    3000001    1    3    3    0    0 -0.53804993162E-01 -0.14763304430E+02  0.68287010665E+01  0.16296908017E+02  0.10000000000E+01 0. -1.
    1000022    2    1    0    0    0 -0.15749666609E+02 -0.55951565663E+02  0.20678981909E+02  0.62500000053E+02  0.10000000769E+02 0.  0.
    3000022    2    3    3    0    0 -0.15695861616E+02 -0.41188261234E+02  0.13850280843E+02  0.46203092036E+02  0.24999792382E+00 0.  0.
    1000022    2    1    0    0    0  0.15749666609E+02  0.55951565663E+02 -0.20678981909E+02  0.62499999947E+02  0.10000000104E+02 0.  0.
    3000022    2    5    5    0    0  0.33779250752E+00  0.10107105582E+02 -0.67409445530E+01  0.12156089999E+02  0.25000716106E+00 0.  0.
        -13    1    4    4    0    0 -0.96611575904E+01 -0.25363903377E+02  0.85926617843E+01  0.28469464731E+02  0.10500000000E+00 0. -1.
         13    1    4    4    0    0 -0.60347040252E+01 -0.15824357856E+02  0.52576190584E+01  0.17733627305E+02  0.10500000000E+00 0.  1.
    3000001    1    5    5    0    0  0.15411874101E+02  0.45844460081E+02 -0.13938037356E+02  0.50343909947E+02  0.10000000000E+01 0.  1.
        -13    1    6    6    0    0  0.20959534617E+00  0.72646676543E+01 -0.48707654447E+01  0.87495546946E+01  0.10500000000E+00 0. -1.
         13    1    6    6    0    0  0.12819716135E+00  0.28424379279E+01 -0.18701791083E+01  0.34065353048E+01  0.10500000000E+00 0.  1.
</event>
<event>
11    0  0.3510903E-009  0.9118800E+02  0.7816531E-02  0.1126479E+00
         25   -1    0    0    0    0  0.00000000000E+00  0.00000000000E+00  0.99999998245E-14  0.12500000000E+03  0.12500000000E+03 0.  0.
    3000001    1    3    3    0    0 -0.43244009971E+00  0.57926367728E+01  0.12522404206E+02  0.13840240327E+02  0.10000000000E+01 0.  1.
    1000022    2    1    0    0    0  0.95227156163E+01  0.37582141376E+02  0.47991150890E+02  0.62500000069E+02  0.99999990883E+01 0.  0.
    3000022    2    3    3    0    0  0.99551557160E+01  0.31789504603E+02  0.35468746684E+02  0.48659759742E+02  0.24999708053E+00 0.  0.
    1000022    2    1    0    0    0 -0.95227156163E+01 -0.37582141376E+02 -0.47991150890E+02  0.62499999931E+02  0.99999982274E+01 0.  0.
    3000022    2    5    5    0    0 -0.34101120926E+01 -0.69601389803E+01 -0.16021635845E+02  0.17799654913E+02  0.25000150589E+00 0.  0.
        -13    1    4    4    0    0  0.69425199912E+01  0.22184241008E+02  0.24682427124E+02  0.33905344219E+02  0.10500000000E+00 0.  1.
         13    1    4    4    0    0  0.30126357248E+01  0.96052635951E+01  0.10786319561E+02  0.14754415522E+02  0.10500000000E+00 0. -1.
    3000001    1    5    5    0    0 -0.61126035237E+01 -0.30622002396E+02 -0.31969515045E+02  0.44700345018E+02  0.10000000000E+01 0.  1.
        -13    1    6    6    0    0 -0.17730874797E+01 -0.34954840450E+01 -0.80080161138E+01  0.89163666927E+01  0.10500000000E+00 0. -1.
         13    1    6    6    0    0 -0.16370246129E+01 -0.34646549353E+01 -0.80136197315E+01  0.88832882203E+01  0.10500000000E+00 0.  1.
</event>
<event>
11    0  0.3510903E-009  0.9118800E+02  0.7816531E-02  0.1126479E+00
         25   -1    0    0    0    0  0.00000000000E+00  0.00000000000E+00  0.99999998245E-14  0.12500000000E+03  0.12500000000E+03 0.  0.
    3000001    1    3    3    0    0 -0.11542973652E+02 -0.82295739646E+01  0.66554153747E+01  0.15692695186E+02  0.10000000000E+01 0. -1.
    1000022    2    1    0    0    0 -0.36985276983E+02 -0.45327369884E+02  0.19590019776E+02  0.62499999666E+02  0.99999954649E+01 0.  0.
    3000022    2    3    3    0    0 -0.25442303331E+02 -0.37097795920E+02  0.12934604402E+02  0.46807304481E+02  0.25000169075E+00 0.  0.
    1000022    2    1    0    0    0  0.36985276983E+02  0.45327369884E+02 -0.19590019776E+02  0.62500000334E+02  0.99999996366E+01 0.  0.
    3000022    2    5    5    0    0  0.15605347404E+02  0.21933037737E+02 -0.41665045085E+01  0.27239810478E+02  0.25000619586E+00 0.  0.
        -13    1    4    4    0    0 -0.17272736680E+02 -0.25175631989E+02  0.88316090738E+01  0.31783143681E+02  0.10500000000E+00 0.  1.
         13    1    4    4    0    0 -0.81695666510E+01 -0.11922163931E+02  0.41029953281E+01  0.15024160799E+02  0.10500000000E+00 0. -1.
    3000001    1    5    5    0    0  0.21379929580E+02  0.23394332147E+02 -0.15423515268E+02  0.35260189856E+02  0.10000000000E+01 0.  1.
        -13    1    6    6    0    0  0.52993003704E+01  0.74307902733E+01 -0.13584300289E+01  0.92279784159E+01  0.10500000000E+00 0.  1.
         13    1    6    6    0    0  0.10306047033E+02  0.14502247464E+02 -0.28080744796E+01  0.18011832062E+02  0.10500000000E+00 0. -1.
</event>
<event>
11    0  0.3510903E-009  0.9118800E+02  0.7816531E-02  0.1126479E+00
         25   -1    0    0    0    0  0.00000000000E+00  0.00000000000E+00  0.99999998245E-14  0.12500000000E+03  0.12500000000E+03 0.  0.
    3000001    1    3    3    0    0 -0.59935598904E+01 -0.73808926965E+01 -0.31897270112E+02  0.33299191848E+02  0.10000000000E+01 0.  1.
    1000022    2    1    0    0    0 -0.19939826690E+02 -0.12210361132E+02 -0.57092559140E+02  0.62500000299E+02  0.10000006040E+02 0.  0.
    3000022    2    3    3    0    0 -0.13946266800E+02 -0.48294684354E+01 -0.25195289027E+02  0.29200808450E+02  0.25000388447E+00 0.  0.
    1000022    2    1    0    0    0  0.19939826690E+02  0.12210361132E+02  0.57092559140E+02  0.62499999701E+02  0.10000002309E+02 0.  0.
    3000022    2    5    5    0    0  0.22850743637E+01  0.20124458680E+00  0.16144031022E+02  0.16308105230E+02  0.24998862234E+00 0.  0.
        -13    1    4    4    0    0 -0.75857580668E+01 -0.25591856772E+01 -0.13626916984E+02  0.15804969101E+02  0.10500000000E+00 0. -1.
         13    1    4    4    0    0 -0.63605087329E+01 -0.22702827581E+01 -0.11568372043E+02  0.13395839349E+02  0.10500000000E+00 0.  1.
    3000001    1    5    5    0    0  0.17654752326E+02  0.12009116545E+02  0.40948528117E+02  0.46191894472E+02  0.10000000000E+01 0. -1.
        -13    1    6    6    0    0  0.12754596519E+01  0.90378126224E-01  0.94290441321E+01  0.95159268479E+01  0.10500000000E+00 0. -1.
         13    1    6    6    0    0  0.10096147118E+01  0.11086646057E+00  0.67149868901E+01  0.67921783820E+01  0.10500000000E+00 0.  1.
</event>
<event>
11    0  0.3510903E-009  0.9118800E+02  0.7816531E-02  0.1126479E+00
         25   -1    0    0    0    0  0.00000000000E+00  0.00000000000E+00  0.99999998245E-14  0.12500000000E+03  0.12500000000E+03 0.  0.
    3000001    1    3    3    0    0  0.11503525139E+02  0.52933246495E+01  0.47530304433E+01  0.13562509903E+02  0.10000000000E+01 0. -1.
    1000022    2    1    0    0    0  0.55195343440E+02  0.27310895061E+02  0.37201005972E+01  0.62499998994E+02  0.99999899606E+01 0.  0.
    3000022    2    3    3    0    0  0.43691818301E+02  0.22017570412E+02 -0.10329298462E+01  0.48937489090E+02  0.25000228089E+00 0.  0.
    1000022    2    1    0    0    0 -0.55195343440E+02 -0.27310895061E+02 -0.37201005972E+01  0.62500001006E+02  0.10000002540E+02 0.  0.
    3000022    2    5    5    0    0 -0.34318811568E+02 -0.20411135437E+02 -0.59736513266E+01  0.40375020627E+02  0.25000642004E+00 0.  0.
        -13    1    4    4    0    0  0.16003641632E+02  0.80833925582E+01 -0.43517019372E+00  0.17934831442E+02  0.10500000000E+00 0. -1.
         13    1    4    4    0    0  0.27688176669E+02  0.13934177854E+02 -0.59775965244E+00  0.31002657649E+02  0.10500000000E+00 0.  1.
    3000001    1    5    5    0    0 -0.20876531872E+02 -0.68997596241E+01  0.22535507294E+01  0.22124980379E+02  0.10000000000E+01 0. -1.
        -13    1    6    6    0    0 -0.95495832476E+01 -0.56781879027E+01 -0.16226807046E+01  0.11228556262E+02  0.10500000000E+00 0.  1.
         13    1    6    6    0    0 -0.24769228320E+02 -0.14732947535E+02 -0.43509706220E+01  0.29146464365E+02  0.10500000000E+00 0. -1.
</event>
<event>
11    0  0.3510903E-009  0.9118800E+02  0.7816531E-02  0.1126479E+00
         25   -1    0    0    0    0  0.00000000000E+00  0.00000000000E+00  0.99999998245E-14  0.12500000000E+03  0.12500000000E+03 0.  0.
    3000001    1    3    3    0    0 -0.12128230884E+02  0.48587653950E+01 -0.10850005723E+02  0.17012472182E+02  0.10000000000E+01 0. -1.
    1000022    2    1    0    0    0 -0.53641781099E+02  0.11870279885E+02 -0.28069658677E+02  0.62499999423E+02  0.99999982842E+01 0.  0.
    3000022    2    3    3    0    0 -0.41513550214E+02  0.70115144901E+01 -0.17219652954E+02  0.45487527242E+02  0.24999970847E+00 0.  0.
    1000022    2    1    0    0    0  0.53641781099E+02 -0.11870279885E+02  0.28069658677E+02  0.62500000577E+02  0.10000005493E+02 0.  0.
    3000022    2    5    5    0    0  0.34449051150E+02 -0.46299807325E+01  0.13362398215E+02  0.37239629934E+02  0.25000969587E+00 0.  0.
        -13    1    4    4    0    0 -0.23311696005E+02  0.38703477101E+01 -0.96684429311E+01  0.25532422050E+02  0.10500000000E+00 0.  1.
         13    1    4    4    0    0 -0.18201854209E+02  0.31411667800E+01 -0.75512100231E+01  0.19955105191E+02  0.10500000000E+00 0. -1.
    3000001    1    5    5    0    0  0.19192729948E+02 -0.72402991526E+01  0.14707260462E+02  0.25260370643E+02  0.10000000000E+01 0.  1.
        -13    1    6    6    0    0  0.10643639539E+02 -0.13938361547E+01  0.41606054581E+01  0.11513101435E+02  0.10500000000E+00 0. -1.
         13    1    6    6    0    0  0.23805411611E+02 -0.32361445778E+01  0.92017927564E+01  0.25726528499E+02  0.10500000000E+00 0.  1.
</event>
<event>
11    0  0.3510903E-009  0.9118800E+02  0.7816531E-02  0.1126479E+00
         25   -1    0    0    0    0  0.00000000000E+00  0.00000000000E+00  0.99999998245E-14  0.12500000000E+03  0.12500000000E+03 0.  0.
    3000001    1    3    3    0    0  0.39245383241E+01 -0.29850970486E+02 -0.33492131456E+02  0.45046701428E+02  0.10000000000E+01 0. -1.
    1000022    2    1    0    0    0  0.77342635597E+01 -0.44725758780E+02 -0.41785626293E+02  0.62500007485E+02  0.10000001986E+02 0.  0.
    3000022    2    3    3    0    0  0.38097252356E+01 -0.14874788294E+02 -0.82934948368E+01  0.17453306058E+02  0.25000517121E+00 0.  0.
    1000022    2    1    0    0    0 -0.77342635597E+01  0.44725758780E+02  0.41785626293E+02  0.62499992515E+02  0.99999084183E+01 0.  0.
    3000022    2    5    5    0    0 -0.86996591155E+00  0.28666500262E+02  0.29351733095E+02  0.41037931421E+02  0.25000326543E+00 0.  0.
        -13    1    4    4    0    0  0.27057175227E+01 -0.10660614000E+02 -0.59022865189E+01  0.12482692391E+02  0.10500000000E+00 0. -1.
         13    1    4    4    0    0  0.11040077129E+01 -0.42141742934E+01 -0.23912083180E+01  0.49706136668E+01  0.10500000000E+00 0.  1.
    3000001    1    5    5    0    0 -0.68642976481E+01  0.16059258517E+02  0.12433893198E+02  0.21462061094E+02  0.10000000000E+01 0. -1.
        -13    1    6    6    0    0 -0.33485524293E+00  0.13247727167E+02  0.13563719799E+02  0.18963120073E+02  0.10500000000E+00 0.  1.
         13    1    6    6    0    0 -0.53511066863E+00  0.15418773096E+02  0.15788013296E+02  0.22074811348E+02  0.10500000000E+00 0. -1.
</event>
<event>
11    0  0.3510903E-009  0.9118800E+02  0.7816531E-02  0.1126479E+00
         25   -1    0    0    0    0  0.00000000000E+00  0.00000000000E+00  0.99999998245E-14  0.12500000000E+03  0.12500000000E+03 0.  0.
    3000001    1    3    3    0    0  0.25972141525E-01  0.41590024744E+01  0.70993680990E-01  0.42782024539E+01  0.10000000000E+01 0.  1.
    1000022    2    1    0    0    0  0.32833372620E+02  0.52029945723E+02 -0.45939878656E+01  0.62499996360E+02  0.99999605466E+01 0.  0.
    3000022    2    3    3    0    0  0.32807400478E+02  0.47870943248E+02 -0.46649815465E+01  0.58221793906E+02  0.24999826326E+00 0.  0.
    1000022    2    1    0    0    0 -0.32833372620E+02 -0.52029945723E+02  0.45939878656E+01  0.62500003640E+02  0.10000006053E+02 0.  0.
    3000022    2    5    5    0    0 -0.18211985538E+02 -0.28503244558E+02 -0.24079353879E+01  0.33911237366E+02  0.24999849051E+00 0.  0.
        -13    1    4    4    0    0  0.23976060065E+02  0.34970873935E+02 -0.34432595603E+01  0.42540340166E+02  0.10500000000E+00 0. -1.
         13    1    4    4    0    0  0.88313404130E+01  0.12900069313E+02 -0.12217219863E+01  0.15681453740E+02  0.10500000000E+00 0.  1.
    3000001    1    5    5    0    0 -0.14621387081E+02 -0.23526701165E+02  0.70019232535E+01  0.28588766275E+02  0.10000000000E+01 0.  1.
        -13    1    6    6    0    0 -0.59465292816E+01 -0.92205908979E+01 -0.80388652172E+00  0.11001716482E+02  0.10500000000E+00 0. -1.
         13    1    6    6    0    0 -0.12265456257E+02 -0.19282653660E+02 -0.16040488662E+01  0.22909520884E+02  0.10500000000E+00 0.  1.
</event>
<event>
11    0  0.3510903E-009  0.9118800E+02  0.7816531E-02  0.1126479E+00
         25   -1    0    0    0    0  0.00000000000E+00  0.00000000000E+00  0.99999998245E-14  0.12500000000E+03  0.12500000000E+03 0.  0.
    3000001    1    3    3    0    0  0.36208712184E+02 -0.40709001275E+01  0.15965079132E+02  0.39793552462E+02  0.10000000000E+01 0. -1.
    1000022    2    1    0    0    0  0.52740172252E+02 -0.91714488181E+01  0.30669346840E+02  0.62499999967E+02  0.99999958846E+01 0.  0.
    3000022    2    3    3    0    0  0.16531460068E+02 -0.51005486906E+01  0.14704267708E+02  0.22706447505E+02  0.25000107042E+00 0.  0.
    1000022    2    1    0    0    0 -0.52740172252E+02  0.91714488181E+01 -0.30669346840E+02  0.62500000033E+02  0.99999962973E+01 0.  0.
    3000022    2    5    5    0    0 -0.34868803655E+02  0.24572038007E+01 -0.16217314848E+02  0.38534855962E+02  0.25000845540E+00 0.  0.
        -13    1    4    4    0    0  0.92622231104E+01 -0.29147507395E+01  0.82035404665E+01  0.12711949103E+02  0.10500000000E+00 0. -1.
         13    1    4    4    0    0  0.72692369578E+01 -0.21857979511E+01  0.65007272416E+01  0.99944984017E+01  0.10500000000E+00 0. -1.
    3000001    1    5    5    0    0 -0.17871368597E+02  0.67142450174E+01 -0.14452031992E+02  0.23965144071E+02  0.10000000000E+01 0.  1.
        -13    1    6    6    0    0 -0.20437907585E+02  0.14450454044E+01 -0.95763688712E+01  0.22616677219E+02  0.10500000000E+00 0.  1.
         13    1    6    6    0    0 -0.14430896070E+02  0.10121583963E+01 -0.66409459770E+01  0.15918178742E+02  0.10500000000E+00 0. -1.
</event>
<event>
11    0  0.3510903E-009  0.9118800E+02  0.7816531E-02  0.1126479E+00
         25   -1    0    0    0    0  0.00000000000E+00  0.00000000000E+00  0.99999998245E-14  0.12500000000E+03  0.12500000000E+03 0.  0.
    3000001    1    3    3    0    0  0.24644806865E+01  0.40139504715E+01  0.52307496819E+02  0.52528655864E+02  0.10000000000E+01 0. -1.
    1000022    2    1    0    0    0  0.22685736598E+01  0.88675778821E+01  0.61012043344E+02  0.62499999881E+02  0.10000009409E+02 0.  0.
    3000022    2    3    3    0    0 -0.19590702667E+00  0.48536274106E+01  0.87045465256E+01  0.99713440173E+01  0.24998538232E+00 0.  0.
    1000022    2    1    0    0    0 -0.22685736598E+01 -0.88675778821E+01 -0.61012043344E+02  0.62500000119E+02  0.10000010892E+02 0.  0.
    3000022    2    5    5    0    0 -0.19340768604E+01  0.18980412579E+01 -0.13606989359E+02  0.13876450403E+02  0.25000491991E+00 0.  0.
        -13    1    4    4    0    0 -0.12237153207E-01  0.15684851439E+01  0.28010992347E+01  0.32120830185E+01  0.10500000000E+00 0. -1.
         13    1    4    4    0    0 -0.18366987347E+00  0.32851422666E+01  0.59034472909E+01  0.67592609989E+01  0.10500000000E+00 0.  1.
    3000001    1    5    5    0    0 -0.33449679940E+00 -0.10765619140E+02 -0.47405053985E+02  0.48623549715E+02  0.10000000000E+01 0. -1.
        -13    1    6    6    0    0 -0.12565281565E+01  0.13022265816E+01 -0.89585066155E+01  0.91400504844E+01  0.10500000000E+00 0. -1.
         13    1    6    6    0    0 -0.67754870397E+00  0.59581467634E+00 -0.46484827437E+01  0.47363999190E+01  0.10500000000E+00 0.  1.
</event>
<event>
11    0  0.3510903E-009  0.9118800E+02  0.7816531E-02  0.1126479E+00
         25   -1    0    0    0    0  0.00000000000E+00  0.00000000000E+00  0.99999998245E-14  0.12500000000E+03  0.12500000000E+03 0.  0.
    3000001    1    3    3    0    0  0.27012277594E+01 -0.90492103472E+01 -0.99825009050E+01  0.13778068211E+02  0.10000000000E+01 0.  1.
    1000022    2    1    0    0    0  0.27646656369E+02 -0.42336543548E+02 -0.35348683749E+02  0.62500000515E+02  0.10000004679E+02 0.  0.
    3000022    2    3    3    0    0  0.24945428610E+02 -0.33287333201E+02 -0.25366182844E+02  0.48721932304E+02  0.24999033240E+00 0.  0.
    1000022    2    1    0    0    0 -0.27646656369E+02  0.42336543548E+02  0.35348683749E+02  0.62499999485E+02  0.99999982411E+01 0.  0.
    3000022    2    5    5    0    0 -0.24578948054E+02  0.29959152041E+02  0.26624738041E+02  0.47017174047E+02  0.25000226065E+00 0.  0.
        -13    1    4    4    0    0  0.95176814985E+01 -0.12646205987E+02 -0.97121260004E+01  0.18570115870E+02  0.10500000000E+00 0. -1.
         13    1    4    4    0    0  0.15427747112E+02 -0.20641127214E+02 -0.15654056843E+02  0.30151816434E+02  0.10500000000E+00 0.  1.
    3000001    1    5    5    0    0 -0.30677083152E+01  0.12377391508E+02  0.87239457073E+01  0.15482825438E+02  0.10000000000E+01 0.  1.
        -13    1    6    6    0    0 -0.11905143482E+02  0.14510026498E+02  0.12977636573E+02  0.22818926055E+02  0.10500000000E+00 0. -1.
         13    1    6    6    0    0 -0.12673804572E+02  0.15449125543E+02  0.13647101468E+02  0.24198247991E+02  0.10500000000E+00 0.  1.
</event>
<event>
11    0  0.3510903E-009  0.9118800E+02  0.7816531E-02  0.1126479E+00
         25   -1    0    0    0    0  0.00000000000E+00  0.00000000000E+00  0.99999998245E-14  0.12500000000E+03  0.12500000000E+03 0.  0.
    3000001    1    3    3    0    0  0.35596855750E+02  0.10415071189E+02  0.33320316522E+02  0.49868360112E+02  0.10000000000E+01 0. -1.
    1000022    2    1    0    0    0  0.46863773474E+02  0.95813084062E+01  0.38964537063E+02  0.62499999609E+02  0.10000003382E+02 0.  0.
    3000022    2    3    3    0    0  0.11266917724E+02 -0.83376278279E+00  0.56442205415E+01  0.12631639497E+02  0.24999099071E+00 0.  0.
    1000022    2    1    0    0    0 -0.46863773474E+02 -0.95813084062E+01 -0.38964537063E+02  0.62500000391E+02  0.10000008265E+02 0.  0.
    3000022    2    5    5    0    0 -0.42213923159E+02 -0.94074903344E+01 -0.38149933000E+02  0.57671449837E+02  0.25011100853E+00 0.  0.
        -13    1    4    4    0    0  0.83841251243E+01 -0.59416459440E+00  0.41828294794E+01  0.93890187517E+01  0.10500000000E+00 0.  1.
         13    1    4    4    0    0  0.28827925993E+01 -0.23959818839E+00  0.14613910621E+01  0.32426207454E+01  0.10500000000E+00 0. -1.
    3000001    1    5    5    0    0 -0.46498503143E+01 -0.17381807180E+00 -0.81460406351E+00  0.48285505535E+01  0.10000000000E+01 0.  1.
        -13    1    6    6    0    0 -0.24649276964E+02 -0.54505171511E+01 -0.22202058584E+02  0.33619003888E+02  0.10500000000E+00 0. -1.
         13    1    6    6    0    0 -0.17564646195E+02 -0.39569731833E+01 -0.15947874416E+02  0.24052445949E+02  0.10500000000E+00 0.  1.
</event>
<event>
11    0  0.3510903E-009  0.9118800E+02  0.7816531E-02  0.1126479E+00
         25   -1    0    0    0    0  0.00000000000E+00  0.00000000000E+00  0.99999998245E-14  0.12500000000E+03  0.12500000000E+03 0.  0.
    3000001    1    3    3    0    0  0.31249363659E+02  0.29342827120E+02  0.17134943182E+01  0.42912239457E+02  0.10000000000E+01 0. -1.
    1000022    2    1    0    0    0  0.40702822051E+02  0.46360948255E+02 -0.43907451044E+00  0.62500000321E+02  0.10000000382E+02 0.  0.
    3000022    2    3    3    0    0  0.94534583926E+01  0.17018121135E+02 -0.21525688286E+01  0.19587760863E+02  0.25000106694E+00 0.  0.
    1000022    2    1    0    0    0 -0.40702822051E+02 -0.46360948255E+02  0.43907451044E+00  0.62499999679E+02  0.99999963741E+01 0.  0.
    3000022    2    5    5    0    0 -0.20285392407E+02 -0.29854306174E+02 -0.17298727688E+01  0.36136293598E+02  0.25002588873E+00 0.  0.
        -13    1    4    4    0    0  0.43020197987E+01  0.76658944150E+01 -0.10270699662E+01  0.88509439748E+01  0.10500000000E+00 0.  1.
         13    1    4    4    0    0  0.51514385939E+01  0.93522267201E+01 -0.11254988625E+01  0.10736816889E+02  0.10500000000E+00 0. -1.
    3000001    1    5    5    0    0 -0.20417429644E+02 -0.16506642080E+02  0.21689472793E+01  0.26363706081E+02  0.10000000000E+01 0.  1.
        -13    1    6    6    0    0 -0.12201805288E+02 -0.18068039695E+02 -0.10363906534E+01  0.21827121691E+02  0.10500000000E+00 0. -1.
         13    1    6    6    0    0 -0.80835871189E+01 -0.11786266479E+02 -0.69348211547E+00  0.14309171907E+02  0.10500000000E+00 0.  1.
</event>
<event>
11    0  0.3510903E-009  0.9118800E+02  0.7816531E-02  0.1126479E+00
         25   -1    0    0    0    0  0.00000000000E+00  0.00000000000E+00  0.99999998245E-14  0.12500000000E+03  0.12500000000E+03 0.  0.
    3000001    1    3    3    0    0 -0.68649176306E+01 -0.33020185996E+02  0.10593911938E+02  0.35365106354E+02  0.10000000000E+01 0. -1.
    1000022    2    1    0    0    0 -0.87517915855E+01 -0.55225395997E+02  0.26073198287E+02  0.62499999916E+02  0.10000005080E+02 0.  0.
    3000022    2    3    3    0    0 -0.18868739549E+01 -0.22205210001E+02  0.15479286349E+02  0.27134893562E+02  0.24999646044E+00 0.  0.
    1000022    2    1    0    0    0  0.87517915855E+01  0.55225395997E+02 -0.26073198287E+02  0.62500000084E+02  0.10000006133E+02 0.  0.
    3000022    2    5    5    0    0  0.82892342082E+01  0.42099688765E+02 -0.15545607517E+02  0.45637962334E+02  0.24999020543E+00 0.  0.
        -13    1    4    4    0    0 -0.13171089458E+01 -0.15564612568E+02  0.10794316234E+02  0.18987370232E+02  0.10500000000E+00 0.  1.
         13    1    4    4    0    0 -0.56976500914E+00 -0.66405974331E+01  0.46849701147E+01  0.81475233299E+01  0.10500000000E+00 0. -1.
    3000001    1    5    5    0    0  0.46255737729E+00  0.13125707232E+02 -0.10527590770E+02  0.16862037750E+02  0.10000000000E+01 0. -1.
        -13    1    6    6    0    0  0.62355088991E+01  0.31548282344E+02 -0.11637337116E+02  0.34199624709E+02  0.10500000000E+00 0.  1.
         13    1    6    6    0    0  0.20537253091E+01  0.10551406420E+02 -0.39082704016E+01  0.11438337625E+02  0.10500000000E+00 0. -1.
</event>
<event>
11    0  0.3510903E-009  0.9118800E+02  0.7816531E-02  0.1126479E+00
         25   -1    0    0    0    0  0.00000000000E+00  0.00000000000E+00  0.99999998245E-14  0.12500000000E+03  0.12500000000E+03 0.  0.
    3000001    1    3    3    0    0 -0.11330329374E+02 -0.33657393752E+02 -0.33063116347E+02  0.48532114940E+02  0.10000000000E+01 0. -1.
    1000022    2    1    0    0    0 -0.96141281873E+01 -0.44770714834E+02 -0.41344909171E+02  0.62500001200E+02  0.10000013404E+02 0.  0.
    3000022    2    3    3    0    0  0.17162011870E+01 -0.11113321082E+02 -0.82817928235E+01  0.13967886260E+02  0.25000444381E+00 0.  0.
    1000022    2    1    0    0    0  0.96141281873E+01  0.44770714834E+02  0.41344909171E+02  0.62499998800E+02  0.99999984065E+01 0.  0.
    3000022    2    5    5    0    0  0.59145552160E+01  0.36335454943E+02  0.27993087811E+02  0.46248488617E+02  0.24996972882E+00 0.  0.
        -13    1    4    4    0    0  0.10572843099E+01 -0.70007393557E+01 -0.52818157658E+01  0.88338442607E+01  0.10500000000E+00 0.  1.
         13    1    4    4    0    0  0.65891687706E+00 -0.41125817261E+01 -0.29999770577E+01  0.51340419994E+01  0.10500000000E+00 0. -1.
    3000001    1    5    5    0    0  0.36995729713E+01  0.84352598910E+01  0.13351821360E+02  0.16251510183E+02  0.10000000000E+01 0.  1.
        -13    1    6    6    0    0  0.19143906240E+01  0.12004926137E+02  0.92885932657E+01  0.15299416096E+02  0.10500000000E+00 0. -1.
         13    1    6    6    0    0  0.40001645919E+01  0.24330528806E+02  0.18704494545E+02  0.30949072521E+02  0.10500000000E+00 0.  1.
</event>
<event>
11    0  0.3510903E-009  0.9118800E+02  0.7816531E-02  0.1126479E+00
         25   -1    0    0    0    0  0.00000000000E+00  0.00000000000E+00  0.99999998245E-14  0.12500000000E+03  0.12500000000E+03 0.  0.
    3000001    1    3    3    0    0 -0.19551579196E+01  0.13242611343E+01 -0.38409725435E+00  0.25930369729E+01  0.10000000000E+01 0.  1.
    1000022    2    1    0    0    0 -0.39181185033E+02  0.35609199663E+02  0.31671282225E+02  0.62499997896E+02  0.99999628986E+01 0.  0.
    3000022    2    3    3    0    0 -0.37226027113E+02  0.34284938529E+02  0.32055379479E+02  0.59906960923E+02  0.25001776658E+00 0.  0.
    1000022    2    1    0    0    0  0.39181185033E+02 -0.35609199663E+02 -0.31671282225E+02  0.62500002104E+02  0.99999892029E+01 0.  0.
    3000022    2    5    5    0    0  0.22893941224E+02 -0.21290301171E+02 -0.24215963632E+02  0.39545984150E+02  0.24999811446E+00 0.  0.
        -13    1    4    4    0    0 -0.14444857530E+02  0.13269977797E+02  0.12491094344E+02  0.23254777632E+02  0.10500000000E+00 0.  1.
         13    1    4    4    0    0 -0.22781169584E+02  0.21014960731E+02  0.19564285136E+02  0.36652183291E+02  0.10500000000E+00 0. -1.
    3000001    1    5    5    0    0  0.16287243809E+02 -0.14318898492E+02 -0.74553185925E+01  0.22954017954E+02  0.10000000000E+01 0. -1.
        -13    1    6    6    0    0  0.16398314974E+02 -0.15246737959E+02 -0.17395110306E+02  0.28354340760E+02  0.10500000000E+00 0. -1.
         13    1    6    6    0    0  0.64956262497E+01 -0.60435632121E+01 -0.68208533265E+01  0.11191643390E+02  0.10500000000E+00 0.  1.
</event>
<event>
11    0  0.3510903E-009  0.9118800E+02  0.7816531E-02  0.1126479E+00
         25   -1    0    0    0    0  0.00000000000E+00  0.00000000000E+00  0.99999998245E-14  0.12500000000E+03  0.12500000000E+03 0.  0.
    3000001    1    3    3    0    0 -0.20861060243E+02 -0.12661080395E+02  0.97220689104E+01  0.26286981856E+02  0.10000000000E+01 0.  1.
    1000022    2    1    0    0    0 -0.49563996162E+02 -0.34573916831E+02  0.12421933669E+02  0.62500000239E+02  0.10000007660E+02 0.  0.
    3000022    2    3    3    0    0 -0.28702935919E+02 -0.21912836436E+02  0.26998647582E+01  0.36213018382E+02  0.24999919815E+00 0.  0.
    1000022    2    1    0    0    0  0.49563996162E+02  0.34573916831E+02 -0.12421933669E+02  0.62499999761E+02  0.10000004677E+02 0.  0.
    3000022    2    5    5    0    0  0.32758466463E+02  0.24426702833E+02 -0.12856169022E+02  0.42838353321E+02  0.24999416910E+00 0.  0.
        -13    1    4    4    0    0 -0.72815728427E+01 -0.55317002250E+01  0.66569523404E+00  0.91692521826E+01  0.10500000000E+00 0.  1.
         13    1    4    4    0    0 -0.21421363076E+02 -0.16381136211E+02  0.20341695242E+01  0.27043766200E+02  0.10500000000E+00 0. -1.
    3000001    1    5    5    0    0  0.16805529699E+02  0.10147213998E+02  0.43423535358E+00  0.19661646440E+02  0.10000000000E+01 0.  1.
        -13    1    6    6    0    0  0.21464272484E+02  0.16068036739E+02 -0.84595601744E+01  0.28115333561E+02  0.10500000000E+00 0. -1.
         13    1    6    6    0    0  0.11294193979E+02  0.83586660938E+01 -0.43966088478E+01  0.14723019760E+02  0.10500000000E+00 0.  1.
</event>
<event>
11    0  0.3510903E-009  0.9118800E+02  0.7816531E-02  0.1126479E+00
         25   -1    0    0    0    0  0.00000000000E+00  0.00000000000E+00  0.99999998245E-14  0.12500000000E+03  0.12500000000E+03 0.  0.
    3000001    1    3    3    0    0 -0.29199929779E+02  0.34630715746E+02 -0.28063978824E+01  0.45396015698E+02  0.10000000000E+01 0.  1.
    1000022    2    1    0    0    0 -0.42457269947E+02  0.44010361716E+02 -0.81681803990E+01  0.62499992991E+02  0.99999121567E+01 0.  0.
    3000022    2    3    3    0    0 -0.13257340168E+02  0.93796459697E+01 -0.53617825166E+01  0.17103977293E+02  0.25000127125E+00 0.  0.
    1000022    2    1    0    0    0  0.42457269947E+02 -0.44010361716E+02  0.81681803990E+01  0.62500007009E+02  0.99999997690E+01 0.  0.
    3000022    2    5    5    0    0  0.23770845215E+02 -0.26221863783E+02 -0.86660785184E-01  0.35393632649E+02  0.24999900607E+00 0.  0.
        -13    1    4    4    0    0 -0.45988585170E+01  0.32624988692E+01 -0.18032869963E+01  0.59208333469E+01  0.10500000000E+00 0.  1.
         13    1    4    4    0    0 -0.86584816509E+01  0.61171471005E+01 -0.35584955203E+01  0.11183143946E+02  0.10500000000E+00 0. -1.
    3000001    1    5    5    0    0  0.18686424732E+02 -0.17788497933E+02  0.82548411842E+01  0.27106374360E+02  0.10000000000E+01 0.  1.
        -13    1    6    6    0    0  0.94475775657E+01 -0.10457617984E+02 -0.92567528196E-01  0.14093902565E+02  0.10500000000E+00 0. -1.
         13    1    6    6    0    0  0.14323267649E+02 -0.15764245799E+02  0.59067430122E-02  0.21299730084E+02  0.10500000000E+00 0.  1.
</event>
<event>
11    0  0.3510903E-009  0.9118800E+02  0.7816531E-02  0.1126479E+00
         25   -1    0    0    0    0  0.00000000000E+00  0.00000000000E+00  0.99999998245E-14  0.12500000000E+03  0.12500000000E+03 0.  0.
    3000001    1    3    3    0    0  0.35526673071E+02 -0.21299005872E+02 -0.26312386774E+02  0.49082928279E+02  0.10000000000E+01 0. -1.
    1000022    2    1    0    0    0  0.43417123133E+02 -0.31167715949E+02 -0.30818453960E+02  0.62499998857E+02  0.99999827016E+01 0.  0.
    3000022    2    3    3    0    0  0.78904500612E+01 -0.98687100770E+01 -0.45060671861E+01  0.13417070578E+02  0.25000133258E+00 0.  0.
    1000022    2    1    0    0    0 -0.43417123133E+02  0.31167715949E+02  0.30818453960E+02  0.62500001143E+02  0.99999969888E+01 0.  0.
    3000022    2    5    5    0    0 -0.18721612872E+02  0.14060429858E+02  0.79382395633E+01  0.24723928355E+02  0.25001923916E+00 0.  0.
        -13    1    4    4    0    0  0.23988036806E+01 -0.30583383113E+01 -0.13533598922E+01  0.41170742430E+01  0.10500000000E+00 0. -1.
         13    1    4    4    0    0  0.54916463806E+01 -0.68103717657E+01 -0.31527072939E+01  0.92999963353E+01  0.10500000000E+00 0.  1.
    3000001    1    5    5    0    0 -0.24695510261E+02  0.17107286091E+02  0.22880214396E+02  0.37776072788E+02  0.10000000000E+01 0.  1.
        -13    1    6    6    0    0 -0.60340912088E+01  0.45253441581E+01  0.25035682999E+01  0.79478220726E+01  0.10500000000E+00 0.  1.
         13    1    6    6    0    0 -0.12687521663E+02  0.95350857001E+01  0.54346712634E+01  0.16776106283E+02  0.10500000000E+00 0. -1.
</event>
<event>
11    0  0.3510903E-009  0.9118800E+02  0.7816531E-02  0.1126479E+00
         25   -1    0    0    0    0  0.00000000000E+00  0.00000000000E+00  0.99999998245E-14  0.12500000000E+03  0.12500000000E+03 0.  0.
    3000001    1    3    3    0    0  0.40466556141E+01  0.17325845157E+01 -0.43308061981E+01  0.62556496936E+01  0.10000000000E+01 0.  1.
    1000022    2    1    0    0    0  0.51358351928E+02  0.28168965228E+02 -0.19366957842E+02  0.62500002192E+02  0.10000015161E+02 0.  0.
    3000022    2    3    3    0    0  0.47311696314E+02  0.26436380712E+02 -0.15036151644E+02  0.56244352498E+02  0.24999699102E+00 0.  0.
    1000022    2    1    0    0    0 -0.51358351928E+02 -0.28168965228E+02  0.19366957842E+02  0.62499997808E+02  0.99999877607E+01 0.  0.
    3000022    2    5    5    0    0 -0.38354246293E+01 -0.51195836543E+01  0.37209105644E+01  0.74046131979E+01  0.25000460248E+00 0.  0.
        -13    1    4    4    0    0  0.19076368040E+02  0.10630363403E+02 -0.61190476309E+01  0.22679643132E+02  0.10500000000E+00 0. -1.
         13    1    4    4    0    0  0.28235328274E+02  0.15806017309E+02 -0.89171040131E+01  0.33564709367E+02  0.10500000000E+00 0.  1.
    3000001    1    5    5    0    0 -0.47522927298E+02 -0.23049381573E+02  0.15646047278E+02  0.55095384610E+02  0.10000000000E+01 0.  1.
        -13    1    6    6    0    0 -0.25103531895E+01 -0.33827337456E+01  0.23896041449E+01  0.48441711055E+01  0.10500000000E+00 0.  1.
         13    1    6    6    0    0 -0.13250714399E+01 -0.17368499087E+01  0.13313064196E+01  0.25604420925E+01  0.10500000000E+00 0. -1.
</event>
<event>
11    0  0.3510903E-009  0.9118800E+02  0.7816531E-02  0.1126479E+00
         25   -1    0    0    0    0  0.00000000000E+00  0.00000000000E+00  0.99999998245E-14  0.12500000000E+03  0.12500000000E+03 0.  0.
    3000001    1    3    3    0    0 -0.20403559249E+02 -0.11536800755E+02  0.29802266332E+02  0.37928591856E+02  0.10000000000E+01 0. -1.
    1000022    2    1    0    0    0 -0.28799418530E+02 -0.13825554293E+02  0.52779707167E+02  0.62500000756E+02  0.10000007336E+02 0.  0.
    3000022    2    3    3    0    0 -0.83958592816E+01 -0.22887535388E+01  0.22977440835E+02  0.24571408900E+02  0.25000436487E+00 0.  0.
    1000022    2    1    0    0    0  0.28799418530E+02  0.13825554293E+02 -0.52779707167E+02  0.62499999244E+02  0.99999978799E+01 0.  0.
    3000022    2    5    5    0    0  0.14491338689E+02  0.12240280199E+02 -0.32014352940E+02  0.37212963457E+02  0.24999744374E+00 0.  0.
        -13    1    4    4    0    0 -0.64571937219E+01 -0.17598482160E+01  0.17691432773E+02  0.18915343905E+02  0.10500000000E+00 0. -1.
         13    1    4    4    0    0 -0.19386655597E+01 -0.52890532278E+00  0.52860080620E+01  0.56560649947E+01  0.10500000000E+00 0.  1.
    3000001    1    5    5    0    0  0.14308079841E+02  0.15852740940E+01 -0.20765354227E+02  0.25287035786E+02  0.10000000000E+01 0.  1.
        -13    1    6    6    0    0  0.52560485858E+01  0.45149790684E+01 -0.11718398974E+02  0.13614072948E+02  0.10500000000E+00 0. -1.
         13    1    6    6    0    0  0.92352901035E+01  0.77253011310E+01 -0.20295953967E+02  0.23598890509E+02  0.10500000000E+00 0.  1.
</event>
<event>
11    0  0.3510903E-009  0.9118800E+02  0.7816531E-02  0.1126479E+00
         25   -1    0    0    0    0  0.00000000000E+00  0.00000000000E+00  0.99999998245E-14  0.12500000000E+03  0.12500000000E+03 0.  0.
    3000001    1    3    3    0    0 -0.61447983206E+01  0.43712513354E+02 -0.68580510096E+01  0.44683053093E+02  0.10000000000E+01 0.  1.
    1000022    2    1    0    0    0 -0.24570945240E+01  0.60699801398E+02 -0.10758563004E+02  0.62499999693E+02  0.10000004024E+02 0.  0.
    3000022    2    3    3    0    0  0.36877037966E+01  0.16987288044E+02 -0.39005119942E+01  0.17816946600E+02  0.24995585913E+00 0.  0.
    1000022    2    1    0    0    0  0.24570945240E+01 -0.60699801398E+02  0.10758563004E+02  0.62500000307E+02  0.10000007859E+02 0.  0.
    3000022    2    5    5    0    0 -0.36313003856E+01 -0.23611297903E+02  0.57224267419E+01  0.24566000880E+02  0.25000050717E+00 0.  0.
        -13    1    4    4    0    0  0.95545006684E+00  0.45673845050E+01 -0.10455348653E+01  0.47831008981E+01  0.10500000000E+00 0.  1.
         13    1    4    4    0    0  0.27322537298E+01  0.12419903539E+02 -0.28549771289E+01  0.13033845702E+02  0.10500000000E+00 0. -1.
    3000001    1    5    5    0    0  0.60883949096E+01 -0.37088503495E+02  0.50361362618E+01  0.37933999427E+02  0.10000000000E+01 0. -1.
        -13    1    6    6    0    0 -0.21436209567E+01 -0.13534484956E+02  0.32595272698E+01  0.14085912709E+02  0.10500000000E+00 0.  1.
         13    1    6    6    0    0 -0.14876794289E+01 -0.10076812947E+02  0.24628994722E+01  0.10480088171E+02  0.10500000000E+00 0. -1.
</event>
<event>
11    0  0.3510903E-009  0.9118800E+02  0.7816531E-02  0.1126479E+00
         25   -1    0    0    0    0  0.00000000000E+00  0.00000000000E+00  0.99999998245E-14  0.12500000000E+03  0.12500000000E+03 0.  0.
    3000001    1    3    3    0    0 -0.13303813941E+01  0.32861134608E+00  0.42420215805E+00  0.17486702209E+01  0.10000000000E+01 0. -1.
    1000022    2    1    0    0    0 -0.54423757844E+02 -0.42167590214E+01 -0.28749321511E+02  0.62499999427E+02  0.99999983259E+01 0.  0.
    3000022    2    3    3    0    0 -0.53093376450E+02 -0.45453703675E+01 -0.29173523669E+02  0.60751329206E+02  0.25000480567E+00 0.  0.
    1000022    2    1    0    0    0  0.54423757844E+02  0.42167590214E+01  0.28749321511E+02  0.62500000573E+02  0.10000005484E+02 0.  0.
    3000022    2    5    5    0    0  0.48629031742E+02  0.59955065278E+01  0.27642949067E+02  0.56257657000E+02  0.25002264576E+00 0.  0.
        -13    1    4    4    0    0 -0.19746950944E+02 -0.16500234027E+01 -0.10798399236E+02  0.22567257252E+02  0.10500000000E+00 0.  1.
         13    1    4    4    0    0 -0.33346425507E+02 -0.28953469648E+01 -0.18375124433E+02  0.38184071955E+02  0.10500000000E+00 0. -1.
    3000001    1    5    5    0    0  0.57947261029E+01 -0.17787475064E+01  0.11063724440E+01  0.62423435730E+01  0.10000000000E+01 0.  1.
        -13    1    6    6    0    0  0.18030844183E+02  0.22484045310E+01  0.10189285745E+02  0.20832648269E+02  0.10500000000E+00 0. -1.
         13    1    6    6    0    0  0.30598187559E+02  0.37471019967E+01  0.17453663321E+02  0.35425008731E+02  0.10500000000E+00 0.  1.
</event>
<event>
11    0  0.3510903E-009  0.9118800E+02  0.7816531E-02  0.1126479E+00
         25   -1    0    0    0    0  0.00000000000E+00  0.00000000000E+00  0.99999998245E-14  0.12500000000E+03  0.12500000000E+03 0.  0.
    3000001    1    3    3    0    0 -0.23691338331E+02  0.29825968879E+02  0.10276760227E+02  0.39464917740E+02  0.10000000000E+01 0. -1.
    1000022    2    1    0    0    0 -0.42579856619E+02  0.41601661965E+02  0.16202083854E+02  0.62500000343E+02  0.10000002683E+02 0.  0.
    3000022    2    3    3    0    0 -0.18888518288E+02  0.11775693086E+02  0.59253236264E+01  0.23035082602E+02  0.24999927060E+00 0.  0.
    1000022    2    1    0    0    0  0.42579856619E+02 -0.41601661965E+02 -0.16202083854E+02  0.62499999657E+02  0.99999984011E+01 0.  0.
    3000022    2    5    5    0    0  0.34748242908E+02 -0.31559763977E+02 -0.88732646948E+01  0.47772967411E+02  0.25000287552E+00 0.  0.
        -13    1    4    4    0    0 -0.65937328477E+01  0.41275245240E+01  0.21274313915E+01  0.80654051906E+01  0.10500000000E+00 0. -1.
         13    1    4    4    0    0 -0.12294785441E+02  0.76481685620E+01  0.37978922349E+01  0.14969677412E+02  0.10500000000E+00 0.  1.
    3000001    1    5    5    0    0  0.78316137113E+01 -0.10041897988E+02 -0.73288191590E+01  0.14727032246E+02  0.10000000000E+01 0.  1.
        -13    1    6    6    0    0  0.11269616667E+02 -0.10277276638E+02 -0.28408242137E+01  0.15514766583E+02  0.10500000000E+00 0. -1.
         13    1    6    6    0    0  0.23478626241E+02 -0.21282487339E+02 -0.60324404811E+01  0.32258200828E+02  0.10500000000E+00 0.  1.
</event>
<event>
11    0  0.3510903E-009  0.9118800E+02  0.7816531E-02  0.1126479E+00
         25   -1    0    0    0    0  0.00000000000E+00  0.00000000000E+00  0.99999998245E-14  0.12500000000E+03  0.12500000000E+03 0.  0.
    3000001    1    3    3    0    0  0.16503971168E+02  0.21098049768E+02 -0.21870117804E+02  0.34594953694E+02  0.10000000000E+01 0.  1.
    1000022    2    1    0    0    0  0.30914885917E+02  0.42741574586E+02 -0.31994964636E+02  0.62500000882E+02  0.99999989425E+01 0.  0.
    3000022    2    3    3    0    0  0.14410914749E+02  0.21643524818E+02 -0.10124846831E+02  0.27905047187E+02  0.25000948097E+00 0.  0.
    1000022    2    1    0    0    0 -0.30914885917E+02 -0.42741574586E+02  0.31994964636E+02  0.62499999118E+02  0.99999879209E+01 0.  0.
    3000022    2    5    5    0    0 -0.75428709209E+01 -0.13932017849E+02  0.14474519248E+02  0.21460900068E+02  0.25000231190E+00 0.  0.
        -13    1    4    4    0    0  0.40400063556E+01  0.61404938064E+01 -0.28576707169E+01  0.78869907104E+01  0.10500000000E+00 0.  1.
         13    1    4    4    0    0  0.10370908393E+02  0.15503031011E+02 -0.72671761145E+01  0.20018056477E+02  0.10500000000E+00 0. -1.
    3000001    1    5    5    0    0 -0.23372014996E+02 -0.28809556736E+02  0.17520445387E+02  0.41039099051E+02  0.10000000000E+01 0.  1.
        -13    1    6    6    0    0 -0.18649858900E+01 -0.34117056824E+01  0.35296461588E+01  0.52523647093E+01  0.10500000000E+00 0.  1.
         13    1    6    6    0    0 -0.56778850309E+01 -0.10520312167E+02  0.10944873090E+02  0.16208535358E+02  0.10500000000E+00 0. -1.
</event>
<event>
11    0  0.3510903E-009  0.9118800E+02  0.7816531E-02  0.1126479E+00
         25   -1    0    0    0    0  0.00000000000E+00  0.00000000000E+00  0.99999998245E-14  0.12500000000E+03  0.12500000000E+03 0.  0.
    3000001    1    3    3    0    0 -0.24061022460E+02  0.46867336025E+02  0.13620738572E+02  0.54424300704E+02  0.10000000000E+01 0. -1.
    1000022    2    1    0    0    0 -0.30488620413E+02  0.51711123347E+02  0.14235654012E+02  0.62499999596E+02  0.99999925939E+01 0.  0.
    3000022    2    3    3    0    0 -0.64275979531E+01  0.48437873223E+01  0.61491543993E+00  0.80756988922E+01  0.25000105802E+00 0.  0.
    1000022    2    1    0    0    0  0.30488620413E+02 -0.51711123347E+02 -0.14235654012E+02  0.62500000404E+02  0.99999976407E+01 0.  0.
    3000022    2    5    5    0    0  0.30640601909E+02 -0.48225387586E+02 -0.12552776365E+02  0.58499309295E+02  0.25000074812E+00 0.  0.
        -13    1    4    4    0    0 -0.17532067927E+01  0.12998602430E+01  0.19922202588E+00  0.21941023506E+01  0.10500000000E+00 0. -1.
         13    1    4    4    0    0 -0.46743911604E+01  0.35439270793E+01  0.41569341406E+00  0.58815965416E+01  0.10500000000E+00 0.  1.
    3000001    1    5    5    0    0 -0.15198149623E+00 -0.34857357617E+01 -0.16828776466E+01  0.40006911089E+01  0.10000000000E+01 0.  1.
        -13    1    6    6    0    0  0.23445619172E+02 -0.36896419007E+02 -0.96187187692E+01  0.44761295443E+02  0.10500000000E+00 0. -1.
         13    1    6    6    0    0  0.71949827365E+01 -0.11328968578E+02 -0.29340575959E+01  0.13738013852E+02  0.10500000000E+00 0.  1.
</event>
<event>
11    0  0.3510903E-009  0.9118800E+02  0.7816531E-02  0.1126479E+00
         25   -1    0    0    0    0  0.00000000000E+00  0.00000000000E+00  0.99999998245E-14  0.12500000000E+03  0.12500000000E+03 0.  0.
    3000001    1    3    3    0    0  0.11451234056E+02 -0.54608742481E+02 -0.41925889483E+01  0.55962695779E+02  0.10000000000E+01 0.  1.
    1000022    2    1    0    0    0  0.15449663235E+02 -0.59650292320E+02 -0.30660051679E+01  0.62500000404E+02  0.10000009744E+02 0.  0.
    3000022    2    3    3    0    0  0.39984291788E+01 -0.50415498383E+01  0.11265837803E+01  0.65373046243E+01  0.25000013357E+00 0.  0.
    1000022    2    1    0    0    0 -0.15449663235E+02  0.59650292320E+02  0.30660051679E+01  0.62499999596E+02  0.10000004698E+02 0.  0.
    3000022    2    5    5    0    0 -0.13729773905E+02  0.52521227999E+02  0.58308976035E+01  0.54598973867E+02  0.24999693803E+00 0.  0.
        -13    1    4    4    0    0  0.25256051046E+01 -0.31641453947E+01  0.76778116909E+00  0.41220153016E+01  0.10500000000E+00 0.  1.
         13    1    4    4    0    0  0.14728240742E+01 -0.18774044436E+01  0.35880261122E+00  0.24152893227E+01  0.10500000000E+00 0. -1.
    3000001    1    5    5    0    0 -0.17198893296E+01  0.71290643205E+01 -0.27648924356E+01  0.79010257291E+01  0.10000000000E+01 0.  1.
        -13    1    6    6    0    0 -0.90729386575E+01  0.34903160898E+02  0.38520617428E+01  0.36268419613E+02  0.10500000000E+00 0.  1.
         13    1    6    6    0    0 -0.46568352478E+01  0.17618067101E+02  0.19788358607E+01  0.18330554254E+02  0.10500000000E+00 0. -1.
</event>
<event>
11    0  0.3510903E-009  0.9118800E+02  0.7816531E-02  0.1126479E+00
         25   -1    0    0    0    0  0.00000000000E+00  0.00000000000E+00  0.99999998245E-14  0.12500000000E+03  0.12500000000E+03 0.  0.
    3000001    1    3    3    0    0  0.67998535145E+01 -0.23261237854E+02  0.17276605580E+02  0.29779259472E+02  0.10000000000E+01 0.  1.
    1000022    2    1    0    0    0  0.44678593624E+01 -0.51298526332E+02  0.33981599642E+02  0.62500003106E+02  0.10000035145E+02 0.  0.
    3000022    2    3    3    0    0 -0.23319941521E+01 -0.28037288478E+02  0.16704994061E+02  0.32720743634E+02  0.24999088041E+00 0.  0.
    1000022    2    1    0    0    0 -0.44678593624E+01  0.51298526332E+02 -0.33981599642E+02  0.62499996894E+02  0.99999963258E+01 0.  0.
    3000022    2    5    5    0    0  0.75263672872E+00  0.10167540614E+02 -0.11331256401E+02  0.15244842526E+02  0.25001562020E+00 0.  0.
        -13    1    4    4    0    0 -0.73213732965E+00 -0.86960914506E+01  0.51265271246E+01  0.10121775385E+02  0.10500000000E+00 0.  1.
         13    1    4    4    0    0 -0.15998568224E+01 -0.19341197028E+02  0.11578466937E+02  0.22598968249E+02  0.10500000000E+00 0. -1.
    3000001    1    5    5    0    0 -0.52204960911E+01  0.41130985717E+02 -0.22650343240E+02  0.47255154369E+02  0.10000000000E+01 0.  1.
        -13    1    6    6    0    0  0.57068748890E+00  0.74519682958E+01 -0.83483657639E+01  0.11205523264E+02  0.10500000000E+00 0.  1.
         13    1    6    6    0    0  0.18194923981E+00  0.27155723186E+01 -0.29828906372E+01  0.40393192616E+01  0.10500000000E+00 0. -1.
</event>
<event>
11    0  0.3510903E-009  0.9118800E+02  0.7816531E-02  0.1126479E+00
         25   -1    0    0    0    0  0.00000000000E+00  0.00000000000E+00  0.99999998245E-14  0.12500000000E+03  0.12500000000E+03 0.  0.
    3000001    1    3    3    0    0  0.12556760416E+02 -0.19472626655E+02 -0.47529022575E+01  0.23673730185E+02  0.10000000000E+01 0. -1.
    1000022    2    1    0    0    0  0.32212014430E+02 -0.46706023403E+02 -0.24231864559E+02  0.62500001979E+02  0.10000024577E+02 0.  0.
    3000022    2    3    3    0    0  0.19655254014E+02 -0.27233396748E+02 -0.19478962302E+02  0.38826271794E+02  0.25000053555E+00 0.  0.
    1000022    2    1    0    0    0 -0.32212014430E+02  0.46706023403E+02  0.24231864559E+02  0.62499998021E+02  0.99999998408E+01 0.  0.
    3000022    2    5    5    0    0 -0.15605291169E+02  0.18013514904E+02  0.56979828177E+01  0.24505944883E+02  0.24998949942E+00 0.  0.
        -13    1    4    4    0    0  0.70528232974E+01 -0.98362673794E+01 -0.69686052438E+01  0.13966637264E+02  0.10500000000E+00 0. -1.
         13    1    4    4    0    0  0.12602430717E+02 -0.17397129369E+02 -0.12510357058E+02  0.24859634530E+02  0.10500000000E+00 0.  1.
    3000001    1    5    5    0    0 -0.16606723261E+02  0.28692508499E+02  0.18533881741E+02  0.37994053138E+02  0.10000000000E+01 0.  1.
        -13    1    6    6    0    0 -0.98077442229E+01  0.11390741672E+02  0.36329130492E+01  0.15464472988E+02  0.10500000000E+00 0.  1.
         13    1    6    6    0    0 -0.57975469459E+01  0.66227732323E+01  0.20650697684E+01  0.90414718948E+01  0.10500000000E+00 0. -1.
</event>
<event>
11    0  0.3510903E-009  0.9118800E+02  0.7816531E-02  0.1126479E+00
         25   -1    0    0    0    0  0.00000000000E+00  0.00000000000E+00  0.99999998245E-14  0.12500000000E+03  0.12500000000E+03 0.  0.
    3000001    1    3    3    0    0 -0.12657985950E+02  0.32868748039E+00  0.82485557777E+01  0.15145009613E+02  0.10000000000E+01 0.  1.
    1000022    2    1    0    0    0 -0.41735594295E+02 -0.71209101130E+01  0.44874077109E+02  0.62500000101E+02  0.10000001218E+02 0.  0.
    3000022    2    3    3    0    0 -0.29077608344E+02 -0.74495975934E+01  0.36625521331E+02  0.47354990488E+02  0.25000001571E+00 0.  0.
    1000022    2    1    0    0    0  0.41735594295E+02  0.71209101130E+01 -0.44874077109E+02  0.62499999899E+02  0.99999999524E+01 0.  0.
    3000022    2    5    5    0    0  0.15780943497E+02  0.38497906349E+01 -0.10707176723E+02  0.19456751850E+02  0.24998714779E+00 0.  0.
        -13    1    4    4    0    0 -0.16851844670E+02 -0.42520762516E+01  0.21228900242E+02  0.27436144987E+02  0.10500000000E+00 0. -1.
         13    1    4    4    0    0 -0.12225763675E+02 -0.31975213418E+01  0.15396621089E+02  0.19918845501E+02  0.10500000000E+00 0.  1.
    3000001    1    5    5    0    0  0.25954650797E+02  0.32711194782E+01 -0.34166900385E+02  0.43043248049E+02  0.10000000000E+01 0. -1.
        -13    1    6    6    0    0  0.10295715932E+02  0.24589582545E+01 -0.70047366046E+01  0.12693525993E+02  0.10500000000E+00 0.  1.
         13    1    6    6    0    0  0.54852275656E+01  0.13908323803E+01 -0.37024401185E+01  0.67632258566E+01  0.10500000000E+00 0. -1.
</event>
<event>
11    0  0.3510903E-009  0.9118800E+02  0.7816531E-02  0.1126479E+00
         25   -1    0    0    0    0  0.00000000000E+00  0.00000000000E+00  0.99999998245E-14  0.12500000000E+03  0.12500000000E+03 0.  0.
    3000001    1    3    3    0    0 -0.79362786141E+01  0.12602913061E+01  0.17465959381E+02  0.19251820421E+02  0.10000000000E+01 0.  1.
    1000022    2    1    0    0    0 -0.19119136725E+02 -0.90003005323E+01  0.57962950140E+02  0.62499997515E+02  0.99999650838E+01 0.  0.
    3000022    2    3    3    0    0 -0.11182858110E+02 -0.10260591838E+02  0.40496990759E+02  0.43248177094E+02  0.25000208276E+00 0.  0.
    1000022    2    1    0    0    0  0.19119136725E+02  0.90003005323E+01 -0.57962950140E+02  0.62500002485E+02  0.99999961431E+01 0.  0.
    3000022    2    5    5    0    0  0.10213347034E+02  0.10072408603E+02 -0.36263265077E+02  0.38998112400E+02  0.25000794515E+00 0.  0.
        -13    1    4    4    0    0 -0.62059295588E+01 -0.56322371004E+01  0.22223456192E+02  0.23751393360E+02  0.10500000000E+00 0.  1.
         13    1    4    4    0    0 -0.49769285516E+01 -0.46283547380E+01  0.18273534567E+02  0.19496783734E+02  0.10500000000E+00 0. -1.
    3000001    1    5    5    0    0  0.89057896909E+01 -0.10721080711E+01 -0.21699685063E+02  0.23501890085E+02  0.10000000000E+01 0. -1.
        -13    1    6    6    0    0  0.56414761020E+01  0.56468405403E+01 -0.20258749123E+02  0.21774779028E+02  0.10500000000E+00 0.  1.
         13    1    6    6    0    0  0.45718709316E+01  0.44255680630E+01 -0.16004515955E+02  0.17223333372E+02  0.10500000000E+00 0. -1.
</event>
<event>
11    0  0.3510903E-009  0.9118800E+02  0.7816531E-02  0.1126479E+00
         25   -1    0    0    0    0  0.00000000000E+00  0.00000000000E+00  0.99999998245E-14  0.12500000000E+03  0.12500000000E+03 0.  0.
    3000001    1    3    3    0    0 -0.23301779314E+01 -0.38899692860E+01 -0.43565532931E+01  0.63671930106E+01  0.10000000000E+01 0.  1.
    1000022    2    1    0    0    0  0.20937651352E+01 -0.49679303035E+02 -0.36521680836E+02  0.62500002364E+02  0.10000006099E+02 0.  0.
    3000022    2    3    3    0    0  0.44239430666E+01 -0.45789333749E+02 -0.32165127542E+02  0.56132809353E+02  0.24999735315E+00 0.  0.
    1000022    2    1    0    0    0 -0.20937651352E+01  0.49679303035E+02  0.36521680836E+02  0.62499997636E+02  0.99999765516E+01 0.  0.
    3000022    2    5    5    0    0 -0.58667012083E+01  0.27777345324E+02  0.22218986274E+02  0.36051975595E+02  0.24999390062E+00 0.  0.
        -13    1    4    4    0    0  0.20053419952E+01 -0.21251940684E+02 -0.14867627308E+02  0.26013914471E+02  0.10500000000E+00 0.  1.
         13    1    4    4    0    0  0.24186010714E+01 -0.24537393065E+02 -0.17297500234E+02  0.30118894882E+02  0.10500000000E+00 0. -1.
    3000001    1    5    5    0    0  0.37729360732E+01  0.21901957710E+02  0.14302694562E+02  0.26448022041E+02  0.10000000000E+01 0.  1.
        -13    1    6    6    0    0 -0.22265285051E+01  0.10808748372E+02  0.86013128106E+01  0.13992143425E+02  0.10500000000E+00 0. -1.
         13    1    6    6    0    0 -0.36401727032E+01  0.16968596952E+02  0.13617673463E+02  0.22059832171E+02  0.10500000000E+00 0.  1.
</event>
<event>
11    0  0.3510903E-009  0.9118800E+02  0.7816531E-02  0.1126479E+00
         25   -1    0    0    0    0  0.00000000000E+00  0.00000000000E+00  0.99999998245E-14  0.12500000000E+03  0.12500000000E+03 0.  0.
    3000001    1    3    3    0    0 -0.16423641483E+02 -0.56529715815E+01  0.96177460663E+01  0.19879464949E+02  0.10000000000E+01 0. -1.
    1000022    2    1    0    0    0 -0.49733722250E+02 -0.29287114605E+02  0.21796138219E+02  0.62499999088E+02  0.10000001697E+02 0.  0.
    3000022    2    3    3    0    0 -0.33310080766E+02 -0.23634143024E+02  0.12178392153E+02  0.42620534138E+02  0.24999530974E+00 0.  0.
    1000022    2    1    0    0    0  0.49733722250E+02  0.29287114605E+02 -0.21796138219E+02  0.62500000912E+02  0.10000013102E+02 0.  0.
    3000022    2    5    5    0    0  0.49209898015E+02  0.28685631699E+02 -0.20160093588E+02  0.60423268972E+02  0.25006245356E+00 0.  0.
        -13    1    4    4    0    0 -0.22086737846E+02 -0.15717209300E+02  0.81234057672E+01  0.28299388741E+02  0.10500000000E+00 0.  1.
         13    1    4    4    0    0 -0.11223342921E+02 -0.79169337241E+01  0.40549863856E+01  0.14321145397E+02  0.10500000000E+00 0. -1.
    3000001    1    5    5    0    0  0.52382423536E+00  0.60148290662E+00 -0.16360446315E+01  0.20767319405E+01  0.10000000000E+01 0.  1.
        -13    1    6    6    0    0  0.29648776676E+02  0.17355439712E+02 -0.12164485027E+02  0.36445122677E+02  0.10500000000E+00 0.  1.
         13    1    6    6    0    0  0.19561121339E+02  0.11330191987E+02 -0.79956085604E+01  0.23978146295E+02  0.10500000000E+00 0. -1.
</event>
<event>
11    0  0.3510903E-009  0.9118800E+02  0.7816531E-02  0.1126479E+00
         25   -1    0    0    0    0  0.00000000000E+00  0.00000000000E+00  0.99999998245E-14  0.12500000000E+03  0.12500000000E+03 0.  0.
    3000001    1    3    3    0    0 -0.22821221865E+02 -0.90936729535E+01  0.27466906667E+02  0.36863722235E+02  0.10000000000E+01 0. -1.
    1000022    2    1    0    0    0 -0.39997687599E+02 -0.21867076487E+02  0.41572417514E+02  0.62500000205E+02  0.10000004015E+02 0.  0.
    3000022    2    3    3    0    0 -0.17176465734E+02 -0.12773403534E+02  0.14105510847E+02  0.25636277970E+02  0.24999786643E+00 0.  0.
    1000022    2    1    0    0    0  0.39997687599E+02  0.21867076487E+02 -0.41572417514E+02  0.62499999795E+02  0.10000001454E+02 0.  0.
    3000022    2    5    5    0    0  0.28262512176E+02  0.10795137791E+02 -0.23955091237E+02  0.38590329077E+02  0.25001534611E+00 0.  0.
        -13    1    4    4    0    0 -0.77838306497E+01 -0.58691463950E+01  0.64442887706E+01  0.11686521371E+02  0.10500000000E+00 0. -1.
         13    1    4    4    0    0 -0.93926350841E+01 -0.69042571385E+01  0.76612220766E+01  0.13949756599E+02  0.10500000000E+00 0.  1.
    3000001    1    5    5    0    0  0.11735175423E+02  0.11071938696E+02 -0.17617326277E+02  0.23909670718E+02  0.10000000000E+01 0. -1.
        -13    1    6    6    0    0  0.77995245030E+01  0.30121400509E+01 -0.66496944068E+01  0.10683399780E+02  0.10500000000E+00 0.  1.
         13    1    6    6    0    0  0.20462987673E+02  0.77829977397E+01 -0.17305396830E+02  0.27906929297E+02  0.10500000000E+00 0. -1.
</event>
<event>
11    0  0.3510903E-009  0.9118800E+02  0.7816531E-02  0.1126479E+00
         25   -1    0    0    0    0  0.00000000000E+00  0.00000000000E+00  0.99999998245E-14  0.12500000000E+03  0.12500000000E+03 0.  0.
    3000001    1    3    3    0    0  0.26545992455E+02  0.74940133220E+01  0.17552920882E+02  0.32710166349E+02  0.10000000000E+01 0.  1.
    1000022    2    1    0    0    0  0.46204934602E+02  0.89767110434E+01  0.39884495394E+02  0.62499998845E+02  0.99999779980E+01 0.  0.
    3000022    2    3    3    0    0  0.19658942147E+02  0.14826977214E+01  0.22331574513E+02  0.29789832496E+02  0.25000205532E+00 0.  0.
    1000022    2    1    0    0    0 -0.46204934602E+02 -0.89767110434E+01 -0.39884495394E+02  0.62500001155E+02  0.99999924417E+01 0.  0.
    3000022    2    5    5    0    0 -0.94490945451E+01 -0.50139465584E+01 -0.12669366891E+02  0.16583136061E+02  0.24999277186E+00 0.  0.
        -13    1    4    4    0    0  0.77303094774E+01  0.53349893245E+00  0.87199551193E+01  0.11665802502E+02  0.10500000000E+00 0.  1.
         13    1    4    4    0    0  0.11928632670E+02  0.94919878890E+00  0.13611619394E+02  0.18124029994E+02  0.10500000000E+00 0. -1.
    3000001    1    5    5    0    0 -0.36755840057E+02 -0.39627644850E+01 -0.27215128504E+02  0.45916865095E+02  0.10000000000E+01 0.  1.
        -13    1    6    6    0    0 -0.54332910424E+01 -0.29295852753E+01 -0.72321792075E+01  0.95088675733E+01  0.10500000000E+00 0.  1.
         13    1    6    6    0    0 -0.40158035026E+01 -0.20843612831E+01 -0.54371876830E+01  0.70742684873E+01  0.10500000000E+00 0. -1.
</event>
<event>
11    0  0.3510903E-009  0.9118800E+02  0.7816531E-02  0.1126479E+00
         25   -1    0    0    0    0  0.00000000000E+00  0.00000000000E+00  0.99999998245E-14  0.12500000000E+03  0.12500000000E+03 0.  0.
    3000001    1    3    3    0    0  0.27182713606E+01 -0.61455576227E+01 -0.77800910289E+01  0.10328925118E+02  0.10000000000E+01 0. -1.
    1000022    2    1    0    0    0 -0.16191634756E+01 -0.47010466032E+02 -0.39920477924E+02  0.62500000121E+02  0.99999925266E+01 0.  0.
    3000022    2    3    3    0    0 -0.43374348362E+01 -0.40864908409E+02 -0.32140386896E+02  0.52171075003E+02  0.25003379353E+00 0.  0.
    1000022    2    1    0    0    0  0.16191634756E+01  0.47010466032E+02  0.39920477924E+02  0.62499999879E+02  0.99999910140E+01 0.  0.
    3000022    2    5    5    0    0 -0.20257238515E+01  0.20296390060E+02  0.22571141011E+02  0.30423114900E+02  0.25001411334E+00 0.  0.
        -13    1    4    4    0    0 -0.33345489257E+01 -0.31318149985E+02 -0.24622533638E+02  0.39977817884E+02  0.10500000000E+00 0.  1.
         13    1    4    4    0    0 -0.10028859105E+01 -0.95467584239E+01 -0.75178532572E+01  0.12193257118E+02  0.10500000000E+00 0. -1.
    3000001    1    5    5    0    0  0.36448873271E+01  0.26714075972E+02  0.17349336913E+02  0.32076884979E+02  0.10000000000E+01 0. -1.
        -13    1    6    6    0    0 -0.51279298321E+00  0.53383268305E+01  0.59744818964E+01  0.80290814496E+01  0.10500000000E+00 0. -1.
         13    1    6    6    0    0 -0.15129308683E+01  0.14958063230E+02  0.16596659115E+02  0.22394033450E+02  0.10500000000E+00 0.  1.
</event>
<event>
11    0  0.3510903E-009  0.9118800E+02  0.7816531E-02  0.1126479E+00
         25   -1    0    0    0    0  0.00000000000E+00  0.00000000000E+00  0.99999998245E-14  0.12500000000E+03  0.12500000000E+03 0.  0.
    3000001    1    3    3    0    0  0.39533892884E+02 -0.73270780730E+01  0.30018943546E+02  0.50187166998E+02  0.10000000000E+01 0. -1.
    1000022    2    1    0    0    0  0.47642907158E+02 -0.13726284958E+02  0.36715016420E+02  0.62499999854E+02  0.10000002492E+02 0.  0.
    3000022    2    3    3    0    0  0.81090142736E+01 -0.63992068849E+01  0.66960728745E+01  0.12312832856E+02  0.24999952463E+00 0.  0.
    1000022    2    1    0    0    0 -0.47642907158E+02  0.13726284958E+02 -0.36715016420E+02  0.62500000146E+02  0.10000004318E+02 0.  0.
    3000022    2    5    5    0    0 -0.30552780442E+02  0.42279213370E+01 -0.24828545512E+02  0.39596298846E+02  0.24999685717E+00 0.  0.
        -13    1    4    4    0    0  0.23259143474E+01 -0.18761946672E+01  0.19039999227E+01  0.35448871190E+01  0.10500000000E+00 0.  1.
         13    1    4    4    0    0  0.57830999262E+01 -0.45230122177E+01  0.47920729518E+01  0.87679457374E+01  0.10500000000E+00 0. -1.
    3000001    1    5    5    0    0 -0.17090126715E+02  0.94983636209E+01 -0.11886470908E+02  0.22903701300E+02  0.10000000000E+01 0. -1.
        -13    1    6    6    0    0 -0.21369584033E+02  0.29773596353E+01 -0.17314682094E+02  0.27664653136E+02  0.10500000000E+00 0. -1.
         13    1    6    6    0    0 -0.91831964096E+01  0.12505617017E+01 -0.75138634181E+01  0.11931645709E+02  0.10500000000E+00 0.  1.
</event>
<event>
11    0  0.3510903E-009  0.9118800E+02  0.7816531E-02  0.1126479E+00
         25   -1    0    0    0    0  0.00000000000E+00  0.00000000000E+00  0.99999998245E-14  0.12500000000E+03  0.12500000000E+03 0.  0.
    3000001    1    3    3    0    0 -0.10752604058E+02  0.12898767490E+02 -0.65122294810E+01  0.18039008554E+02  0.10000000000E+01 0.  1.
    1000022    2    1    0    0    0 -0.47556777151E+02  0.36526998678E+02 -0.14504527094E+02  0.62500000298E+02  0.10000002284E+02 0.  0.
    3000022    2    3    3    0    0 -0.36804173093E+02  0.23628231188E+02 -0.79922976130E+01  0.44460991745E+02  0.24999932372E+00 0.  0.
    1000022    2    1    0    0    0  0.47556777151E+02 -0.36526998678E+02  0.14504527094E+02  0.62499999702E+02  0.99999985587E+01 0.  0.
    3000022    2    5    5    0    0  0.60902456461E+01 -0.27871868719E+01  0.45819535178E+01  0.81188853140E+01  0.24999602672E+00 0.  0.
        -13    1    4    4    0    0 -0.92686949042E+01  0.59819349702E+01 -0.20078727866E+01  0.11213154299E+02  0.10500000000E+00 0. -1.
         13    1    4    4    0    0 -0.27535478188E+02  0.17646296218E+02 -0.59844248265E+01  0.33247837445E+02  0.10500000000E+00 0.  1.
    3000001    1    5    5    0    0  0.41466531504E+02 -0.33739811806E+02  0.99225735762E+01  0.54381114388E+02  0.10000000000E+01 0.  1.
        -13    1    6    6    0    0  0.24949586750E+01 -0.11648338565E+01  0.19575488421E+01  0.33800412974E+01  0.10500000000E+00 0.  1.
         13    1    6    6    0    0  0.35952869711E+01 -0.16223530154E+01  0.26244046757E+01  0.47388440165E+01  0.10500000000E+00 0. -1.
</event>
<event>
11    0  0.3510903E-009  0.9118800E+02  0.7816531E-02  0.1126479E+00
         25   -1    0    0    0    0  0.00000000000E+00  0.00000000000E+00  0.99999998245E-14  0.12500000000E+03  0.12500000000E+03 0.  0.
    3000001    1    3    3    0    0  0.99216567236E+01 -0.60246773832E+01  0.10518316882E+01  0.11697963909E+02  0.10000000000E+01 0.  1.
    1000022    2    1    0    0    0  0.58645828956E+02 -0.17683225409E+02 -0.73634673974E+01  0.62499995967E+02  0.99999564521E+01 0.  0.
    3000022    2    3    3    0    0  0.48724172232E+02 -0.11658548026E+02 -0.84152990856E+01  0.50802032058E+02  0.25000159998E+00 0.  0.
    1000022    2    1    0    0    0 -0.58645828956E+02  0.17683225409E+02  0.73634673974E+01  0.62500004033E+02  0.10000006861E+02 0.  0.
    3000022    2    5    5    0    0 -0.37647152042E+02  0.63539607674E+01  0.48497577061E+01  0.38487186500E+02  0.25000115343E+00 0.  0.
        -13    1    4    4    0    0  0.35176125508E+02 -0.83801421813E+01 -0.60577371842E+01  0.36664612279E+02  0.10500000000E+00 0.  1.
         13    1    4    4    0    0  0.13548046724E+02 -0.32784058444E+01 -0.23575619013E+01  0.14137419780E+02  0.10500000000E+00 0. -1.
    3000001    1    5    5    0    0 -0.20998676913E+02  0.11329264641E+02  0.25137096912E+01  0.24012817532E+02  0.10000000000E+01 0. -1.
        -13    1    6    6    0    0 -0.28674304993E+02  0.48316254919E+01  0.37099329300E+01  0.29314416233E+02  0.10500000000E+00 0.  1.
         13    1    6    6    0    0 -0.89728470490E+01  0.15223352755E+01  0.11398247762E+01  0.91727702673E+01  0.10500000000E+00 0. -1.
</event>
<event>
11    0  0.3510903E-009  0.9118800E+02  0.7816531E-02  0.1126479E+00
         25   -1    0    0    0    0  0.00000000000E+00  0.00000000000E+00  0.99999998245E-14  0.12500000000E+03  0.12500000000E+03 0.  0.
    3000001    1    3    3    0    0  0.11034445203E+01  0.38153929927E+01 -0.22741090426E+00  0.41020152629E+01  0.10000000000E+01 0. -1.
    1000022    2    1    0    0    0  0.45772208555E+02  0.40132087491E+02 -0.10028491704E+02  0.62499998770E+02  0.99999839022E+01 0.  0.
    3000022    2    3    3    0    0  0.44668764035E+02  0.36316694498E+02 -0.98010808000E+01  0.58397983507E+02  0.25002642478E+00 0.  0.
    1000022    2    1    0    0    0 -0.45772208555E+02 -0.40132087491E+02  0.10028491704E+02  0.62500001230E+02  0.99999992746E+01 0.  0.
    3000022    2    5    5    0    0 -0.39028100588E+01 -0.57048294983E+00  0.16455896977E+01  0.42811028347E+01  0.24999775373E+00 0.  0.
        -13    1    4    4    0    0  0.30714289213E+02  0.24908046468E+02 -0.67305565953E+01  0.40113461055E+02  0.10500000000E+00 0.  1.
         13    1    4    4    0    0  0.13954474822E+02  0.11408648030E+02 -0.30705242046E+01  0.18284522453E+02  0.10500000000E+00 0. -1.
    3000001    1    5    5    0    0 -0.41869398496E+02 -0.39561604541E+02  0.83829020065E+01  0.58218898395E+02  0.10000000000E+01 0.  1.
        -13    1    6    6    0    0 -0.15414438722E+01 -0.18725164715E+00  0.59444273081E+00  0.16659830584E+01  0.10500000000E+00 0.  1.
         13    1    6    6    0    0 -0.23613661866E+01 -0.38323130269E+00  0.10511469669E+01  0.26151197764E+01  0.10500000000E+00 0. -1.
</event>
<event>
11    0  0.3510903E-009  0.9118800E+02  0.7816531E-02  0.1126479E+00
         25   -1    0    0    0    0  0.00000000000E+00  0.00000000000E+00  0.99999998245E-14  0.12500000000E+03  0.12500000000E+03 0.  0.
    3000001    1    3    3    0    0  0.11757390301E+02  0.34809975452E+01 -0.18626485669E+01  0.12442790293E+02  0.10000000000E+01 0.  1.
    1000022    2    1    0    0    0  0.52652779203E+02  0.16207370219E+02 -0.27771497346E+02  0.62500000923E+02  0.10000002167E+02 0.  0.
    3000022    2    3    3    0    0  0.40895388902E+02  0.12726372674E+02 -0.25908848779E+02  0.50057210629E+02  0.24999219888E+00 0.  0.
    1000022    2    1    0    0    0 -0.52652779203E+02 -0.16207370219E+02  0.27771497346E+02  0.62499999077E+02  0.99999906345E+01 0.  0.
    3000022    2    5    5    0    0 -0.27052503530E+02 -0.60727055826E+01  0.18898700017E+02  0.33555015501E+02  0.25000523420E+00 0.  0.
        -13    1    4    4    0    0  0.16608130062E+02  0.51552423430E+01 -0.10446737224E+02  0.20286740778E+02  0.10500000000E+00 0. -1.
         13    1    4    4    0    0  0.24287258839E+02  0.75711303305E+01 -0.15462111555E+02  0.29770469851E+02  0.10500000000E+00 0.  1.
    3000001    1    5    5    0    0 -0.25600275672E+02 -0.10134664636E+02  0.88727973291E+01  0.28944983576E+02  0.10000000000E+01 0. -1.
        -13    1    6    6    0    0 -0.20710490135E+02 -0.46416228735E+01  0.14481128278E+02  0.25694029769E+02  0.10500000000E+00 0.  1.
         13    1    6    6    0    0 -0.63420133953E+01 -0.14310827091E+01  0.44175717386E+01  0.78609857328E+01  0.10500000000E+00 0. -1.
</event>
<event>
11    0  0.3510903E-009  0.9118800E+02  0.7816531E-02  0.1126479E+00
         25   -1    0    0    0    0  0.00000000000E+00  0.00000000000E+00  0.99999998245E-14  0.12500000000E+03  0.12500000000E+03 0.  0.
    3000001    1    3    3    0    0 -0.25273467261E+02  0.21471710652E+01  0.21189684967E+02  0.33066013367E+02  0.10000000000E+01 0. -1.
    1000022    2    1    0    0    0 -0.45868308801E+02  0.13152604602E+02  0.39106996952E+02  0.62500001382E+02  0.10000010100E+02 0.  0.
    3000022    2    3    3    0    0 -0.20594841540E+02  0.11005433537E+02  0.17917311985E+02  0.29433988015E+02  0.25003257615E+00 0.  0.
    1000022    2    1    0    0    0  0.45868308801E+02 -0.13152604602E+02 -0.39106996952E+02  0.62499998618E+02  0.99999928298E+01 0.  0.
    3000022    2    5    5    0    0  0.27575071922E+02 -0.45578029361E+01 -0.27302090659E+02  0.39072046430E+02  0.24999741819E+00 0.  0.
        -13    1    4    4    0    0 -0.67532949584E+01  0.36040789242E+01  0.58080444789E+01  0.96094111868E+01  0.10500000000E+00 0. -1.
         13    1    4    4    0    0 -0.13841546582E+02  0.74013546123E+01  0.12109267506E+02  0.19824576828E+02  0.10500000000E+00 0.  1.
    3000001    1    5    5    0    0  0.18293236879E+02 -0.85948016656E+01 -0.11804906293E+02  0.23427952189E+02  0.10000000000E+01 0. -1.
        -13    1    6    6    0    0  0.13987418910E+02 -0.23243517534E+01 -0.13944124901E+02  0.19887185400E+02  0.10500000000E+00 0. -1.
         13    1    6    6    0    0  0.13587653012E+02 -0.22334511828E+01 -0.13357965758E+02  0.19184861030E+02  0.10500000000E+00 0.  1.
</event>
<event>
11    0  0.3510903E-009  0.9118800E+02  0.7816531E-02  0.1126479E+00
         25   -1    0    0    0    0  0.00000000000E+00  0.00000000000E+00  0.99999998245E-14  0.12500000000E+03  0.12500000000E+03 0.  0.
    3000001    1    3    3    0    0 -0.22076606446E+02  0.34036226949E+01 -0.89137123017E+01  0.24071050384E+02  0.10000000000E+01 0.  1.
    1000022    2    1    0    0    0 -0.53021804424E+02  0.68594110779E+00 -0.31535179550E+02  0.62500002329E+02  0.10000024118E+02 0.  0.
    3000022    2    3    3    0    0 -0.30945197978E+02 -0.27176815871E+01 -0.22621467248E+02  0.38428951945E+02  0.24999202380E+00 0.  0.
    1000022    2    1    0    0    0  0.53021804424E+02 -0.68594110779E+00  0.31535179550E+02  0.62499997671E+02  0.99999950050E+01 0.  0.
    3000022    2    5    5    0    0  0.49420375552E+02 -0.23876050186E+01  0.26941139721E+02  0.56337924000E+02  0.24998737067E+00 0.  0.
        -13    1    4    4    0    0 -0.19132606930E+02 -0.17319849706E+01 -0.14029825725E+02  0.23788725371E+02  0.10500000000E+00 0.  1.
         13    1    4    4    0    0 -0.11812591048E+02 -0.98569661650E+00 -0.85916415233E+01  0.14640226574E+02  0.10500000000E+00 0. -1.
    3000001    1    5    5    0    0  0.36014288712E+01  0.17016639108E+01  0.45940398288E+01  0.61620736711E+01  0.10000000000E+01 0.  1.
        -13    1    6    6    0    0  0.14969221317E+02 -0.76370920095E+00  0.81352439555E+01  0.17054443931E+02  0.10500000000E+00 0. -1.
         13    1    6    6    0    0  0.34451154235E+02 -0.16238958177E+01  0.18805895765E+02  0.39283480069E+02  0.10500000000E+00 0.  1.
</event>
<event>
11    0  0.3510903E-009  0.9118800E+02  0.7816531E-02  0.1126479E+00
         25   -1    0    0    0    0  0.00000000000E+00  0.00000000000E+00  0.99999998245E-14  0.12500000000E+03  0.12500000000E+03 0.  0.
    3000001    1    3    3    0    0 -0.23241458591E+02 -0.21364158330E+02 -0.10401881332E+02  0.33253447849E+02  0.10000000000E+01 0. -1.
    1000022    2    1    0    0    0 -0.39744096831E+02 -0.45372845956E+02 -0.12959990337E+02  0.62499995870E+02  0.99999875597E+01 0.  0.
    3000022    2    3    3    0    0 -0.16502638240E+02 -0.24008687626E+02 -0.25581090055E+01  0.29246548022E+02  0.24999819492E+00 0.  0.
    1000022    2    1    0    0    0  0.39744096831E+02  0.45372845956E+02  0.12959990337E+02  0.62500004130E+02  0.10000039180E+02 0.  0.
    3000022    2    5    5    0    0  0.20178723282E+01 -0.37864747657E-01 -0.65098453127E-01  0.20346950686E+01  0.25000748331E+00 0.  0.
        -13    1    4    4    0    0 -0.39166189358E+01 -0.56748063040E+01 -0.59580817313E+00  0.69216575223E+01  0.10500000000E+00 0. -1.
         13    1    4    4    0    0 -0.12586019304E+02 -0.18333881322E+02 -0.19623008324E+01  0.22324890499E+02  0.10500000000E+00 0.  1.
    3000001    1    5    5    0    0  0.37726224503E+02  0.45410710703E+02  0.13025088791E+02  0.60465309061E+02  0.10000000000E+01 0. -1.
        -13    1    6    6    0    0  0.95388116171E+00 -0.76825053874E-01  0.21349368457E-02  0.96271538760E+00  0.10500000000E+00 0. -1.
         13    1    6    6    0    0  0.10639911664E+01  0.38960306217E-01 -0.67233389972E-01  0.10719796810E+01  0.10500000000E+00 0.  1.
</event>
<event>
11    0  0.3510903E-009  0.9118800E+02  0.7816531E-02  0.1126479E+00
         25   -1    0    0    0    0  0.00000000000E+00  0.00000000000E+00  0.99999998245E-14  0.12500000000E+03  0.12500000000E+03 0.  0.
    3000001    1    3    3    0    0  0.49334574563E+02 -0.12209297414E+02  0.24240714737E+01  0.50890503173E+02  0.10000000000E+01 0.  1.
    1000022    2    1    0    0    0  0.58755700565E+02 -0.18797286319E+02  0.82446304400E+00  0.62500001687E+02  0.10000007489E+02 0.  0.
    3000022    2    3    3    0    0  0.94211260014E+01 -0.65879889054E+01 -0.15996084297E+01  0.11609498514E+02  0.24999134804E+00 0.  0.
    1000022    2    1    0    0    0 -0.58755700565E+02  0.18797286319E+02 -0.82446304400E+00  0.62499998313E+02  0.99999863993E+01 0.  0.
    3000022    2    5    5    0    0 -0.31309545870E+02  0.77925120550E+01  0.40332484848E+01  0.32516772579E+02  0.24999775922E+00 0.  0.
        -13    1    4    4    0    0  0.50334801285E+01 -0.34804188681E+01 -0.79180543005E+00  0.61714843061E+01  0.10500000000E+00 0. -1.
         13    1    4    4    0    0  0.43876458729E+01 -0.31075700373E+01 -0.80780299963E+00  0.54380142083E+01  0.10500000000E+00 0.  1.
    3000001    1    5    5    0    0 -0.27446154695E+02  0.11004774264E+02 -0.48577115288E+01  0.29983225734E+02  0.10000000000E+01 0.  1.
        -13    1    6    6    0    0 -0.13724232314E+02  0.33535226917E+01  0.17392238616E+01  0.14235048005E+02  0.10500000000E+00 0. -1.
         13    1    6    6    0    0 -0.17585313556E+02  0.44389893633E+01  0.22940246232E+01  0.18281724574E+02  0.10500000000E+00 0.  1.
</event>
<event>
11    0  0.3510903E-009  0.9118800E+02  0.7816531E-02  0.1126479E+00
         25   -1    0    0    0    0  0.00000000000E+00  0.00000000000E+00  0.99999998245E-14  0.12500000000E+03  0.12500000000E+03 0.  0.
    3000001    1    3    3    0    0  0.13855501988E+02 -0.36542254850E+02 -0.26188343612E+02  0.47054656157E+02  0.10000000000E+01 0.  1.
    1000022    2    1    0    0    0  0.21142252260E+02 -0.44289739295E+02 -0.37385488034E+02  0.62500004467E+02  0.10000000272E+02 0.  0.
    3000022    2    3    3    0    0  0.72867502715E+01 -0.77474844444E+01 -0.11197144421E+02  0.15445348310E+02  0.24999297808E+00 0.  0.
    1000022    2    1    0    0    0 -0.21142252260E+02  0.44289739295E+02  0.37385488034E+02  0.62499995533E+02  0.99999444383E+01 0.  0.
    3000022    2    5    5    0    0 -0.18935304327E+02  0.39630736007E+02  0.29091075884E+02  0.52682959132E+02  0.25000069421E+00 0.  0.
        -13    1    4    4    0    0  0.26291569774E+01 -0.27117089247E+01 -0.39767989695E+01  0.54855981213E+01  0.10500000000E+00 0. -1.
         13    1    4    4    0    0  0.46575932941E+01 -0.50357755197E+01 -0.72203454518E+01  0.99597501887E+01  0.10500000000E+00 0.  1.
    3000001    1    5    5    0    0 -0.22069479322E+01  0.46590032877E+01  0.82944121492E+01  0.98170364016E+01  0.10000000000E+01 0.  1.
        -13    1    6    6    0    0 -0.10697000783E+02  0.22315426434E+02  0.16460134724E+02  0.29721223777E+02  0.10500000000E+00 0.  1.
         13    1    6    6    0    0 -0.82383035448E+01  0.17315309573E+02  0.12630941161E+02  0.22961735355E+02  0.10500000000E+00 0. -1.
</event>
<event>
11    0  0.3510903E-009  0.9118800E+02  0.7816531E-02  0.1126479E+00
         25   -1    0    0    0    0  0.00000000000E+00  0.00000000000E+00  0.99999998245E-14  0.12500000000E+03  0.12500000000E+03 0.  0.
    3000001    1    3    3    0    0  0.42534230541E+02  0.20634323317E+02 -0.29421526421E+02  0.55691671581E+02  0.10000000000E+01 0.  1.
    1000022    2    1    0    0    0  0.46014404339E+02  0.25941138590E+02 -0.31874470833E+02  0.62499999927E+02  0.10000001100E+02 0.  0.
    3000022    2    3    3    0    0  0.34801737981E+01  0.53068152721E+01 -0.24529444120E+01  0.68083283466E+01  0.25000117923E+00 0.  0.
    1000022    2    1    0    0    0 -0.46014404339E+02 -0.25941138590E+02  0.31874470833E+02  0.62500000073E+02  0.10000002011E+02 0.  0.
    3000022    2    5    5    0    0 -0.30959980754E+02 -0.21130331172E+02  0.18646335490E+02  0.41865972300E+02  0.25001136053E+00 0.  0.
        -13    1    4    4    0    0  0.22041967228E+01  0.34609841635E+01 -0.15679947421E+01  0.43939193306E+01  0.10500000000E+00 0.  1.
         13    1    4    4    0    0  0.12759770753E+01  0.18458311086E+01 -0.88494966986E+00  0.24144090159E+01  0.10500000000E+00 0. -1.
    3000001    1    5    5    0    0 -0.15054423585E+02 -0.48108074179E+01  0.13228135343E+02  0.20634027773E+02  0.10000000000E+01 0.  1.
        -13    1    6    6    0    0 -0.90323666167E+01 -0.61899233560E+01  0.54044711009E+01  0.12211393480E+02  0.10500000000E+00 0. -1.
         13    1    6    6    0    0 -0.21927614137E+02 -0.14940407816E+02  0.13241864389E+02  0.29654578819E+02  0.10500000000E+00 0.  1.
</event>
<event>
11    0  0.3510903E-009  0.9118800E+02  0.7816531E-02  0.1126479E+00
         25   -1    0    0    0    0  0.00000000000E+00  0.00000000000E+00  0.99999998245E-14  0.12500000000E+03  0.12500000000E+03 0.  0.
    3000001    1    3    3    0    0  0.11638322482E+01 -0.46441552751E+01  0.20862116839E+01  0.53174207010E+01  0.10000000000E+01 0.  1.
    1000022    2    1    0    0    0 -0.74403520956E+01 -0.61166077494E+02  0.30987351858E+01  0.62499999946E+02  0.99999979063E+01 0.  0.
    3000022    2    3    3    0    0 -0.86041843437E+01 -0.56521922219E+02  0.10125235019E+01  0.57182579245E+02  0.24997134067E+00 0.  0.
    1000022    2    1    0    0    0  0.74403520956E+01  0.61166077494E+02 -0.30987351858E+01  0.62500000054E+02  0.99999985855E+01 0.  0.
    3000022    2    5    5    0    0  0.76420472471E+01  0.57045928660E+02 -0.51495210575E+01  0.57785975231E+02  0.25000676426E+00 0.  0.
        -13    1    4    4    0    0 -0.60317995527E+01 -0.39797985461E+02  0.74900740842E+00  0.40259586308E+02  0.10500000000E+00 0. -1.
         13    1    4    4    0    0 -0.25723847911E+01 -0.16723936759E+02  0.26351609344E+00  0.16922992937E+02  0.10500000000E+00 0.  1.
    3000001    1    5    5    0    0 -0.20169515158E+00  0.41201488339E+01  0.20507858717E+01  0.47140248238E+01  0.10000000000E+01 0.  1.
        -13    1    6    6    0    0  0.39864221041E+01  0.30265130864E+02 -0.27296787902E+01  0.30648521640E+02  0.10500000000E+00 0. -1.
         13    1    6    6    0    0  0.36556251430E+01  0.26780797796E+02 -0.24198422673E+01  0.27137453591E+02  0.10500000000E+00 0.  1.
</event>
<event>
11    0  0.3510903E-009  0.9118800E+02  0.7816531E-02  0.1126479E+00
         25   -1    0    0    0    0  0.00000000000E+00  0.00000000000E+00  0.99999998245E-14  0.12500000000E+03  0.12500000000E+03 0.  0.
    3000001    1    3    3    0    0 -0.18226980231E+02 -0.58777636138E+02  0.57282982638E+01  0.61812997980E+02  0.10000000000E+01 0.  1.
    1000022    2    1    0    0    0 -0.18352909590E+02 -0.58562021226E+02  0.63174718381E+01  0.62500000310E+02  0.99999983941E+01 0.  0.
    3000022    2    3    3    0    0 -0.12592935935E+00  0.21561491241E+00  0.58917357427E+00  0.68700232983E+00  0.24999741313E+00 0.  0.
    1000022    2    1    0    0    0  0.18352909590E+02  0.58562021226E+02 -0.63174718381E+01  0.62499999690E+02  0.99999945168E+01 0.  0.
    3000022    2    5    5    0    0  0.12986016529E+02  0.44969478525E+02 -0.70280135188E+00  0.46812894065E+02  0.24999389539E+00 0.  0.
        -13    1    4    4    0    0 -0.31876277457E-01  0.51068486971E-01  0.31564681598E+00  0.33805620815E+00  0.10500000000E+00 0.  1.
         13    1    4    4    0    0 -0.94053081888E-01  0.16454642544E+00  0.27352675828E+00  0.34894612168E+00  0.10500000000E+00 0. -1.
    3000001    1    5    5    0    0  0.53668930609E+01  0.13592542701E+02 -0.56146704862E+01  0.15687105624E+02  0.10000000000E+01 0. -1.
        -13    1    6    6    0    0  0.94550914904E+01  0.32793033425E+02 -0.54589003619E+00  0.34133426684E+02  0.10500000000E+00 0. -1.
         13    1    6    6    0    0  0.35309250388E+01  0.12176445100E+02 -0.15691131569E+00  0.12679467381E+02  0.10500000000E+00 0.  1.
</event>
<event>
11    0  0.3510903E-009  0.9118800E+02  0.7816531E-02  0.1126479E+00
         25   -1    0    0    0    0  0.00000000000E+00  0.00000000000E+00  0.99999998245E-14  0.12500000000E+03  0.12500000000E+03 0.  0.
    3000001    1    3    3    0    0 -0.23786355754E+02  0.16173783203E+02 -0.81198907176E+01  0.29905093353E+02  0.10000000000E+01 0.  1.
    1000022    2    1    0    0    0 -0.48440420013E+02  0.37481906198E+02 -0.74082809379E+01  0.62499999094E+02  0.99999838536E+01 0.  0.
    3000022    2    3    3    0    0 -0.24654064258E+02  0.21308122995E+02  0.71160977971E+00  0.32594905741E+02  0.25000358146E+00 0.  0.
    1000022    2    1    0    0    0  0.48440420013E+02 -0.37481906198E+02  0.74082809379E+01  0.62500000906E+02  0.99999951775E+01 0.  0.
    3000022    2    5    5    0    0  0.29483389790E+01 -0.82562222206E+00 -0.14571379063E+01  0.34000157707E+01  0.25000314918E+00 0.  0.
        -13    1    4    4    0    0 -0.11985850224E+02  0.10269844774E+02  0.34874842389E+00  0.15788064091E+02  0.10500000000E+00 0. -1.
         13    1    4    4    0    0 -0.12668214035E+02  0.11038278221E+02  0.36286135582E+00  0.16806841651E+02  0.10500000000E+00 0.  1.
    3000001    1    5    5    0    0  0.45492081034E+02 -0.36656283976E+02  0.88654188443E+01  0.59099985135E+02  0.10000000000E+01 0.  1.
        -13    1    6    6    0    0  0.22322321681E+01 -0.60678145699E+00 -0.10813901529E+01  0.25556748329E+01  0.10500000000E+00 0.  1.
         13    1    6    6    0    0  0.71610681090E+00 -0.21884076507E+00 -0.37574775345E+00  0.84434093783E+00  0.10500000000E+00 0. -1.
</event>
<event>
11    0  0.3510903E-009  0.9118800E+02  0.7816531E-02  0.1126479E+00
         25   -1    0    0    0    0  0.00000000000E+00  0.00000000000E+00  0.99999998245E-14  0.12500000000E+03  0.12500000000E+03 0.  0.
    3000001    1    3    3    0    0 -0.10615838460E+02  0.43317803879E+01  0.13632794451E+01  0.11589602167E+02  0.10000000000E+01 0.  1.
    1000022    2    1    0    0    0 -0.52415706863E+02  0.30597523830E+02 -0.11074075974E+02  0.62499999806E+02  0.10000001332E+02 0.  0.
    3000022    2    3    3    0    0 -0.41799868403E+02  0.26265743442E+02 -0.12437355419E+02  0.50910397639E+02  0.25000186891E+00 0.  0.
    1000022    2    1    0    0    0  0.52415706863E+02 -0.30597523830E+02  0.11074075974E+02  0.62500000194E+02  0.10000003754E+02 0.  0.
    3000022    2    5    5    0    0  0.49927915706E+02 -0.30878142258E+02  0.11341500064E+02  0.59790873547E+02  0.24999962753E+00 0.  0.
        -13    1    4    4    0    0 -0.29124531478E+02  0.18353494633E+02 -0.86869705832E+01  0.35504416373E+02  0.10500000000E+00 0.  1.
         13    1    4    4    0    0 -0.12675336924E+02  0.79122488090E+01 -0.37503848358E+01  0.15405981266E+02  0.10500000000E+00 0. -1.
    3000001    1    5    5    0    0  0.24877911567E+01  0.28061842774E+00 -0.26742409036E+00  0.27091266463E+01  0.10000000000E+01 0. -1.
        -13    1    6    6    0    0  0.25270156384E+02 -0.15620059386E+02  0.56707752030E+01  0.30244599109E+02  0.10500000000E+00 0.  1.
         13    1    6    6    0    0  0.24657759322E+02 -0.15258082872E+02  0.56707248612E+01  0.29546274438E+02  0.10500000000E+00 0. -1.
</event>
<event>
11    0  0.3510903E-009  0.9118800E+02  0.7816531E-02  0.1126479E+00
         25   -1    0    0    0    0  0.00000000000E+00  0.00000000000E+00  0.99999998245E-14  0.12500000000E+03  0.12500000000E+03 0.  0.
    3000001    1    3    3    0    0 -0.41132978790E+02 -0.89005563418E+01 -0.30275891289E+02  0.51853364796E+02  0.10000000000E+01 0.  1.
    1000022    2    1    0    0    0 -0.47616572458E+02 -0.72479487723E+01 -0.38553586097E+02  0.62499999464E+02  0.10000009904E+02 0.  0.
    3000022    2    3    3    0    0 -0.64835936676E+01  0.16526075694E+01 -0.82776948084E+01  0.10646634668E+02  0.24999959236E+00 0.  0.
    1000022    2    1    0    0    0  0.47616572458E+02  0.72479487723E+01  0.38553586097E+02  0.62500000536E+02  0.10000016600E+02 0.  0.
    3000022    2    5    5    0    0  0.40229368107E+02  0.65102980529E+01  0.27562758346E+02  0.49199127957E+02  0.25001011150E+00 0.  0.
        -13    1    4    4    0    0 -0.26358410493E+01  0.70569939501E+00 -0.34636209131E+01  0.44105968420E+01  0.10500000000E+00 0. -1.
         13    1    4    4    0    0 -0.38477526182E+01  0.94690817444E+00 -0.48140738953E+01  0.62360378263E+01  0.10500000000E+00 0.  1.
    3000001    1    5    5    0    0  0.73872043504E+01  0.73765071944E+00  0.10990827751E+02  0.13300872579E+02  0.10000000000E+01 0.  1.
        -13    1    6    6    0    0  0.15703359248E+02  0.25842081235E+01  0.10818484471E+02  0.19243810812E+02  0.10500000000E+00 0.  1.
         13    1    6    6    0    0  0.24526008859E+02  0.39260899294E+01  0.16744273875E+02  0.29955317146E+02  0.10500000000E+00 0. -1.
</event>
<event>
11    0  0.3510903E-009  0.9118800E+02  0.7816531E-02  0.1126479E+00
         25   -1    0    0    0    0  0.00000000000E+00  0.00000000000E+00  0.99999998245E-14  0.12500000000E+03  0.12500000000E+03 0.  0.
    3000001    1    3    3    0    0 -0.16155937886E+02  0.93220913100E+00  0.14615939530E+02  0.21829086815E+02  0.10000000000E+01 0. -1.
    1000022    2    1    0    0    0 -0.36158251250E+02  0.72338638771E+01  0.49462131430E+02  0.62499997577E+02  0.99999665723E+01 0.  0.
    3000022    2    3    3    0    0 -0.20002313364E+02  0.63016547461E+01  0.34846191900E+02  0.40670910762E+02  0.24999956695E+00 0.  0.
    1000022    2    1    0    0    0  0.36158251250E+02 -0.72338638771E+01 -0.49462131430E+02  0.62500002423E+02  0.99999968638E+01 0.  0.
    3000022    2    5    5    0    0  0.16672514947E+02 -0.82223586264E+01 -0.26125848741E+02  0.32065595400E+02  0.24999972997E+00 0.  0.
        -13    1    4    4    0    0 -0.69037483564E+01  0.21441353124E+01  0.11920936328E+02  0.13941979972E+02  0.10500000000E+00 0. -1.
         13    1    4    4    0    0 -0.13098565007E+02  0.41575194338E+01  0.22925255572E+02  0.26728930789E+02  0.10500000000E+00 0.  1.
    3000001    1    5    5    0    0  0.19485736303E+02  0.98849474926E+00 -0.23336282689E+02  0.30434407024E+02  0.10000000000E+01 0.  1.
        -13    1    6    6    0    0  0.63024073587E+01 -0.31643986328E+01 -0.99697837958E+01  0.12212345031E+02  0.10500000000E+00 0.  1.
         13    1    6    6    0    0  0.10370107588E+02 -0.50579599936E+01 -0.16156064945E+02  0.19853250368E+02  0.10500000000E+00 0. -1.
</event>
<event>
11    0  0.3510903E-009  0.9118800E+02  0.7816531E-02  0.1126479E+00
         25   -1    0    0    0    0  0.00000000000E+00  0.00000000000E+00  0.99999998245E-14  0.12500000000E+03  0.12500000000E+03 0.  0.
    3000001    1    3    3    0    0 -0.12067223721E+02  0.62533810677E+01  0.23532766647E+02  0.27194002449E+02  0.10000000000E+01 0.  1.
    1000022    2    1    0    0    0 -0.26307981971E+02  0.33247689043E+01  0.55705352253E+02  0.62500003798E+02  0.10000010073E+02 0.  0.
    3000022    2    3    3    0    0 -0.14240758250E+02 -0.29286121634E+01  0.32172585605E+02  0.35306001349E+02  0.25000393151E+00 0.  0.
    1000022    2    1    0    0    0  0.26307981971E+02 -0.33247689043E+01 -0.55705352253E+02  0.62499996202E+02  0.99999625995E+01 0.  0.
    3000022    2    5    5    0    0 -0.95280745247E-01  0.12791448734E+01 -0.13015885936E+01  0.18444292323E+01  0.24999259672E+00 0.  0.
        -13    1    4    4    0    0 -0.74023292916E+01 -0.14880002610E+01  0.16850401350E+02  0.18464985090E+02  0.10500000000E+00 0.  1.
         13    1    4    4    0    0 -0.68384289587E+01 -0.14406119024E+01  0.15322184256E+02  0.16841016259E+02  0.10500000000E+00 0. -1.
    3000001    1    5    5    0    0  0.26403262717E+02 -0.46039137777E+01 -0.54403763659E+02  0.60655566970E+02  0.10000000000E+01 0.  1.
        -13    1    6    6    0    0 -0.29322220742E-02  0.39828875339E+00 -0.35394585668E+00  0.54308857331E+00  0.10500000000E+00 0. -1.
         13    1    6    6    0    0 -0.92348523173E-01  0.88085611997E+00 -0.94764273694E+00  0.13013406590E+01  0.10500000000E+00 0.  1.
</event>
<event>
11    0  0.3510903E-009  0.9118800E+02  0.7816531E-02  0.1126479E+00
         25   -1    0    0    0    0  0.00000000000E+00  0.00000000000E+00  0.99999998245E-14  0.12500000000E+03  0.12500000000E+03 0.  0.
    3000001    1    3    3    0    0 -0.25580990681E+01  0.15774622104E+01  0.59610155228E+01  0.67502565825E+01  0.10000000000E+01 0. -1.
    1000022    2    1    0    0    0  0.33365697520E+00  0.31721283199E+01  0.61612303027E+02  0.62499996617E+02  0.99999983853E+01 0.  0.
    3000022    2    3    3    0    0  0.28917560433E+01  0.15946661095E+01  0.55651287505E+02  0.55749740034E+02  0.24999990235E+00 0.  0.
    1000022    2    1    0    0    0 -0.33365697520E+00 -0.31721283199E+01 -0.61612303027E+02  0.62500003383E+02  0.10000040675E+02 0.  0.
    3000022    2    5    5    0    0 -0.18196407963E+01 -0.61252174130E+01 -0.49280846089E+02  0.49694000363E+02  0.24999984977E+00 0.  0.
        -13    1    4    4    0    0  0.18332337834E+01  0.10243897775E+01  0.36315544895E+02  0.36376365218E+02  0.10500000000E+00 0.  1.
         13    1    4    4    0    0  0.10585222599E+01  0.57027633195E+00  0.19335742610E+02  0.19373374816E+02  0.10500000000E+00 0. -1.
    3000001    1    5    5    0    0  0.14859838212E+01  0.29530890931E+01 -0.12331456939E+02  0.12806003020E+02  0.10000000000E+01 0.  1.
        -13    1    6    6    0    0 -0.57674495608E+00 -0.19006333981E+01 -0.15699679243E+02  0.15825169680E+02  0.10500000000E+00 0. -1.
         13    1    6    6    0    0 -0.12428958403E+01 -0.42245840149E+01 -0.33581166845E+02  0.33868830683E+02  0.10500000000E+00 0.  1.
</event>
<event>
11    0  0.3510903E-009  0.9118800E+02  0.7816531E-02  0.1126479E+00
         25   -1    0    0    0    0  0.00000000000E+00  0.00000000000E+00  0.99999998245E-14  0.12500000000E+03  0.12500000000E+03 0.  0.
    3000001    1    3    3    0    0 -0.50343702727E+01  0.10601611641E+02  0.11718387513E+02  0.16615043164E+02  0.10000000000E+01 0. -1.
    1000022    2    1    0    0    0 -0.24395721207E+02  0.47570777863E+02  0.30791558592E+02  0.62500002789E+02  0.10000007419E+02 0.  0.
    3000022    2    3    3    0    0 -0.19361350935E+02  0.36969166222E+02  0.19073171078E+02  0.45884959625E+02  0.25000726890E+00 0.  0.
    1000022    2    1    0    0    0  0.24395721207E+02 -0.47570777863E+02 -0.30791558592E+02  0.62499997211E+02  0.99999725585E+01 0.  0.
    3000022    2    5    5    0    0  0.31634467635E+01 -0.39318800510E+01 -0.64643874353E+01  0.82047475407E+01  0.25000226338E+00 0.  0.
        -13    1    4    4    0    0 -0.12954808706E+02  0.24816888131E+02  0.12835332667E+02  0.30797106923E+02  0.10500000000E+00 0. -1.
         13    1    4    4    0    0 -0.64065422281E+01  0.12152278091E+02  0.62378384114E+01  0.15087852702E+02  0.10500000000E+00 0.  1.
    3000001    1    5    5    0    0  0.21232274444E+02 -0.43638897812E+02 -0.24327171156E+02  0.54295249670E+02  0.10000000000E+01 0. -1.
        -13    1    6    6    0    0  0.23624488561E+01 -0.28847767429E+01 -0.47719740357E+01  0.60568855571E+01  0.10500000000E+00 0. -1.
         13    1    6    6    0    0  0.80099790743E+00 -0.10471033081E+01 -0.16924133996E+01  0.21478619836E+01  0.10500000000E+00 0.  1.
</event>
<event>
11    0  0.3510903E-009  0.9118800E+02  0.7816531E-02  0.1126479E+00
         25   -1    0    0    0    0  0.00000000000E+00  0.00000000000E+00  0.99999998245E-14  0.12500000000E+03  0.12500000000E+03 0.  0.
    3000001    1    3    3    0    0  0.11441322575E+02  0.23720987978E+02 -0.21787145086E+00  0.26355959495E+02  0.10000000000E+01 0.  1.
    1000022    2    1    0    0    0  0.18230758871E+02  0.58452315119E+02 -0.75641357613E+01  0.62499999634E+02  0.10000004631E+02 0.  0.
    3000022    2    3    3    0    0  0.67894362960E+01  0.34731327141E+02 -0.73462643105E+01  0.36144040139E+02  0.25001612527E+00 0.  0.
    1000022    2    1    0    0    0 -0.18230758871E+02 -0.58452315119E+02  0.75641357613E+01  0.62500000366E+02  0.10000009211E+02 0.  0.
    3000022    2    5    5    0    0 -0.67395133048E+01 -0.22950320096E+02 -0.18817221886E+01  0.23994616228E+02  0.24999483877E+00 0.  0.
        -13    1    4    4    0    0  0.48736757076E+01  0.25097229192E+02 -0.52843791846E+01  0.26106691027E+02  0.10500000000E+00 0.  1.
         13    1    4    4    0    0  0.19157605884E+01  0.96340979489E+01 -0.20618851259E+01  0.10037349112E+02  0.10500000000E+00 0. -1.
    3000001    1    5    5    0    0 -0.11491245566E+02 -0.35501995023E+02  0.94458579499E+01  0.38505384139E+02  0.10000000000E+01 0.  1.
        -13    1    6    6    0    0 -0.40298976803E+01 -0.13703178141E+02 -0.11869140314E+01  0.14333072120E+02  0.10500000000E+00 0.  1.
         13    1    6    6    0    0 -0.27096156245E+01 -0.92471419547E+01 -0.69480815716E+00  0.96615441073E+01  0.10500000000E+00 0. -1.
</event>
<event>
11    0  0.3510903E-009  0.9118800E+02  0.7816531E-02  0.1126479E+00
         25   -1    0    0    0    0  0.00000000000E+00  0.00000000000E+00  0.99999998245E-14  0.12500000000E+03  0.12500000000E+03 0.  0.
    3000001    1    3    3    0    0 -0.44444239991E+01  0.19238574946E+01 -0.56400953830E+00  0.49771717975E+01  0.10000000000E+01 0. -1.
    1000022    2    1    0    0    0 -0.56064362034E+02  0.12535490238E+02  0.22492193238E+02  0.62499999759E+02  0.10000000375E+02 0.  0.
    3000022    2    3    3    0    0 -0.51619938035E+02  0.10611632743E+02  0.23056202776E+02  0.57522827962E+02  0.24999612859E+00 0.  0.
    1000022    2    1    0    0    0  0.56064362034E+02 -0.12535490238E+02 -0.22492193238E+02  0.62500000241E+02  0.10000003383E+02 0.  0.
    3000022    2    5    5    0    0  0.35263146085E+02 -0.74630912539E+01 -0.89273437959E+01  0.37134177628E+02  0.24995603512E+00 0.  0.
        -13    1    4    4    0    0 -0.37270729246E+02  0.76710901951E+01  0.16689142071E+02  0.41551069437E+02  0.10500000000E+00 0.  1.
         13    1    4    4    0    0 -0.14349208789E+02  0.29405425479E+01  0.63670607049E+01  0.15971758524E+02  0.10500000000E+00 0. -1.
    3000001    1    5    5    0    0  0.20801215949E+02 -0.50723989837E+01 -0.13564849442E+02  0.25365822612E+02  0.10000000000E+01 0. -1.
        -13    1    6    6    0    0  0.12361102034E+02 -0.26140541758E+01 -0.30711106905E+01  0.13002802336E+02  0.10500000000E+00 0. -1.
         13    1    6    6    0    0  0.22902044051E+02 -0.48490370781E+01 -0.58562331054E+01  0.24131375292E+02  0.10500000000E+00 0.  1.
</event>
<event>
11    0  0.3510903E-009  0.9118800E+02  0.7816531E-02  0.1126479E+00
         25   -1    0    0    0    0  0.00000000000E+00  0.00000000000E+00  0.99999998245E-14  0.12500000000E+03  0.12500000000E+03 0.  0.
    3000001    1    3    3    0    0  0.28285471481E+02  0.43788440548E+01 -0.24977686782E+01  0.28748582931E+02  0.10000000000E+01 0. -1.
    1000022    2    1    0    0    0  0.57995968297E+02  0.17610187897E+02 -0.11515167429E+02  0.62499998772E+02  0.99999854583E+01 0.  0.
    3000022    2    3    3    0    0  0.29710496815E+02  0.13231343842E+02 -0.90173987507E+01  0.33751415841E+02  0.25002031604E+00 0.  0.
    1000022    2    1    0    0    0 -0.57995968297E+02 -0.17610187897E+02  0.11515167429E+02  0.62500001228E+02  0.10000000807E+02 0.  0.
    3000022    2    5    5    0    0 -0.15841884494E+01  0.21883429835E+00  0.19939358369E+01  0.25682334499E+01  0.25000287622E+00 0.  0.
        -13    1    4    4    0    0  0.21803336151E+02  0.97182573715E+01 -0.66530995039E+01  0.24781137013E+02  0.10500000000E+00 0.  1.
         13    1    4    4    0    0  0.79071606644E+01  0.35130864708E+01 -0.23642992468E+01  0.89702788280E+01  0.10500000000E+00 0. -1.
    3000001    1    5    5    0    0 -0.56411779847E+02 -0.17829022195E+02  0.95212315920E+01  0.59931767778E+02  0.10000000000E+01 0. -1.
        -13    1    6    6    0    0 -0.52640967277E+00  0.56864479048E-01  0.74895894883E+00  0.92320378010E+00  0.10500000000E+00 0. -1.
         13    1    6    6    0    0 -0.10577787767E+01  0.16196981930E+00  0.12449768881E+01  0.16450296698E+01  0.10500000000E+00 0.  1.
</event>
<event>
11    0  0.3510903E-009  0.9118800E+02  0.7816531E-02  0.1126479E+00
         25   -1    0    0    0    0  0.00000000000E+00  0.00000000000E+00  0.99999998245E-14  0.12500000000E+03  0.12500000000E+03 0.  0.
    3000001    1    3    3    0    0  0.31894057395E+02 -0.19564066297E+02 -0.23547467280E+02  0.44220660358E+02  0.10000000000E+01 0.  1.
    1000022    2    1    0    0    0  0.40348530594E+02 -0.31845818506E+02 -0.34118760462E+02  0.62500000728E+02  0.10000009908E+02 0.  0.
    3000022    2    3    3    0    0  0.84544731990E+01 -0.12281752209E+02 -0.10571293182E+02  0.18279340370E+02  0.24998087395E+00 0.  0.
    1000022    2    1    0    0    0 -0.40348530594E+02  0.31845818506E+02  0.34118760462E+02  0.62499999272E+02  0.10000000807E+02 0.  0.
    3000022    2    5    5    0    0 -0.21224646767E+02  0.10935886945E+02  0.13378699739E+02  0.27370264157E+02  0.24999923729E+00 0.  0.
        -13    1    4    4    0    0  0.33196699209E+01 -0.47321543475E+01 -0.41406755653E+01  0.71112384498E+01  0.10500000000E+00 0. -1.
         13    1    4    4    0    0  0.51348032781E+01 -0.75495978617E+01 -0.64306176167E+01  0.11168101921E+02  0.10500000000E+00 0.  1.
    3000001    1    5    5    0    0 -0.19123883827E+02  0.20909931561E+02  0.20740060723E+02  0.35129735115E+02  0.10000000000E+01 0.  1.
        -13    1    6    6    0    0 -0.49379262035E+01  0.25379098686E+01  0.31000133671E+01  0.63596548309E+01  0.10500000000E+00 0.  1.
         13    1    6    6    0    0 -0.16286720564E+02  0.83979770766E+01  0.10278686372E+02  0.21010609326E+02  0.10500000000E+00 0. -1.
</event>
<event>
11    0  0.3510903E-009  0.9118800E+02  0.7816531E-02  0.1126479E+00
         25   -1    0    0    0    0  0.00000000000E+00  0.00000000000E+00  0.99999998245E-14  0.12500000000E+03  0.12500000000E+03 0.  0.
    3000001    1    3    3    0    0 -0.35203899598E+01 -0.19838765573E+00 -0.19173155001E+01  0.41362545688E+01  0.10000000000E+01 0.  1.
    1000022    2    1    0    0    0 -0.55814690962E+02  0.24840274842E+02 -0.85983324617E+01  0.62500001974E+02  0.99999972112E+01 0.  0.
    3000022    2    3    3    0    0 -0.52294301002E+02  0.25038662497E+02 -0.66810169616E+01  0.58363747405E+02  0.24997311379E+00 0.  0.
    1000022    2    1    0    0    0  0.55814690962E+02 -0.24840274842E+02  0.85983324617E+01  0.62499998026E+02  0.99999725407E+01 0.  0.
    3000022    2    5    5    0    0  0.40373494168E+02 -0.14510311786E+02  0.27203314624E+01  0.42988729721E+02  0.25000051996E+00 0.  0.
        -13    1    4    4    0    0 -0.32495413364E+02  0.15499563088E+02 -0.41773806194E+01  0.36244308235E+02  0.10500000000E+00 0. -1.
         13    1    4    4    0    0 -0.19798887638E+02  0.95390994092E+01 -0.25036363422E+01  0.22119439170E+02  0.10500000000E+00 0.  1.
    3000001    1    5    5    0    0  0.15441196793E+02 -0.10329963055E+02  0.58780009993E+01  0.19511268305E+02  0.10000000000E+01 0.  1.
        -13    1    6    6    0    0  0.28594629446E+02 -0.10301363832E+02  0.18902692275E+01  0.30452505196E+02  0.10500000000E+00 0. -1.
         13    1    6    6    0    0  0.11778864722E+02 -0.42089479539E+01  0.83006223488E+00  0.12536224525E+02  0.10500000000E+00 0.  1.
</event>
<event>
11    0  0.3510903E-009  0.9118800E+02  0.7816531E-02  0.1126479E+00
         25   -1    0    0    0    0  0.00000000000E+00  0.00000000000E+00  0.99999998245E-14  0.12500000000E+03  0.12500000000E+03 0.  0.
    3000001    1    3    3    0    0  0.99343467126E+00 -0.62275218997E+01 -0.20409302550E+02  0.21384774304E+02  0.10000000000E+01 0.  1.
    1000022    2    1    0    0    0 -0.27080858663E+01 -0.29384059207E+02 -0.54180189656E+02  0.62499999892E+02  0.10000018544E+02 0.  0.
    3000022    2    3    3    0    0 -0.37015205376E+01 -0.23156537307E+02 -0.33770887106E+02  0.41115225588E+02  0.24996984953E+00 0.  0.
    1000022    2    1    0    0    0  0.27080858663E+01  0.29384059207E+02  0.54180189656E+02  0.62500000108E+02  0.10000019889E+02 0.  0.
    3000022    2    5    5    0    0  0.44689339663E+00  0.21333911376E+02  0.29403732721E+02  0.36331494423E+02  0.25000168032E+00 0.  0.
        -13    1    4    4    0    0 -0.92214014515E+00 -0.58986929962E+01 -0.85630714899E+01  0.10439451128E+02  0.10500000000E+00 0.  1.
         13    1    4    4    0    0 -0.27793803924E+01 -0.17257844311E+02 -0.25207815616E+02  0.30675774461E+02  0.10500000000E+00 0. -1.
    3000001    1    5    5    0    0  0.22611924697E+01  0.80501478314E+01  0.24776456935E+02  0.26168505684E+02  0.10000000000E+01 0. -1.
        -13    1    6    6    0    0  0.27585396711E+00  0.15189405183E+02  0.20930336415E+02  0.25862794371E+02  0.10500000000E+00 0.  1.
         13    1    6    6    0    0  0.17103942952E+00  0.61445061926E+01  0.84733963052E+01  0.10468700052E+02  0.10500000000E+00 0. -1.
</event>
<event>
11    0  0.3510903E-009  0.9118800E+02  0.7816531E-02  0.1126479E+00
         25   -1    0    0    0    0  0.00000000000E+00  0.00000000000E+00  0.99999998245E-14  0.12500000000E+03  0.12500000000E+03 0.  0.
    3000001    1    3    3    0    0  0.39010487289E+02 -0.19629303881E+02  0.32920862419E+02  0.54698362606E+02  0.10000000000E+01 0. -1.
    1000022    2    1    0    0    0  0.45161582337E+02 -0.24198110383E+02  0.34367614526E+02  0.62500000531E+02  0.10000003644E+02 0.  0.
    3000022    2    3    3    0    0  0.61510950477E+01 -0.45688065021E+01  0.14467521073E+01  0.78016379249E+01  0.24999902261E+00 0.  0.
    1000022    2    1    0    0    0 -0.45161582337E+02  0.24198110383E+02 -0.34367614526E+02  0.62499999469E+02  0.99999970109E+01 0.  0.
    3000022    2    5    5    0    0 -0.14033371820E+02  0.86365805471E+01 -0.16683789810E+02  0.23450743940E+02  0.25000147499E+00 0.  0.
        -13    1    4    4    0    0  0.29090485950E+01 -0.21724026802E+01  0.61753546385E+00  0.36843279146E+01  0.10500000000E+00 0. -1.
         13    1    4    4    0    0  0.32420464527E+01 -0.23964038219E+01  0.82921664347E+00  0.41173100103E+01  0.10500000000E+00 0.  1.
    3000001    1    5    5    0    0 -0.31128210517E+02  0.15561529836E+02 -0.17683824716E+02  0.39049255530E+02  0.10000000000E+01 0. -1.
        -13    1    6    6    0    0 -0.74454189211E+01  0.45779522967E+01 -0.89450288506E+01  0.12506657278E+02  0.10500000000E+00 0.  1.
         13    1    6    6    0    0 -0.65879528984E+01  0.40586282504E+01 -0.77387609593E+01  0.10944086661E+02  0.10500000000E+00 0. -1.
</event>
<event>
11    0  0.3510903E-009  0.9118800E+02  0.7816531E-02  0.1126479E+00
         25   -1    0    0    0    0  0.00000000000E+00  0.00000000000E+00  0.99999998245E-14  0.12500000000E+03  0.12500000000E+03 0.  0.
    3000001    1    3    3    0    0  0.28666408697E+01 -0.99319928680E+01  0.72586906096E+00  0.10411003703E+02  0.10000000000E+01 0. -1.
    1000022    2    1    0    0    0  0.41619414944E+01 -0.57656183455E+02  0.21556731645E+02  0.62499999838E+02  0.10000002647E+02 0.  0.
    3000022    2    3    3    0    0  0.12953006248E+01 -0.47724190587E+02  0.20830862584E+02  0.52088996136E+02  0.25002296833E+00 0.  0.
    1000022    2    1    0    0    0 -0.41619414944E+01  0.57656183455E+02 -0.21556731645E+02  0.62500000162E+02  0.10000004666E+02 0.  0.
    3000022    2    5    5    0    0  0.29359118963E+01  0.14226204456E+02 -0.36506769168E+01  0.14979800303E+02  0.25000656345E+00 0.  0.
        -13    1    4    4    0    0  0.65567383012E+00 -0.23312893509E+02  0.10106393154E+02  0.25417929096E+02  0.10500000000E+00 0. -1.
         13    1    4    4    0    0  0.63962679465E+00 -0.24411297079E+02  0.10724469430E+02  0.26671067040E+02  0.10500000000E+00 0.  1.
    3000001    1    5    5    0    0 -0.70978533907E+01  0.43429978999E+02 -0.17906054729E+02  0.47520199858E+02  0.10000000000E+01 0.  1.
        -13    1    6    6    0    0  0.70959909521E+00  0.35341378011E+01 -0.88945732043E+00  0.37142724991E+01  0.10500000000E+00 0. -1.
         13    1    6    6    0    0  0.22263128011E+01  0.10692066655E+02 -0.27612195963E+01  0.11265527804E+02  0.10500000000E+00 0.  1.
</event>
<event>
11    0  0.3510903E-009  0.9118800E+02  0.7816531E-02  0.1126479E+00
         25   -1    0    0    0    0  0.00000000000E+00  0.00000000000E+00  0.99999998245E-14  0.12500000000E+03  0.12500000000E+03 0.  0.
    3000001    1    3    3    0    0 -0.43920812420E+00  0.81353019436E+01  0.56924968264E+01  0.99890220547E+01  0.10000000000E+01 0. -1.
    1000022    2    1    0    0    0  0.21008426309E+01  0.35254607342E+02  0.50586056982E+02  0.62500000245E+02  0.99999995499E+01 0.  0.
    3000022    2    3    3    0    0  0.25400507551E+01  0.27119305399E+02  0.44893560156E+02  0.52510978190E+02  0.25000779409E+00 0.  0.
    1000022    2    1    0    0    0 -0.21008426309E+01 -0.35254607342E+02 -0.50586056982E+02  0.62499999755E+02  0.99999964855E+01 0.  0.
    3000022    2    5    5    0    0 -0.26002874837E+01 -0.23861462287E+01 -0.75373492663E+01  0.83264230115E+01  0.24999476416E+00 0.  0.
        -13    1    4    4    0    0  0.12979769513E+01  0.13358958318E+02  0.22216815272E+02  0.25956587167E+02  0.10500000000E+00 0.  1.
         13    1    4    4    0    0  0.12420738039E+01  0.13760347081E+02  0.22676744884E+02  0.26554391024E+02  0.10500000000E+00 0. -1.
    3000001    1    5    5    0    0  0.49944485273E+00 -0.32868461114E+02 -0.43048707716E+02  0.54173576743E+02  0.10000000000E+01 0.  1.
        -13    1    6    6    0    0 -0.14182625919E+01 -0.12279438183E+01 -0.39094668582E+01  0.43375420362E+01  0.10500000000E+00 0. -1.
         13    1    6    6    0    0 -0.11820248917E+01 -0.11582024104E+01 -0.36278824081E+01  0.39888809753E+01  0.10500000000E+00 0.  1.
</event>
<event>
11    0  0.3510903E-009  0.9118800E+02  0.7816531E-02  0.1126479E+00
         25   -1    0    0    0    0  0.00000000000E+00  0.00000000000E+00  0.99999998245E-14  0.12500000000E+03  0.12500000000E+03 0.  0.
    3000001    1    3    3    0    0 -0.53659222435E+01 -0.10131443731E+02 -0.75241475167E+01  0.13749620702E+02  0.10000000000E+01 0. -1.
    1000022    2    1    0    0    0 -0.19894703579E+02 -0.55247848285E+02 -0.18924215077E+02  0.62500000175E+02  0.10000006745E+02 0.  0.
    3000022    2    3    3    0    0 -0.14528781336E+02 -0.45116404555E+02 -0.11400067560E+02  0.48750379473E+02  0.25002267881E+00 0.  0.
    1000022    2    1    0    0    0  0.19894703579E+02  0.55247848285E+02  0.18924215077E+02  0.62499999825E+02  0.10000004559E+02 0.  0.
    3000022    2    5    5    0    0  0.20219555520E+02  0.47291124890E+02  0.15060762706E+02  0.53592629832E+02  0.24996041321E+00 0.  0.
        -13    1    4    4    0    0 -0.39838561085E+01 -0.12417694383E+02 -0.31728777426E+01  0.13421938066E+02  0.10500000000E+00 0. -1.
         13    1    4    4    0    0 -0.10544925227E+02 -0.32698710172E+02 -0.82271898176E+01  0.35328441407E+02  0.10500000000E+00 0.  1.
    3000001    1    5    5    0    0 -0.32485194097E+00  0.79567233956E+01  0.38634523711E+01  0.89073699935E+01  0.10000000000E+01 0.  1.
        -13    1    6    6    0    0  0.71128253911E+01  0.16728956439E+02  0.52774896527E+01  0.18929162439E+02  0.10500000000E+00 0. -1.
         13    1    6    6    0    0  0.13106730129E+02  0.30562168451E+02  0.97832730530E+01  0.34663467393E+02  0.10500000000E+00 0.  1.
</event>
<event>
11    0  0.3510903E-009  0.9118800E+02  0.7816531E-02  0.1126479E+00
         25   -1    0    0    0    0  0.00000000000E+00  0.00000000000E+00  0.99999998245E-14  0.12500000000E+03  0.12500000000E+03 0.  0.
    3000001    1    3    3    0    0 -0.96126417542E+00 -0.80326102854E+01 -0.20340915349E+01  0.84014513737E+01  0.10000000000E+01 0. -1.
    1000022    2    1    0    0    0  0.18027205800E+00 -0.49932644850E+02 -0.36234613132E+02  0.62500011381E+02  0.10000135706E+02 0.  0.
    3000022    2    3    3    0    0  0.11415362334E+01 -0.41900034564E+02 -0.34200521597E+02  0.54098560007E+02  0.25003182977E+00 0.  0.
    1000022    2    1    0    0    0 -0.18027205800E+00  0.49932644850E+02  0.36234613132E+02  0.62499988619E+02  0.99999934416E+01 0.  0.
    3000022    2    5    5    0    0 -0.29218189572E+00  0.12538234287E+02  0.41364252889E+01  0.13208527614E+02  0.24999654720E+00 0.  0.
        -13    1    4    4    0    0  0.55744746892E+00 -0.18227623943E+02 -0.14912227684E+02  0.23557219314E+02  0.10500000000E+00 0. -1.
         13    1    4    4    0    0  0.58408876450E+00 -0.23672410622E+02 -0.19288293913E+02  0.30541340694E+02  0.10500000000E+00 0.  1.
    3000001    1    5    5    0    0  0.11190983772E+00  0.37394410563E+02  0.32098187843E+02  0.49291461004E+02  0.10000000000E+01 0. -1.
        -13    1    6    6    0    0 -0.76706919405E-01  0.57604538398E+01  0.18637302689E+01  0.60558424606E+01  0.10500000000E+00 0. -1.
         13    1    6    6    0    0 -0.21547497631E+00  0.67777804473E+01  0.22726950200E+01  0.71526851539E+01  0.10500000000E+00 0.  1.
</event>
<event>
11    0  0.3510903E-009  0.9118800E+02  0.7816531E-02  0.1126479E+00
         25   -1    0    0    0    0  0.00000000000E+00  0.00000000000E+00  0.99999998245E-14  0.12500000000E+03  0.12500000000E+03 0.  0.
    3000001    1    3    3    0    0 -0.16665195528E+02 -0.21893232168E+02  0.37985898518E+02  0.46914505678E+02  0.10000000000E+01 0.  1.
    1000022    2    1    0    0    0 -0.18826949202E+02 -0.25250473772E+02  0.53049127558E+02  0.62499999461E+02  0.99999777970E+01 0.  0.
    3000022    2    3    3    0    0 -0.21617536742E+01 -0.33572416038E+01  0.15063229040E+02  0.15585493783E+02  0.24999442576E+00 0.  0.
    1000022    2    1    0    0    0  0.18826949202E+02  0.25250473772E+02 -0.53049127558E+02  0.62500000539E+02  0.99999845361E+01 0.  0.
    3000022    2    5    5    0    0  0.62127484529E+01  0.59461812933E+01 -0.23359907738E+02  0.24893836920E+02  0.25002347233E+00 0.  0.
        -13    1    4    4    0    0 -0.13180501441E+01 -0.19514163078E+01  0.87289420349E+01  0.90416113518E+01  0.10500000000E+00 0. -1.
         13    1    4    4    0    0 -0.84370353010E+00 -0.14058252960E+01  0.63342870054E+01  0.65438824314E+01  0.10500000000E+00 0.  1.
    3000001    1    5    5    0    0  0.12614200749E+02  0.19304292479E+02 -0.29689219820E+02  0.37606163620E+02  0.10000000000E+01 0. -1.
        -13    1    6    6    0    0  0.17879230772E+01  0.16558108424E+01 -0.65987822114E+01  0.70351496181E+01  0.10500000000E+00 0. -1.
         13    1    6    6    0    0  0.44248253757E+01  0.42903704510E+01 -0.16761125527E+02  0.17858687301E+02  0.10500000000E+00 0.  1.
</event>
<event>
11    0  0.3510903E-009  0.9118800E+02  0.7816531E-02  0.1126479E+00
         25   -1    0    0    0    0  0.00000000000E+00  0.00000000000E+00  0.99999998245E-14  0.12500000000E+03  0.12500000000E+03 0.  0.
    3000001    1    3    3    0    0  0.12370095256E+02 -0.12397459754E+02  0.14448645123E+02  0.22726187777E+02  0.10000000000E+01 0.  1.
    1000022    2    1    0    0    0  0.22258290749E+02 -0.39191377533E+02  0.42129021960E+02  0.62500000670E+02  0.10000000626E+02 0.  0.
    3000022    2    3    3    0    0  0.98881954927E+01 -0.26793917779E+02  0.27680376837E+02  0.39773812893E+02  0.24998035895E+00 0.  0.
    1000022    2    1    0    0    0 -0.22258290749E+02  0.39191377533E+02 -0.42129021960E+02  0.62499999330E+02  0.99999922473E+01 0.  0.
    3000022    2    5    5    0    0 -0.61028327258E+01  0.18366571200E+02 -0.13657471662E+02  0.23688911235E+02  0.24995675272E+00 0.  0.
        -13    1    4    4    0    0  0.55819044614E+01 -0.15251149047E+02  0.15671730651E+02  0.22569212908E+02  0.10500000000E+00 0. -1.
         13    1    4    4    0    0  0.43062910313E+01 -0.11542768732E+02  0.12008646186E+02  0.17204599986E+02  0.10500000000E+00 0.  1.
    3000001    1    5    5    0    0 -0.16155458023E+02  0.20824806333E+02 -0.28471550298E+02  0.38811088095E+02  0.10000000000E+01 0. -1.
        -13    1    6    6    0    0 -0.16801034280E+01  0.51820660611E+01 -0.38370117936E+01  0.66641008917E+01  0.10500000000E+00 0. -1.
         13    1    6    6    0    0 -0.44227292978E+01  0.13184505139E+02 -0.98204598685E+01  0.17024810343E+02  0.10500000000E+00 0.  1.
</event>
<event>
11    0  0.3510903E-009  0.9118800E+02  0.7816531E-02  0.1126479E+00
         25   -1    0    0    0    0  0.00000000000E+00  0.00000000000E+00  0.99999998245E-14  0.12500000000E+03  0.12500000000E+03 0.  0.
    3000001    1    3    3    0    0 -0.94339521851E+01 -0.18375530326E+02  0.45828591359E+02  0.50278418378E+02  0.10000000000E+01 0.  1.
    1000022    2    1    0    0    0 -0.11181897720E+02 -0.26945166950E+02  0.54361502402E+02  0.62500000055E+02  0.10000010240E+02 0.  0.
    3000022    2    3    3    0    0 -0.17479455352E+01 -0.85696366236E+01  0.85329110434E+01  0.12221581677E+02  0.25000472063E+00 0.  0.
    1000022    2    1    0    0    0  0.11181897720E+02  0.26945166950E+02 -0.54361502402E+02  0.62499999945E+02  0.10000009557E+02 0.  0.
    3000022    2    5    5    0    0 -0.13975837373E+01  0.35753197224E+01 -0.10975923885E+02  0.11630544116E+02  0.24999972781E+00 0.  0.
        -13    1    4    4    0    0 -0.13466875293E+01 -0.65567282242E+01  0.65439561065E+01  0.93615510911E+01  0.10500000000E+00 0.  1.
         13    1    4    4    0    0 -0.40125800595E+00 -0.20129083994E+01  0.19889549368E+01  0.28600305859E+01  0.10500000000E+00 0. -1.
    3000001    1    5    5    0    0  0.12579481458E+02  0.23369847227E+02 -0.43385578517E+02  0.50869455830E+02  0.10000000000E+01 0.  1.
        -13    1    6    6    0    0 -0.46888325418E+00  0.10704582165E+01 -0.33554240687E+01  0.35546628505E+01  0.10500000000E+00 0.  1.
         13    1    6    6    0    0 -0.92870048314E+00  0.25048615059E+01 -0.76204998167E+01  0.80758812651E+01  0.10500000000E+00 0. -1.
</event>
<event>
11    0  0.3510903E-009  0.9118800E+02  0.7816531E-02  0.1126479E+00
         25   -1    0    0    0    0  0.00000000000E+00  0.00000000000E+00  0.99999998245E-14  0.12500000000E+03  0.12500000000E+03 0.  0.
    3000001    1    3    3    0    0  0.11038022742E+02  0.27710025066E+02 -0.13790477418E+02  0.32876446016E+02  0.10000000000E+01 0.  1.
    1000022    2    1    0    0    0  0.18852393214E+02  0.56015045733E+02 -0.17696096742E+02  0.62499999863E+02  0.10000003232E+02 0.  0.
    3000022    2    3    3    0    0  0.78143704719E+01  0.28305020667E+02 -0.39056193240E+01  0.29623553847E+02  0.24999883618E+00 0.  0.
    1000022    2    1    0    0    0 -0.18852393214E+02 -0.56015045733E+02  0.17696096742E+02  0.62500000137E+02  0.10000004938E+02 0.  0.
    3000022    2    5    5    0    0 -0.19260991261E+01 -0.10775106786E+02  0.70673619410E+01  0.13031611129E+02  0.24999944926E+00 0.  0.
        -13    1    4    4    0    0  0.26766256097E+01  0.97956814447E+01 -0.13012868736E+01  0.10238362767E+02  0.10500000000E+00 0.  1.
         13    1    4    4    0    0  0.51377448622E+01  0.18509339222E+02 -0.26043324504E+01  0.19385191080E+02  0.10500000000E+00 0. -1.
    3000001    1    5    5    0    0 -0.16926294088E+02 -0.45239938948E+02  0.10628734801E+02  0.49468389008E+02  0.10000000000E+01 0.  1.
        -13    1    6    6    0    0 -0.12858240596E+01 -0.73682100443E+01  0.48754611915E+01  0.89288862462E+01  0.10500000000E+00 0.  1.
         13    1    6    6    0    0 -0.64027506650E+00 -0.34068967413E+01  0.21919007495E+01  0.41027248826E+01  0.10500000000E+00 0. -1.
</event>
<event>
11    0  0.3510903E-009  0.9118800E+02  0.7816531E-02  0.1126479E+00
         25   -1    0    0    0    0  0.00000000000E+00  0.00000000000E+00  0.99999998245E-14  0.12500000000E+03  0.12500000000E+03 0.  0.
    3000001    1    3    3    0    0 -0.14336372429E+01 -0.13714316647E+01 -0.30485849364E+01  0.37722686370E+01  0.10000000000E+01 0. -1.
    1000022    2    1    0    0    0 -0.42371348687E+02 -0.38042352736E+02 -0.23742338536E+02  0.62500001499E+02  0.99999878444E+01 0.  0.
    3000022    2    3    3    0    0 -0.40937711444E+02 -0.36670921072E+02 -0.20693753600E+02  0.58727732862E+02  0.24999698450E+00 0.  0.
    1000022    2    1    0    0    0  0.42371348687E+02  0.38042352736E+02  0.23742338536E+02  0.62499998501E+02  0.99999691080E+01 0.  0.
    3000022    2    5    5    0    0  0.13163457963E+02  0.18045055903E+02  0.10638874488E+02  0.24741641397E+02  0.25000102347E+00 0.  0.
        -13    1    4    4    0    0 -0.22547281009E+02 -0.20272621157E+02 -0.11454671722E+02  0.32412645352E+02  0.10500000000E+00 0. -1.
         13    1    4    4    0    0 -0.18390430435E+02 -0.16398299915E+02 -0.92390818775E+01  0.26315087510E+02  0.10500000000E+00 0.  1.
    3000001    1    5    5    0    0  0.29207890724E+02  0.19997296833E+02  0.13103464048E+02  0.37758357104E+02  0.10000000000E+01 0.  1.
        -13    1    6    6    0    0  0.46514353617E+01  0.64153390881E+01  0.37163884667E+01  0.87529991874E+01  0.10500000000E+00 0.  1.
         13    1    6    6    0    0  0.85120226016E+01  0.11629716815E+02  0.69224860217E+01  0.15988642209E+02  0.10500000000E+00 0. -1.
</event>
<event>
11    0  0.3510903E-009  0.9118800E+02  0.7816531E-02  0.1126479E+00
         25   -1    0    0    0    0  0.00000000000E+00  0.00000000000E+00  0.99999998245E-14  0.12500000000E+03  0.12500000000E+03 0.  0.
    3000001    1    3    3    0    0 -0.14316562998E+02  0.77823515741E+01 -0.21020008997E+02  0.26615216519E+02  0.10000000000E+01 0. -1.
    1000022    2    1    0    0    0 -0.37562820963E+02  0.75535513186E+01 -0.48355230455E+02  0.62500000129E+02  0.10000002382E+02 0.  0.
    3000022    2    3    3    0    0 -0.23246257965E+02 -0.22880025546E+00 -0.27335221457E+02  0.35884783610E+02  0.25000744240E+00 0.  0.
    1000022    2    1    0    0    0  0.37562820963E+02 -0.75535513186E+01  0.48355230455E+02  0.62499999871E+02  0.10000000767E+02 0.  0.
    3000022    2    5    5    0    0  0.15649788912E+02 -0.52882568898E-02  0.25592516205E+02  0.29999255127E+02  0.25000302213E+00 0.  0.
        -13    1    4    4    0    0 -0.86594458809E+01 -0.14412080516E+00 -0.10166957911E+02  0.13356078464E+02  0.10500000000E+00 0. -1.
         13    1    4    4    0    0 -0.14586812084E+02 -0.84679450293E-01 -0.17168263546E+02  0.22528705146E+02  0.10500000000E+00 0.  1.
    3000001    1    5    5    0    0  0.21913032050E+02 -0.75482630617E+01  0.22762714249E+02  0.32500744743E+02  0.10000000000E+01 0. -1.
        -13    1    6    6    0    0  0.94904962747E+01 -0.13249385198E-01  0.15401349021E+02  0.18090944469E+02  0.10500000000E+00 0.  1.
         13    1    6    6    0    0  0.61592926377E+01  0.79611283081E-02  0.10191167184E+02  0.11908310659E+02  0.10500000000E+00 0. -1.
</event>
<event>
11    0  0.3510903E-009  0.9118800E+02  0.7816531E-02  0.1126479E+00
         25   -1    0    0    0    0  0.00000000000E+00  0.00000000000E+00  0.99999998245E-14  0.12500000000E+03  0.12500000000E+03 0.  0.
    3000001    1    3    3    0    0  0.49546346587E+02  0.28613158171E+02  0.14515813236E+02  0.59036108565E+02  0.10000000000E+01 0.  1.
    1000022    2    1    0    0    0  0.50612446118E+02  0.31819363577E+02  0.15236736382E+02  0.62500001591E+02  0.10000023144E+02 0.  0.
    3000022    2    3    3    0    0  0.10660995308E+01  0.32062054060E+01  0.72092314612E+00  0.34638930261E+01  0.25000679635E+00 0.  0.
    1000022    2    1    0    0    0 -0.50612446118E+02 -0.31819363577E+02 -0.15236736382E+02  0.62499998409E+02  0.10000003253E+02 0.  0.
    3000022    2    5    5    0    0 -0.50023164576E+02 -0.31924317368E+02 -0.15436798848E+02  0.61317504001E+02  0.25000930346E+00 0.  0.
        -13    1    4    4    0    0  0.52406012199E+00  0.16853304392E+01  0.31696475261E+00  0.17962375553E+01  0.10500000000E+00 0. -1.
         13    1    4    4    0    0  0.54203940878E+00  0.15208749668E+01  0.40395839351E+00  0.16676554708E+01  0.10500000000E+00 0.  1.
    3000001    1    5    5    0    0 -0.58928154204E+00  0.10495379108E+00  0.20006246626E+00  0.11824944078E+01  0.10000000000E+01 0. -1.
        -13    1    6    6    0    0 -0.28759201748E+02 -0.18276976456E+02 -0.88563007087E+01  0.35207735525E+02  0.10500000000E+00 0. -1.
         13    1    6    6    0    0 -0.21263962828E+02 -0.13647340912E+02 -0.65804981397E+01  0.26109768476E+02  0.10500000000E+00 0.  1.
</event>
<event>
11    0  0.3510903E-009  0.9118800E+02  0.7816531E-02  0.1126479E+00
         25   -1    0    0    0    0  0.00000000000E+00  0.00000000000E+00  0.99999998245E-14  0.12500000000E+03  0.12500000000E+03 0.  0.
    3000001    1    3    3    0    0  0.58137774223E+02  0.10697843648E+02  0.11274916141E+02  0.60187776037E+02  0.10000000000E+01 0.  1.
    1000022    2    1    0    0    0  0.60026212458E+02  0.99650132177E+01  0.10188341510E+02  0.62500000098E+02  0.10000001953E+02 0.  0.
    3000022    2    3    3    0    0  0.18884382355E+01 -0.73283043061E+00 -0.10865746308E+01  0.23122240613E+01  0.24999254428E+00 0.  0.
    1000022    2    1    0    0    0 -0.60026212458E+02 -0.99650132177E+01 -0.10188341510E+02  0.62499999902E+02  0.10000000722E+02 0.  0.
    3000022    2    5    5    0    0 -0.29882254331E+02 -0.97021665766E+01 -0.35728706035E+01  0.31621338090E+02  0.24991615650E+00 0.  0.
        -13    1    4    4    0    0  0.56651487536E+00 -0.17500084161E+00 -0.30512959093E+00  0.67505071352E+00  0.10500000000E+00 0.  1.
         13    1    4    4    0    0  0.13219233601E+01 -0.55782958899E+00 -0.78144503986E+00  0.16371733478E+01  0.10500000000E+00 0.  1.
    3000001    1    5    5    0    0 -0.30143958128E+02 -0.26284664110E+00 -0.66154709069E+01  0.30878661812E+02  0.10000000000E+01 0.  1.
        -13    1    6    6    0    0 -0.17001177855E+02 -0.55129441875E+01 -0.20980885294E+01  0.17995710671E+02  0.10500000000E+00 0.  1.
         13    1    6    6    0    0 -0.12881076476E+02 -0.41892223891E+01 -0.14747820741E+01  0.13625627419E+02  0.10500000000E+00 0. -1.
</event>
<event>
11    0  0.3510903E-009  0.9118800E+02  0.7816531E-02  0.1126479E+00
         25   -1    0    0    0    0  0.00000000000E+00  0.00000000000E+00  0.99999998245E-14  0.12500000000E+03  0.12500000000E+03 0.  0.
    3000001    1    3    3    0    0 -0.99154384850E+01 -0.29887498334E+02 -0.39501271214E+02  0.50526516846E+02  0.10000000000E+01 0. -1.
    1000022    2    1    0    0    0 -0.16704408610E+02 -0.35614204953E+02 -0.47527265689E+02  0.62500003319E+02  0.10000028477E+02 0.  0.
    3000022    2    3    3    0    0 -0.67889701249E+01 -0.57267066189E+01 -0.80259944748E+01  0.11973486473E+02  0.25001391560E+00 0.  0.
    1000022    2    1    0    0    0  0.16704408610E+02  0.35614204953E+02  0.47527265689E+02  0.62499996681E+02  0.99999869890E+01 0.  0.
    3000022    2    5    5    0    0  0.11784455096E+02  0.31038362792E+02  0.43044458222E+02  0.54361210724E+02  0.25000210703E+00 0.  0.
        -13    1    4    4    0    0 -0.36707685204E+01 -0.31544493960E+01 -0.43056773152E+01  0.64788096642E+01  0.10500000000E+00 0. -1.
         13    1    4    4    0    0 -0.31182016045E+01 -0.25722572229E+01 -0.37203171596E+01  0.54946768090E+01  0.10500000000E+00 0.  1.
    3000001    1    5    5    0    0  0.49199535139E+01  0.45758421612E+01  0.44828074670E+01  0.81387859567E+01  0.10000000000E+01 0.  1.
        -13    1    6    6    0    0  0.70899883614E+01  0.18634817930E+02  0.25749006404E+02  0.32566036449E+02  0.10500000000E+00 0.  1.
         13    1    6    6    0    0  0.46944667347E+01  0.12403544862E+02  0.17295451818E+02  0.21795174275E+02  0.10500000000E+00 0. -1.
</event>
<event>
11    0  0.3510903E-009  0.9118800E+02  0.7816531E-02  0.1126479E+00
         25   -1    0    0    0    0  0.00000000000E+00  0.00000000000E+00  0.99999998245E-14  0.12500000000E+03  0.12500000000E+03 0.  0.
    3000001    1    3    3    0    0 -0.47896722277E+02 -0.13532860438E+02  0.73472289190E+01  0.50321129650E+02  0.10000000000E+01 0. -1.
    1000022    2    1    0    0    0 -0.58153962617E+02 -0.15454368424E+02  0.13620917805E+02  0.62499998427E+02  0.99999765070E+01 0.  0.
    3000022    2    3    3    0    0 -0.10257240340E+02 -0.19215079860E+01  0.62736888860E+01  0.12178868777E+02  0.25000023256E+00 0.  0.
    1000022    2    1    0    0    0  0.58153962617E+02  0.15454368424E+02 -0.13620917805E+02  0.62500001573E+02  0.99999961681E+01 0.  0.
    3000022    2    5    5    0    0  0.49103005561E+02  0.12816697569E+02 -0.15001697488E+02  0.52919621430E+02  0.25002601217E+00 0.  0.
        -13    1    4    4    0    0 -0.39997998521E+01 -0.68834624124E+00  0.24581630075E+01  0.47461362998E+01  0.10500000000E+00 0. -1.
         13    1    4    4    0    0 -0.62574404879E+01 -0.12331617448E+01  0.38155258785E+01  0.74327324772E+01  0.10500000000E+00 0.  1.
    3000001    1    5    5    0    0  0.90509570553E+01  0.26376708552E+01  0.13807796830E+01  0.95803801433E+01  0.10000000000E+01 0.  1.
        -13    1    6    6    0    0  0.18145927025E+02  0.47660681889E+01 -0.56004691846E+01  0.19579743453E+02  0.10500000000E+00 0.  1.
         13    1    6    6    0    0  0.30957078536E+02  0.80506293800E+01 -0.94012283034E+01  0.33339877977E+02  0.10500000000E+00 0. -1.
</event>
<event>
11    0  0.3510903E-009  0.9118800E+02  0.7816531E-02  0.1126479E+00
         25   -1    0    0    0    0  0.00000000000E+00  0.00000000000E+00  0.99999998245E-14  0.12500000000E+03  0.12500000000E+03 0.  0.
    3000001    1    3    3    0    0 -0.15672800440E+02 -0.41910933330E+02  0.30553630523E+02  0.54191210951E+02  0.10000000000E+01 0.  1.
    1000022    2    1    0    0    0 -0.18904677175E+02 -0.45245956966E+02  0.37438837169E+02  0.62500000542E+02  0.10000004915E+02 0.  0.
    3000022    2    3    3    0    0 -0.32318767354E+01 -0.33350236360E+01  0.68852066462E+01  0.83087895909E+01  0.25000803933E+00 0.  0.
    1000022    2    1    0    0    0  0.18904677175E+02  0.45245956966E+02 -0.37438837169E+02  0.62499999458E+02  0.99999981382E+01 0.  0.
    3000022    2    5    5    0    0  0.86658970423E+01  0.27775095785E+02 -0.27007799452E+02  0.39699338133E+02  0.24999897461E+00 0.  0.
        -13    1    4    4    0    0 -0.24841774231E+01 -0.25660039945E+01  0.52730248102E+01  0.63695627493E+01  0.10500000000E+00 0. -1.
         13    1    4    4    0    0 -0.74769931230E+00 -0.76901964156E+00  0.16121818360E+01  0.19392268416E+01  0.10500000000E+00 0.  1.
    3000001    1    5    5    0    0  0.10238780133E+02  0.17470861181E+02 -0.10431037717E+02  0.22800661325E+02  0.10000000000E+01 0.  1.
        -13    1    6    6    0    0  0.41251593548E+01  0.13274221197E+02 -0.12992726103E+02  0.19027449768E+02  0.10500000000E+00 0.  1.
         13    1    6    6    0    0  0.45407376875E+01  0.14500874588E+02 -0.14015073349E+02  0.20671888365E+02  0.10500000000E+00 0. -1.
</event>
<event>
11    0  0.3510903E-009  0.9118800E+02  0.7816531E-02  0.1126479E+00
         25   -1    0    0    0    0  0.00000000000E+00  0.00000000000E+00  0.99999998245E-14  0.12500000000E+03  0.12500000000E+03 0.  0.
    3000001    1    3    3    0    0  0.55064256687E+01 -0.20350669763E+02  0.43979333384E+01  0.21559506049E+02  0.10000000000E+01 0. -1.
    1000022    2    1    0    0    0  0.15323738430E+02 -0.54099006403E+02  0.25391541723E+02  0.62499998820E+02  0.10000000404E+02 0.  0.
    3000022    2    3    3    0    0  0.98173127615E+01 -0.33748336640E+02  0.20993608384E+02  0.40940492770E+02  0.24999882385E+00 0.  0.
    1000022    2    1    0    0    0 -0.15323738430E+02  0.54099006403E+02 -0.25391541723E+02  0.62500001180E+02  0.10000015159E+02 0.  0.
    3000022    2    5    5    0    0 -0.76408950481E+01  0.40582230210E+02 -0.20911956014E+02  0.46289016966E+02  0.25000266372E+00 0.  0.
        -13    1    4    4    0    0  0.53100850792E+01 -0.18427251943E+02  0.11508247697E+02  0.22365406497E+02  0.10500000000E+00 0. -1.
         13    1    4    4    0    0  0.45072276823E+01 -0.15321084697E+02  0.94853606874E+01  0.18575086273E+02  0.10500000000E+00 0.  1.
    3000001    1    5    5    0    0 -0.76828433821E+01  0.13516776193E+02 -0.44795857084E+01  0.16210984215E+02  0.10000000000E+01 0. -1.
        -13    1    6    6    0    0 -0.42871059298E+01  0.22633201107E+02 -0.11596534375E+02  0.25790147424E+02  0.10500000000E+00 0. -1.
         13    1    6    6    0    0 -0.33537891183E+01  0.17949029103E+02 -0.93154216388E+01  0.20498869542E+02  0.10500000000E+00 0.  1.
</event>
<event>
11    0  0.3510903E-009  0.9118800E+02  0.7816531E-02  0.1126479E+00
         25   -1    0    0    0    0  0.00000000000E+00  0.00000000000E+00  0.99999998245E-14  0.12500000000E+03  0.12500000000E+03 0.  0.
    3000001    1    3    3    0    0  0.25391216282E+02  0.13827874477E+02  0.18540339484E+02  0.34360852216E+02  0.10000000000E+01 0.  1.
    1000022    2    1    0    0    0  0.42634483594E+02  0.32660724567E+02  0.30361617952E+02  0.62500000203E+02  0.10000003009E+02 0.  0.
    3000022    2    3    3    0    0  0.17243267312E+02  0.18832850090E+02  0.11821278469E+02  0.28139147988E+02  0.25002945438E+00 0.  0.
    1000022    2    1    0    0    0 -0.42634483594E+02 -0.32660724567E+02 -0.30361617952E+02  0.62499999797E+02  0.10000000469E+02 0.  0.
    3000022    2    5    5    0    0  0.31270861881E+00 -0.11042475585E+01 -0.39114426945E-01  0.11752349772E+01  0.24999592513E+00 0.  0.
        -13    1    4    4    0    0  0.11070512496E+02  0.12121419659E+02  0.76591084181E+01  0.18115132576E+02  0.10500000000E+00 0.  1.
         13    1    4    4    0    0  0.61727548161E+01  0.67114304310E+01  0.41621700504E+01  0.10024015412E+02  0.10500000000E+00 0. -1.
    3000001    1    5    5    0    0 -0.42947192213E+02 -0.31556477009E+02 -0.30322503525E+02  0.61324764819E+02  0.10000000000E+01 0.  1.
        -13    1    6    6    0    0  0.25000733652E+00 -0.73061761086E+00  0.74595442695E-02  0.77934998968E+00  0.10500000000E+00 0.  1.
         13    1    6    6    0    0  0.62701282287E-01 -0.37362994766E+00 -0.46573971214E-01  0.39588498757E+00  0.10500000000E+00 0. -1.
</event>
<event>
11    0  0.3510903E-009  0.9118800E+02  0.7816531E-02  0.1126479E+00
         25   -1    0    0    0    0  0.00000000000E+00  0.00000000000E+00  0.99999998245E-14  0.12500000000E+03  0.12500000000E+03 0.  0.
    3000001    1    3    3    0    0 -0.19668457353E+02  0.31213745461E+02 -0.35538994762E+02  0.51236376424E+02  0.10000000000E+01 0.  1.
    1000022    2    1    0    0    0 -0.24072447865E+02  0.40766646905E+02 -0.39558158458E+02  0.62500000842E+02  0.99999979264E+01 0.  0.
    3000022    2    3    3    0    0 -0.44039905119E+01  0.95529014437E+01 -0.40191636966E+01  0.11263624418E+02  0.24999957434E+00 0.  0.
    1000022    2    1    0    0    0  0.24072447865E+02 -0.40766646905E+02  0.39558158458E+02  0.62499999158E+02  0.99999874053E+01 0.  0.
    3000022    2    5    5    0    0  0.86127569991E+01 -0.88915584683E+01  0.62736108463E+01  0.13880204689E+02  0.24998807580E+00 0.  0.
        -13    1    4    4    0    0 -0.21513578377E+01  0.46631319238E+01 -0.20347057473E+01  0.55248703481E+01  0.10500000000E+00 0.  1.
         13    1    4    4    0    0 -0.22526326742E+01  0.48897695199E+01 -0.19844579493E+01  0.57387540699E+01  0.10500000000E+00 0. -1.
    3000001    1    5    5    0    0  0.15459690866E+02 -0.31875088436E+02  0.33284547612E+02  0.48619794469E+02  0.10000000000E+01 0. -1.
        -13    1    6    6    0    0  0.20829111165E+01 -0.21467820210E+01  0.14935374369E+01  0.33449769566E+01  0.10500000000E+00 0. -1.
         13    1    6    6    0    0  0.65298458826E+01 -0.67447764473E+01  0.47800734094E+01  0.10535227732E+02  0.10500000000E+00 0.  1.
</event>
<event>
11    0  0.3510903E-009  0.9118800E+02  0.7816531E-02  0.1126479E+00
         25   -1    0    0    0    0  0.00000000000E+00  0.00000000000E+00  0.99999998245E-14  0.12500000000E+03  0.12500000000E+03 0.  0.
    3000001    1    3    3    0    0  0.29716857157E+02  0.38400984691E+02 -0.21595886614E+02  0.53151759549E+02  0.10000000000E+01 0.  1.
    1000022    2    1    0    0    0  0.37111828042E+02  0.41709996080E+02 -0.26253350197E+02  0.62500000656E+02  0.10000006590E+02 0.  0.
    3000022    2    3    3    0    0  0.73949708851E+01  0.33090113891E+01 -0.46574635829E+01  0.93482411069E+01  0.24998800107E+00 0.  0.
    1000022    2    1    0    0    0 -0.37111828042E+02 -0.41709996080E+02  0.26253350197E+02  0.62499999344E+02  0.99999983958E+01 0.  0.
    3000022    2    5    5    0    0 -0.59389335430E+01 -0.12710483058E+02  0.49335045301E+01  0.14873778350E+02  0.25000853869E+00 0.  0.
        -13    1    4    4    0    0  0.19770966801E+01  0.86056825254E+00 -0.12710765268E+01  0.25052244484E+01  0.10500000000E+00 0.  1.
         13    1    4    4    0    0  0.54178742050E+01  0.24484431366E+01 -0.33863870561E+01  0.68430166585E+01  0.10500000000E+00 0. -1.
    3000001    1    5    5    0    0 -0.31172894499E+02 -0.28999513022E+02  0.21319845667E+02  0.47626220994E+02  0.10000000000E+01 0.  1.
        -13    1    6    6    0    0 -0.31509179625E+01 -0.67912393580E+01  0.25645478099E+01  0.79143633031E+01  0.10500000000E+00 0.  1.
         13    1    6    6    0    0 -0.27880155804E+01 -0.59192436997E+01  0.23689567202E+01  0.69594150469E+01  0.10500000000E+00 0. -1.
</event>
<event>
11    0  0.3510903E-009  0.9118800E+02  0.7816531E-02  0.1126479E+00
         25   -1    0    0    0    0  0.00000000000E+00  0.00000000000E+00  0.99999998245E-14  0.12500000000E+03  0.12500000000E+03 0.  0.
    3000001    1    3    3    0    0  0.30395165622E+01 -0.39210320938E+01 -0.16692542601E+02  0.17442881990E+02  0.10000000000E+01 0. -1.
    1000022    2    1    0    0    0  0.19117065595E+02 -0.63961637657E+00 -0.58654744916E+02  0.62500003446E+02  0.10000001174E+02 0.  0.
    3000022    2    3    3    0    0  0.16077549033E+02  0.32814157172E+01 -0.41962202315E+02  0.45057121456E+02  0.24999756134E+00 0.  0.
    1000022    2    1    0    0    0 -0.19117065595E+02  0.63961637657E+00  0.58654744916E+02  0.62499996554E+02  0.99999581027E+01 0.  0.
    3000022    2    5    5    0    0  0.63537851225E+00 -0.11292886953E+01  0.77125107690E+01  0.78245972119E+01  0.25000071092E+00 0.  0.
        -13    1    4    4    0    0  0.10041281441E+02  0.20079690882E+01 -0.26062771026E+02  0.28002470094E+02  0.10500000000E+00 0. -1.
         13    1    4    4    0    0  0.60362675922E+01  0.12734466290E+01 -0.15899431289E+02  0.17054651362E+02  0.10500000000E+00 0.  1.
    3000001    1    5    5    0    0 -0.19752444107E+02  0.17689050719E+01  0.50942234147E+02  0.54675399342E+02  0.10000000000E+01 0.  1.
        -13    1    6    6    0    0  0.22585841503E+00 -0.31440620614E+00  0.24481214001E+01  0.24807633252E+01  0.10500000000E+00 0. -1.
         13    1    6    6    0    0  0.40952009722E+00 -0.81488248915E+00  0.52643893689E+01  0.53438338867E+01  0.10500000000E+00 0.  1.
</event>
<event>
11    0  0.3510903E-009  0.9118800E+02  0.7816531E-02  0.1126479E+00
         25   -1    0    0    0    0  0.00000000000E+00  0.00000000000E+00  0.99999998245E-14  0.12500000000E+03  0.12500000000E+03 0.  0.
    3000001    1    3    3    0    0  0.42956672847E+01  0.81386192140E+01 -0.49154284868E+01  0.10480997917E+02  0.10000000000E+01 0.  1.
    1000022    2    1    0    0    0  0.17470755279E+02  0.37348267321E+02 -0.45892588778E+02  0.62500000754E+02  0.10000001382E+02 0.  0.
    3000022    2    3    3    0    0  0.13175087994E+02  0.29209648107E+02 -0.40977160291E+02  0.52019002837E+02  0.25000888622E+00 0.  0.
    1000022    2    1    0    0    0 -0.17470755279E+02 -0.37348267321E+02  0.45892588778E+02  0.62499999246E+02  0.99999919539E+01 0.  0.
    3000022    2    5    5    0    0 -0.76482749388E+01 -0.17243128396E+02  0.28333033053E+02  0.34038872626E+02  0.25000244133E+00 0.  0.
        -13    1    4    4    0    0  0.78438178578E+01  0.17252404606E+02 -0.24187123519E+02  0.30727819844E+02  0.10500000000E+00 0. -1.
         13    1    4    4    0    0  0.53312701361E+01  0.11957243501E+02 -0.16790036772E+02  0.21291182993E+02  0.10500000000E+00 0.  1.
    3000001    1    5    5    0    0 -0.98224803398E+01 -0.20105138925E+02  0.17559555725E+02  0.28461126620E+02  0.10000000000E+01 0. -1.
        -13    1    6    6    0    0 -0.54886124865E+01 -0.12376963767E+02  0.20408326197E+02  0.24491323000E+02  0.10500000000E+00 0.  1.
         13    1    6    6    0    0 -0.21596624522E+01 -0.48661646286E+01  0.79247068564E+01  0.95475496259E+01  0.10500000000E+00 0. -1.
</event>
<event>
11    0  0.3510903E-009  0.9118800E+02  0.7816531E-02  0.1126479E+00
         25   -1    0    0    0    0  0.00000000000E+00  0.00000000000E+00  0.99999998245E-14  0.12500000000E+03  0.12500000000E+03 0.  0.
    3000001    1    3    3    0    0  0.94416817351E+01  0.40319492576E+02  0.22653668695E+02  0.47212239313E+02  0.10000000000E+01 0. -1.
    1000022    2    1    0    0    0  0.82264953837E+01  0.51404288094E+02  0.33108514821E+02  0.62500001682E+02  0.10000019792E+02 0.  0.
    3000022    2    3    3    0    0 -0.12151863514E+01  0.11084795518E+02  0.10454846126E+02  0.15287762369E+02  0.25000239968E+00 0.  0.
    1000022    2    1    0    0    0 -0.82264953837E+01 -0.51404288094E+02 -0.33108514821E+02  0.62499998318E+02  0.99999987664E+01 0.  0.
    3000022    2    5    5    0    0  0.19633645845E+01 -0.16547594944E+02 -0.97192045087E+01  0.19292566776E+02  0.24999523369E+00 0.  0.
        -13    1    4    4    0    0 -0.32878463318E+00  0.34275716682E+01  0.32449553847E+01  0.47325582220E+01  0.10500000000E+00 0. -1.
         13    1    4    4    0    0 -0.88640171821E+00  0.76572238499E+01  0.72098907412E+01  0.10555204147E+02  0.10500000000E+00 0.  1.
    3000001    1    5    5    0    0 -0.10189859968E+02 -0.34856693150E+02 -0.23389310312E+02  0.43207431541E+02  0.10000000000E+01 0. -1.
        -13    1    6    6    0    0  0.71256931619E+00 -0.63324449962E+01 -0.37718917212E+01  0.74057954884E+01  0.10500000000E+00 0. -1.
         13    1    6    6    0    0  0.12507952683E+01 -0.10215149948E+02 -0.59473127875E+01  0.11886771288E+02  0.10500000000E+00 0.  1.
</event>
<event>
11    0  0.3510903E-009  0.9118800E+02  0.7816531E-02  0.1126479E+00
         25   -1    0    0    0    0  0.00000000000E+00  0.00000000000E+00  0.99999998245E-14  0.12500000000E+03  0.12500000000E+03 0.  0.
    3000001    1    3    3    0    0  0.19184986062E+01  0.13032295406E+02  0.27413578705E+02  0.30430669691E+02  0.10000000000E+01 0.  1.
    1000022    2    1    0    0    0 -0.54630034920E+00  0.34343710784E+02  0.51249010305E+02  0.62500000213E+02  0.10000002745E+02 0.  0.
    3000022    2    3    3    0    0 -0.24647989554E+01  0.21311415378E+02  0.23835431600E+02  0.32069330522E+02  0.25000249254E+00 0.  0.
    1000022    2    1    0    0    0  0.54630034920E+00 -0.34343710784E+02 -0.51249010305E+02  0.62499999787E+02  0.10000000079E+02 0.  0.
    3000022    2    5    5    0    0 -0.41150727960E+01 -0.23436955004E+02 -0.36022883499E+02  0.43173317228E+02  0.25000163839E+00 0.  0.
        -13    1    4    4    0    0 -0.12345959663E+01  0.11110809766E+02  0.12352336281E+02  0.16660298840E+02  0.10500000000E+00 0. -1.
         13    1    4    4    0    0 -0.12302029892E+01  0.10200605612E+02  0.11483095320E+02  0.15409031682E+02  0.10500000000E+00 0.  1.
    3000001    1    5    5    0    0  0.46613731452E+01 -0.10906755779E+02 -0.15226126806E+02  0.19326682559E+02  0.10000000000E+01 0.  1.
        -13    1    6    6    0    0 -0.14295677323E+01 -0.79027135746E+01 -0.12094368950E+02  0.14518310199E+02  0.10500000000E+00 0.  1.
         13    1    6    6    0    0 -0.26855050637E+01 -0.15534241430E+02 -0.23928514550E+02  0.28655007029E+02  0.10500000000E+00 0. -1.
</event>
<event>
11    0  0.3510903E-009  0.9118800E+02  0.7816531E-02  0.1126479E+00
         25   -1    0    0    0    0  0.00000000000E+00  0.00000000000E+00  0.99999998245E-14  0.12500000000E+03  0.12500000000E+03 0.  0.
    3000001    1    3    3    0    0 -0.34364689995E+02 -0.17629225980E+02  0.35882505465E+02  0.52728319958E+02  0.10000000000E+01 0. -1.
    1000022    2    1    0    0    0 -0.42988385814E+02 -0.21077179923E+02  0.38910165926E+02  0.62500000911E+02  0.10000013656E+02 0.  0.
    3000022    2    3    3    0    0 -0.86236958189E+01 -0.34479539438E+01  0.30276604608E+01  0.97716809537E+01  0.25000963704E+00 0.  0.
    1000022    2    1    0    0    0  0.42988385814E+02  0.21077179923E+02 -0.38910165926E+02  0.62499999089E+02  0.10000002265E+02 0.  0.
    3000022    2    5    5    0    0  0.42779993193E+02  0.20707796875E+02 -0.36741320000E+02  0.60074351964E+02  0.24999923703E+00 0.  0.
        -13    1    4    4    0    0 -0.38465159637E+01 -0.14667435174E+01  0.13478255293E+01  0.43329759129E+01  0.10500000000E+00 0. -1.
         13    1    4    4    0    0 -0.47771798553E+01 -0.19812104264E+01  0.16798349315E+01  0.54387050408E+01  0.10500000000E+00 0.  1.
    3000001    1    5    5    0    0  0.20839262130E+00  0.36938304814E+00 -0.21688459262E+01  0.24256471245E+01  0.10000000000E+01 0.  1.
        -13    1    6    6    0    0  0.23933424724E+02  0.11620005765E+02 -0.20640335950E+02  0.33672954224E+02  0.10500000000E+00 0.  1.
         13    1    6    6    0    0  0.18846568468E+02  0.90877911101E+01 -0.16100984050E+02  0.26401397741E+02  0.10500000000E+00 0. -1.
</event>
<event>
11    0  0.3510903E-009  0.9118800E+02  0.7816531E-02  0.1126479E+00
         25   -1    0    0    0    0  0.00000000000E+00  0.00000000000E+00  0.99999998245E-14  0.12500000000E+03  0.12500000000E+03 0.  0.
    3000001    1    3    3    0    0 -0.15305665346E+02  0.37436366590E+02  0.42787322948E+02  0.58885481574E+02  0.10000000000E+01 0.  1.
    1000022    2    1    0    0    0 -0.17645205543E+02  0.37725269437E+02  0.45515939116E+02  0.62500002123E+02  0.10000015951E+02 0.  0.
    3000022    2    3    3    0    0 -0.23395401969E+01  0.28890284767E+00  0.27286161678E+01  0.36145205493E+01  0.24999884459E+00 0.  0.
    1000022    2    1    0    0    0  0.17645205543E+02 -0.37725269437E+02 -0.45515939116E+02  0.62499997877E+02  0.99999894115E+01 0.  0.
    3000022    2    5    5    0    0  0.60872988665E+01 -0.19315861988E+02 -0.28047095465E+02  0.34595661514E+02  0.24999940191E+00 0.  0.
        -13    1    4    4    0    0 -0.13058262451E+01  0.97281911651E-01  0.14824010522E+01  0.19807028632E+01  0.10500000000E+00 0. -1.
         13    1    4    4    0    0 -0.10337139517E+01  0.19162093601E+00  0.12462151156E+01  0.16338176861E+01  0.10500000000E+00 0.  1.
    3000001    1    5    5    0    0  0.11557906677E+02 -0.18409407449E+02 -0.17468843651E+02  0.27904336363E+02  0.10000000000E+01 0.  1.
        -13    1    6    6    0    0  0.34394863922E+01 -0.10893815310E+02 -0.15932546321E+02  0.19605160951E+02  0.10500000000E+00 0. -1.
         13    1    6    6    0    0  0.26478124743E+01 -0.84220466776E+01 -0.12114549144E+02  0.14990500562E+02  0.10500000000E+00 0.  1.
</event>
<event>
11    0  0.3510903E-009  0.9118800E+02  0.7816531E-02  0.1126479E+00
         25   -1    0    0    0    0  0.00000000000E+00  0.00000000000E+00  0.99999998245E-14  0.12500000000E+03  0.12500000000E+03 0.  0.
    3000001    1    3    3    0    0  0.82936438823E+01  0.82142409157E+01 -0.30810542846E+02  0.32962825017E+02  0.10000000000E+01 0. -1.
    1000022    2    1    0    0    0  0.24155057268E+02  0.12965611059E+02 -0.55269125152E+02  0.62499999865E+02  0.99999963184E+01 0.  0.
    3000022    2    3    3    0    0  0.15861413386E+02  0.47513701432E+01 -0.24458582306E+02  0.29537174848E+02  0.24999350467E+00 0.  0.
    1000022    2    1    0    0    0 -0.24155057268E+02 -0.12965611059E+02  0.55269125152E+02  0.62500000135E+02  0.99999980040E+01 0.  0.
    3000022    2    5    5    0    0 -0.27145503244E+01 -0.60282499645E+01  0.13181328015E+02  0.14748508171E+02  0.25000787048E+00 0.  0.
        -13    1    4    4    0    0  0.39160523095E+01  0.11910599576E+01 -0.60790262160E+01  0.73293706584E+01  0.10500000000E+00 0.  1.
         13    1    4    4    0    0  0.11945361076E+02  0.35603101856E+01 -0.18379556090E+02  0.22207804189E+02  0.10500000000E+00 0. -1.
    3000001    1    5    5    0    0 -0.21440506944E+02 -0.69373610944E+01  0.42087797137E+02  0.47751491964E+02  0.10000000000E+01 0. -1.
        -13    1    6    6    0    0 -0.19164506603E+01 -0.43518544460E+01  0.94918293993E+01  0.10616839012E+02  0.10500000000E+00 0. -1.
         13    1    6    6    0    0 -0.79809966412E+00 -0.16763955186E+01  0.36894986154E+01  0.41316691593E+01  0.10500000000E+00 0.  1.
</event>
<event>
11    0  0.3510903E-009  0.9118800E+02  0.7816531E-02  0.1126479E+00
         25   -1    0    0    0    0  0.00000000000E+00  0.00000000000E+00  0.99999998245E-14  0.12500000000E+03  0.12500000000E+03 0.  0.
    3000001    1    3    3    0    0 -0.20251924708E+00  0.96466055209E+01  0.58005395869E+01  0.11302401144E+02  0.10000000000E+01 0. -1.
    1000022    2    1    0    0    0 -0.31123861767E+01  0.39490717015E+02  0.47297440531E+02  0.62499994916E+02  0.99998902790E+01 0.  0.
    3000022    2    3    3    0    0 -0.29098669296E+01  0.29844111494E+02  0.41496900944E+02  0.51197593772E+02  0.25000721901E+00 0.  0.
    1000022    2    1    0    0    0  0.31123861767E+01 -0.39490717015E+02 -0.47297440531E+02  0.62500005084E+02  0.99999538325E+01 0.  0.
    3000022    2    5    5    0    0  0.57490596148E+01 -0.35376791360E+02 -0.40758946322E+02  0.54276360051E+02  0.25000336635E+00 0.  0.
        -13    1    4    4    0    0 -0.18421486502E+01  0.19404613296E+02  0.26927897255E+02  0.33242370619E+02  0.10500000000E+00 0.  1.
         13    1    4    4    0    0 -0.10677182795E+01  0.10439498198E+02  0.14569003690E+02  0.17955223153E+02  0.10500000000E+00 0. -1.
    3000001    1    5    5    0    0 -0.26366734380E+01 -0.41139256547E+01 -0.65384942092E+01  0.82236450334E+01  0.10000000000E+01 0. -1.
        -13    1    6    6    0    0  0.33792484766E+01 -0.20535029222E+02 -0.23591511801E+02  0.31459135390E+02  0.10500000000E+00 0. -1.
         13    1    6    6    0    0  0.23698111381E+01 -0.14841762138E+02 -0.17167434521E+02  0.22817224661E+02  0.10500000000E+00 0.  1.
</event>
<event>
11    0  0.3510903E-009  0.9118800E+02  0.7816531E-02  0.1126479E+00
         25   -1    0    0    0    0  0.00000000000E+00  0.00000000000E+00  0.99999998245E-14  0.12500000000E+03  0.12500000000E+03 0.  0.
    3000001    1    3    3    0    0 -0.55297279708E+02 -0.40720951816E+01 -0.23065805458E+02  0.60061655685E+02  0.10000000000E+01 0.  1.
    1000022    2    1    0    0    0 -0.57490134977E+02 -0.38799445248E+01 -0.22047231797E+02  0.62499999510E+02  0.99999959825E+01 0.  0.
    3000022    2    3    3    0    0 -0.21928552699E+01  0.19215065684E+00  0.10185736609E+01  0.24383438253E+01  0.24998439532E+00 0.  0.
    1000022    2    1    0    0    0  0.57490134977E+02  0.38799445248E+01  0.22047231797E+02  0.62500000490E+02  0.10000002102E+02 0.  0.
    3000022    2    5    5    0    0  0.49722878485E+01 -0.31322844428E+00  0.51325076910E+01  0.71572967411E+01  0.25000587018E+00 0.  0.
        -13    1    4    4    0    0 -0.12988513067E+01  0.69950812918E-01  0.54894458472E+00  0.14157234865E+01  0.10500000000E+00 0. -1.
         13    1    4    4    0    0 -0.89400396323E+00  0.12219984392E+00  0.46962907613E+00  0.10226203388E+01  0.10500000000E+00 0.  1.
    3000001    1    5    5    0    0  0.52517847129E+02  0.41931729690E+01  0.16914724106E+02  0.55342703749E+02  0.10000000000E+01 0.  1.
        -13    1    6    6    0    0  0.15378860833E+01 -0.59750523601E-01  0.16317004492E+01  0.22454699032E+01  0.10500000000E+00 0.  1.
         13    1    6    6    0    0  0.34344017652E+01 -0.25347792068E+00  0.35008072418E+01  0.49118268379E+01  0.10500000000E+00 0. -1.
</event>
<event>
11    0  0.3510903E-009  0.9118800E+02  0.7816531E-02  0.1126479E+00
         25   -1    0    0    0    0  0.00000000000E+00  0.00000000000E+00  0.99999998245E-14  0.12500000000E+03  0.12500000000E+03 0.  0.
    3000001    1    3    3    0    0  0.80185665199E-01  0.37631734881E+00 -0.18347141254E+01  0.21246694825E+01  0.10000000000E+01 0. -1.
    1000022    2    1    0    0    0  0.99137094509E+01  0.50458399823E+02 -0.34086923087E+02  0.62500001046E+02  0.10000002870E+02 0.  0.
    3000022    2    3    3    0    0  0.98335237857E+01  0.50082082475E+02 -0.32252208962E+02  0.60375331564E+02  0.25000694240E+00 0.  0.
    1000022    2    1    0    0    0 -0.99137094509E+01 -0.50458399823E+02  0.34086923087E+02  0.62499998954E+02  0.99999897938E+01 0.  0.
    3000022    2    5    5    0    0 -0.13108087284E+01 -0.15501169361E+02  0.54407314455E+01  0.16482370179E+02  0.24999399430E+00 0.  0.
        -13    1    4    4    0    0  0.61265978380E+01  0.31310509260E+02 -0.20227713570E+02  0.37776376381E+02  0.10500000000E+00 0.  1.
         13    1    4    4    0    0  0.37069259478E+01  0.18771573215E+02 -0.12024495391E+02  0.22598955183E+02  0.10500000000E+00 0. -1.
    3000001    1    5    5    0    0 -0.86029007225E+01 -0.34957230463E+02  0.28646191641E+02  0.46017628775E+02  0.10000000000E+01 0.  1.
        -13    1    6    6    0    0 -0.51227809740E+00 -0.57031232937E+01  0.19485995381E+01  0.60494718209E+01  0.10500000000E+00 0.  1.
         13    1    6    6    0    0 -0.79853063104E+00 -0.97980460670E+01  0.34921319075E+01  0.10432898358E+02  0.10500000000E+00 0. -1.
</event>
<event>
11    0  0.3510903E-009  0.9118800E+02  0.7816531E-02  0.1126479E+00
         25   -1    0    0    0    0  0.00000000000E+00  0.00000000000E+00  0.99999998245E-14  0.12500000000E+03  0.12500000000E+03 0.  0.
    3000001    1    3    3    0    0  0.14195732046E+02 -0.46734847569E+01 -0.48269899660E+01  0.15737220219E+02  0.10000000000E+01 0.  1.
    1000022    2    1    0    0    0  0.46880703994E+02 -0.24329114282E+02 -0.31883293502E+02  0.62499996418E+02  0.99999469478E+01 0.  0.
    3000022    2    3    3    0    0  0.32684971948E+02 -0.19655629525E+02 -0.27056303536E+02  0.46762776199E+02  0.25002700031E+00 0.  0.
    1000022    2    1    0    0    0 -0.46880703994E+02  0.24329114282E+02  0.31883293502E+02  0.62500003582E+02  0.99999917273E+01 0.  0.
    3000022    2    5    5    0    0 -0.65190304067E+01  0.72647958170E+01  0.40063131938E+01  0.10554053879E+02  0.24998435210E+00 0.  0.
        -13    1    4    4    0    0  0.12572529927E+02 -0.75260636510E+01 -0.10460740657E+02  0.18004117943E+02  0.10500000000E+00 0.  1.
         13    1    4    4    0    0  0.20112442022E+02 -0.12129565874E+02 -0.16595562879E+02  0.28758658255E+02  0.10500000000E+00 0. -1.
    3000001    1    5    5    0    0 -0.40361673587E+02  0.17064318465E+02  0.27876980308E+02  0.51945949703E+02  0.10000000000E+01 0.  1.
        -13    1    6    6    0    0 -0.42346192588E+01  0.48012951767E+01  0.26357818191E+01  0.69240744103E+01  0.10500000000E+00 0. -1.
         13    1    6    6    0    0 -0.22844111479E+01  0.24635006403E+01  0.13705313747E+01  0.36299794691E+01  0.10500000000E+00 0.  1.
</event>
<event>
11    0  0.3510903E-009  0.9118800E+02  0.7816531E-02  0.1126479E+00
         25   -1    0    0    0    0  0.00000000000E+00  0.00000000000E+00  0.99999998245E-14  0.12500000000E+03  0.12500000000E+03 0.  0.
    3000001    1    3    3    0    0  0.41927842923E+01 -0.54926698028E+02 -0.44197828178E+01  0.55272561697E+02  0.10000000000E+01 0.  1.
    1000022    2    1    0    0    0  0.79383673580E+01 -0.60881167000E+02 -0.60593732295E+01  0.62499999621E+02  0.99999888551E+01 0.  0.
    3000022    2    3    3    0    0  0.37455830656E+01 -0.59544689722E+01 -0.16395904117E+01  0.72274379243E+01  0.25001797770E+00 0.  0.
    1000022    2    1    0    0    0 -0.79383673580E+01  0.60881167000E+02  0.60593732295E+01  0.62500000379E+02  0.99999935870E+01 0.  0.
    3000022    2    5    5    0    0 -0.40374784887E+01  0.45069425888E+02  0.83778099617E+01  0.46019610825E+02  0.24999650304E+00 0.  0.
        -13    1    4    4    0    0  0.15484263477E+01 -0.24450988981E+01 -0.73996404907E+00  0.29890976179E+01  0.10500000000E+00 0. -1.
         13    1    4    4    0    0  0.21971567180E+01 -0.35093700741E+01 -0.89962636264E+00  0.42383403064E+01  0.10500000000E+00 0.  1.
    3000001    1    5    5    0    0 -0.39008888692E+01  0.15811741112E+02 -0.23184367322E+01  0.16480389554E+02  0.10000000000E+01 0. -1.
        -13    1    6    6    0    0 -0.24699347917E+01  0.28094654370E+02  0.51826356337E+01  0.28675441045E+02  0.10500000000E+00 0.  1.
         13    1    6    6    0    0 -0.15675436971E+01  0.16974771518E+02  0.31951743280E+01  0.17344169779E+02  0.10500000000E+00 0. -1.
</event>
<event>
11    0  0.3510903E-009  0.9118800E+02  0.7816531E-02  0.1126479E+00
         25   -1    0    0    0    0  0.00000000000E+00  0.00000000000E+00  0.99999998245E-14  0.12500000000E+03  0.12500000000E+03 0.  0.
    3000001    1    3    3    0    0  0.32827701002E+00  0.21287392489E+01 -0.11483403033E+00  0.23774952029E+01  0.10000000000E+01 0.  1.
    1000022    2    1    0    0    0  0.37579933947E+02  0.38683767447E+02 -0.29959384038E+02  0.62500000954E+02  0.10000006396E+02 0.  0.
    3000022    2    3    3    0    0  0.37251656937E+02  0.36555028198E+02 -0.29844550008E+02  0.60122505751E+02  0.25000295237E+00 0.  0.
    1000022    2    1    0    0    0 -0.37579933947E+02 -0.38683767447E+02  0.29959384038E+02  0.62499999046E+02  0.99999944735E+01 0.  0.
    3000022    2    5    5    0    0 -0.15456234202E+02 -0.21570395980E+02  0.17986816929E+02  0.32058778037E+02  0.25001502391E+00 0.  0.
        -13    1    4    4    0    0  0.18052365105E+02  0.17809524041E+02 -0.14505178771E+02  0.29214350388E+02  0.10500000000E+00 0. -1.
         13    1    4    4    0    0  0.19199291832E+02  0.18745504157E+02 -0.15339371237E+02  0.30908155363E+02  0.10500000000E+00 0.  1.
    3000001    1    5    5    0    0 -0.22123699745E+02 -0.17113371467E+02  0.11972567109E+02  0.30441221010E+02  0.10000000000E+01 0. -1.
        -13    1    6    6    0    0 -0.88082490434E+01 -0.12218282952E+02  0.10269026430E+02  0.18230074556E+02  0.10500000000E+00 0. -1.
         13    1    6    6    0    0 -0.66479851584E+01 -0.93521130285E+01  0.77177904993E+01  0.13828703481E+02  0.10500000000E+00 0.  1.
</event>
<event>
11    0  0.3510903E-009  0.9118800E+02  0.7816531E-02  0.1126479E+00
         25   -1    0    0    0    0  0.00000000000E+00  0.00000000000E+00  0.99999998245E-14  0.12500000000E+03  0.12500000000E+03 0.  0.
    3000001    1    3    3    0    0  0.46472088902E+01  0.28153656323E+02 -0.33286611067E+02  0.43854570927E+02  0.10000000000E+01 0.  1.
    1000022    2    1    0    0    0  0.18747210617E+00  0.40192215745E+02 -0.46805984058E+02  0.62500002169E+02  0.10000038759E+02 0.  0.
    3000022    2    3    3    0    0 -0.44597367841E+01  0.12038559422E+02 -0.13519372991E+02  0.18645431243E+02  0.24999000902E+00 0.  0.
    1000022    2    1    0    0    0 -0.18747210617E+00 -0.40192215745E+02  0.46805984058E+02  0.62499997831E+02  0.10000011645E+02 0.  0.
    3000022    2    5    5    0    0 -0.79413202814E+00 -0.23863985557E+01  0.28582100941E+00  0.25435684866E+01  0.25000650363E+00 0.  0.
        -13    1    4    4    0    0 -0.19417231132E+01  0.54323318398E+01 -0.60655132845E+01  0.83714989262E+01  0.10500000000E+00 0.  1.
         13    1    4    4    0    0 -0.25180136708E+01  0.66062275822E+01 -0.74538597069E+01  0.10273932316E+02  0.10500000000E+00 0. -1.
    3000001    1    5    5    0    0  0.60665992197E+00 -0.37805817189E+02  0.46520163049E+02  0.59956429344E+02  0.10000000000E+01 0.  1.
        -13    1    6    6    0    0 -0.57245598446E+00 -0.15578404362E+01  0.16808164757E+00  0.16714811154E+01  0.10500000000E+00 0. -1.
         13    1    6    6    0    0 -0.22167604368E+00 -0.82855811950E+00  0.11773936185E+00  0.87208737123E+00  0.10500000000E+00 0.  1.
</event>
<event>
11    0  0.3510903E-009  0.9118800E+02  0.7816531E-02  0.1126479E+00
         25   -1    0    0    0    0  0.00000000000E+00  0.00000000000E+00  0.99999998245E-14  0.12500000000E+03  0.12500000000E+03 0.  0.
    3000001    1    3    3    0    0 -0.38368007792E+02  0.30239072667E+02  0.16654101753E+02  0.51622326980E+02  0.10000000000E+01 0.  1.
    1000022    2    1    0    0    0 -0.45947436334E+02  0.33709845399E+02  0.23637458671E+02  0.62499999781E+02  0.99999968837E+01 0.  0.
    3000022    2    3    3    0    0 -0.75794285424E+01  0.34707727315E+01  0.69833569182E+01  0.10877672800E+02  0.24998263820E+00 0.  0.
    1000022    2    1    0    0    0  0.45947436334E+02 -0.33709845399E+02 -0.23637458671E+02  0.62500000219E+02  0.99999996263E+01 0.  0.
    3000022    2    5    5    0    0  0.44282465253E+02 -0.30361322533E+02 -0.20341506289E+02  0.57415903821E+02  0.24999728807E+00 0.  0.
        -13    1    4    4    0    0 -0.18727609043E+01  0.83352475076E+00  0.17064572759E+01  0.26692730001E+01  0.10500000000E+00 0.  1.
         13    1    4    4    0    0 -0.57066676381E+01  0.26372479808E+01  0.52768996422E+01  0.82083998001E+01  0.10500000000E+00 0. -1.
    3000001    1    5    5    0    0  0.16649710812E+01 -0.33485228663E+01 -0.32959523823E+01  0.50840963989E+01  0.10000000000E+01 0. -1.
        -13    1    6    6    0    0  0.14310214766E+02 -0.97695226936E+01 -0.65240587507E+01  0.18514863972E+02  0.10500000000E+00 0. -1.
         13    1    6    6    0    0  0.29972250486E+02 -0.20591799839E+02 -0.13817447538E+02  0.38901039849E+02  0.10500000000E+00 0.  1.
</event>
<event>
11    0  0.3510903E-009  0.9118800E+02  0.7816531E-02  0.1126479E+00
         25   -1    0    0    0    0  0.00000000000E+00  0.00000000000E+00  0.99999998245E-14  0.12500000000E+03  0.12500000000E+03 0.  0.
    3000001    1    3    3    0    0 -0.44424199555E+02  0.23780818143E+02 -0.80460453737E+01  0.51037002889E+02  0.10000000000E+01 0.  1.
    1000022    2    1    0    0    0 -0.55821208726E+02  0.24790456496E+02 -0.86991927747E+01  0.62499999430E+02  0.99999948469E+01 0.  0.
    3000022    2    3    3    0    0 -0.11397009171E+02  0.10096383529E+01 -0.65314740099E+00  0.11462996542E+02  0.25000109799E+00 0.  0.
    1000022    2    1    0    0    0  0.55821208726E+02 -0.24790456496E+02  0.86991927747E+01  0.62500000570E+02  0.10000001969E+02 0.  0.
    3000022    2    5    5    0    0  0.68801036204E+01 -0.29091158997E+01  0.44825699672E+01  0.87152002713E+01  0.25000222240E+00 0.  0.
        -13    1    4    4    0    0 -0.45824091691E+01  0.40367497015E+00 -0.19931638867E+00  0.46056681705E+01  0.10500000000E+00 0. -1.
         13    1    4    4    0    0 -0.68146000016E+01  0.60596338278E+00 -0.45383101231E+00  0.68573283712E+01  0.10500000000E+00 0.  1.
    3000001    1    5    5    0    0  0.48941105106E+02 -0.21881340596E+02  0.42166228074E+01  0.53784800298E+02  0.10000000000E+01 0.  1.
        -13    1    6    6    0    0  0.35458980895E+01 -0.14698449756E+01  0.22309226797E+01  0.44409321675E+01  0.10500000000E+00 0.  1.
         13    1    6    6    0    0  0.33342055309E+01 -0.14392709241E+01  0.22516472875E+01  0.42742681038E+01  0.10500000000E+00 0. -1.
</event>
<event>
11    0  0.3510903E-009  0.9118800E+02  0.7816531E-02  0.1126479E+00
         25   -1    0    0    0    0  0.00000000000E+00  0.00000000000E+00  0.99999998245E-14  0.12500000000E+03  0.12500000000E+03 0.  0.
    3000001    1    3    3    0    0  0.22958232205E+02 -0.24174565834E+02  0.25527013623E+02  0.42001410497E+02  0.10000000000E+01 0. -1.
    1000022    2    1    0    0    0  0.31332692182E+02 -0.31706882321E+02  0.42651916596E+02  0.62500000152E+02  0.10000002190E+02 0.  0.
    3000022    2    3    3    0    0  0.83744599765E+01 -0.75323164870E+01  0.17124902973E+02  0.20498589655E+02  0.25000886932E+00 0.  0.
    1000022    2    1    0    0    0 -0.31332692182E+02  0.31706882321E+02 -0.42651916596E+02  0.62499999848E+02  0.10000000291E+02 0.  0.
    3000022    2    5    5    0    0 -0.11315380581E+02  0.54488970990E+01 -0.13541055415E+02  0.18470273636E+02  0.25001825716E+00 0.  0.
        -13    1    4    4    0    0  0.49872327016E+01 -0.45677905580E+01  0.10252371817E+02  0.12282481568E+02  0.10500000000E+00 0. -1.
         13    1    4    4    0    0  0.33872272750E+01 -0.29645259290E+01  0.68725311565E+01  0.82161080867E+01  0.10500000000E+00 0.  1.
    3000001    1    5    5    0    0 -0.20017311600E+02  0.26257985222E+02 -0.29110861181E+02  0.44029726212E+02  0.10000000000E+01 0. -1.
        -13    1    6    6    0    0 -0.60739616020E+01  0.29969636461E+01 -0.73272430192E+01  0.99786930958E+01  0.10500000000E+00 0. -1.
         13    1    6    6    0    0 -0.52414189793E+01  0.24519334529E+01 -0.62138123961E+01  0.84915805401E+01  0.10500000000E+00 0.  1.
</event>
<event>
11    0  0.3510903E-009  0.9118800E+02  0.7816531E-02  0.1126479E+00
         25   -1    0    0    0    0  0.00000000000E+00  0.00000000000E+00  0.99999998245E-14  0.12500000000E+03  0.12500000000E+03 0.  0.
    3000001    1    3    3    0    0 -0.13232569117E+02  0.52704270821E+02  0.11201517158E+02  0.55491576251E+02  0.10000000000E+01 0. -1.
    1000022    2    1    0    0    0 -0.15876735804E+02  0.58893100187E+02  0.92618587578E+01  0.62499999577E+02  0.99999965031E+01 0.  0.
    3000022    2    3    3    0    0 -0.26441666868E+01  0.61888293658E+01 -0.19396584001E+01  0.70084233256E+01  0.24999283066E+00 0.  0.
    1000022    2    1    0    0    0  0.15876735804E+02 -0.58893100187E+02 -0.92618587578E+01  0.62500000423E+02  0.10000001794E+02 0.  0.
    3000022    2    5    5    0    0  0.40225784373E+01 -0.56070220971E+01 -0.30536478962E+01  0.75503048177E+01  0.25000657083E+00 0.  0.
        -13    1    4    4    0    0 -0.13280965241E+01  0.32595590723E+01 -0.98060263145E+00  0.36552937288E+01  0.10500000000E+00 0.  1.
         13    1    4    4    0    0 -0.13160701627E+01  0.29292702935E+01 -0.95905576867E+00  0.33531295968E+01  0.10500000000E+00 0. -1.
    3000001    1    5    5    0    0  0.11854157367E+02 -0.53286078090E+02 -0.62082108616E+01  0.54949695606E+02  0.10000000000E+01 0. -1.
        -13    1    6    6    0    0  0.30292616869E+01 -0.42452437849E+01 -0.22865610304E+01  0.56954286500E+01  0.10500000000E+00 0.  1.
         13    1    6    6    0    0  0.99331675036E+00 -0.13617783121E+01 -0.76708686573E+00  0.18548761677E+01  0.10500000000E+00 0. -1.
</event>
<event>
11    0  0.3510903E-009  0.9118800E+02  0.7816531E-02  0.1126479E+00
         25   -1    0    0    0    0  0.00000000000E+00  0.00000000000E+00  0.99999998245E-14  0.12500000000E+03  0.12500000000E+03 0.  0.
    3000001    1    3    3    0    0 -0.64547414797E+01 -0.51379284403E+02 -0.10501063469E+02  0.52846635535E+02  0.10000000000E+01 0. -1.
    1000022    2    1    0    0    0 -0.67443120730E+01 -0.59137783454E+02 -0.16232275971E+02  0.62500000583E+02  0.10000005620E+02 0.  0.
    3000022    2    3    3    0    0 -0.28957059326E+00 -0.77584990511E+01 -0.57312125020E+01  0.96533650480E+01  0.25000270361E+00 0.  0.
    1000022    2    1    0    0    0  0.67443120730E+01  0.59137783454E+02  0.16232275971E+02  0.62499999417E+02  0.99999983386E+01 0.  0.
    3000022    2    5    5    0    0  0.34107639945E+01  0.21265177008E+02  0.10758604705E+02  0.24075945247E+02  0.25000019079E+00 0.  0.
        -13    1    4    4    0    0 -0.59203277500E-01 -0.32877751502E+01 -0.24095053712E+01  0.40779543401E+01  0.10500000000E+00 0. -1.
         13    1    4    4    0    0 -0.23036731576E+00 -0.44707239009E+01 -0.33217071308E+01  0.55754107078E+01  0.10500000000E+00 0.  1.
    3000001    1    5    5    0    0  0.33335480784E+01  0.37872606446E+02  0.54736712657E+01  0.38424054171E+02  0.10000000000E+01 0.  1.
        -13    1    6    6    0    0  0.11957263570E+01  0.76849737942E+01  0.39361500481E+01  0.87173898582E+01  0.10500000000E+00 0.  1.
         13    1    6    6    0    0  0.22150376376E+01  0.13580203214E+02  0.68224546571E+01  0.15358555389E+02  0.10500000000E+00 0. -1.
</event>
<event>
11    0  0.3510903E-009  0.9118800E+02  0.7816531E-02  0.1126479E+00
         25   -1    0    0    0    0  0.00000000000E+00  0.00000000000E+00  0.99999998245E-14  0.12500000000E+03  0.12500000000E+03 0.  0.
    3000001    1    3    3    0    0 -0.70760702085E+01  0.40017057709E+01  0.15990890357E+02  0.17966440746E+02  0.10000000000E+01 0. -1.
    1000022    2    1    0    0    0 -0.11105243930E+02  0.79293481685E+01  0.60166842913E+02  0.62500000023E+02  0.10000000581E+02 0.  0.
    3000022    2    3    3    0    0 -0.40291737213E+01  0.39276423977E+01  0.44175952556E+02  0.44533559277E+02  0.25000389840E+00 0.  0.
    1000022    2    1    0    0    0  0.11105243930E+02 -0.79293481685E+01 -0.60166842913E+02  0.62499999977E+02  0.10000000298E+02 0.  0.
    3000022    2    5    5    0    0  0.12274428926E+02 -0.80027709903E+01 -0.46702619668E+02  0.48947963523E+02  0.25000052094E+00 0.  0.
        -13    1    4    4    0    0 -0.18675873623E+01  0.17353328620E+01  0.19798276226E+02  0.19962014658E+02  0.10500000000E+00 0. -1.
         13    1    4    4    0    0 -0.21615863590E+01  0.21923095357E+01  0.24377676330E+02  0.24571544619E+02  0.10500000000E+00 0.  1.
    3000001    1    5    5    0    0 -0.11691849958E+01  0.73422821819E-01 -0.13464223245E+02  0.13552036454E+02  0.10000000000E+01 0. -1.
        -13    1    6    6    0    0  0.34058003219E+01 -0.22476927846E+01 -0.12902413237E+02  0.13532734055E+02  0.10500000000E+00 0. -1.
         13    1    6    6    0    0  0.88686286036E+01 -0.57550782058E+01 -0.33800206431E+02  0.35415229468E+02  0.10500000000E+00 0.  1.
</event>
<event>
11    0  0.3510903E-009  0.9118800E+02  0.7816531E-02  0.1126479E+00
         25   -1    0    0    0    0  0.00000000000E+00  0.00000000000E+00  0.99999998245E-14  0.12500000000E+03  0.12500000000E+03 0.  0.
    3000001    1    3    3    0    0 -0.61605891384E+01  0.19064285438E+01 -0.19635366926E+01  0.68148957929E+01  0.10000000000E+01 0.  1.
    1000022    2    1    0    0    0 -0.47247089793E+02  0.39389517349E+02 -0.47358473094E+01  0.62499998711E+02  0.10000000915E+02 0.  0.
    3000022    2    3    3    0    0 -0.41086500655E+02  0.37483088805E+02 -0.27723106168E+01  0.55685102919E+02  0.24999695237E+00 0.  0.
    1000022    2    1    0    0    0  0.47247089793E+02 -0.39389517349E+02  0.47358473094E+01  0.62500001289E+02  0.10000017023E+02 0.  0.
    3000022    2    5    5    0    0  0.12346426745E+02 -0.11728449397E+02  0.56579844187E+01  0.17946199001E+02  0.24998454983E+00 0.  0.
        -13    1    4    4    0    0 -0.11746472857E+02  0.10694276003E+02 -0.83016982119E+00  0.15907462737E+02  0.10500000000E+00 0. -1.
         13    1    4    4    0    0 -0.29340027798E+02  0.26788812801E+02 -0.19421407956E+01  0.39777640181E+02  0.10500000000E+00 0.  1.
    3000001    1    5    5    0    0  0.34900663048E+02 -0.27661067951E+02 -0.92213710932E+00  0.44553802287E+02  0.10000000000E+01 0. -1.
        -13    1    6    6    0    0  0.48134627189E+01 -0.45120195008E+01  0.21464458553E+01  0.69387317380E+01  0.10500000000E+00 0. -1.
         13    1    6    6    0    0  0.75329640262E+01 -0.72164298964E+01  0.35115385634E+01  0.11007467263E+02  0.10500000000E+00 0.  1.
</event>
<event>
11    0  0.3510903E-009  0.9118800E+02  0.7816531E-02  0.1126479E+00
         25   -1    0    0    0    0  0.00000000000E+00  0.00000000000E+00  0.99999998245E-14  0.12500000000E+03  0.12500000000E+03 0.  0.
    3000001    1    3    3    0    0  0.38609316987E+02  0.16263508844E+02  0.25754269152E+02  0.49188041816E+02  0.10000000000E+01 0.  1.
    1000022    2    1    0    0    0  0.48070725886E+02  0.16198522916E+02  0.35114999500E+02  0.62500000864E+02  0.10000004310E+02 0.  0.
    3000022    2    3    3    0    0  0.94614088996E+01 -0.64985928012E-01  0.93607303481E+01  0.13311959048E+02  0.24999903411E+00 0.  0.
    1000022    2    1    0    0    0 -0.48070725886E+02 -0.16198522916E+02 -0.35114999500E+02  0.62499999136E+02  0.99999935093E+01 0.  0.
    3000022    2    5    5    0    0 -0.26472725702E+02 -0.39941268179E+01 -0.16260801863E+02  0.31324661694E+02  0.24999575163E+00 0.  0.
        -13    1    4    4    0    0  0.25683802795E+01 -0.21354396176E-01  0.24913913177E+01  0.35798168904E+01  0.10500000000E+00 0.  1.
         13    1    4    4    0    0  0.68930286201E+01 -0.43631531836E-01  0.68693390304E+01  0.97321421579E+01  0.10500000000E+00 0. -1.
    3000001    1    5    5    0    0 -0.21598000185E+02 -0.12204396099E+02 -0.18854197637E+02  0.31175337442E+02  0.10000000000E+01 0. -1.
        -13    1    6    6    0    0 -0.11129998260E+02 -0.16255814382E+01 -0.67883036934E+01  0.13138168378E+02  0.10500000000E+00 0. -1.
         13    1    6    6    0    0 -0.15342727441E+02 -0.23685453798E+01 -0.94724981699E+01  0.18186493316E+02  0.10500000000E+00 0.  1.
</event>
<event>
11    0  0.3510903E-009  0.9118800E+02  0.7816531E-02  0.1126479E+00
         25   -1    0    0    0    0  0.00000000000E+00  0.00000000000E+00  0.99999998245E-14  0.12500000000E+03  0.12500000000E+03 0.  0.
    3000001    1    3    3    0    0 -0.14749923181E+02 -0.20341778826E+02 -0.39343261373E+02  0.46693044611E+02  0.10000000000E+01 0.  1.
    1000022    2    1    0    0    0 -0.14038008160E+02 -0.27257196831E+02 -0.53537182797E+02  0.62499996688E+02  0.99999595962E+01 0.  0.
    3000022    2    3    3    0    0  0.71191502034E+00 -0.69154180051E+01 -0.14193921424E+02  0.15806952076E+02  0.24999872361E+00 0.  0.
    1000022    2    1    0    0    0  0.14038008160E+02  0.27257196831E+02  0.53537182797E+02  0.62500003312E+02  0.10000000998E+02 0.  0.
    3000022    2    5    5    0    0  0.12234008743E+02  0.13041594982E+02  0.29392957488E+02  0.34405851508E+02  0.24999695545E+00 0.  0.
        -13    1    4    4    0    0  0.34099426394E+00 -0.34793388306E+01 -0.69885865304E+01  0.78149499346E+01  0.10500000000E+00 0. -1.
         13    1    4    4    0    0  0.37092075640E+00 -0.34360791745E+01 -0.72053348940E+01  0.79920021418E+01  0.10500000000E+00 0.  1.
    3000001    1    5    5    0    0  0.18039994170E+01  0.14215601849E+02  0.24144225309E+02  0.28094151804E+02  0.10000000000E+01 0.  1.
        -13    1    6    6    0    0  0.41648629904E+01  0.43680621049E+01  0.99660444228E+01  0.11651571427E+02  0.10500000000E+00 0.  1.
         13    1    6    6    0    0  0.80691457530E+01  0.86735328773E+01  0.19426913065E+02  0.22754280081E+02  0.10500000000E+00 0. -1.
</event>
<event>
11    0  0.3510903E-009  0.9118800E+02  0.7816531E-02  0.1126479E+00
         25   -1    0    0    0    0  0.00000000000E+00  0.00000000000E+00  0.99999998245E-14  0.12500000000E+03  0.12500000000E+03 0.  0.
    3000001    1    3    3    0    0 -0.67306422641E+01 -0.19115189221E+01  0.26587281192E+01  0.75514425833E+01  0.10000000000E+01 0.  1.
    1000022    2    1    0    0    0 -0.58775382583E+02 -0.18423501903E+02 -0.35041329799E+01  0.62499999717E+02  0.99999998227E+01 0.  0.
    3000022    2    3    3    0    0 -0.52044740319E+02 -0.16511982981E+02 -0.61628610991E+01  0.54948557133E+02  0.24999450884E+00 0.  0.
    1000022    2    1    0    0    0  0.58775382583E+02  0.18423501903E+02  0.35041329799E+01  0.62500000283E+02  0.10000003363E+02 0.  0.
    3000022    2    5    5    0    0  0.52992786013E+02  0.17577084002E+02  0.45821925804E+00  0.55834234254E+02  0.24999673830E+00 0.  0.
        -13    1    4    4    0    0 -0.36087242555E+02 -0.11410398088E+02 -0.42417594855E+01  0.38085296484E+02  0.10500000000E+00 0. -1.
         13    1    4    4    0    0 -0.15957497764E+02 -0.51015848928E+01 -0.19211016136E+01  0.16863260649E+02  0.10500000000E+00 0.  1.
    3000001    1    5    5    0    0  0.57825965705E+01  0.84641790094E+00  0.30459137218E+01  0.66657660296E+01  0.10000000000E+01 0.  1.
        -13    1    6    6    0    0  0.32370289090E+02  0.10765994310E+02  0.22461962526E+00  0.34114567683E+02  0.10500000000E+00 0.  1.
         13    1    6    6    0    0  0.20622496923E+02  0.68110896927E+01  0.23359963278E+00  0.21719666570E+02  0.10500000000E+00 0. -1.
</event>
<event>
11    0  0.3510903E-009  0.9118800E+02  0.7816531E-02  0.1126479E+00
         25   -1    0    0    0    0  0.00000000000E+00  0.00000000000E+00  0.99999998245E-14  0.12500000000E+03  0.12500000000E+03 0.  0.
    3000001    1    3    3    0    0  0.42511100489E+01 -0.24449945992E+01  0.35048700688E+01  0.61101595263E+01  0.10000000000E+01 0.  1.
    1000022    2    1    0    0    0  0.42560271193E+02 -0.42680330780E+02  0.13162910489E+02  0.62500002135E+02  0.10000036736E+02 0.  0.
    3000022    2    3    3    0    0  0.38309161144E+02 -0.40235336181E+02  0.96580404201E+01  0.56389842608E+02  0.24999887398E+00 0.  0.
    1000022    2    1    0    0    0 -0.42560271193E+02  0.42680330780E+02 -0.13162910489E+02  0.62499997865E+02  0.10000010053E+02 0.  0.
    3000022    2    5    5    0    0 -0.24775202442E+02  0.31459973246E+02 -0.87724406148E+01  0.40994619017E+02  0.25000267817E+00 0.  0.
        -13    1    4    4    0    0  0.22171686098E+02 -0.23320532976E+02  0.55325554712E+01  0.32650438248E+02  0.10500000000E+00 0. -1.
         13    1    4    4    0    0  0.16137475046E+02 -0.16914803205E+02  0.41254849489E+01  0.23739404361E+02  0.10500000000E+00 0.  1.
    3000001    1    5    5    0    0 -0.17785068751E+02  0.11220357534E+02 -0.43904698741E+01  0.21505378848E+02  0.10000000000E+01 0. -1.
        -13    1    6    6    0    0 -0.97682626331E+01  0.12498013731E+02 -0.34512949314E+01  0.16233969440E+02  0.10500000000E+00 0. -1.
         13    1    6    6    0    0 -0.15006939809E+02  0.18961959515E+02 -0.53211456834E+01  0.24760649577E+02  0.10500000000E+00 0.  1.
</event>
<event>
11    0  0.3510903E-009  0.9118800E+02  0.7816531E-02  0.1126479E+00
         25   -1    0    0    0    0  0.00000000000E+00  0.00000000000E+00  0.99999998245E-14  0.12500000000E+03  0.12500000000E+03 0.  0.
    3000001    1    3    3    0    0 -0.33590366513E+01 -0.29976966015E+02  0.44077708140E+02  0.53420463996E+02  0.10000000000E+01 0.  1.
    1000022    2    1    0    0    0 -0.47556430984E+01 -0.37734553316E+02  0.48577130008E+02  0.62499998379E+02  0.99999791187E+01 0.  0.
    3000022    2    3    3    0    0 -0.13966064471E+01 -0.77575873010E+01  0.44994218677E+01  0.90795343830E+01  0.24995433184E+00 0.  0.
    1000022    2    1    0    0    0  0.47556430984E+01  0.37734553316E+02 -0.48577130008E+02  0.62500001621E+02  0.99999993830E+01 0.  0.
    3000022    2    5    5    0    0 -0.11635368713E+00 -0.51233391106E+00 -0.16929519794E+01  0.17901434053E+01  0.25000558005E+00 0.  0.
        -13    1    4    4    0    0 -0.10394333356E+01 -0.58854608187E+01  0.34030894631E+01  0.68783074664E+01  0.10500000000E+00 0. -1.
         13    1    4    4    0    0 -0.35717311152E+00 -0.18721264823E+01  0.10963324046E+01  0.22012269167E+01  0.10500000000E+00 0.  1.
    3000001    1    5    5    0    0  0.48719967855E+01  0.38246887227E+02 -0.46884178028E+02  0.60709858216E+02  0.10000000000E+01 0.  1.
        -13    1    6    6    0    0  0.14100961604E-01 -0.19213266238E+00 -0.58755446653E+00  0.62718342469E+00  0.10500000000E+00 0.  1.
         13    1    6    6    0    0 -0.13045464873E+00 -0.32020124868E+00 -0.11053975129E+01  0.11629599806E+01  0.10500000000E+00 0. -1.
</event>
<event>
11    0  0.3510903E-009  0.9118800E+02  0.7816531E-02  0.1126479E+00
         25   -1    0    0    0    0  0.00000000000E+00  0.00000000000E+00  0.99999998245E-14  0.12500000000E+03  0.12500000000E+03 0.  0.
    3000001    1    3    3    0    0 -0.47637988922E+01  0.47635703045E+02 -0.20619914488E+01  0.47928131543E+02  0.10000000000E+01 0.  1.
    1000022    2    1    0    0    0 -0.79971160268E+01  0.61127749507E+02  0.23862825197E+01  0.62499999001E+02  0.99999953166E+01 0.  0.
    3000022    2    3    3    0    0 -0.32333171346E+01  0.13492046462E+02  0.44482739685E+01  0.14571867458E+02  0.25004497337E+00 0.  0.
    1000022    2    1    0    0    0  0.79971160268E+01 -0.61127749507E+02 -0.23862825197E+01  0.62500000999E+02  0.10000007800E+02 0.  0.
    3000022    2    5    5    0    0  0.42199235923E+01 -0.36829154254E+02 -0.62302642379E+01  0.37590863931E+02  0.25000093669E+00 0.  0.
        -13    1    4    4    0    0 -0.13328827297E+01  0.57360813070E+01  0.18346002178E+01  0.61689535653E+01  0.10500000000E+00 0.  1.
         13    1    4    4    0    0 -0.19004344049E+01  0.77559651553E+01  0.26136737507E+01  0.84029138929E+01  0.10500000000E+00 0. -1.
    3000001    1    5    5    0    0  0.37771924345E+01 -0.24298595253E+02  0.38439817183E+01  0.24909137067E+02  0.10000000000E+01 0.  1.
        -13    1    6    6    0    0  0.14637822662E+01 -0.12760008657E+02 -0.21019675578E+01  0.13014982600E+02  0.10500000000E+00 0. -1.
         13    1    6    6    0    0  0.27561413261E+01 -0.24069145596E+02 -0.41282966801E+01  0.24575881332E+02  0.10500000000E+00 0.  1.
</event>
<event>
11    0  0.3510903E-009  0.9118800E+02  0.7816531E-02  0.1126479E+00
         25   -1    0    0    0    0  0.00000000000E+00  0.00000000000E+00  0.99999998245E-14  0.12500000000E+03  0.12500000000E+03 0.  0.
    3000001    1    3    3    0    0 -0.35526880066E+01 -0.42203852325E+02 -0.25219936909E+02  0.49303468041E+02  0.10000000000E+01 0. -1.
    1000022    2    1    0    0    0 -0.32590305463E+01 -0.55229635390E+02 -0.27300475870E+02  0.62499998019E+02  0.99999932093E+01 0.  0.
    3000022    2    3    3    0    0  0.29365746030E+00 -0.13025783065E+02 -0.20805389607E+01  0.13196529978E+02  0.25000385558E+00 0.  0.
    1000022    2    1    0    0    0  0.32590305463E+01  0.55229635390E+02  0.27300475870E+02  0.62500001981E+02  0.10000017978E+02 0.  0.
    3000022    2    5    5    0    0 -0.22954066246E+01  0.11448864837E+02  0.27872049304E+01  0.12007348114E+02  0.24999952376E+00 0.  0.
        -13    1    4    4    0    0  0.94040419043E-01 -0.63174790199E+01 -0.96089663609E+00  0.63916924294E+01  0.10500000000E+00 0. -1.
         13    1    4    4    0    0  0.19961704125E+00 -0.67083040452E+01 -0.11196423246E+01  0.68048375485E+01  0.10500000000E+00 0.  1.
    3000001    1    5    5    0    0  0.55544371709E+01  0.43780770553E+02  0.24513270939E+02  0.50492653868E+02  0.10000000000E+01 0.  1.
        -13    1    6    6    0    0 -0.81407050592E+00  0.41018847116E+01  0.10572313177E+01  0.43147342948E+01  0.10500000000E+00 0. -1.
         13    1    6    6    0    0 -0.14813361187E+01  0.73469801258E+01  0.17299736128E+01  0.76926138189E+01  0.10500000000E+00 0.  1.
</event>
<event>
11    0  0.3510903E-009  0.9118800E+02  0.7816531E-02  0.1126479E+00
         25   -1    0    0    0    0  0.00000000000E+00  0.00000000000E+00  0.99999998245E-14  0.12500000000E+03  0.12500000000E+03 0.  0.
    3000001    1    3    3    0    0 -0.24496971375E+02  0.37053165381E+02 -0.71778627416E+00  0.44435952656E+02  0.10000000000E+01 0.  1.
    1000022    2    1    0    0    0 -0.38322880283E+02  0.48175262771E+02 -0.40927565984E+01  0.62499997949E+02  0.99999995395E+01 0.  0.
    3000022    2    3    3    0    0 -0.13825908907E+02  0.11122097390E+02 -0.33749703243E+01  0.18064045292E+02  0.25000035013E+00 0.  0.
    1000022    2    1    0    0    0  0.38322880283E+02 -0.48175262771E+02  0.40927565984E+01  0.62500002051E+02  0.10000025181E+02 0.  0.
    3000022    2    5    5    0    0  0.55072812660E+01 -0.62303126784E+01  0.40075328202E+01  0.92341627151E+01  0.24999746096E+00 0.  0.
        -13    1    4    4    0    0 -0.61012358515E+01  0.49851298349E+01 -0.14697913729E+01  0.80154794035E+01  0.10500000000E+00 0. -1.
         13    1    4    4    0    0 -0.77246730558E+01  0.61369675549E+01 -0.19051789514E+01  0.10048565889E+02  0.10500000000E+00 0.  1.
    3000001    1    5    5    0    0  0.32815599017E+02 -0.41944950093E+02  0.85223778255E-01  0.53265839336E+02  0.10000000000E+01 0.  1.
        -13    1    6    6    0    0  0.32047272661E+01 -0.35282115212E+01  0.22846273040E+01  0.52866908654E+01  0.10500000000E+00 0. -1.
         13    1    6    6    0    0  0.23025539999E+01 -0.27021011572E+01  0.17229055162E+01  0.39474718497E+01  0.10500000000E+00 0.  1.
</event>
<event>
11    0  0.3510903E-009  0.9118800E+02  0.7816531E-02  0.1126479E+00
         25   -1    0    0    0    0  0.00000000000E+00  0.00000000000E+00  0.99999998245E-14  0.12500000000E+03  0.12500000000E+03 0.  0.
    3000001    1    3    3    0    0 -0.20393878531E+02  0.61942971524E+01 -0.13884729869E+02  0.25457127141E+02  0.10000000000E+01 0.  1.
    1000022    2    1    0    0    0 -0.55582823594E+02  0.10875138771E+02 -0.24464893600E+02  0.62500000944E+02  0.10000008856E+02 0.  0.
    3000022    2    3    3    0    0 -0.35188945063E+02  0.46808416184E+01 -0.10580163731E+02  0.37042873803E+02  0.25000412620E+00 0.  0.
    1000022    2    1    0    0    0  0.55582823594E+02 -0.10875138771E+02  0.24464893600E+02  0.62499999056E+02  0.99999970596E+01 0.  0.
    3000022    2    5    5    0    0  0.13112336125E+02 -0.38811236462E+01  0.10483456680E+02  0.17232581062E+02  0.25001343682E+00 0.  0.
        -13    1    4    4    0    0 -0.26957327773E+02  0.35990558924E+01 -0.81036371113E+01  0.28378348849E+02  0.10500000000E+00 0.  1.
         13    1    4    4    0    0 -0.82316172902E+01  0.10817857261E+01 -0.24765266198E+01  0.86645249534E+01  0.10500000000E+00 0. -1.
    3000001    1    5    5    0    0  0.42470487470E+02 -0.69940151247E+01  0.13981436920E+02  0.45267417994E+02  0.10000000000E+01 0.  1.
        -13    1    6    6    0    0  0.35484730096E+01 -0.10868071737E+01  0.28324999652E+01  0.46697849614E+01  0.10500000000E+00 0. -1.
         13    1    6    6    0    0  0.95638631149E+01 -0.27943164724E+01  0.76509567145E+01  0.12562796101E+02  0.10500000000E+00 0.  1.
</event>
<event>
11    0  0.3510903E-009  0.9118800E+02  0.7816531E-02  0.1126479E+00
         25   -1    0    0    0    0  0.00000000000E+00  0.00000000000E+00  0.99999998245E-14  0.12500000000E+03  0.12500000000E+03 0.  0.
    3000001    1    3    3    0    0 -0.73723362027E+00 -0.49913344118E+01  0.51924145783E+00  0.51697721722E+01  0.10000000000E+01 0. -1.
    1000022    2    1    0    0    0 -0.37651809645E+02 -0.48256946482E+02  0.77368188513E+01  0.62499999694E+02  0.99999971239E+01 0.  0.
    3000022    2    3    3    0    0 -0.36914576024E+02 -0.43265612070E+02  0.72175773935E+01  0.57330227522E+02  0.24990668639E+00 0.  0.
    1000022    2    1    0    0    0  0.37651809645E+02  0.48256946482E+02 -0.77368188513E+01  0.62500000306E+02  0.10000000952E+02 0.  0.
    3000022    2    5    5    0    0  0.19851169963E+02  0.33085308382E+02 -0.39641252284E+01  0.38787670330E+02  0.25000238207E+00 0.  0.
        -13    1    4    4    0    0 -0.22995120358E+02 -0.26970162409E+02  0.45573939149E+01  0.35734382392E+02  0.10500000000E+00 0.  1.
         13    1    4    4    0    0 -0.13919455667E+02 -0.16295449662E+02  0.26601834786E+01  0.21595845130E+02  0.10500000000E+00 0. -1.
    3000001    1    5    5    0    0  0.17800639682E+02  0.15171638100E+02 -0.37726936230E+01  0.23712329976E+02  0.10000000000E+01 0. -1.
        -13    1    6    6    0    0  0.53412300591E+01  0.88788700367E+01 -0.10980893699E+01  0.10420167798E+02  0.10500000000E+00 0. -1.
         13    1    6    6    0    0  0.14509939904E+02  0.24206438345E+02 -0.28660358585E+01  0.28367502532E+02  0.10500000000E+00 0.  1.
</event>
<event>
11    0  0.3510903E-009  0.9118800E+02  0.7816531E-02  0.1126479E+00
         25   -1    0    0    0    0  0.00000000000E+00  0.00000000000E+00  0.99999998245E-14  0.12500000000E+03  0.12500000000E+03 0.  0.
    3000001    1    3    3    0    0  0.18339558202E+02 -0.25805560616E+02  0.98874454601E+01  0.33181740935E+02  0.10000000000E+01 0. -1.
    1000022    2    1    0    0    0  0.39349957902E+02 -0.46220588250E+02  0.11022174001E+02  0.62500000639E+02  0.99999897543E+01 0.  0.
    3000022    2    3    3    0    0  0.21010399701E+02 -0.20415027634E+02  0.11347285411E+01  0.29318259704E+02  0.24998869709E+00 0.  0.
    1000022    2    1    0    0    0 -0.39349957902E+02  0.46220588250E+02 -0.11022174001E+02  0.62499999361E+02  0.99999817630E+01 0.  0.
    3000022    2    5    5    0    0  0.41324249638E+00  0.14177160719E+01 -0.87646226126E+00  0.17353309416E+01  0.24999831998E+00 0.  0.
        -13    1    4    4    0    0  0.91717947405E+01 -0.89578436254E+01  0.55381720025E+00  0.12832868723E+02  0.10500000000E+00 0. -1.
         13    1    4    4    0    0  0.11838604960E+02 -0.11457184009E+02  0.58091134089E+00  0.16485390981E+02  0.10500000000E+00 0.  1.
    3000001    1    5    5    0    0 -0.39763200399E+02  0.44802872178E+02 -0.10145711740E+02  0.60764668419E+02  0.10000000000E+01 0.  1.
        -13    1    6    6    0    0  0.16968175210E+00  0.44028731743E+00 -0.32050924370E+00  0.57999654670E+00  0.10500000000E+00 0.  1.
         13    1    6    6    0    0  0.24356074428E+00  0.97742875450E+00 -0.55595301756E+00  0.11553343949E+01  0.10500000000E+00 0. -1.
</event>
<event>
11    0  0.3510903E-009  0.9118800E+02  0.7816531E-02  0.1126479E+00
         25   -1    0    0    0    0  0.00000000000E+00  0.00000000000E+00  0.99999998245E-14  0.12500000000E+03  0.12500000000E+03 0.  0.
    3000001    1    3    3    0    0  0.54518419928E+01  0.83266691754E+01 -0.61899381006E+01  0.11763134547E+02  0.10000000000E+01 0.  1.
    1000022    2    1    0    0    0  0.22809707011E+02  0.31886029571E+02 -0.47636627739E+02  0.62500000046E+02  0.10000004386E+02 0.  0.
    3000022    2    3    3    0    0  0.17357865018E+02  0.23559360395E+02 -0.41446689639E+02  0.50736865500E+02  0.24999703041E+00 0.  0.
    1000022    2    1    0    0    0 -0.22809707011E+02 -0.31886029571E+02  0.47636627739E+02  0.62499999954E+02  0.10000003807E+02 0.  0.
    3000022    2    5    5    0    0 -0.80143809446E+01 -0.19179508128E+02  0.27184492726E+02  0.34221966303E+02  0.24999775667E+00 0.  0.
        -13    1    4    4    0    0  0.74171369133E+01  0.10159763591E+02 -0.17878135424E+02  0.21860317186E+02  0.10500000000E+00 0.  1.
         13    1    4    4    0    0  0.99407281045E+01  0.13399596804E+02 -0.23568554214E+02  0.28876548314E+02  0.10500000000E+00 0. -1.
    3000001    1    5    5    0    0 -0.14795326066E+02 -0.12706521443E+02  0.20452135013E+02  0.28278033651E+02  0.10000000000E+01 0.  1.
        -13    1    6    6    0    0 -0.49168846617E+01 -0.11919344534E+02  0.16886785611E+02  0.21246672261E+02  0.10500000000E+00 0. -1.
         13    1    6    6    0    0 -0.30974962828E+01 -0.72601635936E+01  0.10297707115E+02  0.12975294041E+02  0.10500000000E+00 0.  1.
</event>
<event>
11    0  0.3510903E-009  0.9118800E+02  0.7816531E-02  0.1126479E+00
         25   -1    0    0    0    0  0.00000000000E+00  0.00000000000E+00  0.99999998245E-14  0.12500000000E+03  0.12500000000E+03 0.  0.
    3000001    1    3    3    0    0 -0.37292169234E+02 -0.54658897233E+01  0.16608320756E+02  0.41199734889E+02  0.10000000000E+01 0.  1.
    1000022    2    1    0    0    0 -0.58164753281E+02 -0.33674812946E+01  0.20292157158E+02  0.62499998599E+02  0.99999864142E+01 0.  0.
    3000022    2    3    3    0    0 -0.20872584047E+02  0.20984084287E+01  0.36838364018E+01  0.21300263710E+02  0.25000146265E+00 0.  0.
    1000022    2    1    0    0    0  0.58164753281E+02  0.33674812946E+01 -0.20292157158E+02  0.62500001401E+02  0.10000003922E+02 0.  0.
    3000022    2    5    5    0    0  0.19824794455E+02  0.25319198009E+01 -0.22713119883E+01  0.20116024871E+02  0.25001085007E+00 0.  0.
        -13    1    4    4    0    0 -0.13240590816E+02  0.12848234304E+01  0.22986263846E+01  0.13500323131E+02  0.10500000000E+00 0.  1.
         13    1    4    4    0    0 -0.76319932317E+01  0.81358499827E+00  0.13852100172E+01  0.77999405786E+01  0.10500000000E+00 0. -1.
    3000001    1    5    5    0    0  0.38339958826E+02  0.83556149365E+00 -0.18020845169E+02  0.42383976529E+02  0.10000000000E+01 0. -1.
        -13    1    6    6    0    0  0.14002152365E+02  0.17594008221E+01 -0.16374939840E+01  0.14207328167E+02  0.10500000000E+00 0.  1.
         13    1    6    6    0    0  0.58226420896E+01  0.77251897877E+00 -0.63381800430E+00  0.59086967039E+01  0.10500000000E+00 0. -1.
</event>
<event>
11    0  0.3510903E-009  0.9118800E+02  0.7816531E-02  0.1126479E+00
         25   -1    0    0    0    0  0.00000000000E+00  0.00000000000E+00  0.99999998245E-14  0.12500000000E+03  0.12500000000E+03 0.  0.
    3000001    1    3    3    0    0  0.21622967983E+01  0.26452767139E+00 -0.56513700400E+01  0.61386876172E+01  0.10000000000E+01 0. -1.
    1000022    2    1    0    0    0  0.45496963497E+02 -0.17367667821E+01 -0.41632440028E+02  0.62500007774E+02  0.10000043141E+02 0.  0.
    3000022    2    3    3    0    0  0.43334666699E+02 -0.20012944535E+01 -0.35981069988E+02  0.56361320157E+02  0.24999001470E+00 0.  0.
    1000022    2    1    0    0    0 -0.45496963497E+02  0.17367667821E+01  0.41632440028E+02  0.62499992226E+02  0.99999459635E+01 0.  0.
    3000022    2    5    5    0    0 -0.17515593892E+02  0.54432696472E+01  0.17460660880E+02  0.25325133576E+02  0.24999688346E+00 0.  0.
        -13    1    4    4    0    0  0.21443397071E+02 -0.10211609333E+01 -0.17884245806E+02  0.27941355025E+02  0.10500000000E+00 0. -1.
         13    1    4    4    0    0  0.21891269628E+02 -0.98013352019E+00 -0.18096824182E+02  0.28419965132E+02  0.10500000000E+00 0.  1.
    3000001    1    5    5    0    0 -0.27981369605E+02 -0.37065028651E+01  0.24171779148E+02  0.37174858650E+02  0.10000000000E+01 0.  1.
        -13    1    6    6    0    0 -0.95659897923E+01  0.30331081028E+01  0.95995615479E+01  0.13887782846E+02  0.10500000000E+00 0.  1.
         13    1    6    6    0    0 -0.79496040992E+01  0.24101615444E+01  0.78610993322E+01  0.11437350730E+02  0.10500000000E+00 0. -1.
</event>
<event>
11    0  0.3510903E-009  0.9118800E+02  0.7816531E-02  0.1126479E+00
         25   -1    0    0    0    0  0.00000000000E+00  0.00000000000E+00  0.99999998245E-14  0.12500000000E+03  0.12500000000E+03 0.  0.
    3000001    1    3    3    0    0 -0.24008430128E+02  0.71024960343E+01  0.18565642210E+02  0.31185465169E+02  0.10000000000E+01 0.  1.
    1000022    2    1    0    0    0 -0.52806858795E+02  0.82969874867E+01  0.30803342171E+02  0.62500000203E+02  0.99999899666E+01 0.  0.
    3000022    2    3    3    0    0 -0.28798428667E+02  0.11944914523E+01  0.12237699961E+02  0.31314535034E+02  0.25000110714E+00 0.  0.
    1000022    2    1    0    0    0  0.52806858795E+02 -0.82969874867E+01 -0.30803342171E+02  0.62499999797E+02  0.99999874333E+01 0.  0.
    3000022    2    5    5    0    0  0.19587075220E+02 -0.22787363500E+01 -0.16912922654E+02  0.25979907768E+02  0.24999979530E+00 0.  0.
        -13    1    4    4    0    0 -0.10496181302E+02  0.44060022647E+00  0.43969206250E+01  0.11388937021E+02  0.10500000000E+00 0.  1.
         13    1    4    4    0    0 -0.18302247365E+02  0.75389122588E+00  0.78407793359E+01  0.19925598013E+02  0.10500000000E+00 0. -1.
    3000001    1    5    5    0    0  0.33219783575E+02 -0.60182511367E+01 -0.13890419517E+02  0.36520092030E+02  0.10000000000E+01 0.  1.
        -13    1    6    6    0    0  0.12985095479E+02 -0.14622264022E+01 -0.11173946528E+02  0.17193571958E+02  0.10500000000E+00 0.  1.
         13    1    6    6    0    0  0.66019797402E+01 -0.81650994778E+00 -0.57389761261E+01  0.87863358097E+01  0.10500000000E+00 0. -1.
</event>
<event>
11    0  0.3510903E-009  0.9118800E+02  0.7816531E-02  0.1126479E+00
         25   -1    0    0    0    0  0.00000000000E+00  0.00000000000E+00  0.99999998245E-14  0.12500000000E+03  0.12500000000E+03 0.  0.
    3000001    1    3    3    0    0  0.35025319579E+01  0.35496072782E+02  0.21844209038E+02  0.41837882135E+02  0.10000000000E+01 0. -1.
    1000022    2    1    0    0    0  0.65192932731E+01  0.48407687751E+02  0.37688773137E+02  0.62500006223E+02  0.10000086960E+02 0.  0.
    3000022    2    3    3    0    0  0.30167613152E+01  0.12911614969E+02  0.15844564099E+02  0.20662124089E+02  0.25002085103E+00 0.  0.
    1000022    2    1    0    0    0 -0.65192932731E+01 -0.48407687751E+02 -0.37688773137E+02  0.62499993777E+02  0.10000009170E+02 0.  0.
    3000022    2    5    5    0    0 -0.52730015928E+01 -0.20618457157E+02 -0.11090066413E+02  0.23999529113E+02  0.25000655877E+00 0.  0.
        -13    1    4    4    0    0  0.15267502230E+01  0.67982989201E+01  0.83738852764E+01  0.10894072428E+02  0.10500000000E+00 0.  1.
         13    1    4    4    0    0  0.14900110922E+01  0.61133160491E+01  0.74706788224E+01  0.97680516603E+01  0.10500000000E+00 0. -1.
    3000001    1    5    5    0    0 -0.12462916803E+01 -0.27789230594E+02 -0.26598706724E+02  0.38500464664E+02  0.10000000000E+01 0. -1.
        -13    1    6    6    0    0 -0.31541716466E+01 -0.12137941648E+02 -0.65822270818E+01  0.14163868277E+02  0.10500000000E+00 0. -1.
         13    1    6    6    0    0 -0.21188299462E+01 -0.84805155089E+01 -0.45078393311E+01  0.98356608355E+01  0.10500000000E+00 0.  1.
</event>
<event>
11    0  0.3510903E-009  0.9118800E+02  0.7816531E-02  0.1126479E+00
         25   -1    0    0    0    0  0.00000000000E+00  0.00000000000E+00  0.99999998245E-14  0.12500000000E+03  0.12500000000E+03 0.  0.
    3000001    1    3    3    0    0 -0.28372084913E+02  0.96332921795E+01  0.14794006044E+02  0.33431095336E+02  0.10000000000E+01 0. -1.
    1000022    2    1    0    0    0 -0.52887694801E+02  0.91987025948E+01  0.30406011037E+02  0.62499999285E+02  0.10000000632E+02 0.  0.
    3000022    2    3    3    0    0 -0.24515609889E+02 -0.43458958469E+00  0.15612004994E+02  0.29068903950E+02  0.24996121181E+00 0.  0.
    1000022    2    1    0    0    0  0.52887694801E+02 -0.91987025948E+01 -0.30406011037E+02  0.62500000715E+02  0.10000009565E+02 0.  0.
    3000022    2    5    5    0    0  0.35057523068E+02 -0.13610932108E+01 -0.18771954394E+02  0.39791094557E+02  0.24987171898E+00 0.  0.
        -13    1    4    4    0    0 -0.14513466217E+02 -0.29903870243E+00  0.92999066636E+01  0.17240342651E+02  0.10500000000E+00 0. -1.
         13    1    4    4    0    0 -0.10002143672E+02 -0.13555088226E+00  0.63120983300E+01  0.11828561299E+02  0.10500000000E+00 0.  1.
    3000001    1    5    5    0    0  0.17830171733E+02 -0.78376093840E+01 -0.11634056643E+02  0.22708906157E+02  0.10000000000E+01 0.  1.
        -13    1    6    6    0    0  0.89092345684E+01 -0.31865161564E+00 -0.47608882586E+01  0.10107080758E+02  0.10500000000E+00 0.  1.
         13    1    6    6    0    0  0.26148288500E+02 -0.10424415951E+01 -0.14011066136E+02  0.29684013799E+02  0.10500000000E+00 0. -1.
</event>
<event>
11    0  0.3510903E-009  0.9118800E+02  0.7816531E-02  0.1126479E+00
         25   -1    0    0    0    0  0.00000000000E+00  0.00000000000E+00  0.99999998245E-14  0.12500000000E+03  0.12500000000E+03 0.  0.
    3000001    1    3    3    0    0  0.18522778451E+02  0.88372344474E+01  0.16058494626E+02  0.26078061352E+02  0.10000000000E+01 0.  1.
    1000022    2    1    0    0    0  0.37011589407E+02  0.16822056439E+02  0.46404853751E+02  0.62499998758E+02  0.10000002988E+02 0.  0.
    3000022    2    3    3    0    0  0.18488810956E+02  0.79848219914E+01  0.30346359126E+02  0.36421937406E+02  0.24999881553E+00 0.  0.
    1000022    2    1    0    0    0 -0.37011589407E+02 -0.16822056439E+02 -0.46404853751E+02  0.62500001242E+02  0.10000018518E+02 0.  0.
    3000022    2    5    5    0    0 -0.30825453324E+02 -0.16286204212E+02 -0.42967056123E+02  0.55332444492E+02  0.24996252604E+00 0.  0.
        -13    1    4    4    0    0  0.13232972193E+02  0.56931833934E+01  0.21640455430E+02  0.25997004182E+02  0.10500000000E+00 0.  1.
         13    1    4    4    0    0  0.52558387629E+01  0.22916385980E+01  0.87059036955E+01  0.10424933224E+02  0.10500000000E+00 0. -1.
    3000001    1    5    5    0    0 -0.61861360825E+01 -0.53585222665E+00 -0.34377976284E+01  0.71675567506E+01  0.10000000000E+01 0. -1.
        -13    1    6    6    0    0 -0.23515160943E+02 -0.12442012023E+02 -0.32781134625E+02  0.42218245696E+02  0.10500000000E+00 0. -1.
         13    1    6    6    0    0 -0.73102923817E+01 -0.38441921891E+01 -0.10185921498E+02  0.13114198796E+02  0.10500000000E+00 0.  1.
</event>
<event>
11    0  0.3510903E-009  0.9118800E+02  0.7816531E-02  0.1126479E+00
         25   -1    0    0    0    0  0.00000000000E+00  0.00000000000E+00  0.99999998245E-14  0.12500000000E+03  0.12500000000E+03 0.  0.
    3000001    1    3    3    0    0 -0.99977627521E+01 -0.33494656746E+02 -0.25644522172E+02  0.43364603169E+02  0.10000000000E+01 0.  1.
    1000022    2    1    0    0    0 -0.78334764194E+01 -0.48595454645E+02 -0.37193652980E+02  0.62499993330E+02  0.99999889685E+01 0.  0.
    3000022    2    3    3    0    0  0.21642863327E+01 -0.15100797899E+02 -0.11549130807E+02  0.19135390161E+02  0.25000340214E+00 0.  0.
    1000022    2    1    0    0    0  0.78334764194E+01  0.48595454645E+02  0.37193652980E+02  0.62500006670E+02  0.10000072339E+02 0.  0.
    3000022    2    5    5    0    0  0.86134781662E+01  0.34720545301E+02  0.30644708124E+02  0.47104871374E+02  0.24999825454E+00 0.  0.
        -13    1    4    4    0    0  0.95496637360E+00 -0.65985175440E+01 -0.51296983744E+01  0.84129201212E+01  0.10500000000E+00 0.  1.
         13    1    4    4    0    0  0.12093199591E+01 -0.85022803548E+01 -0.64194324328E+01  0.10722470040E+02  0.10500000000E+00 0. -1.
    3000001    1    5    5    0    0 -0.78000174678E+00  0.13874909344E+02  0.65489448562E+01  0.15395135295E+02  0.10000000000E+01 0.  1.
        -13    1    6    6    0    0  0.22681654693E+01  0.92092698046E+01  0.81645779795E+01  0.12515054275E+02  0.10500000000E+00 0.  1.
         13    1    6    6    0    0  0.63453126969E+01  0.25511275496E+02  0.22480130144E+02  0.34589817099E+02  0.10500000000E+00 0. -1.
</event>
<event>
11    0  0.3510903E-009  0.9118800E+02  0.7816531E-02  0.1126479E+00
         25   -1    0    0    0    0  0.00000000000E+00  0.00000000000E+00  0.99999998245E-14  0.12500000000E+03  0.12500000000E+03 0.  0.
    3000001    1    3    3    0    0  0.41922467709E+01 -0.63287322311E+01  0.48580495231E+01  0.90679892926E+01  0.10000000000E+01 0. -1.
    1000022    2    1    0    0    0  0.19140253806E+02 -0.30394234023E+02  0.50160654785E+02  0.62500000589E+02  0.10000000378E+02 0.  0.
    3000022    2    3    3    0    0  0.14948007035E+02 -0.24065501792E+02  0.45302605262E+02  0.53432011297E+02  0.24999368868E+00 0.  0.
    1000022    2    1    0    0    0 -0.19140253806E+02  0.30394234023E+02 -0.50160654785E+02  0.62499999411E+02  0.99999930130E+01 0.  0.
    3000022    2    5    5    0    0 -0.64690962536E+01  0.17177435747E+02 -0.19551487595E+02  0.26818588193E+02  0.25000066709E+00 0.  0.
        -13    1    4    4    0    0  0.76624672416E+01 -0.12393121880E+02  0.23414252141E+02  0.27577909683E+02  0.10500000000E+00 0.  1.
         13    1    4    4    0    0  0.72855397932E+01 -0.11672379913E+02  0.21888353121E+02  0.25854101614E+02  0.10500000000E+00 0. -1.
    3000001    1    5    5    0    0 -0.12671157552E+02  0.13216798277E+02 -0.30609167190E+02  0.35681411218E+02  0.10000000000E+01 0. -1.
        -13    1    6    6    0    0 -0.36374892408E+01  0.97178857614E+01 -0.11143569506E+02  0.15226910323E+02  0.10500000000E+00 0. -1.
         13    1    6    6    0    0 -0.28316070128E+01  0.74595499854E+01 -0.84079180893E+01  0.11591677871E+02  0.10500000000E+00 0.  1.
</event>
<event>
11    0  0.3510903E-009  0.9118800E+02  0.7816531E-02  0.1126479E+00
         25   -1    0    0    0    0  0.00000000000E+00  0.00000000000E+00  0.99999998245E-14  0.12500000000E+03  0.12500000000E+03 0.  0.
    3000001    1    3    3    0    0 -0.32630514364E+02  0.44056373527E+01  0.12229460665E+02  0.35138580169E+02  0.10000000000E+01 0. -1.
    1000022    2    1    0    0    0 -0.55718817410E+02  0.16222408161E+02  0.20940315468E+02  0.62500000126E+02  0.10000003187E+02 0.  0.
    3000022    2    3    3    0    0 -0.23088303046E+02  0.11816770808E+02  0.87108548026E+01  0.27361419957E+02  0.25000157145E+00 0.  0.
    1000022    2    1    0    0    0  0.55718817410E+02 -0.16222408161E+02 -0.20940315468E+02  0.62499999874E+02  0.10000001613E+02 0.  0.
    3000022    2    5    5    0    0  0.22279494373E+02 -0.15937850977E+01 -0.90264771710E+01  0.24092650566E+02  0.25000145709E+00 0.  0.
        -13    1    4    4    0    0 -0.57967630580E+01  0.29676772966E+01  0.21589067572E+01  0.68615941204E+01  0.10500000000E+00 0.  1.
         13    1    4    4    0    0 -0.17291539988E+02  0.88490935113E+01  0.65519480453E+01  0.20499825836E+02  0.10500000000E+00 0. -1.
    3000001    1    5    5    0    0  0.33439323037E+02 -0.14628623063E+02 -0.11913838297E+02  0.38407349308E+02  0.10000000000E+01 0. -1.
        -13    1    6    6    0    0  0.12740676663E+02 -0.84673523462E+00 -0.51715703851E+01  0.13776718318E+02  0.10500000000E+00 0. -1.
         13    1    6    6    0    0  0.95388177104E+01 -0.74704986305E+00 -0.38549067860E+01  0.10315932248E+02  0.10500000000E+00 0.  1.
</event>
<event>
11    0  0.3510903E-009  0.9118800E+02  0.7816531E-02  0.1126479E+00
         25   -1    0    0    0    0  0.00000000000E+00  0.00000000000E+00  0.99999998245E-14  0.12500000000E+03  0.12500000000E+03 0.  0.
    3000001    1    3    3    0    0  0.62334839003E+01 -0.68240713385E+01  0.24515608309E+02  0.26219064093E+02  0.10000000000E+01 0. -1.
    1000022    2    1    0    0    0  0.16495975886E+02 -0.26509531746E+02  0.53210689658E+02  0.62499999688E+02  0.99999986613E+01 0.  0.
    3000022    2    3    3    0    0  0.10262491986E+02 -0.19685460408E+02  0.28695081349E+02  0.36280935595E+02  0.25000150458E+00 0.  0.
    1000022    2    1    0    0    0 -0.16495975886E+02  0.26509531746E+02 -0.53210689658E+02  0.62500000312E+02  0.10000002567E+02 0.  0.
    3000022    2    5    5    0    0 -0.55117255834E+01  0.38376203229E+01 -0.17833804759E+02  0.19058162098E+02  0.25000344309E+00 0.  0.
        -13    1    4    4    0    0  0.52875165107E+01 -0.99973111012E+01  0.14602498582E+02  0.18470193555E+02  0.10500000000E+00 0.  1.
         13    1    4    4    0    0  0.49749754750E+01 -0.96881493063E+01  0.14092582767E+02  0.17810742040E+02  0.10500000000E+00 0. -1.
    3000001    1    5    5    0    0 -0.10984250303E+02  0.22671911423E+02 -0.35376884899E+02  0.43441838215E+02  0.10000000000E+01 0. -1.
        -13    1    6    6    0    0 -0.29393347311E+01  0.20900553057E+01 -0.94142094794E+01  0.10081983186E+02  0.10500000000E+00 0. -1.
         13    1    6    6    0    0 -0.25723908523E+01  0.17475650172E+01 -0.84195952794E+01  0.89761789117E+01  0.10500000000E+00 0.  1.
</event>
<event>
11    0  0.3510903E-009  0.9118800E+02  0.7816531E-02  0.1126479E+00
         25   -1    0    0    0    0  0.00000000000E+00  0.00000000000E+00  0.99999998245E-14  0.12500000000E+03  0.12500000000E+03 0.  0.
    3000001    1    3    3    0    0  0.23907201578E+02  0.19523676452E+02 -0.73316738721E+01  0.31740851773E+02  0.10000000000E+01 0. -1.
    1000022    2    1    0    0    0  0.46103085951E+02  0.40689904905E+02 -0.50086874519E+01  0.62500001256E+02  0.10000015578E+02 0.  0.
    3000022    2    3    3    0    0  0.22195884373E+02  0.21166228453E+02  0.23229864202E+01  0.30759149483E+02  0.25000192522E+00 0.  0.
    1000022    2    1    0    0    0 -0.46103085951E+02 -0.40689904905E+02  0.50086874519E+01  0.62499998744E+02  0.99999998813E+01 0.  0.
    3000022    2    5    5    0    0 -0.43174640297E-01 -0.13887045763E+01 -0.87079864661E+00  0.16586630091E+01  0.25001648925E+00 0.  0.
        -13    1    4    4    0    0  0.88010497964E+01  0.83699823174E+01  0.98053602933E+00  0.12185547071E+02  0.10500000000E+00 0. -1.
         13    1    4    4    0    0  0.13394834576E+02  0.12796246136E+02  0.13424503909E+01  0.18573602412E+02  0.10500000000E+00 0.  1.
    3000001    1    5    5    0    0 -0.46059911311E+02 -0.39301200329E+02  0.58794860985E+01  0.60841335735E+02  0.10000000000E+01 0.  1.
        -13    1    6    6    0    0 -0.23789258838E-01 -0.47624883430E+00 -0.36778938582E+00  0.61128791361E+00  0.10500000000E+00 0.  1.
         13    1    6    6    0    0 -0.19385381460E-01 -0.91245574205E+00 -0.50300926079E+00  0.10473750955E+01  0.10500000000E+00 0. -1.
</event>
<event>
11    0  0.3510903E-009  0.9118800E+02  0.7816531E-02  0.1126479E+00
         25   -1    0    0    0    0  0.00000000000E+00  0.00000000000E+00  0.99999998245E-14  0.12500000000E+03  0.12500000000E+03 0.  0.
    3000001    1    3    3    0    0 -0.37455434479E+01  0.95346903290E+01  0.24522509065E+02  0.26594978215E+02  0.10000000000E+01 0.  1.
    1000022    2    1    0    0    0 -0.22440305076E+00  0.15104941409E+02  0.59816726169E+02  0.62499997171E+02  0.99999652554E+01 0.  0.
    3000022    2    3    3    0    0  0.35211403971E+01  0.55702510796E+01  0.35294217104E+02  0.35905018956E+02  0.24999698223E+00 0.  0.
    1000022    2    1    0    0    0  0.22440305076E+00 -0.15104941409E+02 -0.59816726169E+02  0.62500002829E+02  0.10000000616E+02 0.  0.
    3000022    2    5    5    0    0  0.17167040299E+01 -0.10096822090E+02 -0.21504918756E+02  0.23820514614E+02  0.24999343249E+00 0.  0.
        -13    1    4    4    0    0  0.94736605644E+00  0.15524710250E+01  0.96130017737E+01  0.97840940730E+01  0.10500000000E+00 0.  1.
         13    1    4    4    0    0  0.25737743407E+01  0.40177800546E+01  0.25681215330E+02  0.26120924883E+02  0.10500000000E+00 0. -1.
    3000001    1    5    5    0    0 -0.14923009791E+01 -0.50081193187E+01 -0.38311807413E+02  0.38679488215E+02  0.10000000000E+01 0. -1.
        -13    1    6    6    0    0  0.95784706512E+00 -0.59129365104E+01 -0.12473120841E+02  0.13837270601E+02  0.10500000000E+00 0.  1.
         13    1    6    6    0    0  0.75885696476E+00 -0.41838855796E+01 -0.90317979154E+01  0.99832440129E+01  0.10500000000E+00 0. -1.
</event>
<event>
11    0  0.3510903E-009  0.9118800E+02  0.7816531E-02  0.1126479E+00
         25   -1    0    0    0    0  0.00000000000E+00  0.00000000000E+00  0.99999998245E-14  0.12500000000E+03  0.12500000000E+03 0.  0.
    3000001    1    3    3    0    0  0.18239109214E+02 -0.15756716028E+02 -0.13576068043E+02  0.27681199909E+02  0.10000000000E+01 0.  1.
    1000022    2    1    0    0    0  0.47180331390E+02 -0.33372419457E+02 -0.21599719028E+02  0.62499999469E+02  0.10000001047E+02 0.  0.
    3000022    2    3    3    0    0  0.28941222177E+02 -0.17615703429E+02 -0.80236509847E+01  0.34818799559E+02  0.24995847059E+00 0.  0.
    1000022    2    1    0    0    0 -0.47180331390E+02  0.33372419457E+02  0.21599719028E+02  0.62500000531E+02  0.10000007691E+02 0.  0.
    3000022    2    5    5    0    0 -0.32929820985E+02  0.22037192883E+02  0.99300658092E+01  0.40849475953E+02  0.24999667172E+00 0.  0.
        -13    1    4    4    0    0  0.13663417121E+02 -0.82826760259E+01 -0.38464588340E+01  0.16434657287E+02  0.10500000000E+00 0.  1.
         13    1    4    4    0    0  0.15277805056E+02 -0.93330274030E+01 -0.41771921507E+01  0.18384142272E+02  0.10500000000E+00 0. -1.
    3000001    1    5    5    0    0 -0.14250510405E+02  0.11335226575E+02  0.11669653219E+02  0.21650524579E+02  0.10000000000E+01 0. -1.
        -13    1    6    6    0    0 -0.20254516678E+02  0.13569095115E+02  0.60476920940E+01  0.25118745844E+02  0.10500000000E+00 0.  1.
         13    1    6    6    0    0 -0.12675304307E+02  0.84680977681E+01  0.38823737153E+01  0.15730730109E+02  0.10500000000E+00 0. -1.
</event>
<event>
11    0  0.3510903E-009  0.9118800E+02  0.7816531E-02  0.1126479E+00
         25   -1    0    0    0    0  0.00000000000E+00  0.00000000000E+00  0.99999998245E-14  0.12500000000E+03  0.12500000000E+03 0.  0.
    3000001    1    3    3    0    0 -0.34303296156E+01 -0.71692156987E+01  0.65437304795E+01  0.10343366164E+02  0.10000000000E+01 0.  1.
    1000022    2    1    0    0    0 -0.35148658096E+02 -0.45013714537E+02  0.23336398989E+02  0.62500001753E+02  0.10000001947E+02 0.  0.
    3000022    2    3    3    0    0 -0.31718328481E+02 -0.37844498838E+02  0.16792668510E+02  0.52156635589E+02  0.24993276964E+00 0.  0.
    1000022    2    1    0    0    0  0.35148658096E+02  0.45013714537E+02 -0.23336398989E+02  0.62499998247E+02  0.99999800388E+01 0.  0.
    3000022    2    5    5    0    0  0.18052708562E+02  0.28580332935E+02 -0.17463829696E+02  0.38049750979E+02  0.24996975217E+00 0.  0.
        -13    1    4    4    0    0 -0.10756064196E+02 -0.12917427422E+02  0.57061876735E+01  0.17751745012E+02  0.10500000000E+00 0. -1.
         13    1    4    4    0    0 -0.20962264284E+02 -0.24927071416E+02  0.11086480836E+02  0.34404890577E+02  0.10500000000E+00 0.  1.
    3000001    1    5    5    0    0  0.17095949534E+02  0.16433381602E+02 -0.58725692935E+01  0.24450247268E+02  0.10000000000E+01 0.  1.
        -13    1    6    6    0    0  0.54430086435E+01  0.85576844030E+01 -0.52025338317E+01  0.11399021392E+02  0.10500000000E+00 0.  1.
         13    1    6    6    0    0  0.12609699919E+02  0.20022648532E+02 -0.12261295864E+02  0.26650729587E+02  0.10500000000E+00 0. -1.
</event>
<event>
11    0  0.3510903E-009  0.9118800E+02  0.7816531E-02  0.1126479E+00
         25   -1    0    0    0    0  0.00000000000E+00  0.00000000000E+00  0.99999998245E-14  0.12500000000E+03  0.12500000000E+03 0.  0.
    3000001    1    3    3    0    0  0.99919644412E+01 -0.55992722272E+02 -0.16120395825E+02  0.59126064155E+02  0.10000000000E+01 0. -1.
    1000022    2    1    0    0    0  0.10531644909E+02 -0.57767500591E+02 -0.18927502841E+02  0.62500000000E+02  0.99999983645E+01 0.  0.
    3000022    2    3    3    0    0  0.53968046787E+00 -0.17747783183E+01 -0.28071070157E+01  0.33739358458E+01  0.25000041555E+00 0.  0.
    1000022    2    1    0    0    0 -0.10531644909E+02  0.57767500591E+02  0.18927502841E+02  0.62500000000E+02  0.99999983589E+01 0.  0.
    3000022    2    5    5    0    0 -0.10564357084E+02  0.31285896468E+02  0.93296070836E+01  0.34314967980E+02  0.25000142040E+00 0.  0.
        -13    1    4    4    0    0  0.35279444401E+00 -0.10606364378E+01 -0.17864249287E+01  0.21099176758E+01  0.10500000000E+00 0. -1.
         13    1    4    4    0    0  0.18688602386E+00 -0.71414188050E+00 -0.10206820870E+01  0.12640181700E+01  0.10500000000E+00 0.  1.
    3000001    1    5    5    0    0  0.32712174887E-01  0.26481604122E+02  0.95978957574E+01  0.28185032020E+02  0.10000000000E+01 0. -1.
        -13    1    6    6    0    0 -0.40380089599E+01  0.12043369420E+02  0.36460576577E+01  0.13215635618E+02  0.10500000000E+00 0. -1.
         13    1    6    6    0    0 -0.65263481240E+01  0.19242527048E+02  0.56835494259E+01  0.21099332362E+02  0.10500000000E+00 0.  1.
</event>
<event>
11    0  0.3510903E-009  0.9118800E+02  0.7816531E-02  0.1126479E+00
         25   -1    0    0    0    0  0.00000000000E+00  0.00000000000E+00  0.99999998245E-14  0.12500000000E+03  0.12500000000E+03 0.  0.
    3000001    1    3    3    0    0 -0.34975108363E+02  0.48057319519E+01 -0.18213870054E+01  0.35364823133E+02  0.10000000000E+01 0. -1.
    1000022    2    1    0    0    0 -0.61155724279E+02  0.13055644684E+01 -0.80326282041E+01  0.62500000925E+02  0.99999944514E+01 0.  0.
    3000022    2    3    3    0    0 -0.26180615916E+02 -0.35001674835E+01 -0.62112411988E+01  0.27135177792E+02  0.25006879075E+00 0.  0.
    1000022    2    1    0    0    0  0.61155724279E+02 -0.13055644684E+01  0.80326282041E+01  0.62499999075E+02  0.99999828918E+01 0.  0.
    3000022    2    5    5    0    0  0.34425511865E+02 -0.42567738764E+01  0.79532497260E+01  0.35588659577E+02  0.25003646889E+00 0.  0.
        -13    1    4    4    0    0 -0.15486027063E+02 -0.20064977856E+01 -0.36811442849E+01  0.16043843548E+02  0.10500000000E+00 0.  1.
         13    1    4    4    0    0 -0.10694588853E+02 -0.14936696979E+01 -0.25300969138E+01  0.11091334243E+02  0.10500000000E+00 0. -1.
    3000001    1    5    5    0    0  0.26730212414E+02  0.29512094080E+01  0.79378478174E-01  0.26911339498E+02  0.10000000000E+01 0. -1.
        -13    1    6    6    0    0  0.18813215623E+02 -0.23885824792E+01  0.43741813089E+01  0.19462448341E+02  0.10500000000E+00 0. -1.
         13    1    6    6    0    0  0.15612296243E+02 -0.18681913972E+01  0.35790684171E+01  0.16126211235E+02  0.10500000000E+00 0.  1.
</event>
<event>
11    0  0.3510903E-009  0.9118800E+02  0.7816531E-02  0.1126479E+00
         25   -1    0    0    0    0  0.00000000000E+00  0.00000000000E+00  0.99999998245E-14  0.12500000000E+03  0.12500000000E+03 0.  0.
    3000001    1    3    3    0    0  0.15839551162E+02 -0.16539613548E+02 -0.34239557745E+02  0.41204338508E+02  0.10000000000E+01 0. -1.
    1000022    2    1    0    0    0  0.22810233360E+02 -0.18463223642E+02 -0.54268338119E+02  0.62500000716E+02  0.10000009701E+02 0.  0.
    3000022    2    3    3    0    0  0.69706821981E+01 -0.19236100942E+01 -0.20028780375E+02  0.21295662208E+02  0.24999893656E+00 0.  0.
    1000022    2    1    0    0    0 -0.22810233360E+02  0.18463223642E+02  0.54268338119E+02  0.62499999284E+02  0.10000000757E+02 0.  0.
    3000022    2    5    5    0    0 -0.17554884455E+02  0.18674094889E+02  0.44061061156E+02  0.50973869760E+02  0.25000002418E+00 0.  0.
        -13    1    4    4    0    0  0.36173211886E+01 -0.96456735413E+00 -0.10543191388E+02  0.11188624241E+02  0.10500000000E+00 0. -1.
         13    1    4    4    0    0  0.33533610096E+01 -0.95904274007E+00 -0.94855889862E+01  0.10107037966E+02  0.10500000000E+00 0.  1.
    3000001    1    5    5    0    0 -0.52553489052E+01 -0.21087124731E+00  0.10207276963E+02  0.11526129524E+02  0.10000000000E+01 0. -1.
        -13    1    6    6    0    0 -0.56447637578E+01  0.59428607793E+01  0.14035645923E+02  0.16253963628E+02  0.10500000000E+00 0. -1.
         13    1    6    6    0    0 -0.11910120697E+02  0.12731234110E+02  0.30025415233E+02  0.34719906133E+02  0.10500000000E+00 0.  1.
</event>
<event>
11    0  0.3510903E-009  0.9118800E+02  0.7816531E-02  0.1126479E+00
         25   -1    0    0    0    0  0.00000000000E+00  0.00000000000E+00  0.99999998245E-14  0.12500000000E+03  0.12500000000E+03 0.  0.
    3000001    1    3    3    0    0 -0.22021301358E+01  0.21712683895E+01 -0.21608633647E+01  0.39029622129E+01  0.10000000000E+01 0.  1.
    1000022    2    1    0    0    0 -0.10082790471E+02  0.56599706119E+02 -0.22384376389E+02  0.62499998145E+02  0.10000003271E+02 0.  0.
    3000022    2    3    3    0    0 -0.78806603353E+01  0.54428437729E+02 -0.20223513024E+02  0.58597035932E+02  0.25000010468E+00 0.  0.
    1000022    2    1    0    0    0  0.10082790471E+02 -0.56599706119E+02  0.22384376389E+02  0.62500001855E+02  0.10000026456E+02 0.  0.
    3000022    2    5    5    0    0  0.33051422221E+01 -0.26635261132E+02  0.15521532004E+02  0.31005508492E+02  0.25000078733E+00 0.  0.
        -13    1    4    4    0    0 -0.27454910279E+01  0.18605761657E+02 -0.69381650864E+01  0.20046477186E+02  0.10500000000E+00 0. -1.
         13    1    4    4    0    0 -0.51351693074E+01  0.35822676072E+02 -0.13285347938E+02  0.38550558746E+02  0.10500000000E+00 0.  1.
    3000001    1    5    5    0    0  0.67776482490E+01 -0.29964444987E+02  0.68628443849E+01  0.31494493363E+02  0.10000000000E+01 0.  1.
        -13    1    6    6    0    0  0.17780471055E+01 -0.13885945168E+02  0.81419924790E+01  0.16195184199E+02  0.10500000000E+00 0.  1.
         13    1    6    6    0    0  0.15270951166E+01 -0.12749315964E+02  0.73795395251E+01  0.14810324292E+02  0.10500000000E+00 0. -1.
</event>
<event>
11    0  0.3510903E-009  0.9118800E+02  0.7816531E-02  0.1126479E+00
         25   -1    0    0    0    0  0.00000000000E+00  0.00000000000E+00  0.99999998245E-14  0.12500000000E+03  0.12500000000E+03 0.  0.
    3000001    1    3    3    0    0  0.72522242917E+01  0.33019517455E+02 -0.27495079855E+02  0.43587414542E+02  0.10000000000E+01 0.  1.
    1000022    2    1    0    0    0  0.15809773723E+02  0.43829092476E+02 -0.40438988357E+02  0.62499998539E+02  0.99999872812E+01 0.  0.
    3000022    2    3    3    0    0  0.85575494313E+01  0.10809575020E+02 -0.12943908502E+02  0.18912583997E+02  0.25000354396E+00 0.  0.
    1000022    2    1    0    0    0 -0.15809773723E+02 -0.43829092476E+02  0.40438988357E+02  0.62500001461E+02  0.10000005545E+02 0.  0.
    3000022    2    5    5    0    0 -0.12234839222E+02 -0.28431333534E+02  0.32128866342E+02  0.44613434853E+02  0.24999934650E+00 0.  0.
        -13    1    4    4    0    0  0.35924558565E+01  0.44451734383E+01 -0.53263652463E+01  0.78132258200E+01  0.10500000000E+00 0.  1.
         13    1    4    4    0    0  0.49650935748E+01  0.63644015817E+01 -0.76175432554E+01  0.11099358177E+02  0.10500000000E+00 0. -1.
    3000001    1    5    5    0    0 -0.35749345005E+01 -0.15397758942E+02  0.83101220147E+01  0.17886566608E+02  0.10000000000E+01 0. -1.
        -13    1    6    6    0    0 -0.57174495475E+01 -0.13278372600E+02  0.15103625541E+02  0.20907772185E+02  0.10500000000E+00 0.  1.
         13    1    6    6    0    0 -0.65173896750E+01 -0.15152960933E+02  0.17025240801E+02  0.23705662669E+02  0.10500000000E+00 0. -1.
</event>
<event>
11    0  0.3510903E-009  0.9118800E+02  0.7816531E-02  0.1126479E+00
         25   -1    0    0    0    0  0.00000000000E+00  0.00000000000E+00  0.99999998245E-14  0.12500000000E+03  0.12500000000E+03 0.  0.
    3000001    1    3    3    0    0  0.45531589389E+02  0.22960337924E+02 -0.21452673416E+02  0.55331003484E+02  0.10000000000E+01 0. -1.
    1000022    2    1    0    0    0  0.48762830795E+02  0.28016634911E+02 -0.25367383629E+02  0.62500000167E+02  0.10000018497E+02 0.  0.
    3000022    2    3    3    0    0  0.32312414060E+01  0.50562969871E+01 -0.39147102125E+01  0.71689966837E+01  0.24999431359E+00 0.  0.
    1000022    2    1    0    0    0 -0.48762830795E+02 -0.28016634911E+02  0.25367383629E+02  0.62499999833E+02  0.10000016405E+02 0.  0.
    3000022    2    5    5    0    0 -0.41772813274E+02 -0.19776786323E+02  0.21560801084E+02  0.51000194601E+02  0.24999984025E+00 0.  0.
        -13    1    4    4    0    0  0.91857508559E+00  0.14150453689E+01 -0.11477700206E+01  0.20431677866E+01  0.10500000000E+00 0.  1.
         13    1    4    4    0    0  0.23126663204E+01  0.36412516182E+01 -0.27669401919E+01  0.51258288971E+01  0.10500000000E+00 0. -1.
    3000001    1    5    5    0    0 -0.69900175211E+01 -0.82398485878E+01  0.38065825450E+01  0.11499805232E+02  0.10000000000E+01 0. -1.
        -13    1    6    6    0    0 -0.13929701053E+02 -0.65398426349E+01  0.72005378537E+01  0.16990140774E+02  0.10500000000E+00 0. -1.
         13    1    6    6    0    0 -0.27843112220E+02 -0.13236943688E+02  0.14360263230E+02  0.34010053827E+02  0.10500000000E+00 0.  1.
</event>
<event>
11    0  0.3510903E-009  0.9118800E+02  0.7816531E-02  0.1126479E+00
         25   -1    0    0    0    0  0.00000000000E+00  0.00000000000E+00  0.99999998245E-14  0.12500000000E+03  0.12500000000E+03 0.  0.
    3000001    1    3    3    0    0  0.30605890345E+02 -0.22803903171E+02 -0.75162339987E+01  0.38913137848E+02  0.10000000000E+01 0.  1.
    1000022    2    1    0    0    0  0.51473695387E+02 -0.33583797135E+02 -0.53699487599E+01  0.62500008040E+02  0.10000095427E+02 0.  0.
    3000022    2    3    3    0    0  0.20867805042E+02 -0.10779893964E+02  0.21462852388E+01  0.23586870192E+02  0.25000800532E+00 0.  0.
    1000022    2    1    0    0    0 -0.51473695387E+02  0.33583797135E+02  0.53699487599E+01  0.62499991960E+02  0.99999949244E+01 0.  0.
    3000022    2    5    5    0    0 -0.44629068464E+02  0.27073195732E+02  0.14382507961E+01  0.52219179870E+02  0.25000369366E+00 0.  0.
        -13    1    4    4    0    0  0.57295565795E+01 -0.29974478023E+01  0.57281780839E+00  0.64924307595E+01  0.10500000000E+00 0. -1.
         13    1    4    4    0    0  0.15138248462E+02 -0.77824461619E+01  0.15734674304E+01  0.17094439433E+02  0.10500000000E+00 0.  1.
    3000001    1    5    5    0    0 -0.68446269228E+01  0.65106014030E+01  0.39316979637E+01  0.10280812089E+02  0.10000000000E+01 0. -1.
        -13    1    6    6    0    0 -0.33881879216E+02  0.20556089084E+02  0.11118539357E+01  0.39645703195E+02  0.10500000000E+00 0.  1.
         13    1    6    6    0    0 -0.10747189248E+02  0.65171066476E+01  0.32639686040E+00  0.12573476675E+02  0.10500000000E+00 0. -1.
</event>
<event>
11    0  0.3510903E-009  0.9118800E+02  0.7816531E-02  0.1126479E+00
         25   -1    0    0    0    0  0.00000000000E+00  0.00000000000E+00  0.99999998245E-14  0.12500000000E+03  0.12500000000E+03 0.  0.
    3000001    1    3    3    0    0 -0.20033682761E+02 -0.23123495461E+02  0.40265884912E+01  0.30874874934E+02  0.10000000000E+01 0. -1.
    1000022    2    1    0    0    0 -0.36694495480E+02 -0.46450433178E+02  0.17381636266E+02  0.62499999600E+02  0.99999964854E+01 0.  0.
    3000022    2    3    3    0    0 -0.16660812719E+02 -0.23326937718E+02  0.13355047775E+02  0.31625124666E+02  0.25001068575E+00 0.  0.
    1000022    2    1    0    0    0  0.36694495480E+02  0.46450433178E+02 -0.17381636266E+02  0.62500000400E+02  0.10000001485E+02 0.  0.
    3000022    2    5    5    0    0  0.33004807547E+02  0.44664153920E+02 -0.17645976319E+02  0.58272179886E+02  0.25000374098E+00 0.  0.
        -13    1    4    4    0    0 -0.11356273740E+02 -0.15957091169E+02  0.90831562683E+01  0.21589545262E+02  0.10500000000E+00 0.  1.
         13    1    4    4    0    0 -0.53045389793E+01 -0.73698465487E+01  0.42718915067E+01  0.10035579404E+02  0.10500000000E+00 0. -1.
    3000001    1    5    5    0    0  0.36896879330E+01  0.17862792586E+01  0.26434005245E+00  0.42278205137E+01  0.10000000000E+01 0.  1.
        -13    1    6    6    0    0  0.13937356008E+02  0.18752303611E+02 -0.74170153503E+01  0.24513708918E+02  0.10500000000E+00 0. -1.
         13    1    6    6    0    0  0.19067451539E+02  0.25911850309E+02 -0.10228960968E+02  0.33758470969E+02  0.10500000000E+00 0.  1.
</event>
<event>
11    0  0.3510903E-009  0.9118800E+02  0.7816531E-02  0.1126479E+00
         25   -1    0    0    0    0  0.00000000000E+00  0.00000000000E+00  0.99999998245E-14  0.12500000000E+03  0.12500000000E+03 0.  0.
    3000001    1    3    3    0    0 -0.33057605034E+02  0.16950325946E+02  0.61720461397E+01  0.37672442897E+02  0.10000000000E+01 0. -1.
    1000022    2    1    0    0    0 -0.52322015603E+02  0.32451175464E+02  0.39468951314E+01  0.62500001048E+02  0.10000002205E+02 0.  0.
    3000022    2    3    3    0    0 -0.19264410569E+02  0.15500849518E+02 -0.22251510083E+01  0.24827558152E+02  0.24999281789E+00 0.  0.
    1000022    2    1    0    0    0  0.52322015603E+02 -0.32451175464E+02 -0.39468951314E+01  0.62499998952E+02  0.99999891020E+01 0.  0.
    3000022    2    5    5    0    0  0.11853456541E+01 -0.15325205454E+01  0.15337682648E+01  0.24836686183E+01  0.25000234671E+00 0.  0.
        -13    1    4    4    0    0 -0.77833863204E+01  0.63148117742E+01 -0.95113922816E+00  0.10068447804E+02  0.10500000000E+00 0.  1.
         13    1    4    4    0    0 -0.11481024249E+02  0.91860377439E+01 -0.12740117802E+01  0.14759110347E+02  0.10500000000E+00 0. -1.
    3000001    1    5    5    0    0  0.51136669949E+02 -0.30918654919E+02 -0.54806633962E+01  0.60016330333E+02  0.10000000000E+01 0. -1.
        -13    1    6    6    0    0  0.54829136304E+00 -0.78707285682E+00  0.81966383078E+00  0.12660888185E+01  0.10500000000E+00 0. -1.
         13    1    6    6    0    0  0.63705429103E+00 -0.74544768861E+00  0.71410443407E+00  0.12175797998E+01  0.10500000000E+00 0.  1.
</event>
<event>
11    0  0.3510903E-009  0.9118800E+02  0.7816531E-02  0.1126479E+00
         25   -1    0    0    0    0  0.00000000000E+00  0.00000000000E+00  0.99999998245E-14  0.12500000000E+03  0.12500000000E+03 0.  0.
    3000001    1    3    3    0    0  0.89833991636E+01 -0.21137830460E+02 -0.10640894527E+02  0.25332547709E+02  0.10000000000E+01 0. -1.
    1000022    2    1    0    0    0  0.16530690105E+02 -0.47507466183E+02 -0.35721520031E+02  0.62500000765E+02  0.10000002194E+02 0.  0.
    3000022    2    3    3    0    0  0.75472909418E+01 -0.26369635723E+02 -0.25080625503E+02  0.37167453056E+02  0.25000467244E+00 0.  0.
    1000022    2    1    0    0    0 -0.16530690105E+02  0.47507466183E+02  0.35721520031E+02  0.62499999235E+02  0.99999926267E+01 0.  0.
    3000022    2    5    5    0    0 -0.14025052588E+02  0.33379536248E+02  0.29999085367E+02  0.47020242063E+02  0.25000112657E+00 0.  0.
        -13    1    4    4    0    0  0.18409290612E+01 -0.64636332131E+01 -0.61168064424E+01  0.90881197272E+01  0.10500000000E+00 0.  1.
         13    1    4    4    0    0  0.57063618806E+01 -0.19906002510E+02 -0.18963819061E+02  0.28079333329E+02  0.10500000000E+00 0. -1.
    3000001    1    5    5    0    0 -0.25056375173E+01  0.14127929935E+02  0.57224346637E+01  0.15479757172E+02  0.10000000000E+01 0.  1.
        -13    1    6    6    0    0 -0.77861985928E+01  0.18380106445E+02  0.16497623887E+02  0.25896637240E+02  0.10500000000E+00 0. -1.
         13    1    6    6    0    0 -0.62388539952E+01  0.14999429803E+02  0.13501461480E+02  0.21123604822E+02  0.10500000000E+00 0.  1.
</event>
<event>
11    0  0.3510903E-009  0.9118800E+02  0.7816531E-02  0.1126479E+00
         25   -1    0    0    0    0  0.00000000000E+00  0.00000000000E+00  0.99999998245E-14  0.12500000000E+03  0.12500000000E+03 0.  0.
    3000001    1    3    3    0    0  0.25326664630E+01 -0.44068776815E+01 -0.73132929152E+01  0.89620992840E+01  0.10000000000E+01 0.  1.
    1000022    2    1    0    0    0  0.23925464700E+02 -0.45668687437E+02 -0.33884998262E+02  0.62499999765E+02  0.99999995038E+01 0.  0.
    3000022    2    3    3    0    0  0.21392798237E+02 -0.41261809756E+02 -0.26571705347E+02  0.53537900481E+02  0.25000433348E+00 0.  0.
    1000022    2    1    0    0    0 -0.23925464700E+02  0.45668687437E+02  0.33884998262E+02  0.62500000235E+02  0.10000002439E+02 0.  0.
    3000022    2    5    5    0    0 -0.12527567136E+02  0.15773310744E+02  0.16712294562E+02  0.26174425651E+02  0.24999688246E+00 0.  0.
        -13    1    4    4    0    0  0.10207199920E+02 -0.19563541880E+02 -0.12573662694E+02  0.25397384110E+02  0.10500000000E+00 0.  1.
         13    1    4    4    0    0  0.11185598317E+02 -0.21698267876E+02 -0.13998042653E+02  0.28140516371E+02  0.10500000000E+00 0. -1.
    3000001    1    5    5    0    0 -0.11397897564E+02  0.29895376693E+02  0.17172703700E+02  0.36325574584E+02  0.10000000000E+01 0. -1.
        -13    1    6    6    0    0 -0.58363660816E+01  0.73371507397E+01  0.78655917073E+01  0.12238280432E+02  0.10500000000E+00 0. -1.
         13    1    6    6    0    0 -0.66912010541E+01  0.84361600046E+01  0.88467028545E+01  0.13936145219E+02  0.10500000000E+00 0.  1.
</event>
<event>
11    0  0.3510903E-009  0.9118800E+02  0.7816531E-02  0.1126479E+00
         25   -1    0    0    0    0  0.00000000000E+00  0.00000000000E+00  0.99999998245E-14  0.12500000000E+03  0.12500000000E+03 0.  0.
    3000001    1    3    3    0    0  0.55665159504E+01  0.63069305606E+01 -0.96138390088E+01  0.12813640131E+02  0.10000000000E+01 0.  1.
    1000022    2    1    0    0    0  0.16896763385E+02  0.44855021204E+02 -0.38842973161E+02  0.62500002234E+02  0.10000008760E+02 0.  0.
    3000022    2    3    3    0    0  0.11330247435E+02  0.38548090643E+02 -0.29229134152E+02  0.49686362103E+02  0.24999315134E+00 0.  0.
    1000022    2    1    0    0    0 -0.16896763385E+02 -0.44855021204E+02  0.38842973161E+02  0.62499997766E+02  0.99999808329E+01 0.  0.
    3000022    2    5    5    0    0 -0.13597676576E+02 -0.34432344439E+02  0.24319442622E+02  0.44294254056E+02  0.25000218983E+00 0.  0.
        -13    1    4    4    0    0  0.30762902652E+01  0.10543149453E+02 -0.80274498491E+01  0.13604136807E+02  0.10500000000E+00 0.  1.
         13    1    4    4    0    0  0.82539571696E+01  0.28004941190E+02 -0.21201684303E+02  0.36082225296E+02  0.10500000000E+00 0. -1.
    3000001    1    5    5    0    0 -0.32990868093E+01 -0.10422676765E+02  0.14523530539E+02  0.18205743710E+02  0.10000000000E+01 0. -1.
        -13    1    6    6    0    0 -0.66466360987E+01 -0.16891029814E+02  0.11847690035E+02  0.21676333725E+02  0.10500000000E+00 0.  1.
         13    1    6    6    0    0 -0.69510404773E+01 -0.17541314625E+02  0.12471752588E+02  0.22617920331E+02  0.10500000000E+00 0. -1.
</event>
<event>
11    0  0.3510903E-009  0.9118800E+02  0.7816531E-02  0.1126479E+00
         25   -1    0    0    0    0  0.00000000000E+00  0.00000000000E+00  0.99999998245E-14  0.12500000000E+03  0.12500000000E+03 0.  0.
    3000001    1    3    3    0    0 -0.13358128255E+02 -0.15529446527E+02  0.26723822108E+02  0.33686287536E+02  0.10000000000E+01 0.  1.
    1000022    2    1    0    0    0 -0.24682383067E+02 -0.35849234360E+02  0.43724849789E+02  0.62499998819E+02  0.99999862624E+01 0.  0.
    3000022    2    3    3    0    0 -0.11324254812E+02 -0.20319787833E+02  0.17001027680E+02  0.28813711282E+02  0.24998210678E+00 0.  0.
    1000022    2    1    0    0    0  0.24682383067E+02  0.35849234360E+02 -0.43724849789E+02  0.62500001181E+02  0.10000001029E+02 0.  0.
    3000022    2    5    5    0    0  0.92557467070E+01  0.17623536091E+02 -0.25996189890E+02  0.32743278100E+02  0.25000091053E+00 0.  0.
        -13    1    4    4    0    0 -0.50275931389E+01 -0.88961383032E+01  0.74997804590E+01  0.12675791944E+02  0.10500000000E+00 0.  1.
         13    1    4    4    0    0 -0.62966616727E+01 -0.11423649530E+02  0.95012472215E+01  0.16137919338E+02  0.10500000000E+00 0. -1.
    3000001    1    5    5    0    0  0.15426636360E+02  0.18225698269E+02 -0.17728659899E+02  0.29756723082E+02  0.10000000000E+01 0. -1.
        -13    1    6    6    0    0  0.21683663158E+01  0.41597035662E+01 -0.61187963835E+01  0.77107483698E+01  0.10500000000E+00 0. -1.
         13    1    6    6    0    0  0.70873803911E+01  0.13463832525E+02 -0.19877393507E+02  0.25032529730E+02  0.10500000000E+00 0.  1.
</event>
<event>
11    0  0.3510903E-009  0.9118800E+02  0.7816531E-02  0.1126479E+00
         25   -1    0    0    0    0  0.00000000000E+00  0.00000000000E+00  0.99999998245E-14  0.12500000000E+03  0.12500000000E+03 0.  0.
    3000001    1    3    3    0    0 -0.19491873048E+02 -0.22081271736E+02 -0.88966492026E+01  0.30784184956E+02  0.10000000000E+01 0. -1.
    1000022    2    1    0    0    0 -0.38527948530E+02 -0.40031978918E+02 -0.26819547397E+02  0.62499998792E+02  0.99999786171E+01 0.  0.
    3000022    2    3    3    0    0 -0.19036075482E+02 -0.17950707182E+02 -0.17922898194E+02  0.31715813835E+02  0.25001889960E+00 0.  0.
    1000022    2    1    0    0    0  0.38527948530E+02  0.40031978918E+02  0.26819547397E+02  0.62500001208E+02  0.99999937224E+01 0.  0.
    3000022    2    5    5    0    0  0.11966471217E+02  0.64049828991E+01  0.58485204690E+01  0.14781337053E+02  0.24998818217E+00 0.  0.
        -13    1    4    4    0    0 -0.73677730955E+01 -0.70235964102E+01 -0.69388668744E+01  0.12319654436E+02  0.10500000000E+00 0. -1.
         13    1    4    4    0    0 -0.11668302387E+02 -0.10927110772E+02 -0.10984031320E+02  0.19396159399E+02  0.10500000000E+00 0.  1.
    3000001    1    5    5    0    0  0.26561477313E+02  0.33626996019E+02  0.20971026928E+02  0.47718664155E+02  0.10000000000E+01 0. -1.
        -13    1    6    6    0    0  0.56893667332E+01  0.31131655834E+01  0.28285343231E+01  0.70761801271E+01  0.10500000000E+00 0. -1.
         13    1    6    6    0    0  0.62771044837E+01  0.32918173156E+01  0.30199861459E+01  0.77051569264E+01  0.10500000000E+00 0.  1.
</event>
<event>
11    0  0.3510903E-009  0.9118800E+02  0.7816531E-02  0.1126479E+00
         25   -1    0    0    0    0  0.00000000000E+00  0.00000000000E+00  0.99999998245E-14  0.12500000000E+03  0.12500000000E+03 0.  0.
    3000001    1    3    3    0    0  0.94606733813E+01  0.11742660268E+01 -0.27351358664E+02  0.28982409532E+02  0.10000000000E+01 0.  1.
    1000022    2    1    0    0    0  0.29643345976E+02  0.58143783594E+00 -0.54103455915E+02  0.62500000858E+02  0.10000006734E+02 0.  0.
    3000022    2    3    3    0    0  0.20182672595E+02 -0.59282819082E+00 -0.26752097251E+02  0.33517591325E+02  0.25000522303E+00 0.  0.
    1000022    2    1    0    0    0 -0.29643345976E+02 -0.58143783594E+00  0.54103455915E+02  0.62499999142E+02  0.99999960125E+01 0.  0.
    3000022    2    5    5    0    0 -0.25291191404E+02  0.18721327678E+01  0.49564293190E+02  0.55676125142E+02  0.25001538016E+00 0.  0.
        -13    1    4    4    0    0  0.15450073729E+02 -0.46524483479E+00 -0.20491688392E+02  0.25667908936E+02  0.10500000000E+00 0.  1.
         13    1    4    4    0    0  0.47325988662E+01 -0.12758335603E+00 -0.62604088589E+01  0.78496823899E+01  0.10500000000E+00 0. -1.
    3000001    1    5    5    0    0 -0.43521545721E+01 -0.24535706038E+01  0.45391627247E+01  0.68238740001E+01  0.10000000000E+01 0.  1.
        -13    1    6    6    0    0 -0.13302524619E+02  0.10510535143E+01  0.26049589598E+02  0.29268652479E+02  0.10500000000E+00 0.  1.
         13    1    6    6    0    0 -0.11988666785E+02  0.82107925357E+00  0.23514703592E+02  0.26407472663E+02  0.10500000000E+00 0. -1.
</event>
<event>
11    0  0.3510903E-009  0.9118800E+02  0.7816531E-02  0.1126479E+00
         25   -1    0    0    0    0  0.00000000000E+00  0.00000000000E+00  0.99999998245E-14  0.12500000000E+03  0.12500000000E+03 0.  0.
    3000001    1    3    3    0    0 -0.14348143410E+02 -0.26884423718E+02 -0.14966424572E+02  0.33965207529E+02  0.10000000000E+01 0.  1.
    1000022    2    1    0    0    0 -0.18022906745E+02 -0.50242595112E+02 -0.30937139240E+02  0.62499998343E+02  0.99999838683E+01 0.  0.
    3000022    2    3    3    0    0 -0.36747633346E+01 -0.23358171393E+02 -0.15970714668E+02  0.28534790814E+02  0.25000676275E+00 0.  0.
    1000022    2    1    0    0    0  0.18022906745E+02  0.50242595112E+02  0.30937139240E+02  0.62500001657E+02  0.10000004587E+02 0.  0.
    3000022    2    5    5    0    0  0.13178643889E+02  0.22651078501E+02  0.13392145759E+02  0.29430597856E+02  0.25002028717E+00 0.  0.
        -13    1    4    4    0    0 -0.10668049120E+01 -0.65730524985E+01 -0.44690698329E+01  0.80203928857E+01  0.10500000000E+00 0. -1.
         13    1    4    4    0    0 -0.26079584225E+01 -0.16785118895E+02 -0.11501644835E+02  0.20514397928E+02  0.10500000000E+00 0.  1.
    3000001    1    5    5    0    0  0.48442628556E+01  0.27591516611E+02  0.17544993482E+02  0.33069403801E+02  0.10000000000E+01 0.  1.
        -13    1    6    6    0    0  0.40423382220E+01  0.70363136435E+01  0.41258541057E+01  0.91040598138E+01  0.10500000000E+00 0. -1.
         13    1    6    6    0    0  0.91363056674E+01  0.15614764857E+02  0.92662916529E+01  0.20326538042E+02  0.10500000000E+00 0.  1.
</event>
<event>
11    0  0.3510903E-009  0.9118800E+02  0.7816531E-02  0.1126479E+00
         25   -1    0    0    0    0  0.00000000000E+00  0.00000000000E+00  0.99999998245E-14  0.12500000000E+03  0.12500000000E+03 0.  0.
    3000001    1    3    3    0    0 -0.20656319672E+02  0.11619555004E+01 -0.54632514990E+02  0.58427265699E+02  0.10000000000E+01 0. -1.
    1000022    2    1    0    0    0 -0.22304408478E+02 -0.11898907137E+01 -0.57509543597E+02  0.62500000260E+02  0.99999975143E+01 0.  0.
    3000022    2    3    3    0    0 -0.16480888057E+01 -0.23518462141E+01 -0.28770286069E+01  0.40727345602E+01  0.24999173436E+00 0.  0.
    1000022    2    1    0    0    0  0.22304408478E+02  0.11898907137E+01  0.57509543597E+02  0.62499999740E+02  0.99999942705E+01 0.  0.
    3000022    2    5    5    0    0  0.14279476208E+02  0.23079659969E+01  0.24111503586E+02  0.28118628232E+02  0.25000127715E+00 0.  0.
        -13    1    4    4    0    0 -0.58905309302E+00 -0.76067893242E+00 -0.10062702581E+01  0.13961449842E+01  0.10500000000E+00 0. -1.
         13    1    4    4    0    0 -0.10590357127E+01 -0.15911672817E+01 -0.18707583488E+01  0.26765895760E+01  0.10500000000E+00 0.  1.
    3000001    1    5    5    0    0  0.80249322698E+01 -0.11180752832E+01  0.33398040010E+02  0.34381371508E+02  0.10000000000E+01 0. -1.
        -13    1    6    6    0    0  0.47450080776E+01  0.71551896993E+00  0.80307518996E+01  0.93558040876E+01  0.10500000000E+00 0. -1.
         13    1    6    6    0    0  0.95344681304E+01  0.15924470269E+01  0.16080751687E+02  0.18762824144E+02  0.10500000000E+00 0.  1.
</event>
<event>
11    0  0.3510903E-009  0.9118800E+02  0.7816531E-02  0.1126479E+00
         25   -1    0    0    0    0  0.00000000000E+00  0.00000000000E+00  0.99999998245E-14  0.12500000000E+03  0.12500000000E+03 0.  0.
    3000001    1    3    3    0    0 -0.38459875261E+02  0.50969433703E+01 -0.26790551536E+02  0.47157973752E+02  0.10000000000E+01 0. -1.
    1000022    2    1    0    0    0 -0.47923477802E+02  0.11210931558E+02 -0.37200871071E+02  0.62500003538E+02  0.10000046137E+02 0.  0.
    3000022    2    3    3    0    0 -0.94636025412E+01  0.61139881878E+01 -0.10410319535E+02  0.15342029786E+02  0.25000101555E+00 0.  0.
    1000022    2    1    0    0    0  0.47923477802E+02 -0.11210931558E+02  0.37200871071E+02  0.62499996462E+02  0.10000001915E+02 0.  0.
    3000022    2    5    5    0    0  0.27470629327E+02 -0.11339302146E+02  0.21047229217E+02  0.36417902319E+02  0.25000565420E+00 0.  0.
        -13    1    4    4    0    0 -0.40688803441E+01  0.26988977547E+01 -0.45510756132E+01  0.66755636902E+01  0.10500000000E+00 0. -1.
         13    1    4    4    0    0 -0.53947221971E+01  0.34150904332E+01 -0.58592439218E+01  0.86664660956E+01  0.10500000000E+00 0.  1.
    3000001    1    5    5    0    0  0.20452848475E+02  0.12837058766E+00  0.16153641853E+02  0.26082094143E+02  0.10000000000E+01 0.  1.
        -13    1    6    6    0    0  0.21040305383E+02 -0.86825308791E+01  0.16135737717E+02  0.27900785826E+02  0.10500000000E+00 0. -1.
         13    1    6    6    0    0  0.64303239449E+01 -0.26567712667E+01  0.49114915004E+01  0.85171164932E+01  0.10500000000E+00 0.  1.
</event>
<event>
11    0  0.3510903E-009  0.9118800E+02  0.7816531E-02  0.1126479E+00
         25   -1    0    0    0    0  0.00000000000E+00  0.00000000000E+00  0.99999998245E-14  0.12500000000E+03  0.12500000000E+03 0.  0.
    3000001    1    3    3    0    0 -0.18674425986E+02 -0.10532763204E+01  0.18519539627E+02  0.26340404797E+02  0.10000000000E+01 0. -1.
    1000022    2    1    0    0    0 -0.50787780808E+02 -0.49519320547E+01  0.34674626648E+02  0.62500001131E+02  0.10000004883E+02 0.  0.
    3000022    2    3    3    0    0 -0.32113354823E+02 -0.38986557343E+01  0.16155087021E+02  0.36159596333E+02  0.24999166015E+00 0.  0.
    1000022    2    1    0    0    0  0.50787780808E+02  0.49519320547E+01 -0.34674626648E+02  0.62499998869E+02  0.99999907489E+01 0.  0.
    3000022    2    5    5    0    0  0.69763642989E+00  0.15863435349E+01 -0.16075273401E+01  0.23769350205E+01  0.24998708617E+00 0.  0.
        -13    1    4    4    0    0 -0.15183168714E+02 -0.18041883637E+01  0.76974772004E+01  0.17118583121E+02  0.10500000000E+00 0. -1.
         13    1    4    4    0    0 -0.16930186109E+02 -0.20944673706E+01  0.84576098208E+01  0.19041013212E+02  0.10500000000E+00 0.  1.
    3000001    1    5    5    0    0  0.50090144379E+02  0.33655885198E+01 -0.33067099308E+02  0.60123063849E+02  0.10000000000E+01 0. -1.
        -13    1    6    6    0    0  0.41897285101E+00  0.10125864454E+01 -0.10856395624E+01  0.15461267150E+01  0.10500000000E+00 0. -1.
         13    1    6    6    0    0  0.27866357888E+00  0.57375708951E+00 -0.52188777770E+00  0.83080830549E+00  0.10500000000E+00 0.  1.
</event>
<event>
11    0  0.3510903E-009  0.9118800E+02  0.7816531E-02  0.1126479E+00
         25   -1    0    0    0    0  0.00000000000E+00  0.00000000000E+00  0.99999998245E-14  0.12500000000E+03  0.12500000000E+03 0.  0.
    3000001    1    3    3    0    0  0.92118743804E+01 -0.78847548297E+01 -0.41006877974E+01  0.12839144393E+02  0.10000000000E+01 0.  1.
    1000022    2    1    0    0    0  0.54337134617E+02 -0.28469575342E+02 -0.65733557703E+01  0.62499999840E+02  0.10000002770E+02 0.  0.
    3000022    2    3    3    0    0  0.45125260236E+02 -0.20584820512E+02 -0.24726679729E+01  0.49660855447E+02  0.25005984917E+00 0.  0.
    1000022    2    1    0    0    0 -0.54337134617E+02  0.28469575342E+02  0.65733557703E+01  0.62500000160E+02  0.10000004772E+02 0.  0.
    3000022    2    5    5    0    0 -0.27974805150E+02  0.19620955935E+02  0.14132575723E+01  0.34199874830E+02  0.25001283703E+00 0.  0.
        -13    1    4    4    0    0  0.11300352642E+02 -0.51842539681E+01 -0.62239753690E+00  0.12448809691E+02  0.10500000000E+00 0.  1.
         13    1    4    4    0    0  0.33824907594E+02 -0.15400566544E+02 -0.18502704360E+01  0.37212045756E+02  0.10500000000E+00 0. -1.
    3000001    1    5    5    0    0 -0.26362329466E+02  0.88486194072E+01  0.51600981980E+01  0.28300125330E+02  0.10000000000E+01 0.  1.
        -13    1    6    6    0    0 -0.84407368390E+01  0.58813082317E+01  0.45895198432E+00  0.10298421570E+02  0.10500000000E+00 0. -1.
         13    1    6    6    0    0 -0.19534068311E+02  0.13739647703E+02  0.95430558797E+00  0.23901453260E+02  0.10500000000E+00 0.  1.
</event>
<event>
11    0  0.3510903E-009  0.9118800E+02  0.7816531E-02  0.1126479E+00
         25   -1    0    0    0    0  0.00000000000E+00  0.00000000000E+00  0.99999998245E-14  0.12500000000E+03  0.12500000000E+03 0.  0.
    3000001    1    3    3    0    0  0.35802638631E+02  0.22912431753E+02 -0.12829650014E+02  0.44411804526E+02  0.10000000000E+01 0.  1.
    1000022    2    1    0    0    0  0.46403402479E+02  0.33689714682E+02 -0.22759116426E+02  0.62500000394E+02  0.10000001589E+02 0.  0.
    3000022    2    3    3    0    0  0.10600763848E+02  0.10777282929E+02 -0.99294664120E+01  0.18088195868E+02  0.25001007720E+00 0.  0.
    1000022    2    1    0    0    0 -0.46403402479E+02 -0.33689714682E+02  0.22759116426E+02  0.62499999606E+02  0.99999966639E+01 0.  0.
    3000022    2    5    5    0    0 -0.39453772902E+02 -0.32419148752E+02  0.19619459877E+02  0.54704543732E+02  0.24999410323E+00 0.  0.
        -13    1    4    4    0    0  0.64789221672E+01  0.65070947494E+01 -0.60639133401E+01  0.11004580161E+02  0.10500000000E+00 0.  1.
         13    1    4    4    0    0  0.41218416805E+01  0.42701881799E+01 -0.38655530719E+01  0.70836157069E+01  0.10500000000E+00 0. -1.
    3000001    1    5    5    0    0 -0.69496295768E+01 -0.12705659303E+01  0.31396565497E+01  0.77954558743E+01  0.10000000000E+01 0. -1.
        -13    1    6    6    0    0 -0.14167450643E+02 -0.11568109587E+02  0.70148120533E+01  0.19589702149E+02  0.10500000000E+00 0.  1.
         13    1    6    6    0    0 -0.25286322259E+02 -0.20851039165E+02  0.12604647823E+02  0.35114841583E+02  0.10500000000E+00 0. -1.
</event>
<event>
11    0  0.3510903E-009  0.9118800E+02  0.7816531E-02  0.1126479E+00
         25   -1    0    0    0    0  0.00000000000E+00  0.00000000000E+00  0.99999998245E-14  0.12500000000E+03  0.12500000000E+03 0.  0.
    3000001    1    3    3    0    0  0.16885209909E+02 -0.30123144951E+02 -0.11188550517E+02  0.36313879414E+02  0.10000000000E+01 0.  1.
    1000022    2    1    0    0    0  0.22019942390E+02 -0.55302199718E+02 -0.16218471934E+02  0.62499999488E+02  0.99999973764E+01 0.  0.
    3000022    2    3    3    0    0  0.51347324806E+01 -0.25179054767E+02 -0.50299214170E+01  0.26186120073E+02  0.24999685115E+00 0.  0.
    1000022    2    1    0    0    0 -0.22019942390E+02  0.55302199718E+02  0.16218471934E+02  0.62500000512E+02  0.10000003780E+02 0.  0.
    3000022    2    5    5    0    0 -0.10691892288E+02  0.39092442142E+02  0.11802490652E+02  0.42212520371E+02  0.24999431824E+00 0.  0.
        -13    1    4    4    0    0  0.26904837844E+01 -0.13072863887E+02 -0.26768907704E+01  0.13613054117E+02  0.10500000000E+00 0.  1.
         13    1    4    4    0    0  0.24442486963E+01 -0.12106190880E+02 -0.23530306466E+01  0.12573065956E+02  0.10500000000E+00 0. -1.
    3000001    1    5    5    0    0 -0.11328050102E+02  0.16209757577E+02  0.44159812820E+01  0.20287480142E+02  0.10000000000E+01 0. -1.
        -13    1    6    6    0    0 -0.46226184012E+01  0.16654197662E+02  0.50313975185E+01  0.18001580115E+02  0.10500000000E+00 0. -1.
         13    1    6    6    0    0 -0.60692738865E+01  0.22438244479E+02  0.67710931339E+01  0.24210940255E+02  0.10500000000E+00 0.  1.
</event>
<event>
11    0  0.3510903E-009  0.9118800E+02  0.7816531E-02  0.1126479E+00
         25   -1    0    0    0    0  0.00000000000E+00  0.00000000000E+00  0.99999998245E-14  0.12500000000E+03  0.12500000000E+03 0.  0.
    3000001    1    3    3    0    0  0.58013278927E+00 -0.37530959020E+01 -0.10510085033E+02  0.11219811509E+02  0.10000000000E+01 0. -1.
    1000022    2    1    0    0    0 -0.67222187470E+00 -0.38490161848E+02 -0.48211053109E+02  0.62499999068E+02  0.99999900162E+01 0.  0.
    3000022    2    3    3    0    0 -0.12523546640E+01 -0.34737065946E+02 -0.37700968076E+02  0.51280187559E+02  0.24999895740E+00 0.  0.
    1000022    2    1    0    0    0  0.67222187470E+00  0.38490161848E+02  0.48211053109E+02  0.62500000932E+02  0.10000001661E+02 0.  0.
    3000022    2    5    5    0    0  0.41302101403E+01  0.82510674889E+01  0.94896923541E+01  0.13238410527E+02  0.25000357522E+00 0.  0.
        -13    1    4    4    0    0 -0.39682802378E+00 -0.99143346823E+01 -0.10781645876E+02  0.14652863797E+02  0.10500000000E+00 0. -1.
         13    1    4    4    0    0 -0.85552664018E+00 -0.24822731264E+02 -0.26919322200E+02  0.36627323762E+02  0.10500000000E+00 0.  1.
    3000001    1    5    5    0    0 -0.34579882656E+01  0.30239094359E+02  0.38721360755E+02  0.49261590405E+02  0.10000000000E+01 0.  1.
        -13    1    6    6    0    0  0.12991846522E+01  0.27061592394E+01  0.31101902949E+01  0.43238278481E+01  0.10500000000E+00 0. -1.
         13    1    6    6    0    0  0.28310254881E+01  0.55449082494E+01  0.63795020592E+01  0.89145826785E+01  0.10500000000E+00 0.  1.
</event>
<event>
11    0  0.3510903E-009  0.9118800E+02  0.7816531E-02  0.1126479E+00
         25   -1    0    0    0    0  0.00000000000E+00  0.00000000000E+00  0.99999998245E-14  0.12500000000E+03  0.12500000000E+03 0.  0.
    3000001    1    3    3    0    0 -0.16494628964E+01 -0.82050844631E+01 -0.29121632285E+02  0.30316886480E+02  0.10000000000E+01 0. -1.
    1000022    2    1    0    0    0  0.30759443060E+01 -0.24053885244E+02 -0.56729173748E+02  0.62500000076E+02  0.10000001333E+02 0.  0.
    3000022    2    3    3    0    0  0.47254072024E+01 -0.15848800781E+02 -0.27607541462E+02  0.32183113596E+02  0.24999135112E+00 0.  0.
    1000022    2    1    0    0    0 -0.30759443060E+01  0.24053885244E+02  0.56729173748E+02  0.62499999924E+02  0.10000000386E+02 0.  0.
    3000022    2    5    5    0    0  0.25274828299E+01  0.51477623167E+01  0.19909496432E+02  0.20720477219E+02  0.25000338797E+00 0.  0.
        -13    1    4    4    0    0  0.30885229289E+01 -0.10401704382E+02 -0.18217229866E+02  0.21204077837E+02  0.10500000000E+00 0. -1.
         13    1    4    4    0    0  0.16368842736E+01 -0.54470963995E+01 -0.93903115964E+01  0.10979035759E+02  0.10500000000E+00 0.  1.
    3000001    1    5    5    0    0 -0.56034271359E+01  0.18906122928E+02  0.36819677316E+02  0.41779522705E+02  0.10000000000E+01 0. -1.
        -13    1    6    6    0    0  0.87186947590E+00  0.17426230709E+01  0.69612283983E+01  0.72295655031E+01  0.10500000000E+00 0. -1.
         13    1    6    6    0    0  0.16556133540E+01  0.34051392458E+01  0.12948268034E+02  0.13490911716E+02  0.10500000000E+00 0.  1.
</event>
<event>
11    0  0.3510903E-009  0.9118800E+02  0.7816531E-02  0.1126479E+00
         25   -1    0    0    0    0  0.00000000000E+00  0.00000000000E+00  0.99999998245E-14  0.12500000000E+03  0.12500000000E+03 0.  0.
    3000001    1    3    3    0    0 -0.13448983501E+02  0.11311491293E+02  0.46013099709E+01  0.18193324213E+02  0.10000000000E+01 0. -1.
    1000022    2    1    0    0    0 -0.52161384967E+02  0.25617515375E+02  0.20716728093E+02  0.62500000439E+02  0.10000002816E+02 0.  0.
    3000022    2    3    3    0    0 -0.38712401466E+02  0.14306024083E+02  0.16115418122E+02  0.44306676226E+02  0.25000925212E+00 0.  0.
    1000022    2    1    0    0    0  0.52161384967E+02 -0.25617515375E+02 -0.20716728093E+02  0.62499999561E+02  0.99999973281E+01 0.  0.
    3000022    2    5    5    0    0  0.42873220859E+02 -0.24526574470E+02 -0.19093919000E+02  0.52955700011E+02  0.24999752635E+00 0.  0.
        -13    1    4    4    0    0 -0.21793593955E+02  0.79889954315E+01  0.90913330960E+01  0.24928861746E+02  0.10500000000E+00 0. -1.
         13    1    4    4    0    0 -0.16918807510E+02  0.63170286512E+01  0.70240850265E+01  0.19377814480E+02  0.10500000000E+00 0.  1.
    3000001    1    5    5    0    0  0.92881641077E+01 -0.10909409050E+01 -0.16228090931E+01  0.95442995501E+01  0.10000000000E+01 0. -1.
        -13    1    6    6    0    0  0.14727690037E+02 -0.83663010147E+01 -0.65254799501E+01  0.18151935436E+02  0.10500000000E+00 0. -1.
         13    1    6    6    0    0  0.28145530823E+02 -0.16160273456E+02 -0.12568439050E+02  0.34803764575E+02  0.10500000000E+00 0.  1.
</event>
<event>
11    0  0.3510903E-009  0.9118800E+02  0.7816531E-02  0.1126479E+00
         25   -1    0    0    0    0  0.00000000000E+00  0.00000000000E+00  0.99999998245E-14  0.12500000000E+03  0.12500000000E+03 0.  0.
    3000001    1    3    3    0    0  0.17846298731E+02  0.26797751028E+02 -0.69610244699E+01  0.32955510924E+02  0.10000000000E+01 0. -1.
    1000022    2    1    0    0    0  0.28972699321E+02  0.54146089382E+02 -0.59189223470E+01  0.62500000501E+02  0.10000005977E+02 0.  0.
    3000022    2    3    3    0    0  0.11126400590E+02  0.27348338354E+02  0.10421021229E+01  0.29544489577E+02  0.24997347940E+00 0.  0.
    1000022    2    1    0    0    0 -0.28972699321E+02 -0.54146089382E+02  0.59189223470E+01  0.62499999499E+02  0.99999997123E+01 0.  0.
    3000022    2    5    5    0    0 -0.66614206373E+01 -0.72726648294E+01  0.36801712780E+01  0.10529593572E+02  0.25000306500E+00 0.  0.
        -13    1    4    4    0    0  0.26427680597E+01  0.64593222123E+01  0.25441303891E+00  0.69844697332E+01  0.10500000000E+00 0. -1.
         13    1    4    4    0    0  0.84836325303E+01  0.20889016142E+02  0.78768908402E+00  0.22560019844E+02  0.10500000000E+00 0.  1.
    3000001    1    5    5    0    0 -0.22311278684E+02 -0.46873424553E+02  0.22387510690E+01  0.51970405927E+02  0.10000000000E+01 0.  1.
        -13    1    6    6    0    0 -0.47129948449E+01 -0.51613551456E+01  0.26524603306E+01  0.74765284827E+01  0.10500000000E+00 0. -1.
         13    1    6    6    0    0 -0.19484257924E+01 -0.21113096838E+01  0.10277109474E+01  0.30530650895E+01  0.10500000000E+00 0.  1.
</event>
<event>
11    0  0.3510903E-009  0.9118800E+02  0.7816531E-02  0.1126479E+00
         25   -1    0    0    0    0  0.00000000000E+00  0.00000000000E+00  0.99999998245E-14  0.12500000000E+03  0.12500000000E+03 0.  0.
    3000001    1    3    3    0    0 -0.80585635993E+01 -0.11982436877E+02  0.11136917937E+01  0.14517560064E+02  0.10000000000E+01 0. -1.
    1000022    2    1    0    0    0 -0.36934849608E+02 -0.47827144985E+02 -0.12435075538E+02  0.62500000411E+02  0.10000001739E+02 0.  0.
    3000022    2    3    3    0    0 -0.28876286008E+02 -0.35844708108E+02 -0.13548767332E+02  0.47982440347E+02  0.24998494235E+00 0.  0.
    1000022    2    1    0    0    0  0.36934849608E+02  0.47827144985E+02  0.12435075538E+02  0.62499999589E+02  0.99999965995E+01 0.  0.
    3000022    2    5    5    0    0  0.16896355115E+02  0.18546936401E+02  0.64659931042E+00  0.25098929443E+02  0.25000497976E+00 0.  0.
        -13    1    4    4    0    0 -0.67950426424E+01 -0.84461820941E+01 -0.31771286567E+01  0.11296714920E+02  0.10500000000E+00 0. -1.
         13    1    4    4    0    0 -0.22081243366E+02 -0.27398526014E+02 -0.10371638675E+02  0.36685725427E+02  0.10500000000E+00 0.  1.
    3000001    1    5    5    0    0  0.20038494492E+02  0.29280208584E+02  0.11788476228E+02  0.37401070145E+02  0.10000000000E+01 0. -1.
        -13    1    6    6    0    0  0.70135410190E+01  0.77937346148E+01  0.27926253284E+00  0.10489092879E+02  0.10500000000E+00 0. -1.
         13    1    6    6    0    0  0.98828140963E+01  0.10753201786E+02  0.36733677758E+00  0.14609836564E+02  0.10500000000E+00 0.  1.
</event>
<event>
11    0  0.3510903E-009  0.9118800E+02  0.7816531E-02  0.1126479E+00
         25   -1    0    0    0    0  0.00000000000E+00  0.00000000000E+00  0.99999998245E-14  0.12500000000E+03  0.12500000000E+03 0.  0.
    3000001    1    3    3    0    0 -0.32151066610E+01  0.95888748803E+01  0.41672054358E+01  0.10984035390E+02  0.10000000000E+01 0. -1.
    1000022    2    1    0    0    0 -0.16718978716E+02  0.42860333967E+02  0.41106174494E+02  0.62499998823E+02  0.99999897148E+01 0.  0.
    3000022    2    3    3    0    0 -0.13503872055E+02  0.33271459087E+02  0.36938969058E+02  0.51515963433E+02  0.25000619713E+00 0.  0.
    1000022    2    1    0    0    0  0.16718978716E+02 -0.42860333967E+02 -0.41106174494E+02  0.62500001177E+02  0.10000004424E+02 0.  0.
    3000022    2    5    5    0    0  0.47954315723E+01 -0.23340762466E+02 -0.24789664198E+02  0.34385713771E+02  0.25000811645E+00 0.  0.
        -13    1    4    4    0    0 -0.65529418733E+01  0.16057044024E+02  0.17756317977E+02  0.24820708352E+02  0.10500000000E+00 0.  1.
         13    1    4    4    0    0 -0.69509301816E+01  0.17214415063E+02  0.19182651081E+02  0.26695255081E+02  0.10500000000E+00 0. -1.
    3000001    1    5    5    0    0  0.11923547144E+02 -0.19519571501E+02 -0.16316510296E+02  0.28114287406E+02  0.10000000000E+01 0.  1.
        -13    1    6    6    0    0  0.30445139505E+01 -0.14584451165E+02 -0.15553538017E+02  0.21538311234E+02  0.10500000000E+00 0. -1.
         13    1    6    6    0    0  0.17509176218E+01 -0.87563113009E+01 -0.92361261806E+01  0.12847402537E+02  0.10500000000E+00 0.  1.
</event>
<event>
11    0  0.3510903E-009  0.9118800E+02  0.7816531E-02  0.1126479E+00
         25   -1    0    0    0    0  0.00000000000E+00  0.00000000000E+00  0.99999998245E-14  0.12500000000E+03  0.12500000000E+03 0.  0.
    3000001    1    3    3    0    0  0.24861533567E+02  0.40096882415E+02  0.14146426455E+02  0.49264360467E+02  0.10000000000E+01 0. -1.
    1000022    2    1    0    0    0  0.32241342203E+02  0.47779228640E+02  0.21997521376E+02  0.62500000438E+02  0.10000013578E+02 0.  0.
    3000022    2    3    3    0    0  0.73798086364E+01  0.76823462251E+01  0.78510949207E+01  0.13235639972E+02  0.24990992953E+00 0.  0.
    1000022    2    1    0    0    0 -0.32241342203E+02 -0.47779228640E+02 -0.21997521376E+02  0.62499999562E+02  0.10000008099E+02 0.  0.
    3000022    2    5    5    0    0 -0.27918733457E+02 -0.38915067274E+02 -0.14405702208E+02  0.50014246826E+02  0.24998139733E+00 0.  0.
        -13    1    4    4    0    0  0.48527945783E+01  0.50978443762E+01  0.51315720291E+01  0.87110096426E+01  0.10500000000E+00 0.  1.
         13    1    4    4    0    0  0.25270140581E+01  0.25845018489E+01  0.27195228916E+01  0.45246303291E+01  0.10500000000E+00 0. -1.
    3000001    1    5    5    0    0 -0.43226087470E+01 -0.88641613661E+01 -0.75918191672E+01  0.12485752735E+02  0.10000000000E+01 0.  1.
        -13    1    6    6    0    0 -0.13768683636E+02 -0.19108793466E+02 -0.70346008548E+01  0.24580872055E+02  0.10500000000E+00 0.  1.
         13    1    6    6    0    0 -0.14150049820E+02 -0.19806273808E+02 -0.73711013536E+01  0.25433374771E+02  0.10500000000E+00 0. -1.
</event>
<event>
11    0  0.3510903E-009  0.9118800E+02  0.7816531E-02  0.1126479E+00
         25   -1    0    0    0    0  0.00000000000E+00  0.00000000000E+00  0.99999998245E-14  0.12500000000E+03  0.12500000000E+03 0.  0.
    3000001    1    3    3    0    0  0.15027849100E+02  0.47618322878E+02 -0.33064020688E+02  0.59896330325E+02  0.10000000000E+01 0.  1.
    1000022    2    1    0    0    0  0.15602838410E+02  0.50077364898E+02 -0.32481678910E+02  0.62500003951E+02  0.99999993781E+01 0.  0.
    3000022    2    3    3    0    0  0.57498931003E+00  0.24590420193E+01  0.58234177786E+00  0.26036736267E+01  0.24998809644E+00 0.  0.
    1000022    2    1    0    0    0 -0.15602838410E+02 -0.50077364898E+02  0.32481678910E+02  0.62499996049E+02  0.99999499844E+01 0.  0.
    3000022    2    5    5    0    0 -0.15695552734E+02 -0.46147501231E+02  0.32229872832E+02  0.58436028691E+02  0.25000174063E+00 0.  0.
        -13    1    4    4    0    0  0.27209213874E+00  0.13953308268E+01  0.28653718794E+00  0.14539982147E+01  0.10500000000E+00 0.  1.
         13    1    4    4    0    0  0.30289717128E+00  0.10637111926E+01  0.29580458992E+00  0.11496754120E+01  0.10500000000E+00 0. -1.
    3000001    1    5    5    0    0  0.92714324100E-01 -0.39298636665E+01  0.25180607812E+00  0.40639673576E+01  0.10000000000E+01 0.  1.
        -13    1    6    6    0    0 -0.64419760260E+01 -0.19081523004E+02  0.13371075152E+02  0.24174371781E+02  0.10500000000E+00 0.  1.
         13    1    6    6    0    0 -0.92535767082E+01 -0.27065978227E+02  0.18858797680E+02  0.34261656910E+02  0.10500000000E+00 0. -1.
</event>
<event>
11    0  0.3510903E-009  0.9118800E+02  0.7816531E-02  0.1126479E+00
         25   -1    0    0    0    0  0.00000000000E+00  0.00000000000E+00  0.99999998245E-14  0.12500000000E+03  0.12500000000E+03 0.  0.
    3000001    1    3    3    0    0 -0.33183387976E+02  0.26980704841E+02 -0.78171502596E+01  0.43487969710E+02  0.10000000000E+01 0. -1.
    1000022    2    1    0    0    0 -0.50530944098E+02  0.34707370464E+02 -0.69478150068E+01  0.62500000523E+02  0.10000002800E+02 0.  0.
    3000022    2    3    3    0    0 -0.17347556122E+02  0.77266656226E+01  0.86933525275E+00  0.19012030813E+02  0.25001359376E+00 0.  0.
    1000022    2    1    0    0    0  0.50530944098E+02 -0.34707370464E+02  0.69478150068E+01  0.62499999477E+02  0.99999962652E+01 0.  0.
    3000022    2    5    5    0    0  0.14229404774E+02 -0.76464462593E+01 -0.21745081811E+01  0.16301383086E+02  0.25000814041E+00 0.  0.
        -13    1    4    4    0    0 -0.11563750948E+02  0.51277172988E+01  0.62851936217E+00  0.12665697070E+02  0.10500000000E+00 0. -1.
         13    1    4    4    0    0 -0.57838051738E+01  0.25989483238E+01  0.24081589058E+00  0.63463337425E+01  0.10500000000E+00 0.  1.
    3000001    1    5    5    0    0  0.36301539325E+02 -0.27060924205E+02  0.91223231879E+01  0.46198616392E+02  0.10000000000E+01 0.  1.
        -13    1    6    6    0    0  0.81667780932E+01 -0.43143525077E+01 -0.12411373230E+01  0.93199436071E+01  0.10500000000E+00 0. -1.
         13    1    6    6    0    0  0.60626266803E+01 -0.33320937516E+01 -0.93337085803E+00  0.69814394786E+01  0.10500000000E+00 0.  1.
</event>
<event>
11    0  0.3510903E-009  0.9118800E+02  0.7816531E-02  0.1126479E+00
         25   -1    0    0    0    0  0.00000000000E+00  0.00000000000E+00  0.99999998245E-14  0.12500000000E+03  0.12500000000E+03 0.  0.
    3000001    1    3    3    0    0 -0.18275720309E+02 -0.49603411602E+00 -0.70733208765E+01  0.19628547346E+02  0.10000000000E+01 0. -1.
    1000022    2    1    0    0    0 -0.56014637836E+02 -0.15802426162E+02 -0.20466885599E+02  0.62500001888E+02  0.10000025265E+02 0.  0.
    3000022    2    3    3    0    0 -0.37738917527E+02 -0.15306392046E+02 -0.13393564723E+02  0.42871454542E+02  0.25001005454E+00 0.  0.
    1000022    2    1    0    0    0  0.56014637836E+02  0.15802426162E+02  0.20466885599E+02  0.62499998112E+02  0.10000001667E+02 0.  0.
    3000022    2    5    5    0    0  0.33785255239E+02  0.48035390712E+01  0.99936877377E+01  0.35559158457E+02  0.24999275888E+00 0.  0.
        -13    1    4    4    0    0 -0.25481534831E+02 -0.10295961628E+02 -0.89993380591E+01  0.28919103612E+02  0.10500000000E+00 0. -1.
         13    1    4    4    0    0 -0.12257382696E+02 -0.50104304179E+01 -0.43942266636E+01  0.13952350931E+02  0.10500000000E+00 0.  1.
    3000001    1    5    5    0    0  0.22229382597E+02  0.10998887090E+02  0.10473197862E+02  0.26940839655E+02  0.10000000000E+01 0. -1.
        -13    1    6    6    0    0  0.14892914653E+02  0.20509261796E+01  0.44092057172E+01  0.15667077747E+02  0.10500000000E+00 0. -1.
         13    1    6    6    0    0  0.18892340586E+02  0.27526128915E+01  0.55844820205E+01  0.19892080710E+02  0.10500000000E+00 0.  1.
</event>
<event>
11    0  0.3510903E-009  0.9118800E+02  0.7816531E-02  0.1126479E+00
         25   -1    0    0    0    0  0.00000000000E+00  0.00000000000E+00  0.99999998245E-14  0.12500000000E+03  0.12500000000E+03 0.  0.
    3000001    1    3    3    0    0  0.93331807116E+01  0.69889195948E+01 -0.80617766587E+01  0.14210753048E+02  0.10000000000E+01 0.  1.
    1000022    2    1    0    0    0  0.46465503307E+02  0.13772155755E+02 -0.38177673567E+02  0.62500000343E+02  0.10000000610E+02 0.  0.
    3000022    2    3    3    0    0  0.37132322595E+02  0.67832361605E+01 -0.30115896908E+02  0.48289247295E+02  0.24996721143E+00 0.  0.
    1000022    2    1    0    0    0 -0.46465503307E+02 -0.13772155755E+02  0.38177673567E+02  0.62499999657E+02  0.99999963250E+01 0.  0.
    3000022    2    5    5    0    0 -0.46010493907E+02 -0.13196797637E+02  0.38228929977E+02  0.61258751198E+02  0.24998746367E+00 0.  0.
        -13    1    4    4    0    0  0.24550523365E+02  0.44396013982E+01 -0.19945241910E+02  0.31941539692E+02  0.10500000000E+00 0.  1.
         13    1    4    4    0    0  0.12581799230E+02  0.23436347623E+01 -0.10170654998E+02  0.16347707603E+02  0.10500000000E+00 0. -1.
    3000001    1    5    5    0    0 -0.45500939971E+00 -0.57535811858E+00 -0.51256409948E-01  0.12412484594E+01  0.10000000000E+01 0.  1.
        -13    1    6    6    0    0 -0.15647806944E+02 -0.45430683147E+01  0.12994739668E+02  0.20841487853E+02  0.10500000000E+00 0.  1.
         13    1    6    6    0    0 -0.30362686963E+02 -0.86537293220E+01  0.25234190308E+02  0.40417263345E+02  0.10500000000E+00 0. -1.
</event>
<event>
11    0  0.3510903E-009  0.9118800E+02  0.7816531E-02  0.1126479E+00
         25   -1    0    0    0    0  0.00000000000E+00  0.00000000000E+00  0.99999998245E-14  0.12500000000E+03  0.12500000000E+03 0.  0.
    3000001    1    3    3    0    0 -0.11053367187E+02 -0.28735063283E+02  0.50790061269E+01  0.31219818886E+02  0.10000000000E+01 0. -1.
    1000022    2    1    0    0    0 -0.27841794130E+02 -0.54999198795E+02  0.24845359103E+01  0.62500002181E+02  0.99999992722E+01 0.  0.
    3000022    2    3    3    0    0 -0.16788426943E+02 -0.26264135512E+02 -0.25944702166E+01  0.31280183295E+02  0.24999566454E+00 0.  0.
    1000022    2    1    0    0    0  0.27841794130E+02  0.54999198795E+02 -0.24845359103E+01  0.62499997819E+02  0.99999720106E+01 0.  0.
    3000022    2    5    5    0    0  0.20380767805E+02  0.29828087082E+02 -0.19064708066E+00  0.36127404002E+02  0.24999657908E+00 0.  0.
        -13    1    4    4    0    0 -0.96605448181E+01 -0.15182988664E+02 -0.15510176445E+01  0.18062833435E+02  0.10500000000E+00 0. -1.
         13    1    4    4    0    0 -0.71278821244E+01 -0.11081146848E+02 -0.10434525722E+01  0.13217349860E+02  0.10500000000E+00 0.  1.
    3000001    1    5    5    0    0  0.74610263245E+01  0.25171111713E+02 -0.22938888296E+01  0.26372593817E+02  0.10000000000E+01 0.  1.
        -13    1    6    6    0    0  0.47966870956E+01  0.70225420105E+01 -0.29964681893E-01  0.85050706208E+01  0.10500000000E+00 0. -1.
         13    1    6    6    0    0  0.15584080710E+02  0.22805545072E+02 -0.16068239877E+00  0.27622333381E+02  0.10500000000E+00 0.  1.
</event>
<event>
11    0  0.3510903E-009  0.9118800E+02  0.7816531E-02  0.1126479E+00
         25   -1    0    0    0    0  0.00000000000E+00  0.00000000000E+00  0.99999998245E-14  0.12500000000E+03  0.12500000000E+03 0.  0.
    3000001    1    3    3    0    0  0.26736342346E+02 -0.23306179107E+02  0.22950014398E+02  0.42257699269E+02  0.10000000000E+01 0. -1.
    1000022    2    1    0    0    0  0.39961067127E+02 -0.37790021307E+02  0.27951355734E+02  0.62500005245E+02  0.99999885967E+01 0.  0.
    3000022    2    3    3    0    0  0.13224724781E+02 -0.14483842200E+02  0.50013413354E+01  0.20242305976E+02  0.25001133187E+00 0.  0.
    1000022    2    1    0    0    0 -0.39961067127E+02  0.37790021307E+02 -0.27951355734E+02  0.62499994755E+02  0.99999230341E+01 0.  0.
    3000022    2    5    5    0    0 -0.36224609639E+02  0.29530038934E+02 -0.22454480833E+02  0.51850860656E+02  0.24999684292E+00 0.  0.
        -13    1    4    4    0    0  0.42791742587E+01 -0.46773646837E+01  0.15639884052E+01  0.65304025490E+01  0.10500000000E+00 0.  1.
         13    1    4    4    0    0  0.89455505227E+01 -0.98064775163E+01  0.34373529302E+01  0.13711903427E+02  0.10500000000E+00 0. -1.
    3000001    1    5    5    0    0 -0.37364574880E+01  0.82599823739E+01 -0.54968749005E+01  0.10649134099E+02  0.10000000000E+01 0.  1.
        -13    1    6    6    0    0 -0.14797076097E+02  0.12133721964E+02 -0.92296515324E+01  0.21245662195E+02  0.10500000000E+00 0. -1.
         13    1    6    6    0    0 -0.21427533542E+02  0.17396316969E+02 -0.13224829301E+02  0.30605198461E+02  0.10500000000E+00 0.  1.
</event>
<event>
11    0  0.3510903E-009  0.9118800E+02  0.7816531E-02  0.1126479E+00
         25   -1    0    0    0    0  0.00000000000E+00  0.00000000000E+00  0.99999998245E-14  0.12500000000E+03  0.12500000000E+03 0.  0.
    3000001    1    3    3    0    0  0.21236230275E+02 -0.96373536334E+01 -0.12607839010E+01  0.23376176706E+02  0.10000000000E+01 0.  1.
    1000022    2    1    0    0    0  0.59614209925E+02 -0.14023378513E+02 -0.74659856408E+01  0.62500000151E+02  0.99999953657E+01 0.  0.
    3000022    2    3    3    0    0  0.38377979650E+02 -0.43860248792E+01 -0.62052017398E+01  0.39123823445E+02  0.24999201740E+00 0.  0.
    1000022    2    1    0    0    0 -0.59614209925E+02  0.14023378513E+02  0.74659856408E+01  0.62499999849E+02  0.99999934830E+01 0.  0.
    3000022    2    5    5    0    0 -0.40357553042E+02  0.12729648659E+02  0.84309635306E+01  0.43149967457E+02  0.25000593965E+00 0.  0.
        -13    1    4    4    0    0  0.26297444424E+02 -0.30539587935E+01 -0.42640727408E+01  0.26815584813E+02  0.10500000000E+00 0.  1.
         13    1    4    4    0    0  0.12080535227E+02 -0.13320660857E+01 -0.19411289990E+01  0.12308238632E+02  0.10500000000E+00 0. -1.
    3000001    1    5    5    0    0 -0.19256656883E+02  0.12937298532E+01 -0.96497788977E+00  0.19350032392E+02  0.10000000000E+01 0. -1.
        -13    1    6    6    0    0 -0.30747171826E+02  0.97087449486E+01  0.64387387937E+01  0.32880338897E+02  0.10500000000E+00 0. -1.
         13    1    6    6    0    0 -0.96103812167E+01  0.30209037108E+01  0.19922247368E+01  0.10269628560E+02  0.10500000000E+00 0.  1.
</event>
<event>
11    0  0.3510903E-009  0.9118800E+02  0.7816531E-02  0.1126479E+00
         25   -1    0    0    0    0  0.00000000000E+00  0.00000000000E+00  0.99999998245E-14  0.12500000000E+03  0.12500000000E+03 0.  0.
    3000001    1    3    3    0    0  0.12197923974E+02  0.23480362076E+02 -0.31220480193E+02  0.40936965398E+02  0.10000000000E+01 0.  1.
    1000022    2    1    0    0    0  0.23855977301E+02  0.37315619103E+02 -0.42949818854E+02  0.62499999279E+02  0.99999944154E+01 0.  0.
    3000022    2    3    3    0    0  0.11658053327E+02  0.13835257027E+02 -0.11729338660E+02  0.21563033881E+02  0.25000074516E+00 0.  0.
    1000022    2    1    0    0    0 -0.23855977301E+02 -0.37315619103E+02  0.42949818854E+02  0.62500000721E+02  0.10000003426E+02 0.  0.
    3000022    2    5    5    0    0 -0.19431112989E+02 -0.27705002218E+02  0.26801998003E+02  0.43168795396E+02  0.24999818170E+00 0.  0.
        -13    1    4    4    0    0  0.36278155173E+01  0.43768911845E+01 -0.37071033708E+01  0.67876256725E+01  0.10500000000E+00 0.  1.
         13    1    4    4    0    0  0.80302378099E+01  0.94583658422E+01 -0.80222352896E+01  0.14775408209E+02  0.10500000000E+00 0. -1.
    3000001    1    5    5    0    0 -0.44248643121E+01 -0.96106168846E+01  0.16147820850E+02  0.19331205324E+02  0.10000000000E+01 0. -1.
        -13    1    6    6    0    0 -0.14255731753E+02 -0.20371268610E+02  0.19720358170E+02  0.31735122876E+02  0.10500000000E+00 0.  1.
         13    1    6    6    0    0 -0.51753812358E+01 -0.73337336087E+01  0.70816398336E+01  0.11433672521E+02  0.10500000000E+00 0. -1.
</event>
<event>
11    0  0.3510903E-009  0.9118800E+02  0.7816531E-02  0.1126479E+00
         25   -1    0    0    0    0  0.00000000000E+00  0.00000000000E+00  0.99999998245E-14  0.12500000000E+03  0.12500000000E+03 0.  0.
    3000001    1    3    3    0    0 -0.13240819028E+02  0.16894261166E+02 -0.20271712944E+02  0.29541118709E+02  0.10000000000E+01 0. -1.
    1000022    2    1    0    0    0 -0.36344039090E+02  0.30450260013E+02 -0.39473313758E+02  0.62500000077E+02  0.99999999205E+01 0.  0.
    3000022    2    3    3    0    0 -0.23103220062E+02  0.13555998847E+02 -0.19201600814E+02  0.32958881368E+02  0.25001056092E+00 0.  0.
    1000022    2    1    0    0    0  0.36344039090E+02 -0.30450260013E+02  0.39473313758E+02  0.62499999923E+02  0.99999989578E+01 0.  0.
    3000022    2    5    5    0    0  0.29989726272E+02 -0.28602477270E+02  0.31292850688E+02  0.51930630572E+02  0.24999907617E+00 0.  0.
        -13    1    4    4    0    0 -0.14876526702E+02  0.87693542047E+01 -0.12322567062E+02  0.21214836881E+02  0.10500000000E+00 0. -1.
         13    1    4    4    0    0 -0.82266933602E+01  0.47866446421E+01 -0.68790337514E+01  0.11744044488E+02  0.10500000000E+00 0.  1.
    3000001    1    5    5    0    0  0.63543128176E+01 -0.18477827427E+01  0.81804630696E+01  0.10569369351E+02  0.10000000000E+01 0. -1.
        -13    1    6    6    0    0  0.15605118964E+02 -0.14963584267E+02  0.16281763566E+02  0.27065391957E+02  0.10500000000E+00 0.  1.
         13    1    6    6    0    0  0.14384607308E+02 -0.13638893003E+02  0.15011087122E+02  0.24865238614E+02  0.10500000000E+00 0. -1.
</event>
<event>
11    0  0.3510903E-009  0.9118800E+02  0.7816531E-02  0.1126479E+00
         25   -1    0    0    0    0  0.00000000000E+00  0.00000000000E+00  0.99999998245E-14  0.12500000000E+03  0.12500000000E+03 0.  0.
    3000001    1    3    3    0    0  0.14698764852E+02 -0.51168434189E-01  0.84066589176E+01  0.16962553480E+02  0.10000000000E+01 0.  1.
    1000022    2    1    0    0    0  0.51882269483E+02 -0.16010300426E+02  0.29294201112E+02  0.62499997777E+02  0.99999948445E+01 0.  0.
    3000022    2    3    3    0    0  0.37183504631E+02 -0.15959131991E+02  0.20887542194E+02  0.45537444297E+02  0.25000731971E+00 0.  0.
    1000022    2    1    0    0    0 -0.51882269483E+02  0.16010300426E+02 -0.29294201112E+02  0.62500002223E+02  0.10000022630E+02 0.  0.
    3000022    2    5    5    0    0 -0.22297503329E+02  0.46508273652E+01 -0.73302471097E+01  0.23929141563E+02  0.24988671445E+00 0.  0.
        -13    1    4    4    0    0  0.13395411636E+02 -0.57408269747E+01  0.75879795074E+01  0.16431147411E+02  0.10500000000E+00 0. -1.
         13    1    4    4    0    0  0.23788092995E+02 -0.10218305017E+02  0.13299562687E+02  0.29106296886E+02  0.10500000000E+00 0.  1.
    3000001    1    5    5    0    0 -0.29584766155E+02  0.11359473060E+02 -0.21963954002E+02  0.38570860660E+02  0.10000000000E+01 0.  1.
        -13    1    6    6    0    0 -0.13597633182E+02  0.28042435114E+01 -0.44118317680E+01  0.14568276987E+02  0.10500000000E+00 0. -1.
         13    1    6    6    0    0 -0.86998701471E+01  0.18465838537E+01 -0.29184153417E+01  0.93608645760E+01  0.10500000000E+00 0.  1.
</event>
<event>
11    0  0.3510903E-009  0.9118800E+02  0.7816531E-02  0.1126479E+00
         25   -1    0    0    0    0  0.00000000000E+00  0.00000000000E+00  0.99999998245E-14  0.12500000000E+03  0.12500000000E+03 0.  0.
    3000001    1    3    3    0    0  0.19826261402E+02 -0.24088292741E+02 -0.30413678515E+01  0.31362021726E+02  0.10000000000E+01 0. -1.
    1000022    2    1    0    0    0  0.42220431004E+02 -0.42764696274E+02 -0.13959440295E+02  0.62499999976E+02  0.99999991051E+01 0.  0.
    3000022    2    3    3    0    0  0.22394169602E+02 -0.18676403533E+02 -0.10918072443E+02  0.31137978250E+02  0.25000504085E+00 0.  0.
    1000022    2    1    0    0    0 -0.42220431004E+02  0.42764696274E+02  0.13959440295E+02  0.62500000024E+02  0.99999994054E+01 0.  0.
    3000022    2    5    5    0    0 -0.20693545863E+02  0.26196785465E+02  0.43425838230E+01  0.33666228490E+02  0.24999488735E+00 0.  0.
        -13    1    4    4    0    0  0.11029810638E+02 -0.92706486972E+01 -0.54367158055E+01  0.15400342650E+02  0.10500000000E+00 0.  1.
         13    1    4    4    0    0  0.11364358964E+02 -0.94057548359E+01 -0.54813566375E+01  0.15737635600E+02  0.10500000000E+00 0. -1.
    3000001    1    5    5    0    0 -0.21526885141E+02  0.16567910809E+02  0.96168564715E+01  0.28833771534E+02  0.10000000000E+01 0. -1.
        -13    1    6    6    0    0 -0.12818760528E+02  0.16225615941E+02  0.27511878528E+01  0.20860759664E+02  0.10500000000E+00 0.  1.
         13    1    6    6    0    0 -0.78747853349E+01  0.99711695233E+01  0.15913959703E+01  0.12805468827E+02  0.10500000000E+00 0. -1.
</event>
<event>
11    0  0.3510903E-009  0.9118800E+02  0.7816531E-02  0.1126479E+00
         25   -1    0    0    0    0  0.00000000000E+00  0.00000000000E+00  0.99999998245E-14  0.12500000000E+03  0.12500000000E+03 0.  0.
    3000001    1    3    3    0    0  0.44247254280E+02 -0.83231030181E+01  0.80518747266E+01  0.45748510815E+02  0.10000000000E+01 0.  1.
    1000022    2    1    0    0    0  0.59541860220E+02 -0.67240739262E+01  0.14690254059E+02  0.62500001566E+02  0.10000017139E+02 0.  0.
    3000022    2    3    3    0    0  0.15294605941E+02  0.15990290919E+01  0.66383793328E+01  0.16751490752E+02  0.24999463860E+00 0.  0.
    1000022    2    1    0    0    0 -0.59541860220E+02  0.67240739262E+01 -0.14690254059E+02  0.62499998434E+02  0.99999975620E+01 0.  0.
    3000022    2    5    5    0    0 -0.34158044474E+01  0.63156196055E+00  0.14520786620E+01  0.37732775619E+01  0.25000117252E+00 0.  0.
        -13    1    4    4    0    0  0.60149937514E+01  0.65523515429E+00  0.25504518684E+01  0.65669865745E+01  0.10500000000E+00 0. -1.
         13    1    4    4    0    0  0.92796121893E+01  0.94379393758E+00  0.40879274644E+01  0.10184504177E+02  0.10500000000E+00 0.  1.
    3000001    1    5    5    0    0 -0.56126055773E+02  0.60925119657E+01 -0.16142332721E+02  0.58726720872E+02  0.10000000000E+01 0.  1.
        -13    1    6    6    0    0 -0.21421049298E+01  0.38936195775E+00  0.84454162425E+00  0.23376252522E+01  0.10500000000E+00 0. -1.
         13    1    6    6    0    0 -0.12736995176E+01  0.24220000281E+00  0.60753703771E+00  0.14356523098E+01  0.10500000000E+00 0.  1.
</event>
<event>
11    0  0.3510903E-009  0.9118800E+02  0.7816531E-02  0.1126479E+00
         25   -1    0    0    0    0  0.00000000000E+00  0.00000000000E+00  0.99999998245E-14  0.12500000000E+03  0.12500000000E+03 0.  0.
    3000001    1    3    3    0    0  0.66588583598E+01  0.14251701912E+02  0.33147629635E+01  0.16107111956E+02  0.10000000000E+01 0.  1.
    1000022    2    1    0    0    0  0.97421206460E+01  0.59194992883E+02  0.14397711394E+02  0.62500001009E+02  0.99999967817E+01 0.  0.
    3000022    2    3    3    0    0  0.30832622861E+01  0.44943290971E+02  0.11082948431E+02  0.46392889053E+02  0.24999835909E+00 0.  0.
    1000022    2    1    0    0    0 -0.97421206460E+01 -0.59194992883E+02 -0.14397711394E+02  0.62499998991E+02  0.99999841717E+01 0.  0.
    3000022    2    5    5    0    0 -0.43615571848E+01 -0.10608626682E+02 -0.58018762465E+01  0.12856531891E+02  0.25000630317E+00 0.  0.
        -13    1    4    4    0    0  0.20097906203E+01  0.28483388036E+02  0.70451510647E+01  0.29410675458E+02  0.10500000000E+00 0.  1.
         13    1    4    4    0    0  0.10734716658E+01  0.16459902934E+02  0.40377973661E+01  0.16982213595E+02  0.10500000000E+00 0. -1.
    3000001    1    5    5    0    0 -0.53805634612E+01 -0.48586366201E+02 -0.85958351479E+01  0.49643467100E+02  0.10000000000E+01 0. -1.
        -13    1    6    6    0    0 -0.20703846396E+01 -0.51953917641E+01 -0.28625604239E+01  0.62836188075E+01  0.10500000000E+00 0. -1.
         13    1    6    6    0    0 -0.22911725452E+01 -0.54132349176E+01 -0.29393158226E+01  0.65729130840E+01  0.10500000000E+00 0.  1.
</event>
<event>
11    0  0.3510903E-009  0.9118800E+02  0.7816531E-02  0.1126479E+00
         25   -1    0    0    0    0  0.00000000000E+00  0.00000000000E+00  0.99999998245E-14  0.12500000000E+03  0.12500000000E+03 0.  0.
    3000001    1    3    3    0    0  0.14821209420E+02  0.20821538377E+02  0.38426167372E+02  0.46160318976E+02  0.10000000000E+01 0.  1.
    1000022    2    1    0    0    0  0.22425198067E+02  0.22829095443E+02  0.52746492511E+02  0.62499996673E+02  0.10000000242E+02 0.  0.
    3000022    2    3    3    0    0  0.76039886469E+01  0.20075570666E+01  0.14320325139E+02  0.16339677698E+02  0.24985285703E+00 0.  0.
    1000022    2    1    0    0    0 -0.22425198067E+02 -0.22829095443E+02 -0.52746492511E+02  0.62500003327E+02  0.10000041824E+02 0.  0.
    3000022    2    5    5    0    0  0.98863091137E+00 -0.82175780422E+00 -0.29490718758E+01  0.32267935321E+01  0.24998920495E+00 0.  0.
        -13    1    4    4    0    0  0.37971580980E+01  0.97517775624E+00  0.70089673795E+01  0.80315646050E+01  0.10500000000E+00 0.  1.
         13    1    4    4    0    0  0.38068305489E+01  0.10323793104E+01  0.73113577597E+01  0.83081130925E+01  0.10500000000E+00 0. -1.
    3000001    1    5    5    0    0 -0.23413828979E+02 -0.22007337639E+02 -0.49797420635E+02  0.59273209794E+02  0.10000000000E+01 0.  1.
        -13    1    6    6    0    0  0.29012215476E+00 -0.26336749999E+00 -0.80867810702E+00  0.90472016972E+00  0.10500000000E+00 0.  1.
         13    1    6    6    0    0  0.69850875661E+00 -0.55839030423E+00 -0.21403937687E+01  0.23220733624E+01  0.10500000000E+00 0. -1.
</event>
<event>
11    0  0.3510903E-009  0.9118800E+02  0.7816531E-02  0.1126479E+00
         25   -1    0    0    0    0  0.00000000000E+00  0.00000000000E+00  0.99999998245E-14  0.12500000000E+03  0.12500000000E+03 0.  0.
    3000001    1    3    3    0    0 -0.21058640043E+02 -0.93009065447E+01  0.50678617376E+01  0.23593567039E+02  0.10000000000E+01 0.  1.
    1000022    2    1    0    0    0 -0.57780614012E+02 -0.12793322547E+02  0.17435058097E+02  0.62499998482E+02  0.10000005098E+02 0.  0.
    3000022    2    3    3    0    0 -0.36721973969E+02 -0.34924160021E+01  0.12367196359E+02  0.38906431443E+02  0.25004023371E+00 0.  0.
    1000022    2    1    0    0    0  0.57780614012E+02  0.12793322547E+02 -0.17435058097E+02  0.62500001518E+02  0.10000024076E+02 0.  0.
    3000022    2    5    5    0    0  0.34810094326E+02  0.53790902225E+01 -0.58460803754E+01  0.35705971955E+02  0.24999776014E+00 0.  0.
        -13    1    4    4    0    0 -0.12201609074E+02 -0.11206983295E+01  0.41458166690E+01  0.12935766293E+02  0.10500000000E+00 0. -1.
         13    1    4    4    0    0 -0.24520364895E+02 -0.23717176726E+01  0.82213796901E+01  0.25970665150E+02  0.10500000000E+00 0.  1.
    3000001    1    5    5    0    0  0.22970519686E+02  0.74142323243E+01 -0.11588977721E+02  0.26794029563E+02  0.10000000000E+01 0. -1.
        -13    1    6    6    0    0  0.20093718098E+02  0.30424675114E+01 -0.33524891305E+01  0.20597677635E+02  0.10500000000E+00 0. -1.
         13    1    6    6    0    0  0.14716376228E+02  0.23366227111E+01 -0.24935912450E+01  0.15108294321E+02  0.10500000000E+00 0.  1.
</event>
<event>
11    0  0.3510903E-009  0.9118800E+02  0.7816531E-02  0.1126479E+00
         25   -1    0    0    0    0  0.00000000000E+00  0.00000000000E+00  0.99999998245E-14  0.12500000000E+03  0.12500000000E+03 0.  0.
    3000001    1    3    3    0    0 -0.13020470695E+00 -0.20687966098E-01 -0.59493531190E+00  0.11710376950E+01  0.10000000000E+01 0.  1.
    1000022    2    1    0    0    0 -0.16796883267E+01 -0.50013683808E+02 -0.36084069960E+02  0.62500000847E+02  0.10000004002E+02 0.  0.
    3000022    2    3    3    0    0 -0.15494836198E+01 -0.49992995842E+02 -0.35489134648E+02  0.61328963152E+02  0.25002092309E+00 0.  0.
    1000022    2    1    0    0    0  0.16796883267E+01  0.50013683808E+02  0.36084069960E+02  0.62499999153E+02  0.99999934147E+01 0.  0.
    3000022    2    5    5    0    0 -0.32961980086E+01  0.12634578545E+02  0.12066276392E+02  0.17780748678E+02  0.25000257027E+00 0.  0.
        -13    1    4    4    0    0 -0.39358189468E+00 -0.13596939894E+02 -0.96812827583E+01  0.16696405063E+02  0.10500000000E+00 0.  1.
         13    1    4    4    0    0 -0.11559017251E+01 -0.36396055948E+02 -0.25807851890E+02  0.44632558089E+02  0.10500000000E+00 0. -1.
    3000001    1    5    5    0    0  0.49758863353E+01  0.37379105264E+02  0.24017793569E+02  0.44719250475E+02  0.10000000000E+01 0.  1.
        -13    1    6    6    0    0 -0.17029135774E+01  0.64942562176E+01  0.62956105700E+01  0.92044019861E+01  0.10500000000E+00 0. -1.
         13    1    6    6    0    0 -0.15932844312E+01  0.61403223269E+01  0.57706658217E+01  0.85763466921E+01  0.10500000000E+00 0.  1.
</event>
<event>
11    0  0.3510903E-009  0.9118800E+02  0.7816531E-02  0.1126479E+00
         25   -1    0    0    0    0  0.00000000000E+00  0.00000000000E+00  0.99999998245E-14  0.12500000000E+03  0.12500000000E+03 0.  0.
    3000001    1    3    3    0    0 -0.31378602338E+02 -0.47133953193E+02  0.16995851012E+02  0.59127702306E+02  0.10000000000E+01 0.  1.
    1000022    2    1    0    0    0 -0.34596523378E+02 -0.48047179809E+02  0.17343569663E+02  0.62500001635E+02  0.99999939120E+01 0.  0.
    3000022    2    3    3    0    0 -0.32179210401E+01 -0.91322661547E+00  0.34771865040E+00  0.33722993289E+01  0.24999166367E+00 0.  0.
    1000022    2    1    0    0    0  0.34596523378E+02  0.48047179809E+02 -0.17343569663E+02  0.62499998365E+02  0.99999734789E+01 0.  0.
    3000022    2    5    5    0    0  0.24496113947E+02  0.29176670500E+02 -0.71114283192E+01  0.38755291403E+02  0.24999803847E+00 0.  0.
        -13    1    4    4    0    0 -0.85579925065E+00 -0.22530761229E+00  0.62826583058E-01  0.89338013024E+00  0.10500000000E+00 0.  1.
         13    1    4    4    0    0 -0.23621217895E+01 -0.68791900318E+00  0.28489206735E+00  0.24789191986E+01  0.10500000000E+00 0. -1.
    3000001    1    5    5    0    0  0.10100409431E+02  0.18870509309E+02 -0.10232141344E+02  0.23744706962E+02  0.10000000000E+01 0. -1.
        -13    1    6    6    0    0  0.63412576851E+01  0.75231606793E+01 -0.18121984179E+01  0.10005227821E+02  0.10500000000E+00 0. -1.
         13    1    6    6    0    0  0.18154856262E+02  0.21653509821E+02 -0.52992299013E+01  0.28750063583E+02  0.10500000000E+00 0.  1.
</event>
<event>
11    0  0.3510903E-009  0.9118800E+02  0.7816531E-02  0.1126479E+00
         25   -1    0    0    0    0  0.00000000000E+00  0.00000000000E+00  0.99999998245E-14  0.12500000000E+03  0.12500000000E+03 0.  0.
    3000001    1    3    3    0    0  0.83067377363E+01 -0.13261710733E+00 -0.10828516912E+02  0.13684891582E+02  0.10000000000E+01 0. -1.
    1000022    2    1    0    0    0  0.50131817754E+02 -0.30232569690E+01 -0.35831701517E+02  0.62500000334E+02  0.99999987098E+01 0.  0.
    3000022    2    3    3    0    0  0.41825080017E+02 -0.28906398616E+01 -0.25003184605E+02  0.48815108752E+02  0.24996955935E+00 0.  0.
    1000022    2    1    0    0    0 -0.50131817754E+02  0.30232569690E+01  0.35831701517E+02  0.62499999666E+02  0.99999945314E+01 0.  0.
    3000022    2    5    5    0    0 -0.25611815328E+02 -0.16394287163E+01  0.13528754432E+02  0.29012799045E+02  0.25000203129E+00 0.  0.
        -13    1    4    4    0    0  0.31749392501E+02 -0.21789856757E+01 -0.18963883872E+02  0.37046076976E+02  0.10500000000E+00 0.  1.
         13    1    4    4    0    0  0.10075687516E+02 -0.71165418596E+00 -0.60393007338E+01  0.11769031776E+02  0.10500000000E+00 0. -1.
    3000001    1    5    5    0    0 -0.24520002425E+02  0.46626856852E+01  0.22302947085E+02  0.33487200621E+02  0.10000000000E+01 0. -1.
        -13    1    6    6    0    0 -0.19632774960E+02 -0.12495230652E+01  0.10358089837E+02  0.22233043215E+02  0.10500000000E+00 0.  1.
         13    1    6    6    0    0 -0.59790403685E+01 -0.38990565105E+00  0.31706645953E+01  0.67797558304E+01  0.10500000000E+00 0. -1.
</event>
<event>
11    0  0.3510903E-009  0.9118800E+02  0.7816531E-02  0.1126479E+00
         25   -1    0    0    0    0  0.00000000000E+00  0.00000000000E+00  0.99999998245E-14  0.12500000000E+03  0.12500000000E+03 0.  0.
    3000001    1    3    3    0    0 -0.36821592795E+02 -0.30713469861E+02  0.69494325048E+01  0.48460721610E+02  0.10000000000E+01 0. -1.
    1000022    2    1    0    0    0 -0.46664552551E+02 -0.40185148166E+02  0.37179770196E+01  0.62500000177E+02  0.10000003556E+02 0.  0.
    3000022    2    3    3    0    0 -0.98429597564E+01 -0.94716783044E+01 -0.32314554852E+01  0.14039278567E+02  0.24998289911E+00 0.  0.
    1000022    2    1    0    0    0  0.46664552551E+02  0.40185148166E+02 -0.37179770196E+01  0.62499999823E+02  0.10000001343E+02 0.  0.
    3000022    2    5    5    0    0  0.33637067799E+02  0.22896206178E+02 -0.15401325166E+01  0.40720057658E+02  0.25000010267E+00 0.  0.
        -13    1    4    4    0    0 -0.60631955913E+01 -0.58829989619E+01 -0.20497572758E+01  0.86939373965E+01  0.10500000000E+00 0.  1.
         13    1    4    4    0    0 -0.37797641651E+01 -0.35886793425E+01 -0.11816982094E+01  0.53453411701E+01  0.10500000000E+00 0. -1.
    3000001    1    5    5    0    0  0.13027484752E+02  0.17288941988E+02 -0.21778445030E+01  0.21779942165E+02  0.10000000000E+01 0. -1.
        -13    1    6    6    0    0  0.22379323118E+02  0.15251913837E+02 -0.97356563826E+00  0.27100070737E+02  0.10500000000E+00 0. -1.
         13    1    6    6    0    0  0.11257744682E+02  0.76442923410E+01 -0.56656687833E+00  0.13619986922E+02  0.10500000000E+00 0.  1.
</event>
<event>
11    0  0.3510903E-009  0.9118800E+02  0.7816531E-02  0.1126479E+00
         25   -1    0    0    0    0  0.00000000000E+00  0.00000000000E+00  0.99999998245E-14  0.12500000000E+03  0.12500000000E+03 0.  0.
    3000001    1    3    3    0    0 -0.45847312503E+01 -0.21579176131E+02  0.46248725858E+02  0.51250612159E+02  0.10000000000E+01 0.  1.
    1000022    2    1    0    0    0 -0.10009211040E+02 -0.26175602375E+02  0.54962746142E+02  0.62499999096E+02  0.99999979132E+01 0.  0.
    3000022    2    3    3    0    0 -0.54244797896E+01 -0.45964262442E+01  0.87140202833E+01  0.11249386938E+02  0.24988350556E+00 0.  0.
    1000022    2    1    0    0    0  0.10009211040E+02  0.26175602375E+02 -0.54962746142E+02  0.62500000904E+02  0.10000009207E+02 0.  0.
    3000022    2    5    5    0    0 -0.37250460533E+00  0.63441710454E+01 -0.19877618644E+02  0.20870301651E+02  0.25000421668E+00 0.  0.
        -13    1    4    4    0    0 -0.27615106522E+01 -0.23408668203E+01  0.45437844825E+01  0.58105594374E+01  0.10500000000E+00 0.  1.
         13    1    4    4    0    0 -0.26629691374E+01 -0.22555594239E+01  0.41702358009E+01  0.54388275001E+01  0.10500000000E+00 0. -1.
    3000001    1    5    5    0    0  0.10381715645E+02  0.19831431330E+02 -0.35085127498E+02  0.41629699253E+02  0.10000000000E+01 0.  1.
        -13    1    6    6    0    0 -0.15246032883E+00  0.18601269692E+01 -0.58133308796E+01  0.61064848652E+01  0.10500000000E+00 0.  1.
         13    1    6    6    0    0 -0.22004427649E+00  0.44840440763E+01 -0.14064287765E+02  0.14763816786E+02  0.10500000000E+00 0. -1.
</event>
<event>
11    0  0.3510903E-009  0.9118800E+02  0.7816531E-02  0.1126479E+00
         25   -1    0    0    0    0  0.00000000000E+00  0.00000000000E+00  0.99999998245E-14  0.12500000000E+03  0.12500000000E+03 0.  0.
    3000001    1    3    3    0    0 -0.17844718212E+01 -0.11767120090E+02 -0.41078879135E+00  0.11950656983E+02  0.10000000000E+01 0.  1.
    1000022    2    1    0    0    0 -0.16861028532E+01 -0.58220056838E+02 -0.20342876924E+02  0.62499995681E+02  0.99999428760E+01 0.  0.
    3000022    2    3    3    0    0  0.98368967936E-01 -0.46452936747E+02 -0.19932088133E+02  0.50549338697E+02  0.24999301344E+00 0.  0.
    1000022    2    1    0    0    0  0.16861028532E+01  0.58220056838E+02  0.20342876924E+02  0.62500004319E+02  0.99999968688E+01 0.  0.
    3000022    2    5    5    0    0 -0.20583926258E+01  0.49386472780E+02  0.16411131983E+02  0.52083091534E+02  0.24999386835E+00 0.  0.
        -13    1    4    4    0    0  0.10311629602E+00 -0.25108714875E+02 -0.10725015267E+02  0.27303757491E+02  0.10500000000E+00 0. -1.
         13    1    4    4    0    0 -0.47473280828E-02 -0.21344221872E+02 -0.92070728657E+01  0.23245581206E+02  0.10500000000E+00 0.  1.
    3000001    1    5    5    0    0  0.37444954790E+01  0.88335840573E+01  0.39317449413E+01  0.10416912785E+02  0.10000000000E+01 0. -1.
        -13    1    6    6    0    0 -0.10130832152E+01  0.25164176076E+02  0.84222581440E+01  0.26555744246E+02  0.10500000000E+00 0.  1.
         13    1    6    6    0    0 -0.10453094105E+01  0.24222296704E+02  0.79888738388E+01  0.25527347289E+02  0.10500000000E+00 0. -1.
</event>
<event>
11    0  0.3510903E-009  0.9118800E+02  0.7816531E-02  0.1126479E+00
         25   -1    0    0    0    0  0.00000000000E+00  0.00000000000E+00  0.99999998245E-14  0.12500000000E+03  0.12500000000E+03 0.  0.
    3000001    1    3    3    0    0  0.18763953653E+02  0.14027170321E+02  0.47102986873E+01  0.23917240176E+02  0.10000000000E+01 0.  1.
    1000022    2    1    0    0    0  0.54816556255E+02  0.27732105359E+02  0.56855021506E+01  0.62499994369E+02  0.99999927015E+01 0.  0.
    3000022    2    3    3    0    0  0.36052602603E+02  0.13704935038E+02  0.97520346334E+00  0.38582754193E+02  0.25000099553E+00 0.  0.
    1000022    2    1    0    0    0 -0.54816556255E+02 -0.27732105359E+02 -0.56855021506E+01  0.62500005631E+02  0.10000063091E+02 0.  0.
    3000022    2    5    5    0    0 -0.53731798204E+02 -0.26072260487E+02 -0.42910659043E+01  0.59877747544E+02  0.24999846060E+00 0.  0.
        -13    1    4    4    0    0  0.15535172536E+02  0.58611027859E+01  0.36904957990E+00  0.16608471760E+02  0.10500000000E+00 0. -1.
         13    1    4    4    0    0  0.20517430066E+02  0.78438322521E+01  0.60615388344E+00  0.21974282433E+02  0.10500000000E+00 0.  1.
    3000001    1    5    5    0    0 -0.10847580516E+01 -0.16598448722E+01 -0.13944362464E+01  0.26222580871E+01  0.10000000000E+01 0. -1.
        -13    1    6    6    0    0 -0.37889357249E+02 -0.18336084257E+02 -0.30305574092E+01  0.42202022248E+02  0.10500000000E+00 0.  1.
         13    1    6    6    0    0 -0.15842440955E+02 -0.77361762300E+01 -0.12605084951E+01  0.17675725296E+02  0.10500000000E+00 0. -1.
</event>
<event>
11    0  0.3510903E-009  0.9118800E+02  0.7816531E-02  0.1126479E+00
         25   -1    0    0    0    0  0.00000000000E+00  0.00000000000E+00  0.99999998245E-14  0.12500000000E+03  0.12500000000E+03 0.  0.
    3000001    1    3    3    0    0 -0.22204729956E+02 -0.40120539466E+02  0.37049602162E+01  0.46015589203E+02  0.10000000000E+01 0. -1.
    1000022    2    1    0    0    0 -0.30730489970E+02 -0.53490740569E+02 -0.79196215972E+00  0.62499996195E+02  0.99999989931E+01 0.  0.
    3000022    2    3    3    0    0 -0.85257600141E+01 -0.13370201103E+02 -0.44969223759E+01  0.16484406992E+02  0.25000334990E+00 0.  0.
    1000022    2    1    0    0    0  0.30730489970E+02  0.53490740569E+02  0.79196215972E+00  0.62500003805E+02  0.10000046562E+02 0.  0.
    3000022    2    5    5    0    0  0.11987175818E+02  0.12063340199E+02  0.58668138469E+00  0.17018321042E+02  0.24999038831E+00 0.  0.
        -13    1    4    4    0    0 -0.34801744220E+01 -0.53428987960E+01 -0.18227998525E+01  0.66326318950E+01  0.10500000000E+00 0. -1.
         13    1    4    4    0    0 -0.50455855921E+01 -0.80273023067E+01 -0.26741225234E+01  0.98517750969E+01  0.10500000000E+00 0.  1.
    3000001    1    5    5    0    0  0.18743314152E+02  0.41427400370E+02  0.20528077502E+00  0.45481682764E+02  0.10000000000E+01 0. -1.
        -13    1    6    6    0    0  0.55346994638E+01  0.55447090723E+01  0.33502199606E+00  0.78421911216E+01  0.10500000000E+00 0.  1.
         13    1    6    6    0    0  0.64524763542E+01  0.65186311263E+01  0.25165938864E+00  0.91761299201E+01  0.10500000000E+00 0. -1.
</event>
<event>
11    0  0.3510903E-009  0.9118800E+02  0.7816531E-02  0.1126479E+00
         25   -1    0    0    0    0  0.00000000000E+00  0.00000000000E+00  0.99999998245E-14  0.12500000000E+03  0.12500000000E+03 0.  0.
    3000001    1    3    3    0    0  0.10776764923E+02  0.60212552154E+01 -0.80381004615E+01  0.14765000359E+02  0.10000000000E+01 0. -1.
    1000022    2    1    0    0    0  0.32085559461E+02  0.27207513432E+02 -0.45127795428E+02  0.62500000449E+02  0.10000011142E+02 0.  0.
    3000022    2    3    3    0    0  0.21308794538E+02  0.21186258217E+02 -0.37089694966E+02  0.47735000090E+02  0.24999793125E+00 0.  0.
    1000022    2    1    0    0    0 -0.32085559461E+02 -0.27207513432E+02  0.45127795428E+02  0.62499999551E+02  0.10000005530E+02 0.  0.
    3000022    2    5    5    0    0 -0.83743456779E+01 -0.23305390184E+01  0.70320752960E+01  0.11183633668E+02  0.25000280947E+00 0.  0.
        -13    1    4    4    0    0  0.13158300787E+02  0.13086051851E+02 -0.23002783468E+02  0.29555451357E+02  0.10500000000E+00 0.  1.
         13    1    4    4    0    0  0.81504937514E+01  0.81002063664E+01 -0.14086911498E+02  0.18179548733E+02  0.10500000000E+00 0. -1.
    3000001    1    5    5    0    0 -0.23711213784E+02 -0.24876974414E+02  0.38095720132E+02  0.51316365883E+02  0.10000000000E+01 0. -1.
        -13    1    6    6    0    0 -0.20710506933E+01 -0.56677140843E+00  0.17092145274E+01  0.27464377117E+01  0.10500000000E+00 0. -1.
         13    1    6    6    0    0 -0.63032949846E+01 -0.17637676100E+01  0.53228607686E+01  0.84371959564E+01  0.10500000000E+00 0.  1.
</event>
<event>
11    0  0.3510903E-009  0.9118800E+02  0.7816531E-02  0.1126479E+00
         25   -1    0    0    0    0  0.00000000000E+00  0.00000000000E+00  0.99999998245E-14  0.12500000000E+03  0.12500000000E+03 0.  0.
    3000001    1    3    3    0    0  0.19984019630E+02 -0.31648708273E+02 -0.41771405624E+02  0.56096810103E+02  0.10000000000E+01 0. -1.
    1000022    2    1    0    0    0  0.18952256639E+02 -0.35753000713E+02 -0.46570215201E+02  0.62499999878E+02  0.99999974611E+01 0.  0.
    3000022    2    3    3    0    0 -0.10317629906E+01 -0.41042924394E+01 -0.47988095769E+01  0.64031897751E+01  0.25002928495E+00 0.  0.
    1000022    2    1    0    0    0 -0.18952256639E+02  0.35753000713E+02  0.46570215201E+02  0.62500000122E+02  0.99999989849E+01 0.  0.
    3000022    2    5    5    0    0 -0.42748859117E+01  0.75333518094E+01  0.16891425313E+02  0.18984435493E+02  0.25000574429E+00 0.  0.
        -13    1    4    4    0    0 -0.53483044940E+00 -0.21019319270E+01 -0.23572463390E+01  0.32049643895E+01  0.10500000000E+00 0.  1.
         13    1    4    4    0    0 -0.49693254115E+00 -0.20023605124E+01 -0.24415632379E+01  0.31982253856E+01  0.10500000000E+00 0. -1.
    3000001    1    5    5    0    0 -0.14677370728E+02  0.28219648903E+02  0.29678789888E+02  0.43515564628E+02  0.10000000000E+01 0. -1.
        -13    1    6    6    0    0 -0.29267645956E+01  0.50900720252E+01  0.11362244240E+02  0.12790090046E+02  0.10500000000E+00 0. -1.
         13    1    6    6    0    0 -0.13481213161E+01  0.24432797843E+01  0.55291810727E+01  0.61943454474E+01  0.10500000000E+00 0.  1.
</event>
<event>
11    0  0.3510903E-009  0.9118800E+02  0.7816531E-02  0.1126479E+00
         25   -1    0    0    0    0  0.00000000000E+00  0.00000000000E+00  0.99999998245E-14  0.12500000000E+03  0.12500000000E+03 0.  0.
    3000001    1    3    3    0    0  0.28578829109E+02 -0.70119388496E+00 -0.95304584087E+01  0.30150800712E+02  0.10000000000E+01 0.  1.
    1000022    2    1    0    0    0  0.55313038096E+02 -0.86214438954E+01 -0.25930448991E+02  0.62499996795E+02  0.99999968108E+01 0.  0.
    3000022    2    3    3    0    0  0.26734208988E+02 -0.79202500104E+01 -0.16399990582E+02  0.32349196083E+02  0.25001140663E+00 0.  0.
    1000022    2    1    0    0    0 -0.55313038096E+02  0.86214438954E+01  0.25930448991E+02  0.62500003205E+02  0.10000036873E+02 0.  0.
    3000022    2    5    5    0    0 -0.60254125775E+00  0.30196660957E+00  0.21358073268E+01  0.22535332788E+01  0.24999900133E+00 0.  0.
        -13    1    4    4    0    0  0.87027781362E+01 -0.25305545446E+01 -0.53026498042E+01  0.10501008215E+02  0.10500000000E+00 0.  1.
         13    1    4    4    0    0  0.18031430852E+02 -0.53896954659E+01 -0.11097340778E+02  0.21848187868E+02  0.10500000000E+00 0. -1.
    3000001    1    5    5    0    0 -0.54710496839E+02  0.83194772858E+01  0.23794641664E+02  0.60246469926E+02  0.10000000000E+01 0.  1.
        -13    1    6    6    0    0 -0.22780717810E+00  0.13024066608E+00  0.66801841565E+00  0.72534980881E+00  0.10500000000E+00 0. -1.
         13    1    6    6    0    0 -0.37473407965E+00  0.17172594350E+00  0.14677889112E+01  0.15281834700E+01  0.10500000000E+00 0.  1.
</event>
<event>
11    0  0.3510903E-009  0.9118800E+02  0.7816531E-02  0.1126479E+00
         25   -1    0    0    0    0  0.00000000000E+00  0.00000000000E+00  0.99999998245E-14  0.12500000000E+03  0.12500000000E+03 0.  0.
    3000001    1    3    3    0    0  0.29841649795E+01 -0.12887864480E+02  0.58209947153E+01  0.14487452190E+02  0.10000000000E+01 0.  1.
    1000022    2    1    0    0    0  0.31811770391E+01 -0.60613757490E+02  0.11050011566E+02  0.62500000509E+02  0.99999911783E+01 0.  0.
    3000022    2    3    3    0    0  0.19701205958E+00 -0.47725893010E+02  0.52290168512E+01  0.48012548319E+02  0.25000296674E+00 0.  0.
    1000022    2    1    0    0    0 -0.31811770391E+01  0.60613757490E+02 -0.11050011566E+02  0.62499999491E+02  0.99999848130E+01 0.  0.
    3000022    2    5    5    0    0 -0.71308719744E+00  0.56612201563E+02 -0.92527890501E+01  0.57368340297E+02  0.25000815722E+00 0.  0.
        -13    1    4    4    0    0  0.86182263233E-01 -0.13044158168E+02  0.14478475489E+01  0.13124967703E+02  0.10500000000E+00 0. -1.
         13    1    4    4    0    0  0.11082979635E+00 -0.34681734843E+02  0.37811693022E+01  0.34887580616E+02  0.10500000000E+00 0.  1.
    3000001    1    5    5    0    0 -0.24680898417E+01  0.40015559277E+01 -0.17972225164E+01  0.51316591939E+01  0.10000000000E+01 0. -1.
        -13    1    6    6    0    0 -0.48768714021E+00  0.36383944357E+02 -0.59969866427E+01  0.36878233682E+02  0.10500000000E+00 0. -1.
         13    1    6    6    0    0 -0.22540005724E+00  0.20228257205E+02 -0.32558024074E+01  0.20490106614E+02  0.10500000000E+00 0.  1.
</event>
<event>
11    0  0.3510903E-009  0.9118800E+02  0.7816531E-02  0.1126479E+00
         25   -1    0    0    0    0  0.00000000000E+00  0.00000000000E+00  0.99999998245E-14  0.12500000000E+03  0.12500000000E+03 0.  0.
    3000001    1    3    3    0    0  0.94369326443E+01 -0.11741445035E+02  0.58514428620E+02  0.60430584855E+02  0.10000000000E+01 0. -1.
    1000022    2    1    0    0    0  0.11166985983E+02 -0.11455555152E+02  0.59584551366E+02  0.62499999471E+02  0.99999926322E+01 0.  0.
    3000022    2    3    3    0    0  0.17300533383E+01  0.28588988396E+00  0.10701227462E+01  0.20694146158E+01  0.24999316223E+00 0.  0.
    1000022    2    1    0    0    0 -0.11166985983E+02  0.11455555152E+02 -0.59584551366E+02  0.62500000529E+02  0.99999992440E+01 0.  0.
    3000022    2    5    5    0    0 -0.79101247935E+01  0.12197595833E+02 -0.39001062624E+02  0.41623272386E+02  0.24999990501E+00 0.  0.
        -13    1    4    4    0    0  0.52487926359E+00  0.10037950098E+00  0.38347815414E+00  0.66607415523E+00  0.10500000000E+00 0.  1.
         13    1    4    4    0    0  0.12051740747E+01  0.18551038298E+00  0.68664459204E+00  0.14033404606E+01  0.10500000000E+00 0. -1.
    3000001    1    5    5    0    0 -0.32568611892E+01 -0.74204068112E+00 -0.20583488742E+02  0.20876728143E+02  0.10000000000E+01 0.  1.
        -13    1    6    6    0    0 -0.42586263302E+01  0.64545179590E+01 -0.20663100314E+02  0.22062897359E+02  0.10500000000E+00 0.  1.
         13    1    6    6    0    0 -0.36514984632E+01  0.57430778737E+01 -0.18337962310E+02  0.19560375026E+02  0.10500000000E+00 0. -1.
</event>
<event>
11    0  0.3510903E-009  0.9118800E+02  0.7816531E-02  0.1126479E+00
         25   -1    0    0    0    0  0.00000000000E+00  0.00000000000E+00  0.99999998245E-14  0.12500000000E+03  0.12500000000E+03 0.  0.
    3000001    1    3    3    0    0 -0.25021304974E+02  0.16168784417E+02  0.14323855164E+02  0.33070653439E+02  0.10000000000E+01 0.  1.
    1000022    2    1    0    0    0 -0.50500064614E+02  0.30346282939E+02  0.18305663326E+02  0.62499991838E+02  0.99999127832E+01 0.  0.
    3000022    2    3    3    0    0 -0.25478759641E+02  0.14177498521E+02  0.39818081624E+01  0.29429338399E+02  0.25001041681E+00 0.  0.
    1000022    2    1    0    0    0  0.50500064614E+02 -0.30346282939E+02 -0.18305663326E+02  0.62500008162E+02  0.10000014810E+02 0.  0.
    3000022    2    5    5    0    0  0.36887400455E+02 -0.25204676338E+02 -0.17197061537E+02  0.47872303561E+02  0.25000228247E+00 0.  0.
        -13    1    4    4    0    0 -0.18904702417E+02  0.10519076176E+02  0.29233524901E+01  0.21831073081E+02  0.10500000000E+00 0.  1.
         13    1    4    4    0    0 -0.65740572232E+01  0.36584223454E+01  0.10584556723E+01  0.75982653179E+01  0.10500000000E+00 0. -1.
    3000001    1    5    5    0    0  0.13612664160E+02 -0.51416066007E+01 -0.11086017889E+01  0.14627704601E+02  0.10000000000E+01 0.  1.
        -13    1    6    6    0    0  0.21607806851E+02 -0.14817072202E+02 -0.10135736746E+02  0.28092474614E+02  0.10500000000E+00 0. -1.
         13    1    6    6    0    0  0.15279593604E+02 -0.10387604136E+02 -0.70613247915E+01  0.19779828947E+02  0.10500000000E+00 0.  1.
</event>
<event>
11    0  0.3510903E-009  0.9118800E+02  0.7816531E-02  0.1126479E+00
         25   -1    0    0    0    0  0.00000000000E+00  0.00000000000E+00  0.99999998245E-14  0.12500000000E+03  0.12500000000E+03 0.  0.
    3000001    1    3    3    0    0  0.39422108932E+01  0.10928161271E+01  0.55991822602E+01  0.70061484281E+01  0.10000000000E+01 0. -1.
    1000022    2    1    0    0    0  0.22006261608E+02 -0.12803630750E+02  0.56196455943E+02  0.62500001853E+02  0.10000003039E+02 0.  0.
    3000022    2    3    3    0    0  0.18064050715E+02 -0.13896446877E+02  0.50597273683E+02  0.55493853425E+02  0.24999962735E+00 0.  0.
    1000022    2    1    0    0    0 -0.22006261608E+02  0.12803630750E+02 -0.56196455943E+02  0.62499998147E+02  0.99999798711E+01 0.  0.
    3000022    2    5    5    0    0 -0.18049118712E+02  0.12074977769E+02 -0.37367763524E+02  0.43220227056E+02  0.25000329225E+00 0.  0.
        -13    1    4    4    0    0  0.70952906836E+01 -0.53945750953E+01  0.19700243420E+02  0.21623024907E+02  0.10500000000E+00 0.  1.
         13    1    4    4    0    0  0.10968760032E+02 -0.85018717816E+01  0.30897030263E+02  0.33870828518E+02  0.10500000000E+00 0. -1.
    3000001    1    5    5    0    0 -0.39571428967E+01  0.72865298050E+00 -0.18828692419E+02  0.19279771090E+02  0.10000000000E+01 0.  1.
        -13    1    6    6    0    0 -0.12189059672E+02  0.81313453520E+01 -0.25116527434E+02  0.29078220858E+02  0.10500000000E+00 0.  1.
         13    1    6    6    0    0 -0.58600590396E+01  0.39436324173E+01 -0.12251236089E+02  0.14142006198E+02  0.10500000000E+00 0. -1.
</event>
<event>
11    0  0.3510903E-009  0.9118800E+02  0.7816531E-02  0.1126479E+00
         25   -1    0    0    0    0  0.00000000000E+00  0.00000000000E+00  0.99999998245E-14  0.12500000000E+03  0.12500000000E+03 0.  0.
    3000001    1    3    3    0    0  0.19260574420E+02 -0.62758715423E+01 -0.91305832173E+01  0.22242388372E+02  0.10000000000E+01 0.  1.
    1000022    2    1    0    0    0  0.57491157322E+02 -0.54352286033E+01 -0.21713466630E+02  0.62500003896E+02  0.10000048684E+02 0.  0.
    3000022    2    3    3    0    0  0.38230582901E+02  0.84064293902E+00 -0.12582883413E+02  0.40257615523E+02  0.25000621650E+00 0.  0.
    1000022    2    1    0    0    0 -0.57491157322E+02  0.54352286033E+01  0.21713466630E+02  0.62499996104E+02  0.99999999861E+01 0.  0.
    3000022    2    5    5    0    0 -0.24023290470E+00 -0.38098093858E+00  0.13575255776E+01  0.14519742180E+01  0.24999022360E+00 0.  0.
        -13    1    4    4    0    0  0.12600483040E+02  0.32238281354E+00 -0.41761553758E+01  0.13278832865E+02  0.10500000000E+00 0.  1.
         13    1    4    4    0    0  0.25630099861E+02  0.51826012549E+00 -0.84067280372E+01  0.26978782659E+02  0.10500000000E+00 0. -1.
    3000001    1    5    5    0    0 -0.57250924417E+02  0.58162095419E+01  0.20355941053E+02  0.61048021886E+02  0.10000000000E+01 0.  1.
        -13    1    6    6    0    0 -0.11769069592E+00 -0.19332556054E+00  0.49043031272E+00  0.55024791131E+00  0.10500000000E+00 0. -1.
         13    1    6    6    0    0 -0.12254220878E+00 -0.18765537804E+00  0.86709526489E+00  0.90172630672E+00  0.10500000000E+00 0.  1.
</event>
<event>
11    0  0.3510903E-009  0.9118800E+02  0.7816531E-02  0.1126479E+00
         25   -1    0    0    0    0  0.00000000000E+00  0.00000000000E+00  0.99999998245E-14  0.12500000000E+03  0.12500000000E+03 0.  0.
    3000001    1    3    3    0    0 -0.44329821989E+01 -0.23595072180E+01 -0.89572582240E+01  0.10317513285E+02  0.10000000000E+01 0. -1.
    1000022    2    1    0    0    0 -0.68535757162E+01 -0.85411949173E+01 -0.60715126336E+02  0.62500000268E+02  0.99999978365E+01 0.  0.
    3000022    2    3    3    0    0 -0.24205935173E+01 -0.61816876993E+01 -0.51757868112E+02  0.52182486983E+02  0.25000086265E+00 0.  0.
    1000022    2    1    0    0    0  0.68535757162E+01  0.85411949173E+01  0.60715126336E+02  0.62499999732E+02  0.99999944919E+01 0.  0.
    3000022    2    5    5    0    0  0.79305601109E+01  0.22234693872E+01  0.37577912628E+02  0.38470763177E+02  0.25000432631E+00 0.  0.
        -13    1    4    4    0    0 -0.16425139766E+01 -0.43112679741E+01 -0.36114213067E+02  0.36407860334E+02  0.10500000000E+00 0. -1.
         13    1    4    4    0    0 -0.77807954067E+00 -0.18704197252E+01 -0.15643655045E+02  0.15774626649E+02  0.10500000000E+00 0.  1.
    3000001    1    5    5    0    0 -0.10769843947E+01  0.63177255301E+01  0.23137213708E+02  0.24029236555E+02  0.10000000000E+01 0.  1.
        -13    1    6    6    0    0  0.26347912884E+01  0.75923316238E+00  0.12747535599E+02  0.13039526410E+02  0.10500000000E+00 0. -1.
         13    1    6    6    0    0  0.52957688225E+01  0.14642362248E+01  0.24830377028E+02  0.25431236767E+02  0.10500000000E+00 0.  1.
</event>
<event>
11    0  0.3510903E-009  0.9118800E+02  0.7816531E-02  0.1126479E+00
         25   -1    0    0    0    0  0.00000000000E+00  0.00000000000E+00  0.99999998245E-14  0.12500000000E+03  0.12500000000E+03 0.  0.
    3000001    1    3    3    0    0 -0.21461357542E+02 -0.13773856454E+02  0.13771941606E+02  0.28999575251E+02  0.10000000000E+01 0. -1.
    1000022    2    1    0    0    0 -0.37991977576E+02 -0.33742640600E+02  0.34989911183E+02  0.62499999998E+02  0.99999980178E+01 0.  0.
    3000022    2    3    3    0    0 -0.16530620034E+02 -0.19968784146E+02  0.21217969577E+02  0.33500424747E+02  0.24997250030E+00 0.  0.
    1000022    2    1    0    0    0  0.37991977576E+02  0.33742640600E+02 -0.34989911183E+02  0.62500000002E+02  0.99999980414E+01 0.  0.
    3000022    2    5    5    0    0  0.12921498208E+02  0.12713158026E+02 -0.18276438245E+02  0.25742575572E+02  0.24999842692E+00 0.  0.
        -13    1    4    4    0    0 -0.83621157506E+01 -0.99968744088E+01  0.10651072427E+02  0.16832077905E+02  0.10500000000E+00 0.  1.
         13    1    4    4    0    0 -0.81685042834E+01 -0.99719097372E+01  0.10566897151E+02  0.16668346841E+02  0.10500000000E+00 0. -1.
    3000001    1    5    5    0    0  0.25070479368E+02  0.21029482574E+02 -0.16713472938E+02  0.36757424430E+02  0.10000000000E+01 0. -1.
        -13    1    6    6    0    0  0.66876206827E+01  0.65777965972E+01 -0.93615541684E+01  0.13252977021E+02  0.10500000000E+00 0.  1.
         13    1    6    6    0    0  0.62338775258E+01  0.61353614288E+01 -0.89148840770E+01  0.12489598551E+02  0.10500000000E+00 0. -1.
</event>
<event>
11    0  0.3510903E-009  0.9118800E+02  0.7816531E-02  0.1126479E+00
         25   -1    0    0    0    0  0.00000000000E+00  0.00000000000E+00  0.99999998245E-14  0.12500000000E+03  0.12500000000E+03 0.  0.
    3000001    1    3    3    0    0 -0.12809188044E+02 -0.60925035879E+01 -0.63022736605E+01  0.15553538235E+02  0.10000000000E+01 0.  1.
    1000022    2    1    0    0    0 -0.47414151574E+02 -0.13049949693E+02 -0.37253818147E+02  0.62499998821E+02  0.99999964870E+01 0.  0.
    3000022    2    3    3    0    0 -0.34604963529E+02 -0.69574461049E+01 -0.30951544486E+02  0.46946460587E+02  0.24999676746E+00 0.  0.
    1000022    2    1    0    0    0  0.47414151574E+02  0.13049949693E+02  0.37253818147E+02  0.62500001179E+02  0.10000011220E+02 0.  0.
    3000022    2    5    5    0    0  0.39095949069E+02  0.13832517758E+02  0.28267629745E+02  0.50189173113E+02  0.24985029426E+00 0.  0.
        -13    1    4    4    0    0 -0.20800823251E+02 -0.41460454032E+01 -0.18667700200E+02  0.28255229537E+02  0.10500000000E+00 0. -1.
         13    1    4    4    0    0 -0.13804140278E+02 -0.28114007017E+01 -0.12283844286E+02  0.18691231050E+02  0.10500000000E+00 0.  1.
    3000001    1    5    5    0    0  0.83182025041E+01 -0.78256806534E+00  0.89861884017E+01  0.12310828066E+02  0.10000000000E+01 0.  1.
        -13    1    6    6    0    0  0.15075782187E+02  0.52952022910E+01  0.10831982988E+02  0.19304436182E+02  0.10500000000E+00 0. -1.
         13    1    6    6    0    0  0.24020166883E+02  0.85373154672E+01  0.17435646757E+02  0.30884736931E+02  0.10500000000E+00 0.  1.
</event>
<event>
11    0  0.3510903E-009  0.9118800E+02  0.7816531E-02  0.1126479E+00
         25   -1    0    0    0    0  0.00000000000E+00  0.00000000000E+00  0.99999998245E-14  0.12500000000E+03  0.12500000000E+03 0.  0.
    3000001    1    3    3    0    0  0.10930140892E+02  0.90302027261E+01 -0.88504616869E+01  0.16743452847E+02  0.10000000000E+01 0. -1.
    1000022    2    1    0    0    0  0.38493002044E+02  0.21323123240E+02 -0.43241911557E+02  0.62499999219E+02  0.10000009811E+02 0.  0.
    3000022    2    3    3    0    0  0.27562861152E+02  0.12292920514E+02 -0.34391449870E+02  0.45756546372E+02  0.25000406172E+00 0.  0.
    1000022    2    1    0    0    0 -0.38493002044E+02 -0.21323123240E+02  0.43241911557E+02  0.62500000781E+02  0.10000019570E+02 0.  0.
    3000022    2    5    5    0    0 -0.23243739544E+02 -0.10651435031E+02  0.31069681738E+02  0.40238192345E+02  0.25000748316E+00 0.  0.
        -13    1    4    4    0    0  0.13355113881E+02  0.59978657735E+01 -0.16768159479E+02  0.22260180995E+02  0.10500000000E+00 0.  1.
         13    1    4    4    0    0  0.14207747271E+02  0.62950547407E+01 -0.17623290391E+02  0.23496365377E+02  0.10500000000E+00 0. -1.
    3000001    1    5    5    0    0 -0.15249262500E+02 -0.10671688209E+02  0.12172229819E+02  0.22261808435E+02  0.10000000000E+01 0.  1.
        -13    1    6    6    0    0 -0.88751542049E+01 -0.40020109578E+01  0.11807532392E+02  0.15304028884E+02  0.10500000000E+00 0. -1.
         13    1    6    6    0    0 -0.14368585339E+02 -0.66494240733E+01  0.19262149345E+02  0.24934163462E+02  0.10500000000E+00 0.  1.
</event>
<event>
11    0  0.3510903E-009  0.9118800E+02  0.7816531E-02  0.1126479E+00
         25   -1    0    0    0    0  0.00000000000E+00  0.00000000000E+00  0.99999998245E-14  0.12500000000E+03  0.12500000000E+03 0.  0.
    3000001    1    3    3    0    0  0.26227968621E+02 -0.42040872214E+02 -0.30918643681E+02  0.58414927900E+02  0.10000000000E+01 0.  1.
    1000022    2    1    0    0    0  0.28725509767E+02 -0.45244113751E+02 -0.30562482598E+02  0.62499999682E+02  0.99999938615E+01 0.  0.
    3000022    2    3    3    0    0  0.24975411456E+01 -0.32032415374E+01  0.35616108375E+00  0.40850717818E+01  0.24998524802E+00 0.  0.
    1000022    2    1    0    0    0 -0.28725509767E+02  0.45244113751E+02  0.30562482598E+02  0.62500000318E+02  0.99999978370E+01 0.  0.
    3000022    2    5    5    0    0 -0.12809630308E+02  0.11890787533E+02  0.11285843992E+02  0.20806495012E+02  0.25000658196E+00 0.  0.
        -13    1    4    4    0    0  0.88476844442E+00 -0.10494322053E+01  0.10612335027E+00  0.13807281844E+01  0.10500000000E+00 0.  1.
         13    1    4    4    0    0  0.16127727012E+01 -0.21538093321E+01  0.25003773348E+00  0.27043435974E+01  0.10500000000E+00 0. -1.
    3000001    1    5    5    0    0 -0.15915879459E+02  0.33353326218E+02  0.19276638606E+02  0.41693505306E+02  0.10000000000E+01 0.  1.
        -13    1    6    6    0    0 -0.64019306002E+01  0.60320094179E+01  0.57008039274E+01  0.10482368217E+02  0.10500000000E+00 0.  1.
         13    1    6    6    0    0 -0.64076997082E+01  0.58587781147E+01  0.55850400646E+01  0.10324126795E+02  0.10500000000E+00 0. -1.
</event>
<event>
11    0  0.3510903E-009  0.9118800E+02  0.7816531E-02  0.1126479E+00
         25   -1    0    0    0    0  0.00000000000E+00  0.00000000000E+00  0.99999998245E-14  0.12500000000E+03  0.12500000000E+03 0.  0.
    3000001    1    3    3    0    0 -0.37885409183E+02 -0.30361028459E+02  0.24448581633E+02  0.54367540150E+02  0.10000000000E+01 0. -1.
    1000022    2    1    0    0    0 -0.45214641611E+02 -0.33857587631E+02  0.24810281172E+02  0.62499999839E+02  0.99999935925E+01 0.  0.
    3000022    2    3    3    0    0 -0.73292324274E+01 -0.34965591722E+01  0.36169953920E+00  0.81324596893E+01  0.25000004272E+00 0.  0.
    1000022    2    1    0    0    0  0.45214641611E+02  0.33857587631E+02 -0.24810281172E+02  0.62500000161E+02  0.99999956068E+01 0.  0.
    3000022    2    5    5    0    0  0.54079508431E+01  0.87009593311E+01 -0.38596220911E+01  0.10950425059E+02  0.25000136735E+00 0.  0.
        -13    1    4    4    0    0 -0.38266634150E+01 -0.18810912626E+01  0.14456657954E+00  0.42677607391E+01  0.10500000000E+00 0.  1.
         13    1    4    4    0    0 -0.35025690124E+01 -0.16154679096E+01  0.21713295966E+00  0.38646989502E+01  0.10500000000E+00 0. -1.
    3000001    1    5    5    0    0  0.39806690768E+02  0.25156628300E+02 -0.20950659081E+02  0.51549575102E+02  0.10000000000E+01 0. -1.
        -13    1    6    6    0    0  0.30817012015E+01  0.50404614810E+01 -0.22773113202E+01  0.63324802476E+01  0.10500000000E+00 0. -1.
         13    1    6    6    0    0  0.23262496416E+01  0.36604978501E+01 -0.15823107709E+01  0.46179448114E+01  0.10500000000E+00 0.  1.
</event>
<event>
11    0  0.3510903E-009  0.9118800E+02  0.7816531E-02  0.1126479E+00
         25   -1    0    0    0    0  0.00000000000E+00  0.00000000000E+00  0.99999998245E-14  0.12500000000E+03  0.12500000000E+03 0.  0.
    3000001    1    3    3    0    0 -0.20382872683E+02 -0.18190136516E+02  0.55493027732E+02  0.61861285892E+02  0.10000000000E+01 0.  1.
    1000022    2    1    0    0    0 -0.20585452225E+02 -0.18586533838E+02  0.55109253377E+02  0.62499999010E+02  0.99999992539E+01 0.  0.
    3000022    2    3    3    0    0 -0.20257954221E+00 -0.39639732194E+00 -0.38377435507E+00  0.63871311865E+00  0.25000476909E+00 0.  0.
    1000022    2    1    0    0    0  0.20585452225E+02  0.18586533838E+02 -0.55109253377E+02  0.62500000990E+02  0.10000011624E+02 0.  0.
    3000022    2    5    5    0    0  0.37259757995E+01  0.96863866408E+01 -0.18619236593E+02  0.21317773143E+02  0.24999732920E+00 0.  0.
        -13    1    4    4    0    0 -0.48671728708E-01 -0.73675250283E-01 -0.88428249365E-01  0.16322234824E+00  0.10500000000E+00 0. -1.
         13    1    4    4    0    0 -0.15390781350E+00 -0.32272207166E+00 -0.29534610571E+00  0.47549077041E+00  0.10500000000E+00 0.  1.
    3000001    1    5    5    0    0  0.16859476426E+02  0.89001471972E+01 -0.36490016785E+02  0.41182227847E+02  0.10000000000E+01 0.  1.
        -13    1    6    6    0    0  0.26258310575E+01  0.67603679960E+01 -0.12927663758E+02  0.14823396352E+02  0.10500000000E+00 0. -1.
         13    1    6    6    0    0  0.11001447420E+01  0.29260186448E+01 -0.56915728347E+01  0.64943767904E+01  0.10500000000E+00 0.  1.
</event>
<event>
11    0  0.3510903E-009  0.9118800E+02  0.7816531E-02  0.1126479E+00
         25   -1    0    0    0    0  0.00000000000E+00  0.00000000000E+00  0.99999998245E-14  0.12500000000E+03  0.12500000000E+03 0.  0.
    3000001    1    3    3    0    0  0.52351624172E+01  0.24678072681E+02 -0.35916016451E+01  0.25501250933E+02  0.10000000000E+01 0. -1.
    1000022    2    1    0    0    0  0.98230936420E+00  0.60919751013E+02 -0.96989007719E+01  0.62500002403E+02  0.10000031450E+02 0.  0.
    3000022    2    3    3    0    0 -0.42528530530E+01  0.36241678333E+02 -0.61072991268E+01  0.36998751470E+02  0.25000053994E+00 0.  0.
    1000022    2    1    0    0    0 -0.98230936420E+00 -0.60919751013E+02  0.96989007719E+01  0.62499997597E+02  0.10000001412E+02 0.  0.
    3000022    2    5    5    0    0 -0.53135660259E+01 -0.39488250288E+02  0.68054125661E+01  0.40421925181E+02  0.25000084716E+00 0.  0.
        -13    1    4    4    0    0 -0.23852891259E+01  0.20532228113E+02 -0.35216131412E+01  0.20968423393E+02  0.10500000000E+00 0.  1.
         13    1    4    4    0    0 -0.18675639271E+01  0.15709450220E+02 -0.25856859856E+01  0.16030328077E+02  0.10500000000E+00 0. -1.
    3000001    1    5    5    0    0  0.43312566617E+01 -0.21431500725E+02  0.28934882058E+01  0.22078072416E+02  0.10000000000E+01 0. -1.
        -13    1    6    6    0    0 -0.19496627801E+01 -0.14691803173E+02  0.24772921899E+01  0.15026585341E+02  0.10500000000E+00 0.  1.
         13    1    6    6    0    0 -0.33639032459E+01 -0.24796447116E+02  0.43281203762E+01  0.25395339840E+02  0.10500000000E+00 0. -1.
</event>
<event>
11    0  0.3510903E-009  0.9118800E+02  0.7816531E-02  0.1126479E+00
         25   -1    0    0    0    0  0.00000000000E+00  0.00000000000E+00  0.99999998245E-14  0.12500000000E+03  0.12500000000E+03 0.  0.
    3000001    1    3    3    0    0 -0.22831451477E+02 -0.41697044072E+02 -0.13315888345E+02  0.49378452217E+02  0.10000000000E+01 0. -1.
    1000022    2    1    0    0    0 -0.24781521970E+02 -0.52883188283E+02 -0.19887033967E+02  0.62500001129E+02  0.10000029353E+02 0.  0.
    3000022    2    3    3    0    0 -0.19500704937E+01 -0.11186144210E+02 -0.65711456215E+01  0.13121548912E+02  0.24998771670E+00 0.  0.
    1000022    2    1    0    0    0  0.24781521970E+02  0.52883188283E+02  0.19887033967E+02  0.62499998871E+02  0.10000015240E+02 0.  0.
    3000022    2    5    5    0    0  0.58304000944E+00 -0.29844180402E+00 -0.16213606512E+00  0.71956890461E+00  0.24997628264E+00 0.  0.
        -13    1    4    4    0    0 -0.65015439091E+00 -0.40519731808E+01 -0.23961315884E+01  0.47532787609E+01  0.10500000000E+00 0.  1.
         13    1    4    4    0    0 -0.12999161028E+01 -0.71341710293E+01 -0.41750140331E+01  0.83682701514E+01  0.10500000000E+00 0. -1.
    3000001    1    5    5    0    0  0.24198481961E+02  0.53181630087E+02  0.20049170032E+02  0.61780429966E+02  0.10000000000E+01 0. -1.
        -13    1    6    6    0    0  0.16212997116E+00 -0.12902625262E+00 -0.22544413543E-01  0.23338198730E+00  0.10500000000E+00 0. -1.
         13    1    6    6    0    0  0.42091003828E+00 -0.16941555140E+00 -0.13959165158E+00  0.48618691732E+00  0.10500000000E+00 0.  1.
</event>
<event>
11    0  0.3510903E-009  0.9118800E+02  0.7816531E-02  0.1126479E+00
         25   -1    0    0    0    0  0.00000000000E+00  0.00000000000E+00  0.99999998245E-14  0.12500000000E+03  0.12500000000E+03 0.  0.
    3000001    1    3    3    0    0  0.57571837862E+00  0.41872540913E+02  0.19048938424E+02  0.46016336113E+02  0.10000000000E+01 0. -1.
    1000022    2    1    0    0    0  0.11981287057E+01  0.58307261638E+02  0.20126540820E+02  0.62499999806E+02  0.10000002914E+02 0.  0.
    3000022    2    3    3    0    0  0.62241032713E+00  0.16434720725E+02  0.10776023955E+01  0.16483663693E+02  0.25000380866E+00 0.  0.
    1000022    2    1    0    0    0 -0.11981287057E+01 -0.58307261638E+02 -0.20126540820E+02  0.62500000194E+02  0.10000005337E+02 0.  0.
    3000022    2    5    5    0    0  0.42380078323E+01 -0.18812773730E+02 -0.61628972786E+01  0.20246603922E+02  0.25000339740E+00 0.  0.
        -13    1    4    4    0    0  0.26468696174E+00  0.83396332259E+01  0.59133489192E+00  0.83654195044E+01  0.10500000000E+00 0.  1.
         13    1    4    4    0    0  0.35772336538E+00  0.80950874989E+01  0.48626750362E+00  0.81182441886E+01  0.10500000000E+00 0. -1.
    3000001    1    5    5    0    0 -0.54361365380E+01 -0.39494487908E+02 -0.13963643541E+02  0.42253396272E+02  0.10000000000E+01 0. -1.
        -13    1    6    6    0    0  0.21908881545E+01 -0.97270418433E+01 -0.32575139441E+01  0.10489888275E+02  0.10500000000E+00 0. -1.
         13    1    6    6    0    0  0.20471196778E+01 -0.90857318864E+01 -0.29053833345E+01  0.97567156465E+01  0.10500000000E+00 0.  1.
</event>
<event>
11    0  0.3510903E-009  0.9118800E+02  0.7816531E-02  0.1126479E+00
         25   -1    0    0    0    0  0.00000000000E+00  0.00000000000E+00  0.99999998245E-14  0.12500000000E+03  0.12500000000E+03 0.  0.
    3000001    1    3    3    0    0  0.23821702265E+02  0.25656106339E+01 -0.40941355308E+02  0.47447343773E+02  0.10000000000E+01 0.  1.
    1000022    2    1    0    0    0  0.29484101980E+02  0.86190073987E+01 -0.53503739546E+02  0.62499997051E+02  0.99999963893E+01 0.  0.
    3000022    2    3    3    0    0  0.56623997156E+01  0.60533967647E+01 -0.12562384239E+02  0.15052653277E+02  0.24998000365E+00 0.  0.
    1000022    2    1    0    0    0 -0.29484101980E+02 -0.86190073987E+01  0.53503739546E+02  0.62500002949E+02  0.10000033254E+02 0.  0.
    3000022    2    5    5    0    0 -0.26073720418E+02 -0.10524156815E+02  0.48632209374E+02  0.56176071978E+02  0.25000255033E+00 0.  0.
        -13    1    4    4    0    0  0.34979289647E+01  0.36971054035E+01 -0.76136208896E+01  0.91587304501E+01  0.10500000000E+00 0.  1.
         13    1    4    4    0    0  0.21644707509E+01  0.23562913613E+01 -0.49487633490E+01  0.58939228274E+01  0.10500000000E+00 0. -1.
    3000001    1    5    5    0    0 -0.34103815621E+01  0.19051494161E+01  0.48715301729E+01  0.63239309707E+01  0.10000000000E+01 0. -1.
        -13    1    6    6    0    0 -0.16062237987E+02 -0.64891582246E+01  0.30084355232E+02  0.34715761814E+02  0.10500000000E+00 0.  1.
         13    1    6    6    0    0 -0.10011482431E+02 -0.40349985901E+01  0.18547854142E+02  0.21460310165E+02  0.10500000000E+00 0. -1.
</event>
<event>
11    0  0.3510903E-009  0.9118800E+02  0.7816531E-02  0.1126479E+00
         25   -1    0    0    0    0  0.00000000000E+00  0.00000000000E+00  0.99999998245E-14  0.12500000000E+03  0.12500000000E+03 0.  0.
    3000001    1    3    3    0    0  0.26572407240E+01  0.13003919002E+01  0.52713372757E+01  0.61269032989E+01  0.10000000000E+01 0. -1.
    1000022    2    1    0    0    0  0.16507272914E+02  0.38570274873E+02  0.45233773745E+02  0.62500003259E+02  0.99999978681E+01 0.  0.
    3000022    2    3    3    0    0  0.13850032190E+02  0.37269882972E+02  0.39962436469E+02  0.56373099960E+02  0.25000423761E+00 0.  0.
    1000022    2    1    0    0    0 -0.16507272914E+02 -0.38570274873E+02 -0.45233773745E+02  0.62499996741E+02  0.99999571336E+01 0.  0.
    3000022    2    5    5    0    0 -0.79413004662E+00 -0.34113829956E-01  0.22230515845E+00  0.86239721048E+00  0.25000616160E+00 0.  0.
        -13    1    4    4    0    0  0.10278322659E+02  0.27669365960E+02  0.29623658100E+02  0.41818774175E+02  0.10500000000E+00 0. -1.
         13    1    4    4    0    0  0.35717095315E+01  0.96005170124E+01  0.10338778369E+02  0.14554325785E+02  0.10500000000E+00 0.  1.
    3000001    1    5    5    0    0 -0.15713142868E+02 -0.38536161043E+02 -0.45456078903E+02  0.61637599531E+02  0.10000000000E+01 0.  1.
        -13    1    6    6    0    0 -0.60287684144E+00 -0.11423595060E-02  0.14837849039E+00  0.62968481587E+00  0.10500000000E+00 0. -1.
         13    1    6    6    0    0 -0.19125320518E+00 -0.32971470450E-01  0.73926668060E-01  0.23271239461E+00  0.10500000000E+00 0.  1.
</event>
<event>
11    0  0.3510903E-009  0.9118800E+02  0.7816531E-02  0.1126479E+00
         25   -1    0    0    0    0  0.00000000000E+00  0.00000000000E+00  0.99999998245E-14  0.12500000000E+03  0.12500000000E+03 0.  0.
    3000001    1    3    3    0    0 -0.31031255767E+01 -0.79592320469E+01  0.53374150892E+01  0.10122586772E+02  0.10000000000E+01 0.  1.
    1000022    2    1    0    0    0 -0.21923866679E+02 -0.56336138991E+02  0.12322076249E+02  0.62499999963E+02  0.99999972893E+01 0.  0.
    3000022    2    3    3    0    0 -0.18820741102E+02 -0.48376906944E+02  0.69846611593E+01  0.52377413191E+02  0.25000001296E+00 0.  0.
    1000022    2    1    0    0    0  0.21923866679E+02  0.56336138991E+02 -0.12322076249E+02  0.62500000037E+02  0.99999977509E+01 0.  0.
    3000022    2    5    5    0    0  0.10269576213E+01  0.12400667337E+02 -0.43807026482E+01  0.13194098846E+02  0.24999261779E+00 0.  0.
        -13    1    4    4    0    0 -0.11004251420E+02 -0.28173732741E+02  0.41206269617E+01  0.30526109438E+02  0.10500000000E+00 0. -1.
         13    1    4    4    0    0 -0.78164896821E+01 -0.20203174203E+02  0.28640341976E+01  0.21851303753E+02  0.10500000000E+00 0.  1.
    3000001    1    5    5    0    0  0.20896909057E+02  0.43935471654E+02 -0.79413736004E+01  0.49305901191E+02  0.10000000000E+01 0.  1.
        -13    1    6    6    0    0  0.42873978473E+00  0.58657350316E+01 -0.21090888380E+01  0.62489955985E+01  0.10500000000E+00 0. -1.
         13    1    6    6    0    0  0.59821783661E+00  0.65349323056E+01 -0.22716138101E+01  0.69451032477E+01  0.10500000000E+00 0.  1.
</event>
<event>
11    0  0.3510903E-009  0.9118800E+02  0.7816531E-02  0.1126479E+00
         25   -1    0    0    0    0  0.00000000000E+00  0.00000000000E+00  0.99999998245E-14  0.12500000000E+03  0.12500000000E+03 0.  0.
    3000001    1    3    3    0    0 -0.25749456103E+02  0.50786253662E+01 -0.46866885297E+01  0.26679429802E+02  0.10000000000E+01 0. -1.
    1000022    2    1    0    0    0 -0.59907883919E+02  0.14740607348E+02  0.98563561895E-01  0.62499999666E+02  0.10000009142E+02 0.  0.
    3000022    2    3    3    0    0 -0.34158427816E+02  0.96619819819E+01  0.47852520916E+01  0.35820569863E+02  0.25000219492E+00 0.  0.
    1000022    2    1    0    0    0  0.59907883919E+02 -0.14740607348E+02 -0.98563561895E-01  0.62500000334E+02  0.10000013321E+02 0.  0.
    3000022    2    5    5    0    0  0.70421666947E+01 -0.11494188636E+01 -0.31869406761E+01  0.78187189374E+01  0.24999893680E+00 0.  0.
        -13    1    4    4    0    0 -0.21892600776E+02  0.61634195319E+01  0.30145757708E+01  0.22942807177E+02  0.10500000000E+00 0.  1.
         13    1    4    4    0    0 -0.12265827039E+02  0.34985624501E+01  0.17706763209E+01  0.12877762686E+02  0.10500000000E+00 0. -1.
    3000001    1    5    5    0    0  0.52865717224E+02 -0.13591188485E+02  0.30883771142E+01  0.54681281397E+02  0.10000000000E+01 0.  1.
        -13    1    6    6    0    0  0.31225579015E+01 -0.46821933805E+00 -0.14674771605E+01  0.34834051463E+01  0.10500000000E+00 0. -1.
         13    1    6    6    0    0  0.39196087932E+01 -0.68119952559E+00 -0.17194635156E+01  0.43353137911E+01  0.10500000000E+00 0.  1.
</event>
<event>
11    0  0.3510903E-009  0.9118800E+02  0.7816531E-02  0.1126479E+00
         25   -1    0    0    0    0  0.00000000000E+00  0.00000000000E+00  0.99999998245E-14  0.12500000000E+03  0.12500000000E+03 0.  0.
    3000001    1    3    3    0    0  0.30773415326E+02  0.17240934354E+02 -0.22036695064E+02  0.41603711824E+02  0.10000000000E+01 0. -1.
    1000022    2    1    0    0    0  0.49830739674E+02  0.23918113264E+02 -0.27405677840E+02  0.62499998677E+02  0.99999949137E+01 0.  0.
    3000022    2    3    3    0    0  0.19057324348E+02  0.66771789101E+01 -0.53689827756E+01  0.20896286853E+02  0.24999739762E+00 0.  0.
    1000022    2    1    0    0    0 -0.49830739674E+02 -0.23918113264E+02  0.27405677840E+02  0.62500001323E+02  0.10000011446E+02 0.  0.
    3000022    2    5    5    0    0 -0.11756426712E+02 -0.80809846956E+01  0.11368015420E+02  0.18243085878E+02  0.25005013283E+00 0.  0.
        -13    1    4    4    0    0  0.80444834397E+01  0.27516175225E+01 -0.22452896449E+01  0.87941721266E+01  0.10500000000E+00 0. -1.
         13    1    4    4    0    0  0.11012840909E+02  0.39255613876E+01 -0.31236931308E+01  0.12102114727E+02  0.10500000000E+00 0.  1.
    3000001    1    5    5    0    0 -0.38074312962E+02 -0.15837128568E+02  0.16037662420E+02  0.44256915445E+02  0.10000000000E+01 0. -1.
        -13    1    6    6    0    0 -0.59656364890E+01 -0.40185050378E+01  0.57384692980E+01  0.92020789141E+01  0.10500000000E+00 0.  1.
         13    1    6    6    0    0 -0.57907902233E+01 -0.40624796578E+01  0.56295461221E+01  0.90410069638E+01  0.10500000000E+00 0. -1.
</event>
<event>
11    0  0.3510903E-009  0.9118800E+02  0.7816531E-02  0.1126479E+00
         25   -1    0    0    0    0  0.00000000000E+00  0.00000000000E+00  0.99999998245E-14  0.12500000000E+03  0.12500000000E+03 0.  0.
    3000001    1    3    3    0    0 -0.22548553946E+02 -0.33598889896E+01  0.37843224105E+02  0.44190901210E+02  0.10000000000E+01 0.  1.
    1000022    2    1    0    0    0 -0.36471897917E+02 -0.63108922552E+01  0.49358113042E+02  0.62500000128E+02  0.99999997115E+01 0.  0.
    3000022    2    3    3    0    0 -0.13923343971E+02 -0.29510032656E+01  0.11514888937E+02  0.18309098918E+02  0.25001671820E+00 0.  0.
    1000022    2    1    0    0    0  0.36471897917E+02  0.63108922552E+01 -0.49358113042E+02  0.62499999872E+02  0.99999981090E+01 0.  0.
    3000022    2    5    5    0    0  0.36780680018E+00 -0.10012609672E+00 -0.46352804941E+01  0.46576425306E+01  0.25000321237E+00 0.  0.
        -13    1    4    4    0    0 -0.76291640875E+01 -0.16806807960E+01  0.62893112924E+01  0.10029720542E+02  0.10500000000E+00 0.  1.
         13    1    4    4    0    0 -0.62941798835E+01 -0.12703224696E+01  0.52255776446E+01  0.82793783766E+01  0.10500000000E+00 0. -1.
    3000001    1    5    5    0    0  0.36104091116E+02  0.64110183520E+01 -0.44722832548E+02  0.57842357341E+02  0.10000000000E+01 0.  1.
        -13    1    6    6    0    0  0.24493362133E+00 -0.21097578502E-01 -0.23111842215E+01  0.23265930225E+01  0.10500000000E+00 0.  1.
         13    1    6    6    0    0  0.12287317886E+00 -0.79028518221E-01 -0.23240962726E+01  0.23310495081E+01  0.10500000000E+00 0. -1.
</event>
<event>
11    0  0.3510903E-009  0.9118800E+02  0.7816531E-02  0.1126479E+00
         25   -1    0    0    0    0  0.00000000000E+00  0.00000000000E+00  0.99999998245E-14  0.12500000000E+03  0.12500000000E+03 0.  0.
    3000001    1    3    3    0    0 -0.36013325713E+02 -0.35415093545E+02  0.23023116057E+02  0.55518036282E+02  0.10000000000E+01 0.  1.
    1000022    2    1    0    0    0 -0.39456771261E+02 -0.37847433069E+02  0.28582948076E+02  0.62500000705E+02  0.10000008956E+02 0.  0.
    3000022    2    3    3    0    0 -0.34434455488E+01 -0.24323395239E+01  0.55598320194E+01  0.69819644227E+01  0.25000461658E+00 0.  0.
    1000022    2    1    0    0    0  0.39456771261E+02  0.37847433069E+02 -0.28582948076E+02  0.62499999295E+02  0.10000000142E+02 0.  0.
    3000022    2    5    5    0    0  0.24738405622E+02  0.27024980426E+02 -0.23437631946E+02  0.43493946407E+02  0.25000611202E+00 0.  0.
        -13    1    4    4    0    0 -0.20489975328E+01 -0.13686322925E+01  0.32550396819E+01  0.40838527853E+01  0.10500000000E+00 0. -1.
         13    1    4    4    0    0 -0.13944480160E+01 -0.10637072314E+01  0.23047923375E+01  0.28981116373E+01  0.10500000000E+00 0.  1.
    3000001    1    5    5    0    0  0.14718365639E+02  0.10822452643E+02 -0.51453161300E+01  0.19006052888E+02  0.10000000000E+01 0. -1.
        -13    1    6    6    0    0  0.12708414711E+02  0.13890755957E+02 -0.11963632813E+02  0.22306869808E+02  0.10500000000E+00 0. -1.
         13    1    6    6    0    0  0.12029990911E+02  0.13134224469E+02 -0.11473999133E+02  0.21187076600E+02  0.10500000000E+00 0.  1.
</event>
<event>
11    0  0.3510903E-009  0.9118800E+02  0.7816531E-02  0.1126479E+00
         25   -1    0    0    0    0  0.00000000000E+00  0.00000000000E+00  0.99999998245E-14  0.12500000000E+03  0.12500000000E+03 0.  0.
    3000001    1    3    3    0    0  0.25101160783E+02  0.80693637192E+00  0.18921503271E+02  0.31460176493E+02  0.10000000000E+01 0. -1.
    1000022    2    1    0    0    0  0.44399330996E+02  0.84839764893E+01  0.41987752825E+02  0.62500000744E+02  0.10000012789E+02 0.  0.
    3000022    2    3    3    0    0  0.19298170212E+02  0.76770401173E+01  0.23066249554E+02  0.31039824251E+02  0.25000498201E+00 0.  0.
    1000022    2    1    0    0    0 -0.44399330996E+02 -0.84839764893E+01 -0.41987752825E+02  0.62499999256E+02  0.10000003489E+02 0.  0.
    3000022    2    5    5    0    0 -0.14459913506E+02 -0.55280998646E+01 -0.92885332897E+01  0.18055147085E+02  0.24999779393E+00 0.  0.
        -13    1    4    4    0    0  0.58569657884E+01  0.22869956669E+01  0.70194016516E+01  0.94242995482E+01  0.10500000000E+00 0. -1.
         13    1    4    4    0    0  0.13441204424E+02  0.53900444504E+01  0.16046847903E+02  0.21615524702E+02  0.10500000000E+00 0.  1.
    3000001    1    5    5    0    0 -0.29939417490E+02 -0.29558766246E+01 -0.32699219535E+02  0.44444852171E+02  0.10000000000E+01 0.  1.
        -13    1    6    6    0    0 -0.90703433778E+01 -0.34312917500E+01 -0.57606708433E+01  0.11280126135E+02  0.10500000000E+00 0.  1.
         13    1    6    6    0    0 -0.53895701279E+01 -0.20968081146E+01 -0.35278624465E+01  0.67750209501E+01  0.10500000000E+00 0. -1.
</event>
<event>
11    0  0.3510903E-009  0.9118800E+02  0.7816531E-02  0.1126479E+00
         25   -1    0    0    0    0  0.00000000000E+00  0.00000000000E+00  0.99999998245E-14  0.12500000000E+03  0.12500000000E+03 0.  0.
    3000001    1    3    3    0    0 -0.33941990810E-01 -0.26666735182E+00 -0.52958494962E+00  0.11630665304E+01  0.10000000000E+01 0.  1.
    1000022    2    1    0    0    0  0.43868990830E+02 -0.32997387885E+02 -0.28159087161E+02  0.62500000523E+02  0.99999955934E+01 0.  0.
    3000022    2    3    3    0    0  0.43902932821E+02 -0.32730720533E+02 -0.27629502212E+02  0.61336933992E+02  0.25000437191E+00 0.  0.
    1000022    2    1    0    0    0 -0.43868990830E+02  0.32997387885E+02  0.28159087161E+02  0.62499999477E+02  0.99999890604E+01 0.  0.
    3000022    2    5    5    0    0 -0.18118894284E+02  0.13828193343E+02  0.17231703510E+02  0.28574592995E+02  0.24999554698E+00 0.  0.
        -13    1    4    4    0    0  0.16160891814E+02 -0.11986374277E+02 -0.10187960608E+02  0.22553340304E+02  0.10500000000E+00 0.  1.
         13    1    4    4    0    0  0.27742041008E+02 -0.20744346256E+02 -0.17441541604E+02  0.38783593688E+02  0.10500000000E+00 0. -1.
    3000001    1    5    5    0    0 -0.25750096546E+02  0.19169194542E+02  0.10927383652E+02  0.33925406482E+02  0.10000000000E+01 0.  1.
        -13    1    6    6    0    0 -0.74433236282E+01  0.57501588301E+01  0.70698534027E+01  0.11766955653E+02  0.10500000000E+00 0. -1.
         13    1    6    6    0    0 -0.10675570656E+02  0.80780345131E+01  0.10161850107E+02  0.16807637342E+02  0.10500000000E+00 0.  1.
</event>
<event>
11    0  0.3510903E-009  0.9118800E+02  0.7816531E-02  0.1126479E+00
         25   -1    0    0    0    0  0.00000000000E+00  0.00000000000E+00  0.99999998245E-14  0.12500000000E+03  0.12500000000E+03 0.  0.
    3000001    1    3    3    0    0 -0.10134146744E+02 -0.69018116326E+01  0.10453132584E+02  0.16143231240E+02  0.10000000000E+01 0.  1.
    1000022    2    1    0    0    0 -0.42250474091E+02 -0.35949232749E+02  0.26996299790E+02  0.62500000306E+02  0.99999969849E+01 0.  0.
    3000022    2    3    3    0    0 -0.32116327347E+02 -0.29047421116E+02  0.16543167206E+02  0.46356769066E+02  0.25000251243E+00 0.  0.
    1000022    2    1    0    0    0  0.42250474091E+02  0.35949232749E+02 -0.26996299790E+02  0.62499999694E+02  0.99999931654E+01 0.  0.
    3000022    2    5    5    0    0  0.26628186227E+02  0.16440361193E+02 -0.13564432471E+02  0.34108680472E+02  0.24995484967E+00 0.  0.
        -13    1    4    4    0    0 -0.18175866973E+02 -0.16434128024E+02  0.94314425689E+01  0.26256538958E+02  0.10500000000E+00 0.  1.
         13    1    4    4    0    0 -0.13940460373E+02 -0.12613293092E+02  0.71117246369E+01  0.20100230107E+02  0.10500000000E+00 0. -1.
    3000001    1    5    5    0    0  0.15622287864E+02  0.19508871556E+02 -0.13431867319E+02  0.28391319222E+02  0.10000000000E+01 0.  1.
        -13    1    6    6    0    0  0.19823798672E+02  0.12218594850E+02 -0.10119153628E+02  0.25390654758E+02  0.10500000000E+00 0.  1.
         13    1    6    6    0    0  0.68043875546E+01  0.42217663430E+01 -0.34452788429E+01  0.87180257142E+01  0.10500000000E+00 0. -1.
</event>
<event>
11    0  0.3510903E-009  0.9118800E+02  0.7816531E-02  0.1126479E+00
         25   -1    0    0    0    0  0.00000000000E+00  0.00000000000E+00  0.99999998245E-14  0.12500000000E+03  0.12500000000E+03 0.  0.
    3000001    1    3    3    0    0 -0.34729183399E+02  0.29212365373E+02  0.35387064501E+02  0.57556257733E+02  0.10000000000E+01 0.  1.
    1000022    2    1    0    0    0 -0.35148986685E+02  0.31458180935E+02  0.39764072674E+02  0.62499999913E+02  0.10000005042E+02 0.  0.
    3000022    2    3    3    0    0 -0.41980328594E+00  0.22458155622E+01  0.43770081729E+01  0.49437421804E+01  0.24992771323E+00 0.  0.
    1000022    2    1    0    0    0  0.35148986685E+02 -0.31458180935E+02 -0.39764072674E+02  0.62500000087E+02  0.10000006125E+02 0.  0.
    3000022    2    5    5    0    0  0.63271241966E+01 -0.11138658572E+02 -0.86326089715E+01  0.15449487033E+02  0.24999308791E+00 0.  0.
        -13    1    4    4    0    0 -0.20504184237E+00  0.96370446950E+00  0.20213760193E+01  0.22511673579E+01  0.10500000000E+00 0. -1.
         13    1    4    4    0    0 -0.21476144356E+00  0.12821110927E+01  0.23556321536E+01  0.26925748225E+01  0.10500000000E+00 0.  1.
    3000001    1    5    5    0    0  0.28821862489E+02 -0.20319522363E+02 -0.31131463702E+02  0.47050513054E+02  0.10000000000E+01 0.  1.
        -13    1    6    6    0    0  0.29351272869E+01 -0.51403698696E+01 -0.39096673943E+01  0.70947092062E+01  0.10500000000E+00 0. -1.
         13    1    6    6    0    0  0.33919969097E+01 -0.59982887023E+01 -0.47229415772E+01  0.83547778267E+01  0.10500000000E+00 0.  1.
</event>
<event>
11    0  0.3510903E-009  0.9118800E+02  0.7816531E-02  0.1126479E+00
         25   -1    0    0    0    0  0.00000000000E+00  0.00000000000E+00  0.99999998245E-14  0.12500000000E+03  0.12500000000E+03 0.  0.
    3000001    1    3    3    0    0 -0.20607548616E+02 -0.80002154140E+01  0.16735400332E+02  0.27744335114E+02  0.10000000000E+01 0. -1.
    1000022    2    1    0    0    0 -0.37948313143E+02 -0.22774722424E+02  0.42982411970E+02  0.62500001003E+02  0.99999967397E+01 0.  0.
    3000022    2    3    3    0    0 -0.17340764527E+02 -0.14774507010E+02  0.26247011638E+02  0.34755665889E+02  0.25003948727E+00 0.  0.
    1000022    2    1    0    0    0  0.37948313143E+02  0.22774722424E+02 -0.42982411970E+02  0.62499998997E+02  0.99999841989E+01 0.  0.
    3000022    2    5    5    0    0  0.12474644271E+02  0.24820783196E+01 -0.10557468691E+02  0.16531790883E+02  0.25000434779E+00 0.  0.
        -13    1    4    4    0    0 -0.43846411004E+01 -0.37680105028E+01  0.66392559146E+01  0.88041879141E+01  0.10500000000E+00 0.  1.
         13    1    4    4    0    0 -0.12956123426E+02 -0.11006496507E+02  0.19607755723E+02  0.25951477975E+02  0.10500000000E+00 0. -1.
    3000001    1    5    5    0    0  0.25473668872E+02  0.20292644104E+02 -0.32424943278E+02  0.45968208113E+02  0.10000000000E+01 0. -1.
        -13    1    6    6    0    0  0.44634117129E+01  0.83106480727E+00 -0.37869028097E+01  0.59130677929E+01  0.10500000000E+00 0.  1.
         13    1    6    6    0    0  0.80112325580E+01  0.16510135124E+01 -0.67705658816E+01  0.10618723090E+02  0.10500000000E+00 0. -1.
</event>
<event>
11    0  0.3510903E-009  0.9118800E+02  0.7816531E-02  0.1126479E+00
         25   -1    0    0    0    0  0.00000000000E+00  0.00000000000E+00  0.99999998245E-14  0.12500000000E+03  0.12500000000E+03 0.  0.
    3000001    1    3    3    0    0 -0.89155433282E+01 -0.16298404184E+02  0.36726034252E+02  0.41169484860E+02  0.10000000000E+01 0. -1.
    1000022    2    1    0    0    0 -0.75520844877E+01 -0.21232381100E+02  0.57431715944E+02  0.62500000290E+02  0.10000002631E+02 0.  0.
    3000022    2    3    3    0    0  0.13634588405E+01 -0.49339769162E+01  0.20705681693E+02  0.21330515430E+02  0.24997184953E+00 0.  0.
    1000022    2    1    0    0    0  0.75520844877E+01  0.21232381100E+02 -0.57431715944E+02  0.62499999710E+02  0.99999990084E+01 0.  0.
    3000022    2    5    5    0    0  0.94537723815E+01  0.19681862767E+02 -0.48616299134E+02  0.53294995773E+02  0.24999744967E+00 0.  0.
        -13    1    4    4    0    0  0.80414025218E+00 -0.30773240960E+01  0.13029545961E+02  0.13412555986E+02  0.10500000000E+00 0. -1.
         13    1    4    4    0    0  0.55931858834E+00 -0.18566528202E+01  0.76761357321E+01  0.79179594439E+01  0.10500000000E+00 0.  1.
    3000001    1    5    5    0    0 -0.19016878937E+01  0.15505183334E+01 -0.88154168101E+01  0.92050039371E+01  0.10000000000E+01 0.  1.
        -13    1    6    6    0    0  0.29842653313E+01  0.62600158704E+01 -0.15554279497E+02  0.17030568809E+02  0.10500000000E+00 0.  1.
         13    1    6    6    0    0  0.64695070501E+01  0.13421846896E+02 -0.33062019637E+02  0.36264426964E+02  0.10500000000E+00 0. -1.
</event>
<event>
11    0  0.3510903E-009  0.9118800E+02  0.7816531E-02  0.1126479E+00
         25   -1    0    0    0    0  0.00000000000E+00  0.00000000000E+00  0.99999998245E-14  0.12500000000E+03  0.12500000000E+03 0.  0.
    3000001    1    3    3    0    0  0.22272902610E+02 -0.27541286354E+02  0.22593694457E+02  0.42024750730E+02  0.10000000000E+01 0.  1.
    1000022    2    1    0    0    0  0.27251401740E+02 -0.40927214245E+02  0.37263565441E+02  0.62500007543E+02  0.10000093541E+02 0.  0.
    3000022    2    3    3    0    0  0.49784991300E+01 -0.13385927890E+02  0.14669870985E+02  0.20475256813E+02  0.25001554235E+00 0.  0.
    1000022    2    1    0    0    0 -0.27251401740E+02  0.40927214245E+02 -0.37263565441E+02  0.62499992457E+02  0.99999992567E+01 0.  0.
    3000022    2    5    5    0    0 -0.26803800420E+02  0.41015029851E+02 -0.36914714732E+02  0.61346842276E+02  0.25000577712E+00 0.  0.
        -13    1    4    4    0    0  0.19901300606E+01 -0.52075776995E+01  0.56739482378E+01  0.79551365016E+01  0.10500000000E+00 0.  1.
         13    1    4    4    0    0  0.29883690695E+01 -0.81783501905E+01  0.89959227468E+01  0.12520120311E+02  0.10500000000E+00 0. -1.
    3000001    1    5    5    0    0 -0.44760132018E+00 -0.87815606523E-01 -0.34885070951E+00  0.11531501811E+01  0.10000000000E+01 0. -1.
        -13    1    6    6    0    0 -0.10385973578E+02  0.15930318175E+02 -0.14254766924E+02  0.23766633951E+02  0.10500000000E+00 0.  1.
         13    1    6    6    0    0 -0.16417826842E+02  0.25084711676E+02 -0.22659947808E+02  0.37580208325E+02  0.10500000000E+00 0. -1.
</event>
<event>
11    0  0.3510903E-009  0.9118800E+02  0.7816531E-02  0.1126479E+00
         25   -1    0    0    0    0  0.00000000000E+00  0.00000000000E+00  0.99999998245E-14  0.12500000000E+03  0.12500000000E+03 0.  0.
    3000001    1    3    3    0    0 -0.30387419763E+02  0.19519588322E+02  0.19425402463E+02  0.41021407448E+02  0.10000000000E+01 0. -1.
    1000022    2    1    0    0    0 -0.49500058206E+02  0.23431214135E+02  0.28407271301E+02  0.62500007646E+02  0.10000016742E+02 0.  0.
    3000022    2    3    3    0    0 -0.19112638443E+02  0.39116258126E+01  0.89818688377E+01  0.21478600199E+02  0.25006788107E+00 0.  0.
    1000022    2    1    0    0    0  0.49500058206E+02 -0.23431214135E+02 -0.28407271301E+02  0.62499992354E+02  0.99999211613E+01 0.  0.
    3000022    2    5    5    0    0  0.29197314994E+02 -0.10483217374E+02 -0.11616432130E+02  0.33126802501E+02  0.24999832075E+00 0.  0.
        -13    1    4    4    0    0 -0.87702898706E+01  0.18263969497E+01  0.40588717471E+01  0.98356075100E+01  0.10500000000E+00 0.  1.
         13    1    4    4    0    0 -0.10342348572E+02  0.20852288628E+01  0.49229970906E+01  0.11642992689E+02  0.10500000000E+00 0. -1.
    3000001    1    5    5    0    0  0.20302743212E+02 -0.12947996761E+02 -0.16790839171E+02  0.29373189853E+02  0.10000000000E+01 0.  1.
        -13    1    6    6    0    0  0.20397302407E+02 -0.73078963078E+01 -0.80663287975E+01  0.23119947647E+02  0.10500000000E+00 0. -1.
         13    1    6    6    0    0  0.88000125865E+01 -0.31753210662E+01 -0.35501033325E+01  0.10006854854E+02  0.10500000000E+00 0.  1.
</event>
<event>
11    0  0.3510903E-009  0.9118800E+02  0.7816531E-02  0.1126479E+00
         25   -1    0    0    0    0  0.00000000000E+00  0.00000000000E+00  0.99999998245E-14  0.12500000000E+03  0.12500000000E+03 0.  0.
    3000001    1    3    3    0    0  0.47476070772E+01 -0.51095468601E+00  0.25556402952E+01  0.55074626617E+01  0.10000000000E+01 0.  1.
    1000022    2    1    0    0    0  0.57158214334E+02 -0.22838902607E+02  0.41920304310E+01  0.62499999756E+02  0.99999956117E+01 0.  0.
    3000022    2    3    3    0    0  0.52410607256E+02 -0.22327947921E+02  0.16363901357E+01  0.56992537094E+02  0.25000079728E+00 0.  0.
    1000022    2    1    0    0    0 -0.57158214334E+02  0.22838902607E+02 -0.41920304310E+01  0.62500000244E+02  0.99999986643E+01 0.  0.
    3000022    2    5    5    0    0 -0.31562321171E+02  0.15186056168E+02  0.19089142454E+01  0.35078524511E+02  0.25001733772E+00 0.  0.
        -13    1    4    4    0    0  0.35259277555E+02 -0.14973469038E+02  0.10717243310E+01  0.38322069970E+02  0.10500000000E+00 0.  1.
         13    1    4    4    0    0  0.17151329701E+02 -0.73544788835E+01  0.56466580478E+00  0.18670467124E+02  0.10500000000E+00 0. -1.
    3000001    1    5    5    0    0 -0.25595893163E+02  0.76528464390E+01 -0.61009446763E+01  0.27421475733E+02  0.10000000000E+01 0. -1.
        -13    1    6    6    0    0 -0.23274340981E+02  0.11224792845E+02  0.13858360204E+01  0.25877064922E+02  0.10500000000E+00 0. -1.
         13    1    6    6    0    0 -0.82879801896E+01  0.39612633235E+01  0.52307822500E+00  0.92014595891E+01  0.10500000000E+00 0.  1.
</event>
<event>
11    0  0.3510903E-009  0.9118800E+02  0.7816531E-02  0.1126479E+00
         25   -1    0    0    0    0  0.00000000000E+00  0.00000000000E+00  0.99999998245E-14  0.12500000000E+03  0.12500000000E+03 0.  0.
    3000001    1    3    3    0    0 -0.20965708706E+02 -0.22638922681E+01  0.27106535605E+02  0.34357683598E+02  0.10000000000E+01 0.  1.
    1000022    2    1    0    0    0 -0.42556180730E+02 -0.94813448660E+01  0.43650034913E+02  0.62500000005E+02  0.10000001692E+02 0.  0.
    3000022    2    3    3    0    0 -0.21590472025E+02 -0.72174525979E+01  0.16543499308E+02  0.28142316406E+02  0.24999822101E+00 0.  0.
    1000022    2    1    0    0    0  0.42556180730E+02  0.94813448660E+01 -0.43650034913E+02  0.62499999995E+02  0.10000001634E+02 0.  0.
    3000022    2    5    5    0    0  0.22934290956E+02  0.51791486548E+01 -0.30328199605E+02  0.38375349811E+02  0.24999875387E+00 0.  0.
        -13    1    4    4    0    0 -0.11815374409E+02 -0.40182941548E+01  0.90877905345E+01  0.15438546633E+02  0.10500000000E+00 0. -1.
         13    1    4    4    0    0 -0.97750976159E+01 -0.31991584431E+01  0.74557087736E+01  0.12703769774E+02  0.10500000000E+00 0.  1.
    3000001    1    5    5    0    0  0.19621889774E+02  0.43021962112E+01 -0.13321835308E+02  0.24124650184E+02  0.10000000000E+01 0.  1.
        -13    1    6    6    0    0  0.71405938443E+01  0.15626835475E+01 -0.94276831424E+01  0.11929890811E+02  0.10500000000E+00 0.  1.
         13    1    6    6    0    0  0.15793697112E+02  0.36164651073E+01 -0.20900516462E+02  0.26445459000E+02  0.10500000000E+00 0. -1.
</event>
<event>
11    0  0.3510903E-009  0.9118800E+02  0.7816531E-02  0.1126479E+00
         25   -1    0    0    0    0  0.00000000000E+00  0.00000000000E+00  0.99999998245E-14  0.12500000000E+03  0.12500000000E+03 0.  0.
    3000001    1    3    3    0    0  0.67282289085E+01 -0.40605822525E+02  0.11584736475E+02  0.42770410407E+02  0.10000000000E+01 0. -1.
    1000022    2    1    0    0    0  0.35999383014E+01 -0.59875099481E+02  0.14431317361E+02  0.62500001404E+02  0.10000008053E+02 0.  0.
    3000022    2    3    3    0    0 -0.31282906071E+01 -0.19269276956E+02  0.28465808855E+01  0.19729590997E+02  0.25000326554E+00 0.  0.
    1000022    2    1    0    0    0 -0.35999383014E+01  0.59875099481E+02 -0.14431317361E+02  0.62499998596E+02  0.99999905043E+01 0.  0.
    3000022    2    5    5    0    0 -0.32024987219E+01  0.52666420123E+02 -0.92783598332E+01  0.53573857908E+02  0.24996655923E+00 0.  0.
        -13    1    4    4    0    0 -0.13766550759E+01 -0.82806143038E+01  0.12818929910E+01  0.84922333392E+01  0.10500000000E+00 0. -1.
         13    1    4    4    0    0 -0.17516355311E+01 -0.10988662652E+02  0.15646878944E+01  0.11237357657E+02  0.10500000000E+00 0.  1.
    3000001    1    5    5    0    0 -0.39743957951E+00  0.72086793580E+01 -0.51529575275E+01  0.89261406882E+01  0.10000000000E+01 0. -1.
        -13    1    6    6    0    0 -0.21968413105E+01  0.35517460260E+02 -0.62206358787E+01  0.36125108039E+02  0.10500000000E+00 0.  1.
         13    1    6    6    0    0 -0.10056574113E+01  0.17148959863E+02 -0.30577239546E+01  0.17448749869E+02  0.10500000000E+00 0. -1.
</event>
<event>
11    0  0.3510903E-009  0.9118800E+02  0.7816531E-02  0.1126479E+00
         25   -1    0    0    0    0  0.00000000000E+00  0.00000000000E+00  0.99999998245E-14  0.12500000000E+03  0.12500000000E+03 0.  0.
    3000001    1    3    3    0    0 -0.40137474971E+01  0.15456834063E+02  0.14004839676E+02  0.21264040598E+02  0.10000000000E+01 0.  1.
    1000022    2    1    0    0    0  0.17287180859E+01  0.44173029537E+02  0.43034931228E+02  0.62500001887E+02  0.99999962666E+01 0.  0.
    3000022    2    3    3    0    0  0.57424655830E+01  0.28716195474E+02  0.29030091552E+02  0.41235961288E+02  0.24998873981E+00 0.  0.
    1000022    2    1    0    0    0 -0.17287180859E+01 -0.44173029537E+02 -0.43034931228E+02  0.62499998113E+02  0.99999726850E+01 0.  0.
    3000022    2    5    5    0    0 -0.22039025246E+01 -0.30362430330E+02 -0.23063209511E+02  0.38193041927E+02  0.24991363515E+00 0.  0.
        -13    1    4    4    0    0  0.34496182409E+01  0.17405265485E+02  0.17666087669E+02  0.25038866011E+02  0.10500000000E+00 0.  1.
         13    1    4    4    0    0  0.22928473421E+01  0.11310929989E+02  0.11364003883E+02  0.16197095277E+02  0.10500000000E+00 0. -1.
    3000001    1    5    5    0    0  0.47518443871E+00 -0.13810599207E+02 -0.19971721717E+02  0.24306956186E+02  0.10000000000E+01 0.  1.
        -13    1    6    6    0    0 -0.63079835046E+00 -0.87730263466E+01 -0.67167590477E+01  0.11067509880E+02  0.10500000000E+00 0.  1.
         13    1    6    6    0    0 -0.15731041741E+01 -0.21589403983E+02 -0.16346450464E+02  0.27125532048E+02  0.10500000000E+00 0. -1.
</event>
<event>
11    0  0.3510903E-009  0.9118800E+02  0.7816531E-02  0.1126479E+00
         25   -1    0    0    0    0  0.00000000000E+00  0.00000000000E+00  0.99999998245E-14  0.12500000000E+03  0.12500000000E+03 0.  0.
    3000001    1    3    3    0    0 -0.26373753455E+02 -0.11401850194E+02 -0.29712120259E+02  0.41344735450E+02  0.10000000000E+01 0.  1.
    1000022    2    1    0    0    0 -0.36493153017E+02 -0.11983566037E+02 -0.48279334673E+02  0.62499985197E+02  0.99998960556E+01 0.  0.
    3000022    2    3    3    0    0 -0.10119399562E+02 -0.58171584236E+00 -0.18567214414E+02  0.21155249747E+02  0.24999991321E+00 0.  0.
    1000022    2    1    0    0    0  0.36493153017E+02  0.11983566037E+02  0.48279334673E+02  0.62500014803E+02  0.10000081091E+02 0.  0.
    3000022    2    5    5    0    0  0.18293362665E+02  0.78982524306E+01  0.32128226430E+02  0.37806281720E+02  0.24998975493E+00 0.  0.
        -13    1    4    4    0    0 -0.39398745264E+01 -0.27901688556E+00 -0.73045470503E+01  0.83046911030E+01  0.10500000000E+00 0.  1.
         13    1    4    4    0    0 -0.61795250358E+01 -0.30269895679E+00 -0.11262667364E+02  0.12850558644E+02  0.10500000000E+00 0. -1.
    3000001    1    5    5    0    0  0.18199790352E+02  0.40853136060E+01  0.16151108243E+02  0.24693733083E+02  0.10000000000E+01 0. -1.
        -13    1    6    6    0    0  0.11412704719E+02  0.49735468900E+01  0.20154021470E+02  0.23689271920E+02  0.10500000000E+00 0.  1.
         13    1    6    6    0    0  0.68806579463E+01  0.29247055406E+01  0.11974204960E+02  0.14117009800E+02  0.10500000000E+00 0. -1.
</event>
<event>
11    0  0.3510903E-009  0.9118800E+02  0.7816531E-02  0.1126479E+00
         25   -1    0    0    0    0  0.00000000000E+00  0.00000000000E+00  0.99999998245E-14  0.12500000000E+03  0.12500000000E+03 0.  0.
    3000001    1    3    3    0    0 -0.68221082979E+01  0.17667903099E+02 -0.13875268228E+02  0.23499341054E+02  0.10000000000E+01 0. -1.
    1000022    2    1    0    0    0 -0.25415442066E+02  0.37730034603E+02 -0.41674328612E+02  0.62500000406E+02  0.10000008945E+02 0.  0.
    3000022    2    3    3    0    0 -0.18593333768E+02  0.20062131504E+02 -0.27799060384E+02  0.39000659352E+02  0.24998116528E+00 0.  0.
    1000022    2    1    0    0    0  0.25415442066E+02 -0.37730034603E+02  0.41674328612E+02  0.62499999594E+02  0.10000003874E+02 0.  0.
    3000022    2    5    5    0    0  0.19423793274E+02 -0.29473061393E+02  0.26289705342E+02  0.44013136826E+02  0.25002661010E+00 0.  0.
        -13    1    4    4    0    0 -0.50401579223E+01  0.53947346563E+01 -0.74746961185E+01  0.10506591310E+02  0.10500000000E+00 0.  1.
         13    1    4    4    0    0 -0.13553175846E+02  0.14667396847E+02 -0.20324364265E+02  0.28494068042E+02  0.10500000000E+00 0. -1.
    3000001    1    5    5    0    0  0.59916487922E+01 -0.82569732098E+01  0.15384623270E+02  0.18486862768E+02  0.10000000000E+01 0. -1.
        -13    1    6    6    0    0  0.10591687292E+02 -0.16178726794E+02  0.14441257864E+02  0.24134953782E+02  0.10500000000E+00 0. -1.
         13    1    6    6    0    0  0.88321059814E+01 -0.13294334599E+02  0.11848447478E+02  0.19878183044E+02  0.10500000000E+00 0.  1.
</event>
<event>
11    0  0.3510903E-009  0.9118800E+02  0.7816531E-02  0.1126479E+00
         25   -1    0    0    0    0  0.00000000000E+00  0.00000000000E+00  0.99999998245E-14  0.12500000000E+03  0.12500000000E+03 0.  0.
    3000001    1    3    3    0    0 -0.15007484112E+02 -0.13613197760E+02  0.26677852053E+02  0.33514944768E+02  0.10000000000E+01 0. -1.
    1000022    2    1    0    0    0 -0.25911066155E+02 -0.33093830652E+02  0.45162650483E+02  0.62500000094E+02  0.10000001828E+02 0.  0.
    3000022    2    3    3    0    0 -0.10903582043E+02 -0.19480632893E+02  0.18484798430E+02  0.28985055326E+02  0.25000000606E+00 0.  0.
    1000022    2    1    0    0    0  0.25911066155E+02  0.33093830652E+02 -0.45162650483E+02  0.62499999906E+02  0.10000000656E+02 0.  0.
    3000022    2    5    5    0    0  0.24896475233E+02  0.32930835272E+02 -0.44981620291E+02  0.61054754542E+02  0.24999489453E+00 0.  0.
        -13    1    4    4    0    0 -0.36048720564E+01 -0.65351190279E+01  0.61444395577E+01  0.96678873457E+01  0.10500000000E+00 0. -1.
         13    1    4    4    0    0 -0.72987099865E+01 -0.12945513865E+02  0.12340358872E+02  0.19317167981E+02  0.10500000000E+00 0.  1.
    3000001    1    5    5    0    0  0.10145909221E+01  0.16299538051E+00 -0.18103019206E+00  0.14452453646E+01  0.10000000000E+01 0.  1.
        -13    1    6    6    0    0  0.14859826237E+02  0.19663706924E+02 -0.26948487300E+02  0.36519964383E+02  0.10500000000E+00 0. -1.
         13    1    6    6    0    0  0.10036648995E+02  0.13267128348E+02 -0.18033132991E+02  0.24534790158E+02  0.10500000000E+00 0.  1.
</event>
<event>
11    0  0.3510903E-009  0.9118800E+02  0.7816531E-02  0.1126479E+00
         25   -1    0    0    0    0  0.00000000000E+00  0.00000000000E+00  0.99999998245E-14  0.12500000000E+03  0.12500000000E+03 0.  0.
    3000001    1    3    3    0    0 -0.42560211200E+01  0.12463609738E+02  0.45017347356E+01  0.13954243051E+02  0.10000000000E+01 0. -1.
    1000022    2    1    0    0    0 -0.10694097660E+02  0.60579545322E+02  0.46909403019E+01  0.62499998534E+02  0.99999929828E+01 0.  0.
    3000022    2    3    3    0    0 -0.64380765396E+01  0.48115935584E+02  0.18920556622E+00  0.48545755484E+02  0.24998017358E+00 0.  0.
    1000022    2    1    0    0    0  0.10694097660E+02 -0.60579545322E+02 -0.46909403019E+01  0.62500001466E+02  0.10000011305E+02 0.  0.
    3000022    2    5    5    0    0  0.11679862789E+02 -0.51378083006E+02 -0.62619944517E+01  0.53060358846E+02  0.24999641707E+00 0.  0.
        -13    1    4    4    0    0 -0.33720687796E+01  0.24692034774E+02  0.92859849395E-01  0.24921618669E+02  0.10500000000E+00 0.  1.
         13    1    4    4    0    0 -0.30660077600E+01  0.23423900810E+02  0.96345716824E-01  0.23624136815E+02  0.10500000000E+00 0. -1.
    3000001    1    5    5    0    0 -0.98576512949E+00 -0.92014623166E+01  0.15710541499E+01  0.94396426201E+01  0.10000000000E+01 0. -1.
        -13    1    6    6    0    0  0.44077984432E+01 -0.19664883173E+02 -0.23930749012E+01  0.20294682796E+02  0.10500000000E+00 0.  1.
         13    1    6    6    0    0  0.72720643459E+01 -0.31713199833E+02 -0.38689195505E+01  0.32765676050E+02  0.10500000000E+00 0. -1.
</event>
<event>
11    0  0.3510903E-009  0.9118800E+02  0.7816531E-02  0.1126479E+00
         25   -1    0    0    0    0  0.00000000000E+00  0.00000000000E+00  0.99999998245E-14  0.12500000000E+03  0.12500000000E+03 0.  0.
    3000001    1    3    3    0    0  0.30545583749E+02  0.42467159653E+02 -0.29395112380E+02  0.60013039978E+02  0.10000000000E+01 0. -1.
    1000022    2    1    0    0    0  0.31895320109E+02  0.42411004806E+02 -0.31468161830E+02  0.62499999847E+02  0.99999999191E+01 0.  0.
    3000022    2    3    3    0    0  0.13497363600E+01 -0.56154847185E-01 -0.20730494507E+01  0.24869598691E+01  0.24998751385E+00 0.  0.
    1000022    2    1    0    0    0 -0.31895320109E+02 -0.42411004806E+02  0.31468161830E+02  0.62500000153E+02  0.10000001836E+02 0.  0.
    3000022    2    5    5    0    0 -0.12446115390E+02 -0.13430755048E+02  0.15973687557E+02  0.24300456004E+02  0.24999674331E+00 0.  0.
        -13    1    4    4    0    0  0.50090302831E+00 -0.65683247365E-01 -0.70834305619E+00  0.87635210846E+00  0.10500000000E+00 0. -1.
         13    1    4    4    0    0  0.84883333166E+00  0.95284001805E-02 -0.13647063945E+01  0.16106077606E+01  0.10500000000E+00 0.  1.
    3000001    1    5    5    0    0 -0.19449204719E+02 -0.28980249758E+02  0.15494474273E+02  0.38199544150E+02  0.10000000000E+01 0. -1.
        -13    1    6    6    0    0 -0.47257344895E+01 -0.50208214318E+01  0.59780373627E+01  0.91262900472E+01  0.10500000000E+00 0. -1.
         13    1    6    6    0    0 -0.77203809007E+01 -0.84099336159E+01  0.99956501941E+01  0.15174165957E+02  0.10500000000E+00 0.  1.
</event>
<event>
11    0  0.3510903E-009  0.9118800E+02  0.7816531E-02  0.1126479E+00
         25   -1    0    0    0    0  0.00000000000E+00  0.00000000000E+00  0.99999998245E-14  0.12500000000E+03  0.12500000000E+03 0.  0.
    3000001    1    3    3    0    0 -0.49518982353E+02  0.17313589040E+02 -0.15244901875E+02  0.54637871590E+02  0.10000000000E+01 0.  1.
    1000022    2    1    0    0    0 -0.54927210134E+02  0.19005687314E+02 -0.20689022096E+02  0.62500000507E+02  0.99999932338E+01 0.  0.
    3000022    2    3    3    0    0 -0.54082277818E+01  0.16920982739E+01 -0.54441202207E+01  0.78621289172E+01  0.25000365035E+00 0.  0.
    1000022    2    1    0    0    0  0.54927210134E+02 -0.19005687314E+02  0.20689022096E+02  0.62499999493E+02  0.99999868984E+01 0.  0.
    3000022    2    5    5    0    0  0.87514249320E+01 -0.70433603611E+01  0.31761129564E+01  0.11676752925E+02  0.25000370403E+00 0.  0.
        -13    1    4    4    0    0 -0.18478070829E+01  0.53374978391E+00 -0.18011052481E+01  0.26370978294E+01  0.10500000000E+00 0. -1.
         13    1    4    4    0    0 -0.35604206989E+01  0.11583484900E+01 -0.36430149726E+01  0.52250310878E+01  0.10500000000E+00 0.  1.
    3000001    1    5    5    0    0  0.46175785202E+02 -0.11962326953E+02  0.17512909139E+02  0.50823246568E+02  0.10000000000E+01 0.  1.
        -13    1    6    6    0    0  0.38641848406E+01 -0.31801126549E+01  0.14542299657E+01  0.52125666205E+01  0.10500000000E+00 0.  1.
         13    1    6    6    0    0  0.48872400914E+01 -0.38632477062E+01  0.17218829906E+01  0.64641863048E+01  0.10500000000E+00 0. -1.
</event>
<event>
11    0  0.3510903E-009  0.9118800E+02  0.7816531E-02  0.1126479E+00
         25   -1    0    0    0    0  0.00000000000E+00  0.00000000000E+00  0.99999998245E-14  0.12500000000E+03  0.12500000000E+03 0.  0.
    3000001    1    3    3    0    0  0.94078152831E+01  0.21435465773E+02  0.47553660945E+01  0.23908151079E+02  0.10000000000E+01 0. -1.
    1000022    2    1    0    0    0  0.31905663343E+02  0.48969605123E+02  0.19754909568E+02  0.62500000008E+02  0.99999984848E+01 0.  0.
    3000022    2    3    3    0    0  0.22497848060E+02  0.27534139350E+02  0.14999543473E+02  0.38591848929E+02  0.25000460634E+00 0.  0.
    1000022    2    1    0    0    0 -0.31905663343E+02 -0.48969605123E+02 -0.19754909568E+02  0.62499999992E+02  0.99999983840E+01 0.  0.
    3000022    2    5    5    0    0 -0.11737952486E+02 -0.10706481123E+02 -0.72465293761E+01  0.17463761312E+02  0.25000908448E+00 0.  0.
        -13    1    4    4    0    0  0.10165987163E+02  0.12427853016E+02  0.68450809226E+01  0.17454655065E+02  0.10500000000E+00 0. -1.
         13    1    4    4    0    0  0.12331860896E+02  0.15106286334E+02  0.81544625506E+01  0.21137193864E+02  0.10500000000E+00 0.  1.
    3000001    1    5    5    0    0 -0.20167710856E+02 -0.38263124000E+02 -0.12508380192E+02  0.45036238680E+02  0.10000000000E+01 0.  1.
        -13    1    6    6    0    0 -0.57518601384E+01 -0.51686714838E+01 -0.34876007045E+01  0.84837163810E+01  0.10500000000E+00 0.  1.
         13    1    6    6    0    0 -0.59860923481E+01 -0.55378096397E+01 -0.37589286716E+01  0.89800449311E+01  0.10500000000E+00 0. -1.
</event>
<event>
11    0  0.3510903E-009  0.9118800E+02  0.7816531E-02  0.1126479E+00
         25   -1    0    0    0    0  0.00000000000E+00  0.00000000000E+00  0.99999998245E-14  0.12500000000E+03  0.12500000000E+03 0.  0.
    3000001    1    3    3    0    0 -0.48150904457E+02 -0.51364515487E+01 -0.14825101702E+02  0.50652506108E+02  0.10000000000E+01 0.  1.
    1000022    2    1    0    0    0 -0.59903098582E+02 -0.37650630044E+01 -0.14272109989E+02  0.62499999388E+02  0.99999940351E+01 0.  0.
    3000022    2    3    3    0    0 -0.11752194125E+02  0.13713885442E+01  0.55299171331E+00  0.11847493279E+02  0.25004774179E+00 0.  0.
    1000022    2    1    0    0    0  0.59903098582E+02  0.37650630044E+01  0.14272109989E+02  0.62500000612E+02  0.10000001691E+02 0.  0.
    3000022    2    5    5    0    0  0.41301969856E+02  0.47132736502E+01  0.56552879970E+01  0.41953694020E+02  0.24999432234E+00 0.  0.
        -13    1    4    4    0    0 -0.61485474713E+01  0.78198722654E+00  0.26804538268E+00  0.62047573165E+01  0.10500000000E+00 0.  1.
         13    1    4    4    0    0 -0.56036466537E+01  0.58940131771E+00  0.28494633063E+00  0.56427359626E+01  0.10500000000E+00 0. -1.
    3000001    1    5    5    0    0  0.18601128727E+02 -0.94821064583E+00  0.86168219918E+01  0.20546306592E+02  0.10000000000E+01 0. -1.
        -13    1    6    6    0    0  0.28703197432E+02  0.32744767914E+01  0.39777217256E+01  0.29162116457E+02  0.10500000000E+00 0. -1.
         13    1    6    6    0    0  0.12598772423E+02  0.14387968588E+01  0.16775662714E+01  0.12791577564E+02  0.10500000000E+00 0.  1.
</event>
<event>
11    0  0.3510903E-009  0.9118800E+02  0.7816531E-02  0.1126479E+00
         25   -1    0    0    0    0  0.00000000000E+00  0.00000000000E+00  0.99999998245E-14  0.12500000000E+03  0.12500000000E+03 0.  0.
    3000001    1    3    3    0    0  0.97819450267E+00  0.45712899481E+01 -0.41209911373E+00  0.47982686413E+01  0.10000000000E+01 0. -1.
    1000022    2    1    0    0    0  0.61385649350E+01  0.55596082484E+02  0.26031584479E+02  0.62499999805E+02  0.10000010908E+02 0.  0.
    3000022    2    3    3    0    0  0.51603704323E+01  0.51024792536E+02  0.26443683592E+02  0.57701731164E+02  0.25000209735E+00 0.  0.
    1000022    2    1    0    0    0 -0.61385649350E+01 -0.55596082484E+02 -0.26031584479E+02  0.62500000195E+02  0.10000013346E+02 0.  0.
    3000022    2    5    5    0    0 -0.39651953026E+01 -0.65308644803E+01 -0.44443537940E+01  0.88424966945E+01  0.25000499694E+00 0.  0.
        -13    1    4    4    0    0  0.29882997245E+01  0.29926421351E+02  0.15449113639E+02  0.33811340810E+02  0.10500000000E+00 0.  1.
         13    1    4    4    0    0  0.21720707078E+01  0.21098371184E+02  0.10994569954E+02  0.23890390354E+02  0.10500000000E+00 0. -1.
    3000001    1    5    5    0    0 -0.21733696324E+01 -0.49065218003E+02 -0.21587230685E+02  0.53657503501E+02  0.10000000000E+01 0.  1.
        -13    1    6    6    0    0 -0.16457212483E+01 -0.28018903479E+01 -0.18385380557E+01  0.37350013562E+01  0.10500000000E+00 0.  1.
         13    1    6    6    0    0 -0.23194740543E+01 -0.37289741324E+01 -0.26058157383E+01  0.51074953383E+01  0.10500000000E+00 0. -1.
</event>
<event>
11    0  0.3510903E-009  0.9118800E+02  0.7816531E-02  0.1126479E+00
         25   -1    0    0    0    0  0.00000000000E+00  0.00000000000E+00  0.99999998245E-14  0.12500000000E+03  0.12500000000E+03 0.  0.
    3000001    1    3    3    0    0  0.55506222989E+02  0.82813088085E+00 -0.23594415391E+02  0.60326801912E+02  0.10000000000E+01 0. -1.
    1000022    2    1    0    0    0  0.56110956570E+02  0.12859096439E+01 -0.25615560651E+02  0.62500000956E+02  0.10000008063E+02 0.  0.
    3000022    2    3    3    0    0  0.60473358133E+00  0.45777876305E+00 -0.20211452594E+01  0.21731990446E+01  0.25000365503E+00 0.  0.
    1000022    2    1    0    0    0 -0.56110956570E+02 -0.12859096439E+01  0.25615560651E+02  0.62499999044E+02  0.99999961096E+01 0.  0.
    3000022    2    5    5    0    0 -0.35964346498E+02  0.14179263767E+01  0.11705586969E+02  0.37848751723E+02  0.25001299749E+00 0.  0.
        -13    1    4    4    0    0  0.24518584436E+00  0.21895067063E+00 -0.10505840685E+01  0.11058062124E+01  0.10500000000E+00 0. -1.
         13    1    4    4    0    0  0.35954773697E+00  0.23882809242E+00 -0.97056119093E+00  0.10673928322E+01  0.10500000000E+00 0.  1.
    3000001    1    5    5    0    0 -0.20146610072E+02 -0.27038360206E+01  0.13909973682E+02  0.24651247320E+02  0.10000000000E+01 0. -1.
        -13    1    6    6    0    0 -0.21113126852E+02  0.77682253060E+00  0.68371090690E+01  0.22206410429E+02  0.10500000000E+00 0. -1.
         13    1    6    6    0    0 -0.14851219646E+02  0.64110384610E+00  0.48684779003E+01  0.15642341295E+02  0.10500000000E+00 0.  1.
</event>
<event>
11    0  0.3510903E-009  0.9118800E+02  0.7816531E-02  0.1126479E+00
         25   -1    0    0    0    0  0.00000000000E+00  0.00000000000E+00  0.99999998245E-14  0.12500000000E+03  0.12500000000E+03 0.  0.
    3000001    1    3    3    0    0  0.13303463141E+02 -0.55586921556E+00  0.12082952523E+02  0.18008022207E+02  0.10000000000E+01 0.  1.
    1000022    2    1    0    0    0  0.39590703279E+02 -0.15623335019E+02  0.44662486629E+02  0.62499999678E+02  0.99999932307E+01 0.  0.
    3000022    2    3    3    0    0  0.26287240138E+02 -0.15067465803E+02  0.32579534106E+02  0.44491977471E+02  0.24999382575E+00 0.  0.
    1000022    2    1    0    0    0 -0.39590703279E+02  0.15623335019E+02 -0.44662486629E+02  0.62500000322E+02  0.99999972579E+01 0.  0.
    3000022    2    5    5    0    0 -0.22964348813E+02  0.47287913681E+01 -0.20080512328E+02  0.30870896561E+02  0.24998986155E+00 0.  0.
        -13    1    4    4    0    0  0.90319822820E+01 -0.52185823404E+01  0.11154528434E+02  0.15272355260E+02  0.10500000000E+00 0. -1.
         13    1    4    4    0    0  0.17255257856E+02 -0.98488834631E+01  0.21425005672E+02  0.29219622212E+02  0.10500000000E+00 0.  1.
    3000001    1    5    5    0    0 -0.16626354466E+02  0.10894543651E+02 -0.24581974301E+02  0.31629103761E+02  0.10000000000E+01 0.  1.
        -13    1    6    6    0    0 -0.16220985681E+02  0.33479656592E+01 -0.14127780727E+02  0.21770035916E+02  0.10500000000E+00 0.  1.
         13    1    6    6    0    0 -0.67433631320E+01  0.13808257089E+01 -0.59527316007E+01  0.91008606449E+01  0.10500000000E+00 0. -1.
</event>
<event>
11    0  0.3510903E-009  0.9118800E+02  0.7816531E-02  0.1126479E+00
         25   -1    0    0    0    0  0.00000000000E+00  0.00000000000E+00  0.99999998245E-14  0.12500000000E+03  0.12500000000E+03 0.  0.
    3000001    1    3    3    0    0 -0.74730675268E+00  0.40759573265E-01  0.10347194743E+00  0.12533296331E+01  0.10000000000E+01 0. -1.
    1000022    2    1    0    0    0 -0.33853582949E+02  0.51375441370E+02  0.45551301502E+01  0.62500001670E+02  0.99999971776E+01 0.  0.
    3000022    2    3    3    0    0 -0.33106276196E+02  0.51334681797E+02  0.44516582028E+01  0.61246672036E+02  0.24999202128E+00 0.  0.
    1000022    2    1    0    0    0  0.33853582949E+02 -0.51375441370E+02 -0.45551301502E+01  0.62499998330E+02  0.99999763077E+01 0.  0.
    3000022    2    5    5    0    0  0.26903676912E+02 -0.45924284990E+02 -0.57339675557E+01  0.53533061427E+02  0.24999713695E+00 0.  0.
        -13    1    4    4    0    0 -0.23995058795E+02  0.37153483647E+02  0.31981312607E+01  0.44343920239E+02  0.10500000000E+00 0. -1.
         13    1    4    4    0    0 -0.91112174011E+01  0.14181198151E+02  0.12535269420E+01  0.16902751797E+02  0.10500000000E+00 0.  1.
    3000001    1    5    5    0    0  0.69499060369E+01 -0.54511563800E+01  0.11788374055E+01  0.89669369034E+01  0.10000000000E+01 0.  1.
        -13    1    6    6    0    0  0.17799445253E+02 -0.30489191881E+02 -0.37946019091E+01  0.35508042772E+02  0.10500000000E+00 0. -1.
         13    1    6    6    0    0  0.91042316582E+01 -0.15435093110E+02 -0.19393656466E+01  0.18025018655E+02  0.10500000000E+00 0.  1.
</event>
<event>
11    0  0.3510903E-009  0.9118800E+02  0.7816531E-02  0.1126479E+00
         25   -1    0    0    0    0  0.00000000000E+00  0.00000000000E+00  0.99999998245E-14  0.12500000000E+03  0.12500000000E+03 0.  0.
    3000001    1    3    3    0    0  0.94003714891E+01 -0.96783490723E+01  0.24993227023E+01  0.13758053600E+02  0.10000000000E+01 0.  1.
    1000022    2    1    0    0    0  0.42819700842E+02 -0.43855873009E+02 -0.70274880686E+01  0.62499999997E+02  0.10000001679E+02 0.  0.
    3000022    2    3    3    0    0  0.33419329353E+02 -0.34177523936E+02 -0.95268107709E+01  0.48741946397E+02  0.24999660098E+00 0.  0.
    1000022    2    1    0    0    0 -0.42819700842E+02  0.43855873009E+02  0.70274880686E+01  0.62500000003E+02  0.10000001714E+02 0.  0.
    3000022    2    5    5    0    0 -0.16878233635E+02  0.19953126730E+02  0.75607157506E+01  0.27207148995E+02  0.24999368265E+00 0.  0.
        -13    1    4    4    0    0  0.23151021255E+02 -0.23715910639E+02 -0.66446602446E+01  0.33802022682E+02  0.10500000000E+00 0.  1.
         13    1    4    4    0    0  0.10268308097E+02 -0.10461613297E+02 -0.28821505263E+01  0.14939923715E+02  0.10500000000E+00 0. -1.
    3000001    1    5    5    0    0 -0.25941467206E+02  0.23902746279E+02 -0.53322768197E+00  0.35292851008E+02  0.10000000000E+01 0. -1.
        -13    1    6    6    0    0 -0.12109282235E+02  0.14349087245E+02  0.54669273667E+01  0.19555800696E+02  0.10500000000E+00 0. -1.
         13    1    6    6    0    0 -0.47689514004E+01  0.56040394844E+01  0.20937883840E+01  0.76513482994E+01  0.10500000000E+00 0.  1.
</event>
<event>
11    0  0.3510903E-009  0.9118800E+02  0.7816531E-02  0.1126479E+00
         25   -1    0    0    0    0  0.00000000000E+00  0.00000000000E+00  0.99999998245E-14  0.12500000000E+03  0.12500000000E+03 0.  0.
    3000001    1    3    3    0    0 -0.26602825577E+01  0.63310100226E+00 -0.30152459652E+00  0.29272576327E+01  0.10000000000E+01 0.  1.
    1000022    2    1    0    0    0 -0.49152749287E+02 -0.13777827526E+02 -0.34647195597E+02  0.62500002611E+02  0.10000043491E+02 0.  0.
    3000022    2    3    3    0    0 -0.46492466729E+02 -0.14410928529E+02 -0.34345671000E+02  0.59572744978E+02  0.25000829682E+00 0.  0.
    1000022    2    1    0    0    0  0.49152749287E+02  0.13777827526E+02  0.34647195597E+02  0.62499997389E+02  0.10000010859E+02 0.  0.
    3000022    2    5    5    0    0  0.19094499853E+02  0.17857940629E+01  0.89539418703E+01  0.21166590650E+02  0.24999935187E+00 0.  0.
        -13    1    4    4    0    0 -0.24551859544E+02 -0.75398010901E+01 -0.18130053251E+02  0.31438070288E+02  0.10500000000E+00 0.  1.
         13    1    4    4    0    0 -0.21940607185E+02 -0.68711274386E+01 -0.16215617749E+02  0.28134674690E+02  0.10500000000E+00 0. -1.
    3000001    1    5    5    0    0  0.30058249434E+02  0.11992033463E+02  0.25693253726E+02  0.41333406739E+02  0.10000000000E+01 0. -1.
        -13    1    6    6    0    0  0.13002698569E+02  0.12522135070E+01  0.61377051827E+01  0.14433317659E+02  0.10500000000E+00 0. -1.
         13    1    6    6    0    0  0.60918012838E+01  0.53358055599E+00  0.28162366875E+01  0.67332729910E+01  0.10500000000E+00 0.  1.
</event>
<event>
11    0  0.3510903E-009  0.9118800E+02  0.7816531E-02  0.1126479E+00
         25   -1    0    0    0    0  0.00000000000E+00  0.00000000000E+00  0.99999998245E-14  0.12500000000E+03  0.12500000000E+03 0.  0.
    3000001    1    3    3    0    0  0.98393570161E+01  0.82034131575E+01 -0.32235997467E+02  0.34702571470E+02  0.10000000000E+01 0.  1.
    1000022    2    1    0    0    0  0.12784201413E+02  0.76407217586E+01 -0.59870139154E+02  0.62499999673E+02  0.99999981009E+01 0.  0.
    3000022    2    3    3    0    0  0.29448443970E+01 -0.56269139888E+00 -0.27634141687E+02  0.27797428203E+02  0.24999558535E+00 0.  0.
    1000022    2    1    0    0    0 -0.12784201413E+02 -0.76407217586E+01  0.59870139154E+02  0.62500000327E+02  0.10000002190E+02 0.  0.
    3000022    2    5    5    0    0 -0.12054196621E+00  0.19697656642E+01  0.76557450027E+01  0.79099582344E+01  0.25000117430E+00 0.  0.
        -13    1    4    4    0    0  0.12037320877E+01 -0.17943180772E+00 -0.10859122708E+02  0.10927613541E+02  0.10500000000E+00 0.  1.
         13    1    4    4    0    0  0.17411123093E+01 -0.38325959116E+00 -0.16775018979E+02  0.16869814662E+02  0.10500000000E+00 0. -1.
    3000001    1    5    5    0    0 -0.12663659447E+02 -0.96104874228E+01  0.52214394151E+02  0.54590042093E+02  0.10000000000E+01 0. -1.
        -13    1    6    6    0    0 -0.11605753440E+00  0.91911879932E+00  0.37144188538E+01  0.38296450410E+01  0.10500000000E+00 0. -1.
         13    1    6    6    0    0 -0.44844318052E-02  0.10506468648E+01  0.39413261489E+01  0.40803131934E+01  0.10500000000E+00 0.  1.
</event>
<event>
11    0  0.3510903E-009  0.9118800E+02  0.7816531E-02  0.1126479E+00
         25   -1    0    0    0    0  0.00000000000E+00  0.00000000000E+00  0.99999998245E-14  0.12500000000E+03  0.12500000000E+03 0.  0.
    3000001    1    3    3    0    0  0.26230146322E+02 -0.63452458576E+01  0.50750796356E+00  0.27010003432E+02  0.10000000000E+01 0.  1.
    1000022    2    1    0    0    0  0.57792067432E+02 -0.19866479509E+02 -0.84646104583E+01  0.62500002442E+02  0.10000030443E+02 0.  0.
    3000022    2    3    3    0    0  0.31561921111E+02 -0.13521233652E+02 -0.89721184218E+01  0.35489999011E+02  0.24999424638E+00 0.  0.
    1000022    2    1    0    0    0 -0.57792067432E+02  0.19866479509E+02  0.84646104583E+01  0.62499997558E+02  0.99999999142E+01 0.  0.
    3000022    2    5    5    0    0 -0.40335790380E+02  0.90261221627E+01  0.49539167125E+01  0.41629925049E+02  0.25000385160E+00 0.  0.
        -13    1    4    4    0    0  0.12879676075E+02 -0.55586649234E+01 -0.37188605289E+01  0.14512951463E+02  0.10500000000E+00 0. -1.
         13    1    4    4    0    0  0.18682245036E+02 -0.79625687285E+01 -0.52532578929E+01  0.20977047548E+02  0.10500000000E+00 0.  1.
    3000001    1    5    5    0    0 -0.17456277053E+02  0.10840357347E+02  0.35106937458E+01  0.20870072509E+02  0.10000000000E+01 0.  1.
        -13    1    6    6    0    0 -0.17243851843E+02  0.37942180113E+01  0.21337511822E+01  0.17785118380E+02  0.10500000000E+00 0. -1.
         13    1    6    6    0    0 -0.23091938537E+02  0.52319041514E+01  0.28201655303E+01  0.23844806669E+02  0.10500000000E+00 0.  1.
</event>
<event>
11    0  0.3510903E-009  0.9118800E+02  0.7816531E-02  0.1126479E+00
         25   -1    0    0    0    0  0.00000000000E+00  0.00000000000E+00  0.99999998245E-14  0.12500000000E+03  0.12500000000E+03 0.  0.
    3000001    1    3    3    0    0  0.32617572209E+02 -0.48311402784E+02 -0.17165651055E+02  0.60774643001E+02  0.10000000000E+01 0.  1.
    1000022    2    1    0    0    0  0.32135843450E+02 -0.49909869529E+02 -0.16809000510E+02  0.62500000125E+02  0.10000000347E+02 0.  0.
    3000022    2    3    3    0    0 -0.48172875935E+00 -0.15984667445E+01  0.35665054504E+00  0.17253571242E+01  0.24999812772E+00 0.  0.
    1000022    2    1    0    0    0 -0.32135843450E+02  0.49909869529E+02  0.16809000510E+02  0.62499999875E+02  0.99999987794E+01 0.  0.
    3000022    2    5    5    0    0 -0.16426537243E+02  0.30443320262E+02  0.54924852947E+01  0.35026515231E+02  0.25000027750E+00 0.  0.
        -13    1    4    4    0    0 -0.32580216763E+00 -0.90357699370E+00  0.16296607421E+00  0.97988845147E+00  0.10500000000E+00 0. -1.
         13    1    4    4    0    0 -0.15592659172E+00 -0.69488975081E+00  0.19368447083E+00  0.74546867273E+00  0.10500000000E+00 0.  1.
    3000001    1    5    5    0    0 -0.15709306207E+02  0.19466549267E+02  0.11316515215E+02  0.27473484644E+02  0.10000000000E+01 0.  1.
        -13    1    6    6    0    0 -0.69742999239E+01  0.13037183699E+02  0.23089534148E+01  0.14965002810E+02  0.10500000000E+00 0.  1.
         13    1    6    6    0    0 -0.94522373188E+01  0.17406136563E+02  0.31835318800E+01  0.20061512421E+02  0.10500000000E+00 0. -1.
</event>
<event>
11    0  0.3510903E-009  0.9118800E+02  0.7816531E-02  0.1126479E+00
         25   -1    0    0    0    0  0.00000000000E+00  0.00000000000E+00  0.99999998245E-14  0.12500000000E+03  0.12500000000E+03 0.  0.
    3000001    1    3    3    0    0  0.16893697342E+02 -0.55379428454E+02 -0.18656757427E+02  0.60838743441E+02  0.10000000000E+01 0. -1.
    1000022    2    1    0    0    0  0.16407973559E+02 -0.56728914611E+02 -0.17856616566E+02  0.62499999802E+02  0.99999935431E+01 0.  0.
    3000022    2    3    3    0    0 -0.48572378325E+00 -0.13494861568E+01  0.80014086122E+00  0.16612563613E+01  0.25001363749E+00 0.  0.
    1000022    2    1    0    0    0 -0.16407973559E+02  0.56728914611E+02  0.17856616566E+02  0.62500000198E+02  0.99999960121E+01 0.  0.
    3000022    2    5    5    0    0 -0.10796425141E+02  0.29026973570E+02  0.47670132202E+01  0.31335521558E+02  0.25001168578E+00 0.  0.
        -13    1    4    4    0    0 -0.10387256969E+00 -0.33600183728E+00  0.22477742444E+00  0.43039125912E+00  0.10500000000E+00 0. -1.
         13    1    4    4    0    0 -0.38185121356E+00 -0.10134843196E+01  0.57536343678E+00  0.12308651021E+01  0.10500000000E+00 0.  1.
    3000001    1    5    5    0    0 -0.56115484179E+01  0.27701941041E+02  0.13089603346E+02  0.31164478639E+02  0.10000000000E+01 0. -1.
        -13    1    6    6    0    0 -0.83023436620E+01  0.22340306463E+02  0.36725574297E+01  0.24114661644E+02  0.10500000000E+00 0.  1.
         13    1    6    6    0    0 -0.24940814794E+01  0.66866671068E+01  0.10944557906E+01  0.72208599142E+01  0.10500000000E+00 0. -1.
</event>
<event>
11    0  0.3510903E-009  0.9118800E+02  0.7816531E-02  0.1126479E+00
         25   -1    0    0    0    0  0.00000000000E+00  0.00000000000E+00  0.99999998245E-14  0.12500000000E+03  0.12500000000E+03 0.  0.
    3000001    1    3    3    0    0  0.11546179705E+02  0.37031346032E+01 -0.19262996933E+02  0.22783558162E+02  0.10000000000E+01 0.  1.
    1000022    2    1    0    0    0  0.24253616360E+02  0.19754641814E+00 -0.56727182200E+02  0.62500000190E+02  0.99999946142E+01 0.  0.
    3000022    2    3    3    0    0  0.12707436655E+02 -0.35055881851E+01 -0.37464185267E+02  0.39716442028E+02  0.24998961260E+00 0.  0.
    1000022    2    1    0    0    0 -0.24253616360E+02 -0.19754641814E+00  0.56727182200E+02  0.62499999810E+02  0.99999922423E+01 0.  0.
    3000022    2    5    5    0    0 -0.17596695207E+02 -0.45441737951E+01  0.37619363545E+02  0.41780045599E+02  0.24999800726E+00 0.  0.
        -13    1    4    4    0    0  0.75696971593E+01 -0.21384049334E+01 -0.22230322919E+02  0.23581165638E+02  0.10500000000E+00 0. -1.
         13    1    4    4    0    0  0.51377394954E+01 -0.13671832517E+01 -0.15233862348E+02  0.16135276390E+02  0.10500000000E+00 0.  1.
    3000001    1    5    5    0    0 -0.66569211521E+01  0.43466273769E+01  0.19107818655E+02  0.20719954212E+02  0.10000000000E+01 0.  1.
        -13    1    6    6    0    0 -0.86383261653E+01 -0.21894389292E+01  0.18320501435E+02  0.20373171564E+02  0.10500000000E+00 0. -1.
         13    1    6    6    0    0 -0.89583690422E+01 -0.23547348658E+01  0.19298862110E+02  0.21406874034E+02  0.10500000000E+00 0.  1.
</event>
<event>
11    0  0.3510903E-009  0.9118800E+02  0.7816531E-02  0.1126479E+00
         25   -1    0    0    0    0  0.00000000000E+00  0.00000000000E+00  0.99999998245E-14  0.12500000000E+03  0.12500000000E+03 0.  0.
    3000001    1    3    3    0    0 -0.99164272379E+01 -0.42601017295E+01  0.66814886571E+01  0.12732882100E+02  0.10000000000E+01 0.  1.
    1000022    2    1    0    0    0 -0.57592146938E+02 -0.97629348674E+01  0.19851442627E+02  0.62499995800E+02  0.99999707260E+01 0.  0.
    3000022    2    3    3    0    0 -0.47675719700E+02 -0.55028331379E+01  0.13169953970E+02  0.49767113700E+02  0.24999397235E+00 0.  0.
    1000022    2    1    0    0    0  0.57592146938E+02  0.97629348674E+01 -0.19851442627E+02  0.62500004200E+02  0.10000023222E+02 0.  0.
    3000022    2    5    5    0    0  0.39814123909E+02  0.61504638814E+01 -0.18349456484E+02  0.44269150906E+02  0.25000018233E+00 0.  0.
        -13    1    4    4    0    0 -0.23946269718E+02 -0.27280899052E+01  0.66736473565E+01  0.25008296663E+02  0.10500000000E+00 0.  1.
         13    1    4    4    0    0 -0.23729449982E+02 -0.27747432327E+01  0.64963066138E+01  0.24758817037E+02  0.10500000000E+00 0. -1.
    3000001    1    5    5    0    0  0.17778023029E+02  0.36124709859E+01 -0.15019861435E+01  0.18230853293E+02  0.10000000000E+01 0. -1.
        -13    1    6    6    0    0  0.25783896296E+02  0.40321903113E+01 -0.11853955236E+02  0.28663481063E+02  0.10500000000E+00 0.  1.
         13    1    6    6    0    0  0.14030227613E+02  0.21182735701E+01 -0.64955012481E+01  0.15605669844E+02  0.10500000000E+00 0. -1.
</event>
<event>
11    0  0.3510903E-009  0.9118800E+02  0.7816531E-02  0.1126479E+00
         25   -1    0    0    0    0  0.00000000000E+00  0.00000000000E+00  0.99999998245E-14  0.12500000000E+03  0.12500000000E+03 0.  0.
    3000001    1    3    3    0    0  0.27911720291E+02 -0.69571033269E+01  0.26022007819E+02  0.38802194619E+02  0.10000000000E+01 0.  1.
    1000022    2    1    0    0    0  0.48952859902E+02 -0.12500510798E+02  0.35406281573E+02  0.62500000741E+02  0.10000002751E+02 0.  0.
    3000022    2    3    3    0    0  0.21041139611E+02 -0.55434074709E+01  0.93842737540E+01  0.23697806122E+02  0.24999719790E+00 0.  0.
    1000022    2    1    0    0    0 -0.48952859902E+02  0.12500510798E+02 -0.35406281573E+02  0.62499999259E+02  0.99999934884E+01 0.  0.
    3000022    2    5    5    0    0 -0.44910807573E+02  0.10109769666E+02 -0.34696641455E+02  0.57646400668E+02  0.25000420672E+00 0.  0.
        -13    1    4    4    0    0  0.53703127825E+01 -0.13879529095E+01  0.24066925259E+01  0.60473024213E+01  0.10500000000E+00 0. -1.
         13    1    4    4    0    0  0.15670826828E+02 -0.41554545614E+01  0.69775812281E+01  0.17650503701E+02  0.10500000000E+00 0.  1.
    3000001    1    5    5    0    0 -0.40420523285E+01  0.23907411319E+01 -0.70964011772E+00  0.48535985910E+01  0.10000000000E+01 0. -1.
        -13    1    6    6    0    0 -0.16924393233E+02  0.37570072238E+01 -0.13106123064E+02  0.21733192963E+02  0.10500000000E+00 0. -1.
         13    1    6    6    0    0 -0.27986414340E+02  0.63527624420E+01 -0.21590518392E+02  0.35913207705E+02  0.10500000000E+00 0.  1.
</event>
<event>
11    0  0.3510903E-009  0.9118800E+02  0.7816531E-02  0.1126479E+00
         25   -1    0    0    0    0  0.00000000000E+00  0.00000000000E+00  0.99999998245E-14  0.12500000000E+03  0.12500000000E+03 0.  0.
    3000001    1    3    3    0    0 -0.95465550309E+01  0.32503974478E+02  0.26296561166E+02  0.42897018532E+02  0.10000000000E+01 0. -1.
    1000022    2    1    0    0    0 -0.78554482097E+01  0.45714273018E+02  0.40678583889E+02  0.62500000373E+02  0.10000001766E+02 0.  0.
    3000022    2    3    3    0    0  0.16911068211E+01  0.13210298540E+02  0.14382022724E+02  0.19602981841E+02  0.24997929540E+00 0.  0.
    1000022    2    1    0    0    0  0.78554482097E+01 -0.45714273018E+02 -0.40678583889E+02  0.62499999627E+02  0.99999970998E+01 0.  0.
    3000022    2    5    5    0    0 -0.35054247273E+00  0.28629663731E+00 -0.12495988331E+01  0.13523459169E+01  0.24999289066E+00 0.  0.
        -13    1    4    4    0    0  0.85911919071E+00  0.70899234229E+01  0.76428962710E+01  0.10460878947E+02  0.10500000000E+00 0. -1.
         13    1    4    4    0    0  0.83198763041E+00  0.61203751170E+01  0.67391264527E+01  0.91421028946E+01  0.10500000000E+00 0.  1.
    3000001    1    5    5    0    0  0.82059906825E+01 -0.46000569655E+02 -0.39428985056E+02  0.61147653710E+02  0.10000000000E+01 0. -1.
        -13    1    6    6    0    0 -0.71885318068E-01  0.49425438740E-01 -0.32287789900E+00  0.35055029684E+00  0.10500000000E+00 0.  1.
         13    1    6    6    0    0 -0.27865715466E+00  0.23687119857E+00 -0.92672093415E+00  0.10017956200E+01  0.10500000000E+00 0. -1.
</event>
<event>
11    0  0.3510903E-009  0.9118800E+02  0.7816531E-02  0.1126479E+00
         25   -1    0    0    0    0  0.00000000000E+00  0.00000000000E+00  0.99999998245E-14  0.12500000000E+03  0.12500000000E+03 0.  0.
    3000001    1    3    3    0    0 -0.25106053892E+01  0.55674895550E+01  0.34682814117E+01  0.70942973800E+01  0.10000000000E+01 0.  1.
    1000022    2    1    0    0    0 -0.43331787122E+02  0.32945757486E+02  0.29037617639E+02  0.62500000091E+02  0.10000003084E+02 0.  0.
    3000022    2    3    3    0    0 -0.40821181732E+02  0.27378267931E+02  0.25569336228E+02  0.55405702711E+02  0.25000962248E+00 0.  0.
    1000022    2    1    0    0    0  0.43331787122E+02 -0.32945757486E+02 -0.29037617639E+02  0.62499999909E+02  0.10000001953E+02 0.  0.
    3000022    2    5    5    0    0  0.16768279521E+02 -0.18938011732E+02 -0.13023602715E+02  0.28451717263E+02  0.25000221059E+00 0.  0.
        -13    1    4    4    0    0 -0.18977831297E+02  0.12765445493E+02  0.11830696933E+02  0.25750555223E+02  0.10500000000E+00 0. -1.
         13    1    4    4    0    0 -0.21843350436E+02  0.14612822438E+02  0.13738639295E+02  0.29655147488E+02  0.10500000000E+00 0.  1.
    3000001    1    5    5    0    0  0.26563507600E+02 -0.14007745754E+02 -0.16014014924E+02  0.34048282646E+02  0.10000000000E+01 0.  1.
        -13    1    6    6    0    0  0.10569711850E+02 -0.12006524289E+02 -0.81936348956E+01  0.17972815914E+02  0.10500000000E+00 0. -1.
         13    1    6    6    0    0  0.61985676711E+01 -0.69314874432E+01 -0.48299678193E+01  0.10478901349E+02  0.10500000000E+00 0.  1.
</event>
<event>
11    0  0.3510903E-009  0.9118800E+02  0.7816531E-02  0.1126479E+00
         25   -1    0    0    0    0  0.00000000000E+00  0.00000000000E+00  0.99999998245E-14  0.12500000000E+03  0.12500000000E+03 0.  0.
    3000001    1    3    3    0    0 -0.99944698763E+01  0.26873751058E+02  0.14542761740E+02  0.32164885249E+02  0.10000000000E+01 0. -1.
    1000022    2    1    0    0    0 -0.27287465459E+02  0.50284858674E+02  0.23088463798E+02  0.62499999872E+02  0.10000002021E+02 0.  0.
    3000022    2    3    3    0    0 -0.17292995583E+02  0.23411107616E+02  0.85457020575E+01  0.30335114624E+02  0.24999903047E+00 0.  0.
    1000022    2    1    0    0    0  0.27287465459E+02 -0.50284858674E+02 -0.23088463798E+02  0.62500000128E+02  0.10000003617E+02 0.  0.
    3000022    2    5    5    0    0  0.13581327479E+02 -0.34798076317E+02 -0.14094106399E+02  0.39925742418E+02  0.25000204649E+00 0.  0.
        -13    1    4    4    0    0 -0.54483057014E+01  0.74602543580E+01  0.27109146313E+01  0.96280586433E+01  0.10500000000E+00 0. -1.
         13    1    4    4    0    0 -0.11844689882E+02  0.15950853258E+02  0.58347874262E+01  0.20707055980E+02  0.10500000000E+00 0.  1.
    3000001    1    5    5    0    0  0.13706137980E+02 -0.15486782358E+02 -0.89943573984E+01  0.22574257709E+02  0.10000000000E+01 0. -1.
        -13    1    6    6    0    0  0.89741307767E+01 -0.22859804094E+02 -0.92378328562E+01  0.26238411676E+02  0.10500000000E+00 0. -1.
         13    1    6    6    0    0  0.46071967028E+01 -0.11938272222E+02 -0.48562735430E+01  0.13687330742E+02  0.10500000000E+00 0.  1.
</event>
<event>
11    0  0.3510903E-009  0.9118800E+02  0.7816531E-02  0.1126479E+00
         25   -1    0    0    0    0  0.00000000000E+00  0.00000000000E+00  0.99999998245E-14  0.12500000000E+03  0.12500000000E+03 0.  0.
    3000001    1    3    3    0    0 -0.42012526343E+02 -0.25723724808E+02  0.31193365929E+02  0.58316279595E+02  0.10000000000E+01 0. -1.
    1000022    2    1    0    0    0 -0.45615626477E+02 -0.24996608426E+02  0.33175797131E+02  0.62500004865E+02  0.10000064053E+02 0.  0.
    3000022    2    3    3    0    0 -0.36031001340E+01  0.72711638216E+00  0.19824312017E+01  0.41837252699E+01  0.24998971134E+00 0.  0.
    1000022    2    1    0    0    0  0.45615626477E+02  0.24996608426E+02 -0.33175797131E+02  0.62499995135E+02  0.10000003246E+02 0.  0.
    3000022    2    5    5    0    0  0.35277594821E+02  0.23058460613E+02 -0.23962644905E+02  0.48481668223E+02  0.25000135422E+00 0.  0.
        -13    1    4    4    0    0 -0.22628509653E+01  0.39693382931E+00  0.12213299609E+01  0.26039821101E+01  0.10500000000E+00 0. -1.
         13    1    4    4    0    0 -0.13402491686E+01  0.33018255285E+00  0.76110124089E+00  0.15797431599E+01  0.10500000000E+00 0.  1.
    3000001    1    5    5    0    0  0.10338031657E+02  0.19381478130E+01 -0.92131522262E+01  0.14018326912E+02  0.10000000000E+01 0. -1.
        -13    1    6    6    0    0  0.23774097930E+02  0.15487024630E+02 -0.16164859553E+02  0.32655311569E+02  0.10500000000E+00 0. -1.
         13    1    6    6    0    0  0.11503496891E+02  0.75714359829E+01 -0.77977853515E+01  0.15826356654E+02  0.10500000000E+00 0.  1.
</event>
<event>
11    0  0.3510903E-009  0.9118800E+02  0.7816531E-02  0.1126479E+00
         25   -1    0    0    0    0  0.00000000000E+00  0.00000000000E+00  0.99999998245E-14  0.12500000000E+03  0.12500000000E+03 0.  0.
    3000001    1    3    3    0    0 -0.26509872105E+02  0.52626507095E+01 -0.16127647812E+02  0.31489201887E+02  0.10000000000E+01 0. -1.
    1000022    2    1    0    0    0 -0.55090061679E+02  0.14743811709E+02 -0.23536251555E+02  0.62499999442E+02  0.99999956731E+01 0.  0.
    3000022    2    3    3    0    0 -0.28580189574E+02  0.94811609992E+01 -0.74086037424E+01  0.31010797555E+02  0.25001119209E+00 0.  0.
    1000022    2    1    0    0    0  0.55090061679E+02 -0.14743811709E+02  0.23536251555E+02  0.62500000558E+02  0.10000002651E+02 0.  0.
    3000022    2    5    5    0    0  0.30228625910E+02 -0.54619837855E+01  0.17166855562E+02  0.35190432209E+02  0.24999579355E+00 0.  0.
        -13    1    4    4    0    0 -0.15016131908E+02  0.49284324605E+01 -0.39348098720E+01  0.16287032195E+02  0.10500000000E+00 0. -1.
         13    1    4    4    0    0 -0.13564057666E+02  0.45527285387E+01 -0.34737938703E+01  0.14723765360E+02  0.10500000000E+00 0.  1.
    3000001    1    5    5    0    0  0.24861435769E+02 -0.92818279231E+01  0.63693959924E+01  0.27309568349E+02  0.10000000000E+01 0. -1.
        -13    1    6    6    0    0  0.73055252906E+01 -0.13005704102E+01  0.41559625592E+01  0.85056000939E+01  0.10500000000E+00 0.  1.
         13    1    6    6    0    0  0.22923100619E+02 -0.41614133753E+01  0.13010893003E+02  0.26684832115E+02  0.10500000000E+00 0. -1.
</event>
<event>
11    0  0.3510903E-009  0.9118800E+02  0.7816531E-02  0.1126479E+00
         25   -1    0    0    0    0  0.00000000000E+00  0.00000000000E+00  0.99999998245E-14  0.12500000000E+03  0.12500000000E+03 0.  0.
    3000001    1    3    3    0    0  0.38476768903E+02 -0.17456081886E+02  0.14725379275E+02  0.44755036977E+02  0.10000000000E+01 0. -1.
    1000022    2    1    0    0    0  0.55837298695E+02 -0.19079953298E+02  0.18011150154E+02  0.62500000794E+02  0.10000001296E+02 0.  0.
    3000022    2    3    3    0    0  0.17360529792E+02 -0.16238714113E+01  0.32857708792E+01  0.17744963816E+02  0.24999510480E+00 0.  0.
    1000022    2    1    0    0    0 -0.55837298695E+02  0.19079953298E+02 -0.18011150154E+02  0.62499999206E+02  0.99999913757E+01 0.  0.
    3000022    2    5    5    0    0 -0.10745411266E+02  0.37468241990E+01  0.49551743637E+00  0.11393444782E+02  0.24998321185E+00 0.  0.
        -13    1    4    4    0    0  0.95639240524E+01 -0.89184090193E+00  0.17423199065E+01  0.97627212974E+01  0.10500000000E+00 0.  1.
         13    1    4    4    0    0  0.77966057394E+01 -0.73203050933E+00  0.15434509727E+01  0.79822425187E+01  0.10500000000E+00 0. -1.
    3000001    1    5    5    0    0 -0.45091887429E+02  0.15333129099E+02 -0.18506667590E+02  0.51106554425E+02  0.10000000000E+01 0. -1.
        -13    1    6    6    0    0 -0.76066477267E+01  0.26132522027E+01  0.37392489669E+00  0.80523922868E+01  0.10500000000E+00 0. -1.
         13    1    6    6    0    0 -0.31387635394E+01  0.11335719963E+01  0.12159253968E+00  0.33410524947E+01  0.10500000000E+00 0.  1.
</event>
<event>
11    0  0.3510903E-009  0.9118800E+02  0.7816531E-02  0.1126479E+00
         25   -1    0    0    0    0  0.00000000000E+00  0.00000000000E+00  0.99999998245E-14  0.12500000000E+03  0.12500000000E+03 0.  0.
    3000001    1    3    3    0    0 -0.98935933712E+01  0.36090440049E+01 -0.31010908858E+01  0.11023844752E+02  0.10000000000E+01 0.  1.
    1000022    2    1    0    0    0 -0.58778136409E+02  0.18481925602E+02  0.31303425219E+01  0.62499998654E+02  0.99999946885E+01 0.  0.
    3000022    2    3    3    0    0 -0.48884543038E+02  0.14872881597E+02  0.62314334077E+01  0.51476153903E+02  0.25000651676E+00 0.  0.
    1000022    2    1    0    0    0  0.58778136409E+02 -0.18481925602E+02 -0.31303425219E+01  0.62500001346E+02  0.10000011512E+02 0.  0.
    3000022    2    5    5    0    0  0.45260676388E+02 -0.14593825703E+02  0.17228357246E+01  0.47587175144E+02  0.24999893287E+00 0.  0.
        -13    1    4    4    0    0 -0.24847122669E+02  0.76153676039E+01  0.31271449167E+01  0.26175625857E+02  0.10500000000E+00 0. -1.
         13    1    4    4    0    0 -0.24037420369E+02  0.72575139929E+01  0.31042884910E+01  0.25300528046E+02  0.10500000000E+00 0.  1.
    3000001    1    5    5    0    0  0.13517460021E+02 -0.38880998985E+01 -0.48531782465E+01  0.14912826202E+02  0.10000000000E+01 0.  1.
        -13    1    6    6    0    0  0.30529455049E+02 -0.98389115057E+01  0.11102832151E+01  0.32095101792E+02  0.10500000000E+00 0.  1.
         13    1    6    6    0    0  0.14731221339E+02 -0.47549141975E+01  0.61255250951E+00  0.15492073352E+02  0.10500000000E+00 0. -1.
</event>
<event>
11    0  0.3510903E-009  0.9118800E+02  0.7816531E-02  0.1126479E+00
         25   -1    0    0    0    0  0.00000000000E+00  0.00000000000E+00  0.99999998245E-14  0.12500000000E+03  0.12500000000E+03 0.  0.
    3000001    1    3    3    0    0 -0.11908634597E+02  0.86876226779E+01  0.85065954854E+01  0.17048534615E+02  0.10000000000E+01 0.  1.
    1000022    2    1    0    0    0 -0.42507482469E+02  0.40917584202E+02  0.18030952087E+02  0.62500000483E+02  0.10000003219E+02 0.  0.
    3000022    2    3    3    0    0 -0.30598847872E+02  0.32229961524E+02  0.95243566016E+01  0.45451465868E+02  0.24993981898E+00 0.  0.
    1000022    2    1    0    0    0  0.42507482469E+02 -0.40917584202E+02 -0.18030952087E+02  0.62499999517E+02  0.99999971827E+01 0.  0.
    3000022    2    5    5    0    0  0.30064875213E+02 -0.30320141313E+02 -0.17413118669E+02  0.46113847154E+02  0.25001352096E+00 0.  0.
        -13    1    4    4    0    0 -0.17042424547E+02  0.17941057972E+02  0.53705815904E+01  0.25321531691E+02  0.10500000000E+00 0. -1.
         13    1    4    4    0    0 -0.13556423325E+02  0.14288903553E+02  0.41537750113E+01  0.20129934177E+02  0.10500000000E+00 0.  1.
    3000001    1    5    5    0    0  0.12442607257E+02 -0.10597442889E+02 -0.61783341754E+00  0.16386152363E+02  0.10000000000E+01 0.  1.
        -13    1    6    6    0    0  0.17727738791E+02 -0.17803244815E+02 -0.10285152896E+02  0.27148179381E+02  0.10500000000E+00 0. -1.
         13    1    6    6    0    0  0.12337136421E+02 -0.12516896498E+02 -0.71279657739E+01  0.18965667774E+02  0.10500000000E+00 0.  1.
</event>
<event>
11    0  0.3510903E-009  0.9118800E+02  0.7816531E-02  0.1126479E+00
         25   -1    0    0    0    0  0.00000000000E+00  0.00000000000E+00  0.99999998245E-14  0.12500000000E+03  0.12500000000E+03 0.  0.
    3000001    1    3    3    0    0  0.11007338409E+02  0.75711293983E+01  0.11198346729E+02  0.17460998502E+02  0.10000000000E+01 0. -1.
    1000022    2    1    0    0    0  0.48780134136E+02  0.15831607689E+02  0.34294442186E+02  0.62500000762E+02  0.10000002101E+02 0.  0.
    3000022    2    3    3    0    0  0.37772795726E+02  0.82604782909E+01  0.23096095457E+02  0.45039002260E+02  0.25000119576E+00 0.  0.
    1000022    2    1    0    0    0 -0.48780134136E+02 -0.15831607689E+02 -0.34294442186E+02  0.62499999238E+02  0.99999925781E+01 0.  0.
    3000022    2    5    5    0    0 -0.14935990966E+02 -0.50192598893E+01 -0.52861666163E+01  0.16621758825E+02  0.25002594775E+00 0.  0.
        -13    1    4    4    0    0  0.27175481798E+02  0.59763447313E+01  0.16647055250E+02  0.32424666241E+02  0.10500000000E+00 0.  1.
         13    1    4    4    0    0  0.10597313928E+02  0.22841335597E+01  0.64490402069E+01  0.12614336019E+02  0.10500000000E+00 0. -1.
    3000001    1    5    5    0    0 -0.33844143170E+02 -0.10812347800E+02 -0.29008275570E+02  0.45878240413E+02  0.10000000000E+01 0.  1.
        -13    1    6    6    0    0 -0.51424625004E+01 -0.16985051170E+01 -0.17666188751E+01  0.56975264326E+01  0.10500000000E+00 0. -1.
         13    1    6    6    0    0 -0.97935284655E+01 -0.33207547722E+01 -0.35195477412E+01  0.10924232392E+02  0.10500000000E+00 0.  1.
</event>
<event>
11    0  0.3510903E-009  0.9118800E+02  0.7816531E-02  0.1126479E+00
         25   -1    0    0    0    0  0.00000000000E+00  0.00000000000E+00  0.99999998245E-14  0.12500000000E+03  0.12500000000E+03 0.  0.
    3000001    1    3    3    0    0 -0.39672727735E+02  0.95956391467E+01 -0.25699271272E+02  0.48243695551E+02  0.10000000000E+01 0.  1.
    1000022    2    1    0    0    0 -0.51862704353E+02  0.16039809402E+02 -0.29312702617E+02  0.62500001138E+02  0.10000000953E+02 0.  0.
    3000022    2    3    3    0    0 -0.12189976618E+02  0.64441702554E+01 -0.36134313450E+01  0.14256305587E+02  0.25000531262E+00 0.  0.
    1000022    2    1    0    0    0  0.51862704353E+02 -0.16039809402E+02  0.29312702617E+02  0.62499998862E+02  0.99999867272E+01 0.  0.
    3000022    2    5    5    0    0  0.56567484812E+01 -0.12539668780E+01 -0.18784708209E-01  0.57994905230E+01  0.25000229896E+00 0.  0.
        -13    1    4    4    0    0 -0.58912779825E+01  0.31878961938E+01 -0.17751153568E+01  0.69305048834E+01  0.10500000000E+00 0.  1.
         13    1    4    4    0    0 -0.62986986360E+01  0.32562740616E+01 -0.18383159882E+01  0.73258007033E+01  0.10500000000E+00 0. -1.
    3000001    1    5    5    0    0  0.46205955872E+02 -0.14785842524E+02  0.29331487325E+02  0.56700508339E+02  0.10000000000E+01 0.  1.
        -13    1    6    6    0    0  0.24338173594E+01 -0.51529488750E+00  0.53002435328E-01  0.24905481360E+01  0.10500000000E+00 0. -1.
         13    1    6    6    0    0  0.32229311219E+01 -0.73867199053E+00 -0.71787143538E-01  0.33089423869E+01  0.10500000000E+00 0.  1.
</event>
<event>
11    0  0.3510903E-009  0.9118800E+02  0.7816531E-02  0.1126479E+00
         25   -1    0    0    0    0  0.00000000000E+00  0.00000000000E+00  0.99999998245E-14  0.12500000000E+03  0.12500000000E+03 0.  0.
    3000001    1    3    3    0    0  0.49639846934E+02 -0.36012127699E+02 -0.11577700152E+00  0.61335154271E+02  0.10000000000E+01 0.  1.
    1000022    2    1    0    0    0  0.49886235315E+02 -0.36279309268E+02 -0.11938603901E+01  0.62499999470E+02  0.99999938140E+01 0.  0.
    3000022    2    3    3    0    0  0.24638838047E+00 -0.26718156902E+00 -0.10780833886E+01  0.11648451996E+01  0.25001464232E+00 0.  0.
    1000022    2    1    0    0    0 -0.49886235315E+02  0.36279309268E+02  0.11938603901E+01  0.62500000530E+02  0.10000000437E+02 0.  0.
    3000022    2    5    5    0    0 -0.27471243252E+01 -0.18953464244E+00  0.84538085272E+00  0.28913283499E+01  0.24999080317E+00 0.  0.
        -13    1    4    4    0    0  0.20944029370E+00 -0.17170452134E+00 -0.78731179577E+00  0.83918564278E+00  0.10500000000E+00 0.  1.
         13    1    4    4    0    0  0.36948086770E-01 -0.95477047677E-01 -0.29077159280E+00  0.32565955679E+00  0.10500000000E+00 0. -1.
    3000001    1    5    5    0    0 -0.47139110990E+02  0.36468843911E+02  0.34847953737E+00  0.59608672180E+02  0.10000000000E+01 0.  1.
        -13    1    6    6    0    0 -0.75063093598E+00 -0.89674366990E-01  0.23661598311E+00  0.79906221135E+00  0.10500000000E+00 0.  1.
         13    1    6    6    0    0 -0.19964933893E+01 -0.99860275453E-01  0.60876486960E+00  0.20922661385E+01  0.10500000000E+00 0. -1.
</event>
<event>
11    0  0.3510903E-009  0.9118800E+02  0.7816531E-02  0.1126479E+00
         25   -1    0    0    0    0  0.00000000000E+00  0.00000000000E+00  0.99999998245E-14  0.12500000000E+03  0.12500000000E+03 0.  0.
    3000001    1    3    3    0    0 -0.47253788879E+02 -0.59630371282E+01 -0.10319904449E+02  0.48744012997E+02  0.10000000000E+01 0.  1.
    1000022    2    1    0    0    0 -0.59276054083E+02 -0.12505560451E+02 -0.11670913228E+02  0.62500000693E+02  0.10000012061E+02 0.  0.
    3000022    2    3    3    0    0 -0.12022265204E+02 -0.65425233227E+01 -0.13510087782E+01  0.13755987696E+02  0.25000141876E+00 0.  0.
    1000022    2    1    0    0    0  0.59276054083E+02  0.12505560451E+02  0.11670913228E+02  0.62499999307E+02  0.10000003401E+02 0.  0.
    3000022    2    5    5    0    0  0.19263302720E+02  0.88553443821E+01  0.44668102558E+01  0.21668106765E+02  0.25000220587E+00 0.  0.
        -13    1    4    4    0    0 -0.48334982296E+01 -0.26265879346E+01 -0.60648824146E+00  0.55353881798E+01  0.10500000000E+00 0.  1.
         13    1    4    4    0    0 -0.71887669744E+01 -0.39159353881E+01 -0.74452053673E+00  0.82205995162E+01  0.10500000000E+00 0. -1.
    3000001    1    5    5    0    0  0.40012751363E+02  0.36502160687E+01  0.72041029719E+01  0.40831892542E+02  0.10000000000E+01 0. -1.
        -13    1    6    6    0    0  0.14237929176E+02  0.65308998874E+01  0.33302050678E+01  0.16014761045E+02  0.10500000000E+00 0. -1.
         13    1    6    6    0    0  0.50253735446E+01  0.23244444947E+01  0.11366051880E+01  0.56533457196E+01  0.10500000000E+00 0.  1.
</event>
<event>
11    0  0.3510903E-009  0.9118800E+02  0.7816531E-02  0.1126479E+00
         25   -1    0    0    0    0  0.00000000000E+00  0.00000000000E+00  0.99999998245E-14  0.12500000000E+03  0.12500000000E+03 0.  0.
    3000001    1    3    3    0    0 -0.18826778206E+02 -0.57424001663E+01  0.23330364363E+02  0.30540606389E+02  0.10000000000E+01 0. -1.
    1000022    2    1    0    0    0 -0.44357469646E+02 -0.15038997221E+02  0.40155864177E+02  0.62500000539E+02  0.10000004438E+02 0.  0.
    3000022    2    3    3    0    0 -0.25530691441E+02 -0.92965970551E+01  0.16825499814E+02  0.31959394151E+02  0.25001648880E+00 0.  0.
    1000022    2    1    0    0    0  0.44357469646E+02  0.15038997221E+02 -0.40155864177E+02  0.62499999461E+02  0.99999976953E+01 0.  0.
    3000022    2    5    5    0    0  0.37175452621E+02  0.13771957668E+02 -0.28940154589E+02  0.49084377994E+02  0.25003957647E+00 0.  0.
        -13    1    4    4    0    0 -0.16223900951E+02 -0.58492346329E+01  0.10704470651E+02  0.20298404488E+02  0.10500000000E+00 0. -1.
         13    1    4    4    0    0 -0.93067904900E+01 -0.34473624223E+01  0.61210291632E+01  0.11660989663E+02  0.10500000000E+00 0.  1.
    3000001    1    5    5    0    0  0.71820170252E+01  0.12670395535E+01 -0.11215709588E+02  0.13415621467E+02  0.10000000000E+01 0.  1.
        -13    1    6    6    0    0  0.15695416571E+02  0.58594344532E+01 -0.12168629230E+02  0.20706656799E+02  0.10500000000E+00 0.  1.
         13    1    6    6    0    0  0.21480036050E+02  0.79125232148E+01 -0.16771525359E+02  0.28377721195E+02  0.10500000000E+00 0. -1.
</event>
<event>
11    0  0.3510903E-009  0.9118800E+02  0.7816531E-02  0.1126479E+00
         25   -1    0    0    0    0  0.00000000000E+00  0.00000000000E+00  0.99999998245E-14  0.12500000000E+03  0.12500000000E+03 0.  0.
    3000001    1    3    3    0    0  0.14338184153E+02 -0.19555317215E+01 -0.45356461639E+02  0.47619494343E+02  0.10000000000E+01 0. -1.
    1000022    2    1    0    0    0  0.22116672910E+02  0.14413221640E+01 -0.57576255360E+02  0.62499997197E+02  0.99999919091E+01 0.  0.
    3000022    2    3    3    0    0  0.77784887562E+01  0.33968538855E+01 -0.12219793721E+02  0.14880502854E+02  0.25000587786E+00 0.  0.
    1000022    2    1    0    0    0 -0.22116672910E+02 -0.14413221640E+01  0.57576255360E+02  0.62500002803E+02  0.10000026947E+02 0.  0.
    3000022    2    5    5    0    0 -0.14302946679E+02 -0.29793836085E+01  0.25070304029E+02  0.29017816158E+02  0.25000016931E+00 0.  0.
        -13    1    4    4    0    0  0.25076629368E+01  0.11514381481E+01 -0.39654215999E+01  0.48321606635E+01  0.10500000000E+00 0. -1.
         13    1    4    4    0    0  0.52708258194E+01  0.22454157375E+01 -0.82543721215E+01  0.10048342190E+02  0.10500000000E+00 0.  1.
    3000001    1    5    5    0    0 -0.78137262306E+01  0.15380614444E+01  0.32505951331E+02  0.33482186645E+02  0.10000000000E+01 0.  1.
        -13    1    6    6    0    0 -0.55675559091E+01 -0.12223199135E+01  0.98008037300E+01  0.11338365117E+02  0.10500000000E+00 0. -1.
         13    1    6    6    0    0 -0.87353907698E+01 -0.17570636950E+01  0.15269500299E+02  0.17679451041E+02  0.10500000000E+00 0.  1.
</event>
<event>
11    0  0.3510903E-009  0.9118800E+02  0.7816531E-02  0.1126479E+00
         25   -1    0    0    0    0  0.00000000000E+00  0.00000000000E+00  0.99999998245E-14  0.12500000000E+03  0.12500000000E+03 0.  0.
    3000001    1    3    3    0    0 -0.12758910705E+02  0.26279628674E+02  0.99831626496E+01  0.30888059539E+02  0.10000000000E+01 0. -1.
    1000022    2    1    0    0    0 -0.29810327275E+02  0.52876756016E+02  0.11029195770E+02  0.62499998636E+02  0.99999865595E+01 0.  0.
    3000022    2    3    3    0    0 -0.17051416570E+02  0.26597127342E+02  0.10460331201E+01  0.31611939097E+02  0.25003656070E+00 0.  0.
    1000022    2    1    0    0    0  0.29810327275E+02 -0.52876756016E+02 -0.11029195770E+02  0.62500001364E+02  0.10000003606E+02 0.  0.
    3000022    2    5    5    0    0  0.41915527974E+01 -0.12901104235E+02 -0.56824261546E+01  0.14709183351E+02  0.25000500241E+00 0.  0.
        -13    1    4    4    0    0 -0.59098992585E+01  0.93188336025E+01  0.38100534375E+00  0.11041909211E+02  0.10500000000E+00 0.  1.
         13    1    4    4    0    0 -0.11141517312E+02  0.17278293739E+02  0.66502777632E+00  0.20570029886E+02  0.10500000000E+00 0. -1.
    3000001    1    5    5    0    0  0.25618774478E+02 -0.39975651781E+02 -0.53467696150E+01  0.47790818013E+02  0.10000000000E+01 0. -1.
        -13    1    6    6    0    0  0.28464184878E+01 -0.85944941817E+01 -0.37767183143E+01  0.98103034954E+01  0.10500000000E+00 0.  1.
         13    1    6    6    0    0  0.13451343096E+01 -0.43066100537E+01 -0.19057078403E+01  0.48988798554E+01  0.10500000000E+00 0. -1.
</event>
<event>
11    0  0.3510903E-009  0.9118800E+02  0.7816531E-02  0.1126479E+00
         25   -1    0    0    0    0  0.00000000000E+00  0.00000000000E+00  0.99999998245E-14  0.12500000000E+03  0.12500000000E+03 0.  0.
    3000001    1    3    3    0    0 -0.24570245242E+02 -0.51366959098E+01 -0.17466715341E+02  0.30596874692E+02  0.10000000000E+01 0.  1.
    1000022    2    1    0    0    0 -0.47636607056E+02 -0.20059078115E+02 -0.33684370215E+02  0.62499999414E+02  0.10000009167E+02 0.  0.
    3000022    2    3    3    0    0 -0.23066361814E+02 -0.14922382206E+02 -0.16217654874E+02  0.31903124722E+02  0.24999878730E+00 0.  0.
    1000022    2    1    0    0    0  0.47636607056E+02  0.20059078115E+02  0.33684370215E+02  0.62500000586E+02  0.10000016498E+02 0.  0.
    3000022    2    5    5    0    0  0.10856131612E+02  0.72727195575E+01  0.44820296824E+01  0.13816625277E+02  0.25000123218E+00 0.  0.
        -13    1    4    4    0    0 -0.14901983125E+02 -0.96497302205E+01 -0.10545861034E+02  0.20649760394E+02  0.10500000000E+00 0.  1.
         13    1    4    4    0    0 -0.81643786890E+01 -0.52726519851E+01 -0.56717938396E+01  0.11253364328E+02  0.10500000000E+00 0. -1.
    3000001    1    5    5    0    0  0.36780475443E+02  0.12786358558E+02  0.29202340532E+02  0.48683375310E+02  0.10000000000E+01 0. -1.
        -13    1    6    6    0    0  0.68570725216E+01  0.45217927081E+01  0.28179363113E+01  0.86843447028E+01  0.10500000000E+00 0. -1.
         13    1    6    6    0    0  0.39990590905E+01  0.27509268494E+01  0.16640933711E+01  0.51322805738E+01  0.10500000000E+00 0.  1.
</event>
<event>
11    0  0.3510903E-009  0.9118800E+02  0.7816531E-02  0.1126479E+00
         25   -1    0    0    0    0  0.00000000000E+00  0.00000000000E+00  0.99999998245E-14  0.12500000000E+03  0.12500000000E+03 0.  0.
    3000001    1    3    3    0    0 -0.68370197467E+01  0.16694580654E+01 -0.41640027859E+01  0.82383765664E+01  0.10000000000E+01 0. -1.
    1000022    2    1    0    0    0 -0.42586409244E+02  0.35147836052E+02 -0.27518673488E+02  0.62500000063E+02  0.99999992976E+01 0.  0.
    3000022    2    3    3    0    0 -0.35749389497E+02  0.33478377987E+02 -0.23354670702E+02  0.54261623497E+02  0.24999776393E+00 0.  0.
    1000022    2    1    0    0    0  0.42586409244E+02 -0.35147836052E+02  0.27518673488E+02  0.62499999937E+02  0.99999985043E+01 0.  0.
    3000022    2    5    5    0    0  0.40252703502E+02 -0.29513851024E+02  0.25027340484E+02  0.55837064403E+02  0.24989583968E+00 0.  0.
        -13    1    4    4    0    0 -0.11280122964E+02  0.10623790090E+02 -0.74151097921E+01  0.17178503084E+02  0.10500000000E+00 0.  1.
         13    1    4    4    0    0 -0.24469266533E+02  0.22854587897E+02 -0.15939560910E+02  0.37083120413E+02  0.10500000000E+00 0. -1.
    3000001    1    5    5    0    0  0.23337057421E+01 -0.56339850289E+01  0.24913330032E+01  0.66629355339E+01  0.10000000000E+01 0. -1.
        -13    1    6    6    0    0  0.18001778715E+02 -0.13251078459E+02  0.11265868974E+02  0.25031698823E+02  0.10500000000E+00 0.  1.
         13    1    6    6    0    0  0.22250924787E+02 -0.16262772565E+02  0.13761471511E+02  0.30805365580E+02  0.10500000000E+00 0. -1.
</event>
<event>
11    0  0.3510903E-009  0.9118800E+02  0.7816531E-02  0.1126479E+00
         25   -1    0    0    0    0  0.00000000000E+00  0.00000000000E+00  0.99999998245E-14  0.12500000000E+03  0.12500000000E+03 0.  0.
    3000001    1    3    3    0    0 -0.30471097543E+02 -0.48309899974E+02  0.15959599152E+02  0.59313093210E+02  0.10000000000E+01 0.  1.
    1000022    2    1    0    0    0 -0.33107651059E+02 -0.48995659646E+02  0.17594283870E+02  0.62499999789E+02  0.99999962966E+01 0.  0.
    3000022    2    3    3    0    0 -0.26365535154E+01 -0.68575967209E+00  0.16346847182E+01  0.31869065794E+01  0.24999730065E+00 0.  0.
    1000022    2    1    0    0    0  0.33107651059E+02  0.48995659646E+02 -0.17594283870E+02  0.62500000211E+02  0.99999989348E+01 0.  0.
    3000022    2    5    5    0    0  0.20574218022E+02  0.32811862617E+02 -0.67486395214E+01  0.39313145502E+02  0.24999649788E+00 0.  0.
        -13    1    4    4    0    0 -0.61517513461E+00 -0.14739956915E+00  0.38062704453E+00  0.74570035956E+00  0.10500000000E+00 0.  1.
         13    1    4    4    0    0 -0.20213783808E+01 -0.53836010294E+00  0.12540576737E+01  0.24412062199E+01  0.10500000000E+00 0. -1.
    3000001    1    5    5    0    0  0.12533433036E+02  0.16183797029E+02 -0.10845644349E+02  0.23186854709E+02  0.10000000000E+01 0.  1.
        -13    1    6    6    0    0  0.11583617776E+02  0.18597447976E+02 -0.38191321771E+01  0.22240550074E+02  0.10500000000E+00 0.  1.
         13    1    6    6    0    0  0.89906002460E+01  0.14214414641E+02 -0.29295073443E+01  0.17072595428E+02  0.10500000000E+00 0. -1.
</event>
<event>
11    0  0.3510903E-009  0.9118800E+02  0.7816531E-02  0.1126479E+00
         25   -1    0    0    0    0  0.00000000000E+00  0.00000000000E+00  0.99999998245E-14  0.12500000000E+03  0.12500000000E+03 0.  0.
    3000001    1    3    3    0    0 -0.71438030986E+01  0.42970284510E+00  0.31451856541E+01  0.78810380056E+01  0.10000000000E+01 0. -1.
    1000022    2    1    0    0    0 -0.58044360052E+02 -0.17691233542E+02  0.11141025471E+02  0.62499999826E+02  0.10000002580E+02 0.  0.
    3000022    2    3    3    0    0 -0.50900556954E+02 -0.18120936387E+02  0.79958398171E+01  0.54618961820E+02  0.25000446147E+00 0.  0.
    1000022    2    1    0    0    0  0.58044360052E+02  0.17691233542E+02 -0.11141025471E+02  0.62500000174E+02  0.10000004755E+02 0.  0.
    3000022    2    5    5    0    0  0.65699002873E+01  0.52623854846E+01 -0.22914020828E+00  0.84244464357E+01  0.25000347759E+00 0.  0.
        -13    1    4    4    0    0 -0.35883214978E+02 -0.12744792653E+02  0.56004478192E+01  0.38489101025E+02  0.10500000000E+00 0. -1.
         13    1    4    4    0    0 -0.15017341976E+02 -0.53761437344E+01  0.23953919978E+01  0.16129860796E+02  0.10500000000E+00 0.  1.
    3000001    1    5    5    0    0  0.51474459765E+02  0.12428848057E+02 -0.10911885263E+02  0.54075553738E+02  0.10000000000E+01 0.  1.
        -13    1    6    6    0    0  0.44147708222E+01  0.35900318837E+01 -0.12486375663E+00  0.56925518264E+01  0.10500000000E+00 0.  1.
         13    1    6    6    0    0  0.21551294651E+01  0.16723536009E+01 -0.10427645165E+00  0.27318946093E+01  0.10500000000E+00 0. -1.
</event>
<event>
11    0  0.3510903E-009  0.9118800E+02  0.7816531E-02  0.1126479E+00
         25   -1    0    0    0    0  0.00000000000E+00  0.00000000000E+00  0.99999998245E-14  0.12500000000E+03  0.12500000000E+03 0.  0.
    3000001    1    3    3    0    0 -0.82671200878E+01  0.97171390982E+01  0.11562761347E+02  0.17247188662E+02  0.10000000000E+01 0.  1.
    1000022    2    1    0    0    0 -0.15057224245E+02  0.36743530704E+02  0.47216978082E+02  0.62500001093E+02  0.10000003342E+02 0.  0.
    3000022    2    3    3    0    0 -0.67901041575E+01  0.27026391606E+02  0.35654216735E+02  0.45252812431E+02  0.25000830507E+00 0.  0.
    1000022    2    1    0    0    0  0.15057224245E+02 -0.36743530704E+02 -0.47216978082E+02  0.62499998907E+02  0.99999896780E+01 0.  0.
    3000022    2    5    5    0    0  0.10838307152E+02 -0.13778777663E+02 -0.21710924211E+02  0.27906098755E+02  0.25000357281E+00 0.  0.
        -13    1    4    4    0    0 -0.52360426475E+01  0.20831451156E+02  0.27475832853E+02  0.34875462948E+02  0.10500000000E+00 0.  1.
         13    1    4    4    0    0 -0.15540615100E+01  0.61949404502E+01  0.81783838822E+01  0.10377349483E+02  0.10500000000E+00 0. -1.
    3000001    1    5    5    0    0  0.42189170935E+01 -0.22964753041E+02 -0.25506053871E+02  0.34593900152E+02  0.10000000000E+01 0.  1.
        -13    1    6    6    0    0  0.27260783491E+01 -0.34543130546E+01 -0.54094089708E+01  0.69739882606E+01  0.10500000000E+00 0.  1.
         13    1    6    6    0    0  0.81122288027E+01 -0.10324464609E+02 -0.16301515240E+02  0.20932110494E+02  0.10500000000E+00 0. -1.
</event>
<event>
11    0  0.3510903E-009  0.9118800E+02  0.7816531E-02  0.1126479E+00
         25   -1    0    0    0    0  0.00000000000E+00  0.00000000000E+00  0.99999998245E-14  0.12500000000E+03  0.12500000000E+03 0.  0.
    3000001    1    3    3    0    0  0.73779902654E+01  0.26246307097E+02  0.16020330767E+02  0.31637862988E+02  0.10000000000E+01 0.  1.
    1000022    2    1    0    0    0  0.70140980235E+01  0.55274635785E+02  0.26490878639E+02  0.62499994868E+02  0.99999887582E+01 0.  0.
    3000022    2    3    3    0    0 -0.36389224194E+00  0.29028328688E+02  0.10470547873E+02  0.30862131880E+02  0.25005484958E+00 0.  0.
    1000022    2    1    0    0    0 -0.70140980235E+01 -0.55274635785E+02 -0.26490878639E+02  0.62500005132E+02  0.10000052908E+02 0.  0.
    3000022    2    5    5    0    0 -0.64216540597E+01 -0.53307081230E+02 -0.23193893735E+02  0.58488475469E+02  0.25001194164E+00 0.  0.
        -13    1    4    4    0    0 -0.28672623091E+00  0.22316686873E+02  0.80562847383E+01  0.23728284255E+02  0.10500000000E+00 0. -1.
         13    1    4    4    0    0 -0.77166011023E-01  0.67116418152E+01  0.24142631342E+01  0.71338476246E+01  0.10500000000E+00 0.  1.
    3000001    1    5    5    0    0 -0.59244396376E+00 -0.19675545550E+01 -0.32969849043E+01  0.40115296629E+01  0.10000000000E+01 0. -1.
        -13    1    6    6    0    0 -0.47456755821E+01 -0.39641913824E+02 -0.17251081312E+02  0.43492684440E+02  0.10500000000E+00 0. -1.
         13    1    6    6    0    0 -0.16759784776E+01 -0.13665167406E+02 -0.59428124228E+01  0.14995791029E+02  0.10500000000E+00 0.  1.
</event>
<event>
11    0  0.3510903E-009  0.9118800E+02  0.7816531E-02  0.1126479E+00
         25   -1    0    0    0    0  0.00000000000E+00  0.00000000000E+00  0.99999998245E-14  0.12500000000E+03  0.12500000000E+03 0.  0.
    3000001    1    3    3    0    0  0.33504729066E+01 -0.61737066253E+01 -0.40070464713E+01  0.81484197005E+01  0.10000000000E+01 0.  1.
    1000022    2    1    0    0    0  0.19233096212E+01 -0.48831128357E+02 -0.37657296806E+02  0.62499999917E+02  0.99999885171E+01 0.  0.
    3000022    2    3    3    0    0 -0.14271632854E+01 -0.42657421732E+02 -0.33650250335E+02  0.54351580216E+02  0.25000114257E+00 0.  0.
    1000022    2    1    0    0    0 -0.19233096212E+01  0.48831128357E+02  0.37657296806E+02  0.62500000083E+02  0.99999895576E+01 0.  0.
    3000022    2    5    5    0    0 -0.38403800980E+01  0.37582925017E+02  0.24371728600E+02  0.44958518956E+02  0.24999920793E+00 0.  0.
        -13    1    4    4    0    0 -0.10613286100E+01 -0.32273990628E+02 -0.25473909382E+02  0.41129891486E+02  0.10500000000E+00 0. -1.
         13    1    4    4    0    0 -0.36583467536E+00 -0.10383431103E+02 -0.81763409529E+01  0.13221688730E+02  0.10500000000E+00 0.  1.
    3000001    1    5    5    0    0  0.19170704768E+01  0.11248203340E+02  0.13285568206E+02  0.17541481128E+02  0.10000000000E+01 0.  1.
        -13    1    6    6    0    0 -0.15783521649E+01  0.15552900840E+02  0.10160533208E+02  0.18644875440E+02  0.10500000000E+00 0.  1.
         13    1    6    6    0    0 -0.22620279331E+01  0.22030024177E+02  0.14211195391E+02  0.26313643516E+02  0.10500000000E+00 0. -1.
</event>
<event>
11    0  0.3510903E-009  0.9118800E+02  0.7816531E-02  0.1126479E+00
         25   -1    0    0    0    0  0.00000000000E+00  0.00000000000E+00  0.99999998245E-14  0.12500000000E+03  0.12500000000E+03 0.  0.
    3000001    1    3    3    0    0 -0.20156202859E+02  0.12480797224E+02  0.17277797965E+02  0.29352429466E+02  0.10000000000E+01 0.  1.
    1000022    2    1    0    0    0 -0.36351146935E+02  0.34713558321E+02  0.35774468221E+02  0.62499996361E+02  0.99999976926E+01 0.  0.
    3000022    2    3    3    0    0 -0.16194944076E+02  0.22232761097E+02  0.18496670256E+02  0.33147566895E+02  0.25000177861E+00 0.  0.
    1000022    2    1    0    0    0  0.36351146935E+02 -0.34713558321E+02 -0.35774468221E+02  0.62500003639E+02  0.10000043177E+02 0.  0.
    3000022    2    5    5    0    0  0.26800472813E+02 -0.19792478276E+02 -0.25843661018E+02  0.42165920487E+02  0.24999290814E+00 0.  0.
        -13    1    4    4    0    0 -0.11076957035E+02  0.15146077227E+02  0.12660711175E+02  0.22636414578E+02  0.10500000000E+00 0. -1.
         13    1    4    4    0    0 -0.51179870416E+01  0.70866838700E+01  0.58359590816E+01  0.10511152317E+02  0.10500000000E+00 0.  1.
    3000001    1    5    5    0    0  0.95506741228E+01 -0.14921080045E+02 -0.99308072033E+01  0.20334083151E+02  0.10000000000E+01 0.  1.
        -13    1    6    6    0    0  0.11325392027E+02 -0.83511216290E+01 -0.10996460375E+02  0.17858860625E+02  0.10500000000E+00 0.  1.
         13    1    6    6    0    0  0.15475080786E+02 -0.11441356647E+02 -0.14847200642E+02  0.24307059863E+02  0.10500000000E+00 0. -1.
</event>
<event>
11    0  0.3510903E-009  0.9118800E+02  0.7816531E-02  0.1126479E+00
         25   -1    0    0    0    0  0.00000000000E+00  0.00000000000E+00  0.99999998245E-14  0.12500000000E+03  0.12500000000E+03 0.  0.
    3000001    1    3    3    0    0  0.46282748675E+02 -0.13907819303E+02 -0.10037208490E+02  0.49368672424E+02  0.10000000000E+01 0. -1.
    1000022    2    1    0    0    0  0.59050171668E+02 -0.12510894134E+02 -0.12759489075E+02  0.62500001346E+02  0.10000018036E+02 0.  0.
    3000022    2    3    3    0    0  0.12767422993E+02  0.13969251685E+01 -0.27222805850E+01  0.13131328922E+02  0.24999570539E+00 0.  0.
    1000022    2    1    0    0    0 -0.59050171668E+02  0.12510894134E+02  0.12759489075E+02  0.62499998654E+02  0.10000001210E+02 0.  0.
    3000022    2    5    5    0    0 -0.27118094704E+02  0.12328683173E+01  0.78995728039E+01  0.28273251924E+02  0.24999836839E+00 0.  0.
        -13    1    4    4    0    0  0.92497884281E+01  0.97457785922E+00 -0.19798624462E+01  0.95099562709E+01  0.10500000000E+00 0.  1.
         13    1    4    4    0    0  0.35176345653E+01  0.42234730924E+00 -0.74241813872E+00  0.36213726510E+01  0.10500000000E+00 0. -1.
    3000001    1    5    5    0    0 -0.31932076964E+02  0.11278025817E+02  0.48599162708E+01  0.34226746730E+02  0.10000000000E+01 0. -1.
        -13    1    6    6    0    0 -0.90127352973E+01  0.35775009827E+00  0.26123795618E+01  0.93911093406E+01  0.10500000000E+00 0.  1.
         13    1    6    6    0    0 -0.18105359407E+02  0.87511821901E+00  0.52871932421E+01  0.18882142583E+02  0.10500000000E+00 0. -1.
</event>
<event>
11    0  0.3510903E-009  0.9118800E+02  0.7816531E-02  0.1126479E+00
         25   -1    0    0    0    0  0.00000000000E+00  0.00000000000E+00  0.99999998245E-14  0.12500000000E+03  0.12500000000E+03 0.  0.
    3000001    1    3    3    0    0  0.26172964629E+02  0.50722800093E+01 -0.87308708099E+01  0.28070985146E+02  0.10000000000E+01 0.  1.
    1000022    2    1    0    0    0  0.52779667761E+02  0.15919069317E+02 -0.27697293824E+02  0.62500001583E+02  0.10000000790E+02 0.  0.
    3000022    2    3    3    0    0  0.26606703132E+02  0.10846789308E+02 -0.18966423015E+02  0.34429016437E+02  0.24996203688E+00 0.  0.
    1000022    2    1    0    0    0 -0.52779667761E+02 -0.15919069317E+02  0.27697293824E+02  0.62499998417E+02  0.99999810028E+01 0.  0.
    3000022    2    5    5    0    0 -0.49571999898E+02 -0.15688603225E+02  0.28108370906E+02  0.59107177746E+02  0.25000216038E+00 0.  0.
        -13    1    4    4    0    0  0.15754740031E+02  0.64866394781E+01 -0.11274698583E+02  0.20430814431E+02  0.10500000000E+00 0. -1.
         13    1    4    4    0    0  0.10851963101E+02  0.43601498300E+01 -0.76917244313E+01  0.13998202007E+02  0.10500000000E+00 0.  1.
    3000001    1    5    5    0    0 -0.32076678633E+01 -0.23046609231E+00 -0.41107708150E+00  0.33928206713E+01  0.10000000000E+01 0. -1.
        -13    1    6    6    0    0 -0.25830535487E+02 -0.81091955240E+01  0.14664762326E+02  0.30790288967E+02  0.10500000000E+00 0.  1.
         13    1    6    6    0    0 -0.23741464410E+02 -0.75794077011E+01  0.13443608580E+02  0.28316888778E+02  0.10500000000E+00 0. -1.
</event>
<event>
11    0  0.3510903E-009  0.9118800E+02  0.7816531E-02  0.1126479E+00
         25   -1    0    0    0    0  0.00000000000E+00  0.00000000000E+00  0.99999998245E-14  0.12500000000E+03  0.12500000000E+03 0.  0.
    3000001    1    3    3    0    0 -0.32870361067E+02 -0.15675478103E+02  0.26027227771E+02  0.44772735408E+02  0.10000000000E+01 0. -1.
    1000022    2    1    0    0    0 -0.42963907881E+02 -0.27214777167E+02  0.34924324841E+02  0.62500001023E+02  0.10000009285E+02 0.  0.
    3000022    2    3    3    0    0 -0.10093546814E+02 -0.11539299063E+02  0.88970970700E+01  0.17727265616E+02  0.24999956315E+00 0.  0.
    1000022    2    1    0    0    0  0.42963907881E+02  0.27214777167E+02 -0.34924324841E+02  0.62499998977E+02  0.99999964920E+01 0.  0.
    3000022    2    5    5    0    0  0.47443215556E+01 -0.17411928884E+00 -0.40022218876E+01  0.62144335180E+01  0.24999872494E+00 0.  0.
        -13    1    4    4    0    0 -0.46359375113E+01 -0.54001495894E+01  0.41152060096E+01  0.82218901536E+01  0.10500000000E+00 0.  1.
         13    1    4    4    0    0 -0.54576093025E+01 -0.61391494741E+01  0.47818910604E+01  0.95053754622E+01  0.10500000000E+00 0. -1.
    3000001    1    5    5    0    0  0.38219586325E+02  0.27388896456E+02 -0.30922102953E+02  0.56285565459E+02  0.10000000000E+01 0. -1.
        -13    1    6    6    0    0  0.12148356384E+01 -0.72710576341E-01 -0.10148171744E+01  0.15880778802E+01  0.10500000000E+00 0. -1.
         13    1    6    6    0    0  0.35294859171E+01 -0.10140871250E+00 -0.29874047132E+01  0.46263556377E+01  0.10500000000E+00 0.  1.
</event>
<event>
11    0  0.3510903E-009  0.9118800E+02  0.7816531E-02  0.1126479E+00
         25   -1    0    0    0    0  0.00000000000E+00  0.00000000000E+00  0.99999998245E-14  0.12500000000E+03  0.12500000000E+03 0.  0.
    3000001    1    3    3    0    0  0.16221160094E+02  0.19506789040E+02 -0.83906610031E+01  0.26740307506E+02  0.10000000000E+01 0. -1.
    1000022    2    1    0    0    0  0.43428284314E+02  0.42652154343E+02 -0.10051259881E+02  0.62500000326E+02  0.10000003348E+02 0.  0.
    3000022    2    3    3    0    0  0.27207124220E+02  0.23145365303E+02 -0.16605988778E+01  0.35759692820E+02  0.24999719726E+00 0.  0.
    1000022    2    1    0    0    0 -0.43428284314E+02 -0.42652154343E+02  0.10051259881E+02  0.62499999674E+02  0.99999992725E+01 0.  0.
    3000022    2    5    5    0    0 -0.29604967025E+02 -0.30413039045E+02  0.24681761627E+01  0.42515425552E+02  0.24999956989E+00 0.  0.
        -13    1    4    4    0    0  0.15441668226E+02  0.13207899592E+02 -0.98122397962E+00  0.20343735024E+02  0.10500000000E+00 0. -1.
         13    1    4    4    0    0  0.11765455994E+02  0.99374657116E+01 -0.67937489818E+00  0.15415957796E+02  0.10500000000E+00 0.  1.
    3000001    1    5    5    0    0 -0.13823317289E+02 -0.12239115299E+02  0.75830837182E+01  0.19984574122E+02  0.10000000000E+01 0. -1.
        -13    1    6    6    0    0 -0.11730854750E+02 -0.12046008872E+02  0.91513891860E+00  0.16839471107E+02  0.10500000000E+00 0. -1.
         13    1    6    6    0    0 -0.17874112275E+02 -0.18367030173E+02  0.15530372441E+01  0.25675954445E+02  0.10500000000E+00 0.  1.
</event>
<event>
11    0  0.3510903E-009  0.9118800E+02  0.7816531E-02  0.1126479E+00
         25   -1    0    0    0    0  0.00000000000E+00  0.00000000000E+00  0.99999998245E-14  0.12500000000E+03  0.12500000000E+03 0.  0.
    3000001    1    3    3    0    0  0.12330460822E+01  0.73726716432E+01  0.63978115695E+00  0.75687521910E+01  0.10000000000E+01 0. -1.
    1000022    2    1    0    0    0  0.15896666186E+02  0.56346679311E+02 -0.19457589031E+02  0.62500000011E+02  0.99999982600E+01 0.  0.
    3000022    2    3    3    0    0  0.14663620104E+02  0.48974007668E+02 -0.20097370188E+02  0.54931247820E+02  0.25003387750E+00 0.  0.
    1000022    2    1    0    0    0 -0.15896666186E+02 -0.56346679311E+02  0.19457589031E+02  0.62499999989E+02  0.99999981273E+01 0.  0.
    3000022    2    5    5    0    0 -0.13950077878E+02 -0.47536462414E+02  0.19952300175E+02  0.53408582777E+02  0.25000062947E+00 0.  0.
        -13    1    4    4    0    0  0.78984130919E+01  0.26157072668E+02 -0.10718357411E+02  0.29350836283E+02  0.10500000000E+00 0.  1.
         13    1    4    4    0    0  0.67652070120E+01  0.22816935000E+02 -0.93790127768E+01  0.25580411537E+02  0.10500000000E+00 0. -1.
    3000001    1    5    5    0    0 -0.19465883082E+01 -0.88102168968E+01 -0.49471114418E+00  0.90914172123E+01  0.10000000000E+01 0.  1.
        -13    1    6    6    0    0 -0.55319612540E+01 -0.18945367545E+02  0.80101862062E+01  0.21300320532E+02  0.10500000000E+00 0.  1.
         13    1    6    6    0    0 -0.84181166239E+01 -0.28591094870E+02  0.11942113969E+02  0.32108262245E+02  0.10500000000E+00 0. -1.
</event>
<event>
11    0  0.3510903E-009  0.9118800E+02  0.7816531E-02  0.1126479E+00
         25   -1    0    0    0    0  0.00000000000E+00  0.00000000000E+00  0.99999998245E-14  0.12500000000E+03  0.12500000000E+03 0.  0.
    3000001    1    3    3    0    0  0.29462695996E+02  0.42523290959E+02  0.14439546029E+02  0.53719467783E+02  0.10000000000E+01 0.  1.
    1000022    2    1    0    0    0  0.32401725291E+02  0.50738771114E+02  0.13489103653E+02  0.62500005445E+02  0.10000003367E+02 0.  0.
    3000022    2    3    3    0    0  0.29390292949E+01  0.82154801550E+01 -0.95044237636E+00  0.87805376626E+01  0.24998712251E+00 0.  0.
    1000022    2    1    0    0    0 -0.32401725291E+02 -0.50738771114E+02 -0.13489103653E+02  0.62499994555E+02  0.99999353007E+01 0.  0.
    3000022    2    5    5    0    0 -0.10503649451E+02 -0.89339121126E+01 -0.39009790116E+01  0.14332535666E+02  0.25000792792E+00 0.  0.
        -13    1    4    4    0    0  0.18108470795E+01  0.50678790027E+01 -0.64766761913E+00  0.54215369663E+01  0.10500000000E+00 0.  1.
         13    1    4    4    0    0  0.11281822153E+01  0.31476011522E+01 -0.30277475722E+00  0.33590006964E+01  0.10500000000E+00 0. -1.
    3000001    1    5    5    0    0 -0.21898075840E+02 -0.41804859001E+02 -0.95881246409E+01  0.48167458888E+02  0.10000000000E+01 0.  1.
        -13    1    6    6    0    0 -0.76325809406E+01 -0.64571354463E+01 -0.28561991613E+01  0.10398066582E+02  0.10500000000E+00 0.  1.
         13    1    6    6    0    0 -0.28710685099E+01 -0.24767766663E+01 -0.10447798504E+01  0.39344690848E+01  0.10500000000E+00 0. -1.
</event>
<event>
11    0  0.3510903E-009  0.9118800E+02  0.7816531E-02  0.1126479E+00
         25   -1    0    0    0    0  0.00000000000E+00  0.00000000000E+00  0.99999998245E-14  0.12500000000E+03  0.12500000000E+03 0.  0.
    3000001    1    3    3    0    0 -0.92405624273E+01  0.99429529696E+01  0.22847595138E+02  0.26594415040E+02  0.10000000000E+01 0. -1.
    1000022    2    1    0    0    0 -0.31153006050E+02  0.24525052900E+02  0.47267984385E+02  0.62499995827E+02  0.99999562397E+01 0.  0.
    3000022    2    3    3    0    0 -0.21912443623E+02  0.14582099930E+02  0.24420389247E+02  0.35905580786E+02  0.24999348629E+00 0.  0.
    1000022    2    1    0    0    0  0.31153006050E+02 -0.24525052900E+02 -0.47267984385E+02  0.62500004173E+02  0.10000008406E+02 0.  0.
    3000022    2    5    5    0    0  0.81128414655E+01 -0.18514644952E+01 -0.71866737547E+01  0.10998040550E+02  0.24999770663E+00 0.  0.
        -13    1    4    4    0    0 -0.11474524968E+02  0.76626950151E+01  0.12888500512E+02  0.18881368822E+02  0.10500000000E+00 0. -1.
         13    1    4    4    0    0 -0.10437918654E+02  0.69194049151E+01  0.11531888735E+02  0.17024211964E+02  0.10500000000E+00 0.  1.
    3000001    1    5    5    0    0  0.23040164584E+02 -0.22673588405E+02 -0.40081310631E+02  0.51501963624E+02  0.10000000000E+01 0. -1.
        -13    1    6    6    0    0  0.57760755420E+01 -0.13332859133E+01 -0.50659124596E+01  0.77984097123E+01  0.10500000000E+00 0. -1.
         13    1    6    6    0    0  0.23367659235E+01 -0.51817858199E+00 -0.21207612951E+01  0.31996308373E+01  0.10500000000E+00 0.  1.
</event>
<event>
11    0  0.3510903E-009  0.9118800E+02  0.7816531E-02  0.1126479E+00
         25   -1    0    0    0    0  0.00000000000E+00  0.00000000000E+00  0.99999998245E-14  0.12500000000E+03  0.12500000000E+03 0.  0.
    3000001    1    3    3    0    0 -0.50026754994E+02 -0.23177542004E+02 -0.10542380787E+02  0.56142821992E+02  0.10000000000E+01 0.  1.
    1000022    2    1    0    0    0 -0.55315032444E+02 -0.25990068939E+02 -0.84269564652E+01  0.62499999466E+02  0.99999920146E+01 0.  0.
    3000022    2    3    3    0    0 -0.52882774500E+01 -0.28125269348E+01  0.21154243218E+01  0.63571774742E+01  0.24999846014E+00 0.  0.
    1000022    2    1    0    0    0  0.55315032444E+02  0.25990068939E+02  0.84269564652E+01  0.62500000534E+02  0.99999986847E+01 0.  0.
    3000022    2    5    5    0    0  0.20916410986E+02  0.90434845317E+01 -0.16199175059E+01  0.22846607767E+02  0.24998547411E+00 0.  0.
        -13    1    4    4    0    0 -0.14654594587E+01 -0.75640547560E+00  0.61739725775E+00  0.17640649201E+01  0.10500000000E+00 0. -1.
         13    1    4    4    0    0 -0.38228179914E+01 -0.20561214592E+01  0.14980270640E+01  0.45931125541E+01  0.10500000000E+00 0.  1.
    3000001    1    5    5    0    0  0.34398621458E+02  0.16946584407E+02  0.10046873971E+02  0.39653392766E+02  0.10000000000E+01 0. -1.
        -13    1    6    6    0    0  0.14490707080E+02  0.62549998053E+01 -0.10750061648E+01  0.15819996128E+02  0.10500000000E+00 0. -1.
         13    1    6    6    0    0  0.64257039056E+01  0.27884847265E+01 -0.54491134105E+00  0.70266116388E+01  0.10500000000E+00 0.  1.
</event>
<event>
11    0  0.3510903E-009  0.9118800E+02  0.7816531E-02  0.1126479E+00
         25   -1    0    0    0    0  0.00000000000E+00  0.00000000000E+00  0.99999998245E-14  0.12500000000E+03  0.12500000000E+03 0.  0.
    3000001    1    3    3    0    0 -0.11192781907E+02  0.22902032734E+02 -0.16183296455E+02  0.30210603342E+02  0.10000000000E+01 0.  1.
    1000022    2    1    0    0    0 -0.31699580881E+02  0.41874009087E+02 -0.32372116962E+02  0.62499999270E+02  0.99999943493E+01 0.  0.
    3000022    2    3    3    0    0 -0.20506798974E+02  0.18971976354E+02 -0.16188820507E+02  0.32289395927E+02  0.24997801658E+00 0.  0.
    1000022    2    1    0    0    0  0.31699580881E+02 -0.41874009087E+02  0.32372116962E+02  0.62500000730E+02  0.10000003478E+02 0.  0.
    3000022    2    5    5    0    0  0.80863375058E+01 -0.11702964621E+02  0.38894314445E+01  0.14749183342E+02  0.24999426219E+00 0.  0.
        -13    1    4    4    0    0 -0.12630737296E+02  0.11632936117E+02 -0.98950309770E+01  0.19818763594E+02  0.10500000000E+00 0. -1.
         13    1    4    4    0    0 -0.78760616777E+01  0.73390402363E+01 -0.62937895304E+01  0.12470632333E+02  0.10500000000E+00 0.  1.
    3000001    1    5    5    0    0  0.23613243376E+02 -0.30171044467E+02  0.28482685518E+02  0.47750817388E+02  0.10000000000E+01 0. -1.
        -13    1    6    6    0    0  0.38746882142E+01 -0.57036857850E+01  0.18437776988E+01  0.71383318425E+01  0.10500000000E+00 0.  1.
         13    1    6    6    0    0  0.42116492916E+01 -0.59992788357E+01  0.20456537457E+01  0.76108514997E+01  0.10500000000E+00 0. -1.
</event>
<event>
11    0  0.3510903E-009  0.9118800E+02  0.7816531E-02  0.1126479E+00
         25   -1    0    0    0    0  0.00000000000E+00  0.00000000000E+00  0.99999998245E-14  0.12500000000E+03  0.12500000000E+03 0.  0.
    3000001    1    3    3    0    0  0.14541974559E+02 -0.74387396445E+01  0.35438820758E+02  0.39034777933E+02  0.10000000000E+01 0. -1.
    1000022    2    1    0    0    0  0.16192333107E+02 -0.14717000019E+02  0.57684211616E+02  0.62500000599E+02  0.10000003201E+02 0.  0.
    3000022    2    3    3    0    0  0.16503585479E+01 -0.72782603745E+01  0.22245390858E+02  0.23465222665E+02  0.25000575728E+00 0.  0.
    1000022    2    1    0    0    0 -0.16192333107E+02  0.14717000019E+02 -0.57684211616E+02  0.62499999401E+02  0.99999957176E+01 0.  0.
    3000022    2    5    5    0    0 -0.44977224113E+01  0.22688036647E+01 -0.26066781336E+02  0.26550264919E+02  0.25000220303E+00 0.  0.
        -13    1    4    4    0    0  0.11233374577E+01 -0.49900654150E+01  0.15395396569E+02  0.16223190204E+02  0.10500000000E+00 0.  1.
         13    1    4    4    0    0  0.52702109021E+00 -0.22881949595E+01  0.68499942893E+01  0.72420324609E+01  0.10500000000E+00 0. -1.
    3000001    1    5    5    0    0 -0.11694610696E+02  0.12448196354E+02 -0.31617430280E+02  0.35949734482E+02  0.10000000000E+01 0.  1.
        -13    1    6    6    0    0 -0.26373548453E+01  0.14017663008E+01 -0.15441666645E+02  0.15728212967E+02  0.10500000000E+00 0. -1.
         13    1    6    6    0    0 -0.18603675660E+01  0.86703736392E+00 -0.10625114691E+02  0.10822051953E+02  0.10500000000E+00 0.  1.
</event>
<event>
11    0  0.3510903E-009  0.9118800E+02  0.7816531E-02  0.1126479E+00
         25   -1    0    0    0    0  0.00000000000E+00  0.00000000000E+00  0.99999998245E-14  0.12500000000E+03  0.12500000000E+03 0.  0.
    3000001    1    3    3    0    0 -0.57280772294E+02 -0.51233762763E+01 -0.25119242560E+01  0.57572959126E+02  0.10000000000E+01 0.  1.
    1000022    2    1    0    0    0 -0.61503075982E+02 -0.29754310328E+01 -0.38429834426E+01  0.62499999689E+02  0.99999947156E+01 0.  0.
    3000022    2    3    3    0    0 -0.42223036876E+01  0.21479452435E+01 -0.13310591866E+01  0.49270405626E+01  0.24998589412E+00 0.  0.
    1000022    2    1    0    0    0  0.61503075982E+02  0.29754310328E+01  0.38429834426E+01  0.62500000311E+02  0.99999986035E+01 0.  0.
    3000022    2    5    5    0    0  0.51087797712E+02  0.56253729466E+01  0.13131207670E+01  0.51413954183E+02  0.25000555148E+00 0.  0.
        -13    1    4    4    0    0 -0.12130006841E+01  0.58965888503E+00 -0.41432248541E+00  0.14148344010E+01  0.10500000000E+00 0. -1.
         13    1    4    4    0    0 -0.30093030035E+01  0.15582863585E+01 -0.91673670123E+00  0.35122061616E+01  0.10500000000E+00 0.  1.
    3000001    1    5    5    0    0  0.10415278270E+02 -0.26499419138E+01  0.25298626756E+01  0.11086046128E+02  0.10000000000E+01 0. -1.
        -13    1    6    6    0    0  0.22023746787E+02  0.24404399406E+01  0.62995154035E+00  0.22167747599E+02  0.10500000000E+00 0.  1.
         13    1    6    6    0    0  0.29064050924E+02  0.31849330060E+01  0.68316922663E+00  0.29246206584E+02  0.10500000000E+00 0. -1.
</event>
<event>
11    0  0.3510903E-009  0.9118800E+02  0.7816531E-02  0.1126479E+00
         25   -1    0    0    0    0  0.00000000000E+00  0.00000000000E+00  0.99999998245E-14  0.12500000000E+03  0.12500000000E+03 0.  0.
    3000001    1    3    3    0    0 -0.51115081788E+01 -0.31865049638E+01 -0.90436522076E+01  0.10911873121E+02  0.10000000000E+01 0. -1.
    1000022    2    1    0    0    0 -0.13003061164E+02 -0.31677306861E+02 -0.51319760859E+02  0.62499994471E+02  0.10000004230E+02 0.  0.
    3000022    2    3    3    0    0 -0.78915529854E+01 -0.28490801897E+02 -0.42276108651E+02  0.51588121350E+02  0.25000093088E+00 0.  0.
    1000022    2    1    0    0    0  0.13003061164E+02  0.31677306861E+02  0.51319760859E+02  0.62500005529E+02  0.10000073347E+02 0.  0.
    3000022    2    5    5    0    0  0.67744530115E+01  0.20910029828E+02  0.24478251026E+02  0.32899389584E+02  0.25000143064E+00 0.  0.
        -13    1    4    4    0    0 -0.43387773973E+01 -0.15639759156E+02 -0.23325357232E+02  0.28416726954E+02  0.10500000000E+00 0.  1.
         13    1    4    4    0    0 -0.35527755880E+01 -0.12851042741E+02 -0.18950751419E+02  0.23171394396E+02  0.10500000000E+00 0. -1.
    3000001    1    5    5    0    0  0.62286081527E+01  0.10767277033E+02  0.26841509833E+02  0.29600615945E+02  0.10000000000E+01 0.  1.
        -13    1    6    6    0    0  0.51064722096E+01  0.15824812436E+02  0.18533046488E+02  0.24899509717E+02  0.10500000000E+00 0. -1.
         13    1    6    6    0    0  0.16679808019E+01  0.50852173922E+01  0.59452045383E+01  0.79998798668E+01  0.10500000000E+00 0.  1.
</event>
<event>
11    0  0.3510903E-009  0.9118800E+02  0.7816531E-02  0.1126479E+00
         25   -1    0    0    0    0  0.00000000000E+00  0.00000000000E+00  0.99999998245E-14  0.12500000000E+03  0.12500000000E+03 0.  0.
    3000001    1    3    3    0    0  0.13188735654E+02  0.40354871229E+02 -0.30960008963E+02  0.52554548186E+02  0.10000000000E+01 0.  1.
    1000022    2    1    0    0    0  0.18759222876E+02  0.45092948863E+02 -0.37695726174E+02  0.62500003580E+02  0.10000009782E+02 0.  0.
    3000022    2    3    3    0    0  0.55704872228E+01  0.47380776336E+01 -0.67357172103E+01  0.99454553934E+01  0.24997816654E+00 0.  0.
    1000022    2    1    0    0    0 -0.18759222876E+02 -0.45092948863E+02  0.37695726174E+02  0.62499996420E+02  0.99999650364E+01 0.  0.
    3000022    2    5    5    0    0 -0.19526754834E+02 -0.43213035517E+02  0.36950346734E+02  0.60116979424E+02  0.24999683683E+00 0.  0.
        -13    1    4    4    0    0  0.25408312378E+01  0.21185170098E+01 -0.29679894627E+01  0.44456635219E+01  0.10500000000E+00 0.  1.
         13    1    4    4    0    0  0.30296559850E+01  0.26195606238E+01 -0.37677277476E+01  0.54997918715E+01  0.10500000000E+00 0. -1.
    3000001    1    5    5    0    0  0.76753195786E+00 -0.18799133457E+01  0.74537943983E+00  0.23830169959E+01  0.10000000000E+01 0. -1.
        -13    1    6    6    0    0 -0.55695353380E+01 -0.12367206365E+02  0.10617203246E+02  0.17225084816E+02  0.10500000000E+00 0.  1.
         13    1    6    6    0    0 -0.13957219496E+02 -0.30845829152E+02  0.26333143488E+02  0.42891894608E+02  0.10500000000E+00 0. -1.
</event>
<event>
11    0  0.3510903E-009  0.9118800E+02  0.7816531E-02  0.1126479E+00
         25   -1    0    0    0    0  0.00000000000E+00  0.00000000000E+00  0.99999998245E-14  0.12500000000E+03  0.12500000000E+03 0.  0.
    3000001    1    3    3    0    0  0.63419654400E+01 -0.14678354272E+02  0.27640978388E+02  0.31948369223E+02  0.10000000000E+01 0. -1.
    1000022    2    1    0    0    0  0.32932091461E+01 -0.31714921038E+02  0.52816368998E+02  0.62500002909E+02  0.10000004328E+02 0.  0.
    3000022    2    3    3    0    0 -0.30487562939E+01 -0.17036566766E+02  0.25175390611E+02  0.30551633686E+02  0.25001278105E+00 0.  0.
    1000022    2    1    0    0    0 -0.32932091461E+01  0.31714921038E+02 -0.52816368998E+02  0.62499997091E+02  0.99999679602E+01 0.  0.
    3000022    2    5    5    0    0 -0.25428864378E+01  0.14746451179E+02 -0.15813296569E+02  0.21772619042E+02  0.24999548748E+00 0.  0.
        -13    1    4    4    0    0 -0.84701161166E+00 -0.49709662479E+01  0.73161308300E+01  0.88862100712E+01  0.10500000000E+00 0. -1.
         13    1    4    4    0    0 -0.22017446822E+01 -0.12065600518E+02  0.17859259781E+02  0.21665423615E+02  0.10500000000E+00 0.  1.
    3000001    1    5    5    0    0 -0.75032270832E+00  0.16968469859E+02 -0.37003072429E+02  0.40727378049E+02  0.10000000000E+01 0. -1.
        -13    1    6    6    0    0 -0.97896864130E+00  0.60521258765E+01 -0.64866079581E+01  0.89260133894E+01  0.10500000000E+00 0.  1.
         13    1    6    6    0    0 -0.15639177965E+01  0.86943253024E+01 -0.93266886111E+01  0.12846605652E+02  0.10500000000E+00 0. -1.
</event>
<event>
11    0  0.3510903E-009  0.9118800E+02  0.7816531E-02  0.1126479E+00
         25   -1    0    0    0    0  0.00000000000E+00  0.00000000000E+00  0.99999998245E-14  0.12500000000E+03  0.12500000000E+03 0.  0.
    3000001    1    3    3    0    0 -0.34493838561E+01  0.22675576286E+02  0.15962075870E+02  0.27961900417E+02  0.10000000000E+01 0.  1.
    1000022    2    1    0    0    0 -0.16123912030E+02  0.44672738020E+02  0.39377860767E+02  0.62499999228E+02  0.99999961788E+01 0.  0.
    3000022    2    3    3    0    0 -0.12674528174E+02  0.21997161735E+02  0.23415784898E+02  0.34538098811E+02  0.24999663709E+00 0.  0.
    1000022    2    1    0    0    0  0.16123912030E+02 -0.44672738020E+02 -0.39377860767E+02  0.62500000772E+02  0.10000005823E+02 0.  0.
    3000022    2    5    5    0    0  0.71894462448E+01 -0.87224921317E+01 -0.70562498671E+01  0.13327535006E+02  0.25004168842E+00 0.  0.
        -13    1    4    4    0    0 -0.61801721783E+01  0.10836670727E+02  0.11452814618E+02  0.16935346122E+02  0.10500000000E+00 0.  1.
         13    1    4    4    0    0 -0.64943559953E+01  0.11160491007E+02  0.11962970280E+02  0.17602752689E+02  0.10500000000E+00 0. -1.
    3000001    1    5    5    0    0  0.89344657849E+01 -0.35950245888E+02 -0.32321610900E+02  0.49172465766E+02  0.10000000000E+01 0. -1.
        -13    1    6    6    0    0  0.53269171617E+01 -0.64144393042E+01 -0.52175516222E+01  0.98364093024E+01  0.10500000000E+00 0.  1.
         13    1    6    6    0    0  0.18625290831E+01 -0.23080528275E+01 -0.18386982449E+01  0.34911257032E+01  0.10500000000E+00 0. -1.
</event>
<event>
11    0  0.3510903E-009  0.9118800E+02  0.7816531E-02  0.1126479E+00
         25   -1    0    0    0    0  0.00000000000E+00  0.00000000000E+00  0.99999998245E-14  0.12500000000E+03  0.12500000000E+03 0.  0.
    3000001    1    3    3    0    0 -0.28514154121E+00 -0.33457140466E+01 -0.41151860129E+01  0.54046150742E+01  0.10000000000E+01 0. -1.
    1000022    2    1    0    0    0 -0.57701231630E+01 -0.56887090395E+02 -0.23169245246E+02  0.62500006117E+02  0.10000073224E+02 0.  0.
    3000022    2    3    3    0    0 -0.54849816218E+01 -0.53541376348E+02 -0.19054059233E+02  0.57095391043E+02  0.25000089556E+00 0.  0.
    1000022    2    1    0    0    0  0.57701231630E+01  0.56887090395E+02  0.23169245246E+02  0.62499993883E+02  0.99999967591E+01 0.  0.
    3000022    2    5    5    0    0  0.68297301856E+01  0.20770474071E+02  0.97863434690E+01  0.23956060486E+02  0.25001595297E+00 0.  0.
        -13    1    4    4    0    0 -0.24861282594E+01 -0.24078067223E+02 -0.85018661098E+01  0.25655933179E+02  0.10500000000E+00 0. -1.
         13    1    4    4    0    0 -0.29988533624E+01 -0.29463309125E+02 -0.10552193123E+02  0.31439457864E+02  0.10500000000E+00 0.  1.
    3000001    1    5    5    0    0 -0.10596070226E+01  0.36116616323E+02  0.13382901777E+02  0.38543933396E+02  0.10000000000E+01 0. -1.
        -13    1    6    6    0    0  0.37353276547E+01  0.11174219312E+02  0.53104910983E+01  0.12923938666E+02  0.10500000000E+00 0.  1.
         13    1    6    6    0    0  0.30944025309E+01  0.95962547590E+01  0.44758523707E+01  0.11032121821E+02  0.10500000000E+00 0. -1.
</event>
<event>
11    0  0.3510903E-009  0.9118800E+02  0.7816531E-02  0.1126479E+00
         25   -1    0    0    0    0  0.00000000000E+00  0.00000000000E+00  0.99999998245E-14  0.12500000000E+03  0.12500000000E+03 0.  0.
    3000001    1    3    3    0    0  0.18452616180E+02 -0.15472754716E+02  0.15417561610E+01  0.24151235878E+02  0.10000000000E+01 0. -1.
    1000022    2    1    0    0    0  0.50024378647E+02 -0.33226831671E+02  0.14134689502E+02  0.62500002438E+02  0.10000002774E+02 0.  0.
    3000022    2    3    3    0    0  0.31571762467E+02 -0.17754076955E+02  0.12592933341E+02  0.38348766560E+02  0.24998539936E+00 0.  0.
    1000022    2    1    0    0    0 -0.50024378647E+02  0.33226831671E+02 -0.14134689502E+02  0.62499997562E+02  0.99999722997E+01 0.  0.
    3000022    2    5    5    0    0 -0.74445518739E+01  0.74196574442E+01  0.70133838389E+00  0.10536937480E+02  0.25001348650E+00 0.  0.
        -13    1    4    4    0    0  0.11069709783E+02 -0.61618747531E+01  0.43910583298E+01  0.13408937072E+02  0.10500000000E+00 0. -1.
         13    1    4    4    0    0  0.20502052684E+02 -0.11592202202E+02  0.82018750110E+01  0.24939829487E+02  0.10500000000E+00 0.  1.
    3000001    1    5    5    0    0 -0.42579826773E+02  0.25807174227E+02 -0.14836027886E+02  0.51963060082E+02  0.10000000000E+01 0. -1.
        -13    1    6    6    0    0 -0.24089333998E+01  0.24745423371E+01  0.23702198161E+00  0.34631668055E+01  0.10500000000E+00 0.  1.
         13    1    6    6    0    0 -0.50356184741E+01  0.49451151070E+01  0.46431640229E+00  0.70737706748E+01  0.10500000000E+00 0. -1.
</event>
<event>
11    0  0.3510903E-009  0.9118800E+02  0.7816531E-02  0.1126479E+00
         25   -1    0    0    0    0  0.00000000000E+00  0.00000000000E+00  0.99999998245E-14  0.12500000000E+03  0.12500000000E+03 0.  0.
    3000001    1    3    3    0    0  0.33443328120E+02 -0.93904806101E+01  0.47565532771E+01  0.35075092600E+02  0.10000000000E+01 0.  1.
    1000022    2    1    0    0    0  0.55854503632E+02 -0.24640030278E+02  0.89102843044E+01  0.62499999801E+02  0.10000007033E+02 0.  0.
    3000022    2    3    3    0    0  0.22411175512E+02 -0.15249549668E+02  0.41537310273E+01  0.27424907201E+02  0.25000125829E+00 0.  0.
    1000022    2    1    0    0    0 -0.55854503632E+02  0.24640030278E+02 -0.89102843044E+01  0.62500000199E+02  0.10000009523E+02 0.  0.
    3000022    2    5    5    0    0 -0.40191038017E+02  0.13786655235E+02 -0.89235284724E+01  0.43417545423E+02  0.24998138813E+00 0.  0.
        -13    1    4    4    0    0  0.13172060028E+02 -0.89209349886E+01  0.24924310146E+01  0.16103089263E+02  0.10500000000E+00 0.  1.
         13    1    4    4    0    0  0.92391154838E+01 -0.63286146793E+01  0.16613000127E+01  0.11321817938E+02  0.10500000000E+00 0. -1.
    3000001    1    5    5    0    0 -0.15663465615E+02  0.10853375043E+02  0.13244167989E-01  0.19082454777E+02  0.10000000000E+01 0.  1.
        -13    1    6    6    0    0 -0.30210001415E+02  0.10373465570E+02 -0.66844192968E+01  0.32633502107E+02  0.10500000000E+00 0.  1.
         13    1    6    6    0    0 -0.99810366017E+01  0.34131896658E+01 -0.22391091756E+01  0.10784043316E+02  0.10500000000E+00 0. -1.
</event>
<event>
11    0  0.3510903E-009  0.9118800E+02  0.7816531E-02  0.1126479E+00
         25   -1    0    0    0    0  0.00000000000E+00  0.00000000000E+00  0.99999998245E-14  0.12500000000E+03  0.12500000000E+03 0.  0.
    3000001    1    3    3    0    0 -0.44747524280E+02 -0.12425231634E+01 -0.95277228417E+01  0.45778404249E+02  0.10000000000E+01 0. -1.
    1000022    2    1    0    0    0 -0.60484858786E+02 -0.68664949439E+01 -0.10034092712E+02  0.62499998050E+02  0.99999922310E+01 0.  0.
    3000022    2    3    3    0    0 -0.15737334505E+02 -0.56239717805E+01 -0.50636987015E+00  0.16721593802E+02  0.25006578525E+00 0.  0.
    1000022    2    1    0    0    0  0.60484858786E+02  0.68664949439E+01  0.10034092712E+02  0.62500001950E+02  0.10000016602E+02 0.  0.
    3000022    2    5    5    0    0  0.38378866419E+02  0.71398613048E+01  0.10277557761E+02  0.40368375193E+02  0.25003023385E+00 0.  0.
        -13    1    4    4    0    0 -0.10642774487E+02 -0.37485202891E+01 -0.34672081257E+00  0.11289432823E+02  0.10500000000E+00 0.  1.
         13    1    4    4    0    0 -0.50945600185E+01 -0.18754514914E+01 -0.15964905758E+00  0.54321609789E+01  0.10500000000E+00 0. -1.
    3000001    1    5    5    0    0  0.22105992367E+02 -0.27336636091E+00 -0.24346504904E+00  0.22131626757E+02  0.10000000000E+01 0. -1.
        -13    1    6    6    0    0  0.12821647499E+02  0.24389606965E+01  0.34467382487E+01  0.13499414929E+02  0.10500000000E+00 0.  1.
         13    1    6    6    0    0  0.25557218919E+02  0.47009006083E+01  0.68308195122E+01  0.26868960263E+02  0.10500000000E+00 0. -1.
</event>
<event>
11    0  0.3510903E-009  0.9118800E+02  0.7816531E-02  0.1126479E+00
         25   -1    0    0    0    0  0.00000000000E+00  0.00000000000E+00  0.99999998245E-14  0.12500000000E+03  0.12500000000E+03 0.  0.
    3000001    1    3    3    0    0  0.23310593519E+02  0.33665034852E+02  0.17309796914E+02  0.44467374681E+02  0.10000000000E+01 0.  1.
    1000022    2    1    0    0    0  0.37420651820E+02  0.43187777233E+02  0.23254264682E+02  0.62499999674E+02  0.99999924214E+01 0.  0.
    3000022    2    3    3    0    0  0.14110058301E+02  0.95227423802E+01  0.59444677677E+01  0.18032624993E+02  0.24999878260E+00 0.  0.
    1000022    2    1    0    0    0 -0.37420651820E+02 -0.43187777233E+02 -0.23254264682E+02  0.62500000326E+02  0.99999964966E+01 0.  0.
    3000022    2    5    5    0    0 -0.18747967793E+02 -0.28977064894E+02 -0.13204036552E+02  0.36953561055E+02  0.25001432493E+00 0.  0.
        -13    1    4    4    0    0  0.95252018831E+01  0.64561165704E+01  0.40670705593E+01  0.12205039943E+02  0.10500000000E+00 0.  1.
         13    1    4    4    0    0  0.45848564183E+01  0.30666258098E+01  0.18773972084E+01  0.58275850497E+01  0.10500000000E+00 0. -1.
    3000001    1    5    5    0    0 -0.18672684027E+02 -0.14210712338E+02 -0.10050228130E+02  0.25546439271E+02  0.10000000000E+01 0.  1.
        -13    1    6    6    0    0 -0.70966121647E+01 -0.11019880128E+02 -0.50725196785E+01  0.14054933053E+02  0.10500000000E+00 0.  1.
         13    1    6    6    0    0 -0.11651355628E+02 -0.17957184766E+02 -0.81315168732E+01  0.22898628002E+02  0.10500000000E+00 0. -1.
</event>
<event>
11    0  0.3510903E-009  0.9118800E+02  0.7816531E-02  0.1126479E+00
         25   -1    0    0    0    0  0.00000000000E+00  0.00000000000E+00  0.99999998245E-14  0.12500000000E+03  0.12500000000E+03 0.  0.
    3000001    1    3    3    0    0 -0.11701396880E+02  0.18895745364E+02  0.12700434736E+02  0.25617824347E+02  0.10000000000E+01 0. -1.
    1000022    2    1    0    0    0 -0.24029433269E+02  0.52383486932E+02  0.22018323175E+02  0.62499999729E+02  0.10000002214E+02 0.  0.
    3000022    2    3    3    0    0 -0.12328036389E+02  0.33487741568E+02  0.93178884384E+01  0.36882175381E+02  0.24999873981E+00 0.  0.
    1000022    2    1    0    0    0  0.24029433269E+02 -0.52383486932E+02 -0.22018323175E+02  0.62500000271E+02  0.10000005605E+02 0.  0.
    3000022    2    5    5    0    0  0.97396582708E+01 -0.32564783150E+02 -0.11547494180E+02  0.35898929824E+02  0.24999168299E+00 0.  0.
        -13    1    4    4    0    0 -0.61322166933E+01  0.16834190355E+02  0.46476701742E+01  0.18509616677E+02  0.10500000000E+00 0. -1.
         13    1    4    4    0    0 -0.61958196953E+01  0.16653551213E+02  0.46702182641E+01  0.18372558704E+02  0.10500000000E+00 0.  1.
    3000001    1    5    5    0    0  0.14289774998E+02 -0.19818703782E+02 -0.10470828994E+02  0.26601070447E+02  0.10000000000E+01 0.  1.
        -13    1    6    6    0    0  0.53975463336E+01 -0.17991664141E+02 -0.64496789940E+01  0.19860585820E+02  0.10500000000E+00 0.  1.
         13    1    6    6    0    0  0.43421119372E+01 -0.14573119008E+02 -0.50978151863E+01  0.16038344004E+02  0.10500000000E+00 0. -1.
</event>
<event>
11    0  0.3510903E-009  0.9118800E+02  0.7816531E-02  0.1126479E+00
         25   -1    0    0    0    0  0.00000000000E+00  0.00000000000E+00  0.99999998245E-14  0.12500000000E+03  0.12500000000E+03 0.  0.
    3000001    1    3    3    0    0  0.50599213840E+01 -0.32732733133E+02  0.56971903270E+01  0.33622798818E+02  0.10000000000E+01 0. -1.
    1000022    2    1    0    0    0  0.30581130792E+01 -0.61489182406E+02  0.39972995324E+01  0.62499999895E+02  0.99999987385E+01 0.  0.
    3000022    2    3    3    0    0 -0.20018083048E+01 -0.28756449274E+02 -0.16998907946E+01  0.28877201077E+02  0.25000404630E+00 0.  0.
    1000022    2    1    0    0    0 -0.30581130792E+01  0.61489182406E+02 -0.39972995324E+01  0.62500000105E+02  0.10000000046E+02 0.  0.
    3000022    2    5    5    0    0 -0.28018188068E+01  0.32784866722E+02  0.26699596316E+01  0.33013464695E+02  0.24998435218E+00 0.  0.
        -13    1    4    4    0    0 -0.85446872964E+00 -0.12290768380E+02 -0.79201149407E+00  0.12346311651E+02  0.10500000000E+00 0. -1.
         13    1    4    4    0    0 -0.11473395752E+01 -0.16465680894E+02 -0.90787930048E+00  0.16530889426E+02  0.10500000000E+00 0.  1.
    3000001    1    5    5    0    0 -0.25629427238E+00  0.28704315685E+02 -0.66672591640E+01  0.29486535409E+02  0.10000000000E+01 0.  1.
        -13    1    6    6    0    0 -0.10397031735E+01  0.12410214813E+02  0.95341847428E+00  0.12490574294E+02  0.10500000000E+00 0.  1.
         13    1    6    6    0    0 -0.17621156333E+01  0.20374651908E+02  0.17165411573E+01  0.20522890402E+02  0.10500000000E+00 0. -1.
</event>
<event>
11    0  0.3510903E-009  0.9118800E+02  0.7816531E-02  0.1126479E+00
         25   -1    0    0    0    0  0.00000000000E+00  0.00000000000E+00  0.99999998245E-14  0.12500000000E+03  0.12500000000E+03 0.  0.
    3000001    1    3    3    0    0 -0.10157383249E+02  0.29150709150E+02  0.37243327131E+02  0.48383899122E+02  0.10000000000E+01 0.  1.
    1000022    2    1    0    0    0 -0.77643422791E+01  0.37815225214E+02  0.48124564079E+02  0.62499999750E+02  0.10000001595E+02 0.  0.
    3000022    2    3    3    0    0  0.23930409704E+01  0.86645160643E+01  0.10881236948E+02  0.14116100628E+02  0.24999142581E+00 0.  0.
    1000022    2    1    0    0    0  0.77643422791E+01 -0.37815225214E+02 -0.48124564079E+02  0.62500000250E+02  0.10000004722E+02 0.  0.
    3000022    2    5    5    0    0  0.95238553961E+01 -0.22575066952E+02 -0.29812345604E+02  0.38589842247E+02  0.25000944937E+00 0.  0.
        -13    1    4    4    0    0  0.99714117863E+00  0.38446635554E+01  0.47729277567E+01  0.62102812139E+01  0.10500000000E+00 0.  1.
         13    1    4    4    0    0  0.13958997918E+01  0.48198525089E+01  0.61083091911E+01  0.79058194142E+01  0.10500000000E+00 0. -1.
    3000001    1    5    5    0    0 -0.17595131170E+01 -0.15240158262E+02 -0.18312218475E+02  0.23910158003E+02  0.10000000000E+01 0.  1.
        -13    1    6    6    0    0  0.53419298158E+01 -0.12509809374E+02 -0.16503438473E+02  0.21387053354E+02  0.10500000000E+00 0.  1.
         13    1    6    6    0    0  0.41819255803E+01 -0.10065257578E+02 -0.13308907131E+02  0.17202788893E+02  0.10500000000E+00 0. -1.
</event>
<event>
11    0  0.3510903E-009  0.9118800E+02  0.7816531E-02  0.1126479E+00
         25   -1    0    0    0    0  0.00000000000E+00  0.00000000000E+00  0.99999998245E-14  0.12500000000E+03  0.12500000000E+03 0.  0.
    3000001    1    3    3    0    0 -0.16637220067E+01  0.62400615867E+01  0.28359485771E+01  0.71238292970E+01  0.10000000000E+01 0.  1.
    1000022    2    1    0    0    0 -0.10881539847E+02  0.39336116966E+02  0.46265665589E+02  0.62499996313E+02  0.99999859710E+01 0.  0.
    3000022    2    3    3    0    0 -0.92178178408E+01  0.33096055379E+02  0.43429717012E+02  0.55376167016E+02  0.25001264181E+00 0.  0.
    1000022    2    1    0    0    0  0.10881539847E+02 -0.39336116966E+02 -0.46265665589E+02  0.62500003687E+02  0.10000032053E+02 0.  0.
    3000022    2    5    5    0    0  0.33006478679E+01 -0.22075621069E+02 -0.31114076092E+02  0.38293283420E+02  0.25000414285E+00 0.  0.
        -13    1    4    4    0    0 -0.38789699891E+01  0.13688087653E+02  0.17992601553E+02  0.22938066340E+02  0.10500000000E+00 0.  1.
         13    1    4    4    0    0 -0.53388478517E+01  0.19407967726E+02  0.25437115459E+02  0.32438100676E+02  0.10500000000E+00 0. -1.
    3000001    1    5    5    0    0  0.75808919796E+01 -0.17260495897E+02 -0.15151589497E+02  0.24206720267E+02  0.10000000000E+01 0. -1.
        -13    1    6    6    0    0  0.20114281534E+01 -0.13559181224E+02 -0.19004950570E+02  0.23432806273E+02  0.10500000000E+00 0. -1.
         13    1    6    6    0    0  0.12892197145E+01 -0.85164398455E+01 -0.12109125522E+02  0.14860477147E+02  0.10500000000E+00 0.  1.
</event>
<event>
11    0  0.3510903E-009  0.9118800E+02  0.7816531E-02  0.1126479E+00
         25   -1    0    0    0    0  0.00000000000E+00  0.00000000000E+00  0.99999998245E-14  0.12500000000E+03  0.12500000000E+03 0.  0.
    3000001    1    3    3    0    0  0.78343864977E+01 -0.16126896736E+02  0.17410054591E+02  0.25011285672E+02  0.10000000000E+01 0. -1.
    1000022    2    1    0    0    0  0.18465890809E+02 -0.30432168170E+02  0.50389916352E+02  0.62499997114E+02  0.99999993188E+01 0.  0.
    3000022    2    3    3    0    0  0.10631504312E+02 -0.14305271435E+02  0.32979861761E+02  0.37488711442E+02  0.25005808826E+00 0.  0.
    1000022    2    1    0    0    0 -0.18465890809E+02  0.30432168170E+02 -0.50389916352E+02  0.62500002886E+02  0.10000035389E+02 0.  0.
    3000022    2    5    5    0    0 -0.17256347550E+02  0.29374070726E+02 -0.42940712690E+02  0.54814093681E+02  0.24999588809E+00 0.  0.
        -13    1    4    4    0    0  0.72576941941E+01 -0.98426129618E+01  0.22588780985E+02  0.25686868363E+02  0.10500000000E+00 0.  1.
         13    1    4    4    0    0  0.33738101176E+01 -0.44626584728E+01  0.10391080777E+02  0.11801843079E+02  0.10500000000E+00 0. -1.
    3000001    1    5    5    0    0 -0.12095432589E+01  0.10580974438E+01 -0.74492036626E+01  0.76859092047E+01  0.10000000000E+01 0. -1.
        -13    1    6    6    0    0 -0.71136558894E+01  0.12016281725E+02 -0.17670960262E+02  0.22522632799E+02  0.10500000000E+00 0.  1.
         13    1    6    6    0    0 -0.10142691661E+02  0.17357789001E+02 -0.25269752428E+02  0.32291460882E+02  0.10500000000E+00 0. -1.
</event>
<event>
11    0  0.3510903E-009  0.9118800E+02  0.7816531E-02  0.1126479E+00
         25   -1    0    0    0    0  0.00000000000E+00  0.00000000000E+00  0.99999998245E-14  0.12500000000E+03  0.12500000000E+03 0.  0.
    3000001    1    3    3    0    0  0.23204902718E+02 -0.29546220666E+02  0.51528440353E+01  0.37934133277E+02  0.10000000000E+01 0. -1.
    1000022    2    1    0    0    0  0.36780193761E+02 -0.49527614581E+02  0.69473837830E+00  0.62500000580E+02  0.10000007599E+02 0.  0.
    3000022    2    3    3    0    0  0.13575291043E+02 -0.19981393915E+02 -0.44581056570E+01  0.24565867304E+02  0.25000132357E+00 0.  0.
    1000022    2    1    0    0    0 -0.36780193761E+02  0.49527614581E+02 -0.69473837830E+00  0.62499999420E+02  0.10000000347E+02 0.  0.
    3000022    2    5    5    0    0 -0.31185735153E+02  0.41073934697E+02  0.30124134719E+01  0.51659997320E+02  0.24999924541E+00 0.  0.
        -13    1    4    4    0    0  0.97226302424E+01 -0.14243672348E+02 -0.31643033764E+01  0.17533841041E+02  0.10500000000E+00 0. -1.
         13    1    4    4    0    0  0.38526608004E+01 -0.57377215669E+01 -0.12938022806E+01  0.70320262630E+01  0.10500000000E+00 0.  1.
    3000001    1    5    5    0    0 -0.55944586078E+01  0.84536798838E+01 -0.37071518502E+01  0.10840002100E+02  0.10000000000E+01 0.  1.
        -13    1    6    6    0    0 -0.21197072242E+02  0.27835214061E+02  0.20535323167E+01  0.35047725082E+02  0.10500000000E+00 0. -1.
         13    1    6    6    0    0 -0.99886629107E+01  0.13238720636E+02  0.95888115515E+00  0.16612272237E+02  0.10500000000E+00 0.  1.
</event>
<event>
11    0  0.3510903E-009  0.9118800E+02  0.7816531E-02  0.1126479E+00
         25   -1    0    0    0    0  0.00000000000E+00  0.00000000000E+00  0.99999998245E-14  0.12500000000E+03  0.12500000000E+03 0.  0.
    3000001    1    3    3    0    0  0.25948579051E+00 -0.35087446566E+00  0.23218335142E+01  0.25654154895E+01  0.10000000000E+01 0. -1.
    1000022    2    1    0    0    0  0.14267130762E+02 -0.45790888902E+02  0.38805843260E+02  0.62500000636E+02  0.10000004089E+02 0.  0.
    3000022    2    3    3    0    0  0.14007644971E+02 -0.45440014437E+02  0.36484009745E+02  0.59934585146E+02  0.24999989408E+00 0.  0.
    1000022    2    1    0    0    0 -0.14267130762E+02  0.45790888902E+02 -0.38805843260E+02  0.62499999364E+02  0.99999961395E+01 0.  0.
    3000022    2    5    5    0    0 -0.15087444029E+02  0.43934965172E+02 -0.38238590628E+02  0.60167802482E+02  0.25002052942E+00 0.  0.
        -13    1    4    4    0    0  0.56690330125E+01 -0.18176366329E+02  0.14603444123E+02  0.23995621132E+02  0.10500000000E+00 0. -1.
         13    1    4    4    0    0  0.83386119585E+01 -0.27263648107E+02  0.21880565622E+02  0.35938964015E+02  0.10500000000E+00 0.  1.
    3000001    1    5    5    0    0  0.82031326781E+00  0.18559237301E+01 -0.56725263172E+00  0.23321968822E+01  0.10000000000E+01 0.  1.
        -13    1    6    6    0    0 -0.64562470011E+01  0.18600279612E+02 -0.16205600623E+02  0.25500706726E+02  0.10500000000E+00 0.  1.
         13    1    6    6    0    0 -0.86311970282E+01  0.25334685560E+02 -0.22032990005E+02  0.34667095756E+02  0.10500000000E+00 0. -1.
</event>
<event>
11    0  0.3510903E-009  0.9118800E+02  0.7816531E-02  0.1126479E+00
         25   -1    0    0    0    0  0.00000000000E+00  0.00000000000E+00  0.99999998245E-14  0.12500000000E+03  0.12500000000E+03 0.  0.
    3000001    1    3    3    0    0  0.23014529018E+02  0.99218667676E+01  0.68186821138E+01  0.25992429895E+02  0.10000000000E+01 0.  1.
    1000022    2    1    0    0    0  0.48965518766E+02  0.33669027770E+02  0.16583847683E+02  0.62499997333E+02  0.10000010185E+02 0.  0.
    3000022    2    3    3    0    0  0.25950989748E+02  0.23747161002E+02  0.97651655695E+01  0.36507567439E+02  0.24999421274E+00 0.  0.
    1000022    2    1    0    0    0 -0.48965518766E+02 -0.33669027770E+02 -0.16583847683E+02  0.62500002667E+02  0.10000043518E+02 0.  0.
    3000022    2    5    5    0    0 -0.60805023222E+01 -0.83968223175E+01 -0.42504203255E+01  0.11207484360E+02  0.24999844401E+00 0.  0.
        -13    1    4    4    0    0  0.78107153499E+01  0.71124106099E+01  0.29720444685E+01  0.10974412617E+02  0.10500000000E+00 0.  1.
         13    1    4    4    0    0  0.18140274398E+02  0.16634750393E+02  0.67931211010E+01  0.25533154822E+02  0.10500000000E+00 0. -1.
    3000001    1    5    5    0    0 -0.42885016444E+02 -0.25272205453E+02 -0.12333427358E+02  0.51292518306E+02  0.10000000000E+01 0.  1.
        -13    1    6    6    0    0 -0.37258376732E+01 -0.52176173171E+01 -0.26755524499E+01  0.69480214988E+01  0.10500000000E+00 0. -1.
         13    1    6    6    0    0 -0.23546646490E+01 -0.31792050003E+01 -0.15748678755E+01  0.42594628615E+01  0.10500000000E+00 0.  1.
</event>
<event>
11    0  0.3510903E-009  0.9118800E+02  0.7816531E-02  0.1126479E+00
         25   -1    0    0    0    0  0.00000000000E+00  0.00000000000E+00  0.99999998245E-14  0.12500000000E+03  0.12500000000E+03 0.  0.
    3000001    1    3    3    0    0  0.11419586490E+02 -0.11701190855E+02  0.51298148526E+01  0.17165075690E+02  0.10000000000E+01 0.  1.
    1000022    2    1    0    0    0  0.30244010620E+02 -0.44849680798E+02  0.29665738356E+02  0.62500000088E+02  0.99999966364E+01 0.  0.
    3000022    2    3    3    0    0  0.18824424129E+02 -0.33148489943E+02  0.24535923503E+02  0.45334924398E+02  0.24999731821E+00 0.  0.
    1000022    2    1    0    0    0 -0.30244010620E+02  0.44849680798E+02 -0.29665738356E+02  0.62499999912E+02  0.99999955355E+01 0.  0.
    3000022    2    5    5    0    0 -0.28045217581E+02  0.38117349729E+02 -0.22589838239E+02  0.52438820313E+02  0.25000932574E+00 0.  0.
        -13    1    4    4    0    0  0.12908649331E+02 -0.22638800599E+02  0.16797383271E+02  0.31005025881E+02  0.10500000000E+00 0. -1.
         13    1    4    4    0    0  0.59157747982E+01 -0.10509689345E+02  0.77385402322E+01  0.14329898517E+02  0.10500000000E+00 0.  1.
    3000001    1    5    5    0    0 -0.21987930389E+01  0.67323310699E+01 -0.70759001166E+01  0.10061179599E+02  0.10000000000E+01 0.  1.
        -13    1    6    6    0    0 -0.79152082729E+01  0.10804357932E+02 -0.63603140428E+01  0.14827315740E+02  0.10500000000E+00 0.  1.
         13    1    6    6    0    0 -0.20130009308E+02  0.27312991796E+02 -0.16229524197E+02  0.37611504573E+02  0.10500000000E+00 0. -1.
</event>
<event>
11    0  0.3510903E-009  0.9118800E+02  0.7816531E-02  0.1126479E+00
         25   -1    0    0    0    0  0.00000000000E+00  0.00000000000E+00  0.99999998245E-14  0.12500000000E+03  0.12500000000E+03 0.  0.
    3000001    1    3    3    0    0 -0.26701740379E+00 -0.68933861683E+01 -0.72919481625E+00  0.70086943320E+01  0.10000000000E+01 0. -1.
    1000022    2    1    0    0    0 -0.24596058659E+02 -0.56071741433E+02  0.75659507401E+01  0.62499998345E+02  0.99999946814E+01 0.  0.
    3000022    2    3    3    0    0 -0.24329041255E+02 -0.49178355265E+02  0.82951455563E+01  0.55491304013E+02  0.25001263178E+00 0.  0.
    1000022    2    1    0    0    0  0.24596058659E+02  0.56071741433E+02 -0.75659507401E+01  0.62500001655E+02  0.10000015369E+02 0.  0.
    3000022    2    5    5    0    0  0.10973799744E+02  0.21323907911E+02  0.16611766427E+01  0.24040701711E+02  0.25000302964E+00 0.  0.
        -13    1    4    4    0    0 -0.14262728718E+02 -0.28870435276E+02  0.49308435279E+01  0.32576858449E+02  0.10500000000E+00 0. -1.
         13    1    4    4    0    0 -0.10066312538E+02 -0.20307919989E+02  0.33643020284E+01  0.22914445564E+02  0.10500000000E+00 0.  1.
    3000001    1    5    5    0    0  0.13622258915E+02  0.34747833522E+02 -0.92271273828E+01  0.38459299944E+02  0.10000000000E+01 0.  1.
        -13    1    6    6    0    0  0.32415836284E+01  0.62053009813E+01  0.47727824108E+00  0.70180085642E+01  0.10500000000E+00 0. -1.
         13    1    6    6    0    0  0.77322161160E+01  0.15118606930E+02  0.11838984016E+01  0.17022693147E+02  0.10500000000E+00 0.  1.
</event>
<event>
11    0  0.3510903E-009  0.9118800E+02  0.7816531E-02  0.1126479E+00
         25   -1    0    0    0    0  0.00000000000E+00  0.00000000000E+00  0.99999998245E-14  0.12500000000E+03  0.12500000000E+03 0.  0.
    3000001    1    3    3    0    0  0.96896211743E+01  0.20184412859E+02 -0.14748536648E+02  0.26829435593E+02  0.10000000000E+01 0. -1.
    1000022    2    1    0    0    0  0.12661593336E+02  0.45455316206E+02 -0.39746047166E+02  0.62500000647E+02  0.10000004919E+02 0.  0.
    3000022    2    3    3    0    0  0.29719721618E+01  0.25270903346E+02 -0.24997510518E+02  0.35670565054E+02  0.25000941467E+00 0.  0.
    1000022    2    1    0    0    0 -0.12661593336E+02 -0.45455316206E+02  0.39746047166E+02  0.62499999353E+02  0.99999968303E+01 0.  0.
    3000022    2    5    5    0    0  0.25016445660E+00 -0.30136507425E+01  0.60992384903E+01  0.68123329387E+01  0.24999370524E+00 0.  0.
        -13    1    4    4    0    0  0.19251337675E+01  0.16588225098E+02 -0.16474426805E+02  0.23458327210E+02  0.10500000000E+00 0.  1.
         13    1    4    4    0    0  0.10468383943E+01  0.86826782481E+01 -0.85230837132E+01  0.12212237844E+02  0.10500000000E+00 0. -1.
    3000001    1    5    5    0    0 -0.12911757793E+02 -0.42441665463E+02  0.33646808676E+02  0.55687666414E+02  0.10000000000E+01 0. -1.
        -13    1    6    6    0    0  0.78742080205E-01 -0.10269555667E+01  0.22064930557E+01  0.24373088963E+01  0.10500000000E+00 0.  1.
         13    1    6    6    0    0  0.17142237640E+00 -0.19866951758E+01  0.38927454346E+01  0.43750240424E+01  0.10500000000E+00 0. -1.
</event>
<event>
11    0  0.3510903E-009  0.9118800E+02  0.7816531E-02  0.1126479E+00
         25   -1    0    0    0    0  0.00000000000E+00  0.00000000000E+00  0.99999998245E-14  0.12500000000E+03  0.12500000000E+03 0.  0.
    3000001    1    3    3    0    0 -0.12218694699E+02  0.17830490647E+02  0.50832136474E+02  0.55246076742E+02  0.10000000000E+01 0.  1.
    1000022    2    1    0    0    0 -0.10242833285E+02  0.20407937717E+02  0.57313617803E+02  0.62499997691E+02  0.99999685083E+01 0.  0.
    3000022    2    3    3    0    0  0.19758614140E+01  0.25774470704E+01  0.64814813287E+01  0.72539209492E+01  0.25001438848E+00 0.  0.
    1000022    2    1    0    0    0  0.10242833285E+02 -0.20407937717E+02 -0.57313617803E+02  0.62500002309E+02  0.99999973724E+01 0.  0.
    3000022    2    5    5    0    0  0.96867661144E+01 -0.97378598716E+01 -0.26123382022E+02  0.29515300097E+02  0.24999790427E+00 0.  0.
        -13    1    4    4    0    0  0.50546881488E+00  0.66814272881E+00  0.17492767509E+01  0.19423973796E+01  0.10500000000E+00 0. -1.
         13    1    4    4    0    0  0.14703925991E+01  0.19093043416E+01  0.47322045778E+01  0.53115235696E+01  0.10500000000E+00 0.  1.
    3000001    1    5    5    0    0  0.55606717035E+00 -0.10670077846E+02 -0.31190235781E+02  0.32984702212E+02  0.10000000000E+01 0.  1.
        -13    1    6    6    0    0  0.69117186091E+01 -0.69400016302E+01 -0.18537392877E+02  0.20966197472E+02  0.10500000000E+00 0. -1.
         13    1    6    6    0    0  0.27750475053E+01 -0.27978582414E+01 -0.75859891448E+01  0.85491026255E+01  0.10500000000E+00 0.  1.
</event>
<event>
11    0  0.3510903E-009  0.9118800E+02  0.7816531E-02  0.1126479E+00
         25   -1    0    0    0    0  0.00000000000E+00  0.00000000000E+00  0.99999998245E-14  0.12500000000E+03  0.12500000000E+03 0.  0.
    3000001    1    3    3    0    0  0.19926331682E+02  0.25113302975E+02 -0.20147914679E+02  0.37877105836E+02  0.10000000000E+01 0.  1.
    1000022    2    1    0    0    0  0.27511759565E+02  0.39321275672E+02 -0.38770993345E+02  0.62499996820E+02  0.10000002135E+02 0.  0.
    3000022    2    3    3    0    0  0.75854278828E+01  0.14207972698E+02 -0.18623078666E+02  0.24622890984E+02  0.24999413854E+00 0.  0.
    1000022    2    1    0    0    0 -0.27511759565E+02 -0.39321275672E+02  0.38770993345E+02  0.62500003180E+02  0.10000041886E+02 0.  0.
    3000022    2    5    5    0    0 -0.16865433578E+02 -0.24028221651E+02  0.17391877215E+02  0.34122399955E+02  0.25000027554E+00 0.  0.
        -13    1    4    4    0    0  0.30894800674E+01  0.58124478562E+01 -0.77074626596E+01  0.10136342675E+02  0.10500000000E+00 0. -1.
         13    1    4    4    0    0  0.44959478155E+01  0.83955248416E+01 -0.10915616006E+02  0.14486548309E+02  0.10500000000E+00 0.  1.
    3000001    1    5    5    0    0 -0.10646325987E+02 -0.15293054022E+02  0.21379116130E+02  0.28377603225E+02  0.10000000000E+01 0.  1.
        -13    1    6    6    0    0 -0.11395327997E+02 -0.16319520303E+02  0.11810510942E+02  0.23144749659E+02  0.10500000000E+00 0.  1.
         13    1    6    6    0    0 -0.54701055813E+01 -0.77087013477E+01  0.55813662732E+01  0.10977650296E+02  0.10500000000E+00 0. -1.
</event>
<event>
11    0  0.3510903E-009  0.9118800E+02  0.7816531E-02  0.1126479E+00
         25   -1    0    0    0    0  0.00000000000E+00  0.00000000000E+00  0.99999998245E-14  0.12500000000E+03  0.12500000000E+03 0.  0.
    3000001    1    3    3    0    0  0.23473533563E+02 -0.53080553422E+02 -0.95868732691E+01  0.58834174326E+02  0.10000000000E+01 0. -1.
    1000022    2    1    0    0    0  0.25062003627E+02 -0.55029641463E+02 -0.12242735073E+02  0.62500000170E+02  0.99999996931E+01 0.  0.
    3000022    2    3    3    0    0  0.15884700639E+01 -0.19490880404E+01 -0.26558618037E+01  0.36658258438E+01  0.24999172731E+00 0.  0.
    1000022    2    1    0    0    0 -0.25062003627E+02  0.55029641463E+02  0.12242735073E+02  0.62499999830E+02  0.99999975671E+01 0.  0.
    3000022    2    5    5    0    0 -0.15079123461E+02  0.21838695442E+02  0.37775728846E+01  0.26807482897E+02  0.24999877766E+00 0.  0.
        -13    1    4    4    0    0  0.98814248983E+00 -0.12370292211E+01 -0.17524436255E+01  0.23640538350E+01  0.10500000000E+00 0. -1.
         13    1    4    4    0    0  0.60032757402E+00 -0.71205881935E+00 -0.90341817818E+00  0.13017720088E+01  0.10500000000E+00 0. -1.
    3000001    1    5    5    0    0 -0.99828801662E+01  0.33190946021E+02  0.84651621882E+01  0.35692516933E+02  0.10000000000E+01 0.  1.
        -13    1    6    6    0    0 -0.54907855390E+01  0.79053405024E+01  0.13174771023E+01  0.97154467324E+01  0.10500000000E+00 0.  1.
         13    1    6    6    0    0 -0.95883379220E+01  0.13933354940E+02  0.24600957823E+01  0.17092036164E+02  0.10500000000E+00 0. -1.
</event>
<event>
11    0  0.3510903E-009  0.9118800E+02  0.7816531E-02  0.1126479E+00
         25   -1    0    0    0    0  0.00000000000E+00  0.00000000000E+00  0.99999998245E-14  0.12500000000E+03  0.12500000000E+03 0.  0.
    3000001    1    3    3    0    0  0.15862921990E+02 -0.23791223405E+02 -0.50092220569E+02  0.57687825117E+02  0.10000000000E+01 0.  1.
    1000022    2    1    0    0    0  0.14478080236E+02 -0.26552261139E+02 -0.53773716580E+02  0.62500000211E+02  0.10000002629E+02 0.  0.
    3000022    2    3    3    0    0 -0.13848417537E+01 -0.27610377341E+01 -0.36814960107E+01  0.48121750938E+01  0.25000040770E+00 0.  0.
    1000022    2    1    0    0    0 -0.14478080236E+02  0.26552261139E+02  0.53773716580E+02  0.62499999789E+02  0.99999999970E+01 0.  0.
    3000022    2    5    5    0    0 -0.51168549445E+01  0.16128163030E+02  0.36532216195E+02  0.40261211696E+02  0.24999968495E+00 0.  0.
        -13    1    4    4    0    0 -0.51716217208E+00 -0.10069519073E+01 -0.14425324248E+01  0.18366637288E+01  0.10500000000E+00 0. -1.
         13    1    4    4    0    0 -0.86767958164E+00 -0.17540858268E+01 -0.22389635859E+01  0.29755113650E+01  0.10500000000E+00 0.  1.
    3000001    1    5    5    0    0 -0.93612252918E+01  0.10424098109E+02  0.17241500384E+02  0.22238788093E+02  0.10000000000E+01 0.  1.
        -13    1    6    6    0    0 -0.21388220177E+01  0.68381712544E+01  0.15608161360E+02  0.17174424933E+02  0.10500000000E+00 0. -1.
         13    1    6    6    0    0 -0.29780329268E+01  0.92899917755E+01  0.20924054835E+02  0.23086786763E+02  0.10500000000E+00 0.  1.
</event>
<event>
11    0  0.3510903E-009  0.9118800E+02  0.7816531E-02  0.1126479E+00
         25   -1    0    0    0    0  0.00000000000E+00  0.00000000000E+00  0.99999998245E-14  0.12500000000E+03  0.12500000000E+03 0.  0.
    3000001    1    3    3    0    0  0.13793449864E+02  0.17296966535E+02 -0.11289379470E+01  0.22174733625E+02  0.10000000000E+01 0. -1.
    1000022    2    1    0    0    0  0.33030307674E+02  0.49884395796E+02 -0.15059743878E+02  0.62499999668E+02  0.99999951942E+01 0.  0.
    3000022    2    3    3    0    0  0.19236857811E+02  0.32587429261E+02 -0.13930805931E+02  0.40325266043E+02  0.24996662550E+00 0.  0.
    1000022    2    1    0    0    0 -0.33030307674E+02 -0.49884395796E+02  0.15059743878E+02  0.62500000332E+02  0.99999993452E+01 0.  0.
    3000022    2    5    5    0    0 -0.18688309533E+02 -0.32943614705E+02  0.53499380893E+01  0.38252045716E+02  0.25000165504E+00 0.  0.
        -13    1    4    4    0    0  0.95733241229E+01  0.16327353372E+02 -0.69268216582E+01  0.20154971748E+02  0.10500000000E+00 0.  1.
         13    1    4    4    0    0  0.96635336878E+01  0.16260075889E+02 -0.70039842724E+01  0.20170294295E+02  0.10500000000E+00 0. -1.
    3000001    1    5    5    0    0 -0.14341998141E+02 -0.16940781091E+02  0.97098057883E+01  0.24247954617E+02  0.10000000000E+01 0. -1.
        -13    1    6    6    0    0 -0.84944009146E+01 -0.15087107063E+02  0.24829217604E+01  0.17491471405E+02  0.10500000000E+00 0. -1.
         13    1    6    6    0    0 -0.10193908619E+02 -0.17856507642E+02  0.28670163289E+01  0.20760574311E+02  0.10500000000E+00 0.  1.
</event>
<event>
11    0  0.3510903E-009  0.9118800E+02  0.7816531E-02  0.1126479E+00
         25   -1    0    0    0    0  0.00000000000E+00  0.00000000000E+00  0.99999998245E-14  0.12500000000E+03  0.12500000000E+03 0.  0.
    3000001    1    3    3    0    0 -0.45670457442E+02  0.33199272664E+02  0.34386333681E+01  0.56575671342E+02  0.10000000000E+01 0. -1.
    1000022    2    1    0    0    0 -0.51071457602E+02  0.34144189618E+02  0.56683365029E+01  0.62500006525E+02  0.10000065529E+02 0.  0.
    3000022    2    3    3    0    0 -0.54010001600E+01  0.94491695451E+00  0.22297031348E+01  0.59243351826E+01  0.25000101448E+00 0.  0.
    1000022    2    1    0    0    0  0.51071457602E+02 -0.34144189618E+02 -0.56683365029E+01  0.62499993475E+02  0.99999839701E+01 0.  0.
    3000022    2    5    5    0    0  0.34436431791E+02 -0.17774161819E+02 -0.15894859562E+01  0.38786307224E+02  0.24999906361E+00 0.  0.
        -13    1    4    4    0    0 -0.13893581214E+01  0.27425015217E+00  0.57331819131E+00  0.15314202179E+01  0.10500000000E+00 0.  1.
         13    1    4    4    0    0 -0.40116420387E+01  0.67066680233E+00  0.16563849435E+01  0.43929149647E+01  0.10500000000E+00 0. -1.
    3000001    1    5    5    0    0  0.16635025811E+02 -0.16370027799E+02 -0.40788505468E+01  0.23713686252E+02  0.10000000000E+01 0.  1.
        -13    1    6    6    0    0  0.22281078953E+02 -0.11461656996E+02 -0.98203351126E+00  0.25075714849E+02  0.10500000000E+00 0.  1.
         13    1    6    6    0    0  0.12155352838E+02 -0.63125048236E+01 -0.60745244489E+00  0.13710592374E+02  0.10500000000E+00 0. -1.
</event>
<event>
11    0  0.3510903E-009  0.9118800E+02  0.7816531E-02  0.1126479E+00
         25   -1    0    0    0    0  0.00000000000E+00  0.00000000000E+00  0.99999998245E-14  0.12500000000E+03  0.12500000000E+03 0.  0.
    3000001    1    3    3    0    0  0.17136398735E+02  0.28865670959E+02 -0.48590311359E+01  0.33933660355E+02  0.10000000000E+01 0.  1.
    1000022    2    1    0    0    0  0.23512004547E+02  0.56655944777E+02 -0.65984318871E+01  0.62499997705E+02  0.99999986687E+01 0.  0.
    3000022    2    3    3    0    0  0.63756058114E+01  0.27790273818E+02 -0.17394007513E+01  0.28566337350E+02  0.24989249937E+00 0.  0.
    1000022    2    1    0    0    0 -0.23512004547E+02 -0.56655944777E+02  0.65984318871E+01  0.62500002295E+02  0.10000027353E+02 0.  0.
    3000022    2    5    5    0    0 -0.15414034028E+02 -0.47053169850E+02  0.44102690001E+01  0.49710222404E+02  0.25000174315E+00 0.  0.
        -13    1    4    4    0    0  0.36851230677E+01  0.15793636203E+02 -0.96349947628E+00  0.16246797617E+02  0.10500000000E+00 0. -1.
         13    1    4    4    0    0  0.26904827437E+01  0.11996637615E+02 -0.77590127497E+00  0.12319539733E+02  0.10500000000E+00 0.  1.
    3000001    1    5    5    0    0 -0.80979705187E+01 -0.96027749272E+01  0.21881628870E+01  0.12789779890E+02  0.10000000000E+01 0. -1.
        -13    1    6    6    0    0 -0.63374076312E+01 -0.19510788493E+02  0.18661253291E+01  0.20599200272E+02  0.10500000000E+00 0.  1.
         13    1    6    6    0    0 -0.90766263967E+01 -0.27542381357E+02  0.25441436710E+01  0.29111022133E+02  0.10500000000E+00 0. -1.
</event>
<event>
11    0  0.3510903E-009  0.9118800E+02  0.7816531E-02  0.1126479E+00
         25   -1    0    0    0    0  0.00000000000E+00  0.00000000000E+00  0.99999998245E-14  0.12500000000E+03  0.12500000000E+03 0.  0.
    3000001    1    3    3    0    0 -0.11258317489E+02  0.18341881265E+02 -0.17606864448E+02  0.27824018343E+02  0.10000000000E+01 0. -1.
    1000022    2    1    0    0    0 -0.24951210090E+02  0.32401259465E+02 -0.46193579358E+02  0.62500007065E+02  0.99999804650E+01 0.  0.
    3000022    2    3    3    0    0 -0.13692892601E+02  0.14059378200E+02 -0.28586714910E+02  0.34675988722E+02  0.25000273352E+00 0.  0.
    1000022    2    1    0    0    0  0.24951210090E+02 -0.32401259465E+02  0.46193579358E+02  0.62499992935E+02  0.99998921496E+01 0.  0.
    3000022    2    5    5    0    0  0.16177539051E+02 -0.14590580416E+02  0.19663221464E+02  0.29347957074E+02  0.24999892429E+00 0.  0.
        -13    1    4    4    0    0 -0.65079095968E+01  0.65859345126E+01 -0.13473952680E+02  0.16348879061E+02  0.10500000000E+00 0.  1.
         13    1    4    4    0    0 -0.71849830043E+01  0.74734436874E+01 -0.15112762230E+02  0.18327109661E+02  0.10500000000E+00 0. -1.
    3000001    1    5    5    0    0  0.87736710395E+01 -0.17810679049E+02  0.26530357895E+02  0.33152035861E+02  0.10000000000E+01 0. -1.
        -13    1    6    6    0    0  0.83933284738E+01 -0.75083328237E+01  0.10097311374E+02  0.15125797389E+02  0.10500000000E+00 0. -1.
         13    1    6    6    0    0  0.77842105770E+01 -0.70822475924E+01  0.95659100892E+01  0.14222159685E+02  0.10500000000E+00 0.  1.
</event>
<event>
11    0  0.3510903E-009  0.9118800E+02  0.7816531E-02  0.1126479E+00
         25   -1    0    0    0    0  0.00000000000E+00  0.00000000000E+00  0.99999998245E-14  0.12500000000E+03  0.12500000000E+03 0.  0.
    3000001    1    3    3    0    0 -0.54482347200E+02  0.69864945321E+01 -0.84080606427E+00  0.54944009838E+02  0.10000000000E+01 0. -1.
    1000022    2    1    0    0    0 -0.61444808872E+02  0.53231733458E+01  0.15650123175E+01  0.62499998944E+02  0.99999946334E+01 0.  0.
    3000022    2    3    3    0    0 -0.69624616719E+01 -0.16633211863E+01  0.24058183818E+01  0.75559891057E+01  0.24999875612E+00 0.  0.
    1000022    2    1    0    0    0  0.61444808872E+02 -0.53231733458E+01 -0.15650123175E+01  0.62500001056E+02  0.10000007831E+02 0.  0.
    3000022    2    5    5    0    0  0.11437162702E+02 -0.42165404028E+01  0.19482781401E+01  0.12346910206E+02  0.25000056559E+00 0.  0.
        -13    1    4    4    0    0 -0.52815416592E+01 -0.12668688695E+01  0.18036383000E+01  0.57239649848E+01  0.10500000000E+00 0. -1.
         13    1    4    4    0    0 -0.16809200128E+01 -0.39645231683E+00  0.60218008176E+00  0.18320241209E+01  0.10500000000E+00 0.  1.
    3000001    1    5    5    0    0  0.50007646170E+02 -0.11066329430E+01 -0.35132904576E+01  0.50153090850E+02  0.10000000000E+01 0. -1.
        -13    1    6    6    0    0  0.87963438110E+01 -0.32465643886E+01  0.14904939505E+01  0.94946533369E+01  0.10500000000E+00 0.  1.
         13    1    6    6    0    0  0.26408188913E+01 -0.96997601425E+00  0.45778418956E+00  0.28522568694E+01  0.10500000000E+00 0. -1.
</event>
<event>
11    0  0.3510903E-009  0.9118800E+02  0.7816531E-02  0.1126479E+00
         25   -1    0    0    0    0  0.00000000000E+00  0.00000000000E+00  0.99999998245E-14  0.12500000000E+03  0.12500000000E+03 0.  0.
    3000001    1    3    3    0    0  0.39842609715E+01  0.56658801143E+00  0.50138584554E+01  0.65064686331E+01  0.10000000000E+01 0.  1.
    1000022    2    1    0    0    0  0.19014280402E+02  0.24987430265E+02  0.53106831287E+02  0.62499999932E+02  0.99999965815E+01 0.  0.
    3000022    2    3    3    0    0  0.15030019431E+02  0.24420842253E+02  0.48092972832E+02  0.55993531299E+02  0.24998203282E+00 0.  0.
    1000022    2    1    0    0    0 -0.19014280402E+02 -0.24987430265E+02 -0.53106831287E+02  0.62500000068E+02  0.99999974350E+01 0.  0.
    3000022    2    5    5    0    0 -0.92551948411E+01 -0.72272979549E+01 -0.26936092698E+02  0.29385507637E+02  0.25000397712E+00 0.  0.
        -13    1    4    4    0    0  0.73512335390E+01  0.11901542473E+02  0.23586196659E+02  0.27422746865E+02  0.10500000000E+00 0.  1.
         13    1    4    4    0    0  0.76787858918E+01  0.12519299780E+02  0.24506776173E+02  0.28570784434E+02  0.10500000000E+00 0. -1.
    3000001    1    5    5    0    0 -0.97590855611E+01 -0.17760132310E+02 -0.26170738590E+02  0.33114492431E+02  0.10000000000E+01 0.  1.
        -13    1    6    6    0    0 -0.29303495787E+01 -0.23507944024E+01 -0.86491539935E+01  0.94303803093E+01  0.10500000000E+00 0.  1.
         13    1    6    6    0    0 -0.63248452625E+01 -0.48765035525E+01 -0.18286938704E+02  0.19955127328E+02  0.10500000000E+00 0. -1.
</event>
<event>
11    0  0.3510903E-009  0.9118800E+02  0.7816531E-02  0.1126479E+00
         25   -1    0    0    0    0  0.00000000000E+00  0.00000000000E+00  0.99999998245E-14  0.12500000000E+03  0.12500000000E+03 0.  0.
    3000001    1    3    3    0    0  0.37035219147E+02  0.62264936699E+01  0.52347061308E+01  0.37931238168E+02  0.10000000000E+01 0.  1.
    1000022    2    1    0    0    0  0.58776072294E+02  0.93951187633E+01  0.16228199287E+02  0.62500004451E+02  0.10000058668E+02 0.  0.
    3000022    2    3    3    0    0  0.21740853147E+02  0.31686250934E+01  0.10993493157E+02  0.24568766283E+02  0.25000866633E+00 0.  0.
    1000022    2    1    0    0    0 -0.58776072294E+02 -0.93951187633E+01 -0.16228199287E+02  0.62499995549E+02  0.10000003032E+02 0.  0.
    3000022    2    5    5    0    0 -0.55220182179E+02 -0.10618645085E+02 -0.16488875217E+02  0.58600082331E+02  0.24999977491E+00 0.  0.
        -13    1    4    4    0    0  0.10993563919E+02  0.15361285333E+01  0.55343216199E+01  0.12403946118E+02  0.10500000000E+00 0.  1.
         13    1    4    4    0    0  0.10747289229E+02  0.16324965601E+01  0.54591715367E+01  0.12164820165E+02  0.10500000000E+00 0. -1.
    3000001    1    5    5    0    0 -0.35558901151E+01  0.12235263221E+01  0.26067593006E+00  0.38999132185E+01  0.10000000000E+01 0. -1.
        -13    1    6    6    0    0 -0.26871660349E+02 -0.52293604310E+01 -0.79965016915E+01  0.28519947488E+02  0.10500000000E+00 0.  1.
         13    1    6    6    0    0 -0.28348521830E+02 -0.53892846544E+01 -0.84923735260E+01  0.30080134843E+02  0.10500000000E+00 0. -1.
</event>
<event>
11    0  0.3510903E-009  0.9118800E+02  0.7816531E-02  0.1126479E+00
         25   -1    0    0    0    0  0.00000000000E+00  0.00000000000E+00  0.99999998245E-14  0.12500000000E+03  0.12500000000E+03 0.  0.
    3000001    1    3    3    0    0 -0.30195258979E+01  0.22816513013E+01 -0.25183044455E+02  0.25485470318E+02  0.10000000000E+01 0.  1.
    1000022    2    1    0    0    0 -0.28929909349E+01  0.16351319678E+02 -0.59418138674E+02  0.62500004661E+02  0.10000016371E+02 0.  0.
    3000022    2    3    3    0    0  0.12653496300E+00  0.14069668376E+02 -0.34235094219E+02  0.37014534343E+02  0.24999428947E+00 0.  0.
    1000022    2    1    0    0    0  0.28929909349E+01 -0.16351319678E+02  0.59418138674E+02  0.62499995339E+02  0.99999581037E+01 0.  0.
    3000022    2    5    5    0    0 -0.33251038478E+01 -0.31821756211E+01  0.18150778593E+02  0.18726874980E+02  0.25005135906E+00 0.  0.
        -13    1    4    4    0    0  0.25507756781E-01  0.67404186628E+01 -0.16248625772E+02  0.17591553623E+02  0.10500000000E+00 0.  1.
         13    1    4    4    0    0  0.10102720622E+00  0.73292497135E+01 -0.17986468447E+02  0.19422980720E+02  0.10500000000E+00 0. -1.
    3000001    1    5    5    0    0  0.62180947827E+01 -0.13169144056E+02  0.41267360081E+02  0.43773120359E+02  0.10000000000E+01 0.  1.
        -13    1    6    6    0    0 -0.20496863795E+01 -0.20029701376E+01  0.11508957736E+02  0.11860869985E+02  0.10500000000E+00 0.  1.
         13    1    6    6    0    0 -0.12754174683E+01 -0.11792054835E+01  0.66418208571E+01  0.68660049948E+01  0.10500000000E+00 0. -1.
</event>
<event>
11    0  0.3510903E-009  0.9118800E+02  0.7816531E-02  0.1126479E+00
         25   -1    0    0    0    0  0.00000000000E+00  0.00000000000E+00  0.99999998245E-14  0.12500000000E+03  0.12500000000E+03 0.  0.
    3000001    1    3    3    0    0 -0.60359429796E+01  0.46406682652E+02  0.12900689824E+02  0.48553481856E+02  0.10000000000E+01 0. -1.
    1000022    2    1    0    0    0 -0.43943761117E+01  0.60249029629E+02  0.12529734391E+02  0.62500001787E+02  0.99999933374E+01 0.  0.
    3000022    2    3    3    0    0  0.16415668679E+01  0.13842346977E+02 -0.37095543276E+00  0.13946519930E+02  0.24999724410E+00 0.  0.
    1000022    2    1    0    0    0  0.43943761117E+01 -0.60249029629E+02 -0.12529734391E+02  0.62499998213E+02  0.99999710035E+01 0.  0.
    3000022    2    5    5    0    0 -0.29830898342E+00 -0.21653524290E+02 -0.59461022715E-01  0.21657103560E+02  0.24999311560E+00 0.  0.
        -13    1    4    4    0    0  0.10189020106E+01  0.80757917669E+01 -0.23821953526E+00  0.81439761491E+01  0.10500000000E+00 0.  1.
         13    1    4    4    0    0  0.62266485725E+00  0.57665552101E+01 -0.13273589750E+00  0.58025437813E+01  0.10500000000E+00 0. -1.
    3000001    1    5    5    0    0  0.46926850951E+01 -0.38595505339E+02 -0.12470273368E+02  0.40842894653E+02  0.10000000000E+01 0.  1.
        -13    1    6    6    0    0 -0.19989191457E+00 -0.15400740513E+02 -0.15399107259E-02  0.15402395674E+02  0.10500000000E+00 0. -1.
         13    1    6    6    0    0 -0.98417068849E-01 -0.62527837774E+01 -0.57921111989E-01  0.62547078862E+01  0.10500000000E+00 0.  1.
</event>
<event>
11    0  0.3510903E-009  0.9118800E+02  0.7816531E-02  0.1126479E+00
         25   -1    0    0    0    0  0.00000000000E+00  0.00000000000E+00  0.99999998245E-14  0.12500000000E+03  0.12500000000E+03 0.  0.
    3000001    1    3    3    0    0  0.37591025984E+02  0.58491324886E+01 -0.35281377028E+02  0.51894827781E+02  0.10000000000E+01 0.  1.
    1000022    2    1    0    0    0  0.47377981935E+02  0.48077715349E+01 -0.39223234706E+02  0.62499999970E+02  0.10000000806E+02 0.  0.
    3000022    2    3    3    0    0  0.97869559505E+01 -0.10413609537E+01 -0.39418576783E+01  0.10605172189E+02  0.24999159751E+00 0.  0.
    1000022    2    1    0    0    0 -0.47377981935E+02 -0.48077715349E+01  0.39223234706E+02  0.62500000030E+02  0.10000001176E+02 0.  0.
    3000022    2    5    5    0    0 -0.46861563452E+02 -0.57077035359E+01  0.38272449346E+02  0.60773570634E+02  0.24999970328E+00 0.  0.
        -13    1    4    4    0    0  0.37995477265E+01 -0.44912132634E+00 -0.15786864267E+01  0.41402353466E+01  0.10500000000E+00 0. -1.
         13    1    4    4    0    0  0.59874082240E+01 -0.59223962736E+00 -0.23631712517E+01  0.64649368428E+01  0.10500000000E+00 0.  1.
    3000001    1    5    5    0    0 -0.51641848248E+00  0.89993200105E+00  0.95078536078E+00  0.17264293956E+01  0.10000000000E+01 0. -1.
        -13    1    6    6    0    0 -0.16028947127E+02 -0.19395735222E+01  0.13020882950E+02  0.20742312051E+02  0.10500000000E+00 0.  1.
         13    1    6    6    0    0 -0.30832616326E+02 -0.37681300137E+01  0.25251566396E+02  0.40031258583E+02  0.10500000000E+00 0. -1.
</event>
<event>
11    0  0.3510903E-009  0.9118800E+02  0.7816531E-02  0.1126479E+00
         25   -1    0    0    0    0  0.00000000000E+00  0.00000000000E+00  0.99999998245E-14  0.12500000000E+03  0.12500000000E+03 0.  0.
    3000001    1    3    3    0    0 -0.30699865779E+02  0.11022121292E+02 -0.22979506161E+02  0.39912737566E+02  0.10000000000E+01 0. -1.
    1000022    2    1    0    0    0 -0.48483292270E+02  0.98650784847E+01 -0.36855110968E+02  0.62499988687E+02  0.99999989251E+01 0.  0.
    3000022    2    3    3    0    0 -0.17783426492E+02 -0.11570428078E+01 -0.13875604807E+02  0.22587251121E+02  0.24999717112E+00 0.  0.
    1000022    2    1    0    0    0  0.48483292270E+02 -0.98650784847E+01  0.36855110968E+02  0.62500011313E+02  0.10000140335E+02 0.  0.
    3000022    2    5    5    0    0  0.44622145443E+02 -0.11249391160E+02  0.31921400194E+02  0.56006454629E+02  0.25000855478E+00 0.  0.
        -13    1    4    4    0    0 -0.97878272776E+01 -0.57964516320E+00 -0.76776261307E+01  0.12453695007E+02  0.10500000000E+00 0.  1.
         13    1    4    4    0    0 -0.79955992144E+01 -0.57739764458E+00 -0.61979786767E+01  0.10133556114E+02  0.10500000000E+00 0. -1.
    3000001    1    5    5    0    0  0.38611468270E+01  0.13843126758E+01  0.49337107746E+01  0.64935566843E+01  0.10000000000E+01 0. -1.
        -13    1    6    6    0    0  0.22724746688E+02 -0.56636794099E+01  0.16216081407E+02  0.28486201882E+02  0.10500000000E+00 0.  1.
         13    1    6    6    0    0  0.21897398756E+02 -0.55857117505E+01  0.15705318787E+02  0.27520252746E+02  0.10500000000E+00 0. -1.
</event>
<event>
11    0  0.3510903E-009  0.9118800E+02  0.7816531E-02  0.1126479E+00
         25   -1    0    0    0    0  0.00000000000E+00  0.00000000000E+00  0.99999998245E-14  0.12500000000E+03  0.12500000000E+03 0.  0.
    3000001    1    3    3    0    0 -0.42914500809E+02  0.11337844997E+01 -0.27654056489E+01  0.43030074545E+02  0.10000000000E+01 0. -1.
    1000022    2    1    0    0    0 -0.61632774700E+02 -0.25164900293E+01  0.11483103478E+01  0.62499999014E+02  0.99999810384E+01 0.  0.
    3000022    2    3    3    0    0 -0.18718273892E+02 -0.36502745290E+01  0.39137159967E+01  0.19469924469E+02  0.25000860980E+00 0.  0.
    1000022    2    1    0    0    0  0.61632774700E+02  0.25164900293E+01 -0.11483103478E+01  0.62500000986E+02  0.99999933612E+01 0.  0.
    3000022    2    5    5    0    0  0.56016143428E+01  0.11659776293E+01  0.26594133882E+01  0.63144728240E+01  0.25000079659E+00 0.  0.
        -13    1    4    4    0    0 -0.99054810960E+01 -0.19411994731E+01  0.21396210303E+01  0.10318711852E+02  0.10500000000E+00 0. -1.
         13    1    4    4    0    0 -0.88127927958E+01 -0.17090750559E+01  0.17740949664E+01  0.91512126169E+01  0.10500000000E+00 0.  1.
    3000001    1    5    5    0    0  0.56031160358E+02  0.13505124000E+01 -0.38077237360E+01  0.56185528162E+02  0.10000000000E+01 0. -1.
        -13    1    6    6    0    0  0.23168265044E+01  0.47913601705E+00  0.10292727281E+01  0.25821858421E+01  0.10500000000E+00 0. -1.
         13    1    6    6    0    0  0.32847878384E+01  0.68684161224E+00  0.16301406601E+01  0.37322869819E+01  0.10500000000E+00 0.  1.
</event>
<event>
11    0  0.3510903E-009  0.9118800E+02  0.7816531E-02  0.1126479E+00
         25   -1    0    0    0    0  0.00000000000E+00  0.00000000000E+00  0.99999998245E-14  0.12500000000E+03  0.12500000000E+03 0.  0.
    3000001    1    3    3    0    0 -0.66836880089E+01  0.42418284117E+02  0.11256717746E+01  0.42968007282E+02  0.10000000000E+01 0. -1.
    1000022    2    1    0    0    0 -0.30547921755E+01  0.61582379769E+02  0.21280732255E+01  0.62500000413E+02  0.10000005136E+02 0.  0.
    3000022    2    3    3    0    0  0.36288958334E+01  0.19164095652E+02  0.10024014510E+01  0.19531993131E+02  0.24999975329E+00 0.  0.
    1000022    2    1    0    0    0  0.30547921755E+01 -0.61582379769E+02 -0.21280732255E+01  0.62499999587E+02  0.99999999795E+01 0.  0.
    3000022    2    5    5    0    0  0.23754002939E+01 -0.60467693624E+02 -0.30921786969E+01  0.60593799732E+02  0.24999617958E+00 0.  0.
        -13    1    4    4    0    0  0.26719654732E+01  0.14234511778E+02  0.72446212711E+00  0.14501606650E+02  0.10500000000E+00 0. -1.
         13    1    4    4    0    0  0.95693036021E+00  0.49295838732E+01  0.27793932384E+00  0.50303864807E+01  0.10500000000E+00 0.  1.
    3000001    1    5    5    0    0  0.67939188158E+00 -0.11146861445E+01  0.96410547134E+00  0.19061998556E+01  0.10000000000E+01 0.  1.
        -13    1    6    6    0    0  0.12053480511E+01 -0.32010017475E+02 -0.15939465747E+01  0.32072508061E+02  0.10500000000E+00 0.  1.
         13    1    6    6    0    0  0.11700522429E+01 -0.28457676149E+02 -0.14982321222E+01  0.28521291670E+02  0.10500000000E+00 0. -1.
</event>
<event>
11    0  0.3510903E-009  0.9118800E+02  0.7816531E-02  0.1126479E+00
         25   -1    0    0    0    0  0.00000000000E+00  0.00000000000E+00  0.99999998245E-14  0.12500000000E+03  0.12500000000E+03 0.  0.
    3000001    1    3    3    0    0  0.25047642234E+02  0.33326812725E+02  0.13096702823E+01  0.41722608550E+02  0.10000000000E+01 0.  1.
    1000022    2    1    0    0    0  0.34550632312E+02  0.50438167904E+02  0.82761771406E+01  0.62500000044E+02  0.99999961355E+01 0.  0.
    3000022    2    3    3    0    0  0.95029900774E+01  0.17111355179E+02  0.69665068583E+01  0.20777391494E+02  0.24996604021E+00 0.  0.
    1000022    2    1    0    0    0 -0.34550632312E+02 -0.50438167904E+02 -0.82761771406E+01  0.62499999956E+02  0.99999955891E+01 0.  0.
    3000022    2    5    5    0    0 -0.15422410842E+02 -0.27950876459E+02 -0.39231842604E+00  0.31926770467E+02  0.25001546640E+00 0.  0.
        -13    1    4    4    0    0  0.34527535006E+01  0.63378207525E+01  0.25590633197E+01  0.76582836654E+01  0.10500000000E+00 0.  1.
         13    1    4    4    0    0  0.60502365768E+01  0.10773534426E+02  0.44074435386E+01  0.13119107829E+02  0.10500000000E+00 0. -1.
    3000001    1    5    5    0    0 -0.19128221470E+02 -0.22487291446E+02 -0.78838587146E+01  0.30573229489E+02  0.10000000000E+01 0.  1.
        -13    1    6    6    0    0 -0.79871084005E+01 -0.14615200926E+02 -0.20863861201E+00  0.16656907089E+02  0.10500000000E+00 0.  1.
         13    1    6    6    0    0 -0.74353024415E+01 -0.13335675532E+02 -0.18367981403E+00  0.15269863378E+02  0.10500000000E+00 0. -1.
</event>
<event>
11    0  0.3510903E-009  0.9118800E+02  0.7816531E-02  0.1126479E+00
         25   -1    0    0    0    0  0.00000000000E+00  0.00000000000E+00  0.99999998245E-14  0.12500000000E+03  0.12500000000E+03 0.  0.
    3000001    1    3    3    0    0  0.93124042366E+01  0.80002274256E+01 -0.19601461891E+02  0.23150417270E+02  0.10000000000E+01 0. -1.
    1000022    2    1    0    0    0  0.14388703379E+02  0.16427560030E+02 -0.57700523237E+02  0.62500000773E+02  0.10000010067E+02 0.  0.
    3000022    2    3    3    0    0  0.50762991421E+01  0.84273326044E+01 -0.38099061347E+02  0.39349583503E+02  0.24999715351E+00 0.  0.
    1000022    2    1    0    0    0 -0.14388703379E+02 -0.16427560030E+02  0.57700523237E+02  0.62499999227E+02  0.10000000400E+02 0.  0.
    3000022    2    5    5    0    0 -0.10559928251E+02 -0.97149193622E+01  0.47758892592E+02  0.49868487693E+02  0.25000074972E+00 0.  0.
        -13    1    4    4    0    0  0.21611902262E+01  0.37100468762E+01 -0.16704365942E+02  0.17247668177E+02  0.10500000000E+00 0. -1.
         13    1    4    4    0    0  0.29151089159E+01  0.47172857282E+01 -0.21394695405E+02  0.22101915327E+02  0.10500000000E+00 0.  1.
    3000001    1    5    5    0    0 -0.38287751279E+01 -0.67126406678E+01  0.99416306458E+01  0.12631511533E+02  0.10000000000E+01 0.  1.
        -13    1    6    6    0    0 -0.44301773486E+01 -0.41442583842E+01  0.20334245263E+02  0.21220129696E+02  0.10500000000E+00 0.  1.
         13    1    6    6    0    0 -0.61297509021E+01 -0.55706609780E+01  0.27424647329E+02  0.28648357998E+02  0.10500000000E+00 0. -1.
</event>
<event>
11    0  0.3510903E-009  0.9118800E+02  0.7816531E-02  0.1126479E+00
         25   -1    0    0    0    0  0.00000000000E+00  0.00000000000E+00  0.99999998245E-14  0.12500000000E+03  0.12500000000E+03 0.  0.
    3000001    1    3    3    0    0  0.79492200075E+01  0.21524513609E+02 -0.11693633571E+02  0.25772773442E+02  0.10000000000E+01 0.  1.
    1000022    2    1    0    0    0  0.17623380391E+02  0.56474691311E+02 -0.17500734698E+02  0.62500000762E+02  0.10000004259E+02 0.  0.
    3000022    2    3    3    0    0  0.96741603838E+01  0.34950177702E+02 -0.58071011275E+01  0.36727227320E+02  0.25000508227E+00 0.  0.
    1000022    2    1    0    0    0 -0.17623380391E+02 -0.56474691311E+02  0.17500734698E+02  0.62499999238E+02  0.99999947316E+01 0.  0.
    3000022    2    5    5    0    0 -0.14182472896E+01 -0.64920440706E+01 -0.11232739580E+01  0.67440572903E+01  0.25000552253E+00 0.  0.
        -13    1    4    4    0    0  0.65378362739E+01  0.23809009978E+02 -0.39534535863E+01  0.25005061078E+02  0.10500000000E+00 0.  1.
         13    1    4    4    0    0  0.31363241099E+01  0.11141167725E+02 -0.18536475412E+01  0.11722166242E+02  0.10500000000E+00 0. -1.
    3000001    1    5    5    0    0 -0.16205133102E+02 -0.49982647241E+02  0.18624008656E+02  0.55755941947E+02  0.10000000000E+01 0. -1.
        -13    1    6    6    0    0 -0.50193576709E+00 -0.25073029501E+01 -0.47500418333E+00  0.26029140539E+01  0.10500000000E+00 0.  1.
         13    1    6    6    0    0 -0.91631152251E+00 -0.39847411205E+01 -0.64826977464E+00  0.41411432364E+01  0.10500000000E+00 0. -1.
</event>
<event>
11    0  0.3510903E-009  0.9118800E+02  0.7816531E-02  0.1126479E+00
         25   -1    0    0    0    0  0.00000000000E+00  0.00000000000E+00  0.99999998245E-14  0.12500000000E+03  0.12500000000E+03 0.  0.
    3000001    1    3    3    0    0  0.17360905162E+02 -0.19613063455E+02 -0.27250104981E+02  0.37810600466E+02  0.10000000000E+01 0.  1.
    1000022    2    1    0    0    0  0.32725890960E+02 -0.35180796105E+02 -0.38698548168E+02  0.62500000117E+02  0.10000001531E+02 0.  0.
    3000022    2    3    3    0    0  0.15364985798E+02 -0.15567732651E+02 -0.11448443187E+02  0.24689399652E+02  0.25003057822E+00 0.  0.
    1000022    2    1    0    0    0 -0.32725890960E+02  0.35180796105E+02  0.38698548168E+02  0.62499999883E+02  0.10000000066E+02 0.  0.
    3000022    2    5    5    0    0 -0.13009355313E+02  0.90394230168E+01  0.16822304062E+02  0.23108589384E+02  0.24999049875E+00 0.  0.
        -13    1    4    4    0    0  0.55431415031E+01 -0.56852314205E+01 -0.41932607294E+01  0.89801299864E+01  0.10500000000E+00 0.  1.
         13    1    4    4    0    0  0.98218442949E+01 -0.98825012301E+01 -0.72551824580E+01  0.15709269665E+02  0.10500000000E+00 0. -1.
    3000001    1    5    5    0    0 -0.19716535647E+02  0.26141373088E+02  0.21876244106E+02  0.39391410498E+02  0.10000000000E+01 0.  1.
        -13    1    6    6    0    0 -0.41351487674E+01  0.28155772747E+01  0.52906360535E+01  0.72820866219E+01  0.10500000000E+00 0.  1.
         13    1    6    6    0    0 -0.88742065453E+01  0.62238457421E+01  0.11531668009E+02  0.15826502763E+02  0.10500000000E+00 0. -1.
</event>
<event>
11    0  0.3510903E-009  0.9118800E+02  0.7816531E-02  0.1126479E+00
         25   -1    0    0    0    0  0.00000000000E+00  0.00000000000E+00  0.99999998245E-14  0.12500000000E+03  0.12500000000E+03 0.  0.
    3000001    1    3    3    0    0  0.15506156464E+02  0.26714318267E+02  0.37606834902E+02  0.48676171995E+02  0.10000000000E+01 0. -1.
    1000022    2    1    0    0    0  0.20880637786E+02  0.29412445743E+02  0.50051545294E+02  0.62500001448E+02  0.99999997857E+01 0.  0.
    3000022    2    3    3    0    0  0.53744813222E+01  0.26981274761E+01  0.12444710392E+02  0.13823829453E+02  0.25000527404E+00 0.  0.
    1000022    2    1    0    0    0 -0.20880637786E+02 -0.29412445743E+02 -0.50051545294E+02  0.62499998552E+02  0.99999816859E+01 0.  0.
    3000022    2    5    5    0    0 -0.18856695756E+02 -0.28190130084E+02 -0.41636794232E+02  0.53702360668E+02  0.24999671628E+00 0.  0.
        -13    1    4    4    0    0  0.18259309436E+01  0.97562823233E+00  0.42457582040E+01  0.47247605215E+01  0.10500000000E+00 0.  1.
         13    1    4    4    0    0  0.35485503786E+01  0.17224992438E+01  0.81989521878E+01  0.90990689310E+01  0.10500000000E+00 0. -1.
    3000001    1    5    5    0    0 -0.20239420298E+01 -0.12223156596E+01 -0.84147510618E+01  0.87976378843E+01  0.10000000000E+01 0. -1.
        -13    1    6    6    0    0 -0.13593186870E+02 -0.20367161397E+02 -0.30107603167E+02  0.38808179371E+02  0.10500000000E+00 0.  1.
         13    1    6    6    0    0 -0.52635088866E+01 -0.78229686863E+01 -0.11529191066E+02  0.14894181297E+02  0.10500000000E+00 0. -1.
</event>
<event>
11    0  0.3510903E-009  0.9118800E+02  0.7816531E-02  0.1126479E+00
         25   -1    0    0    0    0  0.00000000000E+00  0.00000000000E+00  0.99999998245E-14  0.12500000000E+03  0.12500000000E+03 0.  0.
    3000001    1    3    3    0    0 -0.42811297312E+02 -0.13580098068E+02  0.10879200527E+02  0.46223189474E+02  0.10000000000E+01 0. -1.
    1000022    2    1    0    0    0 -0.58183134879E+02 -0.18518914926E+02  0.88330204948E+01  0.62500002782E+02  0.10000035112E+02 0.  0.
    3000022    2    3    3    0    0 -0.15371837567E+02 -0.49388168585E+01 -0.20461800324E+01  0.16276813308E+02  0.24999313532E+00 0.  0.
    1000022    2    1    0    0    0  0.58183134879E+02  0.18518914926E+02 -0.88330204948E+01  0.62499997218E+02  0.10000000343E+02 0.  0.
    3000022    2    5    5    0    0  0.16535184371E+02  0.61759769737E+01  0.18692489143E+01  0.17751383058E+02  0.24999037765E+00 0.  0.
        -13    1    4    4    0    0 -0.78804336450E+01 -0.26029623561E+01 -0.10549291158E+01  0.83666330086E+01  0.10500000000E+00 0.  1.
         13    1    4    4    0    0 -0.74914039224E+01 -0.23358545023E+01 -0.99125091661E+00  0.79101802991E+01  0.10500000000E+00 0. -1.
    3000001    1    5    5    0    0  0.41647950508E+02  0.12342937952E+02 -0.10702269409E+02  0.44748614161E+02  0.10000000000E+01 0.  1.
        -13    1    6    6    0    0  0.10396090255E+02  0.38965428751E+01  0.12343163212E+01  0.11171226465E+02  0.10500000000E+00 0.  1.
         13    1    6    6    0    0  0.61390941163E+01  0.22794340986E+01  0.63493259312E+00  0.65801565921E+01  0.10500000000E+00 0. -1.
</event>
<event>
11    0  0.3510903E-009  0.9118800E+02  0.7816531E-02  0.1126479E+00
         25   -1    0    0    0    0  0.00000000000E+00  0.00000000000E+00  0.99999998245E-14  0.12500000000E+03  0.12500000000E+03 0.  0.
    3000001    1    3    3    0    0  0.10837887858E+02 -0.27443197445E+00  0.15326754227E+02  0.18800120246E+02  0.10000000000E+01 0. -1.
    1000022    2    1    0    0    0  0.23750010201E+02 -0.75137978083E+01  0.56442269903E+02  0.62499999516E+02  0.99999982863E+01 0.  0.
    3000022    2    3    3    0    0  0.12912122343E+02 -0.72393658338E+01  0.41115515675E+02  0.43699879270E+02  0.24999578525E+00 0.  0.
    1000022    2    1    0    0    0 -0.23750010201E+02  0.75137978083E+01 -0.56442269903E+02  0.62500000484E+02  0.10000004331E+02 0.  0.
    3000022    2    5    5    0    0 -0.74774406396E+01  0.15990174255E+01 -0.29361007496E+02  0.30341394783E+02  0.25000182163E+00 0.  0.
        -13    1    4    4    0    0  0.66264281314E+01 -0.37900059798E+01  0.21148321038E+02  0.22484132246E+02  0.10500000000E+00 0. -1.
         13    1    4    4    0    0  0.62856942116E+01 -0.34493598541E+01  0.19967194637E+02  0.21215747024E+02  0.10500000000E+00 0.  1.
    3000001    1    5    5    0    0 -0.16272569561E+02  0.59147803828E+01 -0.27081262407E+02  0.32158605701E+02  0.10000000000E+01 0. -1.
        -13    1    6    6    0    0 -0.45784767597E+01  0.94480673063E+00 -0.18153038835E+02  0.18745638243E+02  0.10500000000E+00 0.  1.
         13    1    6    6    0    0 -0.28989638799E+01  0.65421069486E+00 -0.11207968661E+02  0.11595756540E+02  0.10500000000E+00 0. -1.
</event>
<event>
11    0  0.3510903E-009  0.9118800E+02  0.7816531E-02  0.1126479E+00
         25   -1    0    0    0    0  0.00000000000E+00  0.00000000000E+00  0.99999998245E-14  0.12500000000E+03  0.12500000000E+03 0.  0.
    3000001    1    3    3    0    0  0.28036176591E+02  0.22546819533E+02 -0.19724566610E+02  0.41041988217E+02  0.10000000000E+01 0.  1.
    1000022    2    1    0    0    0  0.45717062313E+02  0.34088105740E+02 -0.23541485413E+02  0.62500002457E+02  0.10000001615E+02 0.  0.
    3000022    2    3    3    0    0  0.17680885722E+02  0.11541286207E+02 -0.38169188034E+01  0.21458014241E+02  0.24999753145E+00 0.  0.
    1000022    2    1    0    0    0 -0.45717062313E+02 -0.34088105740E+02  0.23541485413E+02  0.62499997543E+02  0.99999708972E+01 0.  0.
    3000022    2    5    5    0    0 -0.38673390559E+02 -0.28031014467E+02  0.15629157476E+02  0.50256362468E+02  0.24999140925E+00 0.  0.
        -13    1    4    4    0    0  0.12773209931E+02  0.83740808190E+01 -0.27849220141E+01  0.15525686366E+02  0.10500000000E+00 0. -1.
         13    1    4    4    0    0  0.49076757912E+01  0.31672053880E+01 -0.10319967893E+01  0.59323278748E+01  0.10500000000E+00 0.  1.
    3000001    1    5    5    0    0 -0.70436717531E+01 -0.60570912733E+01  0.79123279370E+01  0.12243635075E+02  0.10000000000E+01 0. -1.
        -13    1    6    6    0    0 -0.21382414658E+02 -0.15571691170E+02  0.86241062947E+01  0.27822139689E+02  0.10500000000E+00 0.  1.
         13    1    6    6    0    0 -0.17290975901E+02 -0.12459323297E+02  0.70050511813E+01  0.22434222779E+02  0.10500000000E+00 0. -1.
</event>
<event>
11    0  0.3510903E-009  0.9118800E+02  0.7816531E-02  0.1126479E+00
         25   -1    0    0    0    0  0.00000000000E+00  0.00000000000E+00  0.99999998245E-14  0.12500000000E+03  0.12500000000E+03 0.  0.
    3000001    1    3    3    0    0  0.14384860698E+02 -0.11202705348E+00  0.34515035594E+02  0.37406208701E+02  0.10000000000E+01 0.  1.
    1000022    2    1    0    0    0  0.17851749668E+02 -0.53168625998E+01  0.58815781070E+02  0.62500000066E+02  0.99999955607E+01 0.  0.
    3000022    2    3    3    0    0  0.34668889697E+01 -0.52048355463E+01  0.24300745477E+02  0.25093791365E+02  0.25000428097E+00 0.  0.
    1000022    2    1    0    0    0 -0.17851749668E+02  0.53168625998E+01 -0.58815781070E+02  0.62499999934E+02  0.99999947358E+01 0.  0.
    3000022    2    5    5    0    0 -0.70889692877E+01  0.71045420381E+01 -0.24480612460E+02  0.26459230758E+02  0.25000552033E+00 0.  0.
        -13    1    4    4    0    0  0.14279219243E+01 -0.20490594299E+01  0.98461811545E+01  0.10158538965E+02  0.10500000000E+00 0.  1.
         13    1    4    4    0    0  0.20389670454E+01 -0.31557761165E+01  0.14454564322E+02  0.14935252400E+02  0.10500000000E+00 0. -1.
    3000001    1    5    5    0    0 -0.10762780380E+02 -0.17876794382E+01 -0.34335168610E+02  0.36040769176E+02  0.10000000000E+01 0. -1.
        -13    1    6    6    0    0 -0.40985653110E+01  0.41291479664E+01 -0.14023688693E+02  0.15182982911E+02  0.10500000000E+00 0. -1.
         13    1    6    6    0    0 -0.29904039767E+01  0.29753940717E+01 -0.10456923767E+02  0.11276247847E+02  0.10500000000E+00 0.  1.
</event>
<event>
11    0  0.3510903E-009  0.9118800E+02  0.7816531E-02  0.1126479E+00
         25   -1    0    0    0    0  0.00000000000E+00  0.00000000000E+00  0.99999998245E-14  0.12500000000E+03  0.12500000000E+03 0.  0.
    3000001    1    3    3    0    0 -0.98342810704E+01 -0.32187542667E+01 -0.60864023591E+01  0.12046483175E+02  0.10000000000E+01 0. -1.
    1000022    2    1    0    0    0 -0.48163326758E+02 -0.32820534457E+02 -0.20232560564E+02  0.62500000608E+02  0.10000002129E+02 0.  0.
    3000022    2    3    3    0    0 -0.38329045687E+02 -0.29601780190E+02 -0.14146158205E+02  0.50453517433E+02  0.24999135449E+00 0.  0.
    1000022    2    1    0    0    0  0.48163326758E+02  0.32820534457E+02  0.20232560564E+02  0.62499999392E+02  0.99999945316E+01 0.  0.
    3000022    2    5    5    0    0  0.19184299831E+02  0.82246327393E+01  0.98700304892E+01  0.23090299920E+02  0.25000968201E+00 0.  0.
        -13    1    4    4    0    0 -0.27185761314E+02 -0.20941115128E+02 -0.10020285512E+02  0.35749308633E+02  0.10500000000E+00 0.  1.
         13    1    4    4    0    0 -0.11143284374E+02 -0.86606650625E+01 -0.41258726933E+01  0.14704208800E+02  0.10500000000E+00 0. -1.
    3000001    1    5    5    0    0  0.28979026926E+02  0.24595901718E+02  0.10362530075E+02  0.39409699472E+02  0.10000000000E+01 0. -1.
        -13    1    6    6    0    0  0.10338921143E+02  0.43866820671E+01  0.53685303558E+01  0.12448630974E+02  0.10500000000E+00 0. -1.
         13    1    6    6    0    0  0.88453786885E+01  0.38379506721E+01  0.45015001334E+01  0.10641668946E+02  0.10500000000E+00 0.  1.
</event>
<event>
11    0  0.3510903E-009  0.9118800E+02  0.7816531E-02  0.1126479E+00
         25   -1    0    0    0    0  0.00000000000E+00  0.00000000000E+00  0.99999998245E-14  0.12500000000E+03  0.12500000000E+03 0.  0.
    3000001    1    3    3    0    0  0.59838701299E+01  0.29340687733E+02 -0.10839302403E+02  0.31861781729E+02  0.10000000000E+01 0.  1.
    1000022    2    1    0    0    0  0.14853928858E+02  0.52444470641E+02 -0.28899623796E+02  0.62500000268E+02  0.10000003730E+02 0.  0.
    3000022    2    3    3    0    0  0.88700587284E+01  0.23103782908E+02 -0.18060321393E+02  0.30638218539E+02  0.24999981756E+00 0.  0.
    1000022    2    1    0    0    0 -0.14853928858E+02 -0.52444470641E+02  0.28899623796E+02  0.62499999732E+02  0.10000000383E+02 0.  0.
    3000022    2    5    5    0    0 -0.65042905753E+01 -0.18050396737E+02  0.15410568226E+02  0.24610378471E+02  0.24999436834E+00 0.  0.
        -13    1    4    4    0    0  0.52038212543E+01  0.13411425434E+02 -0.10546905903E+02  0.17838002605E+02  0.10500000000E+00 0. -1.
         13    1    4    4    0    0  0.36662374740E+01  0.96923574748E+01 -0.75134154895E+01  0.12800215934E+02  0.10500000000E+00 0.  1.
    3000001    1    5    5    0    0 -0.83496382830E+01 -0.34394073903E+02  0.13489055570E+02  0.37889621261E+02  0.10000000000E+01 0.  1.
        -13    1    6    6    0    0 -0.38338043088E+01 -0.10559170987E+02  0.89477440540E+01  0.14362008775E+02  0.10500000000E+00 0. -1.
         13    1    6    6    0    0 -0.26704862665E+01 -0.74912257508E+01  0.64628241723E+01  0.10248369696E+02  0.10500000000E+00 0.  1.
</event>
<event>
11    0  0.3510903E-009  0.9118800E+02  0.7816531E-02  0.1126479E+00
         25   -1    0    0    0    0  0.00000000000E+00  0.00000000000E+00  0.99999998245E-14  0.12500000000E+03  0.12500000000E+03 0.  0.
    3000001    1    3    3    0    0 -0.20832080708E+02 -0.34354418833E+01 -0.10423887191E+02  0.23567674296E+02  0.10000000000E+01 0.  1.
    1000022    2    1    0    0    0 -0.57842899405E+02 -0.14015407607E+02 -0.16248636096E+02  0.62500007573E+02  0.10000005481E+02 0.  0.
    3000022    2    3    3    0    0 -0.37010818697E+02 -0.10579965724E+02 -0.58247489056E+01  0.38932333277E+02  0.24999840993E+00 0.  0.
    1000022    2    1    0    0    0  0.57842899405E+02  0.14015407607E+02  0.16248636096E+02  0.62499992427E+02  0.99999108236E+01 0.  0.
    3000022    2    5    5    0    0  0.35913321101E+02  0.41758079635E+01  0.76796435278E+01  0.36962730253E+02  0.24999675099E+00 0.  0.
        -13    1    4    4    0    0 -0.23961419379E+02 -0.68455809344E+01 -0.38282865374E+01  0.25212663481E+02  0.10500000000E+00 0.  1.
         13    1    4    4    0    0 -0.13049399318E+02 -0.37343847898E+01 -0.19964623681E+01  0.13719669796E+02  0.10500000000E+00 0. -1.
    3000001    1    5    5    0    0  0.21929578304E+02  0.98395996440E+01  0.85689925684E+01  0.25537262175E+02  0.10000000000E+01 0. -1.
        -13    1    6    6    0    0  0.16638709192E+02  0.19855380216E+01  0.35139711311E+01  0.17121566019E+02  0.10500000000E+00 0. -1.
         13    1    6    6    0    0  0.19274611909E+02  0.21902699418E+01  0.41656723968E+01  0.19841164234E+02  0.10500000000E+00 0.  1.
</event>
<event>
11    0  0.3510903E-009  0.9118800E+02  0.7816531E-02  0.1126479E+00
         25   -1    0    0    0    0  0.00000000000E+00  0.00000000000E+00  0.99999998245E-14  0.12500000000E+03  0.12500000000E+03 0.  0.
    3000001    1    3    3    0    0 -0.27749865240E+02  0.77372415201E+01  0.99641395399E+01  0.30499245957E+02  0.10000000000E+01 0.  1.
    1000022    2    1    0    0    0 -0.51831900838E+02  0.24238583819E+02  0.23069364625E+02  0.62499998459E+02  0.99999666589E+01 0.  0.
    3000022    2    3    3    0    0 -0.24082035598E+02  0.16501342299E+02  0.13105225085E+02  0.32000752502E+02  0.24999992617E+00 0.  0.
    1000022    2    1    0    0    0  0.51831900838E+02 -0.24238583819E+02 -0.23069364625E+02  0.62500001541E+02  0.99999859154E+01 0.  0.
    3000022    2    5    5    0    0  0.26423071291E+02 -0.13074065797E+02 -0.65970918530E+01  0.30210826080E+02  0.24999724959E+00 0.  0.
        -13    1    4    4    0    0 -0.78243831462E+01  0.53721054608E+01  0.43168506564E+01  0.10427210235E+02  0.10500000000E+00 0.  1.
         13    1    4    4    0    0 -0.16257652451E+02  0.11129236838E+02  0.87883744288E+01  0.21573542267E+02  0.10500000000E+00 0. -1.
    3000001    1    5    5    0    0  0.25408829547E+02 -0.11164518022E+02 -0.16472272772E+02  0.32289175460E+02  0.10000000000E+01 0.  1.
        -13    1    6    6    0    0  0.16062714546E+02 -0.78906719579E+01 -0.40411007418E+01  0.18347071231E+02  0.10500000000E+00 0. -1.
         13    1    6    6    0    0  0.10360356745E+02 -0.51833938390E+01 -0.25559911112E+01  0.11863754849E+02  0.10500000000E+00 0.  1.
</event>
<event>
11    0  0.3510903E-009  0.9118800E+02  0.7816531E-02  0.1126479E+00
         25   -1    0    0    0    0  0.00000000000E+00  0.00000000000E+00  0.99999998245E-14  0.12500000000E+03  0.12500000000E+03 0.  0.
    3000001    1    3    3    0    0  0.75151735067E+01 -0.42337724369E+01 -0.20166358205E+02  0.21956426511E+02  0.10000000000E+01 0. -1.
    1000022    2    1    0    0    0  0.32957123671E+02 -0.12362113960E+02 -0.50668097703E+02  0.62500000107E+02  0.10000001315E+02 0.  0.
    3000022    2    3    3    0    0  0.25441950165E+02 -0.81283415227E+01 -0.30501739498E+02  0.40543573596E+02  0.24996686469E+00 0.  0.
    1000022    2    1    0    0    0 -0.32957123671E+02  0.12362113960E+02  0.50668097703E+02  0.62499999893E+02  0.99999999715E+01 0.  0.
    3000022    2    5    5    0    0 -0.94155615806E+01  0.32509124064E+01  0.74556986770E+01  0.12444724756E+02  0.25000025118E+00 0.  0.
        -13    1    4    4    0    0  0.19087999285E+02 -0.60748055619E+01 -0.22896136870E+02  0.30422016500E+02  0.10500000000E+00 0.  1.
         13    1    4    4    0    0  0.63539508801E+01 -0.20535359608E+01 -0.76056026280E+01  0.10121557097E+02  0.10500000000E+00 0. -1.
    3000001    1    5    5    0    0 -0.23541562091E+02  0.91112015532E+01  0.43212399026E+02  0.50055275137E+02  0.10000000000E+01 0.  1.
        -13    1    6    6    0    0 -0.58278409434E+01  0.19587404970E+01  0.46442549499E+01  0.77058759032E+01  0.10500000000E+00 0.  1.
         13    1    6    6    0    0 -0.35877206373E+01  0.12921719094E+01  0.28114437271E+01  0.47388488523E+01  0.10500000000E+00 0. -1.
</event>
<event>
11    0  0.3510903E-009  0.9118800E+02  0.7816531E-02  0.1126479E+00
         25   -1    0    0    0    0  0.00000000000E+00  0.00000000000E+00  0.99999998245E-14  0.12500000000E+03  0.12500000000E+03 0.  0.
    3000001    1    3    3    0    0 -0.43978613905E+02 -0.51694929226E+01  0.75215082255E+01  0.44926776248E+02  0.10000000000E+01 0. -1.
    1000022    2    1    0    0    0 -0.58991010570E+02 -0.79574106028E+01  0.16216976483E+02  0.62500000392E+02  0.10000000561E+02 0.  0.
    3000022    2    3    3    0    0 -0.15012396665E+02 -0.27879176802E+01  0.86954682578E+01  0.17573224144E+02  0.24999995653E+00 0.  0.
    1000022    2    1    0    0    0  0.58991010570E+02  0.79574106028E+01 -0.16216976483E+02  0.62499999608E+02  0.99999956562E+01 0.  0.
    3000022    2    5    5    0    0  0.16793018502E+02  0.63799089168E+01 -0.28116225879E+01  0.18184510677E+02  0.24999754745E+00 0.  0.
        -13    1    4    4    0    0 -0.85808234916E+01 -0.16549706203E+01  0.50051329716E+01  0.10071337578E+02  0.10500000000E+00 0. -1.
         13    1    4    4    0    0 -0.64315731735E+01 -0.11329470599E+01  0.36903352862E+01  0.75018865661E+01  0.10500000000E+00 0.  1.
    3000001    1    5    5    0    0  0.42197992068E+02  0.15775016860E+01 -0.13405353895E+02  0.44315488931E+02  0.10000000000E+01 0. -1.
        -13    1    6    6    0    0  0.62692772547E+01  0.23300804299E+01 -0.10111444710E+01  0.67650979480E+01  0.10500000000E+00 0. -1.
         13    1    6    6    0    0  0.10523741248E+02  0.40498284870E+01 -0.18004781169E+01  0.11419412729E+02  0.10500000000E+00 0.  1.
</event>
<event>
11    0  0.3510903E-009  0.9118800E+02  0.7816531E-02  0.1126479E+00
         25   -1    0    0    0    0  0.00000000000E+00  0.00000000000E+00  0.99999998245E-14  0.12500000000E+03  0.12500000000E+03 0.  0.
    3000001    1    3    3    0    0 -0.29692387171E+01  0.36906877452E+02 -0.80567492749E+01  0.37905740868E+02  0.10000000000E+01 0. -1.
    1000022    2    1    0    0    0  0.18658145464E+01  0.60999627141E+02 -0.90451404780E+01  0.62500003125E+02  0.10000002453E+02 0.  0.
    3000022    2    3    3    0    0  0.48350532635E+01  0.24092749689E+02 -0.98839120311E+00  0.24594262258E+02  0.24998236938E+00 0.  0.
    1000022    2    1    0    0    0 -0.18658145464E+01 -0.60999627141E+02  0.90451404780E+01  0.62499996875E+02  0.99999633898E+01 0.  0.
    3000022    2    5    5    0    0 -0.25022782876E+01 -0.12213260151E+02  0.53210855064E+01  0.13557343947E+02  0.25000756556E+00 0.  0.
        -13    1    4    4    0    0  0.17303685202E+01  0.83754822454E+01 -0.37224382935E+00  0.85611020626E+01  0.10500000000E+00 0. -1.
         13    1    4    4    0    0  0.31046847433E+01  0.15717267444E+02 -0.61614737376E+00  0.16033160195E+02  0.10500000000E+00 0.  1.
    3000001    1    5    5    0    0  0.63646374119E+00 -0.48786366990E+02  0.37240549716E+01  0.48942652928E+02  0.10000000000E+01 0.  1.
        -13    1    6    6    0    0 -0.12858967690E+01 -0.65428893894E+01  0.28015407477E+01  0.72334353956E+01  0.10500000000E+00 0.  1.
         13    1    6    6    0    0 -0.12163815186E+01 -0.56703707619E+01  0.25195447587E+01  0.63239085515E+01  0.10500000000E+00 0. -1.
</event>
<event>
11    0  0.3510903E-009  0.9118800E+02  0.7816531E-02  0.1126479E+00
         25   -1    0    0    0    0  0.00000000000E+00  0.00000000000E+00  0.99999998245E-14  0.12500000000E+03  0.12500000000E+03 0.  0.
    3000001    1    3    3    0    0 -0.41754372285E+02 -0.27541905101E+00 -0.42561023723E+01  0.41983542823E+02  0.10000000000E+01 0.  1.
    1000022    2    1    0    0    0 -0.61669833856E+02 -0.16947044857E+01  0.45798652178E+00  0.62500002236E+02  0.10000004842E+02 0.  0.
    3000022    2    3    3    0    0 -0.19915461570E+02 -0.14192854347E+01  0.47140888940E+01  0.20516459413E+02  0.24998409332E+00 0.  0.
    1000022    2    1    0    0    0  0.61669833856E+02  0.16947044857E+01 -0.45798652178E+00  0.62499997764E+02  0.99999768862E+01 0.  0.
    3000022    2    5    5    0    0  0.57517961237E+02 -0.83721496307E+00 -0.70816981692E+00  0.57528956221E+02  0.25001127046E+00 0.  0.
        -13    1    4    4    0    0 -0.14148707005E+02 -0.10225737059E+01  0.33077030619E+01  0.14566519538E+02  0.10500000000E+00 0.  1.
         13    1    4    4    0    0 -0.57667545652E+01 -0.39671172880E+00  0.14063858322E+01  0.59499398753E+01  0.10500000000E+00 0. -1.
    3000001    1    5    5    0    0  0.41518726181E+01  0.25319194488E+01  0.25018329514E+00  0.49710415421E+01  0.10000000000E+01 0.  1.
        -13    1    6    6    0    0  0.27315974003E+02 -0.46349282409E+00 -0.32144196538E+00  0.27321998669E+02  0.10500000000E+00 0.  1.
         13    1    6    6    0    0  0.30201987234E+02 -0.37372213899E+00 -0.38672785154E+00  0.30206957552E+02  0.10500000000E+00 0. -1.
</event>
<event>
11    0  0.3510903E-009  0.9118800E+02  0.7816531E-02  0.1126479E+00
         25   -1    0    0    0    0  0.00000000000E+00  0.00000000000E+00  0.99999998245E-14  0.12500000000E+03  0.12500000000E+03 0.  0.
    3000001    1    3    3    0    0  0.91006186549E+00  0.44736526114E+00 -0.12466294416E+01  0.18927316874E+01  0.10000000000E+01 0.  1.
    1000022    2    1    0    0    0  0.28451855928E+02  0.52727441572E+02 -0.14715927565E+02  0.62500002692E+02  0.10000030593E+02 0.  0.
    3000022    2    3    3    0    0  0.27541794063E+02  0.52280076311E+02 -0.13469298124E+02  0.60607271004E+02  0.25001476268E+00 0.  0.
    1000022    2    1    0    0    0 -0.28451855928E+02 -0.52727441572E+02  0.14715927565E+02  0.62499997308E+02  0.99999969480E+01 0.  0.
    3000022    2    5    5    0    0 -0.56265549650E+01 -0.17382917523E+02  0.12629648116E+01  0.18316154661E+02  0.24999806478E+00 0.  0.
        -13    1    4    4    0    0  0.11739738334E+02  0.22418214634E+02 -0.57479299662E+01  0.25950867566E+02  0.10500000000E+00 0. -1.
         13    1    4    4    0    0  0.15802055729E+02  0.29861861677E+02 -0.77213681576E+01  0.34656403439E+02  0.10500000000E+00 0.  1.
    3000001    1    5    5    0    0 -0.22825300963E+02 -0.35344524048E+02  0.13452962754E+02  0.44183842648E+02  0.10000000000E+01 0. -1.
        -13    1    6    6    0    0 -0.23478697174E+01 -0.71202704065E+01  0.56748966879E+00  0.75195619816E+01  0.10500000000E+00 0.  1.
         13    1    6    6    0    0 -0.32786852476E+01 -0.10262647117E+02  0.69547514285E+00  0.10796592679E+02  0.10500000000E+00 0. -1.
</event>
<event>
11    0  0.3510903E-009  0.9118800E+02  0.7816531E-02  0.1126479E+00
         25   -1    0    0    0    0  0.00000000000E+00  0.00000000000E+00  0.99999998245E-14  0.12500000000E+03  0.12500000000E+03 0.  0.
    3000001    1    3    3    0    0  0.40529056688E+02  0.12766996932E+02 -0.27859671078E+01  0.42595331428E+02  0.10000000000E+01 0. -1.
    1000022    2    1    0    0    0  0.56461673037E+02  0.23664685755E+02 -0.76362318766E+01  0.62499990581E+02  0.99999455637E+01 0.  0.
    3000022    2    3    3    0    0  0.15932616349E+02  0.10897688822E+02 -0.48502647688E+01  0.19904659153E+02  0.25000455002E+00 0.  0.
    1000022    2    1    0    0    0 -0.56461673037E+02 -0.23664685755E+02  0.76362318766E+01  0.62500009419E+02  0.10000063304E+02 0.  0.
    3000022    2    5    5    0    0 -0.20989246266E+02 -0.12525711391E+02 -0.40388623914E+00  0.24447239346E+02  0.24996576028E+00 0.  0.
        -13    1    4    4    0    0  0.90009315252E+01  0.61395040387E+01 -0.28040055473E+01  0.11250944417E+02  0.10500000000E+00 0. -1.
         13    1    4    4    0    0  0.69316848239E+01  0.47581847837E+01 -0.20462592215E+01  0.86537147362E+01  0.10500000000E+00 0.  1.
    3000001    1    5    5    0    0 -0.35472426772E+02 -0.11138974363E+02  0.80401181157E+01  0.38052770073E+02  0.10000000000E+01 0.  1.
        -13    1    6    6    0    0 -0.12434631256E+02 -0.74630857713E+01 -0.18746867575E+00  0.14503926131E+02  0.10500000000E+00 0.  1.
         13    1    6    6    0    0 -0.85546150095E+01 -0.50626256199E+01 -0.21641756338E+00  0.99433132149E+01  0.10500000000E+00 0. -1.
</event>
<event>
11    0  0.3510903E-009  0.9118800E+02  0.7816531E-02  0.1126479E+00
         25   -1    0    0    0    0  0.00000000000E+00  0.00000000000E+00  0.99999998245E-14  0.12500000000E+03  0.12500000000E+03 0.  0.
    3000001    1    3    3    0    0 -0.79959003119E+01  0.12709080157E+02  0.35004260073E+02  0.38101881364E+02  0.10000000000E+01 0. -1.
    1000022    2    1    0    0    0 -0.11791790296E+02  0.27782113449E+02  0.53808530301E+02  0.62500000011E+02  0.99999961084E+01 0.  0.
    3000022    2    3    3    0    0 -0.37958899836E+01  0.15073033292E+02  0.18804270228E+02  0.24398118647E+02  0.25000261188E+00 0.  0.
    1000022    2    1    0    0    0  0.11791790296E+02 -0.27782113449E+02 -0.53808530301E+02  0.62499999989E+02  0.99999959664E+01 0.  0.
    3000022    2    5    5    0    0 -0.23658189396E+00  0.37461148215E+00  0.77524951079E-01  0.51459971535E+00  0.24999598776E+00 0.  0.
        -13    1    4    4    0    0 -0.18238539461E+01  0.70496281505E+01  0.87335488425E+01  0.11371437933E+02  0.10500000000E+00 0. -1.
         13    1    4    4    0    0 -0.19720360375E+01  0.80234051418E+01  0.10070721385E+02  0.13026680714E+02  0.10500000000E+00 0.  1.
    3000001    1    5    5    0    0  0.12028372189E+02 -0.28156724931E+02 -0.53886055252E+02  0.61985400273E+02  0.10000000000E+01 0. -1.
        -13    1    6    6    0    0 -0.39898832133E-01  0.78379898337E-01  0.66690865755E-02  0.13713060193E+00  0.10500000000E+00 0. -1.
         13    1    6    6    0    0 -0.19668306183E+00  0.29623158381E+00  0.70855864503E-01  0.37746911343E+00  0.10500000000E+00 0.  1.
</event>
<event>
11    0  0.3510903E-009  0.9118800E+02  0.7816531E-02  0.1126479E+00
         25   -1    0    0    0    0  0.00000000000E+00  0.00000000000E+00  0.99999998245E-14  0.12500000000E+03  0.12500000000E+03 0.  0.
    3000001    1    3    3    0    0  0.59300707811E+01  0.55352744804E+01  0.38937538884E+00  0.81827022576E+01  0.10000000000E+01 0. -1.
    1000022    2    1    0    0    0  0.36540393397E+02  0.45531662063E+02 -0.19947866701E+02  0.62499999567E+02  0.99999980093E+01 0.  0.
    3000022    2    3    3    0    0  0.30610322616E+02  0.39996387582E+02 -0.20337242090E+02  0.54317297310E+02  0.25000185527E+00 0.  0.
    1000022    2    1    0    0    0 -0.36540393397E+02 -0.45531662063E+02  0.19947866701E+02  0.62500000433E+02  0.10000003418E+02 0.  0.
    3000022    2    5    5    0    0 -0.14909379398E+02 -0.18581978937E+02  0.30495101449E+01  0.24019607484E+02  0.24999261467E+00 0.  0.
        -13    1    4    4    0    0  0.14912291063E+02  0.19381319051E+02 -0.98473955065E+01  0.26362742198E+02  0.10500000000E+00 0.  1.
         13    1    4    4    0    0  0.15698031553E+02  0.20615068531E+02 -0.10489846583E+02  0.27954555112E+02  0.10500000000E+00 0. -1.
    3000001    1    5    5    0    0 -0.21631014000E+02 -0.26949683125E+02  0.16898356556E+02  0.38480392949E+02  0.10000000000E+01 0. -1.
        -13    1    6    6    0    0 -0.83486100273E+01 -0.10339023956E+02  0.17531685720E+01  0.13404451902E+02  0.10500000000E+00 0.  1.
         13    1    6    6    0    0 -0.65607693703E+01 -0.82429549815E+01  0.12963415729E+01  0.10615155582E+02  0.10500000000E+00 0. -1.
</event>
<event>
11    0  0.3510903E-009  0.9118800E+02  0.7816531E-02  0.1126479E+00
         25   -1    0    0    0    0  0.00000000000E+00  0.00000000000E+00  0.99999998245E-14  0.12500000000E+03  0.12500000000E+03 0.  0.
    3000001    1    3    3    0    0 -0.26553601972E+02  0.15697377868E+02 -0.35888024010E+02  0.47333410155E+02  0.10000000000E+01 0. -1.
    1000022    2    1    0    0    0 -0.36175609514E+02  0.24616515267E+02 -0.43492555618E+02  0.62499999864E+02  0.10000002061E+02 0.  0.
    3000022    2    3    3    0    0 -0.96220075423E+01  0.89191373985E+01 -0.76045316082E+01  0.15166589709E+02  0.25000265426E+00 0.  0.
    1000022    2    1    0    0    0  0.36175609514E+02 -0.24616515267E+02  0.43492555618E+02  0.62500000136E+02  0.10000003761E+02 0.  0.
    3000022    2    5    5    0    0  0.20129636054E+02 -0.19335088457E+02  0.25636644493E+02  0.37899181135E+02  0.24999303596E+00 0.  0.
        -13    1    4    4    0    0 -0.31482747258E+01  0.28618205672E+01 -0.25021189706E+01  0.49369297191E+01  0.10500000000E+00 0. -1.
         13    1    4    4    0    0 -0.64737328165E+01  0.60573168314E+01 -0.51024126376E+01  0.10229659989E+02  0.10500000000E+00 0.  1.
    3000001    1    5    5    0    0  0.16045973460E+02 -0.52814268096E+01  0.17855911125E+02  0.24600819001E+02  0.10000000000E+01 0.  1.
        -13    1    6    6    0    0  0.88343867107E+01 -0.83943145964E+01  0.11189892004E+02  0.16544957363E+02  0.10500000000E+00 0. -1.
         13    1    6    6    0    0  0.11295249343E+02 -0.10940773861E+02  0.14446752490E+02  0.21354223772E+02  0.10500000000E+00 0.  1.
</event>
<event>
11    0  0.3510903E-009  0.9118800E+02  0.7816531E-02  0.1126479E+00
         25   -1    0    0    0    0  0.00000000000E+00  0.00000000000E+00  0.99999998245E-14  0.12500000000E+03  0.12500000000E+03 0.  0.
    3000001    1    3    3    0    0 -0.92861581757E+01 -0.39403501586E+02  0.74868828170E+01  0.41181574584E+02  0.10000000000E+01 0.  1.
    1000022    2    1    0    0    0 -0.11863710108E+02 -0.60367609535E+02  0.46102178085E+01  0.62500000048E+02  0.99999999594E+01 0.  0.
    3000022    2    3    3    0    0 -0.25775519319E+01 -0.20964107950E+02 -0.28766650085E+01  0.21318425464E+02  0.24993320331E+00 0.  0.
    1000022    2    1    0    0    0  0.11863710108E+02  0.60367609535E+02 -0.46102178085E+01  0.62499999952E+02  0.99999993632E+01 0.  0.
    3000022    2    5    5    0    0 -0.46334276531E+00  0.19176613667E+01  0.14329053565E+01  0.24510864647E+01  0.24999092250E+00 0.  0.
        -13    1    4    4    0    0 -0.70429164160E+00 -0.57158301066E+01 -0.74719947131E+00  0.58082762137E+01  0.10500000000E+00 0. -1.
         13    1    4    4    0    0 -0.18732602903E+01 -0.15248277843E+02 -0.21294655371E+01  0.15510149250E+02  0.10500000000E+00 0.  1.
    3000001    1    5    5    0    0  0.12327052873E+02  0.58449948169E+02 -0.60431231650E+01  0.60048913488E+02  0.10000000000E+01 0.  1.
        -13    1    6    6    0    0 -0.23811703608E+00  0.84188618085E+00  0.56587763593E+00  0.10472414064E+01  0.10500000000E+00 0. -1.
         13    1    6    6    0    0 -0.22522572923E+00  0.10757751859E+01  0.86702772058E+00  0.14038450584E+01  0.10500000000E+00 0.  1.
</event>
<event>
11    0  0.3510903E-009  0.9118800E+02  0.7816531E-02  0.1126479E+00
         25   -1    0    0    0    0  0.00000000000E+00  0.00000000000E+00  0.99999998245E-14  0.12500000000E+03  0.12500000000E+03 0.  0.
    3000001    1    3    3    0    0  0.95724682086E+01  0.13164624590E+02  0.16106631455E+02  0.22920799834E+02  0.10000000000E+01 0. -1.
    1000022    2    1    0    0    0  0.24225790816E+02  0.25129127630E+02  0.50871288565E+02  0.62499999939E+02  0.99999997988E+01 0.  0.
    3000022    2    3    3    0    0  0.14653322607E+02  0.11964503040E+02  0.34764657110E+02  0.39579200105E+02  0.25000106530E+00 0.  0.
    1000022    2    1    0    0    0 -0.24225790816E+02 -0.25129127630E+02 -0.50871288565E+02  0.62500000061E+02  0.10000000567E+02 0.  0.
    3000022    2    5    5    0    0  0.63930761807E+00 -0.27709888338E+01 -0.41023083643E+01  0.49978522795E+01  0.25000028741E+00 0.  0.
        -13    1    4    4    0    0  0.51702450836E+01  0.41597906876E+01  0.12131920061E+02  0.13828586412E+02  0.10500000000E+00 0. -1.
         13    1    4    4    0    0  0.94830775233E+01  0.78047123523E+01  0.22632737049E+02  0.25750613692E+02  0.10500000000E+00 0.  1.
    3000001    1    5    5    0    0 -0.24865098434E+02 -0.22358138796E+02 -0.46768980201E+02  0.57502147782E+02  0.10000000000E+01 0. -1.
        -13    1    6    6    0    0  0.20153078541E+00 -0.73905090141E+00 -0.10772534128E+01  0.13260131250E+01  0.10500000000E+00 0. -1.
         13    1    6    6    0    0  0.43777683266E+00 -0.20319379324E+01 -0.30250549515E+01  0.36718391544E+01  0.10500000000E+00 0.  1.
</event>
<event>
11    0  0.3510903E-009  0.9118800E+02  0.7816531E-02  0.1126479E+00
         25   -1    0    0    0    0  0.00000000000E+00  0.00000000000E+00  0.99999998245E-14  0.12500000000E+03  0.12500000000E+03 0.  0.
    3000001    1    3    3    0    0  0.37548032571E+02 -0.28570021866E+02  0.13236619274E+02  0.49013355212E+02  0.10000000000E+01 0.  1.
    1000022    2    1    0    0    0  0.48169818979E+02 -0.36731915936E+02  0.11691226094E+02  0.62500000562E+02  0.10000009693E+02 0.  0.
    3000022    2    3    3    0    0  0.10621786408E+02 -0.81618940705E+01 -0.15453931801E+01  0.13486645350E+02  0.25000278279E+00 0.  0.
    1000022    2    1    0    0    0 -0.48169818979E+02  0.36731915936E+02 -0.11691226094E+02  0.62499999438E+02  0.10000002670E+02 0.  0.
    3000022    2    5    5    0    0 -0.18595861175E+02  0.18950916935E+02 -0.82631118990E+01  0.27807999315E+02  0.25000419443E+00 0.  0.
        -13    1    4    4    0    0  0.81913251431E+01 -0.62916037757E+01 -0.11937417198E+01  0.10397986823E+02  0.10500000000E+00 0. -1.
         13    1    4    4    0    0  0.24304612649E+01 -0.18702902948E+01 -0.35165146033E+00  0.30886585270E+01  0.10500000000E+00 0.  1.
    3000001    1    5    5    0    0 -0.29573957804E+02  0.17780999001E+02 -0.34281141951E+01  0.34692000124E+02  0.10000000000E+01 0.  1.
        -13    1    6    6    0    0 -0.97793617195E+01  0.98729047510E+01 -0.43431301501E+01  0.14559669239E+02  0.10500000000E+00 0.  1.
         13    1    6    6    0    0 -0.88164994558E+01  0.90780121840E+01 -0.39199817489E+01  0.13248330075E+02  0.10500000000E+00 0. -1.
</event>
<event>
11    0  0.3510903E-009  0.9118800E+02  0.7816531E-02  0.1126479E+00
         25   -1    0    0    0    0  0.00000000000E+00  0.00000000000E+00  0.99999998245E-14  0.12500000000E+03  0.12500000000E+03 0.  0.
    3000001    1    3    3    0    0 -0.39088594531E+02 -0.20540788446E+02 -0.29262444045E+02  0.52982382391E+02  0.10000000000E+01 0.  1.
    1000022    2    1    0    0    0 -0.46686255463E+02 -0.26063297019E+02 -0.30779020148E+02  0.62500000722E+02  0.10000005414E+02 0.  0.
    3000022    2    3    3    0    0 -0.75976609321E+01 -0.55225085736E+01 -0.15165761028E+01  0.95176183304E+01  0.25000604665E+00 0.  0.
    1000022    2    1    0    0    0  0.46686255463E+02  0.26063297019E+02  0.30779020148E+02  0.62499999278E+02  0.99999963955E+01 0.  0.
    3000022    2    5    5    0    0  0.30781058790E+02  0.11785644788E+02  0.17521494824E+02  0.37328813130E+02  0.25001097895E+00 0.  0.
        -13    1    4    4    0    0 -0.45524546305E+01 -0.33360569095E+01 -0.85135644381E+00  0.57087609567E+01  0.10500000000E+00 0.  1.
         13    1    4    4    0    0 -0.30452063016E+01 -0.21864516641E+01 -0.66521965895E+00  0.38088573737E+01  0.10500000000E+00 0. -1.
    3000001    1    5    5    0    0  0.15905196673E+02  0.14277652231E+02  0.13257525323E+02  0.25171186149E+02  0.10000000000E+01 0.  1.
        -13    1    6    6    0    0  0.20327284687E+02  0.78414545074E+01  0.11584311223E+02  0.24675781711E+02  0.10500000000E+00 0. -1.
         13    1    6    6    0    0  0.10453774103E+02  0.39441902804E+01  0.59371836011E+01  0.12653031418E+02  0.10500000000E+00 0.  1.
</event>
<event>
11    0  0.3510903E-009  0.9118800E+02  0.7816531E-02  0.1126479E+00
         25   -1    0    0    0    0  0.00000000000E+00  0.00000000000E+00  0.99999998245E-14  0.12500000000E+03  0.12500000000E+03 0.  0.
    3000001    1    3    3    0    0  0.54073300832E+00 -0.98467096616E+01  0.32765457647E+02  0.34231933895E+02  0.10000000000E+01 0. -1.
    1000022    2    1    0    0    0 -0.66774000030E+01 -0.21941591980E+02  0.57273281614E+02  0.62499999857E+02  0.10000003295E+02 0.  0.
    3000022    2    3    3    0    0 -0.72181330113E+01 -0.12094882319E+02  0.24507823967E+02  0.28268065962E+02  0.24999039861E+00 0.  0.
    1000022    2    1    0    0    0  0.66774000030E+01  0.21941591980E+02 -0.57273281614E+02  0.62500000143E+02  0.10000005077E+02 0.  0.
    3000022    2    5    5    0    0  0.42391612114E+00  0.16597086923E+02 -0.35114700474E+02  0.38842601445E+02  0.24999692750E+00 0.  0.
        -13    1    4    4    0    0 -0.36515343799E+01 -0.62154928395E+01  0.12450289107E+02  0.14387035081E+02  0.10500000000E+00 0.  1.
         13    1    4    4    0    0 -0.35665986313E+01 -0.58793894793E+01  0.12057534859E+02  0.13881030881E+02  0.10500000000E+00 0. -1.
    3000001    1    5    5    0    0  0.62534838818E+01  0.53445050574E+01 -0.22158581140E+02  0.23657398697E+02  0.10000000000E+01 0.  1.
        -13    1    6    6    0    0  0.20835413829E+00  0.61379216601E+01 -0.13059426494E+02  0.14431809974E+02  0.10500000000E+00 0. -1.
         13    1    6    6    0    0  0.21556198286E+00  0.10459165263E+02 -0.22055273979E+02  0.24410791472E+02  0.10500000000E+00 0.  1.
</event>
<event>
11    0  0.3510903E-009  0.9118800E+02  0.7816531E-02  0.1126479E+00
         25   -1    0    0    0    0  0.00000000000E+00  0.00000000000E+00  0.99999998245E-14  0.12500000000E+03  0.12500000000E+03 0.  0.
    3000001    1    3    3    0    0  0.31807667690E+02 -0.31562540061E+02  0.18359553350E+02  0.48435471075E+02  0.10000000000E+01 0. -1.
    1000022    2    1    0    0    0  0.43705675091E+02 -0.38986609983E+02  0.19393509184E+02  0.62499999296E+02  0.99999960191E+01 0.  0.
    3000022    2    3    3    0    0  0.11898007401E+02 -0.74240699221E+01  0.10339558337E+01  0.14064528222E+02  0.24999020675E+00 0.  0.
    1000022    2    1    0    0    0 -0.43705675091E+02  0.38986609983E+02 -0.19393509184E+02  0.62500000704E+02  0.10000004818E+02 0.  0.
    3000022    2    5    5    0    0 -0.13960277452E+01  0.34414727069E+00  0.88744432154E+00  0.17080336513E+01  0.24998144057E+00 0.  0.
        -13    1    4    4    0    0  0.78627876037E+01 -0.48968586501E+01  0.73711846696E+00  0.92928479044E+01  0.10500000000E+00 0. -1.
         13    1    4    4    0    0  0.40352197974E+01 -0.25272112721E+01  0.29683736672E+00  0.47716803172E+01  0.10500000000E+00 0. -1.
    3000001    1    5    5    0    0 -0.42309647346E+02  0.38642462712E+02 -0.20280953506E+02  0.60791967053E+02  0.10000000000E+01 0. -1.
        -13    1    6    6    0    0 -0.70856667116E+00  0.17826809031E+00  0.52996754211E+00  0.90870063013E+00  0.10500000000E+00 0.  1.
         13    1    6    6    0    0 -0.68746107407E+00  0.16587918038E+00  0.35747677943E+00  0.79933302114E+00  0.10500000000E+00 0. -1.
</event>
<event>
11    0  0.3510903E-009  0.9118800E+02  0.7816531E-02  0.1126479E+00
         25   -1    0    0    0    0  0.00000000000E+00  0.00000000000E+00  0.99999998245E-14  0.12500000000E+03  0.12500000000E+03 0.  0.
    3000001    1    3    3    0    0 -0.55636779726E+01 -0.12080530213E+02 -0.10878851547E+02  0.17211715016E+02  0.10000000000E+01 0. -1.
    1000022    2    1    0    0    0 -0.45028856877E+01 -0.46252966048E+02 -0.40578777546E+02  0.62499999914E+02  0.99999977210E+01 0.  0.
    3000022    2    3    3    0    0  0.10607922849E+01 -0.34172435835E+02 -0.29699925999E+02  0.45288284898E+02  0.24998705515E+00 0.  0.
    1000022    2    1    0    0    0  0.45028856877E+01  0.46252966048E+02  0.40578777546E+02  0.62500000086E+02  0.99999987922E+01 0.  0.
    3000022    2    5    5    0    0  0.51386668500E+01  0.45941459875E+02  0.40054126811E+02  0.61167141438E+02  0.24996923703E+00 0.  0.
        -13    1    4    4    0    0  0.53462616080E+00 -0.19274533286E+02 -0.16772560418E+02  0.25556276460E+02  0.10500000000E+00 0. -1.
         13    1    4    4    0    0  0.52616612412E+00 -0.14897902549E+02 -0.12927365580E+02  0.19732008438E+02  0.10500000000E+00 0.  1.
    3000001    1    5    5    0    0 -0.63578116234E+00  0.31150617326E+00  0.52465073444E+00  0.13328586480E+01  0.10000000000E+01 0. -1.
        -13    1    6    6    0    0  0.29734157926E+01  0.26928533566E+02  0.23542118717E+02  0.35891914133E+02  0.10500000000E+00 0. -1.
         13    1    6    6    0    0  0.21652510574E+01  0.19012926309E+02  0.16512008095E+02  0.25275227304E+02  0.10500000000E+00 0.  1.
</event>
<event>
11    0  0.3510903E-009  0.9118800E+02  0.7816531E-02  0.1126479E+00
         25   -1    0    0    0    0  0.00000000000E+00  0.00000000000E+00  0.99999998245E-14  0.12500000000E+03  0.12500000000E+03 0.  0.
    3000001    1    3    3    0    0 -0.10047608427E+01 -0.21417009690E+02  0.13626946738E+02  0.25424231076E+02  0.10000000000E+01 0.  1.
    1000022    2    1    0    0    0  0.54718027389E+01 -0.56014833911E+02  0.25271474351E+02  0.62500002612E+02  0.10000033367E+02 0.  0.
    3000022    2    3    3    0    0  0.64765635816E+01 -0.34597824222E+02  0.11644527613E+02  0.37075771536E+02  0.24998999265E+00 0.  0.
    1000022    2    1    0    0    0 -0.54718027389E+01  0.56014833911E+02 -0.25271474351E+02  0.62499997388E+02  0.10000000712E+02 0.  0.
    3000022    2    5    5    0    0  0.23374486215E+01  0.99211004156E+01 -0.25453760440E+01  0.10508726787E+02  0.24999993589E+00 0.  0.
        -13    1    4    4    0    0  0.21529696001E+01 -0.11280406398E+02  0.38335748699E+01  0.12107442665E+02  0.10500000000E+00 0.  1.
         13    1    4    4    0    0  0.43235939815E+01 -0.23317417824E+02  0.78109527431E+01  0.24968328872E+02  0.10500000000E+00 0. -1.
    3000001    1    5    5    0    0 -0.78092513604E+01  0.46093733496E+02 -0.22726098307E+02  0.51991270600E+02  0.10000000000E+01 0. -1.
        -13    1    6    6    0    0  0.14278683834E+01  0.63033745118E+01 -0.15937823302E+01  0.66575149622E+01  0.10500000000E+00 0.  1.
         13    1    6    6    0    0  0.90958023805E+00  0.36177259038E+01 -0.95159371380E+00  0.38512118250E+01  0.10500000000E+00 0. -1.
</event>
<event>
11    0  0.3510903E-009  0.9118800E+02  0.7816531E-02  0.1126479E+00
         25   -1    0    0    0    0  0.00000000000E+00  0.00000000000E+00  0.99999998245E-14  0.12500000000E+03  0.12500000000E+03 0.  0.
    3000001    1    3    3    0    0  0.52481009526E+02  0.81829095204E+01 -0.20860315222E+02  0.57073366120E+02  0.10000000000E+01 0.  1.
    1000022    2    1    0    0    0  0.55567107204E+02  0.90499252208E+01 -0.25231831334E+02  0.62500002021E+02  0.10000019532E+02 0.  0.
    3000022    2    3    3    0    0  0.30860976776E+01  0.86701570040E+00 -0.43715161114E+01  0.54266359007E+01  0.25001797006E+00 0.  0.
    1000022    2    1    0    0    0 -0.55567107204E+02 -0.90499252208E+01  0.25231831334E+02  0.62499997979E+02  0.99999942688E+01 0.  0.
    3000022    2    5    5    0    0 -0.41449704662E+02 -0.52856436603E+01  0.22964567970E+02  0.47680708071E+02  0.24998934442E+00 0.  0.
        -13    1    4    4    0    0  0.18422534520E+01  0.56025065199E+00 -0.27033577613E+01  0.33206846824E+01  0.10500000000E+00 0.  1.
         13    1    4    4    0    0  0.12438442256E+01  0.30676504841E+00 -0.16681583501E+01  0.21059512182E+01  0.10500000000E+00 0. -1.
    3000001    1    5    5    0    0 -0.14117402542E+02 -0.37642815604E+01  0.22672633638E+01  0.14819289907E+02  0.10000000000E+01 0. -1.
        -13    1    6    6    0    0 -0.26524922186E+02 -0.33704806852E+01  0.14759675331E+02  0.30541622057E+02  0.10500000000E+00 0. -1.
         13    1    6    6    0    0 -0.14924782476E+02 -0.19151629751E+01  0.82048926387E+01  0.17139086014E+02  0.10500000000E+00 0.  1.
</event>
<event>
11    0  0.3510903E-009  0.9118800E+02  0.7816531E-02  0.1126479E+00
         25   -1    0    0    0    0  0.00000000000E+00  0.00000000000E+00  0.99999998245E-14  0.12500000000E+03  0.12500000000E+03 0.  0.
    3000001    1    3    3    0    0 -0.17209932736E+01  0.63211685310E+00 -0.66320892398E+01  0.69531285942E+01  0.10000000000E+01 0. -1.
    1000022    2    1    0    0    0 -0.28203391459E+02  0.26448053882E+02 -0.48076178468E+02  0.62500001100E+02  0.10000017874E+02 0.  0.
    3000022    2    3    3    0    0 -0.26482398185E+02  0.25815937029E+02 -0.41444089228E+02  0.55546872506E+02  0.24998976023E+00 0.  0.
    1000022    2    1    0    0    0  0.28203391459E+02 -0.26448053882E+02  0.48076178468E+02  0.62499998900E+02  0.10000004123E+02 0.  0.
    3000022    2    5    5    0    0  0.37868521758E+01 -0.49661059382E+01  0.30673464908E+01  0.69622960847E+01  0.24998937157E+00 0.  0.
        -13    1    4    4    0    0 -0.63218883633E+01  0.61660095047E+01 -0.98693094804E+01  0.13243875577E+02  0.10500000000E+00 0.  1.
         13    1    4    4    0    0 -0.20160509822E+02  0.19649927524E+02 -0.31574779748E+02  0.42302996928E+02  0.10500000000E+00 0. -1.
    3000001    1    5    5    0    0  0.24416539283E+02 -0.21481947944E+02  0.45008831977E+02  0.55537702815E+02  0.10000000000E+01 0.  1.
        -13    1    6    6    0    0  0.20372324080E+01 -0.26093201724E+01  0.15635043010E+01  0.36625726403E+01  0.10500000000E+00 0.  1.
         13    1    6    6    0    0  0.17496197677E+01 -0.23567857658E+01  0.15038421898E+01  0.32997234444E+01  0.10500000000E+00 0. -1.
</event>
<event>
11    0  0.3510903E-009  0.9118800E+02  0.7816531E-02  0.1126479E+00
         25   -1    0    0    0    0  0.00000000000E+00  0.00000000000E+00  0.99999998245E-14  0.12500000000E+03  0.12500000000E+03 0.  0.
    3000001    1    3    3    0    0 -0.59967759379E-01  0.11348588051E+02 -0.51532055714E+02  0.52776384994E+02  0.10000000000E+01 0. -1.
    1000022    2    1    0    0    0 -0.34751961627E+01  0.15561968624E+02 -0.59598642422E+02  0.62499999494E+02  0.99999951158E+01 0.  0.
    3000022    2    3    3    0    0 -0.34152284033E+01  0.42133805728E+01 -0.80665867081E+01  0.97236144999E+01  0.24999385119E+00 0.  0.
    1000022    2    1    0    0    0  0.34751961627E+01 -0.15561968624E+02  0.59598642422E+02  0.62500000506E+02  0.10000001446E+02 0.  0.
    3000022    2    5    5    0    0 -0.21917616369E+01 -0.21723492654E+01  0.42083687549E+01  0.52245368750E+01  0.24999515454E+00 0.  0.
        -13    1    4    4    0    0 -0.26130668443E+01  0.32404465993E+01 -0.61957164696E+01  0.74650211029E+01  0.10500000000E+00 0.  1.
         13    1    4    4    0    0 -0.80216155902E+00  0.97293397350E+00 -0.18708702385E+01  0.22585933970E+01  0.10500000000E+00 0. -1.
    3000001    1    5    5    0    0  0.56669577996E+01 -0.13389619358E+02  0.55390273667E+02  0.57275463631E+02  0.10000000000E+01 0. -1.
        -13    1    6    6    0    0 -0.12471783545E+01 -0.11979457851E+01  0.24581556006E+01  0.30073380104E+01  0.10500000000E+00 0. -1.
         13    1    6    6    0    0 -0.94458328239E+00 -0.97440348028E+00  0.17502131543E+01  0.22171988646E+01  0.10500000000E+00 0.  1.
</event>
<event>
11    0  0.3510903E-009  0.9118800E+02  0.7816531E-02  0.1126479E+00
         25   -1    0    0    0    0  0.00000000000E+00  0.00000000000E+00  0.99999998245E-14  0.12500000000E+03  0.12500000000E+03 0.  0.
    3000001    1    3    3    0    0 -0.53254422923E+01 -0.18024191495E+02  0.32749990971E+02  0.37772923150E+02  0.10000000000E+01 0. -1.
    1000022    2    1    0    0    0 -0.11737069610E+02 -0.22629778770E+02  0.56181708737E+02  0.62499999253E+02  0.99999909887E+01 0.  0.
    3000022    2    3    3    0    0 -0.64116273181E+01 -0.46055872752E+01  0.23431717766E+02  0.24727076103E+02  0.24999228459E+00 0.  0.
    1000022    2    1    0    0    0  0.11737069610E+02  0.22629778770E+02 -0.56181708737E+02  0.62500000747E+02  0.10000000330E+02 0.  0.
    3000022    2    5    5    0    0  0.56941413985E+01  0.33438731107E+01 -0.19745931972E+02  0.20822321266E+02  0.24999964606E+00 0.  0.
        -13    1    4    4    0    0 -0.30256817637E+01 -0.22374578719E+01  0.11034066903E+02  0.11658585904E+02  0.10500000000E+00 0.  1.
         13    1    4    4    0    0 -0.33859455544E+01 -0.23681294034E+01  0.12397650862E+02  0.13068490199E+02  0.10500000000E+00 0. -1.
    3000001    1    5    5    0    0  0.60429282119E+01  0.19285905660E+02 -0.36435776765E+02  0.41677679481E+02  0.10000000000E+01 0.  1.
        -13    1    6    6    0    0  0.39488347818E+01  0.22735524623E+01 -0.13709449346E+02  0.14447226838E+02  0.10500000000E+00 0.  1.
         13    1    6    6    0    0  0.17453066167E+01  0.10703206484E+01 -0.60364826259E+01  0.63750944283E+01  0.10500000000E+00 0. -1.
</event>
<event>
11    0  0.3510903E-009  0.9118800E+02  0.7816531E-02  0.1126479E+00
         25   -1    0    0    0    0  0.00000000000E+00  0.00000000000E+00  0.99999998245E-14  0.12500000000E+03  0.12500000000E+03 0.  0.
    3000001    1    3    3    0    0 -0.16460983064E+02 -0.96750565026E+01 -0.39367745473E+02  0.43765169546E+02  0.10000000000E+01 0. -1.
    1000022    2    1    0    0    0 -0.19986360932E+02 -0.19157917623E+02 -0.55134110629E+02  0.62499995755E+02  0.99999441816E+01 0.  0.
    3000022    2    3    3    0    0 -0.35253778671E+01 -0.94828611208E+01 -0.15766365156E+02  0.18734826209E+02  0.24999743911E+00 0.  0.
    1000022    2    1    0    0    0  0.19986360932E+02  0.19157917623E+02  0.55134110629E+02  0.62500004245E+02  0.99999972419E+01 0.  0.
    3000022    2    5    5    0    0 -0.52725139774E+00  0.32190370450E+01  0.85198205961E+01  0.91263380776E+01  0.25002036598E+00 0.  0.
        -13    1    4    4    0    0 -0.19047402124E+01 -0.50887004910E+01 -0.85895655779E+01  0.10164377491E+02  0.10500000000E+00 0.  1.
         13    1    4    4    0    0 -0.16206376547E+01 -0.43941606298E+01 -0.71767995780E+01  0.85704487182E+01  0.10500000000E+00 0. -1.
    3000001    1    5    5    0    0  0.20513612329E+02  0.15938880578E+02  0.46614290033E+02  0.53373666167E+02  0.10000000000E+01 0.  1.
        -13    1    6    6    0    0 -0.23529321554E+00  0.18006688822E+01  0.46522871684E+01  0.49952549703E+01  0.10500000000E+00 0. -1.
         13    1    6    6    0    0 -0.29195818220E+00  0.14183681628E+01  0.38675334277E+01  0.41310831073E+01  0.10500000000E+00 0.  1.
</event>
<event>
11    0  0.3510903E-009  0.9118800E+02  0.7816531E-02  0.1126479E+00
         25   -1    0    0    0    0  0.00000000000E+00  0.00000000000E+00  0.99999998245E-14  0.12500000000E+03  0.12500000000E+03 0.  0.
    3000001    1    3    3    0    0  0.34853712007E+02 -0.92186910314E+00 -0.24244802106E+02  0.42478718348E+02  0.10000000000E+01 0. -1.
    1000022    2    1    0    0    0  0.54137780503E+02 -0.19559346208E+01 -0.29521603253E+02  0.62499999989E+02  0.99999990977E+01 0.  0.
    3000022    2    3    3    0    0  0.19284068496E+02 -0.10340655177E+01 -0.52768011477E+01  0.20021281641E+02  0.24999792786E+00 0.  0.
    1000022    2    1    0    0    0 -0.54137780503E+02  0.19559346208E+01  0.29521603253E+02  0.62500000011E+02  0.99999992325E+01 0.  0.
    3000022    2    5    5    0    0 -0.17460599012E+02 -0.36929394074E+01  0.11511016186E+02  0.21238557156E+02  0.24999423766E+00 0.  0.
        -13    1    4    4    0    0  0.12151721553E+02 -0.68777825438E+00 -0.32765419290E+01  0.12604924738E+02  0.10500000000E+00 0. -1.
         13    1    4    4    0    0  0.71323469426E+01 -0.34628726328E+00 -0.20002592187E+01  0.74163569035E+01  0.10500000000E+00 0.  1.
    3000001    1    5    5    0    0 -0.36677181492E+02  0.56488740282E+01  0.18010587067E+02  0.41261442855E+02  0.10000000000E+01 0.  1.
        -13    1    6    6    0    0 -0.55017833828E+01 -0.11882645915E+01  0.36825074853E+01  0.67270706485E+01  0.10500000000E+00 0.  1.
         13    1    6    6    0    0 -0.11958815629E+02 -0.25046748159E+01  0.78285087012E+01  0.14511486508E+02  0.10500000000E+00 0. -1.
</event>
<event>
11    0  0.3510903E-009  0.9118800E+02  0.7816531E-02  0.1126479E+00
         25   -1    0    0    0    0  0.00000000000E+00  0.00000000000E+00  0.99999998245E-14  0.12500000000E+03  0.12500000000E+03 0.  0.
    3000001    1    3    3    0    0 -0.18195333927E+02  0.44946549209E+02  0.10095016237E+02  0.49539598458E+02  0.10000000000E+01 0.  1.
    1000022    2    1    0    0    0 -0.24435602487E+02  0.56092898318E+02  0.79207414870E+01  0.62500000425E+02  0.99999998393E+01 0.  0.
    3000022    2    3    3    0    0 -0.62402685600E+01  0.11146349109E+02 -0.21742747502E+01  0.12960401967E+02  0.24999660491E+00 0.  0.
    1000022    2    1    0    0    0  0.24435602487E+02 -0.56092898318E+02 -0.79207414870E+01  0.62499999575E+02  0.99999945268E+01 0.  0.
    3000022    2    5    5    0    0  0.16473755562E+02 -0.27898474628E+02 -0.11842513251E+01  0.32421820884E+02  0.25001866635E+00 0.  0.
        -13    1    4    4    0    0 -0.39926980952E+01  0.72188490311E+01 -0.14427544263E+01  0.83753199788E+01  0.10500000000E+00 0.  1.
         13    1    4    4    0    0 -0.22475704648E+01  0.39275000780E+01 -0.73152032395E+00  0.45850819885E+01  0.10500000000E+00 0. -1.
    3000001    1    5    5    0    0  0.79618469249E+01 -0.28194423690E+02 -0.67364901619E+01  0.30078178691E+02  0.10000000000E+01 0. -1.
        -13    1    6    6    0    0  0.45620132651E+01 -0.76529887302E+01 -0.33383366356E+00  0.89164270563E+01  0.10500000000E+00 0. -1.
         13    1    6    6    0    0  0.11911742297E+02 -0.20245485898E+02 -0.85041766159E+00  0.23505393828E+02  0.10500000000E+00 0.  1.
</event>
<event>
11    0  0.3510903E-009  0.9118800E+02  0.7816531E-02  0.1126479E+00
         25   -1    0    0    0    0  0.00000000000E+00  0.00000000000E+00  0.99999998245E-14  0.12500000000E+03  0.12500000000E+03 0.  0.
    3000001    1    3    3    0    0 -0.17006033868E+02  0.57815344607E+01  0.52013154237E+01  0.18726585667E+02  0.10000000000E+01 0. -1.
    1000022    2    1    0    0    0 -0.60472396217E+02  0.65569295239E+01  0.10312417173E+02  0.62499999871E+02  0.10000000343E+02 0.  0.
    3000022    2    3    3    0    0 -0.43466362350E+02  0.77539506320E+00  0.51111017492E+01  0.43773414203E+02  0.25007300246E+00 0.  0.
    1000022    2    1    0    0    0  0.60472396217E+02 -0.65569295239E+01 -0.10312417173E+02  0.62500000129E+02  0.10000001959E+02 0.  0.
    3000022    2    5    5    0    0  0.15154579812E+02 -0.56032507292E+01 -0.46098962458E+01  0.16803909138E+02  0.25002180441E+00 0.  0.
        -13    1    4    4    0    0 -0.99500619300E+01  0.18087421352E+00  0.11685358202E+01  0.10020626171E+02  0.10500000000E+00 0.  1.
         13    1    4    4    0    0 -0.33516300420E+02  0.59452084969E+00  0.39425659291E+01  0.33752788032E+02  0.10500000000E+00 0. -1.
    3000001    1    5    5    0    0  0.45317816405E+02 -0.95367879472E+00 -0.57025209272E+01  0.45696090991E+02  0.10000000000E+01 0. -1.
        -13    1    6    6    0    0  0.65873454805E+01 -0.25049574990E+01 -0.20219755510E+01  0.73326218149E+01  0.10500000000E+00 0.  1.
         13    1    6    6    0    0  0.85672343315E+01 -0.30982932301E+01 -0.25879206948E+01  0.94712873229E+01  0.10500000000E+00 0. -1.
</event>
<event>
11    0  0.3510903E-009  0.9118800E+02  0.7816531E-02  0.1126479E+00
         25   -1    0    0    0    0  0.00000000000E+00  0.00000000000E+00  0.99999998245E-14  0.12500000000E+03  0.12500000000E+03 0.  0.
    3000001    1    3    3    0    0 -0.41814252718E+02  0.28458708451E+02 -0.45602687439E+01  0.50794939394E+02  0.10000000000E+01 0.  1.
    1000022    2    1    0    0    0 -0.53260716788E+02  0.30858913027E+02 -0.41561214333E+01  0.62499996222E+02  0.99999858233E+01 0.  0.
    3000022    2    3    3    0    0 -0.11446464070E+02  0.24002045760E+01  0.40414731054E+00  0.11705056828E+02  0.24999717935E+00 0.  0.
    1000022    2    1    0    0    0  0.53260716788E+02 -0.30858913027E+02  0.41561214333E+01  0.62500003778E+02  0.10000033045E+02 0.  0.
    3000022    2    5    5    0    0  0.13651315716E+02 -0.98816331911E+01  0.52535300888E+01  0.17654098409E+02  0.25003388190E+00 0.  0.
        -13    1    4    4    0    0 -0.54549249551E+01  0.10780268685E+01  0.21246731532E+00  0.55654753216E+01  0.10500000000E+00 0.  1.
         13    1    4    4    0    0 -0.59915391146E+01  0.13221777075E+01  0.19167999522E+00  0.61395815063E+01  0.10500000000E+00 0. -1.
    3000001    1    5    5    0    0  0.39609401072E+02 -0.20977279836E+02 -0.10974086555E+01  0.44845905369E+02  0.10000000000E+01 0.  1.
        -13    1    6    6    0    0  0.33105290661E+01 -0.23802110026E+01  0.12541203749E+01  0.42671829148E+01  0.10500000000E+00 0. -1.
         13    1    6    6    0    0  0.10340786650E+02 -0.75014221886E+01  0.39994097139E+01  0.13386915494E+02  0.10500000000E+00 0.  1.
</event>
<event>
11    0  0.3510903E-009  0.9118800E+02  0.7816531E-02  0.1126479E+00
         25   -1    0    0    0    0  0.00000000000E+00  0.00000000000E+00  0.99999998245E-14  0.12500000000E+03  0.12500000000E+03 0.  0.
    3000001    1    3    3    0    0  0.14339784411E+01 -0.90633933330E+01  0.73227488347E+01  0.11782361536E+02  0.10000000000E+01 0.  1.
    1000022    2    1    0    0    0  0.61589911002E+01 -0.32765523203E+02  0.51910858602E+02  0.62499998880E+02  0.99999968513E+01 0.  0.
    3000022    2    3    3    0    0  0.47250126591E+01 -0.23702129870E+02  0.44588109767E+02  0.50717637344E+02  0.25000012816E+00 0.  0.
    1000022    2    1    0    0    0 -0.61589911002E+01  0.32765523203E+02 -0.51910858602E+02  0.62500001120E+02  0.10000010852E+02 0.  0.
    3000022    2    5    5    0    0  0.17122512233E+00  0.17410088622E+02 -0.32991365371E+02  0.37304600097E+02  0.24999091430E+00 0.  0.
        -13    1    4    4    0    0  0.33371482795E+01 -0.16505148968E+02  0.31082770779E+02  0.35351183367E+02  0.10500000000E+00 0. -1.
         13    1    4    4    0    0  0.13878643796E+01 -0.71969809025E+01  0.13505338988E+02  0.15366453977E+02  0.10500000000E+00 0.  1.
    3000001    1    5    5    0    0 -0.63302162225E+01  0.15355434582E+02 -0.18919493231E+02  0.25195401023E+02  0.10000000000E+01 0. -1.
        -13    1    6    6    0    0  0.76471214844E-01  0.93227413710E+01 -0.17525366281E+02  0.19851167291E+02  0.10500000000E+00 0.  1.
         13    1    6    6    0    0  0.94753907488E-01  0.80873472505E+01 -0.15465999090E+02  0.17453432806E+02  0.10500000000E+00 0. -1.
</event>
<event>
11    0  0.3510903E-009  0.9118800E+02  0.7816531E-02  0.1126479E+00
         25   -1    0    0    0    0  0.00000000000E+00  0.00000000000E+00  0.99999998245E-14  0.12500000000E+03  0.12500000000E+03 0.  0.
    3000001    1    3    3    0    0 -0.89141358222E+01  0.55097289333E+01  0.31406407715E+02  0.33123728291E+02  0.10000000000E+01 0. -1.
    1000022    2    1    0    0    0 -0.21799909795E+02  0.17102753931E+02  0.55122678730E+02  0.62500001131E+02  0.10000008598E+02 0.  0.
    3000022    2    3    3    0    0 -0.12885773973E+02  0.11593024997E+02  0.23716271015E+02  0.29376272840E+02  0.24999126001E+00 0.  0.
    1000022    2    1    0    0    0  0.21799909795E+02 -0.17102753931E+02 -0.55122678730E+02  0.62499998869E+02  0.99999944549E+01 0.  0.
    3000022    2    5    5    0    0  0.60897123012E-01  0.97572590181E+00 -0.33847004470E+01  0.35319185044E+01  0.25000342146E+00 0.  0.
        -13    1    4    4    0    0 -0.42546505206E+01  0.37864693857E+01  0.78659672178E+01  0.97120475047E+01  0.10500000000E+00 0. -1.
         13    1    4    4    0    0 -0.86311234523E+01  0.78065556115E+01  0.15850303798E+02  0.19664225335E+02  0.10500000000E+00 0.  1.
    3000001    1    5    5    0    0  0.21739012672E+02 -0.18078479832E+02 -0.51737978283E+02  0.58968080364E+02  0.10000000000E+01 0.  1.
        -13    1    6    6    0    0  0.62859491419E-01  0.55089899470E+00 -0.16952895958E+01  0.17867492358E+01  0.10500000000E+00 0.  1.
         13    1    6    6    0    0 -0.19623684070E-02  0.42482690712E+00 -0.16894108512E+01  0.17451692686E+01  0.10500000000E+00 0. -1.
</event>
<event>
11    0  0.3510903E-009  0.9118800E+02  0.7816531E-02  0.1126479E+00
         25   -1    0    0    0    0  0.00000000000E+00  0.00000000000E+00  0.99999998245E-14  0.12500000000E+03  0.12500000000E+03 0.  0.
    3000001    1    3    3    0    0  0.47292240264E+02  0.16375827082E+02  0.14901503331E+02  0.52228138999E+02  0.10000000000E+01 0. -1.
    1000022    2    1    0    0    0  0.54239630778E+02  0.20025114683E+02  0.21524576708E+02  0.62500000667E+02  0.99999957934E+01 0.  0.
    3000022    2    3    3    0    0  0.69473905147E+01  0.36492876006E+01  0.66230733773E+01  0.10271861668E+02  0.25001241515E+00 0.  0.
    1000022    2    1    0    0    0 -0.54239630778E+02 -0.20025114683E+02 -0.21524576708E+02  0.62499999333E+02  0.99999874562E+01 0.  0.
    3000022    2    5    5    0    0 -0.48313223565E+02 -0.15713747819E+02 -0.15989928003E+02  0.53261897635E+02  0.25000073381E+00 0.  0.
        -13    1    4    4    0    0  0.28695010809E+01  0.15284358285E+01  0.26638667295E+01  0.42044456814E+01  0.10500000000E+00 0.  1.
         13    1    4    4    0    0  0.40778894338E+01  0.21208517721E+01  0.39592066477E+01  0.60674159865E+01  0.10500000000E+00 0. -1.
    3000001    1    5    5    0    0 -0.59264072129E+01 -0.43113668638E+01 -0.55346487051E+01  0.92381016977E+01  0.10000000000E+01 0. -1.
        -13    1    6    6    0    0 -0.35393342936E+02 -0.11506877367E+02 -0.11749682997E+02  0.39027721256E+02  0.10500000000E+00 0.  1.
         13    1    6    6    0    0 -0.12919880630E+02 -0.42068704523E+01 -0.42402450060E+01  0.14234176380E+02  0.10500000000E+00 0. -1.
</event>
<event>
11    0  0.3510903E-009  0.9118800E+02  0.7816531E-02  0.1126479E+00
         25   -1    0    0    0    0  0.00000000000E+00  0.00000000000E+00  0.99999998245E-14  0.12500000000E+03  0.12500000000E+03 0.  0.
    3000001    1    3    3    0    0  0.78419871733E+01 -0.96204628993E+01 -0.54867209574E+01  0.13607136954E+02  0.10000000000E+01 0. -1.
    1000022    2    1    0    0    0  0.19330131886E+02 -0.49739222289E+02 -0.30961359095E+02  0.62499999281E+02  0.99999960233E+01 0.  0.
    3000022    2    3    3    0    0  0.11488144712E+02 -0.40118759390E+02 -0.25474638138E+02  0.48892862327E+02  0.24994871365E+00 0.  0.
    1000022    2    1    0    0    0 -0.19330131886E+02  0.49739222289E+02  0.30961359095E+02  0.62500000719E+02  0.10000005006E+02 0.  0.
    3000022    2    5    5    0    0 -0.19372770172E+02  0.46682331648E+02  0.26703273911E+02  0.57163551725E+02  0.24999218944E+00 0.  0.
        -13    1    4    4    0    0  0.45118560250E+01 -0.15982879591E+02 -0.10146353600E+02  0.19461983486E+02  0.10500000000E+00 0. -1.
         13    1    4    4    0    0  0.69762886874E+01 -0.24135879799E+02 -0.15328284538E+02  0.29430878841E+02  0.10500000000E+00 0.  1.
    3000001    1    5    5    0    0  0.42638286255E-01  0.30568906417E+01  0.42580851847E+01  0.53364489934E+01  0.10000000000E+01 0. -1.
        -13    1    6    6    0    0 -0.12053509550E+02  0.29117643234E+02  0.16710372205E+02  0.35670321055E+02  0.10500000000E+00 0. -1.
         13    1    6    6    0    0 -0.73192606223E+01  0.17564688414E+02  0.99929017056E+01  0.21493230670E+02  0.10500000000E+00 0.  1.
</event>
<event>
11    0  0.3510903E-009  0.9118800E+02  0.7816531E-02  0.1126479E+00
         25   -1    0    0    0    0  0.00000000000E+00  0.00000000000E+00  0.99999998245E-14  0.12500000000E+03  0.12500000000E+03 0.  0.
    3000001    1    3    3    0    0  0.17382524641E+02 -0.13926824430E+02  0.19390581222E+02  0.29548320456E+02  0.10000000000E+01 0. -1.
    1000022    2    1    0    0    0  0.42207790603E+02 -0.20603153160E+02  0.40003298382E+02  0.62500009383E+02  0.99999891880E+01 0.  0.
    3000022    2    3    3    0    0  0.24825265962E+02 -0.66763287302E+01  0.20612717159E+02  0.32951688928E+02  0.24999821094E+00 0.  0.
    1000022    2    1    0    0    0 -0.42207790603E+02  0.20603153160E+02 -0.40003298382E+02  0.62499990617E+02  0.99998718978E+01 0.  0.
    3000022    2    5    5    0    0 -0.57605382989E+01 -0.25851926493E+00 -0.70393145944E+01  0.91030262461E+01  0.25000634969E+00 0.  0.
        -13    1    4    4    0    0  0.16338973239E+02 -0.44457987333E+01  0.13547331283E+02  0.21685672292E+02  0.10500000000E+00 0.  1.
         13    1    4    4    0    0  0.84862927225E+01 -0.22305299969E+01  0.70653858766E+01  0.11266016635E+02  0.10500000000E+00 0. -1.
    3000001    1    5    5    0    0 -0.36447252304E+02  0.20861672425E+02 -0.32963983787E+02  0.53396964371E+02  0.10000000000E+01 0.  1.
        -13    1    6    6    0    0 -0.39137292651E+01 -0.22611256831E+00 -0.47727496433E+01  0.61772621615E+01  0.10500000000E+00 0.  1.
         13    1    6    6    0    0 -0.18468090338E+01 -0.32406696617E-01 -0.22665649512E+01  0.29257640847E+01  0.10500000000E+00 0. -1.
</event>
<event>
11    0  0.3510903E-009  0.9118800E+02  0.7816531E-02  0.1126479E+00
         25   -1    0    0    0    0  0.00000000000E+00  0.00000000000E+00  0.99999998245E-14  0.12500000000E+03  0.12500000000E+03 0.  0.
    3000001    1    3    3    0    0  0.11832317730E+02 -0.12454420270E+02  0.76376448313E+01  0.18826841097E+02  0.10000000000E+01 0.  1.
    1000022    2    1    0    0    0  0.29500319943E+02 -0.50738482307E+02  0.19015455801E+02  0.62499999889E+02  0.99999981626E+01 0.  0.
    3000022    2    3    3    0    0  0.17668002213E+02 -0.38284062037E+02  0.11377810970E+02  0.43673158792E+02  0.25001630692E+00 0.  0.
    1000022    2    1    0    0    0 -0.29500319943E+02  0.50738482307E+02 -0.19015455801E+02  0.62500000111E+02  0.99999995449E+01 0.  0.
    3000022    2    5    5    0    0 -0.56228042878E+01  0.12624751141E+02 -0.44078738203E+00  0.13829572085E+02  0.25000222723E+00 0.  0.
        -13    1    4    4    0    0  0.10278233775E+02 -0.22141377131E+02  0.66235324363E+01  0.25293573843E+02  0.10500000000E+00 0. -1.
         13    1    4    4    0    0  0.73897684387E+01 -0.16142684906E+02  0.47542785337E+01  0.18379584950E+02  0.10500000000E+00 0.  1.
    3000001    1    5    5    0    0 -0.23877515656E+02  0.38113731166E+02 -0.18574668419E+02  0.48670428026E+02  0.10000000000E+01 0. -1.
        -13    1    6    6    0    0 -0.37820024656E+01  0.86077491954E+01 -0.28144895191E+00  0.94067596639E+01  0.10500000000E+00 0. -1.
         13    1    6    6    0    0 -0.18408018222E+01  0.40170019454E+01 -0.15933843012E+00  0.44228124212E+01  0.10500000000E+00 0.  1.
</event>
<event>
11    0  0.3510903E-009  0.9118800E+02  0.7816531E-02  0.1126479E+00
         25   -1    0    0    0    0  0.00000000000E+00  0.00000000000E+00  0.99999998245E-14  0.12500000000E+03  0.12500000000E+03 0.  0.
    3000001    1    3    3    0    0  0.18319176343E+02  0.49762816221E+02 -0.16891497238E+02  0.55661950910E+02  0.10000000000E+01 0. -1.
    1000022    2    1    0    0    0  0.19910194923E+02  0.56277453465E+02 -0.15578263006E+02  0.62500000611E+02  0.10000008387E+02 0.  0.
    3000022    2    3    3    0    0  0.15910185797E+01  0.65146372446E+01  0.13132342321E+01  0.68380497019E+01  0.25000205498E+00 0.  0.
    1000022    2    1    0    0    0 -0.19910194923E+02 -0.56277453465E+02  0.15578263006E+02  0.62499999389E+02  0.10000000744E+02 0.  0.
    3000022    2    5    5    0    0 -0.10150747674E+02 -0.27982209554E+02  0.26641779429E+01  0.29886486366E+02  0.24998674016E+00 0.  0.
        -13    1    4    4    0    0  0.97716740631E+00  0.38988861017E+01  0.84630068301E+00  0.41089437597E+01  0.10500000000E+00 0.  1.
         13    1    4    4    0    0  0.61385117339E+00  0.26157511429E+01  0.46693354908E+00  0.27291059422E+01  0.10500000000E+00 0. -1.
    3000001    1    5    5    0    0 -0.97594472483E+01 -0.28295243912E+02  0.12914085063E+02  0.32613513022E+02  0.10000000000E+01 0.  1.
        -13    1    6    6    0    0 -0.72199069768E+01 -0.19946087342E+02  0.18589417088E+01  0.21294134081E+02  0.10500000000E+00 0. -1.
         13    1    6    6    0    0 -0.29308406975E+01 -0.80361222118E+01  0.80523623415E+00  0.85923522850E+01  0.10500000000E+00 0.  1.
</event>
<event>
11    0  0.3510903E-009  0.9118800E+02  0.7816531E-02  0.1126479E+00
         25   -1    0    0    0    0  0.00000000000E+00  0.00000000000E+00  0.99999998245E-14  0.12500000000E+03  0.12500000000E+03 0.  0.
    3000001    1    3    3    0    0 -0.90591733734E+01  0.44261004901E+01  0.47860070026E+01  0.11205572310E+02  0.10000000000E+01 0.  1.
    1000022    2    1    0    0    0 -0.39504133412E+02  0.19057846197E+02  0.43387459957E+02  0.62499999318E+02  0.10000008745E+02 0.  0.
    3000022    2    3    3    0    0 -0.30444960039E+02  0.14631745707E+02  0.38601452955E+02  0.51294427008E+02  0.24999544945E+00 0.  0.
    1000022    2    1    0    0    0  0.39504133412E+02 -0.19057846197E+02 -0.43387459957E+02  0.62500000682E+02  0.10000017270E+02 0.  0.
    3000022    2    5    5    0    0  0.37234891612E+02 -0.15193519429E+02 -0.40503741592E+02  0.57077979719E+02  0.24999962835E+00 0.  0.
        -13    1    4    4    0    0 -0.18759954393E+02  0.90831946928E+01  0.23831844224E+02  0.31660829723E+02  0.10500000000E+00 0. -1.
         13    1    4    4    0    0 -0.11685005646E+02  0.55485510139E+01  0.14769608731E+02  0.19633597285E+02  0.10500000000E+00 0.  1.
    3000001    1    5    5    0    0  0.22692418000E+01 -0.38643267678E+01 -0.28837183651E+01  0.54220209631E+01  0.10000000000E+01 0. -1.
        -13    1    6    6    0    0  0.28089889878E+02 -0.11479270810E+02 -0.30586378359E+02  0.43085416765E+02  0.10500000000E+00 0.  1.
         13    1    6    6    0    0  0.91450017343E+01 -0.37142486189E+01 -0.99173632329E+01  0.13992562954E+02  0.10500000000E+00 0. -1.
</event>
<event>
11    0  0.3510903E-009  0.9118800E+02  0.7816531E-02  0.1126479E+00
         25   -1    0    0    0    0  0.00000000000E+00  0.00000000000E+00  0.99999998245E-14  0.12500000000E+03  0.12500000000E+03 0.  0.
    3000001    1    3    3    0    0 -0.26337481032E+02 -0.33428147230E+02  0.22762419550E+02  0.48272473296E+02  0.10000000000E+01 0. -1.
    1000022    2    1    0    0    0 -0.32033345775E+02 -0.46186547273E+02  0.25434574168E+02  0.62500000086E+02  0.10000002851E+02 0.  0.
    3000022    2    3    3    0    0 -0.56958647437E+01 -0.12758400044E+02  0.26721546177E+01  0.14227526790E+02  0.24992280860E+00 0.  0.
    1000022    2    1    0    0    0  0.32033345775E+02  0.46186547273E+02 -0.25434574168E+02  0.62499999914E+02  0.10000001777E+02 0.  0.
    3000022    2    5    5    0    0  0.53001548057E+01  0.11297634470E+02 -0.18782375366E+01  0.12622141785E+02  0.25000283871E+00 0.  0.
        -13    1    4    4    0    0 -0.13477508671E+01 -0.30613812316E+01  0.64709353019E+00  0.34085543097E+01  0.10500000000E+00 0.  1.
         13    1    4    4    0    0 -0.43481138766E+01 -0.96970188121E+01  0.20250610875E+01  0.10818972481E+02  0.10500000000E+00 0. -1.
    3000001    1    5    5    0    0  0.26733190970E+02  0.34888912803E+02 -0.23556336631E+02  0.49877858129E+02  0.10000000000E+01 0.  1.
        -13    1    6    6    0    0  0.16787575982E+01  0.35590080515E+01 -0.54284473077E+00  0.39737225351E+01  0.10500000000E+00 0. -1.
         13    1    6    6    0    0  0.36213972075E+01  0.77386264188E+01 -0.13353928058E+01  0.86484192503E+01  0.10500000000E+00 0.  1.
</event>
<event>
11    0  0.3510903E-009  0.9118800E+02  0.7816531E-02  0.1126479E+00
         25   -1    0    0    0    0  0.00000000000E+00  0.00000000000E+00  0.99999998245E-14  0.12500000000E+03  0.12500000000E+03 0.  0.
    3000001    1    3    3    0    0 -0.26212798001E+02 -0.34337225894E+02  0.34075103620E+02  0.55029706049E+02  0.10000000000E+01 0.  1.
    1000022    2    1    0    0    0 -0.29015610872E+02 -0.36084199762E+02  0.40771005385E+02  0.62500000409E+02  0.10000001213E+02 0.  0.
    3000022    2    3    3    0    0 -0.28028128706E+01 -0.17469738680E+01  0.66959017653E+01  0.74702943597E+01  0.25003937256E+00 0.  0.
    1000022    2    1    0    0    0  0.29015610872E+02  0.36084199762E+02 -0.40771005385E+02  0.62499999591E+02  0.99999961021E+01 0.  0.
    3000022    2    5    5    0    0  0.11315767923E+02  0.11791181055E+02 -0.86289353375E+01  0.18482413727E+02  0.25007554736E+00 0.  0.
        -13    1    4    4    0    0 -0.78590064834E+00 -0.45065516512E+00  0.18033139774E+01  0.20208157283E+01  0.10500000000E+00 0.  1.
         13    1    4    4    0    0 -0.20169122222E+01 -0.12963187029E+01  0.48925877879E+01  0.54494786314E+01  0.10500000000E+00 0. -1.
    3000001    1    5    5    0    0  0.17699842949E+02  0.24293018708E+02 -0.32142070047E+02  0.44017585864E+02  0.10000000000E+01 0.  1.
        -13    1    6    6    0    0  0.69295182148E+01  0.71574937449E+01 -0.53097684336E+01  0.11289490919E+02  0.10500000000E+00 0.  1.
         13    1    6    6    0    0  0.43862497081E+01  0.46336873096E+01 -0.33191669039E+01  0.71929228079E+01  0.10500000000E+00 0. -1.
</event>
<event>
11    0  0.3510903E-009  0.9118800E+02  0.7816531E-02  0.1126479E+00
         25   -1    0    0    0    0  0.00000000000E+00  0.00000000000E+00  0.99999998245E-14  0.12500000000E+03  0.12500000000E+03 0.  0.
    3000001    1    3    3    0    0  0.43082951400E+02 -0.14111256456E+02 -0.58688650420E+01  0.45724302476E+02  0.10000000000E+01 0. -1.
    1000022    2    1    0    0    0  0.56524973952E+02 -0.20821132853E+02 -0.13328834355E+02  0.62500000970E+02  0.10000002126E+02 0.  0.
    3000022    2    3    3    0    0  0.13442022552E+02 -0.67098763971E+01 -0.74599693130E+01  0.16775698494E+02  0.25001251381E+00 0.  0.
    1000022    2    1    0    0    0 -0.56524973952E+02  0.20821132853E+02  0.13328834355E+02  0.62499999030E+02  0.99999899969E+01 0.  0.
    3000022    2    5    5    0    0 -0.10420824173E+02  0.40840886908E+01 -0.13897312206E+01  0.11281277387E+02  0.25001948065E+00 0.  0.
        -13    1    4    4    0    0  0.34863825435E+01 -0.17353925212E+01 -0.19688407670E+01  0.43650669420E+01  0.10500000000E+00 0. -1.
         13    1    4    4    0    0  0.99556400085E+01 -0.49744838759E+01 -0.54911285460E+01  0.12410631552E+02  0.10500000000E+00 0.  1.
    3000001    1    5    5    0    0 -0.46104149779E+02  0.16737044162E+02  0.14718565576E+02  0.51218721643E+02  0.10000000000E+01 0. -1.
        -13    1    6    6    0    0 -0.70623230366E+01  0.28224393218E+01 -0.94189460830E+00  0.76642521391E+01  0.10500000000E+00 0.  1.
         13    1    6    6    0    0 -0.33585011362E+01  0.12616493689E+01 -0.44783661235E+00  0.36170252478E+01  0.10500000000E+00 0. -1.
</event>
<event>
11    0  0.3510903E-009  0.9118800E+02  0.7816531E-02  0.1126479E+00
         25   -1    0    0    0    0  0.00000000000E+00  0.00000000000E+00  0.99999998245E-14  0.12500000000E+03  0.12500000000E+03 0.  0.
    3000001    1    3    3    0    0  0.77368134421E+00 -0.19582726262E+01 -0.30089036433E+00  0.23503083867E+01  0.10000000000E+01 0. -1.
    1000022    2    1    0    0    0 -0.12596431387E+02 -0.48735860591E+02 -0.35670654726E+02  0.62499999780E+02  0.10000008634E+02 0.  0.
    3000022    2    3    3    0    0 -0.13370112731E+02 -0.46777587965E+02 -0.35369764361E+02  0.60149691393E+02  0.24998692497E+00 0.  0.
    1000022    2    1    0    0    0  0.12596431387E+02  0.48735860591E+02  0.35670654726E+02  0.62500000220E+02  0.10000011385E+02 0.  0.
    3000022    2    5    5    0    0  0.42109504046E+01  0.83514503809E+01  0.28527786190E+01  0.97815985799E+01  0.24999631196E+00 0.  0.
        -13    1    4    4    0    0 -0.93012547065E+01 -0.32406942257E+02 -0.24474332989E+02  0.41662060028E+02  0.10500000000E+00 0.  1.
         13    1    4    4    0    0 -0.40688580244E+01 -0.14370645708E+02 -0.10895431373E+02  0.18487631365E+02  0.10500000000E+00 0. -1.
    3000001    1    5    5    0    0  0.83854809822E+01  0.40384410210E+02  0.32817876107E+02  0.52718401640E+02  0.10000000000E+01 0. -1.
        -13    1    6    6    0    0  0.10130426896E+01  0.20500686933E+01  0.71208807392E+00  0.23973175766E+01  0.10500000000E+00 0. -1.
         13    1    6    6    0    0  0.31979077150E+01  0.63013816876E+01  0.21406905451E+01  0.73842810033E+01  0.10500000000E+00 0.  1.
</event>
<event>
11    0  0.3510903E-009  0.9118800E+02  0.7816531E-02  0.1126479E+00
         25   -1    0    0    0    0  0.00000000000E+00  0.00000000000E+00  0.99999998245E-14  0.12500000000E+03  0.12500000000E+03 0.  0.
    3000001    1    3    3    0    0  0.35594749498E+02 -0.37631325603E+02 -0.27889895462E+01  0.51883343388E+02  0.10000000000E+01 0.  1.
    1000022    2    1    0    0    0  0.41704779650E+02 -0.45453492303E+02  0.97028571733E+00  0.62500000619E+02  0.10000000742E+02 0.  0.
    3000022    2    3    3    0    0  0.61100301521E+01 -0.78221666996E+01  0.37592752635E+01  0.10616657231E+02  0.24999982509E+00 0.  0.
    1000022    2    1    0    0    0 -0.41704779650E+02  0.45453492303E+02 -0.97028571733E+00  0.62499999381E+02  0.99999930039E+01 0.  0.
    3000022    2    5    5    0    0 -0.13019295584E+02  0.15245840637E+02  0.42776691320E+01  0.20501186953E+02  0.24999809049E+00 0.  0.
        -13    1    4    4    0    0  0.26564914806E+01 -0.34891937222E+01  0.17014190266E+01  0.47050261978E+01  0.10500000000E+00 0.  1.
         13    1    4    4    0    0  0.34535386715E+01 -0.43329729774E+01  0.20578562369E+01  0.59116310330E+01  0.10500000000E+00 0. -1.
    3000001    1    5    5    0    0 -0.28685484066E+02  0.30207651666E+02 -0.52479548494E+01  0.41998812428E+02  0.10000000000E+01 0.  1.
        -13    1    6    6    0    0 -0.59217695575E+01  0.68456153929E+01  0.19655174535E+01  0.92630496414E+01  0.10500000000E+00 0. -1.
         13    1    6    6    0    0 -0.70975260261E+01  0.84002252440E+01  0.23121516785E+01  0.11238137311E+02  0.10500000000E+00 0.  1.
</event>
<event>
11    0  0.3510903E-009  0.9118800E+02  0.7816531E-02  0.1126479E+00
         25   -1    0    0    0    0  0.00000000000E+00  0.00000000000E+00  0.99999998245E-14  0.12500000000E+03  0.12500000000E+03 0.  0.
    3000001    1    3    3    0    0  0.17291080096E+02  0.86895623615E+01  0.38704417938E+02  0.43284199344E+02  0.10000000000E+01 0. -1.
    1000022    2    1    0    0    0  0.18571681078E+02  0.12310175570E+02  0.57530878650E+02  0.62499997591E+02  0.99999970047E+01 0.  0.
    3000022    2    3    3    0    0  0.12806009814E+01  0.36206132085E+01  0.18826460712E+02  0.19215798247E+02  0.25000094671E+00 0.  0.
    1000022    2    1    0    0    0 -0.18571681078E+02 -0.12310175570E+02 -0.57530878650E+02  0.62500002409E+02  0.10000027114E+02 0.  0.
    3000022    2    5    5    0    0 -0.15634942979E+01 -0.49190932547E+00 -0.37603066305E+00  0.17001135689E+01  0.24999576749E+00 0.  0.
        -13    1    4    4    0    0  0.49213937435E+00  0.15771527768E+01  0.79921666070E+01  0.81618235780E+01  0.10500000000E+00 0.  1.
         13    1    4    4    0    0  0.78846160702E+00  0.20434604317E+01  0.10834294105E+02  0.11053974669E+02  0.10500000000E+00 0. -1.
    3000001    1    5    5    0    0 -0.17008186780E+02 -0.11818266244E+02 -0.57154847987E+02  0.60799888840E+02  0.10000000000E+01 0. -1.
        -13    1    6    6    0    0 -0.12014153099E+01 -0.36660474491E+00 -0.27336501621E+00  0.12897872762E+01  0.10500000000E+00 0.  1.
         13    1    6    6    0    0 -0.36207898798E+00 -0.12530458057E+00 -0.10266564684E+00  0.41032629271E+00  0.10500000000E+00 0. -1.
</event>
<event>
11    0  0.3510903E-009  0.9118800E+02  0.7816531E-02  0.1126479E+00
         25   -1    0    0    0    0  0.00000000000E+00  0.00000000000E+00  0.99999998245E-14  0.12500000000E+03  0.12500000000E+03 0.  0.
    3000001    1    3    3    0    0  0.36999487981E+00 -0.66625659190E+00 -0.90411362929E+00  0.15486172904E+01  0.10000000000E+01 0.  1.
    1000022    2    1    0    0    0 -0.19307630090E+02 -0.73591541412E+00 -0.58591156671E+02  0.62500001274E+02  0.10000018401E+02 0.  0.
    3000022    2    3    3    0    0 -0.19677624970E+02 -0.69658822218E-01 -0.57687043042E+02  0.60951383984E+02  0.24999565598E+00 0.  0.
    1000022    2    1    0    0    0  0.19307630090E+02  0.73591541412E+00  0.58591156671E+02  0.62499998726E+02  0.10000002478E+02 0.  0.
    3000022    2    5    5    0    0  0.14891182670E+02 -0.31068898055E+01  0.34828496599E+02  0.38006404187E+02  0.24999658957E+00 0.  0.
        -13    1    4    4    0    0 -0.51226934195E+01  0.12145319360E-01 -0.14989755669E+02  0.15841273162E+02  0.10500000000E+00 0. -1.
         13    1    4    4    0    0 -0.14554931550E+02 -0.81804141578E-01 -0.42697287373E+02  0.45110110822E+02  0.10500000000E+00 0.  1.
    3000001    1    5    5    0    0  0.44164474202E+01  0.38428052196E+01  0.23762660072E+02  0.24493594539E+02  0.10000000000E+01 0. -1.
        -13    1    6    6    0    0  0.67251183348E+01 -0.14663941572E+01  0.15696862717E+02  0.17140013203E+02  0.10500000000E+00 0.  1.
         13    1    6    6    0    0  0.81660643348E+01 -0.16404956483E+01  0.19131633882E+02  0.20866390984E+02  0.10500000000E+00 0. -1.
</event>
<event>
11    0  0.3510903E-009  0.9118800E+02  0.7816531E-02  0.1126479E+00
         25   -1    0    0    0    0  0.00000000000E+00  0.00000000000E+00  0.99999998245E-14  0.12500000000E+03  0.12500000000E+03 0.  0.
    3000001    1    3    3    0    0 -0.32866608111E+02 -0.36658037039E+01 -0.18484641208E+02  0.37898997429E+02  0.10000000000E+01 0.  1.
    1000022    2    1    0    0    0 -0.52505722932E+02  0.15275516068E+01 -0.32358395872E+02  0.62500000385E+02  0.99999955092E+01 0.  0.
    3000022    2    3    3    0    0 -0.19639114821E+02  0.51933553107E+01 -0.13873754664E+02  0.24601002956E+02  0.25001526944E+00 0.  0.
    1000022    2    1    0    0    0  0.52505722932E+02 -0.15275516068E+01  0.32358395872E+02  0.62499999615E+02  0.99999906955E+01 0.  0.
    3000022    2    5    5    0    0  0.28623315319E+02  0.12478496204E+01  0.12331299763E+02  0.31192543252E+02  0.24998428537E+00 0.  0.
        -13    1    4    4    0    0 -0.92042553217E+01  0.25033541385E+01 -0.65063438470E+01  0.11546801861E+02  0.10500000000E+00 0. -1.
         13    1    4    4    0    0 -0.10434859499E+02  0.26900011722E+01 -0.73674108170E+01  0.13054201094E+02  0.10500000000E+00 0.  1.
    3000001    1    5    5    0    0  0.23882407613E+02 -0.27754012272E+01  0.20027096109E+02  0.31307456363E+02  0.10000000000E+01 0. -1.
        -13    1    6    6    0    0  0.14882118443E+02  0.63294829269E+00  0.64826737524E+01  0.16245434955E+02  0.10500000000E+00 0.  1.
         13    1    6    6    0    0  0.13741196875E+02  0.61490132770E+00  0.58486260109E+01  0.14947108296E+02  0.10500000000E+00 0. -1.
</event>
<event>
11    0  0.3510903E-009  0.9118800E+02  0.7816531E-02  0.1126479E+00
         25   -1    0    0    0    0  0.00000000000E+00  0.00000000000E+00  0.99999998245E-14  0.12500000000E+03  0.12500000000E+03 0.  0.
    3000001    1    3    3    0    0  0.35059159850E+02 -0.43954846153E+01 -0.24770172077E+02  0.43162789520E+02  0.10000000000E+01 0. -1.
    1000022    2    1    0    0    0  0.48960136290E+02 -0.12728309143E+02 -0.35314940382E+02  0.62500001287E+02  0.10000017378E+02 0.  0.
    3000022    2    3    3    0    0  0.13900976440E+02 -0.83328245277E+01 -0.10544768304E+02  0.19337211767E+02  0.25001949564E+00 0.  0.
    1000022    2    1    0    0    0 -0.48960136290E+02  0.12728309143E+02  0.35314940382E+02  0.62499998713E+02  0.10000001292E+02 0.  0.
    3000022    2    5    5    0    0 -0.13733059329E+02  0.33963697586E+01  0.47458621346E+01  0.14923737944E+02  0.25000152496E+00 0.  0.
        -13    1    4    4    0    0  0.50833860868E+01 -0.30745698059E+01 -0.39302275995E+01  0.71240092352E+01  0.10500000000E+00 0.  1.
         13    1    4    4    0    0  0.88175903530E+01 -0.52582547218E+01 -0.66145407046E+01  0.12213202532E+02  0.10500000000E+00 0. -1.
    3000001    1    5    5    0    0 -0.35227076961E+02  0.93319393844E+01  0.30569078247E+02  0.47576260769E+02  0.10000000000E+01 0. -1.
        -13    1    6    6    0    0 -0.41417883489E+01  0.10629106691E+01  0.14636683926E+01  0.45207897519E+01  0.10500000000E+00 0. -1.
         13    1    6    6    0    0 -0.95912709798E+01  0.23334590895E+01  0.32821937420E+01  0.10402948192E+02  0.10500000000E+00 0.  1.
</event>
<event>
11    0  0.3510903E-009  0.9118800E+02  0.7816531E-02  0.1126479E+00
         25   -1    0    0    0    0  0.00000000000E+00  0.00000000000E+00  0.99999998245E-14  0.12500000000E+03  0.12500000000E+03 0.  0.
    3000001    1    3    3    0    0 -0.10109570608E+02  0.19589975641E+02  0.31449586897E+02  0.38419358135E+02  0.10000000000E+01 0.  1.
    1000022    2    1    0    0    0 -0.12347254697E+02  0.37438959590E+02  0.47456502183E+02  0.62499999572E+02  0.99999976657E+01 0.  0.
    3000022    2    3    3    0    0 -0.22376840894E+01  0.17848983949E+02  0.16006915287E+02  0.24080641438E+02  0.24999394012E+00 0.  0.
    1000022    2    1    0    0    0  0.12347254697E+02 -0.37438959590E+02 -0.47456502183E+02  0.62500000428E+02  0.10000003012E+02 0.  0.
    3000022    2    5    5    0    0  0.67101124673E+01 -0.20231962970E+02 -0.33100978392E+02  0.39371248440E+02  0.24999647133E+00 0.  0.
        -13    1    4    4    0    0 -0.10969480722E+01  0.86515190335E+01  0.76709261898E+01  0.11614913270E+02  0.10500000000E+00 0. -1.
         13    1    4    4    0    0 -0.11407360172E+01  0.91974649153E+01  0.83359890968E+01  0.12465728168E+02  0.10500000000E+00 0.  1.
    3000001    1    5    5    0    0  0.56371422300E+01 -0.17206996620E+02 -0.14355523791E+02  0.23128751988E+02  0.10000000000E+01 0.  1.
        -13    1    6    6    0    0  0.40505812846E+01 -0.12290129732E+02 -0.20200592773E+02  0.23990195309E+02  0.10500000000E+00 0. -1.
         13    1    6    6    0    0  0.26595311828E+01 -0.79418332386E+01 -0.12900385619E+02  0.15381053131E+02  0.10500000000E+00 0.  1.
</event>
<event>
11    0  0.3510903E-009  0.9118800E+02  0.7816531E-02  0.1126479E+00
         25   -1    0    0    0    0  0.00000000000E+00  0.00000000000E+00  0.99999998245E-14  0.12500000000E+03  0.12500000000E+03 0.  0.
    3000001    1    3    3    0    0 -0.17296567400E+02 -0.57915031347E+00 -0.15118182551E+02  0.23001436967E+02  0.10000000000E+01 0.  1.
    1000022    2    1    0    0    0 -0.47226650185E+02  0.11004267295E+02 -0.38141825365E+02  0.62499994564E+02  0.10000004597E+02 0.  0.
    3000022    2    3    3    0    0 -0.29930082784E+02  0.11583417608E+02 -0.23023642815E+02  0.39498557597E+02  0.25000961461E+00 0.  0.
    1000022    2    1    0    0    0  0.47226650185E+02 -0.11004267295E+02  0.38141825365E+02  0.62500005436E+02  0.10000072548E+02 0.  0.
    3000022    2    5    5    0    0  0.15161405191E+01 -0.15343411205E+01 -0.58989060246E-01  0.21722968902E+01  0.25001864374E+00 0.  0.
        -13    1    4    4    0    0 -0.11425016203E+02  0.44567510406E+01 -0.87344196782E+01  0.15056385263E+02  0.10500000000E+00 0.  1.
         13    1    4    4    0    0 -0.18505066581E+02  0.71266665675E+01 -0.14289223137E+02  0.24442172334E+02  0.10500000000E+00 0. -1.
    3000001    1    5    5    0    0  0.45710509665E+02 -0.94699261741E+01  0.38200814426E+02  0.60327708546E+02  0.10000000000E+01 0. -1.
        -13    1    6    6    0    0  0.35631520794E+00 -0.34815578824E+00 -0.60979337721E-02  0.50915141666E+00  0.10500000000E+00 0.  1.
         13    1    6    6    0    0  0.11598253111E+01 -0.11861853323E+01 -0.52891126474E-01  0.16631454735E+01  0.10500000000E+00 0. -1.
</event>
<event>
11    0  0.3510903E-009  0.9118800E+02  0.7816531E-02  0.1126479E+00
         25   -1    0    0    0    0  0.00000000000E+00  0.00000000000E+00  0.99999998245E-14  0.12500000000E+03  0.12500000000E+03 0.  0.
    3000001    1    3    3    0    0  0.47875261432E+02  0.14212254645E+01  0.25617242368E+02  0.54325902160E+02  0.10000000000E+01 0. -1.
    1000022    2    1    0    0    0  0.55957858232E+02  0.25919358713E+01  0.25850531005E+02  0.62499999350E+02  0.99999968027E+01 0.  0.
    3000022    2    3    3    0    0  0.80825968005E+01  0.11707104069E+01  0.23328863658E+00  0.81740971899E+01  0.25001477343E+00 0.  0.
    1000022    2    1    0    0    0 -0.55957858232E+02 -0.25919358713E+01 -0.25850531005E+02  0.62500000650E+02  0.10000004925E+02 0.  0.
    3000022    2    5    5    0    0 -0.44889120762E+02  0.16487593563E+01 -0.19000690444E+02  0.48773356453E+02  0.24998430212E+00 0.  0.
        -13    1    4    4    0    0  0.22176203076E+01  0.34045974255E+00  0.96846165027E-01  0.22481452010E+01  0.10500000000E+00 0.  1.
         13    1    4    4    0    0  0.58649764928E+01  0.83025066433E+00  0.13644247156E+00  0.59259519889E+01  0.10500000000E+00 0. -1.
    3000001    1    5    5    0    0 -0.11068737470E+02 -0.42406952277E+01 -0.68498405605E+01  0.13726644197E+02  0.10000000000E+01 0. -1.
        -13    1    6    6    0    0 -0.29550208621E+02  0.10804127651E+01 -0.12567405562E+02  0.32129936645E+02  0.10500000000E+00 0. -1.
         13    1    6    6    0    0 -0.15338912141E+02  0.56834659122E+00 -0.64332848829E+01  0.16643419808E+02  0.10500000000E+00 0.  1.
</event>
<event>
11    0  0.3510903E-009  0.9118800E+02  0.7816531E-02  0.1126479E+00
         25   -1    0    0    0    0  0.00000000000E+00  0.00000000000E+00  0.99999998245E-14  0.12500000000E+03  0.12500000000E+03 0.  0.
    3000001    1    3    3    0    0 -0.67112055513E+01  0.22989616057E+01  0.19789088022E+02  0.21045985583E+02  0.10000000000E+01 0.  1.
    1000022    2    1    0    0    0 -0.19834407334E+02  0.20080740624E+02  0.54859913197E+02  0.62500000674E+02  0.10000007499E+02 0.  0.
    3000022    2    3    3    0    0 -0.13123201782E+02  0.17781779018E+02  0.35070825174E+02  0.41454015090E+02  0.24999725331E+00 0.  0.
    1000022    2    1    0    0    0  0.19834407334E+02 -0.20080740624E+02 -0.54859913197E+02  0.62499999326E+02  0.99999990787E+01 0.  0.
    3000022    2    5    5    0    0  0.30416185413E+01 -0.56435523010E+01 -0.57374859151E+01  0.86071146001E+01  0.25010235533E+00 0.  0.
        -13    1    4    4    0    0 -0.40791718002E+01  0.54828944863E+01  0.10769769820E+02  0.12755420083E+02  0.10500000000E+00 0. -1.
         13    1    4    4    0    0 -0.90440299820E+01  0.12298884532E+02  0.24301055354E+02  0.28698595007E+02  0.10500000000E+00 0.  1.
    3000001    1    5    5    0    0  0.16792788792E+02 -0.14437188323E+02 -0.49122427281E+02  0.53892884726E+02  0.10000000000E+01 0. -1.
        -13    1    6    6    0    0  0.17484628752E+01 -0.33236969239E+01 -0.34301663090E+01  0.50873519217E+01  0.10500000000E+00 0. -1.
         13    1    6    6    0    0  0.12931556661E+01 -0.23198553770E+01 -0.23073196061E+01  0.35197626783E+01  0.10500000000E+00 0.  1.
</event>
<event>
11    0  0.3510903E-009  0.9118800E+02  0.7816531E-02  0.1126479E+00
         25   -1    0    0    0    0  0.00000000000E+00  0.00000000000E+00  0.99999998245E-14  0.12500000000E+03  0.12500000000E+03 0.  0.
    3000001    1    3    3    0    0  0.23904607424E+01  0.17248826409E+01 -0.72718304542E-01  0.31136490871E+01  0.10000000000E+01 0. -1.
    1000022    2    1    0    0    0  0.34862141854E+02  0.36733129438E+02  0.35235756311E+02  0.62499996832E+02  0.99999674132E+01 0.  0.
    3000022    2    3    3    0    0  0.32471681112E+02  0.35008246797E+02  0.35308474615E+02  0.59386347745E+02  0.25000161886E+00 0.  0.
    1000022    2    1    0    0    0 -0.34862141854E+02 -0.36733129438E+02 -0.35235756311E+02  0.62500003168E+02  0.10000007012E+02 0.  0.
    3000022    2    5    5    0    0 -0.19959534071E+02 -0.27746880366E+02 -0.22790224685E+02  0.41081981584E+02  0.24999857857E+00 0.  0.
        -13    1    4    4    0    0  0.20325974387E+02  0.21829252742E+02  0.22078211876E+02  0.37109567158E+02  0.10500000000E+00 0. -1.
         13    1    4    4    0    0  0.12145706725E+02  0.13178994056E+02  0.13230262739E+02  0.22276780587E+02  0.10500000000E+00 0.  1.
    3000001    1    5    5    0    0 -0.14902607783E+02 -0.89862490718E+01 -0.12445531625E+02  0.21418021584E+02  0.10000000000E+01 0. -1.
        -13    1    6    6    0    0 -0.11313951535E+02 -0.15826883853E+02 -0.12934285051E+02  0.23362416540E+02  0.10500000000E+00 0.  1.
         13    1    6    6    0    0 -0.86455825358E+01 -0.11919996514E+02 -0.98559396343E+01  0.17719565044E+02  0.10500000000E+00 0. -1.
</event>
<event>
11    0  0.3510903E-009  0.9118800E+02  0.7816531E-02  0.1126479E+00
         25   -1    0    0    0    0  0.00000000000E+00  0.00000000000E+00  0.99999998245E-14  0.12500000000E+03  0.12500000000E+03 0.  0.
    3000001    1    3    3    0    0 -0.20537426869E+02  0.10425396465E+02  0.18703229367E+02  0.29686454531E+02  0.10000000000E+01 0. -1.
    1000022    2    1    0    0    0 -0.35209240877E+02  0.21331229464E+02  0.45951475705E+02  0.62499999690E+02  0.99999924108E+01 0.  0.
    3000022    2    3    3    0    0 -0.14671814008E+02  0.10905832999E+02  0.27248246338E+02  0.32813545160E+02  0.24999549043E+00 0.  0.
    1000022    2    1    0    0    0  0.35209240877E+02 -0.21331229464E+02 -0.45951475705E+02  0.62500000310E+02  0.99999962827E+01 0.  0.
    3000022    2    5    5    0    0  0.16735115167E+02 -0.15791651839E+02 -0.23620046335E+02  0.32975891878E+02  0.25001756249E+00 0.  0.
        -13    1    4    4    0    0 -0.35397882998E+01  0.26263415880E+01  0.66067627871E+01  0.79428024569E+01  0.10500000000E+00 0.  1.
         13    1    4    4    0    0 -0.11132025708E+02  0.82794914112E+01  0.20641483551E+02  0.24870742703E+02  0.10500000000E+00 0. -1.
    3000001    1    5    5    0    0  0.18474125710E+02 -0.55395776249E+01 -0.22331429370E+02  0.29524108432E+02  0.10000000000E+01 0.  1.
        -13    1    6    6    0    0  0.10968366110E+02 -0.10352480566E+02 -0.15561761427E+02  0.21671602449E+02  0.10500000000E+00 0. -1.
         13    1    6    6    0    0  0.57667490570E+01 -0.54391712729E+01 -0.80582849082E+01  0.11304289429E+02  0.10500000000E+00 0.  1.
</event>
<event>
11    0  0.3510903E-009  0.9118800E+02  0.7816531E-02  0.1126479E+00
         25   -1    0    0    0    0  0.00000000000E+00  0.00000000000E+00  0.99999998245E-14  0.12500000000E+03  0.12500000000E+03 0.  0.
    3000001    1    3    3    0    0  0.16779977036E+01 -0.14700748320E+02  0.52989761633E+01  0.15748232467E+02  0.10000000000E+01 0.  1.
    1000022    2    1    0    0    0 -0.16432012761E+01 -0.61314447712E+02  0.66399131070E+01  0.62500001920E+02  0.10000009261E+02 0.  0.
    3000022    2    3    3    0    0 -0.33211989797E+01 -0.46613699393E+02  0.13409369437E+01  0.46751769453E+02  0.25000272842E+00 0.  0.
    1000022    2    1    0    0    0  0.16432012761E+01  0.61314447712E+02 -0.66399131070E+01  0.62499998080E+02  0.99999852637E+01 0.  0.
    3000022    2    5    5    0    0  0.57226733049E+01  0.35333562769E+02 -0.28163704543E+01  0.35905488254E+02  0.24999307476E+00 0.  0.
        -13    1    4    4    0    0 -0.23548498044E+01 -0.33481083621E+02  0.98933838216E+00  0.33578536202E+02  0.10500000000E+00 0.  1.
         13    1    4    4    0    0 -0.96634917534E+00 -0.13132615771E+02  0.35159856152E+00  0.13173233251E+02  0.10500000000E+00 0. -1.
    3000001    1    5    5    0    0 -0.40794720287E+01  0.25980884943E+02 -0.38235426527E+01  0.26594509826E+02  0.10000000000E+01 0. -1.
        -13    1    6    6    0    0  0.38567291519E+01  0.23870890338E+02 -0.19535760496E+01  0.24259456912E+02  0.10500000000E+00 0.  1.
         13    1    6    6    0    0  0.18659441529E+01  0.11462672431E+02 -0.86279440470E+00  0.11646031342E+02  0.10500000000E+00 0. -1.
</event>
<event>
11    0  0.3510903E-009  0.9118800E+02  0.7816531E-02  0.1126479E+00
         25   -1    0    0    0    0  0.00000000000E+00  0.00000000000E+00  0.99999998245E-14  0.12500000000E+03  0.12500000000E+03 0.  0.
    3000001    1    3    3    0    0  0.20242384952E+02  0.21211966401E+02  0.19526080163E+02  0.35241587275E+02  0.10000000000E+01 0.  1.
    1000022    2    1    0    0    0  0.40868345189E+02  0.37152295339E+02  0.27490640397E+02  0.62499999873E+02  0.99999993608E+01 0.  0.
    3000022    2    3    3    0    0  0.20625960237E+02  0.15940328938E+02  0.79645602336E+01  0.27258412598E+02  0.25003052444E+00 0.  0.
    1000022    2    1    0    0    0 -0.40868345189E+02 -0.37152295339E+02 -0.27490640397E+02  0.62500000127E+02  0.10000000952E+02 0.  0.
    3000022    2    5    5    0    0 -0.82674196208E+01 -0.53391491732E+01 -0.12553748734E+01  0.99244756509E+01  0.25001958722E+00 0.  0.
        -13    1    4    4    0    0  0.85303127630E+01  0.65115030657E+01  0.32824755864E+01  0.11222815110E+02  0.10500000000E+00 0. -1.
         13    1    4    4    0    0  0.12095647474E+02  0.94288258723E+01  0.46820846472E+01  0.16035597488E+02  0.10500000000E+00 0.  1.
    3000001    1    5    5    0    0 -0.32600925569E+02 -0.31813146165E+02 -0.26235265524E+02  0.52575524476E+02  0.10000000000E+01 0. -1.
        -13    1    6    6    0    0 -0.51939996884E+01 -0.32910531330E+01 -0.75559313351E+00  0.61960156125E+01  0.10500000000E+00 0.  1.
         13    1    6    6    0    0 -0.30734199324E+01 -0.20480960402E+01 -0.49978173985E+00  0.37284600384E+01  0.10500000000E+00 0. -1.
</event>
<event>
11    0  0.3510903E-009  0.9118800E+02  0.7816531E-02  0.1126479E+00
         25   -1    0    0    0    0  0.00000000000E+00  0.00000000000E+00  0.99999998245E-14  0.12500000000E+03  0.12500000000E+03 0.  0.
    3000001    1    3    3    0    0  0.56581408723E+00 -0.81474369472E+01  0.84978265622E+01  0.11828521914E+02  0.10000000000E+01 0. -1.
    1000022    2    1    0    0    0  0.17771968200E+01 -0.26184978406E+02  0.55834027794E+02  0.62500001006E+02  0.99999971703E+01 0.  0.
    3000022    2    3    3    0    0  0.12113827328E+01 -0.18037541459E+02  0.47336201232E+02  0.50671479092E+02  0.24999264294E+00 0.  0.
    1000022    2    1    0    0    0 -0.17771968200E+01  0.26184978406E+02 -0.55834027794E+02  0.62499998994E+02  0.99999845970E+01 0.  0.
    3000022    2    5    5    0    0 -0.25551166141E+01  0.91603260520E+01 -0.30512154463E+02  0.31960823891E+02  0.24999911200E+00 0.  0.
        -13    1    4    4    0    0  0.51561347014E+00 -0.76845962310E+01  0.20350251476E+02  0.21759196599E+02  0.10500000000E+00 0. -1.
         13    1    4    4    0    0  0.69576926265E+00 -0.10352945228E+02  0.26985949755E+02  0.28912282493E+02  0.10500000000E+00 0.  1.
    3000001    1    5    5    0    0  0.77791979405E+00  0.17024652354E+02 -0.25321873331E+02  0.30539175103E+02  0.10000000000E+01 0.  1.
        -13    1    6    6    0    0 -0.18904889416E+01  0.66561864083E+01 -0.22253804066E+02  0.23304969135E+02  0.10500000000E+00 0. -1.
         13    1    6    6    0    0 -0.66462767241E+00  0.25041396437E+01 -0.82583503961E+01  0.86558547563E+01  0.10500000000E+00 0.  1.
</event>
<event>
11    0  0.3510903E-009  0.9118800E+02  0.7816531E-02  0.1126479E+00
         25   -1    0    0    0    0  0.00000000000E+00  0.00000000000E+00  0.99999998245E-14  0.12500000000E+03  0.12500000000E+03 0.  0.
    3000001    1    3    3    0    0 -0.14607310177E+02  0.11239397295E+02  0.31387655511E+02  0.36412669232E+02  0.10000000000E+01 0. -1.
    1000022    2    1    0    0    0 -0.28959869205E+02  0.24552289026E+02  0.48628809059E+02  0.62500001379E+02  0.10000009051E+02 0.  0.
    3000022    2    3    3    0    0 -0.14352559029E+02  0.13312891732E+02  0.17241153548E+02  0.26087332147E+02  0.24997183406E+00 0.  0.
    1000022    2    1    0    0    0  0.28959869205E+02 -0.24552289026E+02 -0.48628809059E+02  0.62499998621E+02  0.99999918167E+01 0.  0.
    3000022    2    5    5    0    0  0.16694851408E+02 -0.91661288521E+01 -0.18881592215E+02  0.26820011284E+02  0.24999797384E+00 0.  0.
        -13    1    4    4    0    0 -0.63424527708E+01  0.58186360624E+01  0.76421961160E+01  0.11510752332E+02  0.10500000000E+00 0. -1.
         13    1    4    4    0    0 -0.80101062581E+01  0.74942556694E+01  0.95989574323E+01  0.14576579815E+02  0.10500000000E+00 0.  1.
    3000001    1    5    5    0    0  0.12265017797E+02 -0.15386160174E+02 -0.29747216844E+02  0.35679987338E+02  0.10000000000E+01 0. -1.
        -13    1    6    6    0    0  0.78991566333E+01 -0.44128073015E+01 -0.89866923210E+01  0.12753086202E+02  0.10500000000E+00 0. -1.
         13    1    6    6    0    0  0.87956947750E+01 -0.47533215506E+01 -0.98948998942E+01  0.14066925082E+02  0.10500000000E+00 0.  1.
</event>
<event>
11    0  0.3510903E-009  0.9118800E+02  0.7816531E-02  0.1126479E+00
         25   -1    0    0    0    0  0.00000000000E+00  0.00000000000E+00  0.99999998245E-14  0.12500000000E+03  0.12500000000E+03 0.  0.
    3000001    1    3    3    0    0 -0.15027800589E+02  0.16417463081E+02 -0.47804657703E+00  0.22284443298E+02  0.10000000000E+01 0. -1.
    1000022    2    1    0    0    0 -0.47089785010E+02  0.38909164597E+02  0.86532912402E+01  0.62500003841E+02  0.10000004447E+02 0.  0.
    3000022    2    3    3    0    0 -0.32061984421E+02  0.22491701516E+02  0.91313378172E+01  0.40215560544E+02  0.24999478899E+00 0.  0.
    1000022    2    1    0    0    0  0.47089785010E+02 -0.38909164597E+02 -0.86532912402E+01  0.62499996159E+02  0.99999564302E+01 0.  0.
    3000022    2    5    5    0    0  0.45359300825E+02 -0.35989098375E+02 -0.62870981210E+01  0.58243209562E+02  0.24996815722E+00 0.  0.
        -13    1    4    4    0    0 -0.15601465604E+02  0.10910291147E+02  0.45020675566E+01  0.19563226196E+02  0.10500000000E+00 0. -1.
         13    1    4    4    0    0 -0.16460518817E+02  0.11581410369E+02  0.46292702606E+01  0.20652334348E+02  0.10500000000E+00 0.  1.
    3000001    1    5    5    0    0  0.17304841854E+01 -0.29200662217E+01 -0.23661931192E+01  0.42567865970E+01  0.10000000000E+01 0. -1.
        -13    1    6    6    0    0  0.16736234570E+02 -0.13240193734E+02 -0.23684120210E+01  0.21471485235E+02  0.10500000000E+00 0. -1.
         13    1    6    6    0    0  0.28623066254E+02 -0.22748904641E+02 -0.39186860999E+01  0.36771724326E+02  0.10500000000E+00 0.  1.
</event>
<event>
11    0  0.3510903E-009  0.9118800E+02  0.7816531E-02  0.1126479E+00
         25   -1    0    0    0    0  0.00000000000E+00  0.00000000000E+00  0.99999998245E-14  0.12500000000E+03  0.12500000000E+03 0.  0.
    3000001    1    3    3    0    0 -0.30641837499E+02 -0.19821101041E+02 -0.76802194208E+01  0.37306621693E+02  0.10000000000E+01 0. -1.
    1000022    2    1    0    0    0 -0.47429152823E+02 -0.34032238436E+02 -0.19963277009E+02  0.62500001461E+02  0.99999981623E+01 0.  0.
    3000022    2    3    3    0    0 -0.16787315324E+02 -0.14211137396E+02 -0.12283057588E+02  0.25193379768E+02  0.24999717308E+00 0.  0.
    1000022    2    1    0    0    0  0.47429152823E+02  0.34032238436E+02  0.19963277009E+02  0.62499998539E+02  0.99999798976E+01 0.  0.
    3000022    2    5    5    0    0  0.46258749161E+02  0.33111608917E+02  0.17631701107E+02  0.59558289914E+02  0.24998930190E+00 0.  0.
        -13    1    4    4    0    0 -0.99939733571E+01 -0.85196625236E+01 -0.73844051069E+01  0.15066672385E+02  0.10500000000E+00 0. -1.
         13    1    4    4    0    0 -0.67933419667E+01 -0.56914748719E+01 -0.48986524809E+01  0.10126707383E+02  0.10500000000E+00 0.  1.
    3000001    1    5    5    0    0  0.11704036621E+01  0.92062951964E+00  0.23315759018E+01  0.29417086244E+01  0.10000000000E+01 0. -1.
        -13    1    6    6    0    0  0.19861133746E+02  0.14137126026E+02  0.75674030415E+01  0.25526448632E+02  0.10500000000E+00 0.  1.
         13    1    6    6    0    0  0.26397615414E+02  0.18974482891E+02  0.10064298065E+02  0.34031841283E+02  0.10500000000E+00 0. -1.
</event>
<event>
11    0  0.3510903E-009  0.9118800E+02  0.7816531E-02  0.1126479E+00
         25   -1    0    0    0    0  0.00000000000E+00  0.00000000000E+00  0.99999998245E-14  0.12500000000E+03  0.12500000000E+03 0.  0.
    3000001    1    3    3    0    0  0.28197881949E+01 -0.13509016777E+01 -0.28374914508E+01  0.43390665517E+01  0.10000000000E+01 0. -1.
    1000022    2    1    0    0    0  0.11164410819E+02 -0.32611918836E+02 -0.51167061932E+02  0.62499996752E+02  0.10000002407E+02 0.  0.
    3000022    2    3    3    0    0  0.83446226242E+01 -0.31261017158E+02 -0.48329570482E+02  0.58160930201E+02  0.24999670157E+00 0.  0.
    1000022    2    1    0    0    0 -0.11164410819E+02  0.32611918836E+02  0.51167061932E+02  0.62500003248E+02  0.10000043003E+02 0.  0.
    3000022    2    5    5    0    0 -0.11682041838E+02  0.32631652680E+02  0.50266593377E+02  0.61058068813E+02  0.24999847581E+00 0.  0.
        -13    1    4    4    0    0  0.31930913643E+01 -0.12159764459E+02 -0.18841915386E+02  0.22651368712E+02  0.10500000000E+00 0. -1.
         13    1    4    4    0    0  0.51515312599E+01 -0.19101252700E+02 -0.29487655096E+02  0.35509561488E+02  0.10500000000E+00 0.  1.
    3000001    1    5    5    0    0  0.51763101845E+00 -0.19733844430E-01  0.90046855503E+00  0.14419344349E+01  0.10000000000E+01 0. -1.
        -13    1    6    6    0    0 -0.80731017460E+01  0.22497793675E+02  0.34744367269E+02  0.42172357937E+02  0.10500000000E+00 0.  1.
         13    1    6    6    0    0 -0.36089400915E+01  0.10133859005E+02  0.15522226108E+02  0.18885710876E+02  0.10500000000E+00 0. -1.
</event>
<event>
11    0  0.3510903E-009  0.9118800E+02  0.7816531E-02  0.1126479E+00
         25   -1    0    0    0    0  0.00000000000E+00  0.00000000000E+00  0.99999998245E-14  0.12500000000E+03  0.12500000000E+03 0.  0.
    3000001    1    3    3    0    0  0.15581945704E+02  0.46577413596E+01  0.36278828051E+02  0.39769900066E+02  0.10000000000E+01 0.  1.
    1000022    2    1    0    0    0  0.29402198493E+02  0.11344876216E+02  0.53038236458E+02  0.62499999731E+02  0.99999973619E+01 0.  0.
    3000022    2    3    3    0    0  0.13820252789E+02  0.66871348563E+01  0.16759408407E+02  0.22730099665E+02  0.25000179968E+00 0.  0.
    1000022    2    1    0    0    0 -0.29402198493E+02 -0.11344876216E+02 -0.53038236458E+02  0.62500000269E+02  0.10000000726E+02 0.  0.
    3000022    2    5    5    0    0 -0.81634303353E+01 -0.57081983730E+01 -0.97364912577E+01  0.13931506908E+02  0.24999844865E+00 0.  0.
        -13    1    4    4    0    0  0.43563657725E+01  0.20949157476E+01  0.53488147225E+01  0.72102315267E+01  0.10500000000E+00 0.  1.
         13    1    4    4    0    0  0.94638870167E+01  0.45922191087E+01  0.11410593684E+02  0.15519868139E+02  0.10500000000E+00 0. -1.
    3000001    1    5    5    0    0 -0.21238768158E+02 -0.56366778429E+01 -0.43301745200E+02  0.48568493361E+02  0.10000000000E+01 0.  1.
        -13    1    6    6    0    0 -0.30343781952E+01 -0.21312442546E+01 -0.35422353832E+01  0.51291431657E+01  0.10500000000E+00 0. -1.
         13    1    6    6    0    0 -0.51290521400E+01 -0.35769541184E+01 -0.61942558745E+01  0.88023637427E+01  0.10500000000E+00 0.  1.
</event>
<event>
11    0  0.3510903E-009  0.9118800E+02  0.7816531E-02  0.1126479E+00
         25   -1    0    0    0    0  0.00000000000E+00  0.00000000000E+00  0.99999998245E-14  0.12500000000E+03  0.12500000000E+03 0.  0.
    3000001    1    3    3    0    0 -0.34217146134E+02 -0.28944180200E+02 -0.36564791201E+02  0.57849482388E+02  0.10000000000E+01 0. -1.
    1000022    2    1    0    0    0 -0.35055504723E+02 -0.29895185690E+02 -0.41032178092E+02  0.62499998813E+02  0.99999836928E+01 0.  0.
    3000022    2    3    3    0    0 -0.83835858896E+00 -0.95100549036E+00 -0.44673868910E+01  0.46505164252E+01  0.25000164238E+00 0.  0.
    1000022    2    1    0    0    0  0.35055504723E+02  0.29895185690E+02  0.41032178092E+02  0.62500001187E+02  0.99999985323E+01 0.  0.
    3000022    2    5    5    0    0  0.29649159153E+02  0.22015387474E+02  0.28181137478E+02  0.46454159445E+02  0.24999223961E+00 0.  0.
        -13    1    4    4    0    0 -0.40952352425E+00 -0.56554220516E+00 -0.24407267924E+01  0.25408108504E+01  0.10500000000E+00 0.  1.
         13    1    4    4    0    0 -0.42883506472E+00 -0.38546328519E+00 -0.20266600986E+01  0.21097055748E+01  0.10500000000E+00 0. -1.
    3000001    1    5    5    0    0  0.54063455697E+01  0.78797982158E+01  0.12851040614E+02  0.16045841742E+02  0.10000000000E+01 0.  1.
        -13    1    6    6    0    0  0.19147701759E+02  0.14172214205E+02  0.18234255152E+02  0.29999753734E+02  0.10500000000E+00 0.  1.
         13    1    6    6    0    0  0.10501457394E+02  0.78431732687E+01  0.99468823254E+01  0.16454405711E+02  0.10500000000E+00 0. -1.
</event>
<event>
11    0  0.3510903E-009  0.9118800E+02  0.7816531E-02  0.1126479E+00
         25   -1    0    0    0    0  0.00000000000E+00  0.00000000000E+00  0.99999998245E-14  0.12500000000E+03  0.12500000000E+03 0.  0.
    3000001    1    3    3    0    0  0.26106376305E+02  0.10639584001E+02  0.21067073908E+02  0.35207459928E+02  0.10000000000E+01 0.  1.
    1000022    2    1    0    0    0  0.42788587900E+02  0.26638377589E+02  0.35577852103E+02  0.62500000483E+02  0.10000004252E+02 0.  0.
    3000022    2    3    3    0    0  0.16682211594E+02  0.15998793588E+02  0.14510778194E+02  0.27292540555E+02  0.25001232073E+00 0.  0.
    1000022    2    1    0    0    0 -0.42788587900E+02 -0.26638377589E+02 -0.35577852103E+02  0.62499999517E+02  0.99999982196E+01 0.  0.
    3000022    2    5    5    0    0 -0.29893599792E+02 -0.23613955120E+02 -0.26823297370E+02  0.46591823062E+02  0.25001899557E+00 0.  0.
        -13    1    4    4    0    0  0.93194916989E+01  0.89957001202E+01  0.80710720704E+01  0.15262004309E+02  0.10500000000E+00 0. -1.
         13    1    4    4    0    0  0.73627198956E+01  0.70030934683E+01  0.64397061237E+01  0.12030536245E+02  0.10500000000E+00 0.  1.
    3000001    1    5    5    0    0 -0.12894988107E+02 -0.30244224691E+01 -0.87545547324E+01  0.15908176455E+02  0.10000000000E+01 0. -1.
        -13    1    6    6    0    0 -0.16562528150E+02 -0.13015453822E+02 -0.14880573131E+02  0.25790732029E+02  0.10500000000E+00 0.  1.
         13    1    6    6    0    0 -0.13331071642E+02 -0.10598501299E+02 -0.11942724239E+02  0.20801091033E+02  0.10500000000E+00 0. -1.
</event>
<event>
11    0  0.3510903E-009  0.9118800E+02  0.7816531E-02  0.1126479E+00
         25   -1    0    0    0    0  0.00000000000E+00  0.00000000000E+00  0.99999998245E-14  0.12500000000E+03  0.12500000000E+03 0.  0.
    3000001    1    3    3    0    0 -0.33905499252E+02  0.36546497096E+02 -0.31967149710E+01  0.49964470537E+02  0.10000000000E+01 0.  1.
    1000022    2    1    0    0    0 -0.39146841301E+02  0.47093370169E+02 -0.74825975951E+01  0.62499999628E+02  0.99999994499E+01 0.  0.
    3000022    2    3    3    0    0 -0.52413420489E+01  0.10546873073E+02 -0.42858826241E+01  0.12535529090E+02  0.25000321647E+00 0.  0.
    1000022    2    1    0    0    0  0.39146841301E+02 -0.47093370169E+02  0.74825975951E+01  0.62500000372E+02  0.10000004102E+02 0.  0.
    3000022    2    5    5    0    0 -0.35410354329E+00 -0.68835881478E+00  0.87405426794E+00  0.11940254001E+01  0.24999723084E+00 0.  0.
        -13    1    4    4    0    0 -0.15834045556E+01  0.31093773876E+01 -0.12393108048E+01  0.37043641824E+01  0.10500000000E+00 0. -1.
         13    1    4    4    0    0 -0.36579374934E+01  0.74374956857E+01 -0.30465718194E+01  0.88311649079E+01  0.10500000000E+00 0.  1.
    3000001    1    5    5    0    0  0.39500944844E+02 -0.46405011355E+02  0.66085433272E+01  0.61305974972E+02  0.10000000000E+01 0.  1.
        -13    1    6    6    0    0 -0.24730951944E+00 -0.48613206399E+00  0.66819045643E+00  0.86890152958E+00  0.10500000000E+00 0.  1.
         13    1    6    6    0    0 -0.10679402385E+00 -0.20222675079E+00  0.20586381151E+00  0.32512387048E+00  0.10500000000E+00 0. -1.
</event>
<event>
11    0  0.3510903E-009  0.9118800E+02  0.7816531E-02  0.1126479E+00
         25   -1    0    0    0    0  0.00000000000E+00  0.00000000000E+00  0.99999998245E-14  0.12500000000E+03  0.12500000000E+03 0.  0.
    3000001    1    3    3    0    0 -0.70987574777E+01  0.29303103274E+01  0.22230169741E+02  0.23540593090E+02  0.10000000000E+01 0. -1.
    1000022    2    1    0    0    0 -0.30085334536E+02  0.55453233979E+01  0.53575853076E+02  0.62499999950E+02  0.99999997588E+01 0.  0.
    3000022    2    3    3    0    0 -0.22986577058E+02  0.26150130705E+01  0.31345683336E+02  0.38959406860E+02  0.25000176250E+00 0.  0.
    1000022    2    1    0    0    0  0.30085334536E+02 -0.55453233979E+01 -0.53575853076E+02  0.62500000050E+02  0.10000000384E+02 0.  0.
    3000022    2    5    5    0    0  0.21416563160E+01  0.21122379567E+01 -0.72130971519E+01  0.78191758494E+01  0.24999896120E+00 0.  0.
        -13    1    4    4    0    0 -0.93851239966E+01  0.11211571542E+01  0.12746936862E+02  0.15869246049E+02  0.10500000000E+00 0. -1.
         13    1    4    4    0    0 -0.13601453061E+02  0.14938559163E+01  0.18598746474E+02  0.23090160811E+02  0.10500000000E+00 0.  1.
    3000001    1    5    5    0    0  0.27943678220E+02 -0.76575613546E+01 -0.46362755925E+02  0.54680824201E+02  0.10000000000E+01 0.  1.
        -13    1    6    6    0    0  0.88990956717E+00  0.96386595027E+00 -0.32077870208E+01  0.34672610485E+01  0.10500000000E+00 0.  1.
         13    1    6    6    0    0  0.12517467489E+01  0.11483720064E+01 -0.40053101311E+01  0.43519148009E+01  0.10500000000E+00 0. -1.
</event>
<event>
11    0  0.3510903E-009  0.9118800E+02  0.7816531E-02  0.1126479E+00
         25   -1    0    0    0    0  0.00000000000E+00  0.00000000000E+00  0.99999998245E-14  0.12500000000E+03  0.12500000000E+03 0.  0.
    3000001    1    3    3    0    0  0.17563860275E+02  0.44490692026E+02  0.16636285854E+02  0.50652511011E+02  0.10000000000E+01 0. -1.
    1000022    2    1    0    0    0  0.16976613539E+02  0.55796934641E+02  0.20118316573E+02  0.62500000864E+02  0.10000006187E+02 0.  0.
    3000022    2    3    3    0    0 -0.58724673642E+00  0.11306242615E+02  0.34820307187E+01  0.11847489853E+02  0.24999419286E+00 0.  0.
    1000022    2    1    0    0    0 -0.16976613539E+02 -0.55796934641E+02 -0.20118316573E+02  0.62499999136E+02  0.99999953851E+01 0.  0.
    3000022    2    5    5    0    0  0.11967832454E-01 -0.74683985984E+00 -0.19179093155E+01  0.20733522263E+01  0.25000061289E+00 0.  0.
        -13    1    4    4    0    0 -0.22645438530E+00  0.55788232976E+01  0.16915304725E+01  0.58349679788E+01  0.10500000000E+00 0. -1.
         13    1    4    4    0    0 -0.36079235112E+00  0.57274193171E+01  0.17905002462E+01  0.60125218741E+01  0.10500000000E+00 0.  1.
    3000001    1    5    5    0    0 -0.16988581371E+02 -0.55050094781E+02 -0.18200407257E+02  0.60426646910E+02  0.10000000000E+01 0. -1.
        -13    1    6    6    0    0  0.60237453320E-01 -0.26356363373E+00 -0.66431865507E+00  0.72487144741E+00  0.10500000000E+00 0. -1.
         13    1    6    6    0    0 -0.48269620866E-01 -0.48327622611E+00 -0.12535906605E+01  0.13484807789E+01  0.10500000000E+00 0.  1.
</event>
<event>
11    0  0.3510903E-009  0.9118800E+02  0.7816531E-02  0.1126479E+00
         25   -1    0    0    0    0  0.00000000000E+00  0.00000000000E+00  0.99999998245E-14  0.12500000000E+03  0.12500000000E+03 0.  0.
    3000001    1    3    3    0    0 -0.16611038196E+02 -0.37093369057E+02  0.40510356300E+02  0.57392800816E+02  0.10000000000E+01 0. -1.
    1000022    2    1    0    0    0 -0.17053694938E+02 -0.38003391730E+02  0.45510045084E+02  0.62499998698E+02  0.99999669820E+01 0.  0.
    3000022    2    3    3    0    0 -0.44265674184E+00 -0.91002267292E+00  0.49996887841E+01  0.51071978817E+01  0.24999201731E+00 0.  0.
    1000022    2    1    0    0    0  0.17053694938E+02  0.38003391730E+02 -0.45510045084E+02  0.62500001302E+02  0.99999832580E+01 0.  0.
    3000022    2    5    5    0    0  0.53977970360E+01  0.36148254116E+01 -0.74641716550E+01  0.98984620248E+01  0.25003272372E+00 0.  0.
        -13    1    4    4    0    0 -0.12921711965E+00 -0.40280040396E+00  0.22097608326E+01  0.22523350476E+01  0.10500000000E+00 0. -1.
         13    1    4    4    0    0 -0.31343962219E+00 -0.50722226896E+00  0.27899279515E+01  0.28548628341E+01  0.10500000000E+00 0.  1.
    3000001    1    5    5    0    0  0.11655897902E+02  0.34388566319E+02 -0.38045873429E+02  0.52601539277E+02  0.10000000000E+01 0. -1.
        -13    1    6    6    0    0  0.23162021474E+01  0.14820062239E+01 -0.31129291237E+01  0.41548149856E+01  0.10500000000E+00 0. -1.
         13    1    6    6    0    0  0.30815948886E+01  0.21328191877E+01 -0.43512425313E+01  0.57436470392E+01  0.10500000000E+00 0.  1.
</event>
<event>
11    0  0.3510903E-009  0.9118800E+02  0.7816531E-02  0.1126479E+00
         25   -1    0    0    0    0  0.00000000000E+00  0.00000000000E+00  0.99999998245E-14  0.12500000000E+03  0.12500000000E+03 0.  0.
    3000001    1    3    3    0    0 -0.36507155697E+02  0.11823710286E+01 -0.19277226921E+02  0.41313216966E+02  0.10000000000E+01 0.  1.
    1000022    2    1    0    0    0 -0.56614535502E+02 -0.32016307103E+01 -0.24306253169E+02  0.62500000540E+02  0.10000002751E+02 0.  0.
    3000022    2    3    3    0    0 -0.20107379805E+02 -0.43840017388E+01 -0.50290262482E+01  0.21186783574E+02  0.24999861845E+00 0.  0.
    1000022    2    1    0    0    0  0.56614535502E+02  0.32016307103E+01  0.24306253169E+02  0.62499999460E+02  0.99999960028E+01 0.  0.
    3000022    2    5    5    0    0  0.47797551681E+02  0.30195239615E+00  0.17321300373E+02  0.50840801220E+02  0.25000033130E+00 0.  0.
        -13    1    4    4    0    0 -0.15268235058E+02 -0.33286322941E+01 -0.37979937997E+01  0.16082119781E+02  0.10500000000E+00 0.  1.
         13    1    4    4    0    0 -0.48391447472E+01 -0.10553694447E+01 -0.12310324485E+01  0.51046637929E+01  0.10500000000E+00 0. -1.
    3000001    1    5    5    0    0  0.88169838210E+01  0.28996783141E+01  0.69849527963E+01  0.11659198240E+02  0.10000000000E+01 0.  1.
        -13    1    6    6    0    0  0.33323032236E+02  0.16692810536E+00  0.12093211698E+02  0.35450093605E+02  0.10500000000E+00 0. -1.
         13    1    6    6    0    0  0.14474519445E+02  0.13502429079E+00  0.52280886754E+01  0.15390707616E+02  0.10500000000E+00 0.  1.
</event>
<event>
11    0  0.3510903E-009  0.9118800E+02  0.7816531E-02  0.1126479E+00
         25   -1    0    0    0    0  0.00000000000E+00  0.00000000000E+00  0.99999998245E-14  0.12500000000E+03  0.12500000000E+03 0.  0.
    3000001    1    3    3    0    0  0.26332060670E+02 -0.30995422008E+02  0.16815316939E+01  0.40717577942E+02  0.10000000000E+01 0.  1.
    1000022    2    1    0    0    0  0.45075133241E+02 -0.42026205444E+02  0.28775999121E+01  0.62500003742E+02  0.10000015287E+02 0.  0.
    3000022    2    3    3    0    0  0.18743072570E+02 -0.11030783436E+02  0.11960682181E+01  0.21782425800E+02  0.25008389225E+00 0.  0.
    1000022    2    1    0    0    0 -0.45075133241E+02  0.42026205444E+02 -0.28775999121E+01  0.62499996258E+02  0.99999685169E+01 0.  0.
    3000022    2    5    5    0    0 -0.13893283829E+02  0.14724700532E+02  0.35278080764E+01  0.20551108851E+02  0.25000775972E+00 0.  0.
        -13    1    4    4    0    0  0.97220277686E+01 -0.56560145073E+01  0.58121594822E+00  0.11263088432E+02  0.10500000000E+00 0.  1.
         13    1    4    4    0    0  0.90210448017E+01 -0.53747689292E+01  0.61485226992E+00  0.10519337368E+02  0.10500000000E+00 0. -1.
    3000001    1    5    5    0    0 -0.31181849412E+02  0.27301504913E+02 -0.64054079884E+01  0.41948887407E+02  0.10000000000E+01 0.  1.
        -13    1    6    6    0    0 -0.92220902473E+01  0.98515580023E+01  0.23457153178E+01  0.13697209532E+02  0.10500000000E+00 0.  1.
         13    1    6    6    0    0 -0.46711935818E+01  0.48731425293E+01  0.11820927586E+01  0.68538993194E+01  0.10500000000E+00 0. -1.
</event>
<event>
11    0  0.3510903E-009  0.9118800E+02  0.7816531E-02  0.1126479E+00
         25   -1    0    0    0    0  0.00000000000E+00  0.00000000000E+00  0.99999998245E-14  0.12500000000E+03  0.12500000000E+03 0.  0.
    3000001    1    3    3    0    0  0.22007972065E+01  0.15725291695E+02 -0.59272361772E+02  0.61370523684E+02  0.10000000000E+01 0. -1.
    1000022    2    1    0    0    0  0.29457360805E+01  0.15071622871E+02 -0.59752983070E+02  0.62499998655E+02  0.99999834582E+01 0.  0.
    3000022    2    3    3    0    0  0.74493887400E+00 -0.65366882334E+00 -0.48062129788E+00  0.11294749715E+01  0.25000004534E+00 0.  0.
    1000022    2    1    0    0    0 -0.29457360805E+01 -0.15071622871E+02  0.59752983070E+02  0.62500001345E+02  0.10000000268E+02 0.  0.
    3000022    2    5    5    0    0  0.40700943187E+00 -0.43720964870E+01  0.52600794653E+01  0.68565173549E+01  0.25001977383E+00 0.  0.
        -13    1    4    4    0    0  0.30669275476E+00 -0.35855652027E+00 -0.23353878311E+00  0.53683199165E+00  0.10500000000E+00 0. -1.
         13    1    4    4    0    0  0.43824611925E+00 -0.29511230307E+00 -0.24708251476E+00  0.59264297985E+00  0.10500000000E+00 0. -1.
    3000001    1    5    5    0    0 -0.33527455123E+01 -0.10699526384E+02  0.54492903604E+02  0.55643483990E+02  0.10000000000E+01 0. -1.
        -13    1    6    6    0    0  0.22257820261E+00 -0.21734753492E+01  0.25162205229E+01  0.33340556188E+01  0.10500000000E+00 0.  1.
         13    1    6    6    0    0  0.18443122926E+00 -0.21986211378E+01  0.27438589424E+01  0.35224617360E+01  0.10500000000E+00 0. -1.
</event>
<event>
11    0  0.3510903E-009  0.9118800E+02  0.7816531E-02  0.1126479E+00
         25   -1    0    0    0    0  0.00000000000E+00  0.00000000000E+00  0.99999998245E-14  0.12500000000E+03  0.12500000000E+03 0.  0.
    3000001    1    3    3    0    0 -0.25458897868E+02  0.27146531954E+02 -0.35702176172E+02  0.51582313453E+02  0.10000000000E+01 0.  1.
    1000022    2    1    0    0    0 -0.26938040614E+02  0.35220146813E+02 -0.42896774566E+02  0.62499999547E+02  0.99999950727E+01 0.  0.
    3000022    2    3    3    0    0 -0.14791427459E+01  0.80736148598E+01 -0.71945983942E+01  0.10917686093E+02  0.25000682438E+00 0.  0.
    1000022    2    1    0    0    0  0.26938040614E+02 -0.35220146813E+02  0.42896774566E+02  0.62500000453E+02  0.10000000741E+02 0.  0.
    3000022    2    5    5    0    0  0.17279163742E+02 -0.16652011036E+02  0.18246959482E+02  0.30147520605E+02  0.24999419895E+00 0.  0.
        -13    1    4    4    0    0 -0.68730032136E+00  0.33946181029E+01 -0.30237026634E+01  0.45988712303E+01  0.10500000000E+00 0. -1.
         13    1    4    4    0    0 -0.79184242456E+00  0.46789967569E+01 -0.41708957309E+01  0.63188148631E+01  0.10500000000E+00 0.  1.
    3000001    1    5    5    0    0  0.96588768717E+01 -0.18568135777E+02  0.24649815085E+02  0.32352479849E+02  0.10000000000E+01 0.  1.
        -13    1    6    6    0    0  0.72448086460E+01 -0.68993846322E+01  0.76390467135E+01  0.12587883869E+02  0.10500000000E+00 0. -1.
         13    1    6    6    0    0  0.10034355096E+02 -0.97526264040E+01  0.10607912768E+02  0.17559636735E+02  0.10500000000E+00 0.  1.
</event>
<event>
11    0  0.3510903E-009  0.9118800E+02  0.7816531E-02  0.1126479E+00
         25   -1    0    0    0    0  0.00000000000E+00  0.00000000000E+00  0.99999998245E-14  0.12500000000E+03  0.12500000000E+03 0.  0.
    3000001    1    3    3    0    0 -0.28317005563E+02 -0.55111259611E+01  0.41894918362E+02  0.50876413965E+02  0.10000000000E+01 0.  1.
    1000022    2    1    0    0    0 -0.37813158415E+02 -0.45996732796E+01  0.48531000793E+02  0.62500000395E+02  0.10000003388E+02 0.  0.
    3000022    2    3    3    0    0 -0.94961528525E+01  0.91145268154E+00  0.66360824311E+01  0.11623586430E+02  0.25001293531E+00 0.  0.
    1000022    2    1    0    0    0  0.37813158415E+02  0.45996732796E+01 -0.48531000793E+02  0.62499999605E+02  0.99999984531E+01 0.  0.
    3000022    2    5    5    0    0  0.36332737907E+02  0.54877546779E+01 -0.42684123873E+02  0.56322111360E+02  0.25000406838E+00 0.  0.
        -13    1    4    4    0    0 -0.51439121129E+01  0.46495173412E+00  0.36663916662E+01  0.63347821423E+01  0.10500000000E+00 0. -1.
         13    1    4    4    0    0 -0.43522407396E+01  0.44650094742E+00  0.29696907649E+01  0.52888042874E+01  0.10500000000E+00 0.  1.
    3000001    1    5    5    0    0  0.14804205083E+01 -0.88808139832E+00 -0.58468769199E+01  0.61778882450E+01  0.10000000000E+01 0. -1.
        -13    1    6    6    0    0  0.21061053918E+02  0.31912062367E+01 -0.24842553400E+02  0.32724841846E+02  0.10500000000E+00 0.  1.
         13    1    6    6    0    0  0.15271683989E+02  0.22965484412E+01 -0.17841570473E+02  0.23597269515E+02  0.10500000000E+00 0. -1.
</event>
<event>
11    0  0.3510903E-009  0.9118800E+02  0.7816531E-02  0.1126479E+00
         25   -1    0    0    0    0  0.00000000000E+00  0.00000000000E+00  0.99999998245E-14  0.12500000000E+03  0.12500000000E+03 0.  0.
    3000001    1    3    3    0    0 -0.14695034102E+02 -0.37108730977E+02 -0.30216292661E+02  0.50070213542E+02  0.10000000000E+01 0.  1.
    1000022    2    1    0    0    0 -0.16277976554E+02 -0.48839983851E+02 -0.33999023878E+02  0.62499998793E+02  0.99999840598E+01 0.  0.
    3000022    2    3    3    0    0 -0.15829424524E+01 -0.11731252873E+02 -0.37827312178E+01  0.12429785251E+02  0.25001025872E+00 0.  0.
    1000022    2    1    0    0    0  0.16277976554E+02  0.48839983851E+02  0.33999023878E+02  0.62500001207E+02  0.99999991489E+01 0.  0.
    3000022    2    5    5    0    0  0.10362924528E+02  0.42233413523E+02  0.27366317034E+02  0.51381214760E+02  0.24999932524E+00 0.  0.
        -13    1    4    4    0    0 -0.69265975573E+00 -0.53778969639E+01 -0.16713493698E+01  0.56750318949E+01  0.10500000000E+00 0. -1.
         13    1    4    4    0    0 -0.89028269666E+00 -0.63533559093E+01 -0.21113818480E+01  0.67547533559E+01  0.10500000000E+00 0.  1.
    3000001    1    5    5    0    0  0.59150520264E+01  0.66065703280E+01  0.66327068443E+01  0.11118786447E+02  0.10000000000E+01 0. -1.
        -13    1    6    6    0    0  0.44843009783E+01  0.18242865796E+02  0.11899265779E+02  0.22237685554E+02  0.10500000000E+00 0.  1.
         13    1    6    6    0    0  0.58786235494E+01  0.23990547726E+02  0.15467051255E+02  0.29143529206E+02  0.10500000000E+00 0. -1.
</event>
<event>
11    0  0.3510903E-009  0.9118800E+02  0.7816531E-02  0.1126479E+00
         25   -1    0    0    0    0  0.00000000000E+00  0.00000000000E+00  0.99999998245E-14  0.12500000000E+03  0.12500000000E+03 0.  0.
    3000001    1    3    3    0    0 -0.43881708767E+02  0.23841843179E+01 -0.91685049163E+01  0.44903788054E+02  0.10000000000E+01 0.  1.
    1000022    2    1    0    0    0 -0.60459598173E+02  0.82773299048E+01 -0.90759668512E+01  0.62499999225E+02  0.99999763607E+01 0.  0.
    3000022    2    3    3    0    0 -0.16577889406E+02  0.58931455869E+01  0.92538065032E-01  0.17596211171E+02  0.25000443059E+00 0.  0.
    1000022    2    1    0    0    0  0.60459598173E+02 -0.82773299048E+01  0.90759668512E+01  0.62500000775E+02  0.99999860495E+01 0.  0.
    3000022    2    5    5    0    0  0.23895088176E+02 -0.81781299646E+01  0.34529018124E+01  0.25492000392E+02  0.25000875483E+00 0.  0.
        -13    1    4    4    0    0 -0.10821619329E+02  0.38563281914E+01  0.11573458457E+00  0.11489261574E+02  0.10500000000E+00 0.  1.
         13    1    4    4    0    0 -0.57562700771E+01  0.20368173955E+01 -0.23196519537E-01  0.61069495971E+01  0.10500000000E+00 0. -1.
    3000001    1    5    5    0    0  0.36564509997E+02 -0.99199940173E-01  0.56230650389E+01  0.37008000383E+02  0.10000000000E+01 0. -1.
        -13    1    6    6    0    0  0.89813525732E+01 -0.30547621299E+01  0.13550658194E+01  0.95835011394E+01  0.10500000000E+00 0. -1.
         13    1    6    6    0    0  0.14913735603E+02 -0.51233678348E+01  0.20978359930E+01  0.15908499252E+02  0.10500000000E+00 0.  1.
</event>
<event>
11    0  0.3510903E-009  0.9118800E+02  0.7816531E-02  0.1126479E+00
         25   -1    0    0    0    0  0.00000000000E+00  0.00000000000E+00  0.99999998245E-14  0.12500000000E+03  0.12500000000E+03 0.  0.
    3000001    1    3    3    0    0  0.63685165334E+01  0.24675562708E+02 -0.91091928955E+01  0.27081705873E+02  0.10000000000E+01 0.  1.
    1000022    2    1    0    0    0  0.23280846267E+02  0.51126353745E+02 -0.25501926991E+02  0.62499998823E+02  0.99999861180E+01 0.  0.
    3000022    2    3    3    0    0  0.16912329733E+02  0.26450791037E+02 -0.16392734096E+02  0.35418292949E+02  0.25000160192E+00 0.  0.
    1000022    2    1    0    0    0 -0.23280846267E+02 -0.51126353745E+02  0.25501926991E+02  0.62500001177E+02  0.10000000837E+02 0.  0.
    3000022    2    5    5    0    0 -0.13097421100E+02 -0.17581522489E+02  0.11262713594E+02  0.24648805024E+02  0.24999813125E+00 0.  0.
        -13    1    4    4    0    0  0.38704493745E+01  0.60559425057E+01 -0.37556782994E+01  0.81099298691E+01  0.10500000000E+00 0. -1.
         13    1    4    4    0    0  0.13041880359E+02  0.20394848531E+02 -0.12637055796E+02  0.27308363080E+02  0.10500000000E+00 0.  1.
    3000001    1    5    5    0    0 -0.10183425166E+02 -0.33544831256E+02  0.14239213397E+02  0.37851196154E+02  0.10000000000E+01 0. -1.
        -13    1    6    6    0    0 -0.54442136874E+01 -0.73165951457E+01  0.47574674305E+01  0.10286717093E+02  0.10500000000E+00 0.  1.
         13    1    6    6    0    0 -0.76532074129E+01 -0.10264927344E+02  0.65052461637E+01  0.14362087931E+02  0.10500000000E+00 0. -1.
</event>
<event>
11    0  0.3510903E-009  0.9118800E+02  0.7816531E-02  0.1126479E+00
         25   -1    0    0    0    0  0.00000000000E+00  0.00000000000E+00  0.99999998245E-14  0.12500000000E+03  0.12500000000E+03 0.  0.
    3000001    1    3    3    0    0 -0.10015634973E+02 -0.27530484992E+02  0.15333527060E+02  0.33081076160E+02  0.10000000000E+01 0. -1.
    1000022    2    1    0    0    0 -0.25815582220E+02 -0.46286441100E+02  0.31581183181E+02  0.62499999531E+02  0.99999947590E+01 0.  0.
    3000022    2    3    3    0    0 -0.15799947247E+02 -0.18755956108E+02  0.16247656122E+02  0.29418923371E+02  0.25000065043E+00 0.  0.
    1000022    2    1    0    0    0  0.25815582220E+02  0.46286441100E+02 -0.31581183181E+02  0.62500000469E+02  0.10000000624E+02 0.  0.
    3000022    2    5    5    0    0  0.20709971415E+02  0.27543910705E+02 -0.21016567964E+02  0.40364942258E+02  0.25000325231E+00 0.  0.
        -13    1    4    4    0    0 -0.11567659955E+02 -0.13704172076E+02  0.11844258553E+02  0.21492151470E+02  0.10500000000E+00 0.  1.
         13    1    4    4    0    0 -0.42322872920E+01 -0.50517840312E+01  0.44033975685E+01  0.79267719007E+01  0.10500000000E+00 0. -1.
    3000001    1    5    5    0    0  0.51056108050E+01  0.18742530395E+02 -0.10564615217E+02  0.22135058211E+02  0.10000000000E+01 0.  1.
        -13    1    6    6    0    0  0.10666469903E+02  0.14093576787E+02 -0.10824416739E+02  0.20726348197E+02  0.10500000000E+00 0. -1.
         13    1    6    6    0    0  0.10043501511E+02  0.13450333918E+02 -0.10192151225E+02  0.19638594061E+02  0.10500000000E+00 0.  1.
</event>
<event>
11    0  0.3510903E-009  0.9118800E+02  0.7816531E-02  0.1126479E+00
         25   -1    0    0    0    0  0.00000000000E+00  0.00000000000E+00  0.99999998245E-14  0.12500000000E+03  0.12500000000E+03 0.  0.
    3000001    1    3    3    0    0 -0.11468319310E+02 -0.42686508704E+02 -0.33243865730E+02  0.55315594382E+02  0.10000000000E+01 0.  1.
    1000022    2    1    0    0    0 -0.11419862297E+02 -0.49717415900E+02 -0.34698926270E+02  0.62500001748E+02  0.10000001776E+02 0.  0.
    3000022    2    3    3    0    0  0.48457012372E-01 -0.70309071960E+01 -0.14550605397E+01  0.71844073659E+01  0.25000788845E+00 0.  0.
    1000022    2    1    0    0    0  0.11419862297E+02  0.49717415900E+02  0.34698926270E+02  0.62499998252E+02  0.99999799315E+01 0.  0.
    3000022    2    5    5    0    0  0.83766510402E+01  0.20035619187E+02  0.18529900972E+02  0.28548450866E+02  0.24999589931E+00 0.  0.
        -13    1    4    4    0    0 -0.36124290180E-01 -0.31039987891E+01 -0.67594360087E+00  0.31786849794E+01  0.10500000000E+00 0.  1.
         13    1    4    4    0    0  0.84581302552E-01 -0.39269084069E+01 -0.77911693887E+00  0.40057223865E+01  0.10500000000E+00 0. -1.
    3000001    1    5    5    0    0  0.30432112571E+01  0.29681796713E+02  0.16169025297E+02  0.33951547387E+02  0.10000000000E+01 0.  1.
        -13    1    6    6    0    0  0.32389183272E+01  0.78422629838E+01  0.71743020731E+01  0.11111854745E+02  0.10500000000E+00 0.  1.
         13    1    6    6    0    0  0.51377327129E+01  0.12193356203E+02  0.11355598899E+02  0.17436596121E+02  0.10500000000E+00 0. -1.
</event>
<event>
11    0  0.3510903E-009  0.9118800E+02  0.7816531E-02  0.1126479E+00
         25   -1    0    0    0    0  0.00000000000E+00  0.00000000000E+00  0.99999998245E-14  0.12500000000E+03  0.12500000000E+03 0.  0.
    3000001    1    3    3    0    0  0.43956078159E+02  0.18160555133E+02 -0.10886549472E+02  0.48800200094E+02  0.10000000000E+01 0. -1.
    1000022    2    1    0    0    0  0.53171494449E+02  0.27206880400E+02 -0.15454056877E+02  0.62500000158E+02  0.99999991348E+01 0.  0.
    3000022    2    3    3    0    0  0.92154162907E+01  0.90463252663E+01 -0.45675074055E+01  0.13699800063E+02  0.24999929055E+00 0.  0.
    1000022    2    1    0    0    0 -0.53171494449E+02 -0.27206880400E+02  0.15454056877E+02  0.62499999842E+02  0.99999971621E+01 0.  0.
    3000022    2    5    5    0    0 -0.45767332277E+02 -0.21655329790E+02  0.16202357801E+02  0.53161836965E+02  0.24999823876E+00 0.  0.
        -13    1    4    4    0    0  0.64220510224E+01  0.63101049975E+01 -0.32333447898E+01  0.95669069162E+01  0.10500000000E+00 0. -1.
         13    1    4    4    0    0  0.27933652682E+01  0.27362202689E+01 -0.13341626157E+01  0.41328931473E+01  0.10500000000E+00 0.  1.
    3000001    1    5    5    0    0 -0.74041621724E+01 -0.55515506095E+01 -0.74830092385E+00  0.93381628770E+01  0.10000000000E+01 0. -1.
        -13    1    6    6    0    0 -0.13097931827E+02 -0.61684039773E+01  0.46669666810E+01  0.15211726686E+02  0.10500000000E+00 0.  1.
         13    1    6    6    0    0 -0.32669400450E+02 -0.15486925813E+02  0.11535391120E+02  0.37950110279E+02  0.10500000000E+00 0. -1.
</event>
<event>
11    0  0.3510903E-009  0.9118800E+02  0.7816531E-02  0.1126479E+00
         25   -1    0    0    0    0  0.00000000000E+00  0.00000000000E+00  0.99999998245E-14  0.12500000000E+03  0.12500000000E+03 0.  0.
    3000001    1    3    3    0    0 -0.11259998012E+02  0.26912812193E+02  0.67441359846E+01  0.29959479060E+02  0.10000000000E+01 0.  1.
    1000022    2    1    0    0    0 -0.28221243004E+02  0.54629820500E+02  0.50393045603E+01  0.62499996563E+02  0.99999567737E+01 0.  0.
    3000022    2    3    3    0    0 -0.16961244992E+02  0.27717008306E+02 -0.17048314243E+01  0.32540517503E+02  0.24989610352E+00 0.  0.
    1000022    2    1    0    0    0  0.28221243004E+02 -0.54629820500E+02 -0.50393045603E+01  0.62500003437E+02  0.99999997310E+01 0.  0.
    3000022    2    5    5    0    0  0.25847364888E+02 -0.44178330566E+02 -0.66537416212E+01  0.51615365355E+02  0.24999987697E+00 0.  0.
        -13    1    4    4    0    0 -0.56351816804E+01  0.91986755665E+01 -0.61893962595E+00  0.10805786228E+02  0.10500000000E+00 0.  1.
         13    1    4    4    0    0 -0.11326063312E+02  0.18518332740E+02 -0.10858917984E+01  0.21734731275E+02  0.10500000000E+00 0. -1.
    3000001    1    5    5    0    0  0.23738781164E+01 -0.10451489934E+02  0.16144370609E+01  0.10884638082E+02  0.10000000000E+01 0.  1.
        -13    1    6    6    0    0  0.19842994262E+02 -0.33918366821E+02 -0.50973881594E+01  0.39625678797E+02  0.10500000000E+00 0.  1.
         13    1    6    6    0    0  0.60043706256E+01 -0.10259963744E+02 -0.15563534618E+01  0.11989686557E+02  0.10500000000E+00 0. -1.
</event>
<event>
11    0  0.3510903E-009  0.9118800E+02  0.7816531E-02  0.1126479E+00
         25   -1    0    0    0    0  0.00000000000E+00  0.00000000000E+00  0.99999998245E-14  0.12500000000E+03  0.12500000000E+03 0.  0.
    3000001    1    3    3    0    0  0.14303232826E+02 -0.16641472650E+01  0.16073455167E+02  0.21603421404E+02  0.10000000000E+01 0. -1.
    1000022    2    1    0    0    0  0.43451624473E+02  0.81222355682E+01  0.43037608083E+02  0.62499999112E+02  0.99999899798E+01 0.  0.
    3000022    2    3    3    0    0  0.29148391647E+02  0.97863828332E+01  0.26964152917E+02  0.40896577708E+02  0.25000230717E+00 0.  0.
    1000022    2    1    0    0    0 -0.43451624473E+02 -0.81222355682E+01 -0.43037608083E+02  0.62500000888E+02  0.10000001074E+02 0.  0.
    3000022    2    5    5    0    0 -0.34092705811E+01  0.44179246631E+00 -0.56214376175E+00  0.34923933214E+01  0.24999804879E+00 0.  0.
        -13    1    4    4    0    0  0.20886593375E+02  0.70420279117E+01  0.19289855720E+02  0.29290774975E+02  0.10500000000E+00 0.  1.
         13    1    4    4    0    0  0.82617982721E+01  0.27443549215E+01  0.76742971964E+01  0.11605802733E+02  0.10500000000E+00 0. -1.
    3000001    1    5    5    0    0 -0.40042353892E+02 -0.85640280346E+01 -0.42475464321E+02  0.59007607566E+02  0.10000000000E+01 0. -1.
        -13    1    6    6    0    0 -0.18573595059E+01  0.30799690122E+00 -0.30530858811E+00  0.19102054233E+01  0.10500000000E+00 0.  1.
         13    1    6    6    0    0 -0.15519110752E+01  0.13379556510E+00 -0.25683517363E+00  0.15821878981E+01  0.10500000000E+00 0. -1.
</event>
<event>
11    0  0.3510903E-009  0.9118800E+02  0.7816531E-02  0.1126479E+00
         25   -1    0    0    0    0  0.00000000000E+00  0.00000000000E+00  0.99999998245E-14  0.12500000000E+03  0.12500000000E+03 0.  0.
    3000001    1    3    3    0    0  0.24398572475E+02  0.14096979232E+02  0.10389941365E+02  0.30049393403E+02  0.10000000000E+01 0.  1.
    1000022    2    1    0    0    0  0.54443168875E+02  0.26164044851E+02  0.12555216767E+02  0.62500013784E+02  0.10000118743E+02 0.  0.
    3000022    2    3    3    0    0  0.30044596400E+02  0.12067065619E+02  0.21652754016E+01  0.32450620382E+02  0.25000021942E+00 0.  0.
    1000022    2    1    0    0    0 -0.54443168875E+02 -0.26164044851E+02 -0.12555216767E+02  0.62499986216E+02  0.99999464369E+01 0.  0.
    3000022    2    5    5    0    0 -0.18729884957E+02 -0.47217534234E+01 -0.14184741735E+01  0.19369515021E+02  0.24999453344E+00 0.  0.
        -13    1    4    4    0    0  0.21193860735E+02  0.84714662978E+01  0.15496909298E+01  0.22877019934E+02  0.10500000000E+00 0.  1.
         13    1    4    4    0    0  0.88507356648E+01  0.35955993209E+01  0.61558447185E+00  0.95736004474E+01  0.10500000000E+00 0. -1.
    3000001    1    5    5    0    0 -0.35713283918E+02 -0.21442291427E+02 -0.11136742594E+02  0.43130471195E+02  0.10000000000E+01 0. -1.
        -13    1    6    6    0    0 -0.87073569729E+01 -0.22573657966E+01 -0.69031492690E+00  0.90222683119E+01  0.10500000000E+00 0. -1.
         13    1    6    6    0    0 -0.10022527984E+02 -0.24643876268E+01 -0.72815924659E+00  0.10347246709E+02  0.10500000000E+00 0.  1.
</event>
<event>
11    0  0.3510903E-009  0.9118800E+02  0.7816531E-02  0.1126479E+00
         25   -1    0    0    0    0  0.00000000000E+00  0.00000000000E+00  0.99999998245E-14  0.12500000000E+03  0.12500000000E+03 0.  0.
    3000001    1    3    3    0    0 -0.10769248714E+02 -0.18469913152E+02 -0.28952072196E+02  0.36004678781E+02  0.10000000000E+01 0.  1.
    1000022    2    1    0    0    0 -0.10783107718E+02 -0.35089196937E+02 -0.49585510725E+02  0.62500000451E+02  0.10000001443E+02 0.  0.
    3000022    2    3    3    0    0 -0.13859003419E-01 -0.16619283785E+02 -0.20633438529E+02  0.26495321670E+02  0.24999855261E+00 0.  0.
    1000022    2    1    0    0    0  0.10783107718E+02  0.35089196937E+02  0.49585510725E+02  0.62499999549E+02  0.99999958030E+01 0.  0.
    3000022    2    5    5    0    0  0.33490484769E+01  0.24657855793E+02  0.36364651604E+02  0.44064456955E+02  0.25000483518E+00 0.  0.
        -13    1    4    4    0    0 -0.71780646215E-01 -0.97730042655E+01 -0.12120197106E+02  0.15570066401E+02  0.10500000000E+00 0.  1.
         13    1    4    4    0    0  0.57921642796E-01 -0.68462795194E+01 -0.85132414226E+01  0.10925255269E+02  0.10500000000E+00 0. -1.
    3000001    1    5    5    0    0  0.74340592407E+01  0.10431341143E+02  0.13220859120E+02  0.18435542594E+02  0.10000000000E+01 0. -1.
        -13    1    6    6    0    0  0.24095667284E+01  0.17486921227E+02  0.25841827256E+02  0.31295518637E+02  0.10500000000E+00 0. -1.
         13    1    6    6    0    0  0.93948174858E+00  0.71709345663E+01  0.10522824349E+02  0.12768938319E+02  0.10500000000E+00 0.  1.
</event>
<event>
11    0  0.3510903E-009  0.9118800E+02  0.7816531E-02  0.1126479E+00
         25   -1    0    0    0    0  0.00000000000E+00  0.00000000000E+00  0.99999998245E-14  0.12500000000E+03  0.12500000000E+03 0.  0.
    3000001    1    3    3    0    0  0.41055377958E+02 -0.16521891656E+01 -0.44015890522E+02  0.60221859875E+02  0.10000000000E+01 0.  1.
    1000022    2    1    0    0    0  0.42840653053E+02 -0.30173612282E+01 -0.44292474568E+02  0.62499995041E+02  0.10000002697E+02 0.  0.
    3000022    2    3    3    0    0  0.17852750949E+01 -0.13651720626E+01 -0.27658404604E+00  0.22781351659E+01  0.24999834995E+00 0.  0.
    1000022    2    1    0    0    0 -0.42840653053E+02  0.30173612282E+01  0.44292474568E+02  0.62500004959E+02  0.10000064684E+02 0.  0.
    3000022    2    5    5    0    0 -0.14479582622E+02  0.53041112032E+01  0.18480276800E+02  0.24070210592E+02  0.24999756569E+00 0.  0.
        -13    1    4    4    0    0  0.12659847546E+01 -0.10174753602E+01 -0.20119937972E+00  0.16399633221E+01  0.10500000000E+00 0. -1.
         13    1    4    4    0    0  0.51929034023E+00 -0.34769670243E+00 -0.75384666316E-01  0.63817184383E+00  0.10500000000E+00 0.  1.
    3000001    1    5    5    0    0 -0.28361070432E+02 -0.22867499750E+01  0.25812197769E+02  0.38429794367E+02  0.10000000000E+01 0. -1.
        -13    1    6    6    0    0 -0.61736686709E+01  0.21923508872E+01  0.78596530374E+01  0.10232583161E+02  0.10500000000E+00 0. -1.
         13    1    6    6    0    0 -0.83059139509E+01  0.31117603160E+01  0.10620623762E+02  0.13837627431E+02  0.10500000000E+00 0.  1.
</event>
<event>
11    0  0.3510903E-009  0.9118800E+02  0.7816531E-02  0.1126479E+00
         25   -1    0    0    0    0  0.00000000000E+00  0.00000000000E+00  0.99999998245E-14  0.12500000000E+03  0.12500000000E+03 0.  0.
    3000001    1    3    3    0    0 -0.71848580051E+01 -0.17023755712E+01  0.25326378062E+02  0.26399729031E+02  0.10000000000E+01 0.  1.
    1000022    2    1    0    0    0 -0.62341820859E+01 -0.80877229504E+01  0.60843847820E+02  0.62500000533E+02  0.99999980116E+01 0.  0.
    3000022    2    3    3    0    0  0.95067591925E+00 -0.63853473792E+01  0.35517469758E+02  0.36100271502E+02  0.24999733492E+00 0.  0.
    1000022    2    1    0    0    0  0.62341820859E+01  0.80877229504E+01 -0.60843847820E+02  0.62499999467E+02  0.99999913498E+01 0.  0.
    3000022    2    5    5    0    0  0.39226987511E+01  0.16156106976E+01 -0.68488798736E+01  0.80602368318E+01  0.24999768635E+00 0.  0.
        -13    1    4    4    0    0  0.66395403182E+00 -0.46121419735E+01  0.25445190856E+02  0.25868541730E+02  0.10500000000E+00 0.  1.
         13    1    4    4    0    0  0.28672188743E+00 -0.17732054056E+01  0.10072278902E+02  0.10231729772E+02  0.10500000000E+00 0. -1.
    3000001    1    5    5    0    0  0.23114833348E+01  0.64721122528E+01 -0.53994967947E+02  0.54439762635E+02  0.10000000000E+01 0. -1.
        -13    1    6    6    0    0  0.16775180130E+01  0.75887872368E+00 -0.30090236675E+01  0.35291942470E+01  0.10500000000E+00 0.  1.
         13    1    6    6    0    0  0.22451807380E+01  0.85673197387E+00 -0.38398562061E+01  0.45310425848E+01  0.10500000000E+00 0. -1.
</event>
<event>
11    0  0.3510903E-009  0.9118800E+02  0.7816531E-02  0.1126479E+00
         25   -1    0    0    0    0  0.00000000000E+00  0.00000000000E+00  0.99999998245E-14  0.12500000000E+03  0.12500000000E+03 0.  0.
    3000001    1    3    3    0    0 -0.40522988743E+02 -0.26882684256E+02  0.14020825670E+02  0.50619905985E+02  0.10000000000E+01 0. -1.
    1000022    2    1    0    0    0 -0.46831103974E+02 -0.36659889390E+02  0.16405805848E+02  0.62500002351E+02  0.10000001944E+02 0.  0.
    3000022    2    3    3    0    0 -0.63081152309E+01 -0.97772051340E+01  0.23849801776E+01  0.11880096366E+02  0.25000244061E+00 0.  0.
    1000022    2    1    0    0    0  0.46831103974E+02  0.36659889390E+02 -0.16405805848E+02  0.62499997649E+02  0.99999725541E+01 0.  0.
    3000022    2    5    5    0    0  0.37838791230E+02  0.34017875180E+02 -0.13816963781E+02  0.52725334953E+02  0.25000859730E+00 0.  0.
        -13    1    4    4    0    0 -0.38854363050E+01 -0.61334767923E+01  0.14874188345E+01  0.74121247042E+01  0.10500000000E+00 0. -1.
         13    1    4    4    0    0 -0.24226789259E+01 -0.36437283417E+01  0.89756134315E+00  0.44679716618E+01  0.10500000000E+00 0.  1.
    3000001    1    5    5    0    0  0.89923127434E+01  0.26420142105E+01 -0.25888420667E+01  0.97746626955E+01  0.10000000000E+01 0.  1.
        -13    1    6    6    0    0  0.13216591996E+02  0.11815905873E+02 -0.48425016945E+01  0.18378106084E+02  0.10500000000E+00 0. -1.
         13    1    6    6    0    0  0.24622199234E+02  0.22201969307E+02 -0.89744620864E+01  0.34347228869E+02  0.10500000000E+00 0.  1.
</event>
<event>
11    0  0.3510903E-009  0.9118800E+02  0.7816531E-02  0.1126479E+00
         25   -1    0    0    0    0  0.00000000000E+00  0.00000000000E+00  0.99999998245E-14  0.12500000000E+03  0.12500000000E+03 0.  0.
    3000001    1    3    3    0    0 -0.21872639666E+01  0.30359934078E+01  0.19853848231E+01  0.43523709088E+01  0.10000000000E+01 0. -1.
    1000022    2    1    0    0    0 -0.30487537047E+02  0.53500237265E+02 -0.38058945971E+01  0.62500000101E+02  0.99999938165E+01 0.  0.
    3000022    2    3    3    0    0 -0.28300273081E+02  0.50464243857E+02 -0.57912794202E+01  0.58147629192E+02  0.24999769029E+00 0.  0.
    1000022    2    1    0    0    0  0.30487537047E+02 -0.53500237265E+02  0.38058945971E+01  0.62499999899E+02  0.99999925559E+01 0.  0.
    3000022    2    5    5    0    0  0.78092989422E+00 -0.40661063197E+01 -0.18490824786E+01  0.45414407680E+01  0.25001226669E+00 0.  0.
        -13    1    4    4    0    0 -0.10534174138E+02  0.18716101371E+02 -0.20999794213E+01  0.21579671310E+02  0.10500000000E+00 0.  1.
         13    1    4    4    0    0 -0.17766098943E+02  0.31748142486E+02 -0.36912999989E+01  0.36567957882E+02  0.10500000000E+00 0. -1.
    3000001    1    5    5    0    0  0.29706607153E+02 -0.49434130945E+02  0.56549770757E+01  0.57958559131E+02  0.10000000000E+01 0.  1.
        -13    1    6    6    0    0  0.54896354663E+00 -0.27981002815E+01 -0.12201606073E+01  0.31033116293E+01  0.10500000000E+00 0.  1.
         13    1    6    6    0    0  0.23196634759E+00 -0.12680060382E+01 -0.62892187128E+00  0.14381291387E+01  0.10500000000E+00 0. -1.
</event>
<event>
11    0  0.3510903E-009  0.9118800E+02  0.7816531E-02  0.1126479E+00
         25   -1    0    0    0    0  0.00000000000E+00  0.00000000000E+00  0.99999998245E-14  0.12500000000E+03  0.12500000000E+03 0.  0.
    3000001    1    3    3    0    0  0.11080781164E+02 -0.94730126579E+01 -0.31947018780E+02  0.35130238954E+02  0.10000000000E+01 0. -1.
    1000022    2    1    0    0    0  0.13704010250E+02 -0.10942025635E+02 -0.59149996959E+02  0.62500000561E+02  0.10000005401E+02 0.  0.
    3000022    2    3    3    0    0  0.26232290858E+01 -0.14690129775E+01 -0.27202978179E+02  0.27369761608E+02  0.24999738801E+00 0.  0.
    1000022    2    1    0    0    0 -0.13704010250E+02  0.10942025635E+02  0.59149996959E+02  0.62499999439E+02  0.99999983821E+01 0.  0.
    3000022    2    5    5    0    0 -0.59788554951E+01 -0.55327771852E+00  0.13328552866E+02  0.14620726742E+02  0.24999939706E+00 0.  0.
        -13    1    4    4    0    0  0.65783139942E+00 -0.39684242918E+00 -0.68442727617E+01  0.68880563805E+01  0.10500000000E+00 0.  1.
         13    1    4    4    0    0  0.19653976864E+01 -0.10721705484E+01 -0.20358705417E+02  0.20481705227E+02  0.10500000000E+00 0. -1.
    3000001    1    5    5    0    0 -0.77251547548E+01  0.11495303354E+02  0.45821444093E+02  0.47879272697E+02  0.10000000000E+01 0. -1.
        -13    1    6    6    0    0 -0.35402295074E+01 -0.30564038346E+00  0.80314449063E+01  0.87830389554E+01  0.10500000000E+00 0.  1.
         13    1    6    6    0    0 -0.24386259876E+01 -0.24763733505E+00  0.52971079593E+01  0.58376877862E+01  0.10500000000E+00 0. -1.
</event>
<event>
11    0  0.3510903E-009  0.9118800E+02  0.7816531E-02  0.1126479E+00
         25   -1    0    0    0    0  0.00000000000E+00  0.00000000000E+00  0.99999998245E-14  0.12500000000E+03  0.12500000000E+03 0.  0.
    3000001    1    3    3    0    0 -0.38049227725E+01 -0.10511725772E+02  0.55401516918E+02  0.56527001449E+02  0.10000000000E+01 0. -1.
    1000022    2    1    0    0    0 -0.36301813132E+01 -0.84626244914E+01  0.61003736342E+02  0.62500000030E+02  0.99999963213E+01 0.  0.
    3000022    2    3    3    0    0  0.17474145927E+00  0.20491012808E+01  0.56022194242E+01  0.59729985812E+01  0.24999787359E+00 0.  0.
    1000022    2    1    0    0    0  0.36301813132E+01  0.84626244914E+01 -0.61003736342E+02  0.62499999970E+02  0.99999959446E+01 0.  0.
    3000022    2    5    5    0    0  0.48145139645E+01  0.79284928920E+01 -0.59668143113E+02  0.60385348777E+02  0.25000020465E+00 0.  0.
        -13    1    4    4    0    0  0.66234878706E-01  0.99760586719E+00  0.29118571355E+01  0.30805099421E+01  0.10500000000E+00 0.  1.
         13    1    4    4    0    0  0.10850658057E+00  0.10514954136E+01  0.26903622887E+01  0.28924886391E+01  0.10500000000E+00 0. -1.
    3000001    1    5    5    0    0 -0.11843326513E+01  0.53413159941E+00 -0.13355932291E+01  0.21146511930E+01  0.10000000000E+01 0.  1.
        -13    1    6    6    0    0  0.13282053950E+01  0.21899047161E+01 -0.16734433073E+02  0.16929621599E+02  0.10500000000E+00 0.  1.
         13    1    6    6    0    0  0.34863085695E+01  0.57385881759E+01 -0.42933710040E+02  0.43455727177E+02  0.10500000000E+00 0. -1.
</event>
<event>
11    0  0.3510903E-009  0.9118800E+02  0.7816531E-02  0.1126479E+00
         25   -1    0    0    0    0  0.00000000000E+00  0.00000000000E+00  0.99999998245E-14  0.12500000000E+03  0.12500000000E+03 0.  0.
    3000001    1    3    3    0    0 -0.36366129660E+01  0.21411844958E+01  0.11849748108E+02  0.12618484661E+02  0.10000000000E+01 0. -1.
    1000022    2    1    0    0    0 -0.33224938452E+02  0.65876973874E+00  0.51979992067E+02  0.62499999760E+02  0.99999941039E+01 0.  0.
    3000022    2    3    3    0    0 -0.29588325486E+02 -0.14824147571E+01  0.40130243959E+02  0.49881515100E+02  0.25001974628E+00 0.  0.
    1000022    2    1    0    0    0  0.33224938452E+02 -0.65876973874E+00 -0.51979992067E+02  0.62500000240E+02  0.99999970980E+01 0.  0.
    3000022    2    5    5    0    0  0.13031259098E+02  0.35032457760E+01 -0.26220185786E+02  0.29489779419E+02  0.25000576123E+00 0.  0.
        -13    1    4    4    0    0 -0.22365174851E+02 -0.11203629196E+01  0.30370862937E+02  0.37734024430E+02  0.10500000000E+00 0. -1.
         13    1    4    4    0    0 -0.72231506351E+01 -0.36205183751E+00  0.97593810221E+01  0.12147490669E+02  0.10500000000E+00 0.  1.
    3000001    1    5    5    0    0  0.20193679354E+02 -0.41620155147E+01 -0.25759806281E+02  0.33010220821E+02  0.10000000000E+01 0. -1.
        -13    1    6    6    0    0  0.88181419499E+01  0.23243751379E+01 -0.17661277411E+02  0.19876973915E+02  0.10500000000E+00 0. -1.
         13    1    6    6    0    0  0.42131171482E+01  0.11788706380E+01 -0.85589083747E+01  0.96128055038E+01  0.10500000000E+00 0.  1.
</event>
<event>
11    0  0.3510903E-009  0.9118800E+02  0.7816531E-02  0.1126479E+00
         25   -1    0    0    0    0  0.00000000000E+00  0.00000000000E+00  0.99999998245E-14  0.12500000000E+03  0.12500000000E+03 0.  0.
    3000001    1    3    3    0    0 -0.55598502288E+01 -0.16830997744E+02 -0.23455025575E+02  0.29416536920E+02  0.10000000000E+01 0. -1.
    1000022    2    1    0    0    0 -0.67214436902E+01 -0.27929473797E+02 -0.54598687784E+02  0.62500001935E+02  0.10000011114E+02 0.  0.
    3000022    2    3    3    0    0 -0.11615934615E+01 -0.11098476054E+02 -0.31143662209E+02  0.33083465015E+02  0.24998313389E+00 0.  0.
    1000022    2    1    0    0    0  0.67214436902E+01  0.27929473797E+02  0.54598687784E+02  0.62499998065E+02  0.99999869262E+01 0.  0.
    3000022    2    5    5    0    0  0.51126008934E+01  0.21438812172E+02  0.48971851169E+02  0.53703501389E+02  0.24999860010E+00 0.  0.
        -13    1    4    4    0    0 -0.55068597157E+00 -0.47095433959E+01 -0.13324560884E+02  0.14143479126E+02  0.10500000000E+00 0.  1.
         13    1    4    4    0    0 -0.61090748990E+00 -0.63889326577E+01 -0.17819101325E+02  0.18939985889E+02  0.10500000000E+00 0. -1.
    3000001    1    5    5    0    0  0.16088427968E+01  0.64906616250E+01  0.56268366151E+01  0.87964966759E+01  0.10000000000E+01 0.  1.
        -13    1    6    6    0    0  0.12202335536E+01  0.52091656537E+01  0.11895089608E+02  0.13043333873E+02  0.10500000000E+00 0. -1.
         13    1    6    6    0    0  0.38923673398E+01  0.16229646519E+02  0.37076761560E+02  0.40660167516E+02  0.10500000000E+00 0.  1.
</event>
<event>
11    0  0.3510903E-009  0.9118800E+02  0.7816531E-02  0.1126479E+00
         25   -1    0    0    0    0  0.00000000000E+00  0.00000000000E+00  0.99999998245E-14  0.12500000000E+03  0.12500000000E+03 0.  0.
    3000001    1    3    3    0    0  0.12018612715E+02  0.19671971848E+02  0.56341431214E+01  0.23752412439E+02  0.10000000000E+01 0.  1.
    1000022    2    1    0    0    0  0.39413000317E+02  0.43166577291E+02  0.19736059843E+02  0.62499999611E+02  0.99999952109E+01 0.  0.
    3000022    2    3    3    0    0  0.27394387602E+02  0.23494605443E+02  0.14101916722E+02  0.38747587172E+02  0.24999872068E+00 0.  0.
    1000022    2    1    0    0    0 -0.39413000317E+02 -0.43166577291E+02 -0.19736059843E+02  0.62500000389E+02  0.10000000076E+02 0.  0.
    3000022    2    5    5    0    0 -0.96600829336E+01 -0.15171110654E+02 -0.25472629608E+01  0.18166751204E+02  0.24999992606E+00 0.  0.
        -13    1    4    4    0    0  0.14419617742E+02  0.12306019515E+02  0.73544688115E+01  0.20333782939E+02  0.10500000000E+00 0.  1.
         13    1    4    4    0    0  0.12974769861E+02  0.11188585928E+02  0.67474479105E+01  0.18413804233E+02  0.10500000000E+00 0. -1.
    3000001    1    5    5    0    0 -0.29752917383E+02 -0.27995466637E+02 -0.17188796883E+02  0.44333249185E+02  0.10000000000E+01 0. -1.
        -13    1    6    6    0    0 -0.72321903219E+01 -0.11352058001E+02 -0.19335743449E+01  0.13598659216E+02  0.10500000000E+00 0.  1.
         13    1    6    6    0    0 -0.24278926117E+01 -0.38190526521E+01 -0.61368861589E+00  0.45680919880E+01  0.10500000000E+00 0. -1.
</event>
<event>
11    0  0.3510903E-009  0.9118800E+02  0.7816531E-02  0.1126479E+00
         25   -1    0    0    0    0  0.00000000000E+00  0.00000000000E+00  0.99999998245E-14  0.12500000000E+03  0.12500000000E+03 0.  0.
    3000001    1    3    3    0    0  0.24151042199E+02 -0.47884923682E+01  0.22642315559E+01  0.24745287289E+02  0.10000000000E+01 0. -1.
    1000022    2    1    0    0    0  0.56664063046E+02 -0.23434555992E+02  0.68011150078E+01  0.62499995922E+02  0.99999934771E+01 0.  0.
    3000022    2    3    3    0    0  0.32513020847E+02 -0.18646063624E+02  0.45368834519E+01  0.37754708633E+02  0.24999862322E+00 0.  0.
    1000022    2    1    0    0    0 -0.56664063046E+02  0.23434555992E+02 -0.68011150078E+01  0.62500004078E+02  0.10000044447E+02 0.  0.
    3000022    2    5    5    0    0 -0.29852405393E+02  0.92169639999E+01 -0.74842289528E+01  0.32127787286E+02  0.24999956830E+00 0.  0.
        -13    1    4    4    0    0  0.19617155575E+02 -0.11275197202E+02  0.26795856840E+01  0.22784952693E+02  0.10500000000E+00 0. -1.
         13    1    4    4    0    0  0.12895865272E+02 -0.73708664215E+01  0.18572977679E+01  0.14969755940E+02  0.10500000000E+00 0.  1.
    3000001    1    5    5    0    0 -0.26811657653E+02  0.14217591992E+02  0.68311394498E+00  0.30372216791E+02  0.10000000000E+01 0. -1.
        -13    1    6    6    0    0 -0.11879686070E+02  0.37141186745E+01 -0.29356421663E+01  0.12788691824E+02  0.10500000000E+00 0. -1.
         13    1    6    6    0    0 -0.17972719323E+02  0.55028453254E+01 -0.45485867864E+01  0.19339095462E+02  0.10500000000E+00 0.  1.
</event>
<event>
11    0  0.3510903E-009  0.9118800E+02  0.7816531E-02  0.1126479E+00
         25   -1    0    0    0    0  0.00000000000E+00  0.00000000000E+00  0.99999998245E-14  0.12500000000E+03  0.12500000000E+03 0.  0.
    3000001    1    3    3    0    0  0.39135315094E+02  0.17049931083E+02  0.14649208656E+02  0.45142799555E+02  0.10000000000E+01 0. -1.
    1000022    2    1    0    0    0  0.50590336718E+02  0.24809238798E+02  0.25127064688E+02  0.62499998199E+02  0.99999948050E+01 0.  0.
    3000022    2    3    3    0    0  0.11455021624E+02  0.77593077159E+01  0.10477856032E+02  0.17357198644E+02  0.25000224042E+00 0.  0.
    1000022    2    1    0    0    0 -0.50590336718E+02 -0.24809238798E+02 -0.25127064688E+02  0.62500001801E+02  0.10000017315E+02 0.  0.
    3000022    2    5    5    0    0 -0.93337196405E+01 -0.85124709202E+01 -0.79098546131E+01  0.14906668038E+02  0.24993696520E+00 0.  0.
        -13    1    4    4    0    0  0.33977638859E+01  0.22962913103E+01  0.30504073776E+01  0.51121192646E+01  0.10500000000E+00 0. -1.
         13    1    4    4    0    0  0.80572577383E+01  0.54630164055E+01  0.74274486541E+01  0.12245079380E+02  0.10500000000E+00 0.  1.
    3000001    1    5    5    0    0 -0.41256617077E+02 -0.16296767878E+02 -0.17217210075E+02  0.47593333763E+02  0.10000000000E+01 0.  1.
        -13    1    6    6    0    0 -0.25228237032E+01 -0.22837589209E+01 -0.20921342613E+01  0.39960286553E+01  0.10500000000E+00 0. -1.
         13    1    6    6    0    0 -0.68108959372E+01 -0.62287119993E+01 -0.58177203518E+01  0.10910639382E+02  0.10500000000E+00 0.  1.
</event>
<event>
11    0  0.3510903E-009  0.9118800E+02  0.7816531E-02  0.1126479E+00
         25   -1    0    0    0    0  0.00000000000E+00  0.00000000000E+00  0.99999998245E-14  0.12500000000E+03  0.12500000000E+03 0.  0.
    3000001    1    3    3    0    0 -0.42204245301E+02  0.17267249559E+01 -0.29558271950E+02  0.51564244794E+02  0.10000000000E+01 0. -1.
    1000022    2    1    0    0    0 -0.52938374817E+02  0.19280042262E+01 -0.31623748205E+02  0.62499999863E+02  0.99999901874E+01 0.  0.
    3000022    2    3    3    0    0 -0.10734129516E+02  0.20127927026E+00 -0.20654762550E+01  0.10935755069E+02  0.24999390465E+00 0.  0.
    1000022    2    1    0    0    0  0.52938374817E+02 -0.19280042262E+01  0.31623748205E+02  0.62500000137E+02  0.99999919021E+01 0.  0.
    3000022    2    5    5    0    0  0.57483602413E+01  0.60927024306E+00  0.29844505767E+00  0.57936525677E+01  0.24996985834E+00 0.  0.
        -13    1    4    4    0    0 -0.74241000233E+01  0.10768627287E+00 -0.13913259536E+01  0.75548441677E+01  0.10500000000E+00 0. -1.
         13    1    4    4    0    0 -0.33100294931E+01  0.93592997390E-01 -0.67415030146E+00  0.33809109014E+01  0.10500000000E+00 0.  1.
    3000001    1    5    5    0    0  0.47190014576E+02 -0.25372744692E+01  0.31325303147E+02  0.56706347569E+02  0.10000000000E+01 0. -1.
        -13    1    6    6    0    0  0.40856567587E+01  0.42199386244E+00  0.17052735839E+00  0.41122712155E+01  0.10500000000E+00 0.  1.
         13    1    6    6    0    0  0.16627034826E+01  0.18727638062E+00  0.12791769928E+00  0.16813813522E+01  0.10500000000E+00 0. -1.
</event>
<event>
11    0  0.3510903E-009  0.9118800E+02  0.7816531E-02  0.1126479E+00
         25   -1    0    0    0    0  0.00000000000E+00  0.00000000000E+00  0.99999998245E-14  0.12500000000E+03  0.12500000000E+03 0.  0.
    3000001    1    3    3    0    0 -0.31071605439E+02 -0.15904719293E+02  0.25029548574E+01  0.35009563598E+02  0.10000000000E+01 0.  1.
    1000022    2    1    0    0    0 -0.51998151812E+02 -0.30909990667E+02  0.12124963388E+02  0.62499999371E+02  0.99999934666E+01 0.  0.
    3000022    2    3    3    0    0 -0.20926546374E+02 -0.15005271373E+02  0.96220085308E+01  0.27490435773E+02  0.24999739383E+00 0.  0.
    1000022    2    1    0    0    0  0.51998151812E+02  0.30909990667E+02 -0.12124963388E+02  0.62500000629E+02  0.10000001328E+02 0.  0.
    3000022    2    5    5    0    0  0.30314507261E+02  0.12622819957E+02 -0.81997000418E+01  0.33846750448E+02  0.25000196689E+00 0.  0.
        -13    1    4    4    0    0 -0.15856283517E+02 -0.11363201700E+02  0.72670231198E+01  0.20817414102E+02  0.10500000000E+00 0. -1.
         13    1    4    4    0    0 -0.50702628566E+01 -0.36420696728E+01  0.23549854111E+01  0.66730216711E+01  0.10500000000E+00 0.  1.
    3000001    1    5    5    0    0  0.21683644551E+02  0.18287170709E+02 -0.39252633464E+01  0.28653250181E+02  0.10000000000E+01 0. -1.
        -13    1    6    6    0    0  0.14990922928E+02  0.62996074608E+01 -0.41039274386E+01  0.16770988933E+02  0.10500000000E+00 0.  1.
         13    1    6    6    0    0  0.15323584333E+02  0.63232124965E+01 -0.40957726032E+01  0.17075761515E+02  0.10500000000E+00 0. -1.
</event>
<event>
11    0  0.3510903E-009  0.9118800E+02  0.7816531E-02  0.1126479E+00
         25   -1    0    0    0    0  0.00000000000E+00  0.00000000000E+00  0.99999998245E-14  0.12500000000E+03  0.12500000000E+03 0.  0.
    3000001    1    3    3    0    0  0.13244487910E+02 -0.21968176584E+02  0.57338139500E+00  0.25677733713E+02  0.10000000000E+01 0. -1.
    1000022    2    1    0    0    0  0.36986451877E+02 -0.48674401181E+02 -0.83099524943E+01  0.62500001494E+02  0.99999961800E+01 0.  0.
    3000022    2    3    3    0    0  0.23741963966E+02 -0.26706224597E+02 -0.88833338893E+01  0.36822267781E+02  0.24999669847E+00 0.  0.
    1000022    2    1    0    0    0 -0.36986451877E+02  0.48674401181E+02  0.83099524943E+01  0.62499998506E+02  0.99999774993E+01 0.  0.
    3000022    2    5    5    0    0 -0.66283959813E-02  0.34739415490E+01 -0.12557926491E+00  0.34851945012E+01  0.24999347704E+00 0.  0.
        -13    1    4    4    0    0  0.18015730570E+02 -0.20237410520E+02 -0.67255184996E+01  0.27917072852E+02  0.10500000000E+00 0. -1.
         13    1    4    4    0    0  0.57262333964E+01 -0.64688140769E+01 -0.21578153897E+01  0.89051949292E+01  0.10500000000E+00 0.  1.
    3000001    1    5    5    0    0 -0.36979823481E+02  0.45200459632E+02  0.84355317592E+01  0.59014804004E+02  0.10000000000E+01 0. -1.
        -13    1    6    6    0    0  0.40735237426E-01  0.19755998158E+01 -0.23115020841E-01  0.19789424691E+01  0.10500000000E+00 0.  1.
         13    1    6    6    0    0 -0.47363633407E-01  0.14983417332E+01 -0.10246424407E+00  0.15062520322E+01  0.10500000000E+00 0. -1.
</event>
<event>
11    0  0.3510903E-009  0.9118800E+02  0.7816531E-02  0.1126479E+00
         25   -1    0    0    0    0  0.00000000000E+00  0.00000000000E+00  0.99999998245E-14  0.12500000000E+03  0.12500000000E+03 0.  0.
    3000001    1    3    3    0    0  0.25458688922E+01 -0.26156123785E+01 -0.47461749331E+01  0.60703420848E+01  0.10000000000E+01 0.  1.
    1000022    2    1    0    0    0  0.46384964421E+02 -0.29178881783E+02 -0.28342157085E+02  0.62500001498E+02  0.10000012629E+02 0.  0.
    3000022    2    3    3    0    0  0.43839095529E+02 -0.26563269404E+02 -0.23595982152E+02  0.56429659413E+02  0.25001907521E+00 0.  0.
    1000022    2    1    0    0    0 -0.46384964421E+02  0.29178881783E+02  0.28342157085E+02  0.62499998502E+02  0.99999939042E+01 0.  0.
    3000022    2    5    5    0    0 -0.31286026960E+02  0.22169406648E+02  0.15123620287E+02  0.41219952233E+02  0.24999491828E+00 0.  0.
        -13    1    4    4    0    0  0.18777125457E+02 -0.11445748711E+02 -0.10090148547E+02  0.24195200489E+02  0.10500000000E+00 0.  1.
         13    1    4    4    0    0  0.25061970072E+02 -0.15117520693E+02 -0.13505833605E+02  0.32234458925E+02  0.10500000000E+00 0. -1.
    3000001    1    5    5    0    0 -0.15098937461E+02  0.70094751349E+01  0.13218536798E+02  0.21280046269E+02  0.10000000000E+01 0. -1.
        -13    1    6    6    0    0 -0.14831998817E+02  0.10565295538E+02  0.72364119443E+01  0.19595671500E+02  0.10500000000E+00 0. -1.
         13    1    6    6    0    0 -0.16454028143E+02  0.11604111110E+02  0.78872083422E+01  0.21624280733E+02  0.10500000000E+00 0.  1.
</event>
<event>
11    0  0.3510903E-009  0.9118800E+02  0.7816531E-02  0.1126479E+00
         25   -1    0    0    0    0  0.00000000000E+00  0.00000000000E+00  0.99999998245E-14  0.12500000000E+03  0.12500000000E+03 0.  0.
    3000001    1    3    3    0    0  0.98470546162E+01  0.26384098594E+02 -0.12148306454E+02  0.30686584902E+02  0.10000000000E+01 0.  1.
    1000022    2    1    0    0    0  0.10359541308E+02  0.56124035631E+02 -0.23431230815E+02  0.62500000015E+02  0.99999976416E+01 0.  0.
    3000022    2    3    3    0    0  0.51248669157E+00  0.29739937037E+02 -0.11282924360E+02  0.31813415113E+02  0.25000299587E+00 0.  0.
    1000022    2    1    0    0    0 -0.10359541308E+02 -0.56124035631E+02  0.23431230815E+02  0.62499999985E+02  0.99999974495E+01 0.  0.
    3000022    2    5    5    0    0 -0.11117644770E+02 -0.53906517066E+02  0.23721243883E+02  0.59935586402E+02  0.24999694285E+00 0.  0.
        -13    1    4    4    0    0  0.38039689269E+00  0.21284263894E+02 -0.80333494326E+01  0.22753248546E+02  0.10500000000E+00 0.  1.
         13    1    4    4    0    0  0.13208979887E+00  0.84556731431E+01 -0.32495749275E+01  0.90601665673E+01  0.10500000000E+00 0. -1.
    3000001    1    5    5    0    0  0.75810346265E+00 -0.22175185646E+01 -0.29001306893E+00  0.25644135830E+01  0.10000000000E+01 0.  1.
        -13    1    6    6    0    0 -0.60336556120E+01 -0.29064893781E+02  0.12853071973E+02  0.32347883002E+02  0.10500000000E+00 0. -1.
         13    1    6    6    0    0 -0.50839891583E+01 -0.24841623285E+02  0.10868171910E+02  0.27587703400E+02  0.10500000000E+00 0.  1.
</event>
<event>
11    0  0.3510903E-009  0.9118800E+02  0.7816531E-02  0.1126479E+00
         25   -1    0    0    0    0  0.00000000000E+00  0.00000000000E+00  0.99999998245E-14  0.12500000000E+03  0.12500000000E+03 0.  0.
    3000001    1    3    3    0    0  0.22435373522E+02  0.24608505880E+02 -0.24512428138E+02  0.41361620857E+02  0.10000000000E+01 0. -1.
    1000022    2    1    0    0    0  0.33019429443E+02  0.41517688715E+02 -0.31499981331E+02  0.62500000575E+02  0.10000002555E+02 0.  0.
    3000022    2    3    3    0    0  0.10584055921E+02  0.16909182835E+02 -0.69875531923E+01  0.21138379718E+02  0.24998717510E+00 0.  0.
    1000022    2    1    0    0    0 -0.33019429443E+02 -0.41517688715E+02  0.31499981331E+02  0.62499999425E+02  0.99999953648E+01 0.  0.
    3000022    2    5    5    0    0 -0.14833121383E+02 -0.17571467959E+02  0.19346331510E+02  0.30051971853E+02  0.24998628927E+00 0.  0.
        -13    1    4    4    0    0  0.49140326564E+01  0.79023009843E+01 -0.33247152057E+01  0.98822484281E+01  0.10500000000E+00 0. -1.
         13    1    4    4    0    0  0.56700232646E+01  0.90068818512E+01 -0.36628379865E+01  0.11256131290E+02  0.10500000000E+00 0.  1.
    3000001    1    5    5    0    0 -0.18186308060E+02 -0.23946220756E+02  0.12153649820E+02  0.32448027572E+02  0.10000000000E+01 0. -1.
        -13    1    6    6    0    0 -0.64017225904E+01 -0.75287908499E+01  0.82424242932E+01  0.12869084156E+02  0.10500000000E+00 0. -1.
         13    1    6    6    0    0 -0.84313987925E+01 -0.10042677109E+02  0.11103907217E+02  0.17182887697E+02  0.10500000000E+00 0.  1.
</event>
<event>
11    0  0.3510903E-009  0.9118800E+02  0.7816531E-02  0.1126479E+00
         25   -1    0    0    0    0  0.00000000000E+00  0.00000000000E+00  0.99999998245E-14  0.12500000000E+03  0.12500000000E+03 0.  0.
    3000001    1    3    3    0    0  0.31561775285E+01 -0.23537921264E+02  0.16772449701E+02  0.29091412187E+02  0.10000000000E+01 0.  1.
    1000022    2    1    0    0    0  0.91728325650E+01 -0.43111389924E+02  0.43168479541E+02  0.62499999502E+02  0.99999756705E+01 0.  0.
    3000022    2    3    3    0    0  0.60166550365E+01 -0.19573468660E+02  0.26396029839E+02  0.33408587315E+02  0.25000380022E+00 0.  0.
    1000022    2    1    0    0    0 -0.91728325650E+01  0.43111389924E+02 -0.43168479541E+02  0.62500000498E+02  0.99999818980E+01 0.  0.
    3000022    2    5    5    0    0 -0.77373319704E+01  0.33430428428E+02 -0.38616956587E+02  0.51660349275E+02  0.25000046974E+00 0.  0.
        -13    1    4    4    0    0  0.23291429369E+01 -0.74642365081E+01  0.10163203967E+02  0.12823473529E+02  0.10500000000E+00 0. -1.
         13    1    4    4    0    0  0.36875120996E+01 -0.12109232152E+02  0.16232825873E+02  0.20585113787E+02  0.10500000000E+00 0.  1.
    3000001    1    5    5    0    0 -0.14355005945E+01  0.96809614965E+01 -0.45515229535E+01  0.10839651224E+02  0.10000000000E+01 0. -1.
        -13    1    6    6    0    0 -0.41816329862E+01  0.18032555638E+02 -0.20932489754E+02  0.27943501383E+02  0.10500000000E+00 0. -1.
         13    1    6    6    0    0 -0.35556989842E+01  0.15397872790E+02 -0.17684466834E+02  0.23716847892E+02  0.10500000000E+00 0.  1.
</event>
<event>
11    0  0.3510903E-009  0.9118800E+02  0.7816531E-02  0.1126479E+00
         25   -1    0    0    0    0  0.00000000000E+00  0.00000000000E+00  0.99999998245E-14  0.12500000000E+03  0.12500000000E+03 0.  0.
    3000001    1    3    3    0    0 -0.15816230720E+02 -0.52840086226E+01  0.11720965100E+02  0.20407227254E+02  0.10000000000E+01 0. -1.
    1000022    2    1    0    0    0 -0.54119885599E+02 -0.18465687986E+02  0.23158288995E+02  0.62500000041E+02  0.10000000293E+02 0.  0.
    3000022    2    3    3    0    0 -0.38303654879E+02 -0.13181679363E+02  0.11437323895E+02  0.42092772787E+02  0.24999015436E+00 0.  0.
    1000022    2    1    0    0    0  0.54119885599E+02  0.18465687986E+02 -0.23158288995E+02  0.62499999959E+02  0.99999997795E+01 0.  0.
    3000022    2    5    5    0    0  0.24144719371E+02  0.10273279977E+02 -0.15513060871E+02  0.30483197300E+02  0.25001014955E+00 0.  0.
        -13    1    4    4    0    0 -0.16825133875E+02 -0.57205624436E+01  0.50237468000E+01  0.18467783340E+02  0.10500000000E+00 0.  1.
         13    1    4    4    0    0 -0.21478521005E+02 -0.74611169197E+01  0.64135770950E+01  0.23624989447E+02  0.10500000000E+00 0. -1.
    3000001    1    5    5    0    0  0.29975166228E+02  0.81924080094E+01 -0.76452281242E+01  0.32016802659E+02  0.10000000000E+01 0. -1.
        -13    1    6    6    0    0  0.82536407909E+01  0.35608273117E+01 -0.52774745033E+01  0.10424242878E+02  0.10500000000E+00 0.  1.
         13    1    6    6    0    0  0.15891078580E+02  0.67124526648E+01 -0.10235586368E+02  0.20058954422E+02  0.10500000000E+00 0. -1.
</event>
<event>
11    0  0.3510903E-009  0.9118800E+02  0.7816531E-02  0.1126479E+00
         25   -1    0    0    0    0  0.00000000000E+00  0.00000000000E+00  0.99999998245E-14  0.12500000000E+03  0.12500000000E+03 0.  0.
    3000001    1    3    3    0    0 -0.21077084045E+02  0.41173712816E+02 -0.27658535513E+02  0.53902807771E+02  0.10000000000E+01 0.  1.
    1000022    2    1    0    0    0 -0.27620154284E+02  0.45937748991E+02 -0.30546693892E+02  0.62500003111E+02  0.10000008809E+02 0.  0.
    3000022    2    3    3    0    0 -0.65430702392E+01  0.47640361746E+01 -0.28881583785E+01  0.85971953399E+01  0.25000012829E+00 0.  0.
    1000022    2    1    0    0    0  0.27620154284E+02 -0.45937748991E+02  0.30546693892E+02  0.62499996889E+02  0.99999699209E+01 0.  0.
    3000022    2    5    5    0    0  0.26140844766E+02 -0.45798196380E+02  0.29460174052E+02  0.60405156336E+02  0.25000014820E+00 0.  0.
        -13    1    4    4    0    0 -0.32334817641E+01  0.24370781215E+01 -0.14564436033E+01  0.43043009954E+01  0.10500000000E+00 0.  1.
         13    1    4    4    0    0 -0.33095884751E+01  0.23269580532E+01 -0.14317147752E+01  0.42928943445E+01  0.10500000000E+00 0. -1.
    3000001    1    5    5    0    0  0.14793095174E+01 -0.13955261079E+00  0.10865198402E+01  0.20948405531E+01  0.10000000000E+01 0.  1.
        -13    1    6    6    0    0  0.11605079189E+02 -0.20255321366E+02  0.12979310708E+02  0.26710099926E+02  0.10500000000E+00 0.  1.
         13    1    6    6    0    0  0.14535765577E+02 -0.25542875014E+02  0.16480863344E+02  0.33695056409E+02  0.10500000000E+00 0. -1.
</event>
<event>
11    0  0.3510903E-009  0.9118800E+02  0.7816531E-02  0.1126479E+00
         25   -1    0    0    0    0  0.00000000000E+00  0.00000000000E+00  0.99999998245E-14  0.12500000000E+03  0.12500000000E+03 0.  0.
    3000001    1    3    3    0    0  0.74741437648E+01  0.12166190024E+02 -0.80880382437E+01  0.16440662010E+02  0.10000000000E+01 0.  1.
    1000022    2    1    0    0    0  0.13329768406E+02  0.52571568953E+02 -0.29407441551E+02  0.62499998074E+02  0.99999776354E+01 0.  0.
    3000022    2    3    3    0    0  0.58556246411E+01  0.40405378929E+02 -0.21319403307E+02  0.46059336063E+02  0.24998970944E+00 0.  0.
    1000022    2    1    0    0    0 -0.13329768406E+02 -0.52571568953E+02  0.29407441551E+02  0.62500001926E+02  0.10000001715E+02 0.  0.
    3000022    2    5    5    0    0 -0.12737625366E+02 -0.30711506562E+02  0.18292441769E+02  0.37948908646E+02  0.25001253717E+00 0.  0.
        -13    1    4    4    0    0  0.32466564651E+01  0.22713338602E+02 -0.11926017267E+02  0.25858798145E+02  0.10500000000E+00 0. -1.
         13    1    4    4    0    0  0.26089681760E+01  0.17692040327E+02 -0.93933860404E+01  0.20200537918E+02  0.10500000000E+00 0.  1.
    3000001    1    5    5    0    0 -0.59214303990E+00 -0.21860062391E+02  0.11114999782E+02  0.24551093280E+02  0.10000000000E+01 0.  1.
        -13    1    6    6    0    0 -0.76416866879E+01 -0.18287213209E+02  0.10863876630E+02  0.22602043775E+02  0.10500000000E+00 0.  1.
         13    1    6    6    0    0 -0.50959386782E+01 -0.12424293354E+02  0.74285651388E+01  0.15346864871E+02  0.10500000000E+00 0. -1.
</event>
<event>
11    0  0.3510903E-009  0.9118800E+02  0.7816531E-02  0.1126479E+00
         25   -1    0    0    0    0  0.00000000000E+00  0.00000000000E+00  0.99999998245E-14  0.12500000000E+03  0.12500000000E+03 0.  0.
    3000001    1    3    3    0    0  0.48520705737E+02  0.21043888334E+02 -0.15378787776E+02  0.55087305569E+02  0.10000000000E+01 0.  1.
    1000022    2    1    0    0    0  0.55699328455E+02  0.20317549981E+02 -0.17059659780E+02  0.62499999889E+02  0.99999983324E+01 0.  0.
    3000022    2    3    3    0    0  0.71786227182E+01 -0.72633835257E+00 -0.16808720037E+01  0.74126943191E+01  0.25002968408E+00 0.  0.
    1000022    2    1    0    0    0 -0.55699328455E+02 -0.20317549981E+02  0.17059659780E+02  0.62500000111E+02  0.99999997256E+01 0.  0.
    3000022    2    5    5    0    0 -0.32543968640E+02 -0.16955748021E+02  0.10974382976E+02  0.38302830972E+02  0.24998592323E+00 0.  0.
        -13    1    4    4    0    0  0.23191569575E+01 -0.26784586654E+00 -0.50349865194E+00  0.23905577370E+01  0.10500000000E+00 0. -1.
         13    1    4    4    0    0  0.48594657607E+01 -0.45849248603E+00 -0.11773733518E+01  0.50221365821E+01  0.10500000000E+00 0.  1.
    3000001    1    5    5    0    0 -0.23155359815E+02 -0.33618019607E+01  0.60852768040E+01  0.24197169140E+02  0.10000000000E+01 0.  1.
        -13    1    6    6    0    0 -0.10133730764E+02 -0.53207564554E+01  0.33889363563E+01  0.11937288766E+02  0.10500000000E+00 0. -1.
         13    1    6    6    0    0 -0.22410237876E+02 -0.11634991565E+02  0.75854466197E+01  0.26365542206E+02  0.10500000000E+00 0.  1.
</event>
<event>
11    0  0.3510903E-009  0.9118800E+02  0.7816531E-02  0.1126479E+00
         25   -1    0    0    0    0  0.00000000000E+00  0.00000000000E+00  0.99999998245E-14  0.12500000000E+03  0.12500000000E+03 0.  0.
    3000001    1    3    3    0    0 -0.50194250172E+01 -0.10974351032E+01 -0.39275004272E+01  0.65440240613E+01  0.10000000000E+01 0. -1.
    1000022    2    1    0    0    0 -0.47376108390E+02  0.17243807648E+02 -0.35558489316E+02  0.62500004701E+02  0.99999938381E+01 0.  0.
    3000022    2    3    3    0    0 -0.42356683373E+02  0.18341242752E+02 -0.31630988889E+02  0.55955980640E+02  0.24999844857E+00 0.  0.
    1000022    2    1    0    0    0  0.47376108390E+02 -0.17243807648E+02  0.35558489316E+02  0.62499995299E+02  0.99999350731E+01 0.  0.
    3000022    2    5    5    0    0  0.25492454761E+02 -0.47751295800E+01  0.14919374481E+02  0.29921854005E+02  0.24999994342E+00 0.  0.
        -13    1    4    4    0    0 -0.30988619563E+02  0.13380576821E+02 -0.23123766725E+02  0.40915204888E+02  0.10500000000E+00 0.  1.
         13    1    4    4    0    0 -0.11368063811E+02  0.49606659303E+01 -0.85072221645E+01  0.15040775752E+02  0.10500000000E+00 0. -1.
    3000001    1    5    5    0    0  0.21883653629E+02 -0.12468678068E+02  0.20639114836E+02  0.32578141293E+02  0.10000000000E+01 0. -1.
        -13    1    6    6    0    0  0.77610073883E+01 -0.14681730225E+01  0.45956452559E+01  0.91389139411E+01  0.10500000000E+00 0.  1.
         13    1    6    6    0    0  0.17731447373E+02 -0.33069565574E+01  0.10323729225E+02  0.20782940064E+02  0.10500000000E+00 0. -1.
</event>
<event>
11    0  0.3510903E-009  0.9118800E+02  0.7816531E-02  0.1126479E+00
         25   -1    0    0    0    0  0.00000000000E+00  0.00000000000E+00  0.99999998245E-14  0.12500000000E+03  0.12500000000E+03 0.  0.
    3000001    1    3    3    0    0  0.29781587166E+01  0.53300827494E+01  0.14004445312E+02  0.15310248200E+02  0.10000000000E+01 0. -1.
    1000022    2    1    0    0    0  0.44931940486E+01  0.35501140395E+02  0.50256645173E+02  0.62499998624E+02  0.99999840923E+01 0.  0.
    3000022    2    3    3    0    0  0.15150353320E+01  0.30171057645E+02  0.36252199861E+02  0.47189750424E+02  0.24999756751E+00 0.  0.
    1000022    2    1    0    0    0 -0.44931940486E+01 -0.35501140395E+02 -0.50256645173E+02  0.62500001376E+02  0.10000001297E+02 0.  0.
    3000022    2    5    5    0    0 -0.45456397156E+01 -0.29693051135E+02 -0.46961808643E+02  0.55747772177E+02  0.25001119415E+00 0.  0.
        -13    1    4    4    0    0  0.10393261639E+01  0.21217407627E+02  0.25548993178E+02  0.33226806387E+02  0.10500000000E+00 0.  1.
         13    1    4    4    0    0  0.47570916804E+00  0.89536500187E+01  0.10703206683E+02  0.13962944037E+02  0.10500000000E+00 0. -1.
    3000001    1    5    5    0    0  0.52445666963E-01 -0.58080892596E+01 -0.32948365299E+01  0.67522291989E+01  0.10000000000E+01 0. -1.
        -13    1    6    6    0    0 -0.18484087611E+01 -0.12239433613E+02 -0.19461569900E+02  0.23064780036E+02  0.10500000000E+00 0.  1.
         13    1    6    6    0    0 -0.26972309544E+01 -0.17453617522E+02 -0.27500238743E+02  0.32682992142E+02  0.10500000000E+00 0. -1.
</event>
<event>
11    0  0.3510903E-009  0.9118800E+02  0.7816531E-02  0.1126479E+00
         25   -1    0    0    0    0  0.00000000000E+00  0.00000000000E+00  0.99999998245E-14  0.12500000000E+03  0.12500000000E+03 0.  0.
    3000001    1    3    3    0    0 -0.24653198397E+01  0.17757065535E+02 -0.27547008243E+02  0.32882044363E+02  0.10000000000E+01 0. -1.
    1000022    2    1    0    0    0 -0.10369515087E+02  0.38794975650E+02 -0.46836663326E+02  0.62499999310E+02  0.99999951716E+01 0.  0.
    3000022    2    3    3    0    0 -0.79041952472E+01  0.21037910115E+02 -0.19289655082E+02  0.29617954947E+02  0.24999505837E+00 0.  0.
    1000022    2    1    0    0    0  0.10369515087E+02 -0.38794975650E+02  0.46836663326E+02  0.62500000690E+02  0.10000003799E+02 0.  0.
    3000022    2    5    5    0    0 -0.17533968276E+00 -0.18556117380E+01 -0.45511158310E-01  0.18811187088E+01  0.24999480875E+00 0.  0.
        -13    1    4    4    0    0 -0.31375329117E+01  0.83210262862E+01 -0.75518505475E+01  0.11667264586E+02  0.10500000000E+00 0. -1.
         13    1    4    4    0    0 -0.47666623355E+01  0.12716883829E+02 -0.11737804535E+02  0.17950690361E+02  0.10500000000E+00 0.  1.
    3000001    1    5    5    0    0  0.10544854770E+02 -0.36939363912E+02  0.46882174484E+02  0.60618881981E+02  0.10000000000E+01 0.  1.
        -13    1    6    6    0    0 -0.33009920003E-01 -0.66429092904E+00 -0.65923333071E-01  0.67656705438E+00  0.10500000000E+00 0.  1.
         13    1    6    6    0    0 -0.14232976275E+00 -0.11913208090E+01  0.20412174762E-01  0.12045516544E+01  0.10500000000E+00 0. -1.
</event>
<event>
11    0  0.3510903E-009  0.9118800E+02  0.7816531E-02  0.1126479E+00
         25   -1    0    0    0    0  0.00000000000E+00  0.00000000000E+00  0.99999998245E-14  0.12500000000E+03  0.12500000000E+03 0.  0.
    3000001    1    3    3    0    0 -0.11838912412E+02  0.18061732527E+02  0.87976497674E+01  0.23340622751E+02  0.10000000000E+01 0. -1.
    1000022    2    1    0    0    0 -0.31941371670E+02  0.51580591039E+02  0.11200055697E+02  0.62499999595E+02  0.10000005286E+02 0.  0.
    3000022    2    3    3    0    0 -0.20102459259E+02  0.33518858512E+02  0.24024059299E+01  0.39159376844E+02  0.24999285410E+00 0.  0.
    1000022    2    1    0    0    0  0.31941371670E+02 -0.51580591039E+02 -0.11200055697E+02  0.62500000405E+02  0.10000010344E+02 0.  0.
    3000022    2    5    5    0    0  0.26126962104E+02 -0.47310839642E+02 -0.11307658079E+02  0.55216476953E+02  0.24999892477E+00 0.  0.
        -13    1    4    4    0    0 -0.64442064101E+01  0.10807625421E+02  0.73359058683E+00  0.12604830171E+02  0.10500000000E+00 0.  1.
         13    1    4    4    0    0 -0.13658252849E+02  0.22711233091E+02  0.16688153430E+01  0.26554546673E+02  0.10500000000E+00 0. -1.
    3000001    1    5    5    0    0  0.58144095666E+01 -0.42697513963E+01  0.10760238175E+00  0.72835234513E+01  0.10000000000E+01 0. -1.
        -13    1    6    6    0    0  0.90605082673E+01 -0.16469334071E+02 -0.38845042541E+01  0.19194587078E+02  0.10500000000E+00 0. -1.
         13    1    6    6    0    0  0.17066453836E+02 -0.30841505571E+02 -0.74231538250E+01  0.36021889875E+02  0.10500000000E+00 0.  1.
</event>
<event>
11    0  0.3510903E-009  0.9118800E+02  0.7816531E-02  0.1126479E+00
         25   -1    0    0    0    0  0.00000000000E+00  0.00000000000E+00  0.99999998245E-14  0.12500000000E+03  0.12500000000E+03 0.  0.
    3000001    1    3    3    0    0 -0.15361277260E+02 -0.20224467731E+02 -0.43272415957E+02  0.50184658181E+02  0.10000000000E+01 0.  1.
    1000022    2    1    0    0    0 -0.15540609715E+02 -0.28278815717E+02 -0.52583724496E+02  0.62500000103E+02  0.99999981171E+01 0.  0.
    3000022    2    3    3    0    0 -0.17933245499E+00 -0.80543479858E+01 -0.93113085393E+01  0.12315341922E+02  0.24999664864E+00 0.  0.
    1000022    2    1    0    0    0  0.15540609715E+02  0.28278815717E+02  0.52583724496E+02  0.62499999897E+02  0.99999968294E+01 0.  0.
    3000022    2    5    5    0    0  0.16370710532E+01  0.26631309477E+00  0.70857794014E+01  0.72815998993E+01  0.25000614036E+00 0.  0.
        -13    1    4    4    0    0 -0.12111709214E+00 -0.35151552321E+01 -0.41419931723E+01  0.54348981679E+01  0.10500000000E+00 0. -1.
         13    1    4    4    0    0 -0.58215362844E-01 -0.45391927537E+01 -0.51693153671E+01  0.68804437537E+01  0.10500000000E+00 0.  1.
    3000001    1    5    5    0    0  0.13903538662E+02  0.28012502622E+02  0.45497945095E+02  0.55218399998E+02  0.10000000000E+01 0.  1.
        -13    1    6    6    0    0  0.88444336572E+00  0.18971382165E+00  0.36384816472E+01  0.37507072797E+01  0.10500000000E+00 0.  1.
         13    1    6    6    0    0  0.75262768752E+00  0.76599273124E-01  0.34472977542E+01  0.35308926195E+01  0.10500000000E+00 0. -1.
</event>
<event>
11    0  0.3510903E-009  0.9118800E+02  0.7816531E-02  0.1126479E+00
         25   -1    0    0    0    0  0.00000000000E+00  0.00000000000E+00  0.99999998245E-14  0.12500000000E+03  0.12500000000E+03 0.  0.
    3000001    1    3    3    0    0 -0.97365571285E+01 -0.66581874375E+01 -0.49636720991E+02  0.51028776935E+02  0.10000000000E+01 0. -1.
    1000022    2    1    0    0    0 -0.11496281718E+02 -0.34789282053E+01 -0.60514318184E+02  0.62499999329E+02  0.99999888028E+01 0.  0.
    3000022    2    3    3    0    0 -0.17597245893E+01  0.31792592321E+01 -0.10877597193E+02  0.11471222395E+02  0.25000528099E+00 0.  0.
    1000022    2    1    0    0    0  0.11496281718E+02  0.34789282053E+01  0.60514318184E+02  0.62500000671E+02  0.99999971878E+01 0.  0.
    3000022    2    5    5    0    0  0.78798801457E+01  0.17263207649E+01  0.55077185432E+02  0.55665353223E+02  0.24999967824E+00 0.  0.
        -13    1    4    4    0    0 -0.12928404469E+01  0.23633115068E+01 -0.79623441486E+01  0.84063444517E+01  0.10500000000E+00 0.  1.
         13    1    4    4    0    0 -0.46688414240E+00  0.81594772537E+00 -0.29152530443E+01  0.30648779429E+01  0.10500000000E+00 0. -1.
    3000001    1    5    5    0    0  0.36164015720E+01  0.17526074404E+01  0.54371327524E+01  0.68346474480E+01  0.10000000000E+01 0.  1.
        -13    1    6    6    0    0  0.22414420711E+01  0.50369291024E+00  0.15968646262E+02  0.16133395723E+02  0.10500000000E+00 0. -1.
         13    1    6    6    0    0  0.56384380746E+01  0.12226278547E+01  0.39108539170E+02  0.39531957500E+02  0.10500000000E+00 0.  1.
</event>
<event>
11    0  0.3510903E-009  0.9118800E+02  0.7816531E-02  0.1126479E+00
         25   -1    0    0    0    0  0.00000000000E+00  0.00000000000E+00  0.99999998245E-14  0.12500000000E+03  0.12500000000E+03 0.  0.
    3000001    1    3    3    0    0 -0.37037616768E+02 -0.86369894134E+01 -0.67982742530E+01  0.38647110821E+02  0.10000000000E+01 0.  1.
    1000022    2    1    0    0    0 -0.60823281634E+02 -0.70393505997E+01 -0.75647830157E+01  0.62500000511E+02  0.10000003812E+02 0.  0.
    3000022    2    3    3    0    0 -0.23785664866E+02  0.15976388137E+01 -0.76650876270E+00  0.23852889690E+02  0.25001600105E+00 0.  0.
    1000022    2    1    0    0    0  0.60823281634E+02  0.70393505997E+01  0.75647830157E+01  0.62499999489E+02  0.99999974230E+01 0.  0.
    3000022    2    5    5    0    0  0.44836588300E+02  0.13358124420E+01  0.33486613430E+01  0.44981997513E+02  0.25004441827E+00 0.  0.
        -13    1    4    4    0    0 -0.16032716429E+02  0.11181792092E+01 -0.54851690332E+00  0.16081362400E+02  0.10500000000E+00 0.  1.
         13    1    4    4    0    0 -0.77529484368E+01  0.47945960448E+00 -0.21799185938E+00  0.77715272905E+01  0.10500000000E+00 0. -1.
    3000001    1    5    5    0    0  0.15986693334E+02  0.57035381577E+01  0.42161216727E+01  0.17518001976E+02  0.10000000000E+01 0. -1.
        -13    1    6    6    0    0  0.27525616867E+02  0.88167785359E+00  0.20547299355E+01  0.27616478411E+02  0.10500000000E+00 0. -1.
         13    1    6    6    0    0  0.17310971433E+02  0.45413458843E+00  0.12939314075E+01  0.17365519101E+02  0.10500000000E+00 0.  1.
</event>
<event>
11    0  0.3510903E-009  0.9118800E+02  0.7816531E-02  0.1126479E+00
         25   -1    0    0    0    0  0.00000000000E+00  0.00000000000E+00  0.99999998245E-14  0.12500000000E+03  0.12500000000E+03 0.  0.
    3000001    1    3    3    0    0  0.62470457968E+01 -0.30944101606E+02 -0.18799507754E+01  0.31640120422E+02  0.10000000000E+01 0.  1.
    1000022    2    1    0    0    0  0.21420052752E+02 -0.57812136608E+02 -0.22777788711E+01  0.62500000581E+02  0.99999998482E+01 0.  0.
    3000022    2    3    3    0    0  0.15173006956E+02 -0.26868035002E+02 -0.39782809563E+00  0.30859880160E+02  0.24998262838E+00 0.  0.
    1000022    2    1    0    0    0 -0.21420052752E+02  0.57812136608E+02  0.22777788711E+01  0.62499999419E+02  0.99999925807E+01 0.  0.
    3000022    2    5    5    0    0 -0.51919274198E+01  0.22323289178E+02  0.46675924319E+01  0.23390901339E+02  0.24999257639E+00 0.  0.
        -13    1    4    4    0    0  0.10355045417E+02 -0.18408645088E+02 -0.23749364041E+00  0.21122798294E+02  0.10500000000E+00 0.  1.
         13    1    4    4    0    0  0.48179615383E+01 -0.84593899148E+01 -0.16033445523E+00  0.97370818654E+01  0.10500000000E+00 0. -1.
    3000001    1    5    5    0    0 -0.16228125333E+02  0.35488847431E+02 -0.23898135609E+01  0.39109098080E+02  0.10000000000E+01 0.  1.
        -13    1    6    6    0    0 -0.16563237984E+01  0.69730493374E+01  0.14961420317E+01  0.73223146317E+01  0.10500000000E+00 0.  1.
         13    1    6    6    0    0 -0.35356036214E+01  0.15350239840E+02  0.31714504002E+01  0.16068586707E+02  0.10500000000E+00 0. -1.
</event>
<event>
11    0  0.3510903E-009  0.9118800E+02  0.7816531E-02  0.1126479E+00
         25   -1    0    0    0    0  0.00000000000E+00  0.00000000000E+00  0.99999998245E-14  0.12500000000E+03  0.12500000000E+03 0.  0.
    3000001    1    3    3    0    0  0.25178061537E+02 -0.35217330927E+02  0.40596251178E+01  0.43493398770E+02  0.10000000000E+01 0. -1.
    1000022    2    1    0    0    0  0.35545472227E+02 -0.50421175965E+02 -0.68888249417E+00  0.62500001070E+02  0.99999996592E+01 0.  0.
    3000022    2    3    3    0    0  0.10367410690E+02 -0.15203845037E+02 -0.47485076120E+01  0.19006602301E+02  0.24999629888E+00 0.  0.
    1000022    2    1    0    0    0 -0.35545472227E+02  0.50421175965E+02  0.68888249417E+00  0.62499998930E+02  0.99999862833E+01 0.  0.
    3000022    2    5    5    0    0 -0.50279380774E+01  0.24098826712E+01  0.47491668881E+00  0.56014053126E+01  0.24999963119E+00 0.  0.
        -13    1    4    4    0    0  0.29627701431E+01 -0.43535337181E+01 -0.13162256905E+01  0.54290641757E+01  0.10500000000E+00 0. -1.
         13    1    4    4    0    0  0.74046405465E+01 -0.10850311319E+02 -0.34322819215E+01  0.13577538125E+02  0.10500000000E+00 0.  1.
    3000001    1    5    5    0    0 -0.30517534150E+02  0.48011293293E+02  0.21396580535E+00  0.56898593617E+02  0.10000000000E+01 0. -1.
        -13    1    6    6    0    0 -0.19289123392E+01  0.87222226634E+00  0.14189316677E+00  0.21242959222E+01  0.10500000000E+00 0.  1.
         13    1    6    6    0    0 -0.30990257381E+01  0.15376604049E+01  0.33302352205E+00  0.34771093904E+01  0.10500000000E+00 0. -1.
</event>
<event>
11    0  0.3510903E-009  0.9118800E+02  0.7816531E-02  0.1126479E+00
         25   -1    0    0    0    0  0.00000000000E+00  0.00000000000E+00  0.99999998245E-14  0.12500000000E+03  0.12500000000E+03 0.  0.
    3000001    1    3    3    0    0  0.17544564893E+02  0.17332219930E+02  0.15142225099E+02  0.28956943656E+02  0.10000000000E+01 0.  1.
    1000022    2    1    0    0    0  0.32391853620E+02  0.44816769698E+02  0.27358271369E+02  0.62500001732E+02  0.10000008851E+02 0.  0.
    3000022    2    3    3    0    0  0.14847288728E+02  0.27484549769E+02  0.12216046271E+02  0.33543058076E+02  0.25000010044E+00 0.  0.
    1000022    2    1    0    0    0 -0.32391853620E+02 -0.44816769698E+02 -0.27358271369E+02  0.62499998268E+02  0.99999871999E+01 0.  0.
    3000022    2    5    5    0    0 -0.32260200641E+01 -0.33835298945E+01  0.43202758142E+00  0.47015560444E+01  0.25000281366E+00 0.  0.
        -13    1    4    4    0    0  0.55306885277E+01  0.10153288538E+02  0.45684925270E+01  0.12432213507E+02  0.10500000000E+00 0. -1.
         13    1    4    4    0    0  0.93166002000E+01  0.17331261231E+02  0.76475537435E+01  0.21110844569E+02  0.10500000000E+00 0.  1.
    3000001    1    5    5    0    0 -0.29165833556E+02 -0.41433239804E+02 -0.27790298951E+02  0.57798442223E+02  0.10000000000E+01 0. -1.
        -13    1    6    6    0    0 -0.20921754486E+01 -0.21906642537E+01  0.22268620886E+00  0.30392140642E+01  0.10500000000E+00 0.  1.
         13    1    6    6    0    0 -0.11338446155E+01 -0.11928656407E+01  0.20934137257E+00  0.16623419802E+01  0.10500000000E+00 0. -1.
</event>
<event>
11    0  0.3510903E-009  0.9118800E+02  0.7816531E-02  0.1126479E+00
         25   -1    0    0    0    0  0.00000000000E+00  0.00000000000E+00  0.99999998245E-14  0.12500000000E+03  0.12500000000E+03 0.  0.
    3000001    1    3    3    0    0 -0.16567856474E+02  0.94208736482E+01 -0.29457891008E+02  0.35100057992E+02  0.10000000000E+01 0. -1.
    1000022    2    1    0    0    0 -0.24691916291E+02  0.23976910404E+02 -0.51202217346E+02  0.62499999256E+02  0.99999941580E+01 0.  0.
    3000022    2    3    3    0    0 -0.81240598171E+01  0.14556036756E+02 -0.21744326338E+02  0.27399941263E+02  0.24999876906E+00 0.  0.
    1000022    2    1    0    0    0  0.24691916291E+02 -0.23976910404E+02  0.51202217346E+02  0.62500000744E+02  0.10000003461E+02 0.  0.
    3000022    2    5    5    0    0  0.15421630843E+02 -0.11766652116E+02  0.35956766678E+02  0.40856240308E+02  0.25000460139E+00 0.  0.
        -13    1    4    4    0    0 -0.35685986761E+01  0.62663244683E+01 -0.93716597673E+01  0.11825428138E+02  0.10500000000E+00 0.  1.
         13    1    4    4    0    0 -0.45554611410E+01  0.82897122873E+01 -0.12372666571E+02  0.15574513125E+02  0.10500000000E+00 0. -1.
    3000001    1    5    5    0    0  0.92702854480E+01 -0.12210258287E+02  0.15245450668E+02  0.21643760436E+02  0.10000000000E+01 0. -1.
        -13    1    6    6    0    0  0.75430239677E+01 -0.57005659243E+01  0.17416321086E+02  0.19817490447E+02  0.10500000000E+00 0. -1.
         13    1    6    6    0    0  0.78786068755E+01 -0.60660861920E+01  0.18540445592E+02  0.21038749862E+02  0.10500000000E+00 0.  1.
</event>
<event>
11    0  0.3510903E-009  0.9118800E+02  0.7816531E-02  0.1126479E+00
         25   -1    0    0    0    0  0.00000000000E+00  0.00000000000E+00  0.99999998245E-14  0.12500000000E+03  0.12500000000E+03 0.  0.
    3000001    1    3    3    0    0  0.44190737281E+01  0.47970766683E+02 -0.15001952297E+02  0.50465644170E+02  0.10000000000E+01 0.  1.
    1000022    2    1    0    0    0  0.93720766992E+01  0.58910387142E+02 -0.15747392430E+02  0.62499999834E+02  0.10000003798E+02 0.  0.
    3000022    2    3    3    0    0  0.49530029710E+01  0.10939620459E+02 -0.74544013314E+00  0.12034355663E+02  0.25000205141E+00 0.  0.
    1000022    2    1    0    0    0 -0.93720766992E+01 -0.58910387142E+02  0.15747392430E+02  0.62500000166E+02  0.10000005879E+02 0.  0.
    3000022    2    5    5    0    0  0.51702114554E+00 -0.19009876797E+02  0.19095954402E+01  0.19114177511E+02  0.25000093323E+00 0.  0.
        -13    1    4    4    0    0  0.35782281676E+01  0.79903738855E+01 -0.54879859085E+00  0.87727986722E+01  0.10500000000E+00 0. -1.
         13    1    4    4    0    0  0.13747748034E+01  0.29492465732E+01 -0.19664154229E+00  0.32615569911E+01  0.10500000000E+00 0.  1.
    3000001    1    5    5    0    0 -0.98890978447E+01 -0.39900510345E+02  0.13837796990E+02  0.43385822655E+02  0.10000000000E+01 0.  1.
        -13    1    6    6    0    0  0.22063792844E+00 -0.63520287866E+01  0.66271544043E+00  0.63911788863E+01  0.10500000000E+00 0. -1.
         13    1    6    6    0    0  0.29638321710E+00 -0.12657848011E+02  0.12468799998E+01  0.12722998625E+02  0.10500000000E+00 0.  1.
</event>
<event>
11    0  0.3510903E-009  0.9118800E+02  0.7816531E-02  0.1126479E+00
         25   -1    0    0    0    0  0.00000000000E+00  0.00000000000E+00  0.99999998245E-14  0.12500000000E+03  0.12500000000E+03 0.  0.
    3000001    1    3    3    0    0 -0.65973461309E-01  0.56862414402E+00 -0.39802471267E+01  0.41436762789E+01  0.10000000000E+01 0.  1.
    1000022    2    1    0    0    0  0.80996107332E+01  0.39238293260E+02 -0.46914836386E+02  0.62500008500E+02  0.10000091870E+02 0.  0.
    3000022    2    3    3    0    0  0.81655841945E+01  0.38669669116E+02 -0.42934589260E+02  0.58356332221E+02  0.24996134719E+00 0.  0.
    1000022    2    1    0    0    0 -0.80996107332E+01 -0.39238293260E+02  0.46914836386E+02  0.62499991500E+02  0.99999856168E+01 0.  0.
    3000022    2    5    5    0    0 -0.28693062289E+00 -0.48865100037E+01  0.17337542168E+01  0.51989167333E+01  0.25004462970E+00 0.  0.
        -13    1    4    4    0    0  0.31477279283E+01  0.15131046039E+02 -0.16850372302E+02  0.22864881741E+02  0.10500000000E+00 0. -1.
         13    1    4    4    0    0  0.50178562661E+01  0.23538623077E+02 -0.26084216958E+02  0.35491450480E+02  0.10500000000E+00 0.  1.
    3000001    1    5    5    0    0 -0.78126801103E+01 -0.34351783256E+02  0.45181082169E+02  0.57301074766E+02  0.10000000000E+01 0. -1.
        -13    1    6    6    0    0 -0.88759226184E-01 -0.26515688668E+01  0.94513075940E+00  0.28183315646E+01  0.10500000000E+00 0. -1.
         13    1    6    6    0    0 -0.19817139670E+00 -0.22349411368E+01  0.78862345741E+00  0.23805851686E+01  0.10500000000E+00 0.  1.
</event>
<event>
11    0  0.3510903E-009  0.9118800E+02  0.7816531E-02  0.1126479E+00
         25   -1    0    0    0    0  0.00000000000E+00  0.00000000000E+00  0.99999998245E-14  0.12500000000E+03  0.12500000000E+03 0.  0.
    3000001    1    3    3    0    0  0.19354652596E+02 -0.24036180171E+00 -0.13939973558E+02  0.23874321220E+02  0.10000000000E+01 0. -1.
    1000022    2    1    0    0    0  0.50038159305E+02  0.11678836545E+02 -0.34147289077E+02  0.62499999670E+02  0.99999998845E+01 0.  0.
    3000022    2    3    3    0    0  0.30683506709E+02  0.11919198347E+02 -0.20207315519E+02  0.38625678450E+02  0.25012401018E+00 0.  0.
    1000022    2    1    0    0    0 -0.50038159305E+02 -0.11678836545E+02  0.34147289077E+02  0.62500000330E+02  0.10000004012E+02 0.  0.
    3000022    2    5    5    0    0 -0.25745626056E+02 -0.12077751238E+01  0.18775567918E+02  0.31888562756E+02  0.25000448229E+00 0.  0.
        -13    1    4    4    0    0  0.15631712005E+02  0.60353599082E+01 -0.10355118530E+02  0.19698108899E+02  0.10500000000E+00 0.  1.
         13    1    4    4    0    0  0.15051794704E+02  0.58838384383E+01 -0.98521969894E+01  0.18927569551E+02  0.10500000000E+00 0. -1.
    3000001    1    5    5    0    0 -0.24292533250E+02 -0.10471061421E+02  0.15371721159E+02  0.30611437574E+02  0.10000000000E+01 0. -1.
        -13    1    6    6    0    0 -0.69894226144E+01 -0.31581432342E+00  0.50544890382E+01  0.86319552598E+01  0.10500000000E+00 0.  1.
         13    1    6    6    0    0 -0.18756203441E+02 -0.89196080034E+00  0.13721078880E+02  0.23256607496E+02  0.10500000000E+00 0. -1.
</event>
<event>
11    0  0.3510903E-009  0.9118800E+02  0.7816531E-02  0.1126479E+00
         25   -1    0    0    0    0  0.00000000000E+00  0.00000000000E+00  0.99999998245E-14  0.12500000000E+03  0.12500000000E+03 0.  0.
    3000001    1    3    3    0    0 -0.10370050806E+02 -0.32424048016E+01  0.13602374021E+02  0.17437767105E+02  0.10000000000E+01 0.  1.
    1000022    2    1    0    0    0 -0.24258283987E+02 -0.66430590226E+01  0.56335204329E+02  0.62499999127E+02  0.10000003444E+02 0.  0.
    3000022    2    3    3    0    0 -0.13888233181E+02 -0.34006542210E+01  0.42732830308E+02  0.45062232022E+02  0.24999719538E+00 0.  0.
    1000022    2    1    0    0    0  0.24258283987E+02  0.66430590226E+01 -0.56335204329E+02  0.62500000873E+02  0.10000014360E+02 0.  0.
    3000022    2    5    5    0    0  0.12519844787E+01 -0.16369994528E+01 -0.87286582969E+01  0.89721351347E+01  0.25000173556E+00 0.  0.
        -13    1    4    4    0    0 -0.46491203313E+01 -0.11913423419E+01  0.14396016532E+02  0.15175306700E+02  0.10500000000E+00 0. -1.
         13    1    4    4    0    0 -0.92391128498E+01 -0.22093118791E+01  0.28336813776E+02  0.29886925322E+02  0.10500000000E+00 0.  1.
    3000001    1    5    5    0    0  0.23006299508E+02  0.82800584753E+01 -0.47606546032E+02  0.53527865739E+02  0.10000000000E+01 0. -1.
        -13    1    6    6    0    0  0.34611445105E+00 -0.52536999506E+00 -0.27563358384E+01  0.28291732183E+01  0.10500000000E+00 0. -1.
         13    1    6    6    0    0  0.90587002762E+00 -0.11116294577E+01 -0.59723224585E+01  0.61429619164E+01  0.10500000000E+00 0.  1.
</event>
<event>
11    0  0.3510903E-009  0.9118800E+02  0.7816531E-02  0.1126479E+00
         25   -1    0    0    0    0  0.00000000000E+00  0.00000000000E+00  0.99999998245E-14  0.12500000000E+03  0.12500000000E+03 0.  0.
    3000001    1    3    3    0    0 -0.50392364269E+02  0.15600171630E+02 -0.34306594694E+01  0.52872726011E+02  0.10000000000E+01 0. -1.
    1000022    2    1    0    0    0 -0.57644687157E+02  0.20857560345E+02 -0.69499782493E+01  0.62500000897E+02  0.10000006668E+02 0.  0.
    3000022    2    3    3    0    0 -0.72523228886E+01  0.52573887154E+01 -0.35193187799E+01  0.96272748851E+01  0.24998730691E+00 0.  0.
    1000022    2    1    0    0    0  0.57644687157E+02 -0.20857560345E+02  0.69499782493E+01  0.62499999103E+02  0.99999954619E+01 0.  0.
    3000022    2    5    5    0    0  0.32678224008E+01 -0.28830628931E+00  0.25969170365E+01  0.41914510586E+01  0.25000024571E+00 0.  0.
        -13    1    4    4    0    0 -0.23863599961E+01  0.16882863209E+01 -0.11062198850E+01  0.31272627274E+01  0.10500000000E+00 0. -1.
         13    1    4    4    0    0 -0.48659628925E+01  0.35691023944E+01 -0.24130988949E+01  0.65000121577E+01  0.10500000000E+00 0.  1.
    3000001    1    5    5    0    0  0.54376864757E+02 -0.20569254056E+02  0.43530612128E+01  0.58308548045E+02  0.10000000000E+01 0. -1.
        -13    1    6    6    0    0  0.17547025110E+01 -0.10888358375E+00  0.13279476730E+01  0.22057439922E+01  0.10500000000E+00 0. -1.
         13    1    6    6    0    0  0.15131198898E+01 -0.17942270557E+00  0.12689693635E+01  0.19857070664E+01  0.10500000000E+00 0.  1.
</event>
<event>
11    0  0.3510903E-009  0.9118800E+02  0.7816531E-02  0.1126479E+00
         25   -1    0    0    0    0  0.00000000000E+00  0.00000000000E+00  0.99999998245E-14  0.12500000000E+03  0.12500000000E+03 0.  0.
    3000001    1    3    3    0    0 -0.28833098319E+01  0.10772249803E+02  0.23054313780E+01  0.11431091604E+02  0.10000000000E+01 0.  1.
    1000022    2    1    0    0    0 -0.29750543492E+02  0.54023144499E+02 -0.16294011325E+01  0.62500001506E+02  0.10000013030E+02 0.  0.
    3000022    2    3    3    0    0 -0.26867233660E+02  0.43250894695E+02 -0.39348325105E+01  0.51068909902E+02  0.25003047569E+00 0.  0.
    1000022    2    1    0    0    0  0.29750543492E+02 -0.54023144499E+02  0.16294011325E+01  0.62499998494E+02  0.99999942072E+01 0.  0.
    3000022    2    5    5    0    0  0.17316128213E+02 -0.33799870615E+02 -0.36696982927E+01  0.38155061760E+02  0.25000486106E+00 0.  0.
        -13    1    4    4    0    0 -0.18367945518E+02  0.29593134506E+02 -0.27399673451E+01  0.34937851658E+02  0.10500000000E+00 0. -1.
         13    1    4    4    0    0 -0.84992881416E+01  0.13657760189E+02 -0.11948651654E+01  0.16131058244E+02  0.10500000000E+00 0.  1.
    3000001    1    5    5    0    0  0.12434415279E+02 -0.20223273883E+02  0.52990994252E+01  0.24344936734E+02  0.10000000000E+01 0.  1.
        -13    1    6    6    0    0  0.11762609016E+02 -0.23062092262E+02 -0.24824372714E+01  0.26007548715E+02  0.10500000000E+00 0. -1.
         13    1    6    6    0    0  0.55535191970E+01 -0.10737778353E+02 -0.11872610214E+01  0.12147513045E+02  0.10500000000E+00 0.  1.
</event>
<event>
11    0  0.3510903E-009  0.9118800E+02  0.7816531E-02  0.1126479E+00
         25   -1    0    0    0    0  0.00000000000E+00  0.00000000000E+00  0.99999998245E-14  0.12500000000E+03  0.12500000000E+03 0.  0.
    3000001    1    3    3    0    0  0.24793090202E+02 -0.33810416221E+01 -0.31943399945E+01  0.25245446564E+02  0.10000000000E+01 0. -1.
    1000022    2    1    0    0    0  0.61027927280E+02 -0.80778795927E+01  0.40730843914E+01  0.62499998952E+02  0.99999902848E+01 0.  0.
    3000022    2    3    3    0    0  0.36234837078E+02 -0.46968379707E+01  0.72674243859E+01  0.37254552388E+02  0.25002282601E+00 0.  0.
    1000022    2    1    0    0    0 -0.61027927280E+02  0.80778795927E+01 -0.40730843914E+01  0.62500001048E+02  0.10000003389E+02 0.  0.
    3000022    2    5    5    0    0 -0.33506351667E+02  0.93692392750E+01 -0.26495209160E+01  0.34893276016E+02  0.25000682027E+00 0.  0.
        -13    1    4    4    0    0  0.10593563231E+02 -0.13592510601E+01  0.20821692862E+01  0.10881985082E+02  0.10500000000E+00 0.  1.
         13    1    4    4    0    0  0.25641273847E+02 -0.33375869105E+01  0.51852550997E+01  0.26372567306E+02  0.10500000000E+00 0. -1.
    3000001    1    5    5    0    0 -0.27521575613E+02 -0.12913596823E+01 -0.14235634753E+01  0.27606725032E+02  0.10000000000E+01 0. -1.
        -13    1    6    6    0    0 -0.13903422243E+02  0.39399702627E+01 -0.10600784088E+01  0.14490110661E+02  0.10500000000E+00 0.  1.
         13    1    6    6    0    0 -0.19602929424E+02  0.54292690123E+01 -0.15894425072E+01  0.20403165355E+02  0.10500000000E+00 0. -1.
</event>
<event>
11    0  0.3510903E-009  0.9118800E+02  0.7816531E-02  0.1126479E+00
         25   -1    0    0    0    0  0.00000000000E+00  0.00000000000E+00  0.99999998245E-14  0.12500000000E+03  0.12500000000E+03 0.  0.
    3000001    1    3    3    0    0 -0.77363648629E+01 -0.27008225662E+02 -0.34825569753E+01  0.28327085939E+02  0.10000000000E+01 0.  1.
    1000022    2    1    0    0    0 -0.25055119651E+02 -0.56367863564E+02 -0.10746557865E+01  0.62500000722E+02  0.10000007083E+02 0.  0.
    3000022    2    3    3    0    0 -0.17318754788E+02 -0.29359637902E+02  0.24079011888E+01  0.34172914783E+02  0.25002295846E+00 0.  0.
    1000022    2    1    0    0    0  0.25055119651E+02  0.56367863564E+02  0.10746557865E+01  0.62499999278E+02  0.99999980583E+01 0.  0.
    3000022    2    5    5    0    0  0.17445674538E+02  0.44634304365E+02 -0.26389643334E+01  0.47995826058E+02  0.24999995486E+00 0.  0.
        -13    1    4    4    0    0 -0.82867653088E+01 -0.13923823737E+02  0.11686212796E+01  0.16245616252E+02  0.10500000000E+00 0. -1.
         13    1    4    4    0    0 -0.90319894792E+01 -0.15435814166E+02  0.12392799091E+01  0.17927298531E+02  0.10500000000E+00 0.  1.
    3000001    1    5    5    0    0  0.76094451128E+01  0.11733559199E+02  0.37136201199E+01  0.14504173220E+02  0.10000000000E+01 0. -1.
        -13    1    6    6    0    0  0.11265738072E+02  0.28967192657E+02 -0.17332089540E+01  0.31129248995E+02  0.10500000000E+00 0. -1.
         13    1    6    6    0    0  0.61799364657E+01  0.15667111708E+02 -0.90575537941E+00  0.16866577062E+02  0.10500000000E+00 0.  1.
</event>
<event>
11    0  0.3510903E-009  0.9118800E+02  0.7816531E-02  0.1126479E+00
         25   -1    0    0    0    0  0.00000000000E+00  0.00000000000E+00  0.99999998245E-14  0.12500000000E+03  0.12500000000E+03 0.  0.
    3000001    1    3    3    0    0  0.13024242094E+02  0.25595611352E+02 -0.26007353512E+02  0.38757562350E+02  0.10000000000E+01 0. -1.
    1000022    2    1    0    0    0  0.27765109038E+02  0.38216074285E+02 -0.39684766466E+02  0.62500000365E+02  0.99999871246E+01 0.  0.
    3000022    2    3    3    0    0  0.14740866944E+02  0.12620462933E+02 -0.13677412954E+02  0.23742438015E+02  0.24998974080E+00 0.  0.
    1000022    2    1    0    0    0 -0.27765109038E+02 -0.38216074285E+02  0.39684766466E+02  0.62499999635E+02  0.99999825668E+01 0.  0.
    3000022    2    5    5    0    0 -0.15493613930E+02 -0.28756091916E+02  0.25068528941E+02  0.41175946128E+02  0.25000271571E+00 0.  0.
        -13    1    4    4    0    0  0.86713280175E+01  0.75080603712E+01 -0.80861800890E+01  0.14034252155E+02  0.10500000000E+00 0. -1.
         13    1    4    4    0    0  0.60695389268E+01  0.51124025614E+01 -0.55912328651E+01  0.97081858597E+01  0.10500000000E+00 0.  1.
    3000001    1    5    5    0    0 -0.12271495108E+02 -0.94599823684E+01  0.14616237525E+02  0.21324053507E+02  0.10000000000E+01 0. -1.
        -13    1    6    6    0    0 -0.11605158179E+02 -0.21577311025E+02  0.18826535656E+02  0.30898374023E+02  0.10500000000E+00 0. -1.
         13    1    6    6    0    0 -0.38884557512E+01 -0.71787808914E+01  0.62419932844E+01  0.10277572105E+02  0.10500000000E+00 0.  1.
</event>
<event>
11    0  0.3510903E-009  0.9118800E+02  0.7816531E-02  0.1126479E+00
         25   -1    0    0    0    0  0.00000000000E+00  0.00000000000E+00  0.99999998245E-14  0.12500000000E+03  0.12500000000E+03 0.  0.
    3000001    1    3    3    0    0  0.28799200160E+02 -0.29131465783E+02 -0.42320058255E+02  0.58906905870E+02  0.10000000000E+01 0.  1.
    1000022    2    1    0    0    0  0.28606258762E+02 -0.29774802448E+02 -0.45840954053E+02  0.62499999048E+02  0.99999955659E+01 0.  0.
    3000022    2    3    3    0    0 -0.19294139727E+00 -0.64333666508E+00 -0.35208957974E+01  0.35930931774E+01  0.25000583542E+00 0.  0.
    1000022    2    1    0    0    0 -0.28606258762E+02  0.29774802448E+02  0.45840954053E+02  0.62500000952E+02  0.10000007468E+02 0.  0.
    3000022    2    5    5    0    0 -0.18045184162E+02  0.23109515364E+02  0.36785167858E+02  0.47041358960E+02  0.25001343549E+00 0.  0.
        -13    1    4    4    0    0 -0.46367869959E-01 -0.17035958651E+00 -0.83327516613E+00  0.85822192385E+00  0.10500000000E+00 0.  1.
         13    1    4    4    0    0 -0.14657352731E+00 -0.47297707856E+00 -0.26876206313E+01  0.27348712535E+01  0.10500000000E+00 0. -1.
    3000001    1    5    5    0    0 -0.10561074600E+02  0.66652870843E+01  0.90557861954E+01  0.15458641992E+02  0.10000000000E+01 0. -1.
        -13    1    6    6    0    0 -0.93823097752E+01  0.11927547551E+02  0.18973614882E+02  0.24296156362E+02  0.10500000000E+00 0. -1.
         13    1    6    6    0    0 -0.86628743871E+01  0.11181967813E+02  0.17811552976E+02  0.22745202598E+02  0.10500000000E+00 0.  1.
</event>
<event>
11    0  0.3510903E-009  0.9118800E+02  0.7816531E-02  0.1126479E+00
         25   -1    0    0    0    0  0.00000000000E+00  0.00000000000E+00  0.99999998245E-14  0.12500000000E+03  0.12500000000E+03 0.  0.
    3000001    1    3    3    0    0 -0.15433906916E+02 -0.21252914009E+02 -0.38265487022E+01  0.26561895857E+02  0.10000000000E+01 0.  1.
    1000022    2    1    0    0    0 -0.27988939564E+02 -0.52434847489E+02 -0.16536505603E+02  0.62499999978E+02  0.10000000525E+02 0.  0.
    3000022    2    3    3    0    0 -0.12555032648E+02 -0.31181933480E+02 -0.12709956901E+02  0.35938104121E+02  0.25000597302E+00 0.  0.
    1000022    2    1    0    0    0  0.27988939564E+02  0.52434847489E+02  0.16536505603E+02  0.62500000022E+02  0.10000000806E+02 0.  0.
    3000022    2    5    5    0    0  0.43083925711E+00  0.50379050555E+01  0.34452384033E+01  0.61235836636E+01  0.24999882990E+00 0.  0.
        -13    1    4    4    0    0 -0.86590559123E+01 -0.21400452566E+02 -0.87603901561E+01  0.24692389111E+02  0.10500000000E+00 0.  1.
         13    1    4    4    0    0 -0.38959767361E+01 -0.97814809140E+01 -0.39495667449E+01  0.11245715009E+02  0.10500000000E+00 0. -1.
    3000001    1    5    5    0    0  0.27558100307E+02  0.47396942433E+02  0.13091267200E+02  0.56376416359E+02  0.10000000000E+01 0. -1.
        -13    1    6    6    0    0  0.25140083840E+00  0.33899450461E+01  0.23578241919E+01  0.41382713440E+01  0.10500000000E+00 0. -1.
         13    1    6    6    0    0  0.17943841871E+00  0.16479600095E+01  0.10874142114E+01  0.19853123196E+01  0.10500000000E+00 0.  1.
</event>
<event>
11    0  0.3510903E-009  0.9118800E+02  0.7816531E-02  0.1126479E+00
         25   -1    0    0    0    0  0.00000000000E+00  0.00000000000E+00  0.99999998245E-14  0.12500000000E+03  0.12500000000E+03 0.  0.
    3000001    1    3    3    0    0 -0.32035107085E+02  0.62346587375E+01  0.37446627340E+01  0.32865507063E+02  0.10000000000E+01 0.  1.
    1000022    2    1    0    0    0 -0.58340342791E+02  0.19853834918E+02  0.29119331439E+01  0.62500002573E+02  0.10000030454E+02 0.  0.
    3000022    2    3    3    0    0 -0.26305235706E+02  0.13619176181E+02 -0.83272959009E+00  0.29634495510E+02  0.25000035436E+00 0.  0.
    1000022    2    1    0    0    0  0.58340342791E+02 -0.19853834918E+02 -0.29119331439E+01  0.62499997427E+02  0.99999982852E+01 0.  0.
    3000022    2    5    5    0    0  0.37031923858E+02 -0.78990095792E+01  0.66872124958E-01  0.37865877853E+02  0.24999349145E+00 0.  0.
        -13    1    4    4    0    0 -0.15967653268E+02  0.82158865023E+01 -0.54762828909E+00  0.17966014128E+02  0.10500000000E+00 0. -1.
         13    1    4    4    0    0 -0.10337582439E+02  0.54032896786E+01 -0.28510130100E+00  0.11668481383E+02  0.10500000000E+00 0.  1.
    3000001    1    5    5    0    0  0.21308418933E+02 -0.11954825339E+02 -0.29788052689E+01  0.24634119573E+02  0.10000000000E+01 0.  1.
        -13    1    6    6    0    0  0.18944193532E+02 -0.40750021785E+01 -0.24725575586E-01  0.19377815865E+02  0.10500000000E+00 0.  1.
         13    1    6    6    0    0  0.18087730326E+02 -0.38240074008E+01  0.91597700544E-01  0.18488061988E+02  0.10500000000E+00 0. -1.
</event>
<event>
11    0  0.3510903E-009  0.9118800E+02  0.7816531E-02  0.1126479E+00
         25   -1    0    0    0    0  0.00000000000E+00  0.00000000000E+00  0.99999998245E-14  0.12500000000E+03  0.12500000000E+03 0.  0.
    3000001    1    3    3    0    0 -0.12614846760E+02  0.84304952255E+00  0.82001092678E+01  0.15102545590E+02  0.10000000000E+01 0. -1.
    1000022    2    1    0    0    0 -0.44357944605E+02 -0.98626711647E+01  0.41729491223E+02  0.62499999878E+02  0.10000000747E+02 0.  0.
    3000022    2    3    3    0    0 -0.31743097845E+02 -0.10705720687E+02  0.33529381955E+02  0.47397454289E+02  0.25000501988E+00 0.  0.
    1000022    2    1    0    0    0  0.44357944605E+02  0.98626711647E+01 -0.41729491223E+02  0.62500000122E+02  0.10000002268E+02 0.  0.
    3000022    2    5    5    0    0  0.38820629012E+02  0.54298102215E+01 -0.37091604913E+02  0.53966412977E+02  0.24999742631E+00 0.  0.
        -13    1    4    4    0    0 -0.12918064240E+02 -0.43810243721E+01  0.13737042582E+02  0.19359419468E+02  0.10500000000E+00 0.  1.
         13    1    4    4    0    0 -0.18825033605E+02 -0.63246963152E+01  0.19792339374E+02  0.28038034820E+02  0.10500000000E+00 0. -1.
    3000001    1    5    5    0    0  0.55373155933E+01  0.44328609432E+01 -0.46378863108E+01  0.85335871446E+01  0.10000000000E+01 0. -1.
        -13    1    6    6    0    0  0.19956398309E+02  0.27818681508E+01 -0.18973951769E+02  0.27677039123E+02  0.10500000000E+00 0. -1.
         13    1    6    6    0    0  0.18864230703E+02  0.26479420707E+01 -0.18117653143E+02  0.26289373854E+02  0.10500000000E+00 0.  1.
</event>
<event>
11    0  0.3510903E-009  0.9118800E+02  0.7816531E-02  0.1126479E+00
         25   -1    0    0    0    0  0.00000000000E+00  0.00000000000E+00  0.99999998245E-14  0.12500000000E+03  0.12500000000E+03 0.  0.
    3000001    1    3    3    0    0 -0.81428356408E+01 -0.38394879116E+02  0.17854549538E+02  0.43130701986E+02  0.10000000000E+01 0.  1.
    1000022    2    1    0    0    0 -0.54213168792E+01 -0.56486387063E+02  0.24210477223E+02  0.62499998423E+02  0.99999997682E+01 0.  0.
    3000022    2    3    3    0    0  0.27215187616E+01 -0.18091507948E+02  0.63559276847E+01  0.19369296437E+02  0.25000710932E+00 0.  0.
    1000022    2    1    0    0    0  0.54213168792E+01  0.56486387063E+02 -0.24210477223E+02  0.62500001577E+02  0.10000019476E+02 0.  0.
    3000022    2    5    5    0    0 -0.65031398333E-01  0.16328544967E+02 -0.11634301150E+02  0.20051061614E+02  0.24999761407E+00 0.  0.
        -13    1    4    4    0    0  0.71310598022E+00 -0.46511062485E+01  0.16638162839E+01  0.49920555987E+01  0.10500000000E+00 0.  1.
         13    1    4    4    0    0  0.20084127814E+01 -0.13440401699E+02  0.46921114008E+01  0.14377240838E+02  0.10500000000E+00 0. -1.
    3000001    1    5    5    0    0  0.54863482775E+01  0.40157842097E+02 -0.12576176073E+02  0.42448939962E+02  0.10000000000E+01 0. -1.
        -13    1    6    6    0    0 -0.99738422807E-01  0.91253901359E+01 -0.64785452820E+01  0.11192196695E+02  0.10500000000E+00 0.  1.
         13    1    6    6    0    0  0.34707024473E-01  0.72031548308E+01 -0.51557558679E+01  0.88588649196E+01  0.10500000000E+00 0. -1.
</event>
<event>
11    0  0.3510903E-009  0.9118800E+02  0.7816531E-02  0.1126479E+00
         25   -1    0    0    0    0  0.00000000000E+00  0.00000000000E+00  0.99999998245E-14  0.12500000000E+03  0.12500000000E+03 0.  0.
    3000001    1    3    3    0    0 -0.83773771421E+01  0.12521628077E+02  0.53022999519E+02  0.55130845227E+02  0.10000000000E+01 0.  1.
    1000022    2    1    0    0    0 -0.59330586839E+01  0.13568108440E+02  0.59891195000E+02  0.62499998608E+02  0.99999917747E+01 0.  0.
    3000022    2    3    3    0    0  0.24443184583E+01  0.10464803631E+01  0.68681954803E+01  0.73691533802E+01  0.24999701780E+00 0.  0.
    1000022    2    1    0    0    0  0.59330586839E+01 -0.13568108440E+02 -0.59891195000E+02  0.62500001392E+02  0.10000009179E+02 0.  0.
    3000022    2    5    5    0    0  0.81032702461E+01 -0.10713414933E+02 -0.52899823705E+02  0.54579246011E+02  0.24999766815E+00 0.  0.
        -13    1    4    4    0    0  0.10119414819E+01  0.47703531092E+00  0.27523792460E+01  0.29729118326E+01  0.10500000000E+00 0.  1.
         13    1    4    4    0    0  0.14323769764E+01  0.56944505222E+00  0.41158162343E+01  0.43962415476E+01  0.10500000000E+00 0. -1.
    3000001    1    5    5    0    0 -0.21702115622E+01 -0.28546935066E+01 -0.69913712941E+01  0.79207553815E+01  0.10000000000E+01 0.  1.
        -13    1    6    6    0    0  0.45777031533E+01 -0.61134909080E+01 -0.30295638382E+02  0.31243669235E+02  0.10500000000E+00 0.  1.
         13    1    6    6    0    0  0.35255670928E+01 -0.45999240254E+01 -0.22604185323E+02  0.23335576776E+02  0.10500000000E+00 0. -1.
</event>
<event>
11    0  0.3510903E-009  0.9118800E+02  0.7816531E-02  0.1126479E+00
         25   -1    0    0    0    0  0.00000000000E+00  0.00000000000E+00  0.99999998245E-14  0.12500000000E+03  0.12500000000E+03 0.  0.
    3000001    1    3    3    0    0  0.49257943157E+02 -0.12495063410E+02 -0.14431685878E+00  0.50828067060E+02  0.10000000000E+01 0. -1.
    1000022    2    1    0    0    0  0.58508842949E+02 -0.19556710234E+02  0.70748477653E+00  0.62500001890E+02  0.10000004154E+02 0.  0.
    3000022    2    3    3    0    0  0.92508997926E+01 -0.70616468240E+01  0.85180163531E+00  0.11671934830E+02  0.24998763358E+00 0.  0.
    1000022    2    1    0    0    0 -0.58508842949E+02  0.19556710234E+02 -0.70748477653E+00  0.62499998110E+02  0.99999805312E+01 0.  0.
    3000022    2    5    5    0    0 -0.15117938418E+02  0.77905892167E+01  0.33938695143E+01  0.17344341689E+02  0.24999196376E+00 0.  0.
        -13    1    4    4    0    0  0.32502449335E+01 -0.25279481967E+01  0.25800591643E+00  0.41270093611E+01  0.10500000000E+00 0. -1.
         13    1    4    4    0    0  0.60006548591E+01 -0.45336986273E+01  0.59379571887E+00  0.75449254692E+01  0.10500000000E+00 0.  1.
    3000001    1    5    5    0    0 -0.43390904531E+02  0.11766121017E+02 -0.41013542908E+01  0.45155656421E+02  0.10000000000E+01 0.  1.
        -13    1    6    6    0    0 -0.55097510500E+01  0.27816510501E+01  0.12029001485E+01  0.62891122557E+01  0.10500000000E+00 0. -1.
         13    1    6    6    0    0 -0.96081873684E+01  0.50089381666E+01  0.21909693657E+01  0.11055229433E+02  0.10500000000E+00 0.  1.
</event>
<event>
11    0  0.3510903E-009  0.9118800E+02  0.7816531E-02  0.1126479E+00
         25   -1    0    0    0    0  0.00000000000E+00  0.00000000000E+00  0.99999998245E-14  0.12500000000E+03  0.12500000000E+03 0.  0.
    3000001    1    3    3    0    0 -0.27745793640E+02 -0.10692891677E+02  0.44332273619E+02  0.53390237698E+02  0.10000000000E+01 0.  1.
    1000022    2    1    0    0    0 -0.35365609632E+02 -0.11225385244E+02  0.49290094174E+02  0.62499992364E+02  0.10000002167E+02 0.  0.
    3000022    2    3    3    0    0 -0.76198159917E+01 -0.53249356693E+00  0.49578205547E+01  0.91097546667E+01  0.25000057888E+00 0.  0.
    1000022    2    1    0    0    0  0.35365609632E+02  0.11225385244E+02 -0.49290094174E+02  0.62500007636E+02  0.10000097613E+02 0.  0.
    3000022    2    5    5    0    0  0.64723816937E+01  0.39576925578E+01 -0.16633337475E+02  0.18283475255E+02  0.24999334189E+00 0.  0.
        -13    1    4    4    0    0 -0.49720117503E+01 -0.33345183391E+00  0.32983866628E+01  0.59768277997E+01  0.10500000000E+00 0. -1.
         13    1    4    4    0    0 -0.26478042415E+01 -0.19904173302E+00  0.16594338919E+01  0.31329268670E+01  0.10500000000E+00 0.  1.
    3000001    1    5    5    0    0  0.28893227938E+02  0.72676926864E+01 -0.32656756699E+02  0.44216532380E+02  0.10000000000E+01 0.  1.
        -13    1    6    6    0    0  0.26209944918E+01  0.15288588314E+01 -0.66462815846E+01  0.73069217427E+01  0.10500000000E+00 0. -1.
         13    1    6    6    0    0  0.38513872018E+01  0.24288337264E+01 -0.99870558909E+01  0.10976553513E+02  0.10500000000E+00 0.  1.
</event>
<event>
11    0  0.3510903E-009  0.9118800E+02  0.7816531E-02  0.1126479E+00
         25   -1    0    0    0    0  0.00000000000E+00  0.00000000000E+00  0.99999998245E-14  0.12500000000E+03  0.12500000000E+03 0.  0.
    3000001    1    3    3    0    0 -0.18093116167E+02  0.21829572686E+02  0.67401534399E+01  0.29160260024E+02  0.10000000000E+01 0.  1.
    1000022    2    1    0    0    0 -0.41601692875E+02  0.45348980491E+02  0.43611045989E+01  0.62499997504E+02  0.99999786480E+01 0.  0.
    3000022    2    3    3    0    0 -0.23508576708E+02  0.23519407805E+02 -0.23790488409E+01  0.33339737479E+02  0.24999892121E+00 0.  0.
    1000022    2    1    0    0    0  0.41601692875E+02 -0.45348980491E+02 -0.43611045989E+01  0.62500002496E+02  0.10000009851E+02 0.  0.
    3000022    2    5    5    0    0  0.60404750839E+01 -0.72427566539E+01 -0.43011058625E+01  0.10368552240E+02  0.25000145774E+00 0.  0.
        -13    1    4    4    0    0 -0.16068404165E+02  0.16024669140E+02 -0.16584162145E+01  0.22754010697E+02  0.10500000000E+00 0. -1.
         13    1    4    4    0    0 -0.74401725430E+01  0.74947386648E+01 -0.72063262647E+00  0.10585726782E+02  0.10500000000E+00 0.  1.
    3000001    1    5    5    0    0  0.35561217791E+02 -0.38106223837E+02 -0.59998736395E-01  0.52131450256E+02  0.10000000000E+01 0.  1.
        -13    1    6    6    0    0  0.45886552126E+01 -0.54881632942E+01 -0.32412343550E+01  0.78544457569E+01  0.10500000000E+00 0. -1.
         13    1    6    6    0    0  0.14518198713E+01 -0.17545933597E+01 -0.10598715076E+01  0.25141064833E+01  0.10500000000E+00 0.  1.
</event>
<event>
11    0  0.3510903E-009  0.9118800E+02  0.7816531E-02  0.1126479E+00
         25   -1    0    0    0    0  0.00000000000E+00  0.00000000000E+00  0.99999998245E-14  0.12500000000E+03  0.12500000000E+03 0.  0.
    3000001    1    3    3    0    0  0.30510287882E+01  0.28243113605E+02 -0.10571799595E+02  0.30327301057E+02  0.10000000000E+01 0. -1.
    1000022    2    1    0    0    0 -0.35012146329E+01  0.56664530569E+02 -0.24147919003E+02  0.62499996815E+02  0.10000004062E+02 0.  0.
    3000022    2    3    3    0    0 -0.65522434211E+01  0.28421416965E+02 -0.13576119408E+02  0.32172695758E+02  0.24999608453E+00 0.  0.
    1000022    2    1    0    0    0  0.35012146329E+01 -0.56664530569E+02  0.24147919003E+02  0.62500003185E+02  0.10000043868E+02 0.  0.
    3000022    2    5    5    0    0  0.62739852065E+01 -0.28143119266E+02  0.14270368716E+02  0.32173032366E+02  0.25007184387E+00 0.  0.
        -13    1    4    4    0    0 -0.50224416741E+01  0.21754639400E+02 -0.10378729439E+02  0.24621500880E+02  0.10500000000E+00 0. -1.
         13    1    4    4    0    0 -0.15298017470E+01  0.66667775646E+01 -0.31973899686E+01  0.75511948785E+01  0.10500000000E+00 0.  1.
    3000001    1    5    5    0    0 -0.27727705735E+01 -0.28521411303E+02  0.98775502875E+01  0.30326970819E+02  0.10000000000E+01 0.  1.
        -13    1    6    6    0    0  0.43481051760E+01 -0.19359906644E+02  0.98618629427E+01  0.22158054283E+02  0.10500000000E+00 0.  1.
         13    1    6    6    0    0  0.19258800305E+01 -0.87832126218E+01  0.44085057728E+01  0.10014978083E+02  0.10500000000E+00 0. -1.
</event>
<event>
11    0  0.3510903E-009  0.9118800E+02  0.7816531E-02  0.1126479E+00
         25   -1    0    0    0    0  0.00000000000E+00  0.00000000000E+00  0.99999998245E-14  0.12500000000E+03  0.12500000000E+03 0.  0.
    3000001    1    3    3    0    0  0.15358438883E+01 -0.23420420627E+02 -0.14770225130E+02  0.27749494936E+02  0.10000000000E+01 0. -1.
    1000022    2    1    0    0    0  0.12754546957E+02 -0.47881615175E+02 -0.36754896878E+02  0.62500000421E+02  0.10000003410E+02 0.  0.
    3000022    2    3    3    0    0  0.11218703069E+02 -0.24461194548E+02 -0.21984671748E+02  0.34750505485E+02  0.25000464252E+00 0.  0.
    1000022    2    1    0    0    0 -0.12754546957E+02  0.47881615175E+02  0.36754896878E+02  0.62499999579E+02  0.99999981526E+01 0.  0.
    3000022    2    5    5    0    0 -0.12214509839E+02  0.43637750187E+02  0.36339986830E+02  0.58087043601E+02  0.24999889959E+00 0.  0.
        -13    1    4    4    0    0  0.63404406961E+01 -0.13712005258E+02 -0.12401249046E+02  0.19545390232E+02  0.10500000000E+00 0.  1.
         13    1    4    4    0    0  0.48782623726E+01 -0.10749189290E+02 -0.95834227019E+01  0.15205115253E+02  0.10500000000E+00 0. -1.
    3000001    1    5    5    0    0 -0.54003711799E+00  0.42438649876E+01  0.41491004833E+00  0.44129559787E+01  0.10000000000E+01 0.  1.
        -13    1    6    6    0    0 -0.34259982522E+01  0.12125163956E+02  0.10135106817E+02  0.16170605436E+02  0.10500000000E+00 0. -1.
         13    1    6    6    0    0 -0.87885115868E+01  0.31512586231E+02  0.26204880013E+02  0.41916438164E+02  0.10500000000E+00 0.  1.
</event>
<event>
11    0  0.3510903E-009  0.9118800E+02  0.7816531E-02  0.1126479E+00
         25   -1    0    0    0    0  0.00000000000E+00  0.00000000000E+00  0.99999998245E-14  0.12500000000E+03  0.12500000000E+03 0.  0.
    3000001    1    3    3    0    0 -0.17911395206E+02  0.29465621363E+02  0.28711088062E+02  0.44881705608E+02  0.10000000000E+01 0. -1.
    1000022    2    1    0    0    0 -0.18900721590E+02  0.42220362731E+02  0.40822221822E+02  0.62499998969E+02  0.99999885438E+01 0.  0.
    3000022    2    3    3    0    0 -0.98932638407E+00  0.12754741368E+02  0.12111133760E+02  0.17618293361E+02  0.25001192173E+00 0.  0.
    1000022    2    1    0    0    0  0.18900721590E+02 -0.42220362731E+02 -0.40822221822E+02  0.62500001031E+02  0.10000001430E+02 0.  0.
    3000022    2    5    5    0    0  0.99335813624E+01 -0.12393468779E+02 -0.17072103461E+02  0.23319376625E+02  0.25000505656E+00 0.  0.
        -13    1    4    4    0    0 -0.28847346856E+00  0.44187978640E+01  0.41733830972E+01  0.60858148987E+01  0.10500000000E+00 0. -1.
         13    1    4    4    0    0 -0.70085291550E+00  0.83359435038E+01  0.79377506628E+01  0.11532478463E+02  0.10500000000E+00 0.  1.
    3000001    1    5    5    0    0  0.89671402277E+01 -0.29826893952E+02 -0.23750118362E+02  0.39180624406E+02  0.10000000000E+01 0. -1.
        -13    1    6    6    0    0  0.45582211064E+01 -0.56102759230E+01 -0.77012957040E+01  0.10562838449E+02  0.10500000000E+00 0. -1.
         13    1    6    6    0    0  0.53753602560E+01 -0.67831928559E+01 -0.93708077566E+01  0.12756538175E+02  0.10500000000E+00 0.  1.
</event>
<event>
11    0  0.3510903E-009  0.9118800E+02  0.7816531E-02  0.1126479E+00
         25   -1    0    0    0    0  0.00000000000E+00  0.00000000000E+00  0.99999998245E-14  0.12500000000E+03  0.12500000000E+03 0.  0.
    3000001    1    3    3    0    0 -0.12073830382E+02 -0.33121916275E+00  0.16298153407E+01  0.12228793247E+02  0.10000000000E+01 0.  1.
    1000022    2    1    0    0    0 -0.55471294078E+02 -0.10342988997E+02  0.24944105383E+02  0.62499997861E+02  0.99999725581E+01 0.  0.
    3000022    2    3    3    0    0 -0.43397463696E+02 -0.10011769835E+02  0.23314290043E+02  0.50271204614E+02  0.25000541742E+00 0.  0.
    1000022    2    1    0    0    0  0.55471294078E+02  0.10342988997E+02 -0.24944105383E+02  0.62500002139E+02  0.99999992980E+01 0.  0.
    3000022    2    5    5    0    0  0.51762232919E+02  0.86056458027E+01 -0.20394646740E+02  0.56297335777E+02  0.25000690280E+00 0.  0.
        -13    1    4    4    0    0 -0.24400459168E+02 -0.55945139693E+01  0.13168504838E+02  0.28286066160E+02  0.10500000000E+00 0.  1.
         13    1    4    4    0    0 -0.18997004528E+02 -0.44172558654E+01  0.10145785205E+02  0.21985138454E+02  0.10500000000E+00 0. -1.
    3000001    1    5    5    0    0  0.37090611585E+01  0.17373431947E+01 -0.45494586436E+01  0.62026663624E+01  0.10000000000E+01 0.  1.
        -13    1    6    6    0    0  0.24322426843E+02  0.40259122395E+01 -0.96519033348E+01  0.26475624259E+02  0.10500000000E+00 0.  1.
         13    1    6    6    0    0  0.27439806076E+02  0.45797335632E+01 -0.10742743405E+02  0.29821711518E+02  0.10500000000E+00 0. -1.
</event>
<event>
11    0  0.3510903E-009  0.9118800E+02  0.7816531E-02  0.1126479E+00
         25   -1    0    0    0    0  0.00000000000E+00  0.00000000000E+00  0.99999998245E-14  0.12500000000E+03  0.12500000000E+03 0.  0.
    3000001    1    3    3    0    0  0.17102349891E+01  0.10979463675E+02 -0.12093322182E+01  0.11222121490E+02  0.10000000000E+01 0. -1.
    1000022    2    1    0    0    0 -0.13770114952E+01  0.60703147510E+02  0.10930784403E+02  0.62499999327E+02  0.99999794950E+01 0.  0.
    3000022    2    3    3    0    0 -0.30872464844E+01  0.49723683834E+02  0.12140116621E+02  0.51277877837E+02  0.24999790107E+00 0.  0.
    1000022    2    1    0    0    0  0.13770114952E+01 -0.60703147510E+02 -0.10930784403E+02  0.62500000673E+02  0.99999879127E+01 0.  0.
    3000022    2    5    5    0    0  0.20715808779E+01 -0.50515112911E+02 -0.54054266991E+01  0.50846329434E+02  0.24999861885E+00 0.  0.
        -13    1    4    4    0    0 -0.12534504829E+01  0.21216744240E+02  0.51937615768E+01  0.21879386613E+02  0.10500000000E+00 0. -1.
         13    1    4    4    0    0 -0.18337960014E+01  0.28506939594E+02  0.69463550441E+01  0.29398491223E+02  0.10500000000E+00 0.  1.
    3000001    1    5    5    0    0 -0.69456938269E+00 -0.10188034598E+02 -0.55253577036E+01  0.11653671240E+02  0.10000000000E+01 0. -1.
        -13    1    6    6    0    0  0.77238591593E+00 -0.17891652734E+02 -0.18722854081E+01  0.18006229344E+02  0.10500000000E+00 0. -1.
         13    1    6    6    0    0  0.12991949620E+01 -0.32623460178E+02 -0.35331412910E+01  0.32840100090E+02  0.10500000000E+00 0.  1.
</event>
<event>
11    0  0.3510903E-009  0.9118800E+02  0.7816531E-02  0.1126479E+00
         25   -1    0    0    0    0  0.00000000000E+00  0.00000000000E+00  0.99999998245E-14  0.12500000000E+03  0.12500000000E+03 0.  0.
    3000001    1    3    3    0    0  0.28603470566E+00 -0.47758545824E+02  0.56622313624E+01  0.48104276099E+02  0.10000000000E+01 0. -1.
    1000022    2    1    0    0    0  0.45032963952E+01 -0.60615552438E+02  0.10570022462E+02  0.62499998697E+02  0.99999793237E+01 0.  0.
    3000022    2    3    3    0    0  0.42172616895E+01 -0.12857006615E+02  0.49077911000E+01  0.14395722598E+02  0.25000077333E+00 0.  0.
    1000022    2    1    0    0    0 -0.45032963952E+01  0.60615552438E+02 -0.10570022462E+02  0.62500001303E+02  0.99999956080E+01 0.  0.
    3000022    2    5    5    0    0 -0.33289840470E+01  0.49704825486E+02 -0.47621510499E+01  0.50043904704E+02  0.25000816074E+00 0.  0.
        -13    1    4    4    0    0  0.30798897246E+01 -0.92638405507E+01  0.35398316704E+01  0.10384887853E+02  0.10500000000E+00 0.  1.
         13    1    4    4    0    0  0.11373719649E+01 -0.35931660640E+01  0.13679594296E+01  0.40108347449E+01  0.10500000000E+00 0. -1.
    3000001    1    5    5    0    0 -0.11743123482E+01  0.10910726952E+02 -0.58078714125E+01  0.12456096598E+02  0.10000000000E+01 0.  1.
        -13    1    6    6    0    0 -0.12114369393E+01  0.17587238942E+02 -0.17317903976E+01  0.17714081293E+02  0.10500000000E+00 0. -1.
         13    1    6    6    0    0 -0.21175471077E+01  0.32117586544E+02 -0.30303606523E+01  0.32329823412E+02  0.10500000000E+00 0.  1.
</event>
<event>
11    0  0.3510903E-009  0.9118800E+02  0.7816531E-02  0.1126479E+00
         25   -1    0    0    0    0  0.00000000000E+00  0.00000000000E+00  0.99999998245E-14  0.12500000000E+03  0.12500000000E+03 0.  0.
    3000001    1    3    3    0    0  0.27188165611E+02 -0.43658183873E+01 -0.33628541447E+02  0.43475688831E+02  0.10000000000E+01 0. -1.
    1000022    2    1    0    0    0  0.37769440438E+02  0.13594383165E+00 -0.48782178101E+02  0.62500000740E+02  0.10000004022E+02 0.  0.
    3000022    2    3    3    0    0  0.10581274827E+02  0.45017622189E+01 -0.15153636654E+02  0.19024311909E+02  0.24999942416E+00 0.  0.
    1000022    2    1    0    0    0 -0.37769440438E+02 -0.13594383165E+00  0.48782178101E+02  0.62499999260E+02  0.99999947744E+01 0.  0.
    3000022    2    5    5    0    0 -0.49872619966E+01 -0.31658350418E+01  0.10015630997E+02  0.11630591573E+02  0.25000464150E+00 0.  0.
        -13    1    4    4    0    0  0.28606471684E+01  0.12088001212E+01 -0.41524090297E+01  0.51863306591E+01  0.10500000000E+00 0. -1.
         13    1    4    4    0    0  0.77206276587E+01  0.32929620977E+01 -0.11001227625E+02  0.13837981250E+02  0.10500000000E+00 0.  1.
    3000001    1    5    5    0    0 -0.32782178442E+02  0.30298912102E+01  0.38766547104E+02  0.50869407687E+02  0.10000000000E+01 0.  1.
        -13    1    6    6    0    0 -0.11968373788E+01 -0.78109076318E+00  0.24060370166E+01  0.28004573942E+01  0.10500000000E+00 0. -1.
         13    1    6    6    0    0 -0.37904246178E+01 -0.23847442787E+01  0.76095939809E+01  0.88301341786E+01  0.10500000000E+00 0.  1.
</event>
<event>
11    0  0.3510903E-009  0.9118800E+02  0.7816531E-02  0.1126479E+00
         25   -1    0    0    0    0  0.00000000000E+00  0.00000000000E+00  0.99999998245E-14  0.12500000000E+03  0.12500000000E+03 0.  0.
    3000001    1    3    3    0    0 -0.21016350434E+00  0.22539113045E-01  0.47401330217E+02  0.47412348424E+02  0.10000000000E+01 0.  1.
    1000022    2    1    0    0    0  0.24327810119E+01 -0.47589853288E+01  0.61462861966E+02  0.62500002569E+02  0.10000027764E+02 0.  0.
    3000022    2    3    3    0    0  0.26429445162E+01 -0.47815244418E+01  0.14061531749E+02  0.15087654146E+02  0.25000156026E+00 0.  0.
    1000022    2    1    0    0    0 -0.24327810119E+01  0.47589853288E+01 -0.61462861966E+02  0.62499997431E+02  0.99999956457E+01 0.  0.
    3000022    2    5    5    0    0  0.18725775531E+01  0.51912516028E+01 -0.18472489988E+02  0.19280846012E+02  0.24999336901E+00 0.  0.
        -13    1    4    4    0    0  0.74377473394E+00 -0.12791042711E+01  0.38608863970E+01  0.41360340136E+01  0.10500000000E+00 0. -1.
         13    1    4    4    0    0  0.18991697823E+01 -0.35024201708E+01  0.10200645352E+02  0.10951620132E+02  0.10500000000E+00 0.  1.
    3000001    1    5    5    0    0 -0.43053585649E+01 -0.43226627405E+00 -0.42990371979E+02  0.43219151419E+02  0.10000000000E+01 0. -1.
        -13    1    6    6    0    0  0.62364072165E+00  0.18777193035E+01 -0.67246532863E+01  0.70104739036E+01  0.10500000000E+00 0. -1.
         13    1    6    6    0    0  0.12489368314E+01  0.33135322993E+01 -0.11747836701E+02  0.12270372108E+02  0.10500000000E+00 0.  1.
</event>
<event>
11    0  0.3510903E-009  0.9118800E+02  0.7816531E-02  0.1126479E+00
         25   -1    0    0    0    0  0.00000000000E+00  0.00000000000E+00  0.99999998245E-14  0.12500000000E+03  0.12500000000E+03 0.  0.
    3000001    1    3    3    0    0  0.68089039653E+01  0.15437133526E+02 -0.55635967472E+02  0.58146600428E+02  0.10000000000E+01 0.  1.
    1000022    2    1    0    0    0  0.86411045329E+01  0.14263116813E+02 -0.59398188606E+02  0.62500000108E+02  0.10000000753E+02 0.  0.
    3000022    2    3    3    0    0  0.18322005676E+01 -0.11740167134E+01 -0.37622211332E+01  0.43533996800E+01  0.25001350931E+00 0.  0.
    1000022    2    1    0    0    0 -0.86411045329E+01 -0.14263116813E+02  0.59398188606E+02  0.62499999892E+02  0.99999994078E+01 0.  0.
    3000022    2    5    5    0    0 -0.67724439310E+01 -0.15316648611E+02  0.55146992543E+02  0.57634356085E+02  0.24998671142E+00 0.  0.
        -13    1    4    4    0    0  0.45984371559E+00 -0.26676188142E+00 -0.92476186104E+00  0.10718337762E+01  0.10500000000E+00 0.  1.
         13    1    4    4    0    0  0.13723568520E+01 -0.90725483195E+00 -0.28374592722E+01  0.32815659038E+01  0.10500000000E+00 0. -1.
    3000001    1    5    5    0    0 -0.18686606019E+01  0.10535317981E+01  0.42511960623E+01  0.48656438069E+01  0.10000000000E+01 0. -1.
        -13    1    6    6    0    0 -0.34097016623E+01 -0.78718380519E+01  0.28314803399E+02  0.29585993583E+02  0.10500000000E+00 0. -1.
         13    1    6    6    0    0 -0.33627422686E+01 -0.74448105590E+01  0.26832189144E+02  0.28048362503E+02  0.10500000000E+00 0.  1.
</event>
<event>
11    0  0.3510903E-009  0.9118800E+02  0.7816531E-02  0.1126479E+00
         25   -1    0    0    0    0  0.00000000000E+00  0.00000000000E+00  0.99999998245E-14  0.12500000000E+03  0.12500000000E+03 0.  0.
    3000001    1    3    3    0    0  0.35180314812E+01 -0.19417556434E+01  0.11489511281E+02  0.12212936992E+02  0.10000000000E+01 0.  1.
    1000022    2    1    0    0    0  0.30872544830E+02 -0.21278321900E+02  0.48993562930E+02  0.62499998790E+02  0.99999816478E+01 0.  0.
    3000022    2    3    3    0    0  0.27354513349E+02 -0.19336566256E+02  0.37504051649E+02  0.50287061798E+02  0.24999809411E+00 0.  0.
    1000022    2    1    0    0    0 -0.30872544830E+02  0.21278321900E+02 -0.48993562930E+02  0.62500001210E+02  0.99999967764E+01 0.  0.
    3000022    2    5    5    0    0 -0.18455688717E+02  0.12012574043E+02 -0.20683296814E+02  0.30212177397E+02  0.25002954063E+00 0.  0.
        -13    1    4    4    0    0  0.71825743380E+01 -0.51178217326E+01  0.98726738107E+01  0.13238662568E+02  0.10500000000E+00 0.  1.
         13    1    4    4    0    0  0.20171939011E+02 -0.14218744524E+02  0.27631377838E+02  0.37048399231E+02  0.10500000000E+00 0. -1.
    3000001    1    5    5    0    0 -0.12416856114E+02  0.92657478563E+01 -0.28310266116E+02  0.32287823814E+02  0.10000000000E+01 0. -1.
        -13    1    6    6    0    0 -0.90363131928E+01  0.59367483237E+01 -0.10087169625E+02  0.14787222620E+02  0.10500000000E+00 0.  1.
         13    1    6    6    0    0 -0.94193755239E+01  0.60758257197E+01 -0.10596127190E+02  0.15424954776E+02  0.10500000000E+00 0. -1.
</event>
<event>
11    0  0.3510903E-009  0.9118800E+02  0.7816531E-02  0.1126479E+00
         25   -1    0    0    0    0  0.00000000000E+00  0.00000000000E+00  0.99999998245E-14  0.12500000000E+03  0.12500000000E+03 0.  0.
    3000001    1    3    3    0    0  0.31946726940E+02  0.69727552487E+01  0.14468117065E+01  0.32746082851E+02  0.10000000000E+01 0.  1.
    1000022    2    1    0    0    0  0.57580977440E+02  0.22069455334E+02  0.19025474845E+01  0.62499996001E+02  0.99999995750E+01 0.  0.
    3000022    2    3    3    0    0  0.25634250500E+02  0.15096700085E+02  0.45573577805E+00  0.29753913150E+02  0.25000101100E+00 0.  0.
    1000022    2    1    0    0    0 -0.57580977440E+02 -0.22069455334E+02 -0.19025474845E+01  0.62500003999E+02  0.10000049567E+02 0.  0.
    3000022    2    5    5    0    0 -0.20141815375E+02 -0.12832656532E+02 -0.11781141435E+00  0.23884015198E+02  0.25000442800E+00 0.  0.
        -13    1    4    4    0    0  0.14037179423E+02  0.83366845146E+01  0.22123851977E+00  0.16327972512E+02  0.10500000000E+00 0.  1.
         13    1    4    4    0    0  0.11597071077E+02  0.67600155703E+01  0.23449725827E+00  0.13425940639E+02  0.10500000000E+00 0. -1.
    3000001    1    5    5    0    0 -0.37439162065E+02 -0.92367988020E+01 -0.17847360702E+01  0.38615988801E+02  0.10000000000E+01 0. -1.
        -13    1    6    6    0    0 -0.92410536350E+01 -0.59656866366E+01 -0.41297168831E-01  0.10999964536E+02  0.10500000000E+00 0.  1.
         13    1    6    6    0    0 -0.10900761740E+02 -0.68669698950E+01 -0.76514245517E-01  0.12884050663E+02  0.10500000000E+00 0. -1.
</event>
<event>
11    0  0.3510903E-009  0.9118800E+02  0.7816531E-02  0.1126479E+00
         25   -1    0    0    0    0  0.00000000000E+00  0.00000000000E+00  0.99999998245E-14  0.12500000000E+03  0.12500000000E+03 0.  0.
    3000001    1    3    3    0    0 -0.45142142643E+00 -0.38313828035E+00  0.84716567368E-02  0.11621738317E+01  0.10000000000E+01 0.  1.
    1000022    2    1    0    0    0 -0.75090200388E+01 -0.48173526210E+02  0.37804443086E+02  0.62499999291E+02  0.99999992413E+01 0.  0.
    3000022    2    3    3    0    0 -0.70575986123E+01 -0.47790387930E+02  0.37795971430E+02  0.61337825459E+02  0.24999819527E+00 0.  0.
    1000022    2    1    0    0    0  0.75090200388E+01  0.48173526210E+02 -0.37804443086E+02  0.62500000709E+02  0.10000008104E+02 0.  0.
    3000022    2    5    5    0    0  0.67127501965E+01  0.14505651989E+02 -0.13970112989E+02  0.21229731853E+02  0.25000561904E+00 0.  0.
        -13    1    4    4    0    0 -0.38831595929E+01 -0.26188019212E+02  0.20795472735E+02  0.33665323256E+02  0.10500000000E+00 0. -1.
         13    1    4    4    0    0 -0.31744390195E+01 -0.21602368718E+02  0.17000498694E+02  0.27672502203E+02  0.10500000000E+00 0.  1.
    3000001    1    5    5    0    0  0.79626984229E+00  0.33667874221E+02 -0.23834330098E+02  0.41270268856E+02  0.10000000000E+01 0. -1.
        -13    1    6    6    0    0  0.33072791737E+01  0.70322394392E+01 -0.67287437238E+01  0.10279956428E+02  0.10500000000E+00 0. -1.
         13    1    6    6    0    0  0.34054710228E+01  0.74734125496E+01 -0.72413692648E+01  0.10949775425E+02  0.10500000000E+00 0.  1.
</event>
<event>
11    0  0.3510903E-009  0.9118800E+02  0.7816531E-02  0.1126479E+00
         25   -1    0    0    0    0  0.00000000000E+00  0.00000000000E+00  0.99999998245E-14  0.12500000000E+03  0.12500000000E+03 0.  0.
    3000001    1    3    3    0    0 -0.14786933770E+02 -0.30128137492E+02 -0.38946012683E+02  0.51421298923E+02  0.10000000000E+01 0.  1.
    1000022    2    1    0    0    0 -0.13392653804E+02 -0.36612991230E+02 -0.47816061847E+02  0.62499999656E+02  0.99999941860E+01 0.  0.
    3000022    2    3    3    0    0  0.13942799664E+01 -0.64848537383E+01 -0.88700491636E+01  0.11078700732E+02  0.24998624699E+00 0.  0.
    1000022    2    1    0    0    0  0.13392653804E+02  0.36612991230E+02  0.47816061847E+02  0.62500000344E+02  0.99999984870E+01 0.  0.
    3000022    2    5    5    0    0  0.75010866573E+01  0.27088627810E+02  0.39653132253E+02  0.48605487702E+02  0.24995925521E+00 0.  0.
        -13    1    4    4    0    0  0.93346188201E+00 -0.42827787112E+01 -0.59483697292E+01  0.73897004005E+01  0.10500000000E+00 0.  1.
         13    1    4    4    0    0  0.46081808434E+00 -0.22020750271E+01 -0.29216794345E+01  0.36890003320E+01  0.10500000000E+00 0. -1.
    3000001    1    5    5    0    0  0.58915671463E+01  0.95243634200E+01  0.81629295937E+01  0.13894512642E+02  0.10000000000E+01 0. -1.
        -13    1    6    6    0    0  0.37797852267E+01  0.13583170990E+02  0.20003491476E+02  0.24473250841E+02  0.10500000000E+00 0. -1.
         13    1    6    6    0    0  0.37213014306E+01  0.13505456820E+02  0.19649640777E+02  0.24132236861E+02  0.10500000000E+00 0.  1.
</event>
<event>
11    0  0.3510903E-009  0.9118800E+02  0.7816531E-02  0.1126479E+00
         25   -1    0    0    0    0  0.00000000000E+00  0.00000000000E+00  0.99999998245E-14  0.12500000000E+03  0.12500000000E+03 0.  0.
    3000001    1    3    3    0    0  0.13118764128E+02  0.49974626307E+02  0.19577094153E+02  0.55261450056E+02  0.10000000000E+01 0. -1.
    1000022    2    1    0    0    0  0.14947671303E+02  0.56901687454E+02  0.18574583731E+02  0.62499999837E+02  0.99999953199E+01 0.  0.
    3000022    2    3    3    0    0  0.18289071742E+01  0.69270611468E+01 -0.10025104222E+01  0.72385497814E+01  0.24999641454E+00 0.  0.
    1000022    2    1    0    0    0 -0.14947671303E+02 -0.56901687454E+02 -0.18574583731E+02  0.62500000163E+02  0.99999973531E+01 0.  0.
    3000022    2    5    5    0    0 -0.43378938581E+01 -0.27576289772E+02 -0.13037317279E+02  0.30810764665E+02  0.24999345773E+00 0.  0.
        -13    1    4    4    0    0  0.92923675312E+00  0.37309044639E+01 -0.49747111793E+00  0.38783542354E+01  0.10500000000E+00 0.  1.
         13    1    4    4    0    0  0.89967042109E+00  0.31961566829E+01 -0.50503930430E+00  0.33601955459E+01  0.10500000000E+00 0. -1.
    3000001    1    5    5    0    0 -0.10609777444E+02 -0.29325397682E+02 -0.55372664520E+01  0.31689235497E+02  0.10000000000E+01 0. -1.
        -13    1    6    6    0    0 -0.27149019185E+01 -0.16888266578E+02 -0.79640133913E+01  0.18868512785E+02  0.10500000000E+00 0.  1.
         13    1    6    6    0    0 -0.16229919396E+01 -0.10688023194E+02 -0.50733038875E+01  0.11942251880E+02  0.10500000000E+00 0. -1.
</event>
<event>
11    0  0.3510903E-009  0.9118800E+02  0.7816531E-02  0.1126479E+00
         25   -1    0    0    0    0  0.00000000000E+00  0.00000000000E+00  0.99999998245E-14  0.12500000000E+03  0.12500000000E+03 0.  0.
    3000001    1    3    3    0    0 -0.78419393459E+01  0.22794373286E+02 -0.44763841861E+02  0.50851558524E+02  0.10000000000E+01 0. -1.
    1000022    2    1    0    0    0 -0.99192706233E+01  0.23426813073E+02 -0.56205361982E+02  0.62499999138E+02  0.99999838119E+01 0.  0.
    3000022    2    3    3    0    0 -0.20773312775E+01  0.63243978758E+00 -0.11441520122E+02  0.11648440614E+02  0.25000145446E+00 0.  0.
    1000022    2    1    0    0    0  0.99192706233E+01 -0.23426813073E+02  0.56205361982E+02  0.62500000862E+02  0.99999945867E+01 0.  0.
    3000022    2    5    5    0    0  0.32876667868E+01 -0.80426118529E+01  0.95274824231E+01  0.12896812892E+02  0.25000627344E+00 0.  0.
        -13    1    4    4    0    0 -0.86559637134E+00  0.19702339341E+00 -0.47072722286E+01  0.47913998090E+01  0.10500000000E+00 0. -1.
         13    1    4    4    0    0 -0.12117349061E+01  0.43541639417E+00 -0.67342478929E+01  0.68570408051E+01  0.10500000000E+00 0.  1.
    3000001    1    5    5    0    0  0.66316038365E+01 -0.15384201220E+02  0.46677879559E+02  0.49603187970E+02  0.10000000000E+01 0. -1.
        -13    1    6    6    0    0  0.77898327173E+00 -0.18723479367E+01  0.22230698420E+01  0.30109078791E+01  0.10500000000E+00 0. -1.
         13    1    6    6    0    0  0.25086835151E+01 -0.61702639161E+01  0.73044125811E+01  0.98859050131E+01  0.10500000000E+00 0.  1.
</event>
<event>
11    0  0.3510903E-009  0.9118800E+02  0.7816531E-02  0.1126479E+00
         25   -1    0    0    0    0  0.00000000000E+00  0.00000000000E+00  0.99999998245E-14  0.12500000000E+03  0.12500000000E+03 0.  0.
    3000001    1    3    3    0    0 -0.57186102477E+01  0.58030624079E+01  0.10440073429E+02  0.13280556075E+02  0.10000000000E+01 0. -1.
    1000022    2    1    0    0    0 -0.12549812745E+02  0.39031708303E+02  0.46100736799E+02  0.62499999814E+02  0.99999995169E+01 0.  0.
    3000022    2    3    3    0    0 -0.68312024978E+01  0.33228645895E+02  0.35660663370E+02  0.49219443738E+02  0.24998867443E+00 0.  0.
    1000022    2    1    0    0    0  0.12549812745E+02 -0.39031708303E+02 -0.46100736799E+02  0.62500000186E+02  0.10000001843E+02 0.  0.
    3000022    2    5    5    0    0  0.33744557753E+01 -0.33632421175E+01 -0.23992136582E+01  0.53401385666E+01  0.25000882341E+00 0.  0.
        -13    1    4    4    0    0 -0.49639058680E+01  0.23953400927E+02  0.25704780338E+02  0.35484539375E+02  0.10500000000E+00 0.  1.
         13    1    4    4    0    0 -0.18672966298E+01  0.92752449676E+01  0.99558830322E+01  0.13734904363E+02  0.10500000000E+00 0. -1.
    3000001    1    5    5    0    0  0.91753569702E+01 -0.35668466185E+02 -0.43701523141E+02  0.57159861620E+02  0.10000000000E+01 0. -1.
        -13    1    6    6    0    0  0.15744070998E+01 -0.16516605813E+01 -0.11107349759E+01  0.25399798382E+01  0.10500000000E+00 0. -1.
         13    1    6    6    0    0  0.18000486754E+01 -0.17115815362E+01 -0.12884786823E+01  0.28001587283E+01  0.10500000000E+00 0.  1.
</event>
<event>
11    0  0.3510903E-009  0.9118800E+02  0.7816531E-02  0.1126479E+00
         25   -1    0    0    0    0  0.00000000000E+00  0.00000000000E+00  0.99999998245E-14  0.12500000000E+03  0.12500000000E+03 0.  0.
    3000001    1    3    3    0    0  0.52484373525E+01 -0.35367968193E+02 -0.21374387616E+02  0.41668977845E+02  0.10000000000E+01 0.  1.
    1000022    2    1    0    0    0  0.14262519525E+02 -0.50264460660E+02 -0.32807229561E+02  0.62500001353E+02  0.10000019451E+02 0.  0.
    3000022    2    3    3    0    0  0.90140821724E+01 -0.14896492467E+02 -0.11432841945E+02  0.20831023507E+02  0.25000038860E+00 0.  0.
    1000022    2    1    0    0    0 -0.14262519525E+02  0.50264460660E+02  0.32807229561E+02  0.62499998647E+02  0.10000002542E+02 0.  0.
    3000022    2    5    5    0    0 -0.89912074427E+01  0.31652339534E+02  0.26106014901E+02  0.42003558425E+02  0.24999420418E+00 0.  0.
        -13    1    4    4    0    0  0.45245856657E+01 -0.75968686613E+01 -0.57728692681E+01  0.10560366163E+02  0.10500000000E+00 0.  1.
         13    1    4    4    0    0  0.44894965068E+01 -0.72996238058E+01 -0.56599726766E+01  0.10270657345E+02  0.10500000000E+00 0. -1.
    3000001    1    5    5    0    0 -0.52713120822E+01  0.18612121126E+02  0.67012146601E+01  0.20496440223E+02  0.10000000000E+01 0. -1.
        -13    1    6    6    0    0 -0.43897773969E+01  0.15597411372E+02  0.12926009086E+02  0.20727810376E+02  0.10500000000E+00 0.  1.
         13    1    6    6    0    0 -0.46014300458E+01  0.16054928162E+02  0.13180005815E+02  0.21275748049E+02  0.10500000000E+00 0. -1.
</event>
<event>
11    0  0.3510903E-009  0.9118800E+02  0.7816531E-02  0.1126479E+00
         25   -1    0    0    0    0  0.00000000000E+00  0.00000000000E+00  0.99999998245E-14  0.12500000000E+03  0.12500000000E+03 0.  0.
    3000001    1    3    3    0    0 -0.15831240705E+00  0.68090467093E+00 -0.94443126746E+01  0.95228008425E+01  0.10000000000E+01 0.  1.
    1000022    2    1    0    0    0 -0.22896496531E+02  0.42470337753E-01 -0.57288730347E+02  0.62499998073E+02  0.99999888634E+01 0.  0.
    3000022    2    3    3    0    0 -0.22738184123E+02 -0.63843433318E+00 -0.47844417672E+02  0.52977197231E+02  0.25001675533E+00 0.  0.
    1000022    2    1    0    0    0  0.22896496531E+02 -0.42470337753E-01  0.57288730347E+02  0.62500001927E+02  0.10000012949E+02 0.  0.
    3000022    2    5    5    0    0  0.23156105223E+02 -0.65205070127E+00  0.56498094744E+02  0.61063307961E+02  0.24998067102E+00 0.  0.
        -13    1    4    4    0    0 -0.15316775753E+02 -0.46298705123E+00 -0.32323778928E+02  0.35772275377E+02  0.10500000000E+00 0.  1.
         13    1    4    4    0    0 -0.74214083701E+01 -0.17544728195E+00 -0.15520638745E+02  0.17204921854E+02  0.10500000000E+00 0. -1.
    3000001    1    5    5    0    0 -0.25960869217E+00  0.60958036352E+00  0.79063560344E+00  0.14366939653E+01  0.10000000000E+01 0. -1.
        -13    1    6    6    0    0  0.16859552569E+02 -0.49552886710E+00  0.41214918366E+02  0.44532803444E+02  0.10500000000E+00 0.  1.
         13    1    6    6    0    0  0.62965526537E+01 -0.15652183417E+00  0.15283176377E+02  0.16530504517E+02  0.10500000000E+00 0. -1.
</event>
<event>
11    0  0.3510903E-009  0.9118800E+02  0.7816531E-02  0.1126479E+00
         25   -1    0    0    0    0  0.00000000000E+00  0.00000000000E+00  0.99999998245E-14  0.12500000000E+03  0.12500000000E+03 0.  0.
    3000001    1    3    3    0    0 -0.12037656933E+02 -0.47815663748E+02  0.14087573665E+02  0.51290375470E+02  0.10000000000E+01 0. -1.
    1000022    2    1    0    0    0 -0.11796894412E+02 -0.56957345370E+02  0.20565604439E+02  0.62500000394E+02  0.10000002698E+02 0.  0.
    3000022    2    3    3    0    0  0.24076252170E+00 -0.91416816219E+01  0.64780307741E+01  0.11209624924E+02  0.24999751267E+00 0.  0.
    1000022    2    1    0    0    0  0.11796894412E+02  0.56957345370E+02 -0.20565604439E+02  0.62499999606E+02  0.99999977745E+01 0.  0.
    3000022    2    5    5    0    0  0.13064095305E+00  0.20310322129E+02 -0.97828709770E+01  0.22545361289E+02  0.24999807867E+00 0.  0.
        -13    1    4    4    0    0  0.16813149538E+00 -0.63941298747E+01  0.44737189520E+01  0.78063020256E+01  0.10500000000E+00 0. -1.
         13    1    4    4    0    0  0.72631026320E-01 -0.27475517473E+01  0.20043118221E+01  0.34033228983E+01  0.10500000000E+00 0.  1.
    3000001    1    5    5    0    0  0.11666253459E+02  0.36647023240E+02 -0.10782733462E+02  0.39954638317E+02  0.10000000000E+01 0.  1.
        -13    1    6    6    0    0  0.12976103261E+00  0.13093435425E+02 -0.63453733998E+01  0.14550933913E+02  0.10500000000E+00 0.  1.
         13    1    6    6    0    0  0.87992044702E-03  0.72168867042E+01 -0.34374975772E+01  0.79944273759E+01  0.10500000000E+00 0. -1.
</event>
<event>
11    0  0.3510903E-009  0.9118800E+02  0.7816531E-02  0.1126479E+00
         25   -1    0    0    0    0  0.00000000000E+00  0.00000000000E+00  0.99999998245E-14  0.12500000000E+03  0.12500000000E+03 0.  0.
    3000001    1    3    3    0    0 -0.28913955402E+02  0.42860973935E+01 -0.46539513005E+02  0.54966478136E+02  0.10000000000E+01 0.  1.
    1000022    2    1    0    0    0 -0.33799078948E+02  0.78708326096E+01 -0.51009043682E+02  0.62499998008E+02  0.99999734943E+01 0.  0.
    3000022    2    3    3    0    0 -0.48851235455E+01  0.35847352160E+01 -0.44695306771E+01  0.75335198720E+01  0.24991711575E+00 0.  0.
    1000022    2    1    0    0    0  0.33799078948E+02 -0.78708326096E+01  0.51009043682E+02  0.62500001992E+02  0.99999983956E+01 0.  0.
    3000022    2    5    5    0    0  0.56240648022E+01 -0.84755767291E+00  0.31347228941E+01  0.64990341085E+01  0.24999562475E+00 0.  0.
        -13    1    4    4    0    0 -0.25193989048E+01  0.19301856533E+01 -0.23210115040E+01  0.39333327979E+01  0.10500000000E+00 0.  1.
         13    1    4    4    0    0 -0.23657246408E+01  0.16545495628E+01 -0.21485191730E+01  0.36001870741E+01  0.10500000000E+00 0. -1.
    3000001    1    5    5    0    0  0.28175014146E+02 -0.70232749367E+01  0.47874320788E+02  0.56000967884E+02  0.10000000000E+01 0. -1.
        -13    1    6    6    0    0  0.34221995038E+01 -0.57597147325E+00  0.19313615775E+01  0.39729554647E+01  0.10500000000E+00 0.  1.
         13    1    6    6    0    0  0.22018652984E+01 -0.27158619966E+00  0.12033613166E+01  0.25260786438E+01  0.10500000000E+00 0. -1.
</event>
<event>
11    0  0.3510903E-009  0.9118800E+02  0.7816531E-02  0.1126479E+00
         25   -1    0    0    0    0  0.00000000000E+00  0.00000000000E+00  0.99999998245E-14  0.12500000000E+03  0.12500000000E+03 0.  0.
    3000001    1    3    3    0    0 -0.10253148080E+02  0.15084409856E+02  0.14553478021E+02  0.23355303226E+02  0.10000000000E+01 0.  1.
    1000022    2    1    0    0    0 -0.26049154661E+02  0.47954947688E+02  0.28775243234E+02  0.62499999033E+02  0.99999894787E+01 0.  0.
    3000022    2    3    3    0    0 -0.15796006581E+02  0.32870537832E+02  0.14221765213E+02  0.39144695807E+02  0.25004555089E+00 0.  0.
    1000022    2    1    0    0    0  0.26049154661E+02 -0.47954947688E+02 -0.28775243234E+02  0.62500000967E+02  0.10000001568E+02 0.  0.
    3000022    2    5    5    0    0  0.66773223265E+00 -0.62371242785E+01 -0.11369366830E+01  0.63798674716E+01  0.24999666695E+00 0.  0.
        -13    1    4    4    0    0 -0.45374817931E+01  0.95347026128E+01  0.41342706809E+01  0.11340304846E+02  0.10500000000E+00 0. -1.
         13    1    4    4    0    0 -0.11258524788E+02  0.23335835219E+02  0.10087494533E+02  0.27804390961E+02  0.10500000000E+00 0.  1.
    3000001    1    5    5    0    0  0.25381422429E+02 -0.41717823410E+02 -0.27638306551E+02  0.56120133496E+02  0.10000000000E+01 0. -1.
        -13    1    6    6    0    0  0.34162963043E+00 -0.34728770361E+01 -0.57223086868E+00  0.35378042455E+01  0.10500000000E+00 0.  1.
         13    1    6    6    0    0  0.32610260222E+00 -0.27642472424E+01 -0.56470581431E+00  0.28420632261E+01  0.10500000000E+00 0. -1.
</event>
<event>
11    0  0.3510903E-009  0.9118800E+02  0.7816531E-02  0.1126479E+00
         25   -1    0    0    0    0  0.00000000000E+00  0.00000000000E+00  0.99999998245E-14  0.12500000000E+03  0.12500000000E+03 0.  0.
    3000001    1    3    3    0    0  0.16454075923E+02 -0.52561475799E+01 -0.42663808202E+02  0.46038725353E+02  0.10000000000E+01 0. -1.
    1000022    2    1    0    0    0  0.16951445412E+02 -0.49558695116E+01 -0.59112926009E+02  0.62499998536E+02  0.99999825706E+01 0.  0.
    3000022    2    3    3    0    0  0.49736948912E+00  0.30027806832E+00 -0.16449117807E+02  0.16461273182E+02  0.24998964452E+00 0.  0.
    1000022    2    1    0    0    0 -0.16951445412E+02  0.49558695116E+01  0.59112926009E+02  0.62500001464E+02  0.10000000876E+02 0.  0.
    3000022    2    5    5    0    0 -0.40605662558E+01  0.60747001197E+01  0.22069473155E+02  0.23248963941E+02  0.24999821604E+00 0.  0.
        -13    1    4    4    0    0  0.15300802440E+00  0.59330898161E-01 -0.42431169480E+01  0.42475873205E+01  0.10500000000E+00 0. -1.
         13    1    4    4    0    0  0.34436146473E+00  0.24094717016E+00 -0.12206000859E+02  0.12213685862E+02  0.10500000000E+00 0.  1.
    3000001    1    5    5    0    0 -0.12890879156E+02 -0.11188306081E+01  0.37043452854E+02  0.39251037524E+02  0.10000000000E+01 0.  1.
        -13    1    6    6    0    0 -0.18351575204E+01  0.26399431523E+01  0.98082370173E+01  0.10322288572E+02  0.10500000000E+00 0. -1.
         13    1    6    6    0    0 -0.22254087354E+01  0.34347569673E+01  0.12261236138E+02  0.12926675369E+02  0.10500000000E+00 0.  1.
</event>
<event>
11    0  0.3510903E-009  0.9118800E+02  0.7816531E-02  0.1126479E+00
         25   -1    0    0    0    0  0.00000000000E+00  0.00000000000E+00  0.99999998245E-14  0.12500000000E+03  0.12500000000E+03 0.  0.
    3000001    1    3    3    0    0 -0.12054648026E+02 -0.94408120283E+01 -0.92179356529E+01  0.17900106382E+02  0.10000000000E+01 0. -1.
    1000022    2    1    0    0    0 -0.48230399296E+02 -0.34005412034E+02 -0.17991964275E+02  0.62500001371E+02  0.99999964534E+01 0.  0.
    3000022    2    3    3    0    0 -0.36175751270E+02 -0.24564600006E+02 -0.87740286226E+01  0.44599894990E+02  0.25000279743E+00 0.  0.
    1000022    2    1    0    0    0  0.48230399296E+02  0.34005412034E+02  0.17991964275E+02  0.62499998629E+02  0.99999793134E+01 0.  0.
    3000022    2    5    5    0    0  0.16624687253E+01  0.10836831706E+01  0.28568135122E+01  0.34874137201E+01  0.24999906892E+00 0.  0.
        -13    1    4    4    0    0 -0.94675867427E+01 -0.64661004636E+01 -0.23114506114E+01  0.11696131107E+02  0.10500000000E+00 0.  1.
         13    1    4    4    0    0 -0.26708164527E+02 -0.18098499542E+02 -0.64625780111E+01  0.32903763883E+02  0.10500000000E+00 0. -1.
    3000001    1    5    5    0    0  0.46567930570E+02  0.32921728864E+02  0.15135150763E+02  0.59012584909E+02  0.10000000000E+01 0. -1.
        -13    1    6    6    0    0  0.53607139428E+00  0.34179795629E+00  0.83475690207E+00  0.10545342423E+01  0.10500000000E+00 0.  1.
         13    1    6    6    0    0  0.11263973310E+01  0.74188521433E+00  0.20220566102E+01  0.24328794777E+01  0.10500000000E+00 0. -1.
</event>
<event>
11    0  0.3510903E-009  0.9118800E+02  0.7816531E-02  0.1126479E+00
         25   -1    0    0    0    0  0.00000000000E+00  0.00000000000E+00  0.99999998245E-14  0.12500000000E+03  0.12500000000E+03 0.  0.
    3000001    1    3    3    0    0 -0.73971643008E+01  0.24025173118E+02  0.10383081194E+02  0.27216453812E+02  0.10000000000E+01 0.  1.
    1000022    2    1    0    0    0 -0.72130311428E+01  0.53839676769E+02  0.29249124418E+02  0.62499999826E+02  0.10000004309E+02 0.  0.
    3000022    2    3    3    0    0  0.18413315804E+00  0.29814503651E+02  0.18866043224E+02  0.35283546014E+02  0.24999879299E+00 0.  0.
    1000022    2    1    0    0    0  0.72130311428E+01 -0.53839676769E+02 -0.29249124418E+02  0.62500000174E+02  0.10000006480E+02 0.  0.
    3000022    2    5    5    0    0  0.95464313818E+01 -0.45536291281E+02 -0.25308830217E+02  0.52964965531E+02  0.25002202603E+00 0.  0.
        -13    1    4    4    0    0  0.75186419323E-01  0.20296462820E+02  0.12850430468E+02  0.24022835891E+02  0.10500000000E+00 0.  1.
         13    1    4    4    0    0  0.10894673872E+00  0.95180408307E+01  0.60156127557E+01  0.11260710123E+02  0.10500000000E+00 0. -1.
    3000001    1    5    5    0    0 -0.23334002391E+01 -0.83033854882E+01 -0.39402942014E+01  0.95350346426E+01  0.10000000000E+01 0.  1.
        -13    1    6    6    0    0  0.43205323603E+01 -0.20935241121E+02 -0.11632509521E+02  0.24336754579E+02  0.10500000000E+00 0. -1.
         13    1    6    6    0    0  0.52258990215E+01 -0.24601050160E+02 -0.13676320696E+02  0.28628210952E+02  0.10500000000E+00 0.  1.
</event>
<event>
11    0  0.3510903E-009  0.9118800E+02  0.7816531E-02  0.1126479E+00
         25   -1    0    0    0    0  0.00000000000E+00  0.00000000000E+00  0.99999998245E-14  0.12500000000E+03  0.12500000000E+03 0.  0.
    3000001    1    3    3    0    0  0.11203603241E+01  0.17231668903E+01 -0.48822367549E+00  0.23372791328E+01  0.10000000000E+01 0. -1.
    1000022    2    1    0    0    0  0.25222390014E+02  0.47604805680E+02  0.30064325889E+02  0.62500003476E+02  0.10000013075E+02 0.  0.
    3000022    2    3    3    0    0  0.24102029690E+02  0.45881638790E+02  0.30552549565E+02  0.60162724343E+02  0.25000461745E+00 0.  0.
    1000022    2    1    0    0    0 -0.25222390014E+02 -0.47604805680E+02 -0.30064325889E+02  0.62499996524E+02  0.99999696216E+01 0.  0.
    3000022    2    5    5    0    0 -0.12484781496E+02 -0.14466188772E+02 -0.12873608031E+02  0.23041976023E+02  0.24997745377E+00 0.  0.
        -13    1    4    4    0    0  0.14310868473E+02  0.27350343598E+02  0.18151656042E+02  0.35809717863E+02  0.10500000000E+00 0. -1.
         13    1    4    4    0    0  0.97911612166E+01  0.18531295192E+02  0.12400893523E+02  0.24353006480E+02  0.10500000000E+00 0.  1.
    3000001    1    5    5    0    0 -0.12737608517E+02 -0.33138616908E+02 -0.17190717859E+02  0.39458020500E+02  0.10000000000E+01 0.  1.
        -13    1    6    6    0    0 -0.59397350324E+01 -0.69673707139E+01 -0.62146184899E+01  0.11066038808E+02  0.10500000000E+00 0.  1.
         13    1    6    6    0    0 -0.65450464639E+01 -0.74988180583E+01 -0.66589895407E+01  0.11975937216E+02  0.10500000000E+00 0. -1.
</event>
<event>
11    0  0.3510903E-009  0.9118800E+02  0.7816531E-02  0.1126479E+00
         25   -1    0    0    0    0  0.00000000000E+00  0.00000000000E+00  0.99999998245E-14  0.12500000000E+03  0.12500000000E+03 0.  0.
    3000001    1    3    3    0    0 -0.24983286793E+02 -0.13647236213E+02  0.31726048485E+02  0.42637469763E+02  0.10000000000E+01 0.  1.
    1000022    2    1    0    0    0 -0.39304479812E+02 -0.23479231643E+02  0.41353760826E+02  0.62499998394E+02  0.99999906453E+01 0.  0.
    3000022    2    3    3    0    0 -0.14321193018E+02 -0.98319954296E+01  0.96277123411E+01  0.19862528631E+02  0.24999020170E+00 0.  0.
    1000022    2    1    0    0    0  0.39304479812E+02  0.23479231643E+02 -0.41353760826E+02  0.62500001606E+02  0.10000010725E+02 0.  0.
    3000022    2    5    5    0    0  0.21041817928E+02  0.15993463958E+02 -0.18369854346E+02  0.32187933152E+02  0.25000159322E+00 0.  0.
        -13    1    4    4    0    0 -0.43282214597E+01 -0.29407656500E+01  0.28563802741E+01  0.59625109545E+01  0.10500000000E+00 0. -1.
         13    1    4    4    0    0 -0.99929715586E+01 -0.68912297796E+01  0.67713320670E+01  0.13900017677E+02  0.10500000000E+00 0.  1.
    3000001    1    5    5    0    0  0.18262661883E+02  0.74857676853E+01 -0.22983906480E+02  0.30312068455E+02  0.10000000000E+01 0. -1.
        -13    1    6    6    0    0  0.13136478756E+02  0.10037788500E+02 -0.11542609209E+02  0.20163509725E+02  0.10500000000E+00 0.  1.
         13    1    6    6    0    0  0.79053391717E+01  0.59556754577E+01 -0.68272451370E+01  0.12024423426E+02  0.10500000000E+00 0. -1.
</event>
<event>
11    0  0.3510903E-009  0.9118800E+02  0.7816531E-02  0.1126479E+00
         25   -1    0    0    0    0  0.00000000000E+00  0.00000000000E+00  0.99999998245E-14  0.12500000000E+03  0.12500000000E+03 0.  0.
    3000001    1    3    3    0    0  0.13001775408E+02 -0.10111492618E+02 -0.34282485881E+01  0.16853525896E+02  0.10000000000E+01 0.  1.
    1000022    2    1    0    0    0  0.37950483445E+02 -0.42156059018E+02 -0.24266809207E+02  0.62499997595E+02  0.99999582316E+01 0.  0.
    3000022    2    3    3    0    0  0.24948708037E+02 -0.32044566399E+02 -0.20838560619E+02  0.45646471699E+02  0.25000295061E+00 0.  0.
    1000022    2    1    0    0    0 -0.37950483445E+02  0.42156059018E+02  0.24266809207E+02  0.62500002405E+02  0.99999882960E+01 0.  0.
    3000022    2    5    5    0    0 -0.18295647907E+02  0.27566391147E+02  0.14573139032E+02  0.36153499600E+02  0.24999772089E+00 0.  0.
        -13    1    4    4    0    0  0.18199011394E+02 -0.23345746649E+02 -0.15153210242E+02  0.33254453957E+02  0.10500000000E+00 0.  1.
         13    1    4    4    0    0  0.67496966430E+01 -0.86988197503E+01 -0.56853503765E+01  0.12392017742E+02  0.10500000000E+00 0. -1.
    3000001    1    5    5    0    0 -0.19654835538E+02  0.14589667871E+02  0.96936701745E+01  0.26346502805E+02  0.10000000000E+01 0. -1.
        -13    1    6    6    0    0 -0.92902289518E+01  0.13999023294E+02  0.74745312652E+01  0.18389144890E+02  0.10500000000E+00 0.  1.
         13    1    6    6    0    0 -0.90054189556E+01  0.13567367853E+02  0.70986077672E+01  0.17764354710E+02  0.10500000000E+00 0. -1.
</event>
<event>
11    0  0.3510903E-009  0.9118800E+02  0.7816531E-02  0.1126479E+00
         25   -1    0    0    0    0  0.00000000000E+00  0.00000000000E+00  0.99999998245E-14  0.12500000000E+03  0.12500000000E+03 0.  0.
    3000001    1    3    3    0    0  0.59026289374E+01  0.79271463018E+01 -0.14406334426E+00  0.99348593905E+01  0.10000000000E+01 0.  1.
    1000022    2    1    0    0    0  0.42337207140E+02  0.40071006159E+02 -0.20202113229E+02  0.62500000699E+02  0.10000003274E+02 0.  0.
    3000022    2    3    3    0    0  0.36434578203E+02  0.32143859858E+02 -0.20058049885E+02  0.52565141309E+02  0.25000060478E+00 0.  0.
    1000022    2    1    0    0    0 -0.42337207140E+02 -0.40071006159E+02  0.20202113229E+02  0.62499999301E+02  0.99999945306E+01 0.  0.
    3000022    2    5    5    0    0 -0.19919949931E+02 -0.16948674214E+02  0.14073304575E+02  0.29701554965E+02  0.25000553258E+00 0.  0.
        -13    1    4    4    0    0  0.20659419683E+02  0.18244224416E+02 -0.11308678832E+02  0.29791955090E+02  0.10500000000E+00 0.  1.
         13    1    4    4    0    0  0.15775158520E+02  0.13899635442E+02 -0.87493710525E+01  0.22773186219E+02  0.10500000000E+00 0. -1.
    3000001    1    5    5    0    0 -0.22417257209E+02 -0.23122331945E+02  0.61288086539E+01  0.32798444336E+02  0.10000000000E+01 0. -1.
        -13    1    6    6    0    0 -0.88976414774E+01 -0.75631318357E+01  0.63588779311E+01  0.13297192958E+02  0.10500000000E+00 0. -1.
         13    1    6    6    0    0 -0.11022308454E+02 -0.93855423787E+01  0.77144266442E+01  0.16404362007E+02  0.10500000000E+00 0.  1.
</event>
<event>
11    0  0.3510903E-009  0.9118800E+02  0.7816531E-02  0.1126479E+00
         25   -1    0    0    0    0  0.00000000000E+00  0.00000000000E+00  0.99999998245E-14  0.12500000000E+03  0.12500000000E+03 0.  0.
    3000001    1    3    3    0    0 -0.69743523866E+01 -0.62362138631E+01  0.16041443115E+01  0.95449061562E+01  0.10000000000E+01 0.  1.
    1000022    2    1    0    0    0 -0.27190556409E+02 -0.54013543114E+02  0.12225404644E+02  0.62499998157E+02  0.10000002663E+02 0.  0.
    3000022    2    3    3    0    0 -0.20216204023E+02 -0.47777329251E+02  0.10621260333E+02  0.52955092001E+02  0.25000450067E+00 0.  0.
    1000022    2    1    0    0    0  0.27190556409E+02  0.54013543114E+02 -0.12225404644E+02  0.62500001843E+02  0.10000025703E+02 0.  0.
    3000022    2    5    5    0    0  0.52000602103E+01  0.37516707184E+01 -0.10479768439E+01  0.65020319509E+01  0.25000930979E+00 0.  0.
        -13    1    4    4    0    0 -0.10432919499E+02 -0.24740908713E+02  0.54368897439E+01  0.27395787419E+02  0.10500000000E+00 0.  1.
         13    1    4    4    0    0 -0.97832845233E+01 -0.23036420538E+02  0.51843705889E+01  0.25559304581E+02  0.10500000000E+00 0. -1.
    3000001    1    5    5    0    0  0.21990496199E+02  0.50261872396E+02 -0.11177427800E+02  0.55997969892E+02  0.10000000000E+01 0. -1.
        -13    1    6    6    0    0  0.22821775293E+01  0.16032114425E+01 -0.39944583858E+00  0.28194331314E+01  0.10500000000E+00 0.  1.
         13    1    6    6    0    0  0.29178826811E+01  0.21484592759E+01 -0.64853100532E+00  0.36825988195E+01  0.10500000000E+00 0. -1.
</event>
<event>
11    0  0.3510903E-009  0.9118800E+02  0.7816531E-02  0.1126479E+00
         25   -1    0    0    0    0  0.00000000000E+00  0.00000000000E+00  0.99999998245E-14  0.12500000000E+03  0.12500000000E+03 0.  0.
    3000001    1    3    3    0    0  0.10118792562E+02 -0.42336748367E+02  0.24124343101E+02  0.49777245356E+02  0.10000000000E+01 0. -1.
    1000022    2    1    0    0    0  0.16810485182E+02 -0.50450713728E+02  0.31279115603E+02  0.62499999111E+02  0.99999944133E+01 0.  0.
    3000022    2    3    3    0    0  0.66916926206E+01 -0.81139653618E+01  0.71547725013E+01  0.12722753755E+02  0.25001910382E+00 0.  0.
    1000022    2    1    0    0    0 -0.16810485182E+02  0.50450713728E+02 -0.31279115603E+02  0.62500000889E+02  0.10000005521E+02 0.  0.
    3000022    2    5    5    0    0 -0.17365616192E+02  0.40285404669E+02 -0.25848118801E+02  0.50918230516E+02  0.24999646671E+00 0.  0.
        -13    1    4    4    0    0  0.30912699711E+01 -0.36435583688E+01  0.32571171798E+01  0.57837103095E+01  0.10500000000E+00 0. -1.
         13    1    4    4    0    0  0.36004226495E+01 -0.44704069930E+01  0.38976553215E+01  0.69390434458E+01  0.10500000000E+00 0.  1.
    3000001    1    5    5    0    0  0.55513100950E+00  0.10165309059E+02 -0.54309968021E+01  0.11581770373E+02  0.10000000000E+01 0.  1.
        -13    1    6    6    0    0 -0.85138635691E+01  0.19801385033E+02 -0.12775143314E+02  0.25055858273E+02  0.10500000000E+00 0.  1.
         13    1    6    6    0    0 -0.88517526228E+01  0.20484019636E+02 -0.13072975487E+02  0.25862372243E+02  0.10500000000E+00 0. -1.
</event>
<event>
11    0  0.3510903E-009  0.9118800E+02  0.7816531E-02  0.1126479E+00
         25   -1    0    0    0    0  0.00000000000E+00  0.00000000000E+00  0.99999998245E-14  0.12500000000E+03  0.12500000000E+03 0.  0.
    3000001    1    3    3    0    0 -0.48168052523E+01 -0.94752043351E+01 -0.28060441331E+01  0.11038794939E+02  0.10000000000E+01 0.  1.
    1000022    2    1    0    0    0 -0.84412194523E+01 -0.55842104873E+02 -0.24832550770E+02  0.62499997231E+02  0.99999606816E+01 0.  0.
    3000022    2    3    3    0    0 -0.36244142001E+01 -0.46366900538E+02 -0.22026506637E+02  0.51461202292E+02  0.25000582991E+00 0.  0.
    1000022    2    1    0    0    0  0.84412194523E+01  0.55842104873E+02  0.24832550770E+02  0.62500002769E+02  0.99999952971E+01 0.  0.
    3000022    2    5    5    0    0 -0.15032298546E+01  0.22321544922E+02  0.99798978773E+01  0.24498406627E+02  0.24999580443E+00 0.  0.
        -13    1    4    4    0    0 -0.15400279254E+01 -0.19355415957E+02 -0.91308331867E+01  0.21456629572E+02  0.10500000000E+00 0. -1.
         13    1    4    4    0    0 -0.20843862747E+01 -0.27011484580E+02 -0.12895673450E+02  0.30004572720E+02  0.10500000000E+00 0.  1.
    3000001    1    5    5    0    0  0.99444493069E+01  0.33520559951E+02  0.14852652892E+02  0.38001596142E+02  0.10000000000E+01 0. -1.
        -13    1    6    6    0    0 -0.69144559278E+00  0.11262426772E+02  0.50457498083E+01  0.12360864449E+02  0.10500000000E+00 0. -1.
         13    1    6    6    0    0 -0.81178426181E+00  0.11059118151E+02  0.49341480690E+01  0.12137542178E+02  0.10500000000E+00 0.  1.
</event>
<event>
11    0  0.3510903E-009  0.9118800E+02  0.7816531E-02  0.1126479E+00
         25   -1    0    0    0    0  0.00000000000E+00  0.00000000000E+00  0.99999998245E-14  0.12500000000E+03  0.12500000000E+03 0.  0.
    3000001    1    3    3    0    0  0.48861789784E+02  0.31116929055E+01 -0.12962457859E+02  0.50657501393E+02  0.10000000000E+01 0.  1.
    1000022    2    1    0    0    0  0.59966923447E+02  0.72001650429E+01 -0.12584739022E+02  0.62499999662E+02  0.10000000861E+02 0.  0.
    3000022    2    3    3    0    0  0.11105133663E+02  0.40884721374E+01  0.37771883753E+00  0.11842498269E+02  0.24999130111E+00 0.  0.
    1000022    2    1    0    0    0 -0.59966923447E+02 -0.72001650429E+01  0.12584739022E+02  0.62500000338E+02  0.10000005083E+02 0.  0.
    3000022    2    5    5    0    0 -0.19116951988E+02 -0.15141922846E+01 -0.60191132604E+00  0.19187898083E+02  0.25000797351E+00 0.  0.
        -13    1    4    4    0    0  0.53158365295E+01  0.18851482082E+01  0.18283330732E+00  0.56441434065E+01  0.10500000000E+00 0. -1.
         13    1    4    4    0    0  0.57892971335E+01  0.22033239292E+01  0.19488553022E+00  0.61983548630E+01  0.10500000000E+00 0.  1.
    3000001    1    5    5    0    0 -0.40849971458E+02 -0.56859727583E+01  0.13186650348E+02  0.43312102255E+02  0.10000000000E+01 0. -1.
        -13    1    6    6    0    0 -0.12675538497E+02 -0.99731653273E+00 -0.45290520799E+00  0.12723209681E+02  0.10500000000E+00 0. -1.
         13    1    6    6    0    0 -0.64414134916E+01 -0.51687575186E+00 -0.14900611806E+00  0.64646884021E+01  0.10500000000E+00 0.  1.
</event>
<event>
11    0  0.3510903E-009  0.9118800E+02  0.7816531E-02  0.1126479E+00
         25   -1    0    0    0    0  0.00000000000E+00  0.00000000000E+00  0.99999998245E-14  0.12500000000E+03  0.12500000000E+03 0.  0.
    3000001    1    3    3    0    0  0.76673107848E+01  0.47428477988E+00 -0.11678242764E+01  0.78343100694E+01  0.10000000000E+01 0.  1.
    1000022    2    1    0    0    0  0.59719598050E+02 -0.15042012539E+01  0.15412890009E+02  0.62499999500E+02  0.99999873165E+01 0.  0.
    3000022    2    3    3    0    0  0.52052287265E+02 -0.19784860337E+01  0.16580714286E+02  0.54665689430E+02  0.24999623234E+00 0.  0.
    1000022    2    1    0    0    0 -0.59719598050E+02  0.15042012539E+01 -0.15412890009E+02  0.62500000500E+02  0.99999935727E+01 0.  0.
    3000022    2    5    5    0    0 -0.74411615764E+01  0.33713238647E+01 -0.10296076024E+01  0.82376758196E+01  0.25000177697E+00 0.  0.
        -13    1    4    4    0    0  0.16543968918E+02 -0.59528839199E+00  0.53088628675E+01  0.17385405540E+02  0.10500000000E+00 0.  1.
         13    1    4    4    0    0  0.35508318347E+02 -0.13831976417E+01  0.11271851418E+02  0.37280283890E+02  0.10500000000E+00 0. -1.
    3000001    1    5    5    0    0 -0.52278436474E+02 -0.18671226108E+01 -0.14383282407E+02  0.54262324681E+02  0.10000000000E+01 0.  1.
        -13    1    6    6    0    0 -0.31330942309E+01  0.14823631687E+01 -0.40559416680E+00  0.34913051502E+01  0.10500000000E+00 0. -1.
         13    1    6    6    0    0 -0.43080673455E+01  0.18889606960E+01 -0.62401343561E+00  0.47463706694E+01  0.10500000000E+00 0.  1.
</event>
<event>
11    0  0.3510903E-009  0.9118800E+02  0.7816531E-02  0.1126479E+00
         25   -1    0    0    0    0  0.00000000000E+00  0.00000000000E+00  0.99999998245E-14  0.12500000000E+03  0.12500000000E+03 0.  0.
    3000001    1    3    3    0    0  0.24319038198E+02  0.12366415600E+02  0.39459631771E+02  0.47983397058E+02  0.10000000000E+01 0. -1.
    1000022    2    1    0    0    0  0.32946093513E+02  0.10813400941E+02  0.51028181353E+02  0.62500000521E+02  0.10000002761E+02 0.  0.
    3000022    2    3    3    0    0  0.86270553155E+01 -0.15530146583E+01  0.11568549582E+02  0.14516603463E+02  0.24999748881E+00 0.  0.
    1000022    2    1    0    0    0 -0.32946093513E+02 -0.10813400941E+02 -0.51028181353E+02  0.62499999479E+02  0.99999962471E+01 0.  0.
    3000022    2    5    5    0    0 -0.32638677195E+02 -0.10264426339E+02 -0.45970279530E+02  0.57305940492E+02  0.25003698938E+00 0.  0.
        -13    1    4    4    0    0  0.64154087530E+01 -0.11821544472E+01  0.86275419016E+01  0.10816675223E+02  0.10500000000E+00 0. -1.
         13    1    4    4    0    0  0.22116465625E+01 -0.37086021106E+00  0.29410076801E+01  0.36999282409E+01  0.10500000000E+00 0.  1.
    3000001    1    5    5    0    0 -0.30741631829E+00 -0.54897460217E+00 -0.50579018228E+01  0.51940589866E+01  0.10000000000E+01 0.  1.
        -13    1    6    6    0    0 -0.83094591901E+01 -0.25850862312E+01 -0.11710537567E+02  0.14590322065E+02  0.10500000000E+00 0. -1.
         13    1    6    6    0    0 -0.24329218005E+02 -0.76793401080E+01 -0.34259741963E+02  0.42715618427E+02  0.10500000000E+00 0.  1.
</event>
<event>
11    0  0.3510903E-009  0.9118800E+02  0.7816531E-02  0.1126479E+00
         25   -1    0    0    0    0  0.00000000000E+00  0.00000000000E+00  0.99999998245E-14  0.12500000000E+03  0.12500000000E+03 0.  0.
    3000001    1    3    3    0    0 -0.13384719475E+02 -0.28913400773E+01 -0.16779078697E+00  0.13730940122E+02  0.10000000000E+01 0.  1.
    1000022    2    1    0    0    0 -0.56682865460E+02 -0.17915348255E+02  0.16502806321E+02  0.62500003838E+02  0.10000046173E+02 0.  0.
    3000022    2    3    3    0    0 -0.43298145985E+02 -0.15024008178E+02  0.16670597108E+02  0.48769063717E+02  0.25000085990E+00 0.  0.
    1000022    2    1    0    0    0  0.56682865460E+02  0.17915348255E+02 -0.16502806321E+02  0.62499996162E+02  0.99999981929E+01 0.  0.
    3000022    2    5    5    0    0  0.46681611851E+02  0.16920578410E+02 -0.10505448872E+02  0.50753382302E+02  0.25000067114E+00 0.  0.
        -13    1    4    4    0    0 -0.26224243783E+02 -0.91639181676E+01  0.10089508244E+02  0.29554992129E+02  0.10500000000E+00 0. -1.
         13    1    4    4    0    0 -0.17073902202E+02 -0.58600900101E+01  0.65810888632E+01  0.19214071587E+02  0.10500000000E+00 0.  1.
    3000001    1    5    5    0    0  0.10001253609E+02  0.99476984504E+00 -0.59973574490E+01  0.11746613860E+02  0.10000000000E+01 0.  1.
        -13    1    6    6    0    0  0.20382320310E+02  0.73178270062E+01 -0.45829417169E+01  0.22136032912E+02  0.10500000000E+00 0. -1.
         13    1    6    6    0    0  0.26299291541E+02  0.96027514038E+01 -0.59225071548E+01  0.28617349390E+02  0.10500000000E+00 0.  1.
</event>
<event>
11    0  0.3510903E-009  0.9118800E+02  0.7816531E-02  0.1126479E+00
         25   -1    0    0    0    0  0.00000000000E+00  0.00000000000E+00  0.99999998245E-14  0.12500000000E+03  0.12500000000E+03 0.  0.
    3000001    1    3    3    0    0 -0.27020683374E+02  0.26925427631E+02  0.86419945023E+01  0.39125184371E+02  0.10000000000E+01 0. -1.
    1000022    2    1    0    0    0 -0.47448319692E+02  0.36692803328E+02  0.14441092118E+02  0.62499999705E+02  0.99999981908E+01 0.  0.
    3000022    2    3    3    0    0 -0.20427636319E+02  0.97673756964E+01  0.57990976160E+01  0.23374815333E+02  0.25001027565E+00 0.  0.
    1000022    2    1    0    0    0  0.47448319692E+02 -0.36692803328E+02 -0.14441092118E+02  0.62500000295E+02  0.10000001883E+02 0.  0.
    3000022    2    5    5    0    0  0.27255136726E+02 -0.26681785784E+02 -0.72853748576E+01  0.38831679695E+02  0.24998091416E+00 0.  0.
        -13    1    4    4    0    0 -0.15540698199E+02  0.74506905564E+01  0.44099178034E+01  0.17790010970E+02  0.10500000000E+00 0. -1.
         13    1    4    4    0    0 -0.48869381194E+01  0.23166851400E+01  0.13891798126E+01  0.55848043630E+01  0.10500000000E+00 0.  1.
    3000001    1    5    5    0    0  0.20193182966E+02 -0.10011017543E+02 -0.71557172607E+01  0.23668320601E+02  0.10000000000E+01 0. -1.
        -13    1    6    6    0    0  0.15434478343E+02 -0.15185131270E+02 -0.41739956279E+01  0.22050954581E+02  0.10500000000E+00 0.  1.
         13    1    6    6    0    0  0.11820658383E+02 -0.11496654515E+02 -0.31113792298E+01  0.16780725114E+02  0.10500000000E+00 0. -1.
</event>
<event>
11    0  0.3510903E-009  0.9118800E+02  0.7816531E-02  0.1126479E+00
         25   -1    0    0    0    0  0.00000000000E+00  0.00000000000E+00  0.99999998245E-14  0.12500000000E+03  0.12500000000E+03 0.  0.
    3000001    1    3    3    0    0 -0.40093720643E+00  0.60652426574E+00 -0.20392264588E+01  0.23847571949E+01  0.10000000000E+01 0.  1.
    1000022    2    1    0    0    0 -0.27046204182E+02  0.47287749718E+02 -0.28958967155E+02  0.62499996531E+02  0.99999676800E+01 0.  0.
    3000022    2    3    3    0    0 -0.26645266975E+02  0.46681225452E+02 -0.26919740696E+02  0.60115239336E+02  0.24999863785E+00 0.  0.
    1000022    2    1    0    0    0  0.27046204182E+02 -0.47287749718E+02  0.28958967155E+02  0.62500003469E+02  0.10000011046E+02 0.  0.
    3000022    2    5    5    0    0  0.89050123491E+01 -0.86354602467E+01  0.40178664220E+01  0.13041325482E+02  0.25000225411E+00 0.  0.
        -13    1    4    4    0    0 -0.13601513916E+02  0.23707546736E+02 -0.13654077962E+02  0.30553131150E+02  0.10500000000E+00 0.  1.
         13    1    4    4    0    0 -0.13043753059E+02  0.22973678716E+02 -0.13265662734E+02  0.29562108186E+02  0.10500000000E+00 0. -1.
    3000001    1    5    5    0    0  0.18141191833E+02 -0.38652289471E+02  0.24941100733E+02  0.49458677987E+02  0.10000000000E+01 0.  1.
        -13    1    6    6    0    0  0.32162373091E+01 -0.30392494259E+01  0.14260412930E+01  0.46503589400E+01  0.10500000000E+00 0.  1.
         13    1    6    6    0    0  0.56887750400E+01 -0.55962108208E+01  0.25918251290E+01  0.83909665418E+01  0.10500000000E+00 0. -1.
</event>
<event>
11    0  0.3510903E-009  0.9118800E+02  0.7816531E-02  0.1126479E+00
         25   -1    0    0    0    0  0.00000000000E+00  0.00000000000E+00  0.99999998245E-14  0.12500000000E+03  0.12500000000E+03 0.  0.
    3000001    1    3    3    0    0  0.25523429041E+02 -0.17198911403E+02  0.15732989381E+02  0.34579978865E+02  0.10000000000E+01 0.  1.
    1000022    2    1    0    0    0  0.49622053837E+02 -0.30545900652E+02  0.20269428779E+02  0.62500000105E+02  0.99999998231E+01 0.  0.
    3000022    2    3    3    0    0  0.24098624796E+02 -0.13346989248E+02  0.45364393979E+01  0.27920021239E+02  0.24992908305E+00 0.  0.
    1000022    2    1    0    0    0 -0.49622053837E+02  0.30545900652E+02 -0.20269428779E+02  0.62499999895E+02  0.99999985134E+01 0.  0.
    3000022    2    5    5    0    0 -0.46077192999E+00  0.50226066758E+00  0.85947001095E+00  0.11250676648E+01  0.25002400060E+00 0.  0.
        -13    1    4    4    0    0  0.16798827528E+02 -0.93557341663E+01  0.31564683041E+01  0.19486012554E+02  0.10500000000E+00 0. -1.
         13    1    4    4    0    0  0.72997972677E+01 -0.39912550820E+01  0.13799710938E+01  0.84340086851E+01  0.10500000000E+00 0.  1.
    3000001    1    5    5    0    0 -0.49161281907E+02  0.30043639984E+02 -0.21128898790E+02  0.61374932230E+02  0.10000000000E+01 0.  1.
        -13    1    6    6    0    0 -0.17785981181E+00  0.17410501284E+00  0.41774313353E+00  0.49747461621E+00  0.10500000000E+00 0. -1.
         13    1    6    6    0    0 -0.28291211818E+00  0.32815565473E+00  0.44172687742E+00  0.62759304854E+00  0.10500000000E+00 0.  1.
</event>
<event>
11    0  0.3510903E-009  0.9118800E+02  0.7816531E-02  0.1126479E+00
         25   -1    0    0    0    0  0.00000000000E+00  0.00000000000E+00  0.99999998245E-14  0.12500000000E+03  0.12500000000E+03 0.  0.
    3000001    1    3    3    0    0 -0.14707057984E+02 -0.14680409099E+02 -0.24988522306E+02  0.32515199721E+02  0.10000000000E+01 0. -1.
    1000022    2    1    0    0    0 -0.35165367596E+02 -0.29046038895E+02 -0.41544850444E+02  0.62500000162E+02  0.99999984116E+01 0.  0.
    3000022    2    3    3    0    0 -0.20458309611E+02 -0.14365629796E+02 -0.16556328137E+02  0.29984800440E+02  0.25000895256E+00 0.  0.
    1000022    2    1    0    0    0  0.35165367596E+02  0.29046038895E+02  0.41544850444E+02  0.62499999838E+02  0.99999963888E+01 0.  0.
    3000022    2    5    5    0    0  0.17408665362E+02  0.20433605339E+02  0.25813122383E+02  0.37242095061E+02  0.25000103225E+00 0.  0.
        -13    1    4    4    0    0 -0.76366393403E+01 -0.53188987244E+01 -0.62214961785E+01  0.11194953495E+02  0.10500000000E+00 0.  1.
         13    1    4    4    0    0 -0.12821670271E+02 -0.90467310715E+01 -0.10334831959E+02  0.18789846945E+02  0.10500000000E+00 0. -1.
    3000001    1    5    5    0    0  0.17756702234E+02  0.86124335556E+01  0.15731728060E+02  0.25257904777E+02  0.10000000000E+01 0.  1.
        -13    1    6    6    0    0  0.10857798105E+02  0.12771618857E+02  0.16199222953E+02  0.23311625366E+02  0.10500000000E+00 0. -1.
         13    1    6    6    0    0  0.65508672570E+01  0.76619864818E+01  0.96138994297E+01  0.13930469695E+02  0.10500000000E+00 0.  1.
</event>
<event>
11    0  0.3510903E-009  0.9118800E+02  0.7816531E-02  0.1126479E+00
         25   -1    0    0    0    0  0.00000000000E+00  0.00000000000E+00  0.99999998245E-14  0.12500000000E+03  0.12500000000E+03 0.  0.
    3000001    1    3    3    0    0 -0.99996796501E-01  0.18715113016E+02  0.29300992984E+02  0.34782375486E+02  0.10000000000E+01 0.  1.
    1000022    2    1    0    0    0 -0.87686051404E+01  0.31571423136E+02  0.52274341351E+02  0.62500000125E+02  0.10000002851E+02 0.  0.
    3000022    2    3    3    0    0 -0.86686083439E+01  0.12856310119E+02  0.22973348367E+02  0.27717624639E+02  0.24999989805E+00 0.  0.
    1000022    2    1    0    0    0  0.87686051404E+01 -0.31571423136E+02 -0.52274341351E+02  0.62499999875E+02  0.10000001288E+02 0.  0.
    3000022    2    5    5    0    0 -0.14009665364E+01 -0.65622344859E+01 -0.64868464769E+01  0.93363431924E+01  0.24999661469E+00 0.  0.
        -13    1    4    4    0    0 -0.63849910509E+01  0.94873336270E+01  0.16997669250E+02  0.20486810269E+02  0.10500000000E+00 0.  1.
         13    1    4    4    0    0 -0.22836172930E+01  0.33689764921E+01  0.59756791172E+01  0.72308143702E+01  0.10500000000E+00 0. -1.
    3000001    1    5    5    0    0  0.10169571677E+02 -0.25009188650E+02 -0.45787494874E+02  0.53163656683E+02  0.10000000000E+01 0.  1.
        -13    1    6    6    0    0 -0.83223174104E+00 -0.39880952104E+01 -0.40200682994E+01  0.57244639234E+01  0.10500000000E+00 0.  1.
         13    1    6    6    0    0 -0.56873479535E+00 -0.25741392755E+01 -0.24667781775E+01  0.36118792690E+01  0.10500000000E+00 0. -1.
</event>
<event>
11    0  0.3510903E-009  0.9118800E+02  0.7816531E-02  0.1126479E+00
         25   -1    0    0    0    0  0.00000000000E+00  0.00000000000E+00  0.99999998245E-14  0.12500000000E+03  0.12500000000E+03 0.  0.
    3000001    1    3    3    0    0 -0.19566830881E+02  0.13074544475E+02 -0.34747260154E+02  0.41978288104E+02  0.10000000000E+01 0. -1.
    1000022    2    1    0    0    0 -0.25014475839E+02  0.24924990444E+02 -0.50589237688E+02  0.62499999903E+02  0.99999933945E+01 0.  0.
    3000022    2    3    3    0    0 -0.54476449588E+01  0.11850445969E+02 -0.15841977534E+02  0.20521711799E+02  0.24999543598E+00 0.  0.
    1000022    2    1    0    0    0  0.25014475839E+02 -0.24924990444E+02  0.50589237688E+02  0.62500000097E+02  0.99999946086E+01 0.  0.
    3000022    2    5    5    0    0  0.96013621381E+00 -0.18074132660E+01  0.86915352208E+01  0.89327423607E+01  0.24999464968E+00 0.  0.
        -13    1    4    4    0    0 -0.32928582401E+01  0.71103662735E+01 -0.94242157448E+01  0.12256716173E+02  0.10500000000E+00 0.  1.
         13    1    4    4    0    0 -0.21547867187E+01  0.47400796953E+01 -0.64177617893E+01  0.82649956265E+01  0.10500000000E+00 0. -1.
    3000001    1    5    5    0    0  0.24054339625E+02 -0.23117577178E+02  0.41897702467E+02  0.53567257736E+02  0.10000000000E+01 0.  1.
        -13    1    6    6    0    0  0.42823150957E+00 -0.79176941275E+00  0.35452486525E+01  0.36592477419E+01  0.10500000000E+00 0.  1.
         13    1    6    6    0    0  0.53190470424E+00 -0.10156438532E+01  0.51462865683E+01  0.52734946188E+01  0.10500000000E+00 0. -1.
</event>
<event>
11    0  0.3510903E-009  0.9118800E+02  0.7816531E-02  0.1126479E+00
         25   -1    0    0    0    0  0.00000000000E+00  0.00000000000E+00  0.99999998245E-14  0.12500000000E+03  0.12500000000E+03 0.  0.
    3000001    1    3    3    0    0  0.28167076020E+02 -0.30630063717E+01 -0.91581099095E+01  0.29793240117E+02  0.10000000000E+01 0. -1.
    1000022    2    1    0    0    0  0.60667245102E+02 -0.32208198409E-01 -0.11213158244E+02  0.62500004766E+02  0.10000000622E+02 0.  0.
    3000022    2    3    3    0    0  0.32500169081E+02  0.30307981733E+01 -0.20550483341E+01  0.32706764649E+02  0.25000458346E+00 0.  0.
    1000022    2    1    0    0    0 -0.60667245102E+02  0.32208198409E-01  0.11213158244E+02  0.62499995234E+02  0.99999410411E+01 0.  0.
    3000022    2    5    5    0    0 -0.31583213334E+02  0.36336078308E+01  0.92514162898E+01  0.33111231826E+02  0.24999852721E+00 0.  0.
        -13    1    4    4    0    0  0.11148378793E+02  0.10590919348E+01 -0.75700039479E+00  0.11224620263E+02  0.10500000000E+00 0. -1.
         13    1    4    4    0    0  0.21351790288E+02  0.19717062384E+01 -0.12980479393E+01  0.21482144387E+02  0.10500000000E+00 0.  1.
    3000001    1    5    5    0    0 -0.29084031767E+02 -0.36013996323E+01  0.19617419538E+01  0.29388763408E+02  0.10000000000E+01 0. -1.
        -13    1    6    6    0    0 -0.24129335012E+02  0.27615177969E+01  0.70609810653E+01  0.25292672205E+02  0.10500000000E+00 0. -1.
         13    1    6    6    0    0 -0.74538783220E+01  0.87209003388E+00  0.21904352245E+01  0.78185596205E+01  0.10500000000E+00 0.  1.
</event>
<event>
11    0  0.3510903E-009  0.9118800E+02  0.7816531E-02  0.1126479E+00
         25   -1    0    0    0    0  0.00000000000E+00  0.00000000000E+00  0.99999998245E-14  0.12500000000E+03  0.12500000000E+03 0.  0.
    3000001    1    3    3    0    0  0.27134708865E+02 -0.76347413695E+01 -0.17877803812E+01  0.28262658397E+02  0.10000000000E+01 0. -1.
    1000022    2    1    0    0    0  0.56975405062E+02 -0.18933784322E+02 -0.14197350691E+02  0.62499998527E+02  0.10000003930E+02 0.  0.
    3000022    2    3    3    0    0  0.29840696197E+02 -0.11299042952E+02 -0.12409570310E+02  0.34237340131E+02  0.25000561356E+00 0.  0.
    1000022    2    1    0    0    0 -0.56975405062E+02  0.18933784322E+02  0.14197350691E+02  0.62500001473E+02  0.10000022337E+02 0.  0.
    3000022    2    5    5    0    0 -0.76052279234E+01  0.32344706267E+01 -0.14035045597E+01  0.83865140068E+01  0.25000026973E+00 0.  0.
        -13    1    4    4    0    0  0.14444512578E+02 -0.55320206208E+01 -0.59791465530E+01  0.16583377650E+02  0.10500000000E+00 0. -1.
         13    1    4    4    0    0  0.15396183619E+02 -0.57670223313E+01 -0.64304237566E+01  0.17653962481E+02  0.10500000000E+00 0.  1.
    3000001    1    5    5    0    0 -0.49370177138E+02  0.15699313695E+02  0.15600855251E+02  0.54113487466E+02  0.10000000000E+01 0. -1.
        -13    1    6    6    0    0 -0.35664998254E+01  0.15053270435E+01 -0.72493477821E+00  0.39398586199E+01  0.10500000000E+00 0.  1.
         13    1    6    6    0    0 -0.40387280980E+01  0.17291435832E+01 -0.67856978152E+00  0.44466553868E+01  0.10500000000E+00 0. -1.
</event>
<event>
11    0  0.3510903E-009  0.9118800E+02  0.7816531E-02  0.1126479E+00
         25   -1    0    0    0    0  0.00000000000E+00  0.00000000000E+00  0.99999998245E-14  0.12500000000E+03  0.12500000000E+03 0.  0.
    3000001    1    3    3    0    0  0.55393292600E+02  0.64168489054E+01 -0.66954162892E+01  0.56173137835E+02  0.10000000000E+01 0. -1.
    1000022    2    1    0    0    0  0.60529909875E+02  0.59385109660E+01 -0.10349598375E+02  0.62500000597E+02  0.99999993048E+01 0.  0.
    3000022    2    3    3    0    0  0.51366172747E+01 -0.47833793941E+00 -0.36541820862E+01  0.63268627615E+01  0.25000294489E+00 0.  0.
    1000022    2    1    0    0    0 -0.60529909875E+02 -0.59385109660E+01  0.10349598375E+02  0.62499999403E+02  0.99999918468E+01 0.  0.
    3000022    2    5    5    0    0 -0.86035272340E+01 -0.14382959268E+01  0.50955825468E+01  0.10105287534E+02  0.24999722220E+00 0.  0.
        -13    1    4    4    0    0  0.37447906709E+01 -0.31314718058E+00 -0.26479625696E+01  0.45982876265E+01  0.10500000000E+00 0.  1.
         13    1    4    4    0    0  0.13918266037E+01 -0.16519075883E+00 -0.10062195166E+01  0.17285751350E+01  0.10500000000E+00 0. -1.
    3000001    1    5    5    0    0 -0.51926382641E+02 -0.45002150391E+01  0.52540158286E+01  0.52394711869E+02  0.10000000000E+01 0. -1.
        -13    1    6    6    0    0 -0.51379454180E+01 -0.79834537509E+00  0.30614179704E+01  0.60348275407E+01  0.10500000000E+00 0. -1.
         13    1    6    6    0    0 -0.34655818160E+01 -0.63995055174E+00  0.20341645764E+01  0.40704599932E+01  0.10500000000E+00 0.  1.
</event>
<event>
11    0  0.3510903E-009  0.9118800E+02  0.7816531E-02  0.1126479E+00
         25   -1    0    0    0    0  0.00000000000E+00  0.00000000000E+00  0.99999998245E-14  0.12500000000E+03  0.12500000000E+03 0.  0.
    3000001    1    3    3    0    0 -0.24517062561E+02  0.31345569281E+02 -0.29401299285E+02  0.49488053809E+02  0.10000000000E+01 0.  1.
    1000022    2    1    0    0    0 -0.34684056005E+02  0.38002461577E+02 -0.34045250322E+02  0.62500000411E+02  0.10000007747E+02 0.  0.
    3000022    2    3    3    0    0 -0.10166993444E+02  0.66568922960E+01 -0.46439510367E+01  0.13011946601E+02  0.25000477032E+00 0.  0.
    1000022    2    1    0    0    0  0.34684056005E+02 -0.38002461577E+02  0.34045250322E+02  0.62499999589E+02  0.10000002616E+02 0.  0.
    3000022    2    5    5    0    0  0.11296077339E+02 -0.68045937903E+01  0.11162797503E+02  0.17279305792E+02  0.25000131063E+00 0.  0.
        -13    1    4    4    0    0 -0.50333732740E+01  0.33196689318E+01 -0.23734568973E+01  0.64806921679E+01  0.10500000000E+00 0.  1.
         13    1    4    4    0    0 -0.51336201705E+01  0.33372233642E+01 -0.22704941394E+01  0.65312544334E+01  0.10500000000E+00 0. -1.
    3000001    1    5    5    0    0  0.23387978666E+02 -0.31197867787E+02  0.22882452819E+02  0.45220693798E+02  0.10000000000E+01 0.  1.
        -13    1    6    6    0    0  0.85740140523E+01 -0.51761300547E+01  0.84994530112E+01  0.13136124459E+02  0.10500000000E+00 0. -1.
         13    1    6    6    0    0  0.27220632868E+01 -0.16284637356E+01  0.26633444916E+01  0.41431813328E+01  0.10500000000E+00 0.  1.
</event>
<event>
11    0  0.3510903E-009  0.9118800E+02  0.7816531E-02  0.1126479E+00
         25   -1    0    0    0    0  0.00000000000E+00  0.00000000000E+00  0.99999998245E-14  0.12500000000E+03  0.12500000000E+03 0.  0.
    3000001    1    3    3    0    0 -0.52562090311E+01 -0.96426775625E+01  0.15765552409E+02  0.19239584370E+02  0.10000000000E+01 0.  1.
    1000022    2    1    0    0    0 -0.22271191288E+02 -0.40475449731E+02  0.40889874826E+02  0.62499999740E+02  0.10000005598E+02 0.  0.
    3000022    2    3    3    0    0 -0.17014982257E+02 -0.30832772169E+02  0.25124322416E+02  0.43260415371E+02  0.25000069488E+00 0.  0.
    1000022    2    1    0    0    0  0.22271191288E+02  0.40475449731E+02 -0.40889874826E+02  0.62500000260E+02  0.10000008843E+02 0.  0.
    3000022    2    5    5    0    0  0.72000930903E+01  0.14137646591E+02 -0.81110883705E+01  0.17820399583E+02  0.24999020063E+00 0.  0.
        -13    1    4    4    0    0 -0.10681054187E+02 -0.19476985443E+02  0.15857340383E+02  0.27292932227E+02  0.10500000000E+00 0. -1.
         13    1    4    4    0    0 -0.63339280698E+01 -0.11355786725E+02  0.92669820338E+01  0.15967483144E+02  0.10500000000E+00 0.  1.
    3000001    1    5    5    0    0  0.15071098198E+02  0.26337803140E+02 -0.32778786455E+02  0.44679600676E+02  0.10000000000E+01 0. -1.
        -13    1    6    6    0    0  0.37089658864E+01  0.73401993007E+01 -0.41343012014E+01  0.92053476384E+01  0.10500000000E+00 0. -1.
         13    1    6    6    0    0  0.34911272039E+01  0.67974472907E+01 -0.39767871690E+01  0.86150519448E+01  0.10500000000E+00 0.  1.
</event>
<event>
11    0  0.3510903E-009  0.9118800E+02  0.7816531E-02  0.1126479E+00
         25   -1    0    0    0    0  0.00000000000E+00  0.00000000000E+00  0.99999998245E-14  0.12500000000E+03  0.12500000000E+03 0.  0.
    3000001    1    3    3    0    0 -0.22738246029E+02 -0.21137824765E+01 -0.55973305913E+02  0.60460787984E+02  0.10000000000E+01 0. -1.
    1000022    2    1    0    0    0 -0.23348209714E+02 -0.37586971145E+01 -0.56982306250E+02  0.62499998998E+02  0.99999974201E+01 0.  0.
    3000022    2    3    3    0    0 -0.60996368501E+00 -0.16449146380E+01 -0.10090003363E+01  0.20392110137E+01  0.25000003333E+00 0.  0.
    1000022    2    1    0    0    0  0.23348209714E+02  0.37586971145E+01  0.56982306250E+02  0.62500001002E+02  0.10000009942E+02 0.  0.
    3000022    2    5    5    0    0  0.81290203797E+01  0.56890214782E+01  0.27750656981E+02  0.29472146165E+02  0.24999798216E+00 0.  0.
        -13    1    4    4    0    0 -0.18030737508E+00 -0.46377564076E+00 -0.24346415146E+00  0.56382478441E+00  0.10500000000E+00 0. -1.
         13    1    4    4    0    0 -0.42965630993E+00 -0.11811389972E+01 -0.76553618481E+00  0.14753862293E+01  0.10500000000E+00 0.  1.
    3000001    1    5    5    0    0  0.15219189335E+02 -0.19303243637E+01  0.29231649269E+02  0.33027854837E+02  0.10000000000E+01 0. -1.
        -13    1    6    6    0    0  0.53412816082E+01  0.36974452337E+01  0.18033370849E+02  0.19168043188E+02  0.10500000000E+00 0.  1.
         13    1    6    6    0    0  0.27877387714E+01  0.19915762445E+01  0.97172861312E+01  0.10304102977E+02  0.10500000000E+00 0. -1.
</event>
<event>
11    0  0.3510903E-009  0.9118800E+02  0.7816531E-02  0.1126479E+00
         25   -1    0    0    0    0  0.00000000000E+00  0.00000000000E+00  0.99999998245E-14  0.12500000000E+03  0.12500000000E+03 0.  0.
    3000001    1    3    3    0    0  0.27751023743E+02 -0.12729290133E+02  0.37434720505E+02  0.48316792582E+02  0.10000000000E+01 0. -1.
    1000022    2    1    0    0    0  0.36156605427E+02 -0.20907650784E+02  0.45407268672E+02  0.62500001530E+02  0.10000008288E+02 0.  0.
    3000022    2    3    3    0    0  0.84055816843E+01 -0.81783606509E+01  0.79725481663E+01  0.14183208949E+02  0.25001085924E+00 0.  0.
    1000022    2    1    0    0    0 -0.36156605427E+02  0.20907650784E+02 -0.45407268672E+02  0.62499998470E+02  0.99999891583E+01 0.  0.
    3000022    2    5    5    0    0 -0.18929906753E+02  0.55073442381E+01 -0.23049201022E+02  0.30331508018E+02  0.25000129977E+00 0.  0.
        -13    1    4    4    0    0  0.24894456453E+01 -0.24842805591E+01  0.23783613290E+01  0.42469538647E+01  0.10500000000E+00 0. -1.
         13    1    4    4    0    0  0.59161360390E+01 -0.56940800918E+01  0.55941868373E+01  0.99362550840E+01  0.10500000000E+00 0.  1.
    3000001    1    5    5    0    0 -0.17226698674E+02  0.15400306546E+02 -0.22358067649E+02  0.32168490451E+02  0.10000000000E+01 0. -1.
        -13    1    6    6    0    0 -0.13156667808E+02  0.37992108373E+01 -0.15950362943E+02  0.21022773694E+02  0.10500000000E+00 0.  1.
         13    1    6    6    0    0 -0.57732389457E+01  0.17081334008E+01 -0.70988380795E+01  0.93087343242E+01  0.10500000000E+00 0. -1.
</event>
<event>
11    0  0.3510903E-009  0.9118800E+02  0.7816531E-02  0.1126479E+00
         25   -1    0    0    0    0  0.00000000000E+00  0.00000000000E+00  0.99999998245E-14  0.12500000000E+03  0.12500000000E+03 0.  0.
    3000001    1    3    3    0    0  0.32133173826E+02 -0.40833371202E+02  0.24640960381E+02  0.57515928162E+02  0.10000000000E+01 0.  1.
    1000022    2    1    0    0    0  0.33196561022E+02 -0.43263624175E+02  0.28853037088E+02  0.62500004043E+02  0.99999957871E+01 0.  0.
    3000022    2    3    3    0    0  0.10633871954E+01 -0.24302529732E+01  0.42120767064E+01  0.49840758806E+01  0.25000072205E+00 0.  0.
    1000022    2    1    0    0    0 -0.33196561022E+02  0.43263624175E+02 -0.28853037088E+02  0.62499995957E+02  0.99999452509E+01 0.  0.
    3000022    2    5    5    0    0 -0.24482660208E+02  0.34750834637E+02 -0.26378590433E+02  0.50029128331E+02  0.24997893221E+00 0.  0.
        -13    1    4    4    0    0  0.69530127809E+00 -0.15764545850E+01  0.26245985277E+01  0.31413683893E+01  0.10500000000E+00 0. -1.
         13    1    4    4    0    0  0.36808591732E+00 -0.85379838823E+00  0.15874781787E+01  0.18427074912E+01  0.10500000000E+00 0.  1.
    3000001    1    5    5    0    0 -0.87139008138E+01  0.85127895376E+01 -0.24744466551E+01  0.12470867626E+02  0.10000000000E+01 0. -1.
        -13    1    6    6    0    0 -0.14483795825E+02  0.20659103677E+02 -0.15687246627E+02  0.29709924907E+02  0.10500000000E+00 0.  1.
         13    1    6    6    0    0 -0.99988643828E+01  0.14091730960E+02 -0.10691343806E+02  0.20319203424E+02  0.10500000000E+00 0. -1.
</event>
<event>
11    0  0.3510903E-009  0.9118800E+02  0.7816531E-02  0.1126479E+00
         25   -1    0    0    0    0  0.00000000000E+00  0.00000000000E+00  0.99999998245E-14  0.12500000000E+03  0.12500000000E+03 0.  0.
    3000001    1    3    3    0    0 -0.41561195561E+01 -0.12586049991E+02 -0.39818605102E+02  0.41978605222E+02  0.10000000000E+01 0. -1.
    1000022    2    1    0    0    0 -0.12797342018E+02 -0.17220406348E+02 -0.57844062636E+02  0.62499999092E+02  0.99999973353E+01 0.  0.
    3000022    2    3    3    0    0 -0.86412224616E+01 -0.46343563563E+01 -0.18025457534E+02  0.20521393869E+02  0.25000510774E+00 0.  0.
    1000022    2    1    0    0    0  0.12797342018E+02  0.17220406348E+02  0.57844062636E+02  0.62500000908E+02  0.10000008687E+02 0.  0.
    3000022    2    5    5    0    0  0.11550907535E+02  0.84850828425E+01  0.29517849188E+02  0.32814417808E+02  0.24999936442E+00 0.  0.
        -13    1    4    4    0    0 -0.58015275855E+01 -0.31657320532E+01 -0.12189809536E+02  0.13866580807E+02  0.10500000000E+00 0.  1.
         13    1    4    4    0    0 -0.28396948761E+01 -0.14686243031E+01 -0.58356479985E+01  0.66548130624E+01  0.10500000000E+00 0. -1.
    3000001    1    5    5    0    0  0.12464344827E+01  0.87353235051E+01  0.28326213448E+02  0.29685583100E+02  0.10000000000E+01 0.  1.
        -13    1    6    6    0    0  0.44405166220E+01  0.32379615697E+01  0.11452434362E+02  0.12703222458E+02  0.10500000000E+00 0.  1.
         13    1    6    6    0    0  0.71103909130E+01  0.52471212728E+01  0.18065414826E+02  0.20111195350E+02  0.10500000000E+00 0. -1.
</event>
<event>
11    0  0.3510903E-009  0.9118800E+02  0.7816531E-02  0.1126479E+00
         25   -1    0    0    0    0  0.00000000000E+00  0.00000000000E+00  0.99999998245E-14  0.12500000000E+03  0.12500000000E+03 0.  0.
    3000001    1    3    3    0    0 -0.35378067326E+02 -0.29368336054E+02  0.14266489291E+02  0.48152253602E+02  0.10000000000E+01 0.  1.
    1000022    2    1    0    0    0 -0.48731039181E+02 -0.33658732043E+02  0.17280784327E+02  0.62499999934E+02  0.10000003117E+02 0.  0.
    3000022    2    3    3    0    0 -0.13352971856E+02 -0.42903959887E+01  0.30142950359E+01  0.14347746331E+02  0.24999021857E+00 0.  0.
    1000022    2    1    0    0    0  0.48731039181E+02  0.33658732043E+02 -0.17280784327E+02  0.62500000066E+02  0.10000003945E+02 0.  0.
    3000022    2    5    5    0    0  0.38854332197E+02  0.29345729410E+02 -0.10768900839E+02  0.49868453877E+02  0.25000348078E+00 0.  0.
        -13    1    4    4    0    0 -0.52342204094E+01 -0.16176034790E+01  0.11664082024E+01  0.56022528865E+01  0.10500000000E+00 0. -1.
         13    1    4    4    0    0 -0.81187514464E+01 -0.26727925096E+01  0.18478868335E+01  0.87454934450E+01  0.10500000000E+00 0.  1.
    3000001    1    5    5    0    0  0.98767069843E+01  0.43130026329E+01 -0.65118834879E+01  0.12631546189E+02  0.10000000000E+01 0. -1.
        -13    1    6    6    0    0  0.14378940722E+02  0.10794874694E+02 -0.39471880808E+01  0.18408546240E+02  0.10500000000E+00 0.  1.
         13    1    6    6    0    0  0.24475391475E+02  0.18550854716E+02 -0.68217127586E+01  0.31459907637E+02  0.10500000000E+00 0. -1.
</event>
<event>
11    0  0.3510903E-009  0.9118800E+02  0.7816531E-02  0.1126479E+00
         25   -1    0    0    0    0  0.00000000000E+00  0.00000000000E+00  0.99999998245E-14  0.12500000000E+03  0.12500000000E+03 0.  0.
    3000001    1    3    3    0    0 -0.15205241920E+02  0.17914156721E+02  0.24874814633E+02  0.34232627651E+02  0.10000000000E+01 0. -1.
    1000022    2    1    0    0    0 -0.35075670254E+02  0.30063500338E+02  0.40891724891E+02  0.62500000775E+02  0.10000011798E+02 0.  0.
    3000022    2    3    3    0    0 -0.19870428335E+02  0.12149343617E+02  0.16016910258E+02  0.28267373124E+02  0.24999320070E+00 0.  0.
    1000022    2    1    0    0    0  0.35075670254E+02 -0.30063500338E+02 -0.40891724891E+02  0.62499999225E+02  0.10000002107E+02 0.  0.
    3000022    2    5    5    0    0  0.37245868326E+01 -0.66017927953E+01 -0.35191367593E+01  0.83608036617E+01  0.24999830481E+00 0.  0.
        -13    1    4    4    0    0 -0.10827582575E+02  0.66981813470E+01  0.87639541152E+01  0.15457040289E+02  0.10500000000E+00 0. -1.
         13    1    4    4    0    0 -0.90428457600E+01  0.54511622697E+01  0.72529561429E+01  0.12810332835E+02  0.10500000000E+00 0.  1.
    3000001    1    5    5    0    0  0.31351083422E+02 -0.23461707542E+02 -0.37372588132E+02  0.54139195563E+02  0.10000000000E+01 0.  1.
        -13    1    6    6    0    0  0.21608921501E+01 -0.39467129844E+01 -0.20578107327E+01  0.49488997037E+01  0.10500000000E+00 0. -1.
         13    1    6    6    0    0  0.15636946825E+01 -0.26550798109E+01 -0.14613260266E+01  0.34119039579E+01  0.10500000000E+00 0.  1.
</event>
<event>
11    0  0.3510903E-009  0.9118800E+02  0.7816531E-02  0.1126479E+00
         25   -1    0    0    0    0  0.00000000000E+00  0.00000000000E+00  0.99999998245E-14  0.12500000000E+03  0.12500000000E+03 0.  0.
    3000001    1    3    3    0    0  0.18889623777E+02  0.21864537643E+01 -0.29457875032E+02  0.35076557241E+02  0.10000000000E+01 0.  1.
    1000022    2    1    0    0    0  0.27724402733E+02  0.10109772455E+02 -0.54179332988E+02  0.62500001373E+02  0.10000002131E+02 0.  0.
    3000022    2    3    3    0    0  0.88347789559E+01  0.79233186912E+01 -0.24721457955E+02  0.27423444131E+02  0.25001260414E+00 0.  0.
    1000022    2    1    0    0    0 -0.27724402733E+02 -0.10109772455E+02  0.54179332988E+02  0.62499998627E+02  0.99999849715E+01 0.  0.
    3000022    2    5    5    0    0 -0.10872953884E+02 -0.88566055303E+01  0.21019171896E+02  0.25269123815E+02  0.24988699982E+00 0.  0.
        -13    1    4    4    0    0  0.62105936221E+01  0.56189754169E+01 -0.17386979429E+02  0.19299285908E+02  0.10500000000E+00 0.  1.
         13    1    4    4    0    0  0.26241853338E+01  0.23043432743E+01 -0.73344785261E+01  0.81241582236E+01  0.10500000000E+00 0. -1.
    3000001    1    5    5    0    0 -0.16851448848E+02 -0.12531669252E+01  0.33160161092E+02  0.37230874812E+02  0.10000000000E+01 0. -1.
        -13    1    6    6    0    0 -0.32932907435E+01 -0.27033091273E+01  0.64664492635E+01  0.77446520410E+01  0.10500000000E+00 0.  1.
         13    1    6    6    0    0 -0.75796631409E+01 -0.61532964030E+01  0.14552722632E+02  0.17524471774E+02  0.10500000000E+00 0. -1.
</event>
<event>
11    0  0.3510903E-009  0.9118800E+02  0.7816531E-02  0.1126479E+00
         25   -1    0    0    0    0  0.00000000000E+00  0.00000000000E+00  0.99999998245E-14  0.12500000000E+03  0.12500000000E+03 0.  0.
    3000001    1    3    3    0    0 -0.12811114535E+01 -0.19998979948E+01  0.18421194402E+01  0.31676872602E+01  0.10000000000E+01 0.  1.
    1000022    2    1    0    0    0 -0.76850454537E+01 -0.13931412634E+02  0.59607931440E+02  0.62499996745E+02  0.99999960475E+01 0.  0.
    3000022    2    3    3    0    0 -0.64039340002E+01 -0.11931514640E+02  0.57765812000E+02  0.59332309485E+02  0.25000107047E+00 0.  0.
    1000022    2    1    0    0    0  0.76850454537E+01  0.13931412634E+02 -0.59607931440E+02  0.62500003255E+02  0.10000036734E+02 0.  0.
    3000022    2    5    5    0    0 -0.11513370720E+01  0.87927520785E+00 -0.94362717804E+00  0.17468918770E+01  0.24999406837E+00 0.  0.
        -13    1    4    4    0    0 -0.34451512139E+01 -0.63511972142E+01  0.30562182025E+02  0.31404852620E+02  0.10500000000E+00 0.  1.
         13    1    4    4    0    0 -0.29587827863E+01 -0.55803174255E+01  0.27203629975E+02  0.27927456865E+02  0.10500000000E+00 0. -1.
    3000001    1    5    5    0    0  0.88363825257E+01  0.13052137427E+02 -0.58664304262E+02  0.60753111378E+02  0.10000000000E+01 0. -1.
        -13    1    6    6    0    0 -0.60938577254E+00  0.53093435244E+00 -0.57266482368E+00  0.99609854264E+00  0.10500000000E+00 0. -1.
         13    1    6    6    0    0 -0.54195129946E+00  0.34834085542E+00 -0.37096235437E+00  0.75079333434E+00  0.10500000000E+00 0.  1.
</event>
<event>
11    0  0.3510903E-009  0.9118800E+02  0.7816531E-02  0.1126479E+00
         25   -1    0    0    0    0  0.00000000000E+00  0.00000000000E+00  0.99999998245E-14  0.12500000000E+03  0.12500000000E+03 0.  0.
    3000001    1    3    3    0    0 -0.81834586455E+01 -0.57492743125E+01  0.58691485843E+00  0.10068148766E+02  0.10000000000E+01 0. -1.
    1000022    2    1    0    0    0 -0.41339316347E+02 -0.43340406033E+02 -0.14795952074E+02  0.62500001549E+02  0.10000006234E+02 0.  0.
    3000022    2    3    3    0    0 -0.33155857702E+02 -0.37591131721E+02 -0.15382866933E+02  0.52431852783E+02  0.25001445190E+00 0.  0.
    1000022    2    1    0    0    0  0.41339316347E+02  0.43340406033E+02  0.14795952074E+02  0.62499998451E+02  0.99999868698E+01 0.  0.
    3000022    2    5    5    0    0  0.23701773288E+02  0.26661001700E+02  0.39464486438E+01  0.35891782074E+02  0.24998979408E+00 0.  0.
        -13    1    4    4    0    0 -0.93315535427E+01 -0.10640857474E+02 -0.43471757109E+01  0.14805900883E+02  0.10500000000E+00 0. -1.
         13    1    4    4    0    0 -0.23824304159E+02 -0.26950274247E+02 -0.11035691222E+02  0.37625951900E+02  0.10500000000E+00 0.  1.
    3000001    1    5    5    0    0  0.17637543060E+02  0.16679404333E+02  0.10849503431E+02  0.26608216377E+02  0.10000000000E+01 0. -1.
        -13    1    6    6    0    0  0.11596536009E+02  0.13067733220E+02  0.19991753588E+01  0.17585591432E+02  0.10500000000E+00 0. -1.
         13    1    6    6    0    0  0.12105237279E+02  0.13593268480E+02  0.19472732850E+01  0.18306190641E+02  0.10500000000E+00 0.  1.
</event>
<event>
11    0  0.3510903E-009  0.9118800E+02  0.7816531E-02  0.1126479E+00
         25   -1    0    0    0    0  0.00000000000E+00  0.00000000000E+00  0.99999998245E-14  0.12500000000E+03  0.12500000000E+03 0.  0.
    3000001    1    3    3    0    0  0.40177935977E+02 -0.24149867144E+02  0.66905242894E+00  0.46892752677E+02  0.10000000000E+01 0. -1.
    1000022    2    1    0    0    0  0.55085527550E+02 -0.27687103206E+02 -0.22932681908E+01  0.62499999981E+02  0.99999944640E+01 0.  0.
    3000022    2    3    3    0    0  0.14907591573E+02 -0.35372360612E+01 -0.29623206198E+01  0.15607247304E+02  0.24999900947E+00 0.  0.
    1000022    2    1    0    0    0 -0.55085527550E+02  0.27687103206E+02  0.22932681908E+01  0.62500000019E+02  0.99999947030E+01 0.  0.
    3000022    2    5    5    0    0 -0.23283357073E+02  0.15728187522E+02  0.44105832820E+01  0.28443036935E+02  0.25001171001E+00 0.  0.
        -13    1    4    4    0    0  0.38995937605E+01 -0.95876840792E+00 -0.77798808776E+00  0.40917427610E+01  0.10500000000E+00 0.  1.
         13    1    4    4    0    0  0.11007997812E+02 -0.25784676533E+01 -0.21843325320E+01  0.11515504543E+02  0.10500000000E+00 0. -1.
    3000001    1    5    5    0    0 -0.31802170476E+02  0.11958915683E+02 -0.21173150912E+01  0.34056963084E+02  0.10000000000E+01 0. -1.
        -13    1    6    6    0    0 -0.11387726943E+02  0.76705399913E+01  0.22213303782E+01  0.13909092075E+02  0.10500000000E+00 0.  1.
         13    1    6    6    0    0 -0.11895630130E+02  0.80576475310E+01  0.21892529037E+01  0.14533944860E+02  0.10500000000E+00 0. -1.
</event>
<event>
11    0  0.3510903E-009  0.9118800E+02  0.7816531E-02  0.1126479E+00
         25   -1    0    0    0    0  0.00000000000E+00  0.00000000000E+00  0.99999998245E-14  0.12500000000E+03  0.12500000000E+03 0.  0.
    3000001    1    3    3    0    0  0.20466672528E+00  0.57137628814E+02 -0.86806264538E+01  0.57802281880E+02  0.10000000000E+01 0.  1.
    1000022    2    1    0    0    0 -0.14302698629E+01  0.61261717165E+02 -0.71558487450E+01  0.62500001458E+02  0.10000017456E+02 0.  0.
    3000022    2    3    3    0    0 -0.16349365881E+01  0.41240883514E+01  0.15247777087E+01  0.46977195780E+01  0.24999959171E+00 0.  0.
    1000022    2    1    0    0    0  0.14302698629E+01 -0.61261717165E+02  0.71558487450E+01  0.62499998542E+02  0.99999992250E+01 0.  0.
    3000022    2    5    5    0    0 -0.18446427413E+01 -0.35639369531E+01  0.19442972972E+01  0.44662224927E+01  0.24999585231E+00 0.  0.
        -13    1    4    4    0    0 -0.97368299233E+00  0.23628985903E+01  0.81944804169E+00  0.26858645555E+01  0.10500000000E+00 0.  1.
         13    1    4    4    0    0 -0.66125359580E+00  0.17611897611E+01  0.70532966706E+00  0.20118550225E+01  0.10500000000E+00 0. -1.
    3000001    1    5    5    0    0  0.32749126042E+01 -0.57697780212E+02  0.52115514479E+01  0.58033776049E+02  0.10000000000E+01 0.  1.
        -13    1    6    6    0    0 -0.81618089582E+00 -0.14414421734E+01  0.78523606261E+00  0.18361719604E+01  0.10500000000E+00 0. -1.
         13    1    6    6    0    0 -0.10284618455E+01 -0.21224947797E+01  0.11590612346E+01  0.26300505324E+01  0.10500000000E+00 0.  1.
</event>
<event>
11    0  0.3510903E-009  0.9118800E+02  0.7816531E-02  0.1126479E+00
         25   -1    0    0    0    0  0.00000000000E+00  0.00000000000E+00  0.99999998245E-14  0.12500000000E+03  0.12500000000E+03 0.  0.
    3000001    1    3    3    0    0  0.27418516190E+02  0.13036020527E+01  0.25649835434E+02  0.37581757093E+02  0.10000000000E+01 0.  1.
    1000022    2    1    0    0    0  0.39818045344E+02  0.60478154845E+01  0.46735390513E+02  0.62500003913E+02  0.10000047777E+02 0.  0.
    3000022    2    3    3    0    0  0.12399529154E+02  0.47442134318E+01  0.21085555079E+02  0.24918246820E+02  0.25001454610E+00 0.  0.
    1000022    2    1    0    0    0 -0.39818045344E+02 -0.60478154845E+01 -0.46735390513E+02  0.62499996087E+02  0.99999988679E+01 0.  0.
    3000022    2    5    5    0    0 -0.28639351763E+02  0.20793256841E+00 -0.32804401868E+02  0.43548214680E+02  0.25002909766E+00 0.  0.
        -13    1    4    4    0    0  0.82420752574E+01  0.31577431500E+01  0.13916055912E+02  0.16479404828E+02  0.10500000000E+00 0. -1.
         13    1    4    4    0    0  0.41574538962E+01  0.15864702818E+01  0.71694991667E+01  0.84388419914E+01  0.10500000000E+00 0.  1.
    3000001    1    5    5    0    0 -0.11178693581E+02 -0.62557480529E+01 -0.13930988645E+02  0.18951781407E+02  0.10000000000E+01 0.  1.
        -13    1    6    6    0    0 -0.15588438776E+02  0.98599598049E-01 -0.17755911511E+02  0.23628215420E+02  0.10500000000E+00 0.  1.
         13    1    6    6    0    0 -0.13050912987E+02  0.10933297037E+00 -0.15048490357E+02  0.19919999260E+02  0.10500000000E+00 0. -1.
</event>
<event>
11    0  0.3510903E-009  0.9118800E+02  0.7816531E-02  0.1126479E+00
         25   -1    0    0    0    0  0.00000000000E+00  0.00000000000E+00  0.99999998245E-14  0.12500000000E+03  0.12500000000E+03 0.  0.
    3000001    1    3    3    0    0 -0.36666907135E+01 -0.18474071386E+01  0.34955457246E+01  0.54841930889E+01  0.10000000000E+01 0. -1.
    1000022    2    1    0    0    0 -0.18418210288E+02 -0.12999608289E+02  0.57428475226E+02  0.62500000612E+02  0.10000001189E+02 0.  0.
    3000022    2    3    3    0    0 -0.14751519574E+02 -0.11152201151E+02  0.53932929502E+02  0.57015807523E+02  0.25000518411E+00 0.  0.
    1000022    2    1    0    0    0  0.18418210288E+02  0.12999608289E+02 -0.57428475226E+02  0.62499999388E+02  0.99999935434E+01 0.  0.
    3000022    2    5    5    0    0  0.17702454427E+02  0.93507290777E+01 -0.41016875018E+02  0.45642738421E+02  0.25001449841E+00 0.  0.
        -13    1    4    4    0    0 -0.10977754641E+02 -0.82634362503E+01  0.40100473862E+02  0.42389320643E+02  0.10500000000E+00 0. -1.
         13    1    4    4    0    0 -0.37737649331E+01 -0.28887649003E+01  0.13832455639E+02  0.14626486879E+02  0.10500000000E+00 0.  1.
    3000001    1    5    5    0    0  0.71575586104E+00  0.36488792116E+01 -0.16411600208E+02  0.16857260968E+02  0.10000000000E+01 0. -1.
        -13    1    6    6    0    0  0.79615608305E+01  0.42792707281E+01 -0.18486501946E+02  0.20578153173E+02  0.10500000000E+00 0.  1.
         13    1    6    6    0    0  0.97408935963E+01  0.50714583496E+01 -0.22530373072E+02  0.25064585247E+02  0.10500000000E+00 0. -1.
</event>
<event>
11    0  0.3510903E-009  0.9118800E+02  0.7816531E-02  0.1126479E+00
         25   -1    0    0    0    0  0.00000000000E+00  0.00000000000E+00  0.99999998245E-14  0.12500000000E+03  0.12500000000E+03 0.  0.
    3000001    1    3    3    0    0  0.24936228167E+02 -0.37953755825E+02 -0.23866122055E+02  0.51311741721E+02  0.10000000000E+01 0. -1.
    1000022    2    1    0    0    0  0.31679083784E+02 -0.46842306771E+02 -0.24667469154E+02  0.62499998960E+02  0.99999891253E+01 0.  0.
    3000022    2    3    3    0    0  0.67428556169E+01 -0.88885509461E+01 -0.80134709807E+00  0.11188257239E+02  0.25000617991E+00 0.  0.
    1000022    2    1    0    0    0 -0.31679083784E+02  0.46842306771E+02  0.24667469154E+02  0.62500001040E+02  0.10000002126E+02 0.  0.
    3000022    2    5    5    0    0 -0.13035384095E+01  0.69805726651E+01  0.14235049490E+01  0.72468248898E+01  0.24999505018E+00 0.  0.
        -13    1    4    4    0    0  0.48142824447E+01 -0.62848024562E+01 -0.59042581758E+00  0.79395015598E+01  0.10500000000E+00 0. -1.
         13    1    4    4    0    0  0.19285731721E+01 -0.26037484898E+01 -0.21092128049E+00  0.32487556795E+01  0.10500000000E+00 0.  1.
    3000001    1    5    5    0    0 -0.30375545375E+02  0.39861734106E+02  0.23243964205E+02  0.55253176150E+02  0.10000000000E+01 0.  1.
        -13    1    6    6    0    0 -0.60820915269E+00  0.29132873792E+01  0.58186196871E+00  0.30342626910E+01  0.10500000000E+00 0. -1.
         13    1    6    6    0    0 -0.69532925678E+00  0.40672852859E+01  0.84164298029E+00  0.42125621988E+01  0.10500000000E+00 0.  1.
</event>
<event>
11    0  0.3510903E-009  0.9118800E+02  0.7816531E-02  0.1126479E+00
         25   -1    0    0    0    0  0.00000000000E+00  0.00000000000E+00  0.99999998245E-14  0.12500000000E+03  0.12500000000E+03 0.  0.
    3000001    1    3    3    0    0  0.17854899011E+01  0.42960052644E+02  0.35632643288E+02  0.55851941462E+02  0.10000000000E+01 0. -1.
    1000022    2    1    0    0    0 -0.13203630527E+01  0.47658582655E+02  0.39155665067E+02  0.62500000538E+02  0.10000005055E+02 0.  0.
    3000022    2    3    3    0    0 -0.31058529538E+01  0.46985300106E+01  0.35230217785E+01  0.66480590753E+01  0.25000037264E+00 0.  0.
    1000022    2    1    0    0    0  0.13203630527E+01 -0.47658582655E+02 -0.39155665067E+02  0.62499999462E+02  0.99999983357E+01 0.  0.
    3000022    2    5    5    0    0  0.54770303519E+01 -0.20465218542E+02 -0.17016891061E+02  0.27174622616E+02  0.25000305908E+00 0.  0.
        -13    1    4    4    0    0 -0.22095224707E+01  0.33734543204E+01  0.25650447571E+01  0.47804459213E+01  0.10500000000E+00 0. -1.
         13    1    4    4    0    0 -0.89633048310E+00  0.13250756902E+01  0.95797702134E+00  0.18676131540E+01  0.10500000000E+00 0.  1.
    3000001    1    5    5    0    0 -0.41566672992E+01 -0.27193364113E+02 -0.22138774006E+02  0.35325376846E+02  0.10000000000E+01 0.  1.
        -13    1    6    6    0    0  0.20701880880E+01 -0.79732392277E+01 -0.66255323336E+01  0.10571987808E+02  0.10500000000E+00 0.  1.
         13    1    6    6    0    0  0.34068422639E+01 -0.12491979314E+02 -0.10391358727E+02  0.16602634809E+02  0.10500000000E+00 0. -1.
</event>
<event>
11    0  0.3510903E-009  0.9118800E+02  0.7816531E-02  0.1126479E+00
         25   -1    0    0    0    0  0.00000000000E+00  0.00000000000E+00  0.99999998245E-14  0.12500000000E+03  0.12500000000E+03 0.  0.
    3000001    1    3    3    0    0  0.11242720293E+02 -0.80664449818E+01  0.31894414420E+02  0.34781028815E+02  0.10000000000E+01 0.  1.
    1000022    2    1    0    0    0  0.13122843866E+02 -0.19776427090E+02  0.56946764678E+02  0.62499998825E+02  0.99999873144E+01 0.  0.
    3000022    2    3    3    0    0  0.18801235728E+01 -0.11709982108E+02  0.25052350258E+02  0.27718970010E+02  0.24999871353E+00 0.  0.
    1000022    2    1    0    0    0 -0.13122843866E+02  0.19776427090E+02 -0.56946764678E+02  0.62500001175E+02  0.10000001998E+02 0.  0.
    3000022    2    5    5    0    0  0.12206745490E+01  0.36397225941E+01 -0.12469255415E+02  0.13049231891E+02  0.24999084354E+00 0.  0.
        -13    1    4    4    0    0  0.52837834463E+00 -0.34123547624E+01  0.72055675167E+01  0.79909058896E+01  0.10500000000E+00 0. -1.
         13    1    4    4    0    0  0.13517452282E+01 -0.82976273459E+01  0.17846782741E+02  0.19728064120E+02  0.10500000000E+00 0.  1.
    3000001    1    5    5    0    0 -0.14343518415E+02  0.16136704496E+02 -0.44477509263E+02  0.49450769284E+02  0.10000000000E+01 0. -1.
        -13    1    6    6    0    0  0.62776215382E+00  0.20519338485E+01 -0.68514974666E+01  0.71804289827E+01  0.10500000000E+00 0.  1.
         13    1    6    6    0    0  0.59291239519E+00  0.15877887457E+01 -0.56177579486E+01  0.58688029084E+01  0.10500000000E+00 0. -1.
</event>
<event>
11    0  0.3510903E-009  0.9118800E+02  0.7816531E-02  0.1126479E+00
         25   -1    0    0    0    0  0.00000000000E+00  0.00000000000E+00  0.99999998245E-14  0.12500000000E+03  0.12500000000E+03 0.  0.
    3000001    1    3    3    0    0 -0.75817375666E+00  0.70151492007E+01  0.94458780806E+01  0.11832656442E+02  0.10000000000E+01 0. -1.
    1000022    2    1    0    0    0 -0.67666629210E+01  0.50338178812E+02  0.35021850633E+02  0.62500000070E+02  0.10000000690E+02 0.  0.
    3000022    2    3    3    0    0 -0.60084891644E+01  0.43323029611E+02  0.25575972552E+02  0.50667343628E+02  0.25000323849E+00 0.  0.
    1000022    2    1    0    0    0  0.67666629210E+01 -0.50338178812E+02 -0.35021850633E+02  0.62499999930E+02  0.99999998174E+01 0.  0.
    3000022    2    5    5    0    0  0.16946749714E+00  0.41205265818E+00 -0.64097746934E-01  0.51489310160E+00  0.24999951843E+00 0.  0.
        -13    1    4    4    0    0 -0.16748776548E+01  0.11977454703E+02  0.71139124861E+01  0.14031514964E+02  0.10500000000E+00 0. -1.
         13    1    4    4    0    0 -0.43336115095E+01  0.31345574908E+02  0.18462060066E+02  0.36635828664E+02  0.10500000000E+00 0.  1.
    3000001    1    5    5    0    0  0.65971954239E+01 -0.50750231470E+02 -0.34957752886E+02  0.61985106829E+02  0.10000000000E+01 0. -1.
        -13    1    6    6    0    0  0.73461978555E-01  0.29786558911E+00 -0.92390566525E-02  0.32439317446E+00  0.10500000000E+00 0.  1.
         13    1    6    6    0    0  0.96005518586E-01  0.11418706908E+00 -0.54858690281E-01  0.19049992715E+00  0.10500000000E+00 0. -1.
</event>
<event>
11    0  0.3510903E-009  0.9118800E+02  0.7816531E-02  0.1126479E+00
         25   -1    0    0    0    0  0.00000000000E+00  0.00000000000E+00  0.99999998245E-14  0.12500000000E+03  0.12500000000E+03 0.  0.
    3000001    1    3    3    0    0  0.83114434441E+01  0.34078237589E+02 -0.25822579880E+02  0.43568474852E+02  0.10000000000E+01 0. -1.
    1000022    2    1    0    0    0  0.17685898171E+02  0.45814028629E+02 -0.37343465035E+02  0.62499995962E+02  0.99999450514E+01 0.  0.
    3000022    2    3    3    0    0  0.93744547268E+01  0.11735791040E+02 -0.11520885155E+02  0.18931521109E+02  0.25000798295E+00 0.  0.
    1000022    2    1    0    0    0 -0.17685898171E+02 -0.45814028629E+02  0.37343465035E+02  0.62500004038E+02  0.99999955326E+01 0.  0.
    3000022    2    5    5    0    0 -0.34473863878E+01 -0.20324994631E+01  0.38439441933E+01  0.55546318777E+01  0.25000272233E+00 0.  0.
        -13    1    4    4    0    0  0.58257227305E+01  0.71978386643E+01 -0.70837084539E+01  0.11659239994E+02  0.10500000000E+00 0.  1.
         13    1    4    4    0    0  0.35487319964E+01  0.45379523757E+01 -0.44371767010E+01  0.72722811154E+01  0.10500000000E+00 0. -1.
    3000001    1    5    5    0    0 -0.14238511783E+02 -0.43781529166E+02  0.33499520842E+02  0.56945372161E+02  0.10000000000E+01 0. -1.
        -13    1    6    6    0    0 -0.23768556829E+01 -0.14408621947E+01  0.26209835384E+01  0.38217936247E+01  0.10500000000E+00 0. -1.
         13    1    6    6    0    0 -0.10705307049E+01 -0.59163726835E+00  0.12229606549E+01  0.17328382529E+01  0.10500000000E+00 0.  1.
</event>
<event>
11    0  0.3510903E-009  0.9118800E+02  0.7816531E-02  0.1126479E+00
         25   -1    0    0    0    0  0.00000000000E+00  0.00000000000E+00  0.99999998245E-14  0.12500000000E+03  0.12500000000E+03 0.  0.
    3000001    1    3    3    0    0 -0.96503488422E+01  0.21288323303E+02  0.28225622384E+02  0.36660710588E+02  0.10000000000E+01 0. -1.
    1000022    2    1    0    0    0 -0.88237139904E+01  0.39301575950E+02  0.46730912738E+02  0.62499999766E+02  0.99999982308E+01 0.  0.
    3000022    2    3    3    0    0  0.82663485177E+00  0.18013252648E+02  0.18505290354E+02  0.25839289178E+02  0.24999603772E+00 0.  0.
    1000022    2    1    0    0    0  0.88237139904E+01 -0.39301575950E+02 -0.46730912738E+02  0.62500000234E+02  0.10000001159E+02 0.  0.
    3000022    2    5    5    0    0  0.22258132502E+01 -0.12651608737E+01 -0.13271223361E+01  0.28945864791E+01  0.25000105771E+00 0.  0.
        -13    1    4    4    0    0  0.24261595903E+00  0.48640300636E+01  0.49551538400E+01  0.69485412527E+01  0.10500000000E+00 0.  1.
         13    1    4    4    0    0  0.58401889274E+00  0.13149222584E+02  0.13550136514E+02  0.18890747925E+02  0.10500000000E+00 0. -1.
    3000001    1    5    5    0    0  0.65979007402E+01 -0.38036415077E+02 -0.45403790402E+02  0.59605413755E+02  0.10000000000E+01 0. -1.
        -13    1    6    6    0    0  0.84284044801E+00 -0.46149259574E+00 -0.56524111565E+00  0.11197669202E+01  0.10500000000E+00 0.  1.
         13    1    6    6    0    0  0.13829728022E+01 -0.80366827795E+00 -0.76188122046E+00  0.17748195589E+01  0.10500000000E+00 0. -1.
</event>
<event>
11    0  0.3510903E-009  0.9118800E+02  0.7816531E-02  0.1126479E+00
         25   -1    0    0    0    0  0.00000000000E+00  0.00000000000E+00  0.99999998245E-14  0.12500000000E+03  0.12500000000E+03 0.  0.
    3000001    1    3    3    0    0  0.81584999581E+01 -0.15706855454E+02 -0.63028463303E+01  0.18814683140E+02  0.10000000000E+01 0.  1.
    1000022    2    1    0    0    0  0.12933973247E+02 -0.54930225192E+02 -0.24932564578E+02  0.62499998495E+02  0.99999865968E+01 0.  0.
    3000022    2    3    3    0    0  0.47754732889E+01 -0.39223369738E+02 -0.18629718247E+02  0.43685315355E+02  0.24999390212E+00 0.  0.
    1000022    2    1    0    0    0 -0.12933973247E+02  0.54930225192E+02  0.24932564578E+02  0.62500001505E+02  0.10000005404E+02 0.  0.
    3000022    2    5    5    0    0  0.81118526085E-01  0.10672063590E+02  0.80314733559E+01  0.13359139010E+02  0.25001867617E+00 0.  0.
        -13    1    4    4    0    0  0.30749926492E+01 -0.24878917632E+02 -0.11777941681E+02  0.27697419692E+02  0.10500000000E+00 0.  1.
         13    1    4    4    0    0  0.17004806397E+01 -0.14344452106E+02 -0.68517765659E+01  0.15987895663E+02  0.10500000000E+00 0. -1.
    3000001    1    5    5    0    0 -0.13015091773E+02  0.44258161601E+02  0.16901091222E+02  0.49140862494E+02  0.10000000000E+01 0. -1.
        -13    1    6    6    0    0  0.67705863291E-01  0.58010722163E+01  0.42872434470E+01  0.72144649363E+01  0.10500000000E+00 0.  1.
         13    1    6    6    0    0  0.13412662794E-01  0.48709913740E+01  0.37442299089E+01  0.61446740740E+01  0.10500000000E+00 0. -1.
</event>
<event>
11    0  0.3510903E-009  0.9118800E+02  0.7816531E-02  0.1126479E+00
         25   -1    0    0    0    0  0.00000000000E+00  0.00000000000E+00  0.99999998245E-14  0.12500000000E+03  0.12500000000E+03 0.  0.
    3000001    1    3    3    0    0 -0.83289284197E+01 -0.86903693217E+01 -0.41123453227E+01  0.12759504364E+02  0.10000000000E+01 0. -1.
    1000022    2    1    0    0    0 -0.25492743730E+02 -0.53680007641E+02 -0.16577903422E+02  0.62499998506E+02  0.99999864103E+01 0.  0.
    3000022    2    3    3    0    0 -0.17163815310E+02 -0.44989638319E+02 -0.12465558099E+02  0.49740494142E+02  0.25001334103E+00 0.  0.
    1000022    2    1    0    0    0  0.25492743730E+02  0.53680007641E+02  0.16577903422E+02  0.62500001494E+02  0.10000005086E+02 0.  0.
    3000022    2    5    5    0    0  0.12108503280E+01  0.85183647595E+01  0.18863366592E-01  0.86076444994E+01  0.24998261520E+00 0.  0.
        -13    1    4    4    0    0 -0.12183766941E+02 -0.31907516065E+02 -0.87984022438E+01  0.35269769851E+02  0.10500000000E+00 0.  1.
         13    1    4    4    0    0 -0.49800483691E+01 -0.13082122254E+02 -0.36671558551E+01  0.14470724290E+02  0.10500000000E+00 0. -1.
    3000001    1    5    5    0    0  0.24281893402E+02  0.45161642881E+02  0.16559040055E+02  0.53892356995E+02  0.10000000000E+01 0.  1.
        -13    1    6    6    0    0  0.31234110709E+00  0.23737092692E+01  0.35440365180E-01  0.23967339613E+01  0.10500000000E+00 0. -1.
         13    1    6    6    0    0  0.89850922095E+00  0.61446554903E+01 -0.16576998587E-01  0.62109105381E+01  0.10500000000E+00 0.  1.
</event>
<event>
11    0  0.3510903E-009  0.9118800E+02  0.7816531E-02  0.1126479E+00
         25   -1    0    0    0    0  0.00000000000E+00  0.00000000000E+00  0.99999998245E-14  0.12500000000E+03  0.12500000000E+03 0.  0.
    3000001    1    3    3    0    0 -0.56612852892E+01  0.16882244002E+02  0.43800614863E+02  0.47292221094E+02  0.10000000000E+01 0. -1.
    1000022    2    1    0    0    0 -0.23637085379E+01  0.20014466895E+02  0.58310239032E+02  0.62499999623E+02  0.99999986846E+01 0.  0.
    3000022    2    3    3    0    0  0.32975767514E+01  0.31322228931E+01  0.14509624169E+02  0.15207778528E+02  0.25000309606E+00 0.  0.
    1000022    2    1    0    0    0  0.23637085379E+01 -0.20014466895E+02 -0.58310239032E+02  0.62500000377E+02  0.10000003402E+02 0.  0.
    3000022    2    5    5    0    0  0.41336066635E+01 -0.71294017003E+01 -0.33142554920E+02  0.34152694191E+02  0.25000246308E+00 0.  0.
        -13    1    4    4    0    0  0.12201612308E+01  0.11162337665E+01  0.51146092838E+01  0.53763393101E+01  0.10500000000E+00 0.  1.
         13    1    4    4    0    0  0.20774155206E+01  0.20159891266E+01  0.93950148856E+01  0.98314392184E+01  0.10500000000E+00 0. -1.
    3000001    1    5    5    0    0 -0.17698981256E+01 -0.12885065195E+02 -0.25167684112E+02  0.28347306186E+02  0.10000000000E+01 0. -1.
        -13    1    6    6    0    0  0.29506945191E+01 -0.51255982138E+01 -0.23628378812E+02  0.24357538165E+02  0.10500000000E+00 0. -1.
         13    1    6    6    0    0  0.11829121443E+01 -0.20038034865E+01 -0.95141761085E+01  0.97951560261E+01  0.10500000000E+00 0.  1.
</event>
<event>
11    0  0.3510903E-009  0.9118800E+02  0.7816531E-02  0.1126479E+00
         25   -1    0    0    0    0  0.00000000000E+00  0.00000000000E+00  0.99999998245E-14  0.12500000000E+03  0.12500000000E+03 0.  0.
    3000001    1    3    3    0    0  0.56376958551E+02 -0.12104170999E+02  0.14982962639E+02  0.59584910677E+02  0.10000000000E+01 0.  1.
    1000022    2    1    0    0    0  0.57738006604E+02 -0.14205176318E+02  0.16455568011E+02  0.62499998678E+02  0.99999837661E+01 0.  0.
    3000022    2    3    3    0    0  0.13610480538E+01 -0.21010053195E+01  0.14726053719E+01  0.29150880008E+01  0.24999262740E+00 0.  0.
    1000022    2    1    0    0    0 -0.57738006604E+02  0.14205176318E+02 -0.16455568011E+02  0.62500001322E+02  0.10000000289E+02 0.  0.
    3000022    2    5    5    0    0 -0.51363953634E+02  0.94205852799E+01 -0.13469619661E+02  0.53930476817E+02  0.25003211891E+00 0.  0.
        -13    1    4    4    0    0  0.31862189167E+00 -0.53107836239E+00  0.38380471249E+00  0.73613530969E+00  0.10500000000E+00 0. -1.
         13    1    4    4    0    0  0.10424261621E+01 -0.15699269571E+01  0.10888006594E+01  0.21789526911E+01  0.10500000000E+00 0.  1.
    3000001    1    5    5    0    0 -0.63740529709E+01  0.47845910386E+01 -0.29859483502E+01  0.85695245045E+01  0.10000000000E+01 0. -1.
        -13    1    6    6    0    0 -0.27839384797E+02  0.51238314504E+01 -0.73681930756E+01  0.29250406643E+02  0.10500000000E+00 0. -1.
         13    1    6    6    0    0 -0.23524568837E+02  0.42967538295E+01 -0.61014265850E+01  0.24680070174E+02  0.10500000000E+00 0.  1.
</event>
<event>
11    0  0.3510903E-009  0.9118800E+02  0.7816531E-02  0.1126479E+00
         25   -1    0    0    0    0  0.00000000000E+00  0.00000000000E+00  0.99999998245E-14  0.12500000000E+03  0.12500000000E+03 0.  0.
    3000001    1    3    3    0    0 -0.67002244342E+01 -0.52811445395E+02  0.27187566547E+01  0.53313538712E+02  0.10000000000E+01 0. -1.
    1000022    2    1    0    0    0 -0.37664572052E+01 -0.61484113205E+02  0.34303859005E+01  0.62499999943E+02  0.10000003451E+02 0.  0.
    3000022    2    3    3    0    0  0.29337672290E+01 -0.86726678097E+01  0.71162924573E+00  0.91864612318E+01  0.24999337669E+00 0.  0.
    1000022    2    1    0    0    0  0.37664572052E+01  0.61484113205E+02 -0.34303859005E+01  0.62500000057E+02  0.10000004158E+02 0.  0.
    3000022    2    5    5    0    0  0.45449976046E+01  0.11871578388E+02 -0.18312986912E+01  0.12845525776E+02  0.25000185938E+00 0.  0.
        -13    1    4    4    0    0  0.12611433275E+01 -0.38894737015E+01  0.27588169556E+00  0.40994662917E+01  0.10500000000E+00 0. -1.
         13    1    4    4    0    0  0.16726239016E+01 -0.47831941082E+01  0.43574755017E+00  0.50869949401E+01  0.10500000000E+00 0.  1.
    3000001    1    5    5    0    0 -0.77854039946E+00  0.49612534817E+02 -0.15990872093E+01  0.49654474280E+02  0.10000000000E+01 0. -1.
        -13    1    6    6    0    0  0.26094933417E+01  0.69894324847E+01 -0.10917419019E+01  0.75408585280E+01  0.10500000000E+00 0.  1.
         13    1    6    6    0    0  0.19355042629E+01  0.48821459030E+01 -0.73955678931E+00  0.53046672482E+01  0.10500000000E+00 0. -1.
</event>
<event>
11    0  0.3510903E-009  0.9118800E+02  0.7816531E-02  0.1126479E+00
         25   -1    0    0    0    0  0.00000000000E+00  0.00000000000E+00  0.99999998245E-14  0.12500000000E+03  0.12500000000E+03 0.  0.
    3000001    1    3    3    0    0  0.26283220409E+02  0.49646280119E+01 -0.44269469837E+02  0.51732399577E+02  0.10000000000E+01 0.  1.
    1000022    2    1    0    0    0  0.32980616601E+02  0.97234738983E+01 -0.51224830621E+02  0.62500002502E+02  0.10000001229E+02 0.  0.
    3000022    2    3    3    0    0  0.66973961923E+01  0.47588458864E+01 -0.69553607837E+01  0.10767602925E+02  0.24999837442E+00 0.  0.
    1000022    2    1    0    0    0 -0.32980616601E+02 -0.97234738983E+01  0.51224830621E+02  0.62499997498E+02  0.99999699527E+01 0.  0.
    3000022    2    5    5    0    0 -0.10820476502E+02 -0.77586825654E+01  0.15883160707E+02  0.20727209149E+02  0.25007629442E+00 0.  0.
        -13    1    4    4    0    0  0.20845050073E+01  0.15385011709E+01 -0.21720476603E+01  0.33824492630E+01  0.10500000000E+00 0.  1.
         13    1    4    4    0    0  0.46128911850E+01  0.32203447155E+01 -0.47833131233E+01  0.73851536617E+01  0.10500000000E+00 0. -1.
    3000001    1    5    5    0    0 -0.22160140099E+02 -0.19647913328E+01  0.35341669914E+02  0.41772788349E+02  0.10000000000E+01 0.  1.
        -13    1    6    6    0    0 -0.69102984650E+01 -0.48973811180E+01  0.10158035477E+02  0.13226234402E+02  0.10500000000E+00 0. -1.
         13    1    6    6    0    0 -0.39101780372E+01 -0.28613014475E+01  0.57251252299E+01  0.75009747469E+01  0.10500000000E+00 0.  1.
</event>
<event>
11    0  0.3510903E-009  0.9118800E+02  0.7816531E-02  0.1126479E+00
         25   -1    0    0    0    0  0.00000000000E+00  0.00000000000E+00  0.99999998245E-14  0.12500000000E+03  0.12500000000E+03 0.  0.
    3000001    1    3    3    0    0  0.25649529079E+02  0.52236049576E+02 -0.20729040221E+02  0.61783463206E+02  0.10000000000E+01 0.  1.
    1000022    2    1    0    0    0  0.25008651073E+02  0.52427190240E+02 -0.20789594532E+02  0.62499999120E+02  0.99999872124E+01 0.  0.
    3000022    2    3    3    0    0 -0.64087800564E+00  0.19114066430E+00 -0.60554310283E-01  0.71653591389E+00  0.24999503942E+00 0.  0.
    1000022    2    1    0    0    0 -0.25008651073E+02 -0.52427190240E+02  0.20789594532E+02  0.62500000880E+02  0.99999982122E+01 0.  0.
    3000022    2    5    5    0    0 -0.98204119292E+01 -0.16279850649E+02  0.11402388421E+02  0.22170949237E+02  0.25000156215E+00 0.  0.
        -13    1    4    4    0    0 -0.41767589056E+00  0.13151676804E+00  0.18654722174E-01  0.45069147816E+00  0.10500000000E+00 0.  1.
         13    1    4    4    0    0 -0.22320211508E+00  0.59623896260E-01 -0.79209032457E-01  0.26584443573E+00  0.10500000000E+00 0. -1.
    3000001    1    5    5    0    0 -0.15188239144E+02 -0.36147339591E+02  0.93872061106E+01  0.40329051643E+02  0.10000000000E+01 0.  1.
        -13    1    6    6    0    0 -0.43316342832E+01 -0.73089020381E+01  0.50874795222E+01  0.99033619269E+01  0.10500000000E+00 0. -1.
         13    1    6    6    0    0 -0.54887776460E+01 -0.89709486106E+01  0.63149088988E+01  0.12267587311E+02  0.10500000000E+00 0.  1.
</event>
<event>
11    0  0.3510903E-009  0.9118800E+02  0.7816531E-02  0.1126479E+00
         25   -1    0    0    0    0  0.00000000000E+00  0.00000000000E+00  0.99999998245E-14  0.12500000000E+03  0.12500000000E+03 0.  0.
    3000001    1    3    3    0    0  0.16691608879E+02 -0.32030137211E+02  0.47925517812E+02  0.60019952968E+02  0.10000000000E+01 0. -1.
    1000022    2    1    0    0    0  0.15455487921E+02 -0.32792448152E+02  0.49920267533E+02  0.62500001340E+02  0.10000014712E+02 0.  0.
    3000022    2    3    3    0    0 -0.12361209584E+01 -0.76231094097E+00  0.19947497206E+01  0.24800483715E+01  0.25000096527E+00 0.  0.
    1000022    2    1    0    0    0 -0.15455487921E+02  0.32792448152E+02 -0.49920267533E+02  0.62499998660E+02  0.99999979667E+01 0.  0.
    3000022    2    5    5    0    0 -0.15969794726E+02  0.26556363094E+02 -0.38325986459E+02  0.49287102613E+02  0.24996312296E+00 0.  0.
        -13    1    4    4    0    0 -0.68360177659E+00 -0.39293640185E+00  0.97500488535E+00  0.12583202817E+01  0.10500000000E+00 0.  1.
         13    1    4    4    0    0 -0.55251918181E+00 -0.36937453912E+00  0.10197448352E+01  0.12217280898E+01  0.10500000000E+00 0. -1.
    3000001    1    5    5    0    0  0.51430680524E+00  0.62360850580E+01 -0.11594281073E+02  0.13212896047E+02  0.10000000000E+01 0.  1.
        -13    1    6    6    0    0 -0.51465215751E+01  0.85838501981E+01 -0.12457707336E+02  0.15980446353E+02  0.10500000000E+00 0. -1.
         13    1    6    6    0    0 -0.10823273151E+02  0.17972512896E+02 -0.25868279123E+02  0.33306656261E+02  0.10500000000E+00 0.  1.
</event>
<event>
11    0  0.3510903E-009  0.9118800E+02  0.7816531E-02  0.1126479E+00
         25   -1    0    0    0    0  0.00000000000E+00  0.00000000000E+00  0.99999998245E-14  0.12500000000E+03  0.12500000000E+03 0.  0.
    3000001    1    3    3    0    0 -0.50586031749E+01 -0.82219023444E+01 -0.38506014168E+01  0.10441085936E+02  0.10000000000E+01 0.  1.
    1000022    2    1    0    0    0 -0.46275416576E+02 -0.34728633176E+02 -0.21418631069E+02  0.62500001132E+02  0.10000012155E+02 0.  0.
    3000022    2    3    3    0    0 -0.41216813401E+02 -0.26506730832E+02 -0.17568029652E+02  0.52058915197E+02  0.24999855728E+00 0.  0.
    1000022    2    1    0    0    0  0.46275416576E+02  0.34728633176E+02  0.21418631069E+02  0.62499998868E+02  0.99999980039E+01 0.  0.
    3000022    2    5    5    0    0  0.70360906186E+01  0.92406679928E+01  0.18117963799E+01  0.11757619762E+02  0.25000041823E+00 0.  0.
        -13    1    4    4    0    0 -0.19670571567E+02 -0.12726181897E+02 -0.84225261471E+01  0.24896527130E+02  0.10500000000E+00 0.  1.
         13    1    4    4    0    0 -0.21546241834E+02 -0.13780548935E+02 -0.91455035052E+01  0.27162388066E+02  0.10500000000E+00 0. -1.
    3000001    1    5    5    0    0  0.39239325957E+02  0.25487965183E+02  0.19606834689E+02  0.50742379105E+02  0.10000000000E+01 0. -1.
        -13    1    6    6    0    0  0.50107525665E+01  0.65664608630E+01  0.13305313318E+01  0.83670417815E+01  0.10500000000E+00 0.  1.
         13    1    6    6    0    0  0.20253380521E+01  0.26742071298E+01  0.48126504804E+00  0.33905779809E+01  0.10500000000E+00 0. -1.
</event>
<event>
11    0  0.3510903E-009  0.9118800E+02  0.7816531E-02  0.1126479E+00
         25   -1    0    0    0    0  0.00000000000E+00  0.00000000000E+00  0.99999998245E-14  0.12500000000E+03  0.12500000000E+03 0.  0.
    3000001    1    3    3    0    0  0.42696925916E+02  0.17215074750E+02  0.16213918709E+02  0.48818822613E+02  0.10000000000E+01 0.  1.
    1000022    2    1    0    0    0  0.51326509690E+02  0.24256089007E+02  0.24155361677E+02  0.62499999994E+02  0.10000002531E+02 0.  0.
    3000022    2    3    3    0    0  0.86295837742E+01  0.70410142565E+01  0.79414429679E+01  0.13681177382E+02  0.25000053229E+00 0.  0.
    1000022    2    1    0    0    0 -0.51326509690E+02 -0.24256089007E+02 -0.24155361677E+02  0.62500000006E+02  0.10000002602E+02 0.  0.
    3000022    2    5    5    0    0 -0.31622741767E+02 -0.10545464887E+02 -0.10969956582E+02  0.35094259883E+02  0.25000556100E+00 0.  0.
        -13    1    4    4    0    0  0.61551090225E+01  0.49670855750E+01  0.56321903214E+01  0.97102986053E+01  0.10500000000E+00 0. -1.
         13    1    4    4    0    0  0.24744747517E+01  0.20739286815E+01  0.23092526465E+01  0.39708787766E+01  0.10500000000E+00 0.  1.
    3000001    1    5    5    0    0 -0.19703767923E+02 -0.13710624120E+02 -0.13185405095E+02  0.27405740122E+02  0.10000000000E+01 0.  1.
        -13    1    6    6    0    0 -0.21190489059E+02 -0.70128242640E+01 -0.73604081948E+01  0.23503258594E+02  0.10500000000E+00 0.  1.
         13    1    6    6    0    0 -0.10432252708E+02 -0.35326406227E+01 -0.36095483874E+01  0.11591001289E+02  0.10500000000E+00 0. -1.
</event>
<event>
11    0  0.3510903E-009  0.9118800E+02  0.7816531E-02  0.1126479E+00
         25   -1    0    0    0    0  0.00000000000E+00  0.00000000000E+00  0.99999998245E-14  0.12500000000E+03  0.12500000000E+03 0.  0.
    3000001    1    3    3    0    0  0.11593692144E+02  0.22000691134E+01 -0.87089521814E+01  0.14700335021E+02  0.10000000000E+01 0. -1.
    1000022    2    1    0    0    0  0.56831867134E+02  0.11270166916E+02 -0.21198403967E+02  0.62500000894E+02  0.99999998346E+01 0.  0.
    3000022    2    3    3    0    0  0.45238174990E+02  0.90700978027E+01 -0.12489451786E+02  0.47799665873E+02  0.25000207756E+00 0.  0.
    1000022    2    1    0    0    0 -0.56831867134E+02 -0.11270166916E+02  0.21198403967E+02  0.62499999106E+02  0.99999886632E+01 0.  0.
    3000022    2    5    5    0    0 -0.46491244183E+02 -0.65192691142E+01  0.13968812263E+02  0.48980882672E+02  0.24999172231E+00 0.  0.
        -13    1    4    4    0    0  0.29796220715E+02  0.59189795018E+01 -0.82344385478E+01  0.31474848537E+02  0.10500000000E+00 0. -1.
         13    1    4    4    0    0  0.15441954276E+02  0.31511183009E+01 -0.42550132381E+01  0.16324817336E+02  0.10500000000E+00 0.  1.
    3000001    1    5    5    0    0 -0.10340622951E+02 -0.47508978019E+01  0.72295917046E+01  0.13519116434E+02  0.10000000000E+01 0.  1.
        -13    1    6    6    0    0 -0.33609057933E+02 -0.46738420028E+01  0.10098656633E+02  0.35403495096E+02  0.10500000000E+00 0. -1.
         13    1    6    6    0    0 -0.12882186250E+02 -0.18454271115E+01  0.38701556301E+01  0.13577387577E+02  0.10500000000E+00 0.  1.
</event>
<event>
11    0  0.3510903E-009  0.9118800E+02  0.7816531E-02  0.1126479E+00
         25   -1    0    0    0    0  0.00000000000E+00  0.00000000000E+00  0.99999998245E-14  0.12500000000E+03  0.12500000000E+03 0.  0.
    3000001    1    3    3    0    0 -0.12898793718E+02 -0.29260199882E+02  0.29765391842E+02  0.43698017438E+02  0.10000000000E+01 0.  1.
    1000022    2    1    0    0    0 -0.13362897777E+02 -0.45007228109E+02  0.40025396293E+02  0.62499998226E+02  0.99999905356E+01 0.  0.
    3000022    2    3    3    0    0 -0.46410405894E+00 -0.15747028227E+02  0.10260004452E+02  0.18801980788E+02  0.24999926941E+00 0.  0.
    1000022    2    1    0    0    0  0.13362897777E+02  0.45007228109E+02 -0.40025396293E+02  0.62500001774E+02  0.10000012716E+02 0.  0.
    3000022    2    5    5    0    0 -0.14172440082E+01  0.77591102943E+01 -0.58497285964E+01  0.98231459984E+01  0.24999903325E+00 0.  0.
        -13    1    4    4    0    0 -0.12838247060E+00 -0.62391130500E+01  0.40990572813E+01  0.74670147519E+01  0.10500000000E+00 0.  1.
         13    1    4    4    0    0 -0.33572158835E+00 -0.95079151771E+01  0.61609471702E+01  0.11334966036E+02  0.10500000000E+00 0. -1.
    3000001    1    5    5    0    0  0.14780141785E+02  0.37248117815E+02 -0.34175667697E+02  0.52676855776E+02  0.10000000000E+01 0.  1.
        -13    1    6    6    0    0 -0.74534607301E+00  0.37325989786E+01 -0.28548786210E+01  0.47591168134E+01  0.10500000000E+00 0. -1.
         13    1    6    6    0    0 -0.67189793517E+00  0.40265113157E+01 -0.29948499754E+01  0.50640291850E+01  0.10500000000E+00 0.  1.
</event>
<event>
11    0  0.3510903E-009  0.9118800E+02  0.7816531E-02  0.1126479E+00
         25   -1    0    0    0    0  0.00000000000E+00  0.00000000000E+00  0.99999998245E-14  0.12500000000E+03  0.12500000000E+03 0.  0.
    3000001    1    3    3    0    0 -0.29476683613E+01  0.19766398913E+02  0.12191634658E+02  0.23431500814E+02  0.10000000000E+01 0.  1.
    1000022    2    1    0    0    0 -0.14366044919E+02  0.55812910393E+02  0.22017854330E+02  0.62499997155E+02  0.99999761007E+01 0.  0.
    3000022    2    3    3    0    0 -0.11418376557E+02  0.36046511480E+02  0.98262196717E+01  0.39068496341E+02  0.25000056004E+00 0.  0.
    1000022    2    1    0    0    0  0.14366044919E+02 -0.55812910393E+02 -0.22017854330E+02  0.62500002845E+02  0.10000011662E+02 0.  0.
    3000022    2    5    5    0    0  0.75456715253E+01 -0.44915648335E+02 -0.16044568478E+02  0.48289163410E+02  0.25000217047E+00 0.  0.
        -13    1    4    4    0    0 -0.39725783418E+01  0.12521448441E+02  0.33562549535E+01  0.13558890886E+02  0.10500000000E+00 0. -1.
         13    1    4    4    0    0 -0.74457982155E+01  0.23525063039E+02  0.64699647183E+01  0.25509605455E+02  0.10500000000E+00 0.  1.
    3000001    1    5    5    0    0  0.68203733933E+01 -0.10897262058E+02 -0.59732858519E+01  0.14210839435E+02  0.10000000000E+01 0.  1.
        -13    1    6    6    0    0  0.36694160264E+01 -0.21435532979E+02 -0.76554065383E+01  0.23055649250E+02  0.10500000000E+00 0.  1.
         13    1    6    6    0    0  0.38762554988E+01 -0.23480115355E+02 -0.83891619394E+01  0.25233514159E+02  0.10500000000E+00 0. -1.
</event>
<event>
11    0  0.3510903E-009  0.9118800E+02  0.7816531E-02  0.1126479E+00
         25   -1    0    0    0    0  0.00000000000E+00  0.00000000000E+00  0.99999998245E-14  0.12500000000E+03  0.12500000000E+03 0.  0.
    3000001    1    3    3    0    0  0.42353830535E+01  0.40849463152E+00 -0.52769694461E+01  0.68521342667E+01  0.10000000000E+01 0. -1.
    1000022    2    1    0    0    0  0.14941513121E+02  0.11776992374E+02 -0.58688189493E+02  0.62499999369E+02  0.99999985748E+01 0.  0.
    3000022    2    3    3    0    0  0.10706130068E+02  0.11368497743E+02 -0.53411220047E+02  0.55647865103E+02  0.25000331220E+00 0.  0.
    1000022    2    1    0    0    0 -0.14941513121E+02 -0.11776992374E+02  0.58688189493E+02  0.62500000631E+02  0.10000006459E+02 0.  0.
    3000022    2    5    5    0    0 -0.54265418927E+01 -0.10265991276E+02  0.27799485520E+02  0.30128256239E+02  0.24999014770E+00 0.  0.
        -13    1    4    4    0    0  0.27580154481E+01  0.29436013817E+01 -0.13696263186E+02  0.14278308323E+02  0.10500000000E+00 0. -1.
         13    1    4    4    0    0  0.79481146198E+01  0.84248963608E+01 -0.39714956861E+02  0.41369556780E+02  0.10500000000E+00 0.  1.
    3000001    1    5    5    0    0 -0.95149712287E+01 -0.15110010976E+01  0.30888703973E+02  0.32371744391E+02  0.10000000000E+01 0.  1.
        -13    1    6    6    0    0 -0.15780150412E+01 -0.30760916315E+01  0.83191248129E+01  0.90095135190E+01  0.10500000000E+00 0. -1.
         13    1    6    6    0    0 -0.38485268514E+01 -0.71898996450E+01  0.19480360707E+02  0.21118742721E+02  0.10500000000E+00 0.  1.
</event>
<event>
11    0  0.3510903E-009  0.9118800E+02  0.7816531E-02  0.1126479E+00
         25   -1    0    0    0    0  0.00000000000E+00  0.00000000000E+00  0.99999998245E-14  0.12500000000E+03  0.12500000000E+03 0.  0.
    3000001    1    3    3    0    0  0.10922914112E+02 -0.28478352541E+01  0.21512940898E+02  0.24315156681E+02  0.10000000000E+01 0. -1.
    1000022    2    1    0    0    0  0.37485422632E+02 -0.24303886574E+01  0.48940632729E+02  0.62499995331E+02  0.10000009272E+02 0.  0.
    3000022    2    3    3    0    0  0.26562508520E+02  0.41744659662E+00  0.27427691832E+02  0.38184838650E+02  0.25000595606E+00 0.  0.
    1000022    2    1    0    0    0 -0.37485422632E+02  0.24303886574E+01 -0.48940632729E+02  0.62500004669E+02  0.10000067639E+02 0.  0.
    3000022    2    5    5    0    0 -0.31770101043E+02 -0.14532401587E+01 -0.38460957008E+02  0.49907503850E+02  0.24999875653E+00 0.  0.
        -13    1    4    4    0    0  0.19322543824E+02  0.27869092475E+00  0.19990176087E+02  0.27803894214E+02  0.10500000000E+00 0.  1.
         13    1    4    4    0    0  0.72399646959E+01  0.13875567187E+00  0.74375157444E+01  0.10380944436E+02  0.10500000000E+00 0. -1.
    3000001    1    5    5    0    0 -0.57153215899E+01  0.38836288162E+01 -0.10479675722E+02  0.12592500820E+02  0.10000000000E+01 0.  1.
        -13    1    6    6    0    0 -0.14738163515E+02 -0.61067583201E+00 -0.17873591743E+02  0.23174613170E+02  0.10500000000E+00 0. -1.
         13    1    6    6    0    0 -0.17031937527E+02 -0.84256432673E+00 -0.20587365264E+02  0.26732890680E+02  0.10500000000E+00 0.  1.
</event>
<event>
11    0  0.3510903E-009  0.9118800E+02  0.7816531E-02  0.1126479E+00
         25   -1    0    0    0    0  0.00000000000E+00  0.00000000000E+00  0.99999998245E-14  0.12500000000E+03  0.12500000000E+03 0.  0.
    3000001    1    3    3    0    0  0.20342764841E+02 -0.16353648480E+02 -0.13917470507E+02  0.29596720854E+02  0.10000000000E+01 0.  1.
    1000022    2    1    0    0    0  0.43033626140E+02 -0.26178253983E+02 -0.35623799037E+02  0.62499992071E+02  0.99999995327E+01 0.  0.
    3000022    2    3    3    0    0  0.22690861299E+02 -0.98246055027E+01 -0.21706328530E+02  0.32903271217E+02  0.24999746757E+00 0.  0.
    1000022    2    1    0    0    0 -0.43033626140E+02  0.26178253983E+02  0.35623799037E+02  0.62500007929E+02  0.10000098646E+02 0.  0.
    3000022    2    5    5    0    0 -0.37916516568E+02  0.20209129625E+02  0.32911968380E+02  0.54123297269E+02  0.24999147866E+00 0.  0.
        -13    1    4    4    0    0  0.14844409156E+02 -0.64322517315E+01 -0.14127736008E+02  0.21478693983E+02  0.10500000000E+00 0. -1.
         13    1    4    4    0    0  0.78464521430E+01 -0.33923537711E+01 -0.75785925225E+01  0.11424577233E+02  0.10500000000E+00 0.  1.
    3000001    1    5    5    0    0 -0.51171095716E+01  0.59691243581E+01  0.27118306573E+01  0.83767106602E+01  0.10000000000E+01 0. -1.
        -13    1    6    6    0    0 -0.13661450799E+02  0.72411681924E+01  0.11901810963E+02  0.19512403336E+02  0.10500000000E+00 0. -1.
         13    1    6    6    0    0 -0.24255065769E+02  0.12967961433E+02  0.21010157417E+02  0.34610893933E+02  0.10500000000E+00 0.  1.
</event>
<event>
11    0  0.3510903E-009  0.9118800E+02  0.7816531E-02  0.1126479E+00
         25   -1    0    0    0    0  0.00000000000E+00  0.00000000000E+00  0.99999998245E-14  0.12500000000E+03  0.12500000000E+03 0.  0.
    3000001    1    3    3    0    0  0.24519186778E+02  0.42921007919E+01  0.41957779915E+02  0.48796187811E+02  0.10000000000E+01 0.  1.
    1000022    2    1    0    0    0  0.31829254534E+02  0.33331681007E+00  0.52849195025E+02  0.62500000460E+02  0.10000004917E+02 0.  0.
    3000022    2    3    3    0    0  0.73100677560E+01 -0.39587839818E+01  0.10891415110E+02  0.13703812649E+02  0.24999359636E+00 0.  0.
    1000022    2    1    0    0    0 -0.31829254534E+02 -0.33331681007E+00 -0.52849195025E+02  0.62499999540E+02  0.99999991713E+01 0.  0.
    3000022    2    5    5    0    0 -0.25254406361E+01  0.19778682599E+01 -0.20945497028E+01  0.38392025187E+01  0.25004851975E+00 0.  0.
        -13    1    4    4    0    0  0.52570582923E+01 -0.28011433661E+01  0.78132574575E+01  0.98255322066E+01  0.10500000000E+00 0. -1.
         13    1    4    4    0    0  0.20530094637E+01 -0.11576406157E+01  0.30781576526E+01  0.38782804421E+01  0.10500000000E+00 0.  1.
    3000001    1    5    5    0    0 -0.29303813898E+02 -0.23111850700E+01 -0.50754645322E+02  0.58660797022E+02  0.10000000000E+01 0.  1.
        -13    1    6    6    0    0 -0.16428798557E+01  0.12559992167E+01 -0.12861293946E+01  0.24375688857E+01  0.10500000000E+00 0. -1.
         13    1    6    6    0    0 -0.88256078031E+00  0.72186904322E+00 -0.80842030820E+00  0.14016336330E+01  0.10500000000E+00 0.  1.
</event>
<event>
11    0  0.3510903E-009  0.9118800E+02  0.7816531E-02  0.1126479E+00
         25   -1    0    0    0    0  0.00000000000E+00  0.00000000000E+00  0.99999998245E-14  0.12500000000E+03  0.12500000000E+03 0.  0.
    3000001    1    3    3    0    0 -0.36947315543E+02  0.30295613828E+02  0.11703089183E+02  0.49202547083E+02  0.10000000000E+01 0.  1.
    1000022    2    1    0    0    0 -0.42954228169E+02  0.41763104349E+02  0.14731848156E+02  0.62499998572E+02  0.99999934468E+01 0.  0.
    3000022    2    3    3    0    0 -0.60069126259E+01  0.11467490521E+02  0.30287589725E+01  0.13297451489E+02  0.24999405920E+00 0.  0.
    1000022    2    1    0    0    0  0.42954228169E+02 -0.41763104349E+02 -0.14731848156E+02  0.62500001428E+02  0.10000011296E+02 0.  0.
    3000022    2    5    5    0    0  0.24746354247E+02 -0.26918217511E+02 -0.44455158395E+01  0.36834733642E+02  0.25001782766E+00 0.  0.
        -13    1    4    4    0    0 -0.22464746343E+01  0.43856887737E+01  0.11950526547E+01  0.50714978212E+01  0.10500000000E+00 0.  1.
         13    1    4    4    0    0 -0.37604379916E+01  0.70818017474E+01  0.18337063178E+01  0.82259536674E+01  0.10500000000E+00 0. -1.
    3000001    1    5    5    0    0  0.18207873923E+02 -0.14844886838E+02 -0.10286332316E+02  0.25665267786E+02  0.10000000000E+01 0. -1.
        -13    1    6    6    0    0  0.11540936767E+02 -0.12600733953E+02 -0.20176254698E+01  0.17206206879E+02  0.10500000000E+00 0. -1.
         13    1    6    6    0    0  0.13205417480E+02 -0.14317483558E+02 -0.24278903697E+01  0.19628526763E+02  0.10500000000E+00 0.  1.
</event>
<event>
11    0  0.3510903E-009  0.9118800E+02  0.7816531E-02  0.1126479E+00
         25   -1    0    0    0    0  0.00000000000E+00  0.00000000000E+00  0.99999998245E-14  0.12500000000E+03  0.12500000000E+03 0.  0.
    3000001    1    3    3    0    0  0.58957377188E+02 -0.68981445937E+00  0.47309116837E+01  0.59159358467E+02  0.10000000000E+01 0. -1.
    1000022    2    1    0    0    0  0.61579621923E+02 -0.20307669073E+01  0.31742933694E+01  0.62499999319E+02  0.99999963035E+01 0.  0.
    3000022    2    3    3    0    0  0.26222447345E+01 -0.13409524480E+01 -0.15566183143E+01  0.33406408515E+01  0.24999961327E+00 0.  0.
    1000022    2    1    0    0    0 -0.61579621923E+02  0.20307669073E+01 -0.31742933694E+01  0.62500000681E+02  0.10000004821E+02 0.  0.
    3000022    2    5    5    0    0 -0.24381365980E+00 -0.61437761091E+00 -0.77978884325E+00  0.10523659287E+01  0.24999691649E+00 0.  0.
        -13    1    4    4    0    0  0.15287963925E+01 -0.85276779215E+00 -0.93218557086E+00  0.19860579689E+01  0.10500000000E+00 0. -1.
         13    1    4    4    0    0  0.10934483420E+01 -0.48818465582E+00 -0.62443274344E+00  0.13545828826E+01  0.10500000000E+00 0.  1.
    3000001    1    5    5    0    0 -0.61335808263E+02  0.26451445183E+01 -0.23945045261E+01  0.61447634753E+02  0.10000000000E+01 0. -1.
        -13    1    6    6    0    0 -0.11205478573E+00 -0.38573358991E+00 -0.38639011649E+00  0.56715870751E+00  0.10500000000E+00 0. -1.
         13    1    6    6    0    0 -0.13175887407E+00 -0.22864402101E+00 -0.39339872676E+00  0.48520722115E+00  0.10500000000E+00 0.  1.
</event>
<event>
11    0  0.3510903E-009  0.9118800E+02  0.7816531E-02  0.1126479E+00
         25   -1    0    0    0    0  0.00000000000E+00  0.00000000000E+00  0.99999998245E-14  0.12500000000E+03  0.12500000000E+03 0.  0.
    3000001    1    3    3    0    0 -0.25443314064E+02 -0.10417956794E+02  0.24268614033E+02  0.36685987535E+02  0.10000000000E+01 0. -1.
    1000022    2    1    0    0    0 -0.45096572324E+02 -0.96326884904E+01  0.40984876088E+02  0.62499997657E+02  0.10000005812E+02 0.  0.
    3000022    2    3    3    0    0 -0.19653258260E+02  0.78526830347E+00  0.16716262055E+02  0.25814010122E+02  0.24998989764E+00 0.  0.
    1000022    2    1    0    0    0  0.45096572324E+02  0.96326884904E+01 -0.40984876088E+02  0.62500002343E+02  0.10000035098E+02 0.  0.
    3000022    2    5    5    0    0 -0.51061765688E+00  0.57954615795E-01 -0.56243746445E+00  0.80182691586E+00  0.25000274513E+00 0.  0.
        -13    1    4    4    0    0 -0.88554499790E+01  0.32472099373E+00  0.74524941543E+01  0.11579081664E+02  0.10500000000E+00 0.  1.
         13    1    4    4    0    0 -0.10797808281E+02  0.46054730973E+00  0.92637679012E+01  0.14234928459E+02  0.10500000000E+00 0. -1.
    3000001    1    5    5    0    0  0.45607189981E+02  0.95747338746E+01 -0.40422438624E+02  0.61698175427E+02  0.10000000000E+01 0. -1.
        -13    1    6    6    0    0 -0.17807806669E+00  0.25320587640E-01 -0.29517805405E+00  0.36125892873E+00  0.10500000000E+00 0. -1.
         13    1    6    6    0    0 -0.33253959019E+00  0.32634028155E-01 -0.26725941040E+00  0.44056798713E+00  0.10500000000E+00 0.  1.
</event>
<event>
11    0  0.3510903E-009  0.9118800E+02  0.7816531E-02  0.1126479E+00
         25   -1    0    0    0    0  0.00000000000E+00  0.00000000000E+00  0.99999998245E-14  0.12500000000E+03  0.12500000000E+03 0.  0.
    3000001    1    3    3    0    0 -0.39553365767E+02 -0.17282131720E+02  0.35040311434E+02  0.55605433598E+02  0.10000000000E+01 0.  1.
    1000022    2    1    0    0    0 -0.43741163893E+02 -0.22213536724E+02  0.37410150904E+02  0.62500000118E+02  0.99999995814E+01 0.  0.
    3000022    2    3    3    0    0 -0.41877981257E+01 -0.49314050039E+01  0.23698394703E+01  0.68945665198E+01  0.24999985331E+00 0.  0.
    1000022    2    1    0    0    0  0.43741163893E+02  0.22213536724E+02 -0.37410150904E+02  0.62499999882E+02  0.99999981067E+01 0.  0.
    3000022    2    5    5    0    0  0.23137230016E+02  0.15504200592E+02 -0.25452154285E+02  0.37730442647E+02  0.24999145048E+00 0.  0.
        -13    1    4    4    0    0 -0.18285204707E+01 -0.22515575307E+01  0.10831297273E+01  0.30979337359E+01  0.10500000000E+00 0. -1.
         13    1    4    4    0    0 -0.23592776550E+01 -0.26798474732E+01  0.12867097430E+01  0.37966327839E+01  0.10500000000E+00 0.  1.
    3000001    1    5    5    0    0  0.20603933876E+02  0.67093361313E+01 -0.11957996619E+02  0.24769557236E+02  0.10000000000E+01 0. -1.
        -13    1    6    6    0    0  0.11626583727E+02  0.77831002747E+01 -0.12877287152E+02  0.19015510733E+02  0.10500000000E+00 0.  1.
         13    1    6    6    0    0  0.11510646289E+02  0.77211003178E+01 -0.12574867133E+02  0.18714931913E+02  0.10500000000E+00 0. -1.
</event>
<event>
11    0  0.3510903E-009  0.9118800E+02  0.7816531E-02  0.1126479E+00
         25   -1    0    0    0    0  0.00000000000E+00  0.00000000000E+00  0.99999998245E-14  0.12500000000E+03  0.12500000000E+03 0.  0.
    3000001    1    3    3    0    0 -0.25844982863E+01 -0.54605750365E+02 -0.19929927498E+02  0.58195099574E+02  0.10000000000E+01 0. -1.
    1000022    2    1    0    0    0 -0.23092612184E+00 -0.57787887281E+02 -0.21604553489E+02  0.62499999987E+02  0.10000001183E+02 0.  0.
    3000022    2    3    3    0    0  0.23535721644E+01 -0.31821369162E+01 -0.16746259912E+01  0.43049004137E+01  0.24999614965E+00 0.  0.
    1000022    2    1    0    0    0  0.23092612184E+00  0.57787887281E+02  0.21604553489E+02  0.62500000013E+02  0.10000001341E+02 0.  0.
    3000022    2    5    5    0    0  0.35439074118E+01  0.34828221016E+02  0.93046296123E+01  0.36224341173E+02  0.25000474404E+00 0.  0.
        -13    1    4    4    0    0  0.15753563970E+01 -0.21612698234E+01 -0.10779824643E+01  0.28854646455E+01  0.10500000000E+00 0. -1.
         13    1    4    4    0    0  0.77821576742E+00 -0.10208670928E+01 -0.59664352691E+00  0.14194357682E+01  0.10500000000E+00 0.  1.
    3000001    1    5    5    0    0 -0.33129812899E+01  0.22959666266E+02  0.12299923877E+02  0.26275658839E+02  0.10000000000E+01 0. -1.
        -13    1    6    6    0    0  0.90300082637E+00  0.92041077190E+01  0.24548028107E+01  0.95691217588E+01  0.10500000000E+00 0. -1.
         13    1    6    6    0    0  0.26409065854E+01  0.25624113297E+02  0.68498268016E+01  0.26655219415E+02  0.10500000000E+00 0.  1.
</event>
<event>
11    0  0.3510903E-009  0.9118800E+02  0.7816531E-02  0.1126479E+00
         25   -1    0    0    0    0  0.00000000000E+00  0.00000000000E+00  0.99999998245E-14  0.12500000000E+03  0.12500000000E+03 0.  0.
    3000001    1    3    3    0    0 -0.89427068614E+00 -0.18386331079E+01 -0.13719117895E-01  0.22760667784E+01  0.10000000000E+01 0.  1.
    1000022    2    1    0    0    0 -0.69090543527E+01 -0.46259891867E+02 -0.40231049914E+02  0.62499999328E+02  0.99999955626E+01 0.  0.
    3000022    2    3    3    0    0 -0.60147836665E+01 -0.44421258759E+02 -0.40217330796E+02  0.60223932550E+02  0.25000621088E+00 0.  0.
    1000022    2    1    0    0    0  0.69090543527E+01  0.46259891867E+02  0.40231049914E+02  0.62500000672E+02  0.10000003957E+02 0.  0.
    3000022    2    5    5    0    0  0.68900966278E+01  0.16687216155E+02  0.17948365516E+02  0.25458651720E+02  0.25001631030E+00 0.  0.
        -13    1    4    4    0    0 -0.17249465186E+01 -0.12515902596E+02 -0.11371577333E+02  0.16998442704E+02  0.10500000000E+00 0. -1.
         13    1    4    4    0    0 -0.42898371479E+01 -0.31905356163E+02 -0.28845753463E+02  0.43225489847E+02  0.10500000000E+00 0.  1.
    3000001    1    5    5    0    0  0.18957724878E-01  0.29572675712E+02  0.22282684399E+02  0.37041348952E+02  0.10000000000E+01 0. -1.
        -13    1    6    6    0    0  0.30867672988E+01  0.74315716896E+01  0.80909844509E+01  0.11411899251E+02  0.10500000000E+00 0. -1.
         13    1    6    6    0    0  0.38033293290E+01  0.92556444655E+01  0.98573810646E+01  0.14046752468E+02  0.10500000000E+00 0.  1.
</event>
<event>
11    0  0.3510903E-009  0.9118800E+02  0.7816531E-02  0.1126479E+00
         25   -1    0    0    0    0  0.00000000000E+00  0.00000000000E+00  0.99999998245E-14  0.12500000000E+03  0.12500000000E+03 0.  0.
    3000001    1    3    3    0    0  0.37087604562E+02  0.10878427231E+02  0.30386704219E+02  0.49175017890E+02  0.10000000000E+01 0. -1.
    1000022    2    1    0    0    0  0.49148384909E+02  0.98840595366E+01  0.35958192389E+02  0.62500000731E+02  0.10000005973E+02 0.  0.
    3000022    2    3    3    0    0  0.12060780347E+02 -0.99436769494E+00  0.55714881698E+01  0.13324982841E+02  0.24999521948E+00 0.  0.
    1000022    2    1    0    0    0 -0.49148384909E+02 -0.98840595366E+01 -0.35958192389E+02  0.62499999269E+02  0.99999968335E+01 0.  0.
    3000022    2    5    5    0    0 -0.31268954931E+01  0.15770150108E+01 -0.12739533205E+01  0.37349573003E+01  0.24999440570E+00 0.  0.
        -13    1    4    4    0    0  0.60285560103E+01 -0.44133333590E+00  0.27399014039E+01  0.66374955658E+01  0.10500000000E+00 0.  1.
         13    1    4    4    0    0  0.60322243362E+01 -0.55303435904E+00  0.28315867659E+01  0.66874872753E+01  0.10500000000E+00 0. -1.
    3000001    1    5    5    0    0 -0.46021489416E+02 -0.11461074547E+02 -0.34684239068E+02  0.58765041969E+02  0.10000000000E+01 0.  1.
        -13    1    6    6    0    0 -0.17061769421E+01  0.82605786865E+00 -0.62585150620E+00  0.19990313824E+01  0.10500000000E+00 0. -1.
         13    1    6    6    0    0 -0.14207185510E+01  0.75095714220E+00 -0.64810181430E+00  0.17359259179E+01  0.10500000000E+00 0.  1.
</event>
<event>
11    0  0.3510903E-009  0.9118800E+02  0.7816531E-02  0.1126479E+00
         25   -1    0    0    0    0  0.00000000000E+00  0.00000000000E+00  0.99999998245E-14  0.12500000000E+03  0.12500000000E+03 0.  0.
    3000001    1    3    3    0    0 -0.11924767869E+02  0.22374700233E+02  0.34231450576E+02  0.42610086926E+02  0.10000000000E+01 0.  1.
    1000022    2    1    0    0    0 -0.14237475518E+02  0.27712442680E+02  0.53250021349E+02  0.62500000086E+02  0.10000002433E+02 0.  0.
    3000022    2    3    3    0    0 -0.23127076488E+01  0.53377424472E+01  0.19018570773E+02  0.19889913160E+02  0.25000038401E+00 0.  0.
    1000022    2    1    0    0    0  0.14237475518E+02 -0.27712442680E+02 -0.53250021349E+02  0.62499999914E+02  0.10000001359E+02 0.  0.
    3000022    2    5    5    0    0  0.28146135392E+01 -0.47363622553E+01 -0.18416813918E+02  0.19224898673E+02  0.25003464045E+00 0.  0.
        -13    1    4    4    0    0 -0.12778393997E+01  0.29629790848E+01  0.10321388606E+02  0.10814536807E+02  0.10500000000E+00 0. -1.
         13    1    4    4    0    0 -0.10348682492E+01  0.23747633624E+01  0.86971821661E+01  0.90753763531E+01  0.10500000000E+00 0.  1.
    3000001    1    5    5    0    0  0.11422861979E+02 -0.22976080425E+02 -0.34833207431E+02  0.43275101241E+02  0.10000000000E+01 0. -1.
        -13    1    6    6    0    0  0.19283862526E+01 -0.33285748632E+01 -0.12786890768E+02  0.13353414720E+02  0.10500000000E+00 0.  1.
         13    1    6    6    0    0  0.88622728652E+00 -0.14077873921E+01 -0.56299231496E+01  0.58714839534E+01  0.10500000000E+00 0. -1.
</event>
<event>
11    0  0.3510903E-009  0.9118800E+02  0.7816531E-02  0.1126479E+00
         25   -1    0    0    0    0  0.00000000000E+00  0.00000000000E+00  0.99999998245E-14  0.12500000000E+03  0.12500000000E+03 0.  0.
    3000001    1    3    3    0    0  0.80507633304E+01  0.17328546417E+02  0.11804866843E+02  0.22482174991E+02  0.10000000000E+01 0. -1.
    1000022    2    1    0    0    0  0.19983822300E+02  0.39815509695E+02  0.42680463183E+02  0.62500000558E+02  0.10000008309E+02 0.  0.
    3000022    2    3    3    0    0  0.11933058970E+02  0.22486963277E+02  0.30875596341E+02  0.40017825567E+02  0.24999978141E+00 0.  0.
    1000022    2    1    0    0    0 -0.19983822300E+02 -0.39815509695E+02 -0.42680463183E+02  0.62499999442E+02  0.10000001340E+02 0.  0.
    3000022    2    5    5    0    0 -0.74878481132E+01 -0.14732003540E+02 -0.22650657125E+02  0.28039517980E+02  0.25000538694E+00 0.  0.
        -13    1    4    4    0    0  0.79273519474E+01  0.15033187888E+02  0.20565680097E+02  0.26679540285E+02  0.10500000000E+00 0. -1.
         13    1    4    4    0    0  0.40057070221E+01  0.74537753895E+01  0.10309916244E+02  0.13338285282E+02  0.10500000000E+00 0.  1.
    3000001    1    5    5    0    0 -0.12495974187E+02 -0.25083506154E+02 -0.20029806058E+02  0.34460481462E+02  0.10000000000E+01 0.  1.
        -13    1    6    6    0    0 -0.31614914969E+01 -0.63461183228E+01 -0.97721479492E+01  0.12073696484E+02  0.10500000000E+00 0. -1.
         13    1    6    6    0    0 -0.43263566163E+01 -0.83858852177E+01 -0.12878509176E+02  0.15965821496E+02  0.10500000000E+00 0.  1.
</event>
<event>
11    0  0.3510903E-009  0.9118800E+02  0.7816531E-02  0.1126479E+00
         25   -1    0    0    0    0  0.00000000000E+00  0.00000000000E+00  0.99999998245E-14  0.12500000000E+03  0.12500000000E+03 0.  0.
    3000001    1    3    3    0    0  0.37391343254E+02  0.29722258141E+01 -0.39006626359E+02  0.54124519181E+02  0.10000000000E+01 0. -1.
    1000022    2    1    0    0    0  0.43523372283E+02 -0.22417299090E+00 -0.43725459634E+02  0.62499999996E+02  0.99999995477E+01 0.  0.
    3000022    2    3    3    0    0  0.61320290290E+01 -0.31963988050E+01 -0.47188332746E+01  0.83754808156E+01  0.25009215514E+00 0.  0.
    1000022    2    1    0    0    0 -0.43523372283E+02  0.22417299090E+00  0.43725459634E+02  0.62500000004E+02  0.99999995942E+01 0.  0.
    3000022    2    5    5    0    0 -0.64261567194E+01  0.12314928036E+01  0.24650689438E+01  0.69965051980E+01  0.24991074408E+00 0.  0.
        -13    1    4    4    0    0  0.20931784375E+01 -0.11485724430E+01 -0.16573833946E+01  0.29083602502E+01  0.10500000000E+00 0.  1.
         13    1    4    4    0    0  0.40388505915E+01 -0.20478263620E+01 -0.30614498800E+01  0.54671205654E+01  0.10500000000E+00 0. -1.
    3000001    1    5    5    0    0 -0.37097215563E+02 -0.10073198127E+01  0.41260390690E+02  0.55503494806E+02  0.10000000000E+01 0. -1.
        -13    1    6    6    0    0 -0.25210200505E+01  0.45910954124E+00  0.10271301351E+01  0.27626699007E+01  0.10500000000E+00 0. -1.
         13    1    6    6    0    0 -0.39051366689E+01  0.77238326239E+00  0.14379388087E+01  0.42338352973E+01  0.10500000000E+00 0. -1.
</event>
<event>
11    0  0.3510903E-009  0.9118800E+02  0.7816531E-02  0.1126479E+00
         25   -1    0    0    0    0  0.00000000000E+00  0.00000000000E+00  0.99999998245E-14  0.12500000000E+03  0.12500000000E+03 0.  0.
    3000001    1    3    3    0    0 -0.12943979152E+02 -0.10781306457E+01  0.39190309198E+02  0.41298780817E+02  0.10000000000E+01 0.  1.
    1000022    2    1    0    0    0 -0.25675381013E+02 -0.32158035121E+01  0.56006101744E+02  0.62499998207E+02  0.99999880493E+01 0.  0.
    3000022    2    3    3    0    0 -0.12731401861E+02 -0.21376728664E+01  0.16815792546E+02  0.21201217390E+02  0.25000247989E+00 0.  0.
    1000022    2    1    0    0    0  0.25675381013E+02  0.32158035121E+01 -0.56006101744E+02  0.62500001793E+02  0.10000010460E+02 0.  0.
    3000022    2    5    5    0    0  0.24145974470E+02  0.26670079381E+00 -0.46825905685E+02  0.52686119234E+02  0.25000844942E+00 0.  0.
        -13    1    4    4    0    0 -0.54735612640E+01 -0.85266730814E+00  0.72137931050E+01  0.90959744069E+01  0.10500000000E+00 0. -1.
         13    1    4    4    0    0 -0.72578405967E+01 -0.12850055583E+01  0.96019994408E+01  0.12105242983E+02  0.10500000000E+00 0.  1.
    3000001    1    5    5    0    0  0.15294065425E+01  0.29491027183E+01 -0.91801960585E+01  0.98138825593E+01  0.10000000000E+01 0. -1.
        -13    1    6    6    0    0  0.16243510940E+02  0.22529710347E+00 -0.31555714619E+02  0.35491922413E+02  0.10500000000E+00 0. -1.
         13    1    6    6    0    0  0.79024635300E+01  0.41403690341E-01 -0.15270191066E+02  0.17194196821E+02  0.10500000000E+00 0.  1.
</event>
<event>
11    0  0.3510903E-009  0.9118800E+02  0.7816531E-02  0.1126479E+00
         25   -1    0    0    0    0  0.00000000000E+00  0.00000000000E+00  0.99999998245E-14  0.12500000000E+03  0.12500000000E+03 0.  0.
    3000001    1    3    3    0    0 -0.58604148753E+02 -0.10268242445E+01  0.19545749846E+02  0.61794311681E+02  0.10000000000E+01 0.  1.
    1000022    2    1    0    0    0 -0.58706076565E+02 -0.12387008490E+01  0.18929131724E+02  0.62500000185E+02  0.10000009491E+02 0.  0.
    3000022    2    3    3    0    0 -0.10192781173E+00 -0.21187660452E+00 -0.61661812191E+00  0.70568850343E+00  0.24999476247E+00 0.  0.
    1000022    2    1    0    0    0  0.58706076565E+02  0.12387008490E+01 -0.18929131724E+02  0.62499999815E+02  0.10000007180E+02 0.  0.
    3000022    2    5    5    0    0  0.34768757595E+02 -0.41243950020E+01 -0.11103495343E+02  0.36731829113E+02  0.25004459647E+00 0.  0.
        -13    1    4    4    0    0 -0.20463735172E-01 -0.20545246809E-01 -0.22592614231E+00  0.25081565621E+00  0.10500000000E+00 0. -1.
         13    1    4    4    0    0 -0.81464076555E-01 -0.19133135771E+00 -0.39069197960E+00  0.45487284722E+00  0.10500000000E+00 0.  1.
    3000001    1    5    5    0    0  0.23937318970E+02  0.53630958510E+01 -0.78256363812E+01  0.25768170703E+02  0.10000000000E+01 0. -1.
        -13    1    6    6    0    0  0.17827474044E+02 -0.21294893592E+01 -0.57632348850E+01  0.18856814605E+02  0.10500000000E+00 0.  1.
         13    1    6    6    0    0  0.16941283551E+02 -0.19949056428E+01 -0.53402604575E+01  0.17875014507E+02  0.10500000000E+00 0. -1.
</event>
<event>
11    0  0.3510903E-009  0.9118800E+02  0.7816531E-02  0.1126479E+00
         25   -1    0    0    0    0  0.00000000000E+00  0.00000000000E+00  0.99999998245E-14  0.12500000000E+03  0.12500000000E+03 0.  0.
    3000001    1    3    3    0    0  0.26569544582E+02  0.16448583534E+02  0.17456887391E+02  0.35808372163E+02  0.10000000000E+01 0. -1.
    1000022    2    1    0    0    0  0.50929184157E+02  0.24961304849E+02  0.24277588152E+02  0.62499998633E+02  0.10000000199E+02 0.  0.
    3000022    2    3    3    0    0  0.24359639574E+02  0.85127213147E+01  0.68207007610E+01  0.26691626470E+02  0.25000067348E+00 0.  0.
    1000022    2    1    0    0    0 -0.50929184157E+02 -0.24961304849E+02 -0.24277588152E+02  0.62500001367E+02  0.10000017289E+02 0.  0.
    3000022    2    5    5    0    0 -0.44515989002E+02 -0.21750492863E+02 -0.17398972408E+02  0.52512321944E+02  0.24999702617E+00 0.  0.
        -13    1    4    4    0    0  0.11388613191E+02  0.39917735111E+01  0.32585474503E+01  0.12500556894E+02  0.10500000000E+00 0.  1.
         13    1    4    4    0    0  0.12971026384E+02  0.45209478036E+01  0.35621533107E+01  0.14191069575E+02  0.10500000000E+00 0. -1.
    3000001    1    5    5    0    0 -0.64131951544E+01 -0.32108119862E+01 -0.68786157439E+01  0.99876794228E+01  0.10000000000E+01 0.  1.
        -13    1    6    6    0    0 -0.31497609100E+02 -0.15415022901E+02 -0.12354014139E+02  0.37180034970E+02  0.10500000000E+00 0.  1.
         13    1    6    6    0    0 -0.13018379902E+02 -0.63354699622E+01 -0.50449582692E+01  0.15332286974E+02  0.10500000000E+00 0. -1.
</event>
<event>
11    0  0.3510903E-009  0.9118800E+02  0.7816531E-02  0.1126479E+00
         25   -1    0    0    0    0  0.00000000000E+00  0.00000000000E+00  0.99999998245E-14  0.12500000000E+03  0.12500000000E+03 0.  0.
    3000001    1    3    3    0    0  0.13626301320E+01  0.21952327864E+01  0.19192969876E+01  0.33703870386E+01  0.10000000000E+01 0. -1.
    1000022    2    1    0    0    0 -0.26534806000E+01  0.25587344699E+02  0.56075814269E+02  0.62499998161E+02  0.99999828055E+01 0.  0.
    3000022    2    3    3    0    0 -0.40161107320E+01  0.23392111913E+02  0.54156517281E+02  0.59129611122E+02  0.25000450791E+00 0.  0.
    1000022    2    1    0    0    0  0.26534806000E+01 -0.25587344699E+02 -0.56075814269E+02  0.62500001839E+02  0.10000005799E+02 0.  0.
    3000022    2    5    5    0    0  0.38461613628E+01 -0.23918955478E+02 -0.54725822330E+02  0.59848872225E+02  0.24997714067E+00 0.  0.
        -13    1    4    4    0    0 -0.15356945210E+01  0.93145064547E+01  0.21526472989E+02  0.23505711062E+02  0.10500000000E+00 0.  1.
         13    1    4    4    0    0 -0.24804162109E+01  0.14077605458E+02  0.32630044292E+02  0.35623900060E+02  0.10500000000E+00 0. -1.
    3000001    1    5    5    0    0 -0.11926807628E+01 -0.16683892213E+01 -0.13499919387E+01  0.26511296140E+01  0.10000000000E+01 0.  1.
        -13    1    6    6    0    0  0.13627638515E+01 -0.86286137202E+01 -0.19603530370E+02  0.21462048551E+02  0.10500000000E+00 0.  1.
         13    1    6    6    0    0  0.24833975113E+01 -0.15290341757E+02 -0.35122291960E+02  0.38386823674E+02  0.10500000000E+00 0. -1.
</event>
<event>
11    0  0.3510903E-009  0.9118800E+02  0.7816531E-02  0.1126479E+00
         25   -1    0    0    0    0  0.00000000000E+00  0.00000000000E+00  0.99999998245E-14  0.12500000000E+03  0.12500000000E+03 0.  0.
    3000001    1    3    3    0    0  0.27998755223E+01 -0.15329127203E+01 -0.22868676074E+02  0.23112020027E+02  0.10000000000E+01 0. -1.
    1000022    2    1    0    0    0  0.18987784070E+01 -0.15495262281E+02 -0.59687030789E+02  0.62499999466E+02  0.99999888113E+01 0.  0.
    3000022    2    3    3    0    0 -0.90109711530E+00 -0.13962349560E+02 -0.36818354715E+02  0.39387979439E+02  0.24999819097E+00 0.  0.
    1000022    2    1    0    0    0 -0.18987784070E+01  0.15495262281E+02  0.59687030789E+02  0.62500000534E+02  0.99999954893E+01 0.  0.
    3000022    2    5    5    0    0 -0.25221461382E+01  0.13443088378E+02  0.33206649715E+02  0.35914090979E+02  0.24999855805E+00 0.  0.
        -13    1    4    4    0    0 -0.56730983482E+00 -0.92517207309E+01 -0.24517575696E+02  0.26211423463E+02  0.10500000000E+00 0.  1.
         13    1    4    4    0    0 -0.33378728048E+00 -0.47106288294E+01 -0.12300779019E+02  0.13176555976E+02  0.10500000000E+00 0. -1.
    3000001    1    5    5    0    0  0.62336773118E+00  0.20521739030E+01  0.26480381074E+02  0.26585909555E+02  0.10000000000E+01 0.  1.
        -13    1    6    6    0    0 -0.78330380824E+00  0.44506910681E+01  0.11011456658E+02  0.11903168426E+02  0.10500000000E+00 0. -1.
         13    1    6    6    0    0 -0.17388423299E+01  0.89923973095E+01  0.22195193057E+02  0.24010922553E+02  0.10500000000E+00 0.  1.
</event>
<event>
11    0  0.3510903E-009  0.9118800E+02  0.7816531E-02  0.1126479E+00
         25   -1    0    0    0    0  0.00000000000E+00  0.00000000000E+00  0.99999998245E-14  0.12500000000E+03  0.12500000000E+03 0.  0.
    3000001    1    3    3    0    0 -0.11287451960E+01 -0.69591977575E+01 -0.50324095938E+01  0.87194980053E+01  0.10000000000E+01 0. -1.
    1000022    2    1    0    0    0 -0.62468321376E+01 -0.59681531464E+02 -0.14329753208E+02  0.62499999796E+02  0.10000001892E+02 0.  0.
    3000022    2    3    3    0    0 -0.51180869416E+01 -0.52722333706E+02 -0.92973436141E+01  0.53780501791E+02  0.24997833579E+00 0.  0.
    1000022    2    1    0    0    0  0.62468321376E+01  0.59681531464E+02  0.14329753208E+02  0.62500000204E+02  0.10000004444E+02 0.  0.
    3000022    2    5    5    0    0  0.51385957765E+01  0.32692871357E+02  0.31341925035E+01  0.33243265225E+02  0.25003198971E+00 0.  0.
        -13    1    4    4    0    0 -0.24108523849E+01 -0.24494817995E+02 -0.43796754591E+01  0.25000017999E+02  0.10500000000E+00 0. -1.
         13    1    4    4    0    0 -0.27072345568E+01 -0.28227515711E+02 -0.49176681550E+01  0.28780483791E+02  0.10500000000E+00 0.  1.
    3000001    1    5    5    0    0  0.11082363612E+01  0.26988660107E+02  0.11195560704E+02  0.29256734980E+02  0.10000000000E+01 0.  1.
        -13    1    6    6    0    0  0.28742179416E+01  0.18694905742E+02  0.18075071158E+01  0.19001019353E+02  0.10500000000E+00 0. -1.
         13    1    6    6    0    0  0.22643778349E+01  0.13997965615E+02  0.13266853877E+01  0.14242245871E+02  0.10500000000E+00 0.  1.
</event>
<event>
11    0  0.3510903E-009  0.9118800E+02  0.7816531E-02  0.1126479E+00
         25   -1    0    0    0    0  0.00000000000E+00  0.00000000000E+00  0.99999998245E-14  0.12500000000E+03  0.12500000000E+03 0.  0.
    3000001    1    3    3    0    0  0.33845280314E+01  0.75876603163E+01  0.24335043068E+02  0.25733673274E+02  0.10000000000E+01 0.  1.
    1000022    2    1    0    0    0  0.19524324580E+02  0.17369567788E+02  0.55886932854E+02  0.62500002902E+02  0.99999981744E+01 0.  0.
    3000022    2    3    3    0    0  0.16139796548E+02  0.97819074717E+01  0.31551889787E+02  0.36766329628E+02  0.24999763347E+00 0.  0.
    1000022    2    1    0    0    0 -0.19524324580E+02 -0.17369567788E+02 -0.55886932854E+02  0.62499997098E+02  0.99999618968E+01 0.  0.
    3000022    2    5    5    0    0 -0.10116330893E+02 -0.11373353336E+02 -0.21568967653E+02  0.26400306400E+02  0.24999104276E+00 0.  0.
        -13    1    4    4    0    0  0.99531401122E+01  0.59786226552E+01  0.19489704686E+02  0.22686307340E+02  0.10500000000E+00 0. -1.
         13    1    4    4    0    0  0.61866564362E+01  0.38032848164E+01  0.12062185100E+02  0.14080022289E+02  0.10500000000E+00 0.  1.
    3000001    1    5    5    0    0 -0.94079936865E+01 -0.59962144516E+01 -0.34317965201E+02  0.36099690698E+02  0.10000000000E+01 0.  1.
        -13    1    6    6    0    0 -0.69289410224E+01 -0.77706122741E+01 -0.14835174440E+02  0.18124184519E+02  0.10500000000E+00 0.  1.
         13    1    6    6    0    0 -0.31873898709E+01 -0.36027410623E+01 -0.67337932131E+01  0.82761218809E+01  0.10500000000E+00 0. -1.
</event>
<event>
11    0  0.3510903E-009  0.9118800E+02  0.7816531E-02  0.1126479E+00
         25   -1    0    0    0    0  0.00000000000E+00  0.00000000000E+00  0.99999998245E-14  0.12500000000E+03  0.12500000000E+03 0.  0.
    3000001    1    3    3    0    0  0.24478510301E+02  0.19632932906E+02 -0.34527525899E+02  0.46666900108E+02  0.10000000000E+01 0.  1.
    1000022    2    1    0    0    0  0.33294905432E+02  0.30344867948E+02 -0.42153149106E+02  0.62499998631E+02  0.10000005541E+02 0.  0.
    3000022    2    3    3    0    0  0.88163951307E+01  0.10711935042E+02 -0.76256232067E+01  0.15833098522E+02  0.25000813666E+00 0.  0.
    1000022    2    1    0    0    0 -0.33294905432E+02 -0.30344867948E+02  0.42153149106E+02  0.62500001369E+02  0.10000022659E+02 0.  0.
    3000022    2    5    5    0    0 -0.22172308102E+02 -0.14167633606E+02  0.26789293940E+02  0.37550790403E+02  0.25000295800E+00 0.  0.
        -13    1    4    4    0    0  0.66805907556E+01  0.80846118475E+01 -0.57745194050E+01  0.11972774989E+02  0.10500000000E+00 0. -1.
         13    1    4    4    0    0  0.21358043751E+01  0.26273231948E+01 -0.18511038017E+01  0.38603235335E+01  0.10500000000E+00 0.  1.
    3000001    1    5    5    0    0 -0.11122597329E+02 -0.16177234342E+02  0.15363855165E+02  0.24949210967E+02  0.10000000000E+01 0. -1.
        -13    1    6    6    0    0 -0.77149088263E+01 -0.48981611346E+01  0.92340283975E+01  0.12991924651E+02  0.10500000000E+00 0. -1.
         13    1    6    6    0    0 -0.14457399276E+02 -0.92694724709E+01  0.17555265543E+02  0.24558865751E+02  0.10500000000E+00 0.  1.
</event>
<event>
11    0  0.3510903E-009  0.9118800E+02  0.7816531E-02  0.1126479E+00
         25   -1    0    0    0    0  0.00000000000E+00  0.00000000000E+00  0.99999998245E-14  0.12500000000E+03  0.12500000000E+03 0.  0.
    3000001    1    3    3    0    0  0.14081160953E+02  0.38626944066E+02 -0.31336432056E+02  0.51703886466E+02  0.10000000000E+01 0.  1.
    1000022    2    1    0    0    0  0.20297464663E+02  0.43641783807E+02 -0.38596082775E+02  0.62500000537E+02  0.10000004799E+02 0.  0.
    3000022    2    3    3    0    0  0.62163037101E+01  0.50148397417E+01 -0.72596507182E+01  0.10796114072E+02  0.25000208943E+00 0.  0.
    1000022    2    1    0    0    0 -0.20297464663E+02 -0.43641783807E+02  0.38596082775E+02  0.62499999463E+02  0.99999980834E+01 0.  0.
    3000022    2    5    5    0    0 -0.11267489247E+02 -0.24171080244E+02  0.27537911150E+02  0.38335316288E+02  0.24998054315E+00 0.  0.
        -13    1    4    4    0    0  0.22960063832E+01  0.19293461239E+01 -0.27336403982E+01  0.40592901601E+01  0.10500000000E+00 0. -1.
         13    1    4    4    0    0  0.39202973269E+01  0.30854936178E+01 -0.45260103201E+01  0.67368239115E+01  0.10500000000E+00 0.  1.
    3000001    1    5    5    0    0 -0.90299754161E+01 -0.19470703564E+02  0.11058171624E+02  0.24164683175E+02  0.10000000000E+01 0.  1.
        -13    1    6    6    0    0 -0.40757429229E+01 -0.88818555106E+01  0.10080395195E+02  0.14040100782E+02  0.10500000000E+00 0.  1.
         13    1    6    6    0    0 -0.71917463238E+01 -0.15289224733E+02  0.17457515955E+02  0.24295215505E+02  0.10500000000E+00 0. -1.
</event>
<event>
11    0  0.3510903E-009  0.9118800E+02  0.7816531E-02  0.1126479E+00
         25   -1    0    0    0    0  0.00000000000E+00  0.00000000000E+00  0.99999998245E-14  0.12500000000E+03  0.12500000000E+03 0.  0.
    3000001    1    3    3    0    0 -0.27558701793E+01 -0.12316552586E+01  0.27130314895E+02  0.27316035244E+02  0.10000000000E+01 0.  1.
    1000022    2    1    0    0    0 -0.17018928774E+02 -0.10317622807E+01  0.59292001416E+02  0.62500000049E+02  0.10000005209E+02 0.  0.
    3000022    2    3    3    0    0 -0.14263058595E+02  0.19989297788E+00  0.32161686521E+02  0.35183964805E+02  0.25000372952E+00 0.  0.
    1000022    2    1    0    0    0  0.17018928774E+02  0.10317622807E+01 -0.59292001416E+02  0.62499999951E+02  0.10000004598E+02 0.  0.
    3000022    2    5    5    0    0  0.89220535548E+01 -0.28922131865E+01 -0.18835494578E+02  0.21042962945E+02  0.24999352788E+00 0.  0.
        -13    1    4    4    0    0 -0.71708991524E+01  0.83027329429E-01  0.16330659133E+02  0.17836203097E+02  0.10500000000E+00 0.  1.
         13    1    4    4    0    0 -0.70921594428E+01  0.11686564845E+00  0.15831027388E+02  0.17347761708E+02  0.10500000000E+00 0. -1.
    3000001    1    5    5    0    0  0.80968752197E+01  0.39239754672E+01 -0.40456506838E+02  0.41457037006E+02  0.10000000000E+01 0. -1.
        -13    1    6    6    0    0  0.67430362730E+01 -0.21620145471E+01 -0.14206091803E+02  0.15873465734E+02  0.10500000000E+00 0. -1.
         13    1    6    6    0    0  0.21790172817E+01 -0.73019863938E+00 -0.46294027751E+01  0.51694972116E+01  0.10500000000E+00 0.  1.
</event>
<event>
11    0  0.3510903E-009  0.9118800E+02  0.7816531E-02  0.1126479E+00
         25   -1    0    0    0    0  0.00000000000E+00  0.00000000000E+00  0.99999998245E-14  0.12500000000E+03  0.12500000000E+03 0.  0.
    3000001    1    3    3    0    0 -0.48292927704E+01 -0.31036969448E+01  0.17671593146E+02  0.18607530940E+02  0.10000000000E+01 0. -1.
    1000022    2    1    0    0    0 -0.42059562677E+01 -0.15556515247E+01  0.61531615287E+02  0.62500002234E+02  0.10000023981E+02 0.  0.
    3000022    2    3    3    0    0  0.62333650264E+00  0.15480454200E+01  0.43860022141E+02  0.43892471293E+02  0.25000203248E+00 0.  0.
    1000022    2    1    0    0    0  0.42059562677E+01  0.15556515247E+01 -0.61531615287E+02  0.62499997766E+02  0.99999960609E+01 0.  0.
    3000022    2    5    5    0    0  0.54907393902E-01  0.21924878256E+01 -0.51879530037E+02  0.51926468701E+02  0.24999443547E+00 0.  0.
        -13    1    4    4    0    0  0.34292611285E+00  0.67301175848E+00  0.19805688964E+02  0.19820365372E+02  0.10500000000E+00 0.  1.
         13    1    4    4    0    0  0.28041038979E+00  0.87503366155E+00  0.24054333177E+02  0.24072105921E+02  0.10500000000E+00 0. -1.
    3000001    1    5    5    0    0  0.41510488738E+01 -0.63683630086E+00 -0.96520852493E+01  0.10573529065E+02  0.10000000000E+01 0.  1.
        -13    1    6    6    0    0  0.14675137222E-01  0.74030815314E+00 -0.18902541808E+02  0.18917330238E+02  0.10500000000E+00 0.  1.
         13    1    6    6    0    0  0.40232256680E-01  0.14521796724E+01 -0.32976988229E+02  0.33009138463E+02  0.10500000000E+00 0. -1.
</event>
<event>
11    0  0.3510903E-009  0.9118800E+02  0.7816531E-02  0.1126479E+00
         25   -1    0    0    0    0  0.00000000000E+00  0.00000000000E+00  0.99999998245E-14  0.12500000000E+03  0.12500000000E+03 0.  0.
    3000001    1    3    3    0    0  0.66285328556E+00  0.27188573067E+02 -0.10387056027E+02  0.29129861188E+02  0.10000000000E+01 0. -1.
    1000022    2    1    0    0    0  0.22646176462E+01  0.60482207482E+02 -0.11959268921E+02  0.62499998965E+02  0.99999921257E+01 0.  0.
    3000022    2    3    3    0    0  0.16017643606E+01  0.33293634415E+02 -0.15722128939E+01  0.33370137777E+02  0.25000054091E+00 0.  0.
    1000022    2    1    0    0    0 -0.22646176462E+01 -0.60482207482E+02  0.11959268921E+02  0.62500001035E+02  0.10000005068E+02 0.  0.
    3000022    2    5    5    0    0 -0.15430309108E+01 -0.19881061201E+01 -0.73078042276E+00  0.26324978816E+01  0.24998946790E+00 0.  0.
        -13    1    4    4    0    0  0.39407144385E+00  0.84861266071E+01 -0.37533111895E+00  0.85042069320E+01  0.10500000000E+00 0.  1.
         13    1    4    4    0    0  0.12076929168E+01  0.24807507808E+02 -0.11968817749E+01  0.24865930845E+02  0.10500000000E+00 0. -1.
    3000001    1    5    5    0    0 -0.72158673535E+00 -0.58494101362E+02  0.12690049344E+02  0.59867503154E+02  0.10000000000E+01 0. -1.
        -13    1    6    6    0    0 -0.47727976389E+00 -0.54843795804E+00 -0.19888804997E+00  0.76102669024E+00  0.10500000000E+00 0.  1.
         13    1    6    6    0    0 -0.10657511469E+01 -0.14396681620E+01 -0.53189237279E+00  0.18714711914E+01  0.10500000000E+00 0. -1.
</event>
<event>
11    0  0.3510903E-009  0.9118800E+02  0.7816531E-02  0.1126479E+00
         25   -1    0    0    0    0  0.00000000000E+00  0.00000000000E+00  0.99999998245E-14  0.12500000000E+03  0.12500000000E+03 0.  0.
    3000001    1    3    3    0    0  0.10016760459E+02 -0.43800507639E+00  0.59512063715E+01  0.11702315832E+02  0.10000000000E+01 0.  1.
    1000022    2    1    0    0    0  0.48418055230E+02  0.17128724105E+02  0.34184042768E+02  0.62500002443E+02  0.10000013188E+02 0.  0.
    3000022    2    3    3    0    0  0.38401294771E+02  0.17566729181E+02  0.28232836396E+02  0.50797686612E+02  0.24999988697E+00 0.  0.
    1000022    2    1    0    0    0 -0.48418055230E+02 -0.17128724105E+02 -0.34184042768E+02  0.62499997557E+02  0.99999826475E+01 0.  0.
    3000022    2    5    5    0    0 -0.22788199517E+02 -0.29532956556E+01 -0.16194619699E+02  0.28113203319E+02  0.25000245099E+00 0.  0.
        -13    1    4    4    0    0  0.14848114322E+02  0.68527955282E+01  0.10966910315E+02  0.19690389847E+02  0.10500000000E+00 0. -1.
         13    1    4    4    0    0  0.23553180449E+02  0.10713933653E+02  0.17265926081E+02  0.31107296765E+02  0.10500000000E+00 0.  1.
    3000001    1    5    5    0    0 -0.25629855713E+02 -0.14175428449E+02 -0.17989423068E+02  0.34386794238E+02  0.10000000000E+01 0.  1.
        -13    1    6    6    0    0 -0.14761104892E+02 -0.19645034850E+01 -0.10463963216E+02  0.18200413258E+02  0.10500000000E+00 0.  1.
         13    1    6    6    0    0 -0.80270946248E+01 -0.98879217062E+00 -0.57306564832E+01  0.99127900614E+01  0.10500000000E+00 0. -1.
</event>
<event>
11    0  0.3510903E-009  0.9118800E+02  0.7816531E-02  0.1126479E+00
         25   -1    0    0    0    0  0.00000000000E+00  0.00000000000E+00  0.99999998245E-14  0.12500000000E+03  0.12500000000E+03 0.  0.
    3000001    1    3    3    0    0  0.20728187834E+02  0.12153526624E+02  0.72495295148E+01  0.25118153962E+02  0.10000000000E+01 0. -1.
    1000022    2    1    0    0    0  0.45807124538E+02  0.39339506279E+02  0.12663344154E+02  0.62500000613E+02  0.10000018933E+02 0.  0.
    3000022    2    3    3    0    0  0.25078936704E+02  0.27185979656E+02  0.54138146393E+01  0.37381846651E+02  0.25002800320E+00 0.  0.
    1000022    2    1    0    0    0 -0.45807124538E+02 -0.39339506279E+02 -0.12663344154E+02  0.62499999387E+02  0.10000011275E+02 0.  0.
    3000022    2    5    5    0    0 -0.37991841589E+02 -0.28348448788E+02 -0.12293777822E+02  0.48971563719E+02  0.25000792052E+00 0.  0.
        -13    1    4    4    0    0  0.11177069923E+02  0.12203145680E+02  0.23910413370E+01  0.16720399523E+02  0.10500000000E+00 0.  1.
         13    1    4    4    0    0  0.13901866781E+02  0.14982833976E+02  0.30227733023E+01  0.20661447127E+02  0.10500000000E+00 0. -1.
    3000001    1    5    5    0    0 -0.78152829495E+01 -0.10991057492E+02 -0.36956633213E+00  0.13528435669E+02  0.10000000000E+01 0. -1.
        -13    1    6    6    0    0 -0.15581797386E+02 -0.11546956588E+02 -0.50299523833E+01  0.20035869390E+02  0.10500000000E+00 0.  1.
         13    1    6    6    0    0 -0.22410044202E+02 -0.16801492200E+02 -0.72638254386E+01  0.28935694329E+02  0.10500000000E+00 0. -1.
</event>
<event>
11    0  0.3510903E-009  0.9118800E+02  0.7816531E-02  0.1126479E+00
         25   -1    0    0    0    0  0.00000000000E+00  0.00000000000E+00  0.99999998245E-14  0.12500000000E+03  0.12500000000E+03 0.  0.
    3000001    1    3    3    0    0 -0.13290690479E+01  0.17252423921E+01  0.44191036467E+01  0.50270630477E+01  0.10000000000E+01 0. -1.
    1000022    2    1    0    0    0 -0.42970966553E+02  0.84505049466E+01  0.43454975207E+02  0.62500000647E+02  0.10000010516E+02 0.  0.
    3000022    2    3    3    0    0 -0.41641897505E+02  0.67252625546E+01  0.39035871560E+02  0.57472937600E+02  0.25000718294E+00 0.  0.
    1000022    2    1    0    0    0  0.42970966553E+02 -0.84505049466E+01 -0.43454975207E+02  0.62499999353E+02  0.10000002424E+02 0.  0.
    3000022    2    5    5    0    0  0.75960768914E+01  0.22568184624E+01 -0.83903017547E+01  0.11543538354E+02  0.25000097899E+00 0.  0.
        -13    1    4    4    0    0 -0.17285050193E+02  0.27457995046E+01  0.16134152769E+02  0.23804081282E+02  0.10500000000E+00 0.  1.
         13    1    4    4    0    0 -0.24356847312E+02  0.39794630500E+01  0.22901718791E+02  0.33668856318E+02  0.10500000000E+00 0. -1.
    3000001    1    5    5    0    0  0.35374889662E+02 -0.10707323409E+02 -0.35064673452E+02  0.50956460998E+02  0.10000000000E+01 0.  1.
        -13    1    6    6    0    0  0.26946120623E+01  0.78708155622E+00 -0.30546505587E+01  0.41499815154E+01  0.10500000000E+00 0. -1.
         13    1    6    6    0    0  0.49014648291E+01  0.14697369062E+01 -0.53356511960E+01  0.73935568389E+01  0.10500000000E+00 0.  1.
</event>
<event>
11    0  0.3510903E-009  0.9118800E+02  0.7816531E-02  0.1126479E+00
         25   -1    0    0    0    0  0.00000000000E+00  0.00000000000E+00  0.99999998245E-14  0.12500000000E+03  0.12500000000E+03 0.  0.
    3000001    1    3    3    0    0 -0.13178152479E+02  0.32449169638E+02 -0.49683777544E+02  0.60795477332E+02  0.10000000000E+01 0. -1.
    1000022    2    1    0    0    0 -0.14667016939E+02  0.32318554167E+02 -0.50464241443E+02  0.62500001371E+02  0.10000008882E+02 0.  0.
    3000022    2    3    3    0    0 -0.14888644600E+01 -0.13061547097E+00 -0.78046389857E+00  0.17045240391E+01  0.25000104275E+00 0.  0.
    1000022    2    1    0    0    0  0.14667016939E+02 -0.32318554167E+02  0.50464241443E+02  0.62499998629E+02  0.99999917410E+01 0.  0.
    3000022    2    5    5    0    0  0.26827393032E+01 -0.31499870808E+01  0.12318521911E+02  0.12997229667E+02  0.24997629336E+00 0.  0.
        -13    1    4    4    0    0 -0.74470668918E+00 -0.11747110921E+00 -0.34363332814E+00  0.83516248636E+00  0.10500000000E+00 0.  1.
         13    1    4    4    0    0 -0.74415777079E+00 -0.13144361761E-01 -0.43683057043E+00  0.86936155271E+00  0.10500000000E+00 0. -1.
    3000001    1    5    5    0    0  0.11984277636E+02 -0.29168567087E+02  0.38145719532E+02  0.49502768962E+02  0.10000000000E+01 0. -1.
        -13    1    6    6    0    0  0.15326914741E+01 -0.17473401171E+01  0.70941229296E+01  0.74659189508E+01  0.10500000000E+00 0.  1.
         13    1    6    6    0    0  0.11500478291E+01 -0.14026469637E+01  0.52243989817E+01  0.55313107158E+01  0.10500000000E+00 0. -1.
</event>
<event>
11    0  0.3510903E-009  0.9118800E+02  0.7816531E-02  0.1126479E+00
         25   -1    0    0    0    0  0.00000000000E+00  0.00000000000E+00  0.99999998245E-14  0.12500000000E+03  0.12500000000E+03 0.  0.
    3000001    1    3    3    0    0  0.19106336909E+02  0.14806876256E+02 -0.25874211376E+02  0.35422739997E+02  0.10000000000E+01 0.  1.
    1000022    2    1    0    0    0  0.27156446008E+02  0.31776777377E+02 -0.45376357371E+02  0.62499999803E+02  0.10000001345E+02 0.  0.
    3000022    2    3    3    0    0  0.80501090995E+01  0.16969901120E+02 -0.19502145994E+02  0.27077259806E+02  0.24999934445E+00 0.  0.
    1000022    2    1    0    0    0 -0.27156446008E+02 -0.31776777377E+02  0.45376357371E+02  0.62500000197E+02  0.10000003804E+02 0.  0.
    3000022    2    5    5    0    0 -0.10657977221E+02 -0.16982991194E+02  0.27370336179E+02  0.33929519257E+02  0.25001227885E+00 0.  0.
        -13    1    4    4    0    0  0.45009664894E+01  0.93745446360E+01 -0.10862446245E+02  0.15038103268E+02  0.10500000000E+00 0. -1.
         13    1    4    4    0    0  0.35491426101E+01  0.75953564845E+01 -0.86396997491E+01  0.12039156538E+02  0.10500000000E+00 0.  1.
    3000001    1    5    5    0    0 -0.16498468787E+02 -0.14793786183E+02  0.18006021192E+02  0.28570480940E+02  0.10000000000E+01 0. -1.
        -13    1    6    6    0    0 -0.36514714054E+01 -0.57434133901E+01  0.92278258026E+01  0.11466640085E+02  0.10500000000E+00 0.  1.
         13    1    6    6    0    0 -0.70065058155E+01 -0.11239577804E+02  0.18142510376E+02  0.22462879172E+02  0.10500000000E+00 0. -1.
</event>
<event>
11    0  0.3510903E-009  0.9118800E+02  0.7816531E-02  0.1126479E+00
         25   -1    0    0    0    0  0.00000000000E+00  0.00000000000E+00  0.99999998245E-14  0.12500000000E+03  0.12500000000E+03 0.  0.
    3000001    1    3    3    0    0 -0.94836317285E+01  0.24130167019E+01 -0.12569660010E+02  0.15961148866E+02  0.10000000000E+01 0. -1.
    1000022    2    1    0    0    0 -0.48550707209E+02  0.89560904338E+01 -0.36998208550E+02  0.62500000592E+02  0.99999955895E+01 0.  0.
    3000022    2    3    3    0    0 -0.39067075480E+02  0.65430737319E+01 -0.24428548540E+02  0.46538851726E+02  0.25007151097E+00 0.  0.
    1000022    2    1    0    0    0  0.48550707209E+02 -0.89560904338E+01  0.36998208550E+02  0.62499999408E+02  0.99999881889E+01 0.  0.
    3000022    2    5    5    0    0  0.29065120461E+02 -0.94428584922E+01  0.19244677727E+02  0.36116048023E+02  0.25000004486E+00 0.  0.
        -13    1    4    4    0    0 -0.23867069908E+02  0.39920073112E+01 -0.14850830984E+02  0.28392452418E+02  0.10500000000E+00 0.  1.
         13    1    4    4    0    0 -0.15200005572E+02  0.25510664208E+01 -0.95777175558E+01  0.18146399308E+02  0.10500000000E+00 0. -1.
    3000001    1    5    5    0    0  0.19485586748E+02  0.48676805838E+00  0.17753530822E+02  0.26383951385E+02  0.10000000000E+01 0.  1.
        -13    1    6    6    0    0  0.18619918215E+02 -0.59888704721E+01  0.12326295722E+02  0.23119613212E+02  0.10500000000E+00 0. -1.
         13    1    6    6    0    0  0.10445202246E+02 -0.34539880201E+01  0.69183820058E+01  0.12996434810E+02  0.10500000000E+00 0.  1.
</event>
<event>
11    0  0.3510903E-009  0.9118800E+02  0.7816531E-02  0.1126479E+00
         25   -1    0    0    0    0  0.00000000000E+00  0.00000000000E+00  0.99999998245E-14  0.12500000000E+03  0.12500000000E+03 0.  0.
    3000001    1    3    3    0    0 -0.37273010173E+01  0.92867996135E+01 -0.11389308337E+02  0.15193872592E+02  0.10000000000E+01 0. -1.
    1000022    2    1    0    0    0 -0.12893687550E+01  0.30673075299E+02 -0.53514015117E+02  0.62500000344E+02  0.10000010446E+02 0.  0.
    3000022    2    3    3    0    0  0.24379322623E+01  0.21386275686E+02 -0.42124706780E+02  0.47306127752E+02  0.25000034824E+00 0.  0.
    1000022    2    1    0    0    0  0.12893687550E+01 -0.30673075299E+02  0.53514015117E+02  0.62499999656E+02  0.10000006145E+02 0.  0.
    3000022    2    5    5    0    0 -0.41750347988E+01 -0.13381358966E+02  0.25842994655E+02  0.29400928167E+02  0.25004206863E+00 0.  0.
        -13    1    4    4    0    0  0.13773399392E+01  0.12559876961E+02 -0.24802944702E+02  0.27836031784E+02  0.10500000000E+00 0. -1.
         13    1    4    4    0    0  0.10605923231E+01  0.88263987244E+01 -0.17321762078E+02  0.19470095968E+02  0.10500000000E+00 0.  1.
    3000001    1    5    5    0    0  0.54644035538E+01 -0.17291716333E+02  0.27671020463E+02  0.33099071489E+02  0.10000000000E+01 0.  1.
        -13    1    6    6    0    0 -0.28798827020E+01 -0.92175477188E+01  0.17700305687E+02  0.20163550202E+02  0.10500000000E+00 0.  1.
         13    1    6    6    0    0 -0.12951520967E+01 -0.41638112470E+01  0.81426889676E+01  0.92373779655E+01  0.10500000000E+00 0. -1.
</event>
<event>
11    0  0.3510903E-009  0.9118800E+02  0.7816531E-02  0.1126479E+00
         25   -1    0    0    0    0  0.00000000000E+00  0.00000000000E+00  0.99999998245E-14  0.12500000000E+03  0.12500000000E+03 0.  0.
    3000001    1    3    3    0    0  0.41682213911E+00 -0.88024301340E+01  0.12304290729E+02  0.15167468059E+02  0.10000000000E+01 0.  1.
    1000022    2    1    0    0    0  0.77870745210E+01 -0.47294454945E+02  0.38843870582E+02  0.62499998000E+02  0.99999735037E+01 0.  0.
    3000022    2    3    3    0    0  0.73702523819E+01 -0.38492024811E+02  0.26539579852E+02  0.47332529941E+02  0.24999533335E+00 0.  0.
    1000022    2    1    0    0    0 -0.77870745210E+01  0.47294454945E+02 -0.38843870582E+02  0.62500002000E+02  0.99999985068E+01 0.  0.
    3000022    2    5    5    0    0 -0.99201889878E+01  0.38650142731E+02 -0.33218193065E+02  0.51920656155E+02  0.25000487834E+00 0.  0.
        -13    1    4    4    0    0  0.33266196695E+01 -0.17055919126E+02  0.11732807026E+02  0.20967607430E+02  0.10500000000E+00 0. -1.
         13    1    4    4    0    0  0.40436327125E+01 -0.21436105685E+02  0.14806772826E+02  0.26364922511E+02  0.10500000000E+00 0.  1.
    3000001    1    5    5    0    0  0.21331144668E+01  0.86443122140E+01 -0.56256775166E+01  0.10579345845E+02  0.10000000000E+01 0.  1.
        -13    1    6    6    0    0 -0.55583832528E+01  0.21389548702E+02 -0.18404539858E+02  0.28760155257E+02  0.10500000000E+00 0. -1.
         13    1    6    6    0    0 -0.43618057350E+01  0.17260594029E+02 -0.14813653207E+02  0.23160500898E+02  0.10500000000E+00 0.  1.
</event>
<event>
11    0  0.3510903E-009  0.9118800E+02  0.7816531E-02  0.1126479E+00
         25   -1    0    0    0    0  0.00000000000E+00  0.00000000000E+00  0.99999998245E-14  0.12500000000E+03  0.12500000000E+03 0.  0.
    3000001    1    3    3    0    0 -0.42281922298E+01  0.21626784854E+01  0.59365144551E+01  0.76679196422E+01  0.10000000000E+01 0.  1.
    1000022    2    1    0    0    0 -0.36774280819E+02  0.37492088825E+02  0.32376621990E+02  0.62499998856E+02  0.99999875602E+01 0.  0.
    3000022    2    3    3    0    0 -0.32546088589E+02  0.35329410339E+02  0.26440107535E+02  0.54832079213E+02  0.25001394407E+00 0.  0.
    1000022    2    1    0    0    0  0.36774280819E+02 -0.37492088825E+02 -0.32376621990E+02  0.62500001144E+02  0.10000001865E+02 0.  0.
    3000022    2    5    5    0    0  0.17456336632E+02 -0.11270411277E+02 -0.14442633029E+02  0.25306086304E+02  0.24999254699E+00 0.  0.
        -13    1    4    4    0    0 -0.21779660518E+02  0.23706715098E+02  0.17685623864E+02  0.36730835404E+02  0.10500000000E+00 0. -1.
         13    1    4    4    0    0 -0.10766428072E+02  0.11622695241E+02  0.87544836715E+01  0.18101243810E+02  0.10500000000E+00 0.  1.
    3000001    1    5    5    0    0  0.19317944188E+02 -0.26221677548E+02 -0.17933988961E+02  0.37193914840E+02  0.10000000000E+01 0.  1.
        -13    1    6    6    0    0  0.77923952896E+01 -0.51072783731E+01 -0.64538219318E+01  0.11334397172E+02  0.10500000000E+00 0.  1.
         13    1    6    6    0    0  0.96639413421E+01 -0.61631329035E+01 -0.79888110974E+01  0.13971689132E+02  0.10500000000E+00 0. -1.
</event>
<event>
11    0  0.3510903E-009  0.9118800E+02  0.7816531E-02  0.1126479E+00
         25   -1    0    0    0    0  0.00000000000E+00  0.00000000000E+00  0.99999998245E-14  0.12500000000E+03  0.12500000000E+03 0.  0.
    3000001    1    3    3    0    0 -0.19781043034E+01 -0.21992928192E+02  0.63219124162E+01  0.22990614687E+02  0.10000000000E+01 0.  1.
    1000022    2    1    0    0    0 -0.13400857417E+02 -0.59807103061E+02  0.70553216050E+01  0.62500000287E+02  0.99999958453E+01 0.  0.
    3000022    2    3    3    0    0 -0.11422753114E+02 -0.37814174869E+02  0.73340918886E+00  0.39509385601E+02  0.25010348151E+00 0.  0.
    1000022    2    1    0    0    0  0.13400857417E+02  0.59807103061E+02 -0.70553216050E+01  0.62499999713E+02  0.99999922538E+01 0.  0.
    3000022    2    5    5    0    0  0.11361364707E+02  0.31395674152E+02 -0.63600571977E+01  0.33989436481E+02  0.25000261712E+00 0.  0.
        -13    1    4    4    0    0 -0.74030499090E+01 -0.24359765242E+02  0.43411732112E+00  0.25463754504E+02  0.10500000000E+00 0. -1.
         13    1    4    4    0    0 -0.40197032046E+01 -0.13454409628E+02  0.29929186773E+00  0.14045631097E+02  0.10500000000E+00 0.  1.
    3000001    1    5    5    0    0  0.20394927102E+01  0.28411428909E+02 -0.69526440737E+00  0.28510563231E+02  0.10000000000E+01 0.  1.
        -13    1    6    6    0    0  0.53613522200E+01  0.14705316271E+02 -0.29245527127E+01  0.15923393415E+02  0.10500000000E+00 0. -1.
         13    1    6    6    0    0  0.60000124868E+01  0.16690357881E+02 -0.34355044850E+01  0.18066043067E+02  0.10500000000E+00 0.  1.
</event>
<event>
11    0  0.3510903E-009  0.9118800E+02  0.7816531E-02  0.1126479E+00
         25   -1    0    0    0    0  0.00000000000E+00  0.00000000000E+00  0.99999998245E-14  0.12500000000E+03  0.12500000000E+03 0.  0.
    3000001    1    3    3    0    0 -0.10466541322E+02  0.13153406637E+01  0.92812871672E+01  0.14086195362E+02  0.10000000000E+01 0.  1.
    1000022    2    1    0    0    0 -0.55880796002E+02  0.31509259014E+01  0.25954925041E+02  0.62500001217E+02  0.10000016114E+02 0.  0.
    3000022    2    3    3    0    0 -0.45414254681E+02  0.18355852377E+01  0.16673637874E+02  0.48413805855E+02  0.24999198800E+00 0.  0.
    1000022    2    1    0    0    0  0.55880796002E+02 -0.31509259014E+01 -0.25954925041E+02  0.62499998783E+02  0.10000000905E+02 0.  0.
    3000022    2    5    5    0    0  0.55215003479E+02 -0.30724870819E+01 -0.24182156298E+02  0.60357070565E+02  0.24999575776E+00 0.  0.
        -13    1    4    4    0    0 -0.31310299779E+02  0.13137762582E+01  0.11501943676E+02  0.33382130155E+02  0.10500000000E+00 0.  1.
         13    1    4    4    0    0 -0.14103954901E+02  0.52180897955E+00  0.51716941980E+01  0.15031675700E+02  0.10500000000E+00 0. -1.
    3000001    1    5    5    0    0  0.66579252364E+00 -0.78438819541E-01 -0.17727687434E+01  0.21429282187E+01  0.10000000000E+01 0. -1.
        -13    1    6    6    0    0  0.37775536915E+02 -0.21258718844E+01 -0.16497046135E+02  0.41275586933E+02  0.10500000000E+00 0.  1.
         13    1    6    6    0    0  0.17439466564E+02 -0.94661519746E+00 -0.76851101633E+01  0.19081483631E+02  0.10500000000E+00 0. -1.
</event>
<event>
11    0  0.3510903E-009  0.9118800E+02  0.7816531E-02  0.1126479E+00
         25   -1    0    0    0    0  0.00000000000E+00  0.00000000000E+00  0.99999998245E-14  0.12500000000E+03  0.12500000000E+03 0.  0.
    3000001    1    3    3    0    0  0.33065461157E-01 -0.39001357934E+02  0.11081073935E+02  0.40557332427E+02  0.10000000000E+01 0.  1.
    1000022    2    1    0    0    0  0.70654948708E+01 -0.59367921938E+02  0.15224277769E+02  0.62499999361E+02  0.99999956803E+01 0.  0.
    3000022    2    3    3    0    0  0.70324294096E+01 -0.20366564004E+02  0.41432038342E+01  0.21942666935E+02  0.25000294701E+00 0.  0.
    1000022    2    1    0    0    0 -0.70654948708E+01  0.59367921938E+02 -0.15224277769E+02  0.62500000639E+02  0.10000003665E+02 0.  0.
    3000022    2    5    5    0    0 -0.70330973730E+01  0.54593805253E+02 -0.16486650128E+02  0.57461466756E+02  0.24999733438E+00 0.  0.
        -13    1    4    4    0    0  0.31069830318E+01 -0.89880973463E+01  0.17613588682E+01  0.96722617587E+01  0.10500000000E+00 0. -1.
         13    1    4    4    0    0  0.39254463778E+01 -0.11378466657E+02  0.23818449660E+01  0.12270405176E+02  0.10500000000E+00 0.  1.
    3000001    1    5    5    0    0 -0.32397497818E-01  0.47741166848E+01  0.12623723584E+01  0.50385338829E+01  0.10000000000E+01 0.  1.
        -13    1    6    6    0    0 -0.23313322083E+01  0.17810350802E+02 -0.54186875149E+01  0.18762113552E+02  0.10500000000E+00 0. -1.
         13    1    6    6    0    0 -0.47017651647E+01  0.36783454451E+02 -0.11067962613E+02  0.38699353204E+02  0.10500000000E+00 0.  1.
</event>
<event>
11    0  0.3510903E-009  0.9118800E+02  0.7816531E-02  0.1126479E+00
         25   -1    0    0    0    0  0.00000000000E+00  0.00000000000E+00  0.99999998245E-14  0.12500000000E+03  0.12500000000E+03 0.  0.
    3000001    1    3    3    0    0  0.14249380286E+02 -0.41393943480E+02  0.48851648004E+01  0.44060960390E+02  0.10000000000E+01 0. -1.
    1000022    2    1    0    0    0  0.22625651498E+02 -0.56072827879E+02  0.12254299182E+02  0.62500000764E+02  0.10000005752E+02 0.  0.
    3000022    2    3    3    0    0  0.83762712118E+01 -0.14678884399E+02  0.73691343817E+01  0.18439040374E+02  0.25000355024E+00 0.  0.
    1000022    2    1    0    0    0 -0.22625651498E+02  0.56072827879E+02 -0.12254299182E+02  0.62499999236E+02  0.99999961973E+01 0.  0.
    3000022    2    5    5    0    0 -0.16458557561E+02  0.39812629452E+02 -0.41279631532E+01  0.43278541492E+02  0.24998611594E+00 0.  0.
        -13    1    4    4    0    0  0.49306983223E+01 -0.86905159444E+01  0.44208307170E+01  0.10926647361E+02  0.10500000000E+00 0.  1.
         13    1    4    4    0    0  0.34455728894E+01 -0.59883684543E+01  0.29483036646E+01  0.75123930129E+01  0.10500000000E+00 0. -1.
    3000001    1    5    5    0    0 -0.61670939370E+01  0.16260198427E+02 -0.81263360289E+01  0.19221457743E+02  0.10000000000E+01 0. -1.
        -13    1    6    6    0    0 -0.11624759062E+02  0.28011756587E+02 -0.28888185462E+01  0.30465551496E+02  0.10500000000E+00 0.  1.
         13    1    6    6    0    0 -0.48337984984E+01  0.11800872865E+02 -0.12391446070E+01  0.12812989997E+02  0.10500000000E+00 0. -1.
</event>
<event>
11    0  0.3510903E-009  0.9118800E+02  0.7816531E-02  0.1126479E+00
         25   -1    0    0    0    0  0.00000000000E+00  0.00000000000E+00  0.99999998245E-14  0.12500000000E+03  0.12500000000E+03 0.  0.
    3000001    1    3    3    0    0 -0.45671466096E+01  0.99271446252E+01  0.15120957277E+02  0.18682889968E+02  0.10000000000E+01 0. -1.
    1000022    2    1    0    0    0 -0.16935278574E+02  0.19304354818E+02  0.56096240973E+02  0.62499999994E+02  0.99999986362E+01 0.  0.
    3000022    2    3    3    0    0 -0.12368131965E+02  0.93772101927E+01  0.40975283695E+02  0.43817110027E+02  0.24999578199E+00 0.  0.
    1000022    2    1    0    0    0  0.16935278574E+02 -0.19304354818E+02 -0.56096240973E+02  0.62500000006E+02  0.99999987065E+01 0.  0.
    3000022    2    5    5    0    0  0.70570859598E+01 -0.35652738905E+01 -0.97374971992E+01  0.12545716085E+02  0.25000045132E+00 0.  0.
        -13    1    4    4    0    0 -0.83365748452E+01  0.63349459426E+01  0.27782822423E+02  0.29690508030E+02  0.10500000000E+00 0.  1.
         13    1    4    4    0    0 -0.40315571194E+01  0.30422642501E+01  0.13192461272E+02  0.14126601997E+02  0.10500000000E+00 0. -1.
    3000001    1    5    5    0    0  0.98781926144E+01 -0.15739080927E+02 -0.46358743773E+02  0.49954283921E+02  0.10000000000E+01 0.  1.
        -13    1    6    6    0    0  0.37300715197E+01 -0.18326886397E+01 -0.50397330220E+01  0.65331550667E+01  0.10500000000E+00 0. -1.
         13    1    6    6    0    0  0.33270144400E+01 -0.17325852508E+01 -0.46977641771E+01  0.60125610184E+01  0.10500000000E+00 0.  1.
</event>
<event>
11    0  0.3510903E-009  0.9118800E+02  0.7816531E-02  0.1126479E+00
         25   -1    0    0    0    0  0.00000000000E+00  0.00000000000E+00  0.99999998245E-14  0.12500000000E+03  0.12500000000E+03 0.  0.
    3000001    1    3    3    0    0  0.48411613902E+02 -0.85428154095E+01 -0.17049068975E+01  0.49199296369E+02  0.10000000000E+01 0. -1.
    1000022    2    1    0    0    0  0.61190853748E+02 -0.63447666890E+01 -0.46554728094E+01  0.62500000293E+02  0.99999981396E+01 0.  0.
    3000022    2    3    3    0    0  0.12779239846E+02  0.21980487206E+01 -0.29505659120E+01  0.13300703924E+02  0.24999288097E+00 0.  0.
    1000022    2    1    0    0    0 -0.61190853748E+02  0.63447666890E+01  0.46554728094E+01  0.62499999707E+02  0.99999944813E+01 0.  0.
    3000022    2    5    5    0    0 -0.21290782774E+02  0.68821257904E+01  0.69292000735E+00  0.22387579645E+02  0.24999544097E+00 0.  0.
        -13    1    4    4    0    0  0.94255888053E+01  0.15878519941E+01 -0.21769799660E+01  0.98037373003E+01  0.10500000000E+00 0.  1.
         13    1    4    4    0    0  0.33536510408E+01  0.61019672645E+00 -0.77358594596E+00  0.34969666232E+01  0.10500000000E+00 0. -1.
    3000001    1    5    5    0    0 -0.39900070974E+02 -0.53735910144E+00  0.39625528021E+01  0.40112420062E+02  0.10000000000E+01 0. -1.
        -13    1    6    6    0    0 -0.97402892168E+01  0.32165785152E+01  0.30048856790E+00  0.10262598587E+02  0.10500000000E+00 0.  1.
         13    1    6    6    0    0 -0.11550493557E+02  0.36655472752E+01  0.39243143945E+00  0.12124981059E+02  0.10500000000E+00 0. -1.
</event>
<event>
11    0  0.3510903E-009  0.9118800E+02  0.7816531E-02  0.1126479E+00
         25   -1    0    0    0    0  0.00000000000E+00  0.00000000000E+00  0.99999998245E-14  0.12500000000E+03  0.12500000000E+03 0.  0.
    3000001    1    3    3    0    0 -0.27201850727E+02 -0.15569389598E+02 -0.20218190375E+02  0.37311148434E+02  0.10000000000E+01 0.  1.
    1000022    2    1    0    0    0 -0.42257420702E+02 -0.21312569022E+02 -0.39576947145E+02  0.62500000347E+02  0.10000004767E+02 0.  0.
    3000022    2    3    3    0    0 -0.15055569975E+02 -0.57431794239E+01 -0.19358756770E+02  0.25188851913E+02  0.24999968242E+00 0.  0.
    1000022    2    1    0    0    0  0.42257420702E+02  0.21312569022E+02  0.39576947145E+02  0.62499999653E+02  0.10000000428E+02 0.  0.
    3000022    2    5    5    0    0  0.26257964541E+02  0.92816807544E+01  0.18624748524E+02  0.33504836315E+02  0.24999884186E+00 0.  0.
        -13    1    4    4    0    0 -0.53563555227E+01 -0.20493944214E+01 -0.69799822551E+01  0.90344750407E+01  0.10500000000E+00 0.  1.
         13    1    4    4    0    0 -0.96992144528E+01 -0.36937850025E+01 -0.12378774515E+02  0.16154376872E+02  0.10500000000E+00 0. -1.
    3000001    1    5    5    0    0  0.15999456161E+02  0.12030888267E+02  0.20952198621E+02  0.28995163338E+02  0.10000000000E+01 0. -1.
        -13    1    6    6    0    0  0.87593398248E+01  0.31515678714E+01  0.62409451960E+01  0.11207980913E+02  0.10500000000E+00 0. -1.
         13    1    6    6    0    0  0.17498624716E+02  0.61301128830E+01  0.12383803328E+02  0.22296855401E+02  0.10500000000E+00 0.  1.
</event>
<event>
11    0  0.3510903E-009  0.9118800E+02  0.7816531E-02  0.1126479E+00
         25   -1    0    0    0    0  0.00000000000E+00  0.00000000000E+00  0.99999998245E-14  0.12500000000E+03  0.12500000000E+03 0.  0.
    3000001    1    3    3    0    0  0.17543802914E+02 -0.88929214459E+01 -0.26438115849E+01  0.19871054633E+02  0.10000000000E+01 0. -1.
    1000022    2    1    0    0    0  0.47682025519E+02 -0.39038610459E+02 -0.29429844350E+01  0.62500000561E+02  0.10000012433E+02 0.  0.
    3000022    2    3    3    0    0  0.30138222605E+02 -0.30145689013E+02 -0.29917285011E+00  0.42628945929E+02  0.24999746972E+00 0.  0.
    1000022    2    1    0    0    0 -0.47682025519E+02  0.39038610459E+02  0.29429844350E+01  0.62499999439E+02  0.10000005416E+02 0.  0.
    3000022    2    5    5    0    0 -0.98019486412E+01  0.49171677786E+01  0.34719108941E+01  0.11505364054E+02  0.25000125261E+00 0.  0.
        -13    1    4    4    0    0  0.10223997087E+02 -0.10156580592E+02 -0.12384394322E+00  0.14412238135E+02  0.10500000000E+00 0. -1.
         13    1    4    4    0    0  0.19914225518E+02 -0.19989108421E+02 -0.17532890690E+00  0.28216707793E+02  0.10500000000E+00 0.  1.
    3000001    1    5    5    0    0 -0.37880076877E+02  0.34121442681E+02 -0.52892645913E+00  0.50994635385E+02  0.10000000000E+01 0. -1.
        -13    1    6    6    0    0 -0.48247343568E+01  0.23548011154E+01  0.16639139172E+01  0.56216353876E+01  0.10500000000E+00 0. -1.
         13    1    6    6    0    0 -0.49772142843E+01  0.25623666632E+01  0.18079969769E+01  0.58837286662E+01  0.10500000000E+00 0.  1.
</event>
<event>
11    0  0.3510903E-009  0.9118800E+02  0.7816531E-02  0.1126479E+00
         25   -1    0    0    0    0  0.00000000000E+00  0.00000000000E+00  0.99999998245E-14  0.12500000000E+03  0.12500000000E+03 0.  0.
    3000001    1    3    3    0    0 -0.22952559703E+02  0.19753713962E+01  0.24622313287E+02  0.33733965090E+02  0.10000000000E+01 0. -1.
    1000022    2    1    0    0    0 -0.42639361754E+02 -0.53804129227E+01  0.44262692705E+02  0.62499999575E+02  0.99999983712E+01 0.  0.
    3000022    2    3    3    0    0 -0.19686802051E+02 -0.73557843189E+01  0.19640379418E+02  0.28766034485E+02  0.24999681581E+00 0.  0.
    1000022    2    1    0    0    0  0.42639361754E+02  0.53804129227E+01 -0.44262692705E+02  0.62500000425E+02  0.10000003683E+02 0.  0.
    3000022    2    5    5    0    0  0.29275844625E+02 -0.67842061054E+00 -0.27124920317E+02  0.39916902846E+02  0.24999522736E+00 0.  0.
        -13    1    4    4    0    0 -0.55027279241E+01 -0.20805180375E+01  0.55426610338E+01  0.80833585994E+01  0.10500000000E+00 0.  1.
         13    1    4    4    0    0 -0.14184074127E+02 -0.52752662813E+01  0.14097718384E+02  0.20682675886E+02  0.10500000000E+00 0. -1.
    3000001    1    5    5    0    0  0.13363517129E+02  0.60588335332E+01 -0.17137772387E+02  0.22583097579E+02  0.10000000000E+01 0. -1.
        -13    1    6    6    0    0  0.12680880791E+02 -0.32487214231E+00 -0.11829001236E+02  0.17344929368E+02  0.10500000000E+00 0. -1.
         13    1    6    6    0    0  0.16594963833E+02 -0.35354846823E+00 -0.15295919081E+02  0.22571973478E+02  0.10500000000E+00 0.  1.
</event>
<event>
11    0  0.3510903E-009  0.9118800E+02  0.7816531E-02  0.1126479E+00
         25   -1    0    0    0    0  0.00000000000E+00  0.00000000000E+00  0.99999998245E-14  0.12500000000E+03  0.12500000000E+03 0.  0.
    3000001    1    3    3    0    0 -0.18113835708E+01 -0.16398582358E+01  0.28340869695E+01  0.38732795438E+01  0.10000000000E+01 0. -1.
    1000022    2    1    0    0    0 -0.24573978007E+01 -0.86451217099E+01  0.61036653674E+02  0.62499999749E+02  0.99999971790E+01 0.  0.
    3000022    2    3    3    0    0 -0.64601422988E+00 -0.70052634741E+01  0.58202566705E+02  0.58626720205E+02  0.25000059287E+00 0.  0.
    1000022    2    1    0    0    0  0.24573978007E+01  0.86451217099E+01 -0.61036653674E+02  0.62500000251E+02  0.10000000316E+02 0.  0.
    3000022    2    5    5    0    0 -0.33545618406E+01  0.58462134742E+01 -0.26014604320E+02  0.26874774594E+02  0.25014875620E+00 0.  0.
        -13    1    4    4    0    0 -0.23003454874E+00 -0.22189661123E+01  0.18108488327E+02  0.18245687188E+02  0.10500000000E+00 0. -1.
         13    1    4    4    0    0 -0.41597968114E+00 -0.47862973618E+01  0.40094078378E+02  0.40381033017E+02  0.10500000000E+00 0.  1.
    3000001    1    5    5    0    0  0.58119596413E+01  0.27989082357E+01 -0.35022049354E+02  0.35625225657E+02  0.10000000000E+01 0.  1.
        -13    1    6    6    0    0 -0.10676985158E+01  0.19044549111E+01 -0.86198264518E+01  0.88926577404E+01  0.10500000000E+00 0. -1.
         13    1    6    6    0    0 -0.22868633248E+01  0.39417585632E+01 -0.17394777868E+02  0.17982116853E+02  0.10500000000E+00 0.  1.
</event>
<event>
11    0  0.3510903E-009  0.9118800E+02  0.7816531E-02  0.1126479E+00
         25   -1    0    0    0    0  0.00000000000E+00  0.00000000000E+00  0.99999998245E-14  0.12500000000E+03  0.12500000000E+03 0.  0.
    3000001    1    3    3    0    0  0.25209035301E+02  0.39220010587E+02  0.13946183895E+02  0.48674436170E+02  0.10000000000E+01 0.  1.
    1000022    2    1    0    0    0  0.36218686144E+02  0.46750141721E+02  0.17575005372E+02  0.62499997091E+02  0.99999922816E+01 0.  0.
    3000022    2    3    3    0    0  0.11009650843E+02  0.75301311343E+01  0.36288214767E+01  0.13825560921E+02  0.25000577022E+00 0.  0.
    1000022    2    1    0    0    0 -0.36218686144E+02 -0.46750141721E+02 -0.17575005372E+02  0.62500002909E+02  0.10000028638E+02 0.  0.
    3000022    2    5    5    0    0 -0.11263523976E+02 -0.18589552962E+02 -0.22264709391E+01  0.21850816110E+02  0.25008030509E+00 0.  0.
        -13    1    4    4    0    0  0.46407178034E+01  0.31156159405E+01  0.14759749678E+01  0.57821147969E+01  0.10500000000E+00 0.  1.
         13    1    4    4    0    0  0.63689330400E+01  0.44145151938E+01  0.21528465089E+01  0.80434461244E+01  0.10500000000E+00 0. -1.
    3000001    1    5    5    0    0 -0.24955162168E+02 -0.28160588759E+02 -0.15348534433E+02  0.40649186798E+02  0.10000000000E+01 0.  1.
        -13    1    6    6    0    0 -0.71479899930E+01 -0.11840411516E+02 -0.13621307054E+01  0.13898040541E+02  0.10500000000E+00 0. -1.
         13    1    6    6    0    0 -0.41155339827E+01 -0.67491414462E+01 -0.86434023372E+00  0.79527755698E+01  0.10500000000E+00 0.  1.
</event>
<event>
11    0  0.3510903E-009  0.9118800E+02  0.7816531E-02  0.1126479E+00
         25   -1    0    0    0    0  0.00000000000E+00  0.00000000000E+00  0.99999998245E-14  0.12500000000E+03  0.12500000000E+03 0.  0.
    3000001    1    3    3    0    0  0.36840401226E+02 -0.34049319369E+02  0.20337798249E+02  0.54140533333E+02  0.10000000000E+01 0. -1.
    1000022    2    1    0    0    0  0.43003107627E+02 -0.36074956501E+02  0.25604300007E+02  0.62500000974E+02  0.10000009545E+02 0.  0.
    3000022    2    3    3    0    0  0.61627064006E+01 -0.20256371321E+01  0.52665017580E+01  0.83594676416E+01  0.25000502650E+00 0.  0.
    1000022    2    1    0    0    0 -0.43003107627E+02  0.36074956501E+02 -0.25604300007E+02  0.62499999026E+02  0.99999973638E+01 0.  0.
    3000022    2    5    5    0    0 -0.42778291527E+02  0.35537883899E+02 -0.25831275271E+02  0.61320801405E+02  0.24996963919E+00 0.  0.
        -13    1    4    4    0    0  0.27338823126E+01 -0.85070213317E+00  0.22626752792E+01  0.36508260760E+01  0.10500000000E+00 0.  1.
         13    1    4    4    0    0  0.34288240880E+01 -0.11749349989E+01  0.30038264788E+01  0.47086415656E+01  0.10500000000E+00 0. -1.
    3000001    1    5    5    0    0 -0.22481609925E+00  0.53707260164E+00  0.22697526376E+00  0.11791976205E+01  0.10000000000E+01 0.  1.
        -13    1    6    6    0    0 -0.14101146684E+02  0.11665055167E+02 -0.85404193770E+01  0.20195683647E+02  0.10500000000E+00 0. -1.
         13    1    6    6    0    0 -0.28677144843E+02  0.23872828732E+02 -0.17290855894E+02  0.41125117758E+02  0.10500000000E+00 0.  1.
</event>
<event>
11    0  0.3510903E-009  0.9118800E+02  0.7816531E-02  0.1126479E+00
         25   -1    0    0    0    0  0.00000000000E+00  0.00000000000E+00  0.99999998245E-14  0.12500000000E+03  0.12500000000E+03 0.  0.
    3000001    1    3    3    0    0  0.64240123989E+01  0.12880666229E+02 -0.24451440572E+01  0.14634145935E+02  0.10000000000E+01 0.  1.
    1000022    2    1    0    0    0  0.35366192495E+02  0.45127048097E+02 -0.22782263918E+02  0.62499998874E+02  0.10000013428E+02 0.  0.
    3000022    2    3    3    0    0  0.28942180096E+02  0.32246381868E+02 -0.20337119861E+02  0.47865852939E+02  0.25000213240E+00 0.  0.
    1000022    2    1    0    0    0 -0.35366192495E+02 -0.45127048097E+02  0.22782263918E+02  0.62500001126E+02  0.10000027498E+02 0.  0.
    3000022    2    5    5    0    0 -0.26335749364E+02 -0.38089513540E+02  0.21086809079E+02  0.50883187325E+02  0.24999774348E+00 0.  0.
        -13    1    4    4    0    0  0.12473825014E+02  0.13996239904E+02 -0.87976104774E+01  0.20709901425E+02  0.10500000000E+00 0.  1.
         13    1    4    4    0    0  0.16468355083E+02  0.18250141963E+02 -0.11539509383E+02  0.27155951514E+02  0.10500000000E+00 0. -1.
    3000001    1    5    5    0    0 -0.90304431312E+01 -0.70375345561E+01  0.16954548386E+01  0.11616813801E+02  0.10000000000E+01 0.  1.
        -13    1    6    6    0    0 -0.13383825955E+02 -0.19306670657E+02  0.10764930639E+02  0.25841228409E+02  0.10500000000E+00 0.  1.
         13    1    6    6    0    0 -0.12951923409E+02 -0.18782842884E+02  0.10321878441E+02  0.25041958916E+02  0.10500000000E+00 0. -1.
</event>
<event>
11    0  0.3510903E-009  0.9118800E+02  0.7816531E-02  0.1126479E+00
         25   -1    0    0    0    0  0.00000000000E+00  0.00000000000E+00  0.99999998245E-14  0.12500000000E+03  0.12500000000E+03 0.  0.
    3000001    1    3    3    0    0  0.23111695412E+02  0.16047560847E+01  0.11412405040E+02  0.25845090360E+02  0.10000000000E+01 0. -1.
    1000022    2    1    0    0    0  0.50414324898E+02  0.12617962083E+02  0.33248053097E+02  0.62499998764E+02  0.99999844396E+01 0.  0.
    3000022    2    3    3    0    0  0.27302629486E+02  0.11013205998E+02  0.21835648057E+02  0.36654908405E+02  0.25000178390E+00 0.  0.
    1000022    2    1    0    0    0 -0.50414324898E+02 -0.12617962083E+02 -0.33248053097E+02  0.62500001236E+02  0.99999998848E+01 0.  0.
    3000022    2    5    5    0    0 -0.20243758598E+02 -0.79963785656E+01 -0.18591437579E+02  0.28626139875E+02  0.25000106060E+00 0.  0.
        -13    1    4    4    0    0  0.98346911332E+01  0.39598711796E+01  0.79355253527E+01  0.13243312164E+02  0.10500000000E+00 0. -1.
         13    1    4    4    0    0  0.17467938353E+02  0.70533348189E+01  0.13900122704E+02  0.23411596241E+02  0.10500000000E+00 0.  1.
    3000001    1    5    5    0    0 -0.30170566300E+02 -0.46215835175E+01 -0.14656615517E+02  0.33873861361E+02  0.10000000000E+01 0.  1.
        -13    1    6    6    0    0 -0.13033151141E+02 -0.51321616946E+01 -0.11890879624E+02  0.18374062032E+02  0.10500000000E+00 0. -1.
         13    1    6    6    0    0 -0.72106074570E+01 -0.28642168710E+01 -0.67005579555E+01  0.10252077843E+02  0.10500000000E+00 0.  1.
</event>
<event>
11    0  0.3510903E-009  0.9118800E+02  0.7816531E-02  0.1126479E+00
         25   -1    0    0    0    0  0.00000000000E+00  0.00000000000E+00  0.99999998245E-14  0.12500000000E+03  0.12500000000E+03 0.  0.
    3000001    1    3    3    0    0  0.15992516769E+02  0.29957013249E+02  0.11732930221E+01  0.33993526617E+02  0.10000000000E+01 0.  1.
    1000022    2    1    0    0    0  0.21535908357E+02  0.57796111810E+02 -0.14366692377E+01  0.62499999581E+02  0.10000001998E+02 0.  0.
    3000022    2    3    3    0    0  0.55433915879E+01  0.27839098562E+02 -0.26099622598E+01  0.28506472963E+02  0.24999756621E+00 0.  0.
    1000022    2    1    0    0    0 -0.21535908357E+02 -0.57796111810E+02  0.14366692377E+01  0.62500000419E+02  0.10000007237E+02 0.  0.
    3000022    2    5    5    0    0 -0.69094257480E+01 -0.32046094644E+02 -0.71192588078E+00  0.32791182897E+02  0.24998245541E+00 0.  0.
        -13    1    4    4    0    0  0.30349289100E+01  0.15579126508E+02 -0.14534901933E+01  0.15938746343E+02  0.10500000000E+00 0.  1.
         13    1    4    4    0    0  0.25084626779E+01  0.12259972054E+02 -0.11564720665E+01  0.12567726620E+02  0.10500000000E+00 0. -1.
    3000001    1    5    5    0    0 -0.14626482609E+02 -0.25750017166E+02  0.21485951185E+01  0.29708817522E+02  0.10000000000E+01 0.  1.
        -13    1    6    6    0    0 -0.19963870042E+01 -0.94547266100E+01 -0.19345148616E+00  0.96657056037E+01  0.10500000000E+00 0. -1.
         13    1    6    6    0    0 -0.49130387438E+01 -0.22591368034E+02 -0.51847439462E+00  0.23125477293E+02  0.10500000000E+00 0.  1.
</event>
<event>
11    0  0.3510903E-009  0.9118800E+02  0.7816531E-02  0.1126479E+00
         25   -1    0    0    0    0  0.00000000000E+00  0.00000000000E+00  0.99999998245E-14  0.12500000000E+03  0.12500000000E+03 0.  0.
    3000001    1    3    3    0    0 -0.51316923645E+02 -0.10305533674E+00 -0.27033982701E+02  0.58010977353E+02  0.10000000000E+01 0. -1.
    1000022    2    1    0    0    0 -0.53325816487E+02 -0.48820341229E+00 -0.31022070175E+02  0.62500001074E+02  0.10000012488E+02 0.  0.
    3000022    2    3    3    0    0 -0.20088928412E+01 -0.38514807555E+00 -0.39880874738E+01  0.44890237202E+01  0.25000554838E+00 0.  0.
    1000022    2    1    0    0    0  0.53325816487E+02  0.48820341229E+00  0.31022070175E+02  0.62499998926E+02  0.99999990683E+01 0.  0.
    3000022    2    5    5    0    0  0.40880942103E+02 -0.37816320254E+01  0.23885842085E+02  0.47498927484E+02  0.24998396544E+00 0.  0.
        -13    1    4    4    0    0 -0.72431323446E+00 -0.14689913609E+00 -0.15751615590E+01  0.17430914935E+01  0.10500000000E+00 0.  1.
         13    1    4    4    0    0 -0.12845796067E+01 -0.23824893946E+00 -0.24129259148E+01  0.27459322267E+01  0.10500000000E+00 0. -1.
    3000001    1    5    5    0    0  0.12444874383E+02  0.42698354377E+01  0.71362280901E+01  0.15001071443E+02  0.10000000000E+01 0. -1.
        -13    1    6    6    0    0  0.29952414917E+02 -0.27377797953E+01  0.17512371713E+02  0.34804263900E+02  0.10500000000E+00 0. -1.
         13    1    6    6    0    0  0.10928527186E+02 -0.10438522301E+01  0.63734703714E+01  0.12694663584E+02  0.10500000000E+00 0.  1.
</event>
<event>
11    0  0.3510903E-009  0.9118800E+02  0.7816531E-02  0.1126479E+00
         25   -1    0    0    0    0  0.00000000000E+00  0.00000000000E+00  0.99999998245E-14  0.12500000000E+03  0.12500000000E+03 0.  0.
    3000001    1    3    3    0    0  0.44140579065E+02  0.87408425359E+01 -0.22707472082E+02  0.50412521627E+02  0.10000000000E+01 0.  1.
    1000022    2    1    0    0    0  0.55471820268E+02  0.12804248364E+02 -0.23773478336E+02  0.62500000643E+02  0.10000009409E+02 0.  0.
    3000022    2    3    3    0    0  0.11331241203E+02  0.40634058283E+01 -0.10660062535E+01  0.12087479016E+02  0.24997100414E+00 0.  0.
    1000022    2    1    0    0    0 -0.55471820268E+02 -0.12804248364E+02  0.23773478336E+02  0.62499999357E+02  0.10000001368E+02 0.  0.
    3000022    2    5    5    0    0 -0.47489012673E+02 -0.14254673382E+02  0.21248124346E+02  0.53943927676E+02  0.25001397287E+00 0.  0.
        -13    1    4    4    0    0  0.35052685347E+01  0.12419600937E+01 -0.28322612071E+00  0.37310339599E+01  0.10500000000E+00 0.  1.
         13    1    4    4    0    0  0.78259726682E+01  0.28214457346E+01 -0.78278013278E+00  0.83564450560E+01  0.10500000000E+00 0. -1.
    3000001    1    5    5    0    0 -0.79828075949E+01  0.14504250179E+01  0.25253539900E+01  0.85560716806E+01  0.10000000000E+01 0.  1.
        -13    1    6    6    0    0 -0.32333264444E+02 -0.96993251193E+01  0.14520763609E+02  0.36747523701E+02  0.10500000000E+00 0.  1.
         13    1    6    6    0    0 -0.15155748230E+02 -0.45553482628E+01  0.67273607368E+01  0.17196403975E+02  0.10500000000E+00 0. -1.
</event>
<event>
11    0  0.3510903E-009  0.9118800E+02  0.7816531E-02  0.1126479E+00
         25   -1    0    0    0    0  0.00000000000E+00  0.00000000000E+00  0.99999998245E-14  0.12500000000E+03  0.12500000000E+03 0.  0.
    3000001    1    3    3    0    0  0.36415081186E+01 -0.32966952492E+02  0.77893865334E+01  0.34084528463E+02  0.10000000000E+01 0. -1.
    1000022    2    1    0    0    0  0.10873272080E+02 -0.56825060468E+02  0.21422757118E+02  0.62500000467E+02  0.99999996414E+01 0.  0.
    3000022    2    3    3    0    0  0.72317639619E+01 -0.23858107976E+02  0.13633370585E+02  0.28415472004E+02  0.25005893822E+00 0.  0.
    1000022    2    1    0    0    0 -0.10873272080E+02  0.56825060468E+02 -0.21422757118E+02  0.62499999533E+02  0.99999938078E+01 0.  0.
    3000022    2    5    5    0    0 -0.52171253183E+00  0.18351440332E+02 -0.10606362284E+02  0.21203890411E+02  0.25000283166E+00 0.  0.
        -13    1    4    4    0    0  0.25624339446E+01 -0.86539999108E+01  0.49285988013E+01  0.10283962919E+02  0.10500000000E+00 0.  1.
         13    1    4    4    0    0  0.46693300173E+01 -0.15204108066E+02  0.87047717836E+01  0.18131509085E+02  0.10500000000E+00 0. -1.
    3000001    1    5    5    0    0 -0.10351559549E+02  0.38473620136E+02 -0.10816394834E+02  0.41296109122E+02  0.10000000000E+01 0.  1.
        -13    1    6    6    0    0 -0.30900299801E+00  0.11004013897E+02 -0.62868749713E+01  0.12677524467E+02  0.10500000000E+00 0.  1.
         13    1    6    6    0    0 -0.21270953382E+00  0.73474264355E+01 -0.43194873124E+01  0.85263659441E+01  0.10500000000E+00 0. -1.
</event>
<event>
11    0  0.3510903E-009  0.9118800E+02  0.7816531E-02  0.1126479E+00
         25   -1    0    0    0    0  0.00000000000E+00  0.00000000000E+00  0.99999998245E-14  0.12500000000E+03  0.12500000000E+03 0.  0.
    3000001    1    3    3    0    0  0.12617770177E+02 -0.15918237134E+01 -0.27606245275E+01  0.13052320665E+02  0.10000000000E+01 0.  1.
    1000022    2    1    0    0    0  0.54325553582E+02  0.54819334513E+00 -0.29234978650E+02  0.62499997994E+02  0.99999742315E+01 0.  0.
    3000022    2    3    3    0    0  0.41707783405E+02  0.21400170586E+01 -0.26474354123E+02  0.49447677328E+02  0.24999479303E+00 0.  0.
    1000022    2    1    0    0    0 -0.54325553582E+02 -0.54819334513E+00  0.29234978650E+02  0.62500002006E+02  0.99999993124E+01 0.  0.
    3000022    2    5    5    0    0 -0.24913613897E+02 -0.19321218340E+01  0.82027749417E+01  0.26301506915E+02  0.24999410732E+00 0.  0.
        -13    1    4    4    0    0  0.18130910437E+02  0.93218438957E+00 -0.11586770898E+02  0.21537482812E+02  0.10500000000E+00 0.  1.
         13    1    4    4    0    0  0.23576872968E+02  0.12078326690E+01 -0.14887583225E+02  0.27910194517E+02  0.10500000000E+00 0. -1.
    3000001    1    5    5    0    0 -0.29411939685E+02  0.13839284889E+01  0.21032203708E+02  0.36198495092E+02  0.10000000000E+01 0.  1.
        -13    1    6    6    0    0 -0.12307278751E+02 -0.97173778687E+00  0.39835783038E+01  0.12972790975E+02  0.10500000000E+00 0.  1.
         13    1    6    6    0    0 -0.12606335146E+02 -0.96038404712E+00  0.42191966378E+01  0.13328715940E+02  0.10500000000E+00 0. -1.
</event>
<event>
11    0  0.3510903E-009  0.9118800E+02  0.7816531E-02  0.1126479E+00
         25   -1    0    0    0    0  0.00000000000E+00  0.00000000000E+00  0.99999998245E-14  0.12500000000E+03  0.12500000000E+03 0.  0.
    3000001    1    3    3    0    0  0.54658626293E+02 -0.18756780327E+02  0.10857049139E+02  0.58806953266E+02  0.10000000000E+01 0.  1.
    1000022    2    1    0    0    0  0.57053040555E+02 -0.21342743627E+02  0.97820413122E+01  0.62499997001E+02  0.99999575370E+01 0.  0.
    3000022    2    3    3    0    0  0.23944142622E+01 -0.25859633009E+01 -0.10750078267E+01  0.36930437347E+01  0.25000869196E+00 0.  0.
    1000022    2    1    0    0    0 -0.57053040555E+02  0.21342743627E+02 -0.97820413122E+01  0.62500002999E+02  0.99999950299E+01 0.  0.
    3000022    2    5    5    0    0 -0.18354161499E+02  0.95650648867E+01  0.66562131961E+00  0.20709207228E+02  0.25000335056E+00 0.  0.
        -13    1    4    4    0    0  0.81280178971E+00 -0.89275029422E+00 -0.42594524625E+00  0.12845638131E+01  0.10500000000E+00 0.  1.
         13    1    4    4    0    0  0.15816124725E+01 -0.16932130067E+01 -0.64906258047E+00  0.24084799216E+01  0.10500000000E+00 0. -1.
    3000001    1    5    5    0    0 -0.38698879056E+02  0.11777678741E+02 -0.10447662632E+02  0.41790795771E+02  0.10000000000E+01 0.  1.
        -13    1    6    6    0    0 -0.12043544810E+02  0.63001080938E+01  0.38586787617E+00  0.13597729685E+02  0.10500000000E+00 0.  1.
         13    1    6    6    0    0 -0.63106166892E+01  0.32649567929E+01  0.27975344344E+00  0.71114775431E+01  0.10500000000E+00 0. -1.
</event>
<event>
11    0  0.3510903E-009  0.9118800E+02  0.7816531E-02  0.1126479E+00
         25   -1    0    0    0    0  0.00000000000E+00  0.00000000000E+00  0.99999998245E-14  0.12500000000E+03  0.12500000000E+03 0.  0.
    3000001    1    3    3    0    0  0.96492092521E+01  0.81647033063E+01 -0.51628751157E+01  0.13690321352E+02  0.10000000000E+01 0.  1.
    1000022    2    1    0    0    0  0.37795456134E+02  0.47774430958E+02 -0.97651022540E+01  0.62500000001E+02  0.10000001015E+02 0.  0.
    3000022    2    3    3    0    0  0.28146246882E+02  0.39609727652E+02 -0.46022271383E+01  0.48809678648E+02  0.24999384572E+00 0.  0.
    1000022    2    1    0    0    0 -0.37795456134E+02 -0.47774430958E+02  0.97651022540E+01  0.62499999999E+02  0.10000001007E+02 0.  0.
    3000022    2    5    5    0    0 -0.76834233901E+01 -0.59224438917E+01  0.43930685934E+01  0.10652318440E+02  0.24999969847E+00 0.  0.
        -13    1    4    4    0    0  0.12685278810E+02  0.17962905156E+02 -0.21005941747E+01  0.22090852881E+02  0.10500000000E+00 0.  1.
         13    1    4    4    0    0  0.15460968072E+02  0.21646822497E+02 -0.25016329636E+01  0.26718825768E+02  0.10500000000E+00 0. -1.
    3000001    1    5    5    0    0 -0.30112032744E+02 -0.41851987067E+02  0.53720336606E+01  0.51847681559E+02  0.10000000000E+01 0.  1.
        -13    1    6    6    0    0 -0.45545295061E+01 -0.34329227479E+01  0.25625238980E+01  0.62534991279E+01  0.10500000000E+00 0.  1.
         13    1    6    6    0    0 -0.31288938840E+01 -0.24895211438E+01  0.18305446954E+01  0.43988193126E+01  0.10500000000E+00 0. -1.
</event>
<event>
11    0  0.3510903E-009  0.9118800E+02  0.7816531E-02  0.1126479E+00
         25   -1    0    0    0    0  0.00000000000E+00  0.00000000000E+00  0.99999998245E-14  0.12500000000E+03  0.12500000000E+03 0.  0.
    3000001    1    3    3    0    0  0.21727146335E+01 -0.95200622731E+00 -0.13252156962E+01  0.28953758611E+01  0.10000000000E+01 0. -1.
    1000022    2    1    0    0    0  0.24481850978E+02 -0.24409508562E+01 -0.56576769143E+02  0.62499999669E+02  0.99999941808E+01 0.  0.
    3000022    2    3    3    0    0  0.22309136344E+02 -0.14889446289E+01 -0.55251553447E+02  0.59604623808E+02  0.25000098312E+00 0.  0.
    1000022    2    1    0    0    0 -0.24481850978E+02  0.24409508562E+01  0.56576769143E+02  0.62500000331E+02  0.99999983153E+01 0.  0.
    3000022    2    5    5    0    0 -0.22173788676E+02 -0.10747082087E+01  0.48472570619E+02  0.53314955749E+02  0.25000428668E+00 0.  0.
        -13    1    4    4    0    0  0.55885987378E+01 -0.34838236771E+00 -0.13811274774E+02  0.14903561387E+02  0.10500000000E+00 0. -1.
         13    1    4    4    0    0  0.16720537606E+02 -0.11405622612E+01 -0.41440278673E+02  0.44701062421E+02  0.10500000000E+00 0.  1.
    3000001    1    5    5    0    0 -0.23080623017E+01  0.35156590649E+01  0.81041985244E+01  0.91850445819E+01  0.10000000000E+01 0. -1.
        -13    1    6    6    0    0 -0.69845213575E+01 -0.35292864384E+00  0.15385073754E+02  0.16900284514E+02  0.10500000000E+00 0. -1.
         13    1    6    6    0    0 -0.15189267318E+02 -0.72177956481E+00  0.33087496865E+02  0.36414671235E+02  0.10500000000E+00 0.  1.
</event>
<event>
11    0  0.3510903E-009  0.9118800E+02  0.7816531E-02  0.1126479E+00
         25   -1    0    0    0    0  0.00000000000E+00  0.00000000000E+00  0.99999998245E-14  0.12500000000E+03  0.12500000000E+03 0.  0.
    3000001    1    3    3    0    0 -0.20013555675E+01  0.48986186026E+02 -0.20926359737E+02  0.53315704791E+02  0.10000000000E+01 0. -1.
    1000022    2    1    0    0    0 -0.43851089495E+01  0.55154329683E+02 -0.27295070497E+02  0.62499998711E+02  0.99999851085E+01 0.  0.
    3000022    2    3    3    0    0 -0.23837533821E+01  0.61681436572E+01 -0.63687107592E+01  0.91842939203E+01  0.25000343505E+00 0.  0.
    1000022    2    1    0    0    0  0.43851089495E+01 -0.55154329683E+02  0.27295070497E+02  0.62500001289E+02  0.10000001220E+02 0.  0.
    3000022    2    5    5    0    0 -0.68928924857E+00 -0.15026553718E+02  0.31087525233E+01  0.15362268016E+02  0.25000008368E+00 0.  0.
        -13    1    4    4    0    0 -0.15170864461E+01  0.39268388093E+01 -0.41344641439E+01  0.59013924692E+01  0.10500000000E+00 0. -1.
         13    1    4    4    0    0 -0.86666693600E+00  0.22413048479E+01 -0.22342466153E+01  0.32829014511E+01  0.10500000000E+00 0.  1.
    3000001    1    5    5    0    0  0.50743981981E+01 -0.40127775965E+02  0.24186317973E+02  0.47137733273E+02  0.10000000000E+01 0. -1.
        -13    1    6    6    0    0 -0.28818688199E+00 -0.68006530210E+01  0.14704923252E+01  0.69645750674E+01  0.10500000000E+00 0. -1.
         13    1    6    6    0    0 -0.40110236658E+00 -0.82259006973E+01  0.16382601981E+01  0.83976929491E+01  0.10500000000E+00 0.  1.
</event>
<event>
11    0  0.3510903E-009  0.9118800E+02  0.7816531E-02  0.1126479E+00
         25   -1    0    0    0    0  0.00000000000E+00  0.00000000000E+00  0.99999998245E-14  0.12500000000E+03  0.12500000000E+03 0.  0.
    3000001    1    3    3    0    0 -0.13888954540E+02  0.30671642274E+02 -0.16187514569E+01  0.33723479273E+02  0.10000000000E+01 0.  1.
    1000022    2    1    0    0    0 -0.24805783192E+02  0.56161013555E+02  0.60715315172E+01  0.62500000068E+02  0.10000009513E+02 0.  0.
    3000022    2    3    3    0    0 -0.10916828652E+02  0.25489371281E+02  0.76902829741E+01  0.28776520796E+02  0.25000146388E+00 0.  0.
    1000022    2    1    0    0    0  0.24805783192E+02 -0.56161013555E+02 -0.60715315172E+01  0.62499999932E+02  0.10000008657E+02 0.  0.
    3000022    2    5    5    0    0  0.22025322427E+01 -0.40563013392E+01 -0.32008421955E+01  0.56225101329E+01  0.25000119925E+00 0.  0.
        -13    1    4    4    0    0 -0.32117600504E+01  0.75535875278E+01  0.23172391103E+01  0.85295198725E+01  0.10500000000E+00 0.  1.
         13    1    4    4    0    0 -0.77050686018E+01  0.17935783754E+02  0.53730438638E+01  0.20247000923E+02  0.10500000000E+00 0. -1.
    3000001    1    5    5    0    0  0.22603250949E+02 -0.52104712216E+02 -0.28706893217E+01  0.56877489799E+02  0.10000000000E+01 0. -1.
        -13    1    6    6    0    0  0.13839523917E+01 -0.24317113943E+01 -0.19049514462E+01  0.33865040292E+01  0.10500000000E+00 0. -1.
         13    1    6    6    0    0  0.81857985103E+00 -0.16245899449E+01 -0.12958907493E+01  0.22360061037E+01  0.10500000000E+00 0.  1.
</event>
<event>
11    0  0.3510903E-009  0.9118800E+02  0.7816531E-02  0.1126479E+00
         25   -1    0    0    0    0  0.00000000000E+00  0.00000000000E+00  0.99999998245E-14  0.12500000000E+03  0.12500000000E+03 0.  0.
    3000001    1    3    3    0    0  0.46338513678E+01  0.10092783513E+02  0.33103468091E+01  0.11631648788E+02  0.10000000000E+01 0.  1.
    1000022    2    1    0    0    0  0.32593062431E+02  0.52374148134E+02 -0.94342378324E+00  0.62499992037E+02  0.99999922413E+01 0.  0.
    3000022    2    3    3    0    0  0.27959211063E+02  0.42281364621E+02 -0.42537705923E+01  0.50868343249E+02  0.25000628867E+00 0.  0.
    1000022    2    1    0    0    0 -0.32593062431E+02 -0.52374148134E+02  0.94342378324E+00  0.62500007963E+02  0.10000091778E+02 0.  0.
    3000022    2    5    5    0    0 -0.22270302836E+02 -0.38680358508E+02 -0.34561873749E+01  0.44767669755E+02  0.25000288018E+00 0.  0.
        -13    1    4    4    0    0  0.14876401637E+02  0.22460149646E+02 -0.23252340235E+01  0.27040402845E+02  0.10500000000E+00 0.  1.
         13    1    4    4    0    0  0.13082809426E+02  0.19821214975E+02 -0.19285365688E+01  0.23827940403E+02  0.10500000000E+00 0. -1.
    3000001    1    5    5    0    0 -0.10322759595E+02 -0.13693789626E+02  0.43996111582E+01  0.17732338208E+02  0.10000000000E+01 0.  1.
        -13    1    6    6    0    0 -0.11486201009E+02 -0.19840678935E+02 -0.18155958123E+01  0.22997668738E+02  0.10500000000E+00 0.  1.
         13    1    6    6    0    0 -0.10784101827E+02 -0.18839679573E+02 -0.16405915626E+01  0.21770001017E+02  0.10500000000E+00 0. -1.
</event>
<event>
11    0  0.3510903E-009  0.9118800E+02  0.7816531E-02  0.1126479E+00
         25   -1    0    0    0    0  0.00000000000E+00  0.00000000000E+00  0.99999998245E-14  0.12500000000E+03  0.12500000000E+03 0.  0.
    3000001    1    3    3    0    0  0.31324752147E+02  0.76016947012E+01 -0.42539896189E+02  0.53382287579E+02  0.10000000000E+01 0. -1.
    1000022    2    1    0    0    0  0.39130507983E+02  0.98618897582E+01 -0.46666868011E+02  0.62500001247E+02  0.10000003062E+02 0.  0.
    3000022    2    3    3    0    0  0.78057558367E+01  0.22601950571E+01 -0.41269718220E+01  0.91177136678E+01  0.25000046206E+00 0.  0.
    1000022    2    1    0    0    0 -0.39130507983E+02 -0.98618897582E+01  0.46666868011E+02  0.62499998753E+02  0.99999874741E+01 0.  0.
    3000022    2    5    5    0    0 -0.27338449516E+02 -0.74604779038E+01  0.25460747765E+02  0.38096741640E+02  0.24998873605E+00 0.  0.
        -13    1    4    4    0    0  0.27254789005E+01  0.84754747123E+00 -0.14593994487E+01  0.32074045121E+01  0.10500000000E+00 0. -1.
         13    1    4    4    0    0  0.50802769361E+01  0.14126475858E+01 -0.26675723734E+01  0.59103091558E+01  0.10500000000E+00 0.  1.
    3000001    1    5    5    0    0 -0.11792058467E+02 -0.24014118544E+01  0.21206120247E+02  0.24403257113E+02  0.10000000000E+01 0.  1.
        -13    1    6    6    0    0 -0.13190149580E+02 -0.36658138850E+01  0.12329627787E+02  0.18424141330E+02  0.10500000000E+00 0.  1.
         13    1    6    6    0    0 -0.14148299936E+02 -0.37946640188E+01  0.13131119978E+02  0.19672600310E+02  0.10500000000E+00 0. -1.
</event>
<event>
11    0  0.3510903E-009  0.9118800E+02  0.7816531E-02  0.1126479E+00
         25   -1    0    0    0    0  0.00000000000E+00  0.00000000000E+00  0.99999998245E-14  0.12500000000E+03  0.12500000000E+03 0.  0.
    3000001    1    3    3    0    0 -0.23758245800E+02  0.28173077292E+02 -0.33645613234E+02  0.49911960665E+02  0.10000000000E+01 0. -1.
    1000022    2    1    0    0    0 -0.33328018623E+02  0.32061889682E+02 -0.40835383225E+02  0.62499998877E+02  0.99999870596E+01 0.  0.
    3000022    2    3    3    0    0 -0.95697728234E+01  0.38888123896E+01 -0.71897699917E+01  0.12588038212E+02  0.24999959852E+00 0.  0.
    1000022    2    1    0    0    0  0.33328018623E+02 -0.32061889682E+02  0.40835383225E+02  0.62500001123E+02  0.10000001092E+02 0.  0.
    3000022    2    5    5    0    0  0.17042092664E+02 -0.96288328064E+01  0.16900269349E+02  0.25861727399E+02  0.24999289146E+00 0.  0.
        -13    1    4    4    0    0 -0.32828129015E+01  0.13794423569E+01 -0.25232353628E+01  0.43654854780E+01  0.10500000000E+00 0. -1.
         13    1    4    4    0    0 -0.62869599219E+01  0.25093700327E+01 -0.46665346290E+01  0.82225527340E+01  0.10500000000E+00 0.  1.
    3000001    1    5    5    0    0  0.16285925960E+02 -0.22433056875E+02  0.23935113877E+02  0.36638273723E+02  0.10000000000E+01 0.  1.
        -13    1    6    6    0    0  0.10167218827E+02 -0.58167233444E+01  0.10121460485E+02  0.15481007606E+02  0.10500000000E+00 0. -1.
         13    1    6    6    0    0  0.68748738364E+01 -0.38121094620E+01  0.67788088638E+01  0.10380719793E+02  0.10500000000E+00 0.  1.
</event>
<event>
11    0  0.3510903E-009  0.9118800E+02  0.7816531E-02  0.1126479E+00
         25   -1    0    0    0    0  0.00000000000E+00  0.00000000000E+00  0.99999998245E-14  0.12500000000E+03  0.12500000000E+03 0.  0.
    3000001    1    3    3    0    0 -0.41207491015E+02 -0.13702856467E+02 -0.43006422125E+02  0.61125918685E+02  0.10000000000E+01 0.  1.
    1000022    2    1    0    0    0 -0.42492196179E+02 -0.13667521735E+02 -0.42589457933E+02  0.62499999323E+02  0.10000005092E+02 0.  0.
    3000022    2    3    3    0    0 -0.12847051644E+01  0.35334731428E-01  0.41696419175E+00  0.13740806384E+01  0.25004511768E+00 0.  0.
    1000022    2    1    0    0    0  0.42492196179E+02  0.13667521735E+02  0.42589457933E+02  0.62500000677E+02  0.10000013553E+02 0.  0.
    3000022    2    5    5    0    0  0.37647403540E+02  0.14626467272E+02  0.35318976331E+02  0.53654013169E+02  0.25000384435E+00 0.  0.
        -13    1    4    4    0    0 -0.52776055715E+00 -0.35143946397E-01  0.21485851596E+00  0.58047866846E+00  0.10500000000E+00 0.  1.
         13    1    4    4    0    0 -0.75694460728E+00  0.70478677825E-01  0.20210567579E+00  0.79360196994E+00  0.10500000000E+00 0. -1.
    3000001    1    5    5    0    0  0.48447926392E+01 -0.95894553680E+00  0.72704816022E+01  0.88459875078E+01  0.10000000000E+01 0.  1.
        -13    1    6    6    0    0  0.16614019878E+02  0.63912167281E+01  0.15605712842E+02  0.23673246632E+02  0.10500000000E+00 0. -1.
         13    1    6    6    0    0  0.21033383662E+02  0.82352505438E+01  0.19713263489E+02  0.29980766538E+02  0.10500000000E+00 0.  1.
</event>
<event>
11    0  0.3510903E-009  0.9118800E+02  0.7816531E-02  0.1126479E+00
         25   -1    0    0    0    0  0.00000000000E+00  0.00000000000E+00  0.99999998245E-14  0.12500000000E+03  0.12500000000E+03 0.  0.
    3000001    1    3    3    0    0 -0.25835035068E+01 -0.11498255334E+02  0.13005982909E+01  0.11898568065E+02  0.10000000000E+01 0.  1.
    1000022    2    1    0    0    0 -0.26903912306E+02 -0.52059368847E+02  0.19293823685E+02  0.62499999588E+02  0.99999966952E+01 0.  0.
    3000022    2    3    3    0    0 -0.24320408799E+02 -0.40561113513E+02  0.17993225394E+02  0.50601431522E+02  0.24999678673E+00 0.  0.
    1000022    2    1    0    0    0  0.26903912306E+02  0.52059368847E+02 -0.19293823685E+02  0.62500000412E+02  0.10000001851E+02 0.  0.
    3000022    2    5    5    0    0  0.23403333138E+02  0.36416633692E+02 -0.12467787587E+02  0.45048811729E+02  0.24999892030E+00 0.  0.
        -13    1    4    4    0    0 -0.10643369769E+02 -0.17641595995E+02  0.78756498342E+01  0.22057745003E+02  0.10500000000E+00 0. -1.
         13    1    4    4    0    0 -0.13677039031E+02 -0.22919517518E+02  0.10117575560E+02  0.28543686519E+02  0.10500000000E+00 0.  1.
    3000001    1    5    5    0    0  0.35005791682E+01  0.15642735155E+02 -0.68260360985E+01  0.17451188684E+02  0.10000000000E+01 0. -1.
        -13    1    6    6    0    0  0.11005478571E+02  0.17028863852E+02 -0.58843041165E+01  0.21112527622E+02  0.10500000000E+00 0.  1.
         13    1    6    6    0    0  0.12397854567E+02  0.19387769840E+02 -0.65834834701E+01  0.23936284107E+02  0.10500000000E+00 0. -1.
</event>
<event>
11    0  0.3510903E-009  0.9118800E+02  0.7816531E-02  0.1126479E+00
         25   -1    0    0    0    0  0.00000000000E+00  0.00000000000E+00  0.99999998245E-14  0.12500000000E+03  0.12500000000E+03 0.  0.
    3000001    1    3    3    0    0  0.27506746368E+02  0.28761265696E+02 -0.31143839380E+02  0.50544734953E+02  0.10000000000E+01 0. -1.
    1000022    2    1    0    0    0  0.29804728774E+02  0.35332623680E+02 -0.40859929168E+02  0.62500000246E+02  0.10000003290E+02 0.  0.
    3000022    2    3    3    0    0  0.22979824064E+01  0.65713579835E+01 -0.97160897881E+01  0.11955265293E+02  0.24999713685E+00 0.  0.
    1000022    2    1    0    0    0 -0.29804728774E+02 -0.35332623680E+02  0.40859929168E+02  0.62499999754E+02  0.10000000209E+02 0.  0.
    3000022    2    5    5    0    0 -0.29980110426E+02 -0.34243360462E+02  0.38064921560E+02  0.59333089491E+02  0.24999653661E+00 0.  0.
        -13    1    4    4    0    0  0.17569467719E+01  0.50451057909E+01 -0.74689357200E+01  0.91834623204E+01  0.10500000000E+00 0. -1.
         13    1    4    4    0    0  0.54103563448E+00  0.15262521926E+01 -0.22471540680E+01  0.27718029726E+01  0.10500000000E+00 0.  1.
    3000001    1    5    5    0    0  0.17538165234E+00 -0.10892632177E+01  0.27950076077E+01  0.31669102622E+01  0.10000000000E+01 0. -1.
        -13    1    6    6    0    0 -0.16536783412E+02 -0.18973517447E+02  0.21096415714E+02  0.32840970614E+02  0.10500000000E+00 0. -1.
         13    1    6    6    0    0 -0.13443327015E+02 -0.15269843015E+02  0.16968505846E+02  0.26492118877E+02  0.10500000000E+00 0.  1.
</event>
<event>
11    0  0.3510903E-009  0.9118800E+02  0.7816531E-02  0.1126479E+00
         25   -1    0    0    0    0  0.00000000000E+00  0.00000000000E+00  0.99999998245E-14  0.12500000000E+03  0.12500000000E+03 0.  0.
    3000001    1    3    3    0    0  0.10770281046E+02 -0.12357598973E+01 -0.18059604310E+02  0.21087327099E+02  0.10000000000E+01 0.  1.
    1000022    2    1    0    0    0  0.22824288021E+02 -0.13821818653E+02 -0.55626062353E+02  0.62499996970E+02  0.10000000690E+02 0.  0.
    3000022    2    3    3    0    0  0.12054006975E+02 -0.12586058756E+02 -0.37566458043E+02  0.41412669871E+02  0.24999362309E+00 0.  0.
    1000022    2    1    0    0    0 -0.22824288021E+02  0.13821818653E+02  0.55626062353E+02  0.62500003030E+02  0.10000038563E+02 0.  0.
    3000022    2    5    5    0    0 -0.11499124611E+02  0.21555068268E+01  0.29186141110E+02  0.31444704074E+02  0.25000980834E+00 0.  0.
        -13    1    4    4    0    0  0.52593540386E+01 -0.54788831753E+01 -0.16216516422E+02  0.17907132535E+02  0.10500000000E+00 0. -1.
         13    1    4    4    0    0  0.67946529366E+01 -0.71071755804E+01 -0.21349941621E+02  0.23505537336E+02  0.10500000000E+00 0.  1.
    3000001    1    5    5    0    0 -0.11325163410E+02  0.11666311826E+02  0.26439921243E+02  0.31055298956E+02  0.10000000000E+01 0.  1.
        -13    1    6    6    0    0 -0.61849757758E+01  0.12035747651E+01  0.15580443533E+02  0.16806658301E+02  0.10500000000E+00 0. -1.
         13    1    6    6    0    0 -0.53141488352E+01  0.95193206173E+00  0.13605697577E+02  0.14638045773E+02  0.10500000000E+00 0.  1.
</event>
<event>
11    0  0.3510903E-009  0.9118800E+02  0.7816531E-02  0.1126479E+00
         25   -1    0    0    0    0  0.00000000000E+00  0.00000000000E+00  0.99999998245E-14  0.12500000000E+03  0.12500000000E+03 0.  0.
    3000001    1    3    3    0    0 -0.12981629019E+01  0.53326587186E+02 -0.82940981151E-01  0.53351822903E+02  0.10000000000E+01 0. -1.
    1000022    2    1    0    0    0 -0.37770684260E+01  0.61496189832E+02  0.31941389074E+01  0.62499999225E+02  0.99999884990E+01 0.  0.
    3000022    2    3    3    0    0 -0.24789055241E+01  0.81696026463E+01  0.32770798886E+01  0.91481763223E+01  0.24999486650E+00 0.  0.
    1000022    2    1    0    0    0  0.37770684260E+01 -0.61496189832E+02 -0.31941389074E+01  0.62500000775E+02  0.99999981841E+01 0.  0.
    3000022    2    5    5    0    0 -0.14300188305E+01 -0.40646512806E+02  0.47964129142E+00  0.40675256773E+02  0.25000122967E+00 0.  0.
        -13    1    4    4    0    0 -0.16996572355E+01  0.57426395949E+01  0.23192172969E+01  0.64231252600E+01  0.10500000000E+00 0.  1.
         13    1    4    4    0    0 -0.77924828855E+00  0.24269630514E+01  0.95786259172E+00  0.27250510624E+01  0.10500000000E+00 0. -1.
    3000001    1    5    5    0    0  0.52070872565E+01 -0.20849677026E+02 -0.36737801989E+01  0.21824744002E+02  0.10000000000E+01 0. -1.
        -13    1    6    6    0    0 -0.38144693650E+00 -0.10819416169E+02  0.16207029262E+00  0.10827860351E+02  0.10500000000E+00 0.  1.
         13    1    6    6    0    0 -0.10485718940E+01 -0.29827096638E+02  0.31757099880E+00  0.29847396422E+02  0.10500000000E+00 0. -1.
</event>
<event>
11    0  0.3510903E-009  0.9118800E+02  0.7816531E-02  0.1126479E+00
         25   -1    0    0    0    0  0.00000000000E+00  0.00000000000E+00  0.99999998245E-14  0.12500000000E+03  0.12500000000E+03 0.  0.
    3000001    1    3    3    0    0 -0.25391495832E+02 -0.17092433852E+02  0.17051078167E+02  0.35051656483E+02  0.10000000000E+01 0.  1.
    1000022    2    1    0    0    0 -0.50226042940E+02 -0.25598572002E+02  0.25066065684E+02  0.62500001446E+02  0.10000012697E+02 0.  0.
    3000022    2    3    3    0    0 -0.24834547109E+02 -0.85061381502E+01  0.80149875173E+01  0.27448344964E+02  0.25000002487E+00 0.  0.
    1000022    2    1    0    0    0  0.50226042940E+02  0.25598572002E+02 -0.25066065684E+02  0.62499998554E+02  0.99999946163E+01 0.  0.
    3000022    2    5    5    0    0  0.50063752227E+02  0.25602739439E+02 -0.24765651741E+02  0.61443303621E+02  0.24999972595E+00 0.  0.
        -13    1    4    4    0    0 -0.10216822982E+02 -0.35649416399E+01  0.32866302057E+01  0.11309520054E+02  0.10500000000E+00 0.  1.
         13    1    4    4    0    0 -0.14617724127E+02 -0.49411965102E+01  0.47283573116E+01  0.16138824910E+02  0.10500000000E+00 0. -1.
    3000001    1    5    5    0    0  0.16229071301E+00 -0.41674368557E-02 -0.30041394311E+00  0.10566949325E+01  0.10000000000E+01 0.  1.
        -13    1    6    6    0    0  0.30095049133E+02  0.15320409467E+02 -0.14865426892E+02  0.36897410075E+02  0.10500000000E+00 0. -1.
         13    1    6    6    0    0  0.19968703094E+02  0.10282329972E+02 -0.99002248490E+01  0.24545893546E+02  0.10500000000E+00 0.  1.
</event>
<event>
11    0  0.3510903E-009  0.9118800E+02  0.7816531E-02  0.1126479E+00
         25   -1    0    0    0    0  0.00000000000E+00  0.00000000000E+00  0.99999998245E-14  0.12500000000E+03  0.12500000000E+03 0.  0.
    3000001    1    3    3    0    0 -0.13216517833E+02 -0.27221699687E+02  0.28522280694E+02  0.41595886497E+02  0.10000000000E+01 0.  1.
    1000022    2    1    0    0    0 -0.22751674386E+02 -0.35025876282E+02  0.45407041575E+02  0.62500001057E+02  0.10000000543E+02 0.  0.
    3000022    2    3    3    0    0 -0.95351565533E+01 -0.78041765945E+01  0.16884760881E+02  0.20904114560E+02  0.24994542151E+00 0.  0.
    1000022    2    1    0    0    0  0.22751674386E+02  0.35025876282E+02 -0.45407041575E+02  0.62499998943E+02  0.99999873277E+01 0.  0.
    3000022    2    5    5    0    0  0.80515566604E+01  0.94376971264E+01 -0.76821828677E+01  0.14593701464E+02  0.24999419321E+00 0.  0.
        -13    1    4    4    0    0 -0.25796596551E+01 -0.21306842593E+01  0.45298861033E+01  0.56325262945E+01  0.10500000000E+00 0. -1.
         13    1    4    4    0    0 -0.69554968981E+01 -0.56734923353E+01  0.12354874778E+02  0.15271588266E+02  0.10500000000E+00 0.  1.
    3000001    1    5    5    0    0  0.14700117725E+02  0.25588179156E+02 -0.37724858708E+02  0.47906297479E+02  0.10000000000E+01 0. -1.
        -13    1    6    6    0    0  0.25718777354E+01  0.30563358148E+01 -0.24229875397E+01  0.46730757876E+01  0.10500000000E+00 0.  1.
         13    1    6    6    0    0  0.54796789250E+01  0.63813613116E+01 -0.52591953280E+01  0.99206256763E+01  0.10500000000E+00 0. -1.
</event>
<event>
11    0  0.3510903E-009  0.9118800E+02  0.7816531E-02  0.1126479E+00
         25   -1    0    0    0    0  0.00000000000E+00  0.00000000000E+00  0.99999998245E-14  0.12500000000E+03  0.12500000000E+03 0.  0.
    3000001    1    3    3    0    0 -0.10544665072E+01  0.76120663781E+01  0.20429301586E+02  0.21849755547E+02  0.10000000000E+01 0.  1.
    1000022    2    1    0    0    0 -0.11380547231E+01  0.33355333875E+02  0.51888115764E+02  0.62499999042E+02  0.99999928151E+01 0.  0.
    3000022    2    3    3    0    0 -0.83588215861E-01  0.25743267496E+02  0.31458814177E+02  0.40650243495E+02  0.24999673287E+00 0.  0.
    1000022    2    1    0    0    0  0.11380547231E+01 -0.33355333875E+02 -0.51888115764E+02  0.62500000958E+02  0.10000004792E+02 0.  0.
    3000022    2    5    5    0    0 -0.12424053293E+01 -0.65582245913E+01 -0.18132718124E+02  0.19323867206E+02  0.24999286420E+00 0.  0.
        -13    1    4    4    0    0 -0.84594829662E-01  0.10025989167E+02  0.12199475046E+02  0.15791321397E+02  0.10500000000E+00 0. -1.
         13    1    4    4    0    0  0.10066138006E-02  0.15717278329E+02  0.19259339131E+02  0.24858922098E+02  0.10500000000E+00 0.  1.
    3000001    1    5    5    0    0  0.23804600524E+01 -0.26797109283E+02 -0.33755397640E+02  0.43176133753E+02  0.10000000000E+01 0.  1.
        -13    1    6    6    0    0 -0.48209097929E+00 -0.23139976042E+01 -0.63145567685E+01  0.67432669240E+01  0.10500000000E+00 0. -1.
         13    1    6    6    0    0 -0.76031435003E+00 -0.42442269871E+01 -0.11818161355E+02  0.12580600282E+02  0.10500000000E+00 0.  1.
</event>
<event>
11    0  0.3510903E-009  0.9118800E+02  0.7816531E-02  0.1126479E+00
         25   -1    0    0    0    0  0.00000000000E+00  0.00000000000E+00  0.99999998245E-14  0.12500000000E+03  0.12500000000E+03 0.  0.
    3000001    1    3    3    0    0 -0.17383984296E+01  0.57989501829E+00  0.68694303316E+00  0.21977711580E+01  0.10000000000E+01 0. -1.
    1000022    2    1    0    0    0 -0.42966622926E+02 -0.23449267326E+02  0.37553311373E+02  0.62499999252E+02  0.99999943805E+01 0.  0.
    3000022    2    3    3    0    0 -0.41228224496E+02 -0.24029162345E+02  0.36866368340E+02  0.60302228094E+02  0.24992081248E+00 0.  0.
    1000022    2    1    0    0    0  0.42966622926E+02  0.23449267326E+02 -0.37553311373E+02  0.62500000748E+02  0.10000003730E+02 0.  0.
    3000022    2    5    5    0    0  0.40504321386E+02  0.19086439291E+02 -0.34701563319E+02  0.56649388446E+02  0.24999760769E+00 0.  0.
        -13    1    4    4    0    0 -0.17819927339E+02 -0.10460157499E+02  0.15945244931E+02  0.26100317358E+02  0.10500000000E+00 0.  1.
         13    1    4    4    0    0 -0.23408297157E+02 -0.13569004845E+02  0.20921123410E+02  0.34201910736E+02  0.10500000000E+00 0. -1.
    3000001    1    5    5    0    0  0.24623015400E+01  0.43628280357E+01 -0.28517480543E+01  0.58506123020E+01  0.10000000000E+01 0. -1.
        -13    1    6    6    0    0  0.10235560014E+02  0.48351793673E+01 -0.87408174568E+01  0.14302397111E+02  0.10500000000E+00 0.  1.
         13    1    6    6    0    0  0.30268761371E+02  0.14251259923E+02 -0.25960745862E+02  0.42346991335E+02  0.10500000000E+00 0. -1.
</event>
<event>
11    0  0.3510903E-009  0.9118800E+02  0.7816531E-02  0.1126479E+00
         25   -1    0    0    0    0  0.00000000000E+00  0.00000000000E+00  0.99999998245E-14  0.12500000000E+03  0.12500000000E+03 0.  0.
    3000001    1    3    3    0    0  0.35246818739E+01 -0.10179214006E+02 -0.44227891774E+02  0.45531815150E+02  0.10000000000E+01 0.  1.
    1000022    2    1    0    0    0 -0.98534740948E+00 -0.12334636053E+02 -0.60441177222E+02  0.62500001357E+02  0.10000005478E+02 0.  0.
    3000022    2    3    3    0    0 -0.45100292834E+01 -0.21554220474E+01 -0.16213285448E+02  0.16968186207E+02  0.25001959302E+00 0.  0.
    1000022    2    1    0    0    0  0.98534740948E+00  0.12334636053E+02  0.60441177222E+02  0.62499998643E+02  0.99999885168E+01 0.  0.
    3000022    2    5    5    0    0 -0.29646889205E+01  0.29900418708E+00  0.16043377848E+02  0.16319658554E+02  0.24999734468E+00 0.  0.
        -13    1    4    4    0    0 -0.33828618790E+01 -0.16251405740E+01 -0.12078199172E+02  0.12648270894E+02  0.10500000000E+00 0.  1.
         13    1    4    4    0    0 -0.11271674044E+01 -0.53028147334E+00 -0.41350862759E+01  0.43199153126E+01  0.10500000000E+00 0. -1.
    3000001    1    5    5    0    0  0.39500363300E+01  0.12035631866E+02  0.44397799374E+02  0.46180340089E+02  0.10000000000E+01 0. -1.
        -13    1    6    6    0    0 -0.13003291933E+01  0.18919853961E+00  0.72511003285E+01  0.73699479694E+01  0.10500000000E+00 0. -1.
         13    1    6    6    0    0 -0.16643597271E+01  0.10980564747E+00  0.87922775192E+01  0.89497105850E+01  0.10500000000E+00 0.  1.
</event>
<event>
11    0  0.3510903E-009  0.9118800E+02  0.7816531E-02  0.1126479E+00
         25   -1    0    0    0    0  0.00000000000E+00  0.00000000000E+00  0.99999998245E-14  0.12500000000E+03  0.12500000000E+03 0.  0.
    3000001    1    3    3    0    0 -0.79267740080E+01 -0.42629110326E+00 -0.15044101304E-01  0.80009809775E+01  0.10000000000E+01 0. -1.
    1000022    2    1    0    0    0 -0.57625292968E+02  0.16345170321E+02  0.14778699517E+02  0.62499990531E+02  0.99999937288E+01 0.  0.
    3000022    2    3    3    0    0 -0.49698518960E+02  0.16771461424E+02  0.14793743618E+02  0.54499009554E+02  0.24997402594E+00 0.  0.
    1000022    2    1    0    0    0  0.57625292968E+02 -0.16345170321E+02 -0.14778699517E+02  0.62500009469E+02  0.10000112086E+02 0.  0.
    3000022    2    5    5    0    0  0.52775322131E+02 -0.15180280072E+02 -0.16131536391E+02  0.57236041952E+02  0.25000577541E+00 0.  0.
        -13    1    4    4    0    0 -0.18466167152E+02  0.62265203134E+01  0.55582316551E+01  0.20265089406E+02  0.10500000000E+00 0.  1.
         13    1    4    4    0    0 -0.31232351807E+02  0.10544941111E+02  0.92355119628E+01  0.34233920148E+02  0.10500000000E+00 0. -1.
    3000001    1    5    5    0    0  0.48499708364E+01 -0.11648902489E+01  0.13528368741E+01  0.52639675164E+01  0.10000000000E+01 0. -1.
        -13    1    6    6    0    0  0.13877045346E+02 -0.40250385745E+01 -0.42364325593E+01  0.15057612988E+02  0.10500000000E+00 0. -1.
         13    1    6    6    0    0  0.38898276785E+02 -0.11155241497E+02 -0.11895103831E+02  0.42178428964E+02  0.10500000000E+00 0.  1.
</event>
<event>
11    0  0.3510903E-009  0.9118800E+02  0.7816531E-02  0.1126479E+00
         25   -1    0    0    0    0  0.00000000000E+00  0.00000000000E+00  0.99999998245E-14  0.12500000000E+03  0.12500000000E+03 0.  0.
    3000001    1    3    3    0    0 -0.22143582356E+02  0.16654589492E+02 -0.11294054596E+02  0.29937756428E+02  0.10000000000E+01 0.  1.
    1000022    2    1    0    0    0 -0.51872317123E+02  0.27943173780E+02 -0.18294579533E+02  0.62499999195E+02  0.10000000723E+02 0.  0.
    3000022    2    3    3    0    0 -0.29728734767E+02  0.11288584288E+02 -0.70005249376E+01  0.32562242767E+02  0.24999713181E+00 0.  0.
    1000022    2    1    0    0    0  0.51872317123E+02 -0.27943173780E+02  0.18294579533E+02  0.62500000805E+02  0.10000010786E+02 0.  0.
    3000022    2    5    5    0    0  0.21879625627E+02 -0.71307336472E+01  0.44269737749E+01  0.23435570732E+02  0.24999761624E+00 0.  0.
        -13    1    4    4    0    0 -0.15886126836E+02  0.60837923644E+01 -0.37929447345E+01  0.17429257303E+02  0.10500000000E+00 0. -1.
         13    1    4    4    0    0 -0.13842607931E+02  0.52047919233E+01 -0.32075802032E+01  0.15132985464E+02  0.10500000000E+00 0.  1.
    3000001    1    5    5    0    0  0.29992691496E+02 -0.20812440133E+02  0.13867605759E+02  0.39064430073E+02  0.10000000000E+01 0. -1.
        -13    1    6    6    0    0  0.54299069706E+01 -0.17514771126E+01  0.10791859073E+01  0.58075148736E+01  0.10500000000E+00 0.  1.
         13    1    6    6    0    0  0.16449718656E+02 -0.53792565346E+01  0.33477878676E+01  0.17628055858E+02  0.10500000000E+00 0. -1.
</event>
<event>
11    0  0.3510903E-009  0.9118800E+02  0.7816531E-02  0.1126479E+00
         25   -1    0    0    0    0  0.00000000000E+00  0.00000000000E+00  0.99999998245E-14  0.12500000000E+03  0.12500000000E+03 0.  0.
    3000001    1    3    3    0    0 -0.38463027411E+02 -0.34288098660E+02  0.33392448831E+02  0.61409558102E+02  0.10000000000E+01 0.  1.
    1000022    2    1    0    0    0 -0.38700465511E+02 -0.35124654843E+02  0.32783878887E+02  0.62499999604E+02  0.99999913472E+01 0.  0.
    3000022    2    3    3    0    0 -0.23743810013E+00 -0.83655618277E+00 -0.60856994396E+00  0.10904415015E+01  0.25000438647E+00 0.  0.
    1000022    2    1    0    0    0  0.38700465511E+02  0.35124654843E+02 -0.32783878887E+02  0.62500000396E+02  0.99999963024E+01 0.  0.
    3000022    2    5    5    0    0  0.81134610000E+01  0.53497900016E+01 -0.21690063375E+01  0.99607023185E+01  0.24999945269E+00 0.  0.
        -13    1    4    4    0    0 -0.11060014265E+00 -0.28245015473E+00 -0.27737168203E+00  0.42422933827E+00  0.10500000000E+00 0.  1.
         13    1    4    4    0    0 -0.12683795748E+00 -0.55410602804E+00 -0.33119826193E+00  0.66621216326E+00  0.10500000000E+00 0. -1.
    3000001    1    5    5    0    0  0.30587004511E+02  0.29774864841E+02 -0.30614872550E+02  0.52539298078E+02  0.10000000000E+01 0.  1.
        -13    1    6    6    0    0  0.31917877091E+01  0.20675099934E+01 -0.90409308883E+00  0.39103088965E+01  0.10500000000E+00 0. -1.
         13    1    6    6    0    0  0.49216732909E+01  0.32822800082E+01 -0.12649132486E+01  0.60503934220E+01  0.10500000000E+00 0.  1.
</event>
<event>
11    0  0.3510903E-009  0.9118800E+02  0.7816531E-02  0.1126479E+00
         25   -1    0    0    0    0  0.00000000000E+00  0.00000000000E+00  0.99999998245E-14  0.12500000000E+03  0.12500000000E+03 0.  0.
    3000001    1    3    3    0    0  0.10431093087E+02  0.26740806136E+02 -0.14142386918E+02  0.32013833315E+02  0.10000000000E+01 0. -1.
    1000022    2    1    0    0    0  0.28509908094E+02  0.49578960644E+02 -0.23137885547E+02  0.62500000432E+02  0.10000005423E+02 0.  0.
    3000022    2    3    3    0    0  0.18078815007E+02  0.22838154508E+02 -0.89954986289E+01  0.30486167117E+02  0.25007309541E+00 0.  0.
    1000022    2    1    0    0    0 -0.28509908094E+02 -0.49578960644E+02  0.23137885547E+02  0.62499999568E+02  0.10000000017E+02 0.  0.
    3000022    2    5    5    0    0 -0.54568468810E+01 -0.18609161841E+02  0.88902223212E+01  0.21334868977E+02  0.24999806517E+00 0.  0.
        -13    1    4    4    0    0  0.96103376176E+01  0.12172522206E+02 -0.47222370889E+01  0.16212323526E+02  0.10500000000E+00 0. -1.
         13    1    4    4    0    0  0.84684773892E+01  0.10665632302E+02 -0.42732615400E+01  0.14273843592E+02  0.10500000000E+00 0.  1.
    3000001    1    5    5    0    0 -0.23053061213E+02 -0.30969798803E+02  0.14247663226E+02  0.41165130591E+02  0.10000000000E+01 0. -1.
        -13    1    6    6    0    0 -0.32728524414E+01 -0.11238419999E+02  0.54305792133E+01  0.12904102556E+02  0.10500000000E+00 0.  1.
         13    1    6    6    0    0 -0.21839944396E+01 -0.73707418417E+01  0.34596431078E+01  0.84307664209E+01  0.10500000000E+00 0. -1.
</event>
<event>
11    0  0.3510903E-009  0.9118800E+02  0.7816531E-02  0.1126479E+00
         25   -1    0    0    0    0  0.00000000000E+00  0.00000000000E+00  0.99999998245E-14  0.12500000000E+03  0.12500000000E+03 0.  0.
    3000001    1    3    3    0    0  0.12540890667E+02 -0.23208171726E+02  0.49228792218E+02  0.55860246660E+02  0.10000000000E+01 0.  1.
    1000022    2    1    0    0    0  0.10740148144E+02 -0.25080414523E+02  0.55334186647E+02  0.62499998781E+02  0.99999830512E+01 0.  0.
    3000022    2    3    3    0    0 -0.18007425231E+01 -0.18722427969E+01  0.61053944284E+01  0.66397521219E+01  0.25000077733E+00 0.  0.
    1000022    2    1    0    0    0 -0.10740148144E+02  0.25080414523E+02 -0.55334186647E+02  0.62500001219E+02  0.99999982837E+01 0.  0.
    3000022    2    5    5    0    0 -0.11310330461E+02  0.15719302550E+02 -0.40958375371E+02  0.45306413022E+02  0.25000014835E+00 0.  0.
        -13    1    4    4    0    0 -0.89263225171E+00 -0.10249293474E+01  0.31694368720E+01  0.34501634149E+01  0.10500000000E+00 0.  1.
         13    1    4    4    0    0 -0.90811027140E+00 -0.84731344957E+00  0.29359575564E+01  0.31895887070E+01  0.10500000000E+00 0. -1.
    3000001    1    5    5    0    0  0.57018231748E+00  0.93611119726E+01 -0.14375811276E+02  0.17193588197E+02  0.10000000000E+01 0. -1.
        -13    1    6    6    0    0 -0.60977169570E+01  0.83700235653E+01 -0.21967408471E+02  0.24286158744E+02  0.10500000000E+00 0.  1.
         13    1    6    6    0    0 -0.52126135045E+01  0.73492789851E+01 -0.18990966899E+02  0.21020254278E+02  0.10500000000E+00 0. -1.
</event>
<event>
11    0  0.3510903E-009  0.9118800E+02  0.7816531E-02  0.1126479E+00
         25   -1    0    0    0    0  0.00000000000E+00  0.00000000000E+00  0.99999998245E-14  0.12500000000E+03  0.12500000000E+03 0.  0.
    3000001    1    3    3    0    0  0.30782945726E+02 -0.34842784731E+02 -0.58130012698E+01  0.46865769802E+02  0.10000000000E+01 0. -1.
    1000022    2    1    0    0    0  0.43537857105E+02 -0.42341775965E+02 -0.10857209067E+02  0.62500000250E+02  0.10000002472E+02 0.  0.
    3000022    2    3    3    0    0  0.12754911379E+02 -0.74989912340E+01 -0.50442077970E+01  0.15634230449E+02  0.24999121361E+00 0.  0.
    1000022    2    1    0    0    0 -0.43537857105E+02  0.42341775965E+02  0.10857209067E+02  0.62499999750E+02  0.99999993448E+01 0.  0.
    3000022    2    5    5    0    0 -0.28130506626E+02  0.30343521872E+02  0.11465622762E+02  0.42936903950E+02  0.24998572230E+00 0.  0.
        -13    1    4    4    0    0  0.79833420123E+01 -0.46287143039E+01 -0.31219239791E+01  0.97424935270E+01  0.10500000000E+00 0. -1.
         13    1    4    4    0    0  0.47715693666E+01 -0.28702769302E+01 -0.19222838179E+01  0.58917369215E+01  0.10500000000E+00 0.  1.
    3000001    1    5    5    0    0 -0.15407350478E+02  0.11998254093E+02 -0.60841369549E+00  0.19563095800E+02  0.10000000000E+01 0.  1.
        -13    1    6    6    0    0 -0.16885349599E+02  0.18299245976E+02  0.69243490596E+01  0.25844439813E+02  0.10500000000E+00 0. -1.
         13    1    6    6    0    0 -0.11245157028E+02  0.12044275896E+02  0.45412737027E+01  0.17092464137E+02  0.10500000000E+00 0.  1.
</event>
<event>
11    0  0.3510903E-009  0.9118800E+02  0.7816531E-02  0.1126479E+00
         25   -1    0    0    0    0  0.00000000000E+00  0.00000000000E+00  0.99999998245E-14  0.12500000000E+03  0.12500000000E+03 0.  0.
    3000001    1    3    3    0    0 -0.83595498797E+00  0.77011993222E+00 -0.55827192163E+02  0.55847715175E+02  0.10000000000E+01 0.  1.
    1000022    2    1    0    0    0 -0.33567136109E+01  0.30848820691E+01 -0.61526141478E+02  0.62499998765E+02  0.99999868374E+01 0.  0.
    3000022    2    3    3    0    0 -0.25207586229E+01  0.23147621369E+01 -0.56989493153E+01  0.66522835899E+01  0.25001175326E+00 0.  0.
    1000022    2    1    0    0    0  0.33567136109E+01 -0.30848820691E+01  0.61526141478E+02  0.62500001235E+02  0.10000002275E+02 0.  0.
    3000022    2    5    5    0    0  0.51855111774E+00 -0.44595106459E+01  0.54997322224E+02  0.55180831137E+02  0.25008545451E+00 0.  0.
        -13    1    4    4    0    0 -0.63721442110E+00  0.55202373282E+00 -0.14142688827E+01  0.16498345046E+01  0.10500000000E+00 0. -1.
         13    1    4    4    0    0 -0.18835442018E+01  0.17627384041E+01 -0.42846804327E+01  0.50024490853E+01  0.10500000000E+00 0.  1.
    3000001    1    5    5    0    0  0.28381624931E+01  0.13746285767E+01  0.65288192550E+01  0.73191700981E+01  0.10000000000E+01 0.  1.
        -13    1    6    6    0    0  0.17696233492E+00 -0.20066403273E+01  0.25120297260E+02  0.25201156332E+02  0.10500000000E+00 0.  1.
         13    1    6    6    0    0  0.34158878281E+00 -0.24528703186E+01  0.29877024964E+02  0.29979674805E+02  0.10500000000E+00 0. -1.
</event>
<event>
11    0  0.3510903E-009  0.9118800E+02  0.7816531E-02  0.1126479E+00
         25   -1    0    0    0    0  0.00000000000E+00  0.00000000000E+00  0.99999998245E-14  0.12500000000E+03  0.12500000000E+03 0.  0.
    3000001    1    3    3    0    0  0.61920745094E+00 -0.36629096232E+02  0.31630562074E+02  0.48410397290E+02  0.10000000000E+01 0. -1.
    1000022    2    1    0    0    0  0.43796575659E+01 -0.43980016300E+02  0.43044474370E+02  0.62499999497E+02  0.99999964578E+01 0.  0.
    3000022    2    3    3    0    0  0.37604501149E+01 -0.73509200685E+01  0.11413912296E+02  0.14089602208E+02  0.24997106970E+00 0.  0.
    1000022    2    1    0    0    0 -0.43796575659E+01  0.43980016300E+02 -0.43044474370E+02  0.62500000503E+02  0.10000002742E+02 0.  0.
    3000022    2    5    5    0    0  0.29902393678E+01  0.16103398070E+02 -0.17421030572E+02  0.23912669720E+02  0.25001222857E+00 0.  0.
        -13    1    4    4    0    0  0.10449882597E+01 -0.19680899519E+01  0.31020417343E+01  0.38208724714E+01  0.10500000000E+00 0.  1.
         13    1    4    4    0    0  0.27154618553E+01 -0.53828301166E+01  0.83118705621E+01  0.10268729736E+02  0.10500000000E+00 0. -1.
    3000001    1    5    5    0    0 -0.73698969337E+01  0.27876618231E+02 -0.25623443799E+02  0.38587330782E+02  0.10000000000E+01 0. -1.
        -13    1    6    6    0    0  0.10409616240E+01  0.59172085038E+01 -0.64143591165E+01  0.87893108635E+01  0.10500000000E+00 0. -1.
         13    1    6    6    0    0  0.19492777438E+01  0.10186189566E+02 -0.11006671455E+02  0.15123358857E+02  0.10500000000E+00 0.  1.
</event>
<event>
11    0  0.3510903E-009  0.9118800E+02  0.7816531E-02  0.1126479E+00
         25   -1    0    0    0    0  0.00000000000E+00  0.00000000000E+00  0.99999998245E-14  0.12500000000E+03  0.12500000000E+03 0.  0.
    3000001    1    3    3    0    0 -0.20914787642E+02  0.27234092788E+01  0.16329898883E+02  0.26692899762E+02  0.10000000000E+01 0. -1.
    1000022    2    1    0    0    0 -0.44745782090E+02 -0.34312989780E+01  0.42335464844E+02  0.62500003685E+02  0.10000002482E+02 0.  0.
    3000022    2    3    3    0    0 -0.23830994448E+02 -0.61547082568E+01  0.26005565961E+02  0.35807103923E+02  0.25000060119E+00 0.  0.
    1000022    2    1    0    0    0  0.44745782090E+02  0.34312989780E+01 -0.42335464844E+02  0.62499996315E+02  0.99999564172E+01 0.  0.
    3000022    2    5    5    0    0  0.38727155345E+02 -0.36520862311E+00 -0.36852763744E+02  0.53461337719E+02  0.24999346794E+00 0.  0.
        -13    1    4    4    0    0 -0.85156967794E+01 -0.22368255348E+01  0.93683509005E+01  0.12856807679E+02  0.10500000000E+00 0. -1.
         13    1    4    4    0    0 -0.15315297669E+02 -0.39178827220E+01  0.16637215060E+02  0.22950296243E+02  0.10500000000E+00 0.  1.
    3000001    1    5    5    0    0  0.60186267444E+01  0.37965076011E+01 -0.54827011000E+01  0.90386585955E+01  0.10000000000E+01 0. -1.
        -13    1    6    6    0    0  0.16409537039E+02 -0.21619953096E+00 -0.15645578319E+02  0.22674099629E+02  0.10500000000E+00 0.  1.
         13    1    6    6    0    0  0.22317618306E+02 -0.14900909215E+00 -0.21207185425E+02  0.30787238090E+02  0.10500000000E+00 0. -1.
</event>
<event>
11    0  0.3510903E-009  0.9118800E+02  0.7816531E-02  0.1126479E+00
         25   -1    0    0    0    0  0.00000000000E+00  0.00000000000E+00  0.99999998245E-14  0.12500000000E+03  0.12500000000E+03 0.  0.
    3000001    1    3    3    0    0  0.18038131145E+01  0.32797036285E+02 -0.22862252494E+02  0.40032260990E+02  0.10000000000E+01 0.  1.
    1000022    2    1    0    0    0  0.42280654875E+01  0.54252096206E+02 -0.29070320425E+02  0.62499997944E+02  0.99999866413E+01 0.  0.
    3000022    2    3    3    0    0  0.24242523729E+01  0.21455059921E+02 -0.62080679312E+01  0.22467736954E+02  0.25000124809E+00 0.  0.
    1000022    2    1    0    0    0 -0.42280654875E+01 -0.54252096206E+02  0.29070320425E+02  0.62500002056E+02  0.10000012341E+02 0.  0.
    3000022    2    5    5    0    0 -0.53489566241E+01 -0.27811772234E+02  0.10732596731E+02  0.30287904345E+02  0.25001044423E+00 0.  0.
        -13    1    4    4    0    0  0.16361329618E+01  0.14896972468E+02 -0.43010778881E+01  0.15591889423E+02  0.10500000000E+00 0. -1.
         13    1    4    4    0    0  0.78811941109E+00  0.65580874537E+01 -0.19069900432E+01  0.68758475318E+01  0.10500000000E+00 0.  1.
    3000001    1    5    5    0    0  0.11208911367E+01 -0.26440323972E+02  0.18337723694E+02  0.32212097711E+02  0.10000000000E+01 0. -1.
        -13    1    6    6    0    0 -0.33557120129E+01 -0.17618125932E+02  0.68494245075E+01  0.19198562591E+02  0.10500000000E+00 0. -1.
         13    1    6    6    0    0 -0.19932446112E+01 -0.10193646302E+02  0.38831722239E+01  0.11089341753E+02  0.10500000000E+00 0.  1.
</event>
<event>
11    0  0.3510903E-009  0.9118800E+02  0.7816531E-02  0.1126479E+00
         25   -1    0    0    0    0  0.00000000000E+00  0.00000000000E+00  0.99999998245E-14  0.12500000000E+03  0.12500000000E+03 0.  0.
    3000001    1    3    3    0    0 -0.16749819376E+02  0.15707553521E+02 -0.34124220119E+02  0.41142995583E+02  0.10000000000E+01 0. -1.
    1000022    2    1    0    0    0 -0.30773821797E+02  0.19584474359E+02 -0.49756108850E+02  0.62499999231E+02  0.99999896065E+01 0.  0.
    3000022    2    3    3    0    0 -0.14024002421E+02  0.38769208377E+01 -0.15631888730E+02  0.21357003649E+02  0.25000097099E+00 0.  0.
    1000022    2    1    0    0    0  0.30773821797E+02 -0.19584474359E+02  0.49756108850E+02  0.62500000769E+02  0.99999992163E+01 0.  0.
    3000022    2    5    5    0    0  0.20018619833E+02 -0.72983534164E+01  0.25320242441E+02  0.33093628938E+02  0.24999282283E+00 0.  0.
        -13    1    4    4    0    0 -0.10307208828E+02  0.28330452213E+01 -0.11438907817E+02  0.15656447109E+02  0.10500000000E+00 0.  1.
         13    1    4    4    0    0 -0.37167935933E+01  0.10438756164E+01 -0.41929809134E+01  0.57005565393E+01  0.10500000000E+00 0. -1.
    3000001    1    5    5    0    0  0.10755201964E+02 -0.12286120943E+02  0.24435866409E+02  0.29406371830E+02  0.10000000000E+01 0.  1.
        -13    1    6    6    0    0  0.77405806878E+01 -0.28752896698E+01  0.97564834378E+01  0.12782170166E+02  0.10500000000E+00 0.  1.
         13    1    6    6    0    0  0.12278039145E+02 -0.44230637466E+01  0.15563759004E+02  0.20311458773E+02  0.10500000000E+00 0. -1.
</event>
<event>
11    0  0.3510903E-009  0.9118800E+02  0.7816531E-02  0.1126479E+00
         25   -1    0    0    0    0  0.00000000000E+00  0.00000000000E+00  0.99999998245E-14  0.12500000000E+03  0.12500000000E+03 0.  0.
    3000001    1    3    3    0    0 -0.19923189282E+02 -0.10323130879E+00 -0.11944596550E+02  0.23251183080E+02  0.10000000000E+01 0. -1.
    1000022    2    1    0    0    0 -0.54269268400E+02  0.11455542264E+02 -0.27016052515E+02  0.62500000781E+02  0.10000003148E+02 0.  0.
    3000022    2    3    3    0    0 -0.34346079118E+02  0.11558773573E+02 -0.15071455965E+02  0.39248817701E+02  0.25001756742E+00 0.  0.
    1000022    2    1    0    0    0  0.54269268400E+02 -0.11455542264E+02  0.27016052515E+02  0.62499999219E+02  0.99999933821E+01 0.  0.
    3000022    2    5    5    0    0  0.51316395400E+02 -0.85010138206E+01  0.25620899135E+02  0.57983900213E+02  0.25007719364E+00 0.  0.
        -13    1    4    4    0    0 -0.22568384191E+02  0.75398669268E+01 -0.98762619649E+01  0.25763018722E+02  0.10500000000E+00 0. -1.
         13    1    4    4    0    0 -0.11777694927E+02  0.40189066458E+01 -0.51951940000E+01  0.13485798980E+02  0.10500000000E+00 0.  1.
    3000001    1    5    5    0    0  0.29528729997E+01 -0.29545284432E+01  0.13951533793E+01  0.45160990054E+01  0.10000000000E+01 0.  1.
        -13    1    6    6    0    0  0.19939951566E+02 -0.33591417788E+01  0.99286618642E+01  0.22527202520E+02  0.10500000000E+00 0. -1.
         13    1    6    6    0    0  0.31376443834E+02 -0.51418720418E+01  0.15692237271E+02  0.35456697694E+02  0.10500000000E+00 0.  1.
</event>
<event>
11    0  0.3510903E-009  0.9118800E+02  0.7816531E-02  0.1126479E+00
         25   -1    0    0    0    0  0.00000000000E+00  0.00000000000E+00  0.99999998245E-14  0.12500000000E+03  0.12500000000E+03 0.  0.
    3000001    1    3    3    0    0  0.14695907451E+01 -0.27731819224E+02 -0.59725693986E+01  0.28423319294E+02  0.10000000000E+01 0. -1.
    1000022    2    1    0    0    0  0.12776107578E+02 -0.59801906197E+02 -0.81702531509E+01  0.62499999210E+02  0.99999977549E+01 0.  0.
    3000022    2    3    3    0    0  0.11306516833E+02 -0.32070086973E+02 -0.21976837524E+01  0.34076679917E+02  0.24999787905E+00 0.  0.
    1000022    2    1    0    0    0 -0.12776107578E+02  0.59801906197E+02  0.81702531509E+01  0.62500000790E+02  0.10000007624E+02 0.  0.
    3000022    2    5    5    0    0 -0.14321637810E+02  0.52292841791E+02  0.75748430685E+01  0.54745697138E+02  0.24999095886E+00 0.  0.
        -13    1    4    4    0    0  0.51467555241E+01 -0.14443330893E+02 -0.94853636527E+00  0.15362605441E+02  0.10500000000E+00 0. -1.
         13    1    4    4    0    0  0.61597613088E+01 -0.17626756080E+02 -0.12491473871E+01  0.18714074476E+02  0.10500000000E+00 0.  1.
    3000001    1    5    5    0    0  0.15455302318E+01  0.75090644059E+01  0.59541008245E+00  0.77543036513E+01  0.10000000000E+01 0.  1.
        -13    1    6    6    0    0 -0.95222180810E+01  0.34601633405E+02  0.50460181981E+01  0.36241122998E+02  0.10500000000E+00 0.  1.
         13    1    6    6    0    0 -0.47994197288E+01  0.17691208386E+02  0.25288248704E+01  0.18504574141E+02  0.10500000000E+00 0. -1.
</event>
<event>
11    0  0.3510903E-009  0.9118800E+02  0.7816531E-02  0.1126479E+00
         25   -1    0    0    0    0  0.00000000000E+00  0.00000000000E+00  0.99999998245E-14  0.12500000000E+03  0.12500000000E+03 0.  0.
    3000001    1    3    3    0    0  0.29520800797E+02 -0.97149192644E+01 -0.24943614999E+02  0.39862780451E+02  0.10000000000E+01 0. -1.
    1000022    2    1    0    0    0  0.40464837733E+02 -0.16044035487E+02 -0.43719967818E+02  0.62499997280E+02  0.99999953284E+01 0.  0.
    3000022    2    3    3    0    0  0.10944036936E+02 -0.63291162222E+01 -0.18776352819E+02  0.22637216830E+02  0.25000802813E+00 0.  0.
    1000022    2    1    0    0    0 -0.40464837733E+02  0.16044035487E+02  0.43719967818E+02  0.62500002720E+02  0.10000029324E+02 0.  0.
    3000022    2    5    5    0    0 -0.24631153735E+02  0.96546612525E+01  0.19576062273E+02  0.32911866127E+02  0.24999925996E+00 0.  0.
        -13    1    4    4    0    0  0.67414068880E+01 -0.39546679714E+01 -0.11673250328E+02  0.14048550239E+02  0.10500000000E+00 0. -1.
         13    1    4    4    0    0  0.42026300480E+01 -0.23744482507E+01 -0.71031024906E+01  0.85886665908E+01  0.10500000000E+00 0.  1.
    3000001    1    5    5    0    0 -0.15833683998E+02  0.63893742341E+01  0.24143905545E+02  0.29588136593E+02  0.10000000000E+01 0. -1.
        -13    1    6    6    0    0 -0.14210713470E+02  0.55997466584E+01  0.11228825438E+02  0.18957823864E+02  0.10500000000E+00 0. -1.
         13    1    6    6    0    0 -0.10420440265E+02  0.40549145941E+01  0.83472368351E+01  0.13954042263E+02  0.10500000000E+00 0.  1.
</event>
<event>
11    0  0.3510903E-009  0.9118800E+02  0.7816531E-02  0.1126479E+00
         25   -1    0    0    0    0  0.00000000000E+00  0.00000000000E+00  0.99999998245E-14  0.12500000000E+03  0.12500000000E+03 0.  0.
    3000001    1    3    3    0    0 -0.47370568335E+01  0.12426453779E+02  0.27194775986E-02  0.13336283904E+02  0.10000000000E+01 0.  1.
    1000022    2    1    0    0    0 -0.37839301017E+02  0.48590855264E+02 -0.36559667600E+01  0.62500000119E+02  0.10000000261E+02 0.  0.
    3000022    2    3    3    0    0 -0.33102244183E+02  0.36164401485E+02 -0.36586862376E+01  0.49163716216E+02  0.25000478919E+00 0.  0.
    1000022    2    1    0    0    0  0.37839301017E+02 -0.48590855264E+02  0.36559667600E+01  0.62499999881E+02  0.99999987706E+01 0.  0.
    3000022    2    5    5    0    0  0.76236499686E+01 -0.12060986647E+02 -0.31006560005E+01  0.14603561385E+02  0.24999950074E+00 0.  0.
        -13    1    4    4    0    0 -0.12602782702E+02  0.13757557265E+02 -0.13317388004E+01  0.18705214967E+02  0.10500000000E+00 0. -1.
         13    1    4    4    0    0 -0.20499461481E+02  0.22406844220E+02 -0.23269474372E+01  0.30458501248E+02  0.10500000000E+00 0.  1.
    3000001    1    5    5    0    0  0.30215651048E+02 -0.36529868617E+02  0.67566227605E+01  0.47896438496E+02  0.10000000000E+01 0. -1.
        -13    1    6    6    0    0  0.31909595640E+01 -0.50033827309E+01 -0.13509070983E+01  0.60870384161E+01  0.10500000000E+00 0.  1.
         13    1    6    6    0    0  0.44326904047E+01 -0.70576039162E+01 -0.17497489022E+01  0.85165229691E+01  0.10500000000E+00 0. -1.
</event>
<event>
11    0  0.3510903E-009  0.9118800E+02  0.7816531E-02  0.1126479E+00
         25   -1    0    0    0    0  0.00000000000E+00  0.00000000000E+00  0.99999998245E-14  0.12500000000E+03  0.12500000000E+03 0.  0.
    3000001    1    3    3    0    0  0.49284616902E+01  0.16630841441E+00  0.26853740173E+01  0.57033873035E+01  0.10000000000E+01 0.  1.
    1000022    2    1    0    0    0  0.47309365089E+02  0.30519988950E+02  0.25231015438E+02  0.62500001138E+02  0.10000012577E+02 0.  0.
    3000022    2    3    3    0    0  0.42380903399E+02  0.30353680535E+02  0.22545641421E+02  0.56796613834E+02  0.25000202361E+00 0.  0.
    1000022    2    1    0    0    0 -0.47309365089E+02 -0.30519988950E+02 -0.25231015438E+02  0.62499998862E+02  0.99999983553E+01 0.  0.
    3000022    2    5    5    0    0 -0.40044358446E+02 -0.28788801071E+02 -0.24057318679E+02  0.54874063045E+02  0.25000536213E+00 0.  0.
        -13    1    4    4    0    0  0.32210901916E+02  0.23078761289E+02  0.17118130724E+02  0.43164949315E+02  0.10500000000E+00 0.  1.
         13    1    4    4    0    0  0.10170001483E+02  0.72749192467E+01  0.54275106974E+01  0.13631664519E+02  0.10500000000E+00 0. -1.
    3000001    1    5    5    0    0 -0.72650066432E+01 -0.17311878791E+01 -0.11736967598E+01  0.76259358168E+01  0.10000000000E+01 0.  1.
        -13    1    6    6    0    0 -0.17979392971E+02 -0.12871549786E+02 -0.10841572010E+02  0.24626937977E+02  0.10500000000E+00 0.  1.
         13    1    6    6    0    0 -0.22064965475E+02 -0.15917251284E+02 -0.13215746669E+02  0.30247125068E+02  0.10500000000E+00 0. -1.
</event>
<event>
11    0  0.3510903E-009  0.9118800E+02  0.7816531E-02  0.1126479E+00
         25   -1    0    0    0    0  0.00000000000E+00  0.00000000000E+00  0.99999998245E-14  0.12500000000E+03  0.12500000000E+03 0.  0.
    3000001    1    3    3    0    0 -0.21041704156E+02 -0.59948625320E+01  0.19297141350E+02  0.29190261301E+02  0.10000000000E+01 0.  1.
    1000022    2    1    0    0    0 -0.44689492850E+02 -0.22133021527E+02  0.36321186076E+02  0.62499999847E+02  0.10000000489E+02 0.  0.
    3000022    2    3    3    0    0 -0.23647788694E+02 -0.16138158995E+02  0.17024044726E+02  0.33309738546E+02  0.24999452715E+00 0.  0.
    1000022    2    1    0    0    0  0.44689492850E+02  0.22133021527E+02 -0.36321186076E+02  0.62500000153E+02  0.10000002401E+02 0.  0.
    3000022    2    5    5    0    0  0.21695089250E+01  0.40895246779E+01 -0.39013896651E+01  0.60592346472E+01  0.25000424738E+00 0.  0.
        -13    1    4    4    0    0 -0.16980751466E+02 -0.11636621990E+02  0.12236749841E+02  0.23947984537E+02  0.10500000000E+00 0. -1.
         13    1    4    4    0    0 -0.66670372284E+01 -0.45015370054E+01  0.47872948845E+01  0.93617540091E+01  0.10500000000E+00 0.  1.
    3000001    1    5    5    0    0  0.42519983925E+02  0.18043496849E+02 -0.32419796411E+02  0.56440765506E+02  0.10000000000E+01 0.  1.
        -13    1    6    6    0    0  0.16615188607E+01  0.31457038403E+01 -0.30057760223E+01  0.46585203736E+01  0.10500000000E+00 0. -1.
         13    1    6    6    0    0  0.50799006433E+00  0.94382083758E+00 -0.89561364287E+00  0.14007142736E+01  0.10500000000E+00 0.  1.
</event>
<event>
11    0  0.3510903E-009  0.9118800E+02  0.7816531E-02  0.1126479E+00
         25   -1    0    0    0    0  0.00000000000E+00  0.00000000000E+00  0.99999998245E-14  0.12500000000E+03  0.12500000000E+03 0.  0.
    3000001    1    3    3    0    0 -0.16203779302E+02 -0.11469616479E+02  0.13795660215E+01  0.19925304722E+02  0.10000000000E+01 0.  1.
    1000022    2    1    0    0    0 -0.42392895975E+02 -0.42613851096E+02  0.13897912925E+02  0.62500000167E+02  0.10000005140E+02 0.  0.
    3000022    2    3    3    0    0 -0.26189116673E+02 -0.31144234617E+02  0.12518346904E+02  0.42574695445E+02  0.25000211140E+00 0.  0.
    1000022    2    1    0    0    0  0.42392895975E+02  0.42613851096E+02 -0.13897912925E+02  0.62499999833E+02  0.10000003051E+02 0.  0.
    3000022    2    5    5    0    0  0.24635893067E+02  0.17752088848E+02 -0.70396524756E+01  0.31171831824E+02  0.25001328766E+00 0.  0.
        -13    1    4    4    0    0 -0.11270834720E+02 -0.13470288445E+02  0.53514337543E+01  0.18361079878E+02  0.10500000000E+00 0. -1.
         13    1    4    4    0    0 -0.14918281954E+02 -0.17673946172E+02  0.71669131495E+01  0.24213615567E+02  0.10500000000E+00 0.  1.
    3000001    1    5    5    0    0  0.17757002909E+02  0.24861762248E+02 -0.68582604497E+01  0.31328168009E+02  0.10000000000E+01 0.  1.
        -13    1    6    6    0    0  0.14489701095E+02  0.10515853731E+02 -0.41712482010E+01  0.18383279198E+02  0.10500000000E+00 0.  1.
         13    1    6    6    0    0  0.10146191972E+02  0.72362351163E+01 -0.28684042746E+01  0.12788552626E+02  0.10500000000E+00 0. -1.
</event>
<event>
11    0  0.3510903E-009  0.9118800E+02  0.7816531E-02  0.1126479E+00
         25   -1    0    0    0    0  0.00000000000E+00  0.00000000000E+00  0.99999998245E-14  0.12500000000E+03  0.12500000000E+03 0.  0.
    3000001    1    3    3    0    0  0.27966140056E+02  0.26097035342E+02 -0.23484546758E+02  0.44896371565E+02  0.10000000000E+01 0. -1.
    1000022    2    1    0    0    0  0.42428535175E+02  0.35209306549E+02 -0.27683461251E+02  0.62500000098E+02  0.10000006037E+02 0.  0.
    3000022    2    3    3    0    0  0.14462395118E+02  0.91122712074E+01 -0.41989144922E+01  0.17603628533E+02  0.24999101038E+00 0.  0.
    1000022    2    1    0    0    0 -0.42428535175E+02 -0.35209306549E+02  0.27683461251E+02  0.62499999902E+02  0.10000004807E+02 0.  0.
    3000022    2    5    5    0    0 -0.41961951533E+02 -0.33543425432E+02  0.27818756633E+02  0.60497210589E+02  0.25000452052E+00 0.  0.
        -13    1    4    4    0    0  0.94382205713E+01  0.59892384200E+01 -0.27896322731E+01  0.11521460742E+02  0.10500000000E+00 0. -1.
         13    1    4    4    0    0  0.50241745470E+01  0.31230327874E+01 -0.14092822191E+01  0.60821677914E+01  0.10500000000E+00 0.  1.
    3000001    1    5    5    0    0 -0.46658364156E+00 -0.16658811172E+01 -0.13529538190E+00  0.20027893128E+01  0.10000000000E+01 0. -1.
        -13    1    6    6    0    0 -0.12150764267E+02 -0.97283440279E+01  0.80140875746E+01  0.17507666163E+02  0.10500000000E+00 0.  1.
         13    1    6    6    0    0 -0.29811187266E+02 -0.23815081404E+02  0.19804669058E+02  0.42989544426E+02  0.10500000000E+00 0. -1.
</event>
<event>
11    0  0.3510903E-009  0.9118800E+02  0.7816531E-02  0.1126479E+00
         25   -1    0    0    0    0  0.00000000000E+00  0.00000000000E+00  0.99999998245E-14  0.12500000000E+03  0.12500000000E+03 0.  0.
    3000001    1    3    3    0    0  0.11393263617E+02 -0.29786903009E+02  0.15049370570E+02  0.35278174574E+02  0.10000000000E+01 0. -1.
    1000022    2    1    0    0    0  0.18112597385E+02 -0.48305348426E+02  0.33834552259E+02  0.62500000952E+02  0.10000016092E+02 0.  0.
    3000022    2    3    3    0    0  0.67193337689E+01 -0.18518445417E+02  0.18785181689E+02  0.27221826378E+02  0.25002663445E+00 0.  0.
    1000022    2    1    0    0    0 -0.18112597385E+02  0.48305348426E+02 -0.33834552259E+02  0.62499999048E+02  0.10000004194E+02 0.  0.
    3000022    2    5    5    0    0 -0.10845859527E+02  0.37882105508E+02 -0.22121336573E+02  0.45189629504E+02  0.24999279670E+00 0.  0.
        -13    1    4    4    0    0  0.19901596743E+01 -0.56211780850E+01  0.56826649884E+01  0.82378446795E+01  0.10500000000E+00 0. -1.
         13    1    4    4    0    0  0.47291740946E+01 -0.12897267332E+02  0.13102516701E+02  0.18983981699E+02  0.10500000000E+00 0.  1.
    3000001    1    5    5    0    0 -0.72667378583E+01  0.10423242918E+02 -0.11713215686E+02  0.17310369544E+02  0.10000000000E+01 0. -1.
        -13    1    6    6    0    0 -0.75313552501E+01  0.26459068859E+02 -0.15422273158E+02  0.31538249336E+02  0.10500000000E+00 0. -1.
         13    1    6    6    0    0 -0.33145042770E+01  0.11423036648E+02 -0.66990634141E+01  0.13651380168E+02  0.10500000000E+00 0.  1.
</event>
<event>
11    0  0.3510903E-009  0.9118800E+02  0.7816531E-02  0.1126479E+00
         25   -1    0    0    0    0  0.00000000000E+00  0.00000000000E+00  0.99999998245E-14  0.12500000000E+03  0.12500000000E+03 0.  0.
    3000001    1    3    3    0    0 -0.15749495387E+02 -0.34924190997E+02 -0.39891229740E+02  0.55317772297E+02  0.10000000000E+01 0.  1.
    1000022    2    1    0    0    0 -0.15411889303E+02 -0.41308197782E+02 -0.43155026742E+02  0.62499999991E+02  0.10000006490E+02 0.  0.
    3000022    2    3    3    0    0  0.33760608334E+00 -0.63840067847E+01 -0.32637970022E+01  0.71822276933E+01  0.25000654486E+00 0.  0.
    1000022    2    1    0    0    0  0.15411889303E+02  0.41308197782E+02  0.43155026742E+02  0.62500000009E+02  0.10000006606E+02 0.  0.
    3000022    2    5    5    0    0 -0.11344701433E+00  0.19305949164E+01  0.55107132649E+01  0.58455561199E+01  0.24999741322E+00 0.  0.
        -13    1    4    4    0    0  0.21484242707E+00 -0.30374313692E+01 -0.15090663711E+01  0.34000666029E+01  0.10500000000E+00 0.  1.
         13    1    4    4    0    0  0.12276365627E+00 -0.33465754155E+01 -0.17547306310E+01  0.37821610905E+01  0.10500000000E+00 0. -1.
    3000001    1    5    5    0    0  0.15525336318E+02  0.39377602866E+02  0.37644313477E+02  0.56654443889E+02  0.10000000000E+01 0.  1.
        -13    1    6    6    0    0 -0.63536733182E-01  0.87036015810E+00  0.22942798926E+01  0.24568900966E+01  0.10500000000E+00 0.  1.
         13    1    6    6    0    0 -0.49910281145E-01  0.10602347583E+01  0.32164333723E+01  0.33886660233E+01  0.10500000000E+00 0.  1.
</event>
<event>
11    0  0.3510903E-009  0.9118800E+02  0.7816531E-02  0.1126479E+00
         25   -1    0    0    0    0  0.00000000000E+00  0.00000000000E+00  0.99999998245E-14  0.12500000000E+03  0.12500000000E+03 0.  0.
    3000001    1    3    3    0    0 -0.54307703636E+01 -0.73314211316E+01 -0.40434678149E+02  0.41463311488E+02  0.10000000000E+01 0. -1.
    1000022    2    1    0    0    0 -0.12605044452E+02 -0.15865787866E+02 -0.58272117057E+02  0.62500001941E+02  0.10000012305E+02 0.  0.
    3000022    2    3    3    0    0 -0.71742740881E+01 -0.85343667347E+01 -0.17837438908E+02  0.21036690453E+02  0.24998833611E+00 0.  0.
    1000022    2    1    0    0    0  0.12605044452E+02  0.15865787866E+02  0.58272117057E+02  0.62499998059E+02  0.99999880375E+01 0.  0.
    3000022    2    5    5    0    0  0.64288625374E+01  0.12925669198E+01  0.20777902597E+02  0.21789555789E+02  0.25000477393E+00 0.  0.
        -13    1    4    4    0    0 -0.55219949671E+01 -0.65689223818E+01 -0.13741048511E+02  0.16200944691E+02  0.10500000000E+00 0.  1.
         13    1    4    4    0    0 -0.16522791210E+01 -0.19654443530E+01 -0.40963903967E+01  0.48357457626E+01  0.10500000000E+00 0. -1.
    3000001    1    5    5    0    0  0.61761819143E+01  0.14573220947E+02  0.37494214460E+02  0.40710442269E+02  0.10000000000E+01 0. -1.
        -13    1    6    6    0    0  0.19326557876E+01  0.35389435861E+00  0.63323506685E+01  0.66309946162E+01  0.10500000000E+00 0.  1.
         13    1    6    6    0    0  0.44962067498E+01  0.93867256121E+00  0.14445551929E+02  0.15158561173E+02  0.10500000000E+00 0. -1.
</event>
<event>
11    0  0.3510903E-009  0.9118800E+02  0.7816531E-02  0.1126479E+00
         25   -1    0    0    0    0  0.00000000000E+00  0.00000000000E+00  0.99999998245E-14  0.12500000000E+03  0.12500000000E+03 0.  0.
    3000001    1    3    3    0    0 -0.10068563077E+02 -0.16074583415E+02  0.15006524377E+02  0.24206692634E+02  0.10000000000E+01 0. -1.
    1000022    2    1    0    0    0 -0.17331843639E+02 -0.36875324700E+02  0.46325669752E+02  0.62500000763E+02  0.10000002088E+02 0.  0.
    3000022    2    3    3    0    0 -0.72632805624E+01 -0.20800741285E+02  0.31319145375E+02  0.38293308129E+02  0.24999583035E+00 0.  0.
    1000022    2    1    0    0    0  0.17331843639E+02  0.36875324700E+02 -0.46325669752E+02  0.62499999237E+02  0.99999925535E+01 0.  0.
    3000022    2    5    5    0    0  0.17334936873E+02  0.27385613665E+02 -0.35891764033E+02  0.48360656479E+02  0.24999495930E+00 0.  0.
        -13    1    4    4    0    0 -0.18114363950E+01 -0.51302996536E+01  0.77080139135E+01  0.94353473619E+01  0.10500000000E+00 0.  1.
         13    1    4    4    0    0 -0.54518441674E+01 -0.15670441631E+02  0.23611131461E+02  0.28857960767E+02  0.10500000000E+00 0. -1.
    3000001    1    5    5    0    0 -0.30932336043E-02  0.94897110345E+01 -0.10433905719E+02  0.14139342758E+02  0.10000000000E+01 0. -1.
        -13    1    6    6    0    0  0.11082570905E+02  0.17426898115E+02 -0.22811553167E+02  0.30771710038E+02  0.10500000000E+00 0.  1.
         13    1    6    6    0    0  0.62523659682E+01  0.99587155500E+01 -0.13080210866E+02  0.17588946441E+02  0.10500000000E+00 0. -1.
</event>
<event>
11    0  0.3510903E-009  0.9118800E+02  0.7816531E-02  0.1126479E+00
         25   -1    0    0    0    0  0.00000000000E+00  0.00000000000E+00  0.99999998245E-14  0.12500000000E+03  0.12500000000E+03 0.  0.
    3000001    1    3    3    0    0  0.42183728138E+01 -0.79785428872E+00 -0.17472479847E+02  0.18019955402E+02  0.10000000000E+01 0.  1.
    1000022    2    1    0    0    0  0.15671613348E+02  0.12462086191E+02 -0.58355350794E+02  0.62500000138E+02  0.99999996900E+01 0.  0.
    3000022    2    3    3    0    0  0.11453240534E+02  0.13259940479E+02 -0.40882870947E+02  0.44480044736E+02  0.25000529630E+00 0.  0.
    1000022    2    1    0    0    0 -0.15671613348E+02 -0.12462086191E+02  0.58355350794E+02  0.62499999862E+02  0.99999979652E+01 0.  0.
    3000022    2    5    5    0    0 -0.82771742138E+01 -0.10937732931E+01  0.16546680112E+02  0.18535454914E+02  0.25002634766E+00 0.  0.
        -13    1    4    4    0    0  0.54851092232E+01  0.64025861631E+01 -0.19523429649E+02  0.21266284655E+02  0.10500000000E+00 0.  1.
         13    1    4    4    0    0  0.59681313110E+01  0.68573543163E+01 -0.21359441297E+02  0.23213760081E+02  0.10500000000E+00 0. -1.
    3000001    1    5    5    0    0 -0.73944391342E+01 -0.11368312898E+02  0.41808670682E+02  0.43964544948E+02  0.10000000000E+01 0. -1.
        -13    1    6    6    0    0 -0.42895904113E+01 -0.59062918614E+00  0.87218982242E+01  0.97381703808E+01  0.10500000000E+00 0.  1.
         13    1    6    6    0    0 -0.39875838024E+01 -0.50314410693E+00  0.78247818874E+01  0.87972845333E+01  0.10500000000E+00 0. -1.
</event>
<event>
11    0  0.3510903E-009  0.9118800E+02  0.7816531E-02  0.1126479E+00
         25   -1    0    0    0    0  0.00000000000E+00  0.00000000000E+00  0.99999998245E-14  0.12500000000E+03  0.12500000000E+03 0.  0.
    3000001    1    3    3    0    0  0.20982145080E+02  0.71779526589E+01  0.57064667352E+02  0.61230300314E+02  0.10000000000E+01 0.  1.
    1000022    2    1    0    0    0  0.20322002211E+02  0.80232657309E+01  0.57696562179E+02  0.62499998563E+02  0.99999983090E+01 0.  0.
    3000022    2    3    3    0    0 -0.66014286914E+00  0.84531307199E+00  0.63189482697E+00  0.12696982485E+01  0.24999954514E+00 0.  0.
    1000022    2    1    0    0    0 -0.20322002211E+02 -0.80232657309E+01 -0.57696562179E+02  0.62500001437E+02  0.10000016277E+02 0.  0.
    3000022    2    5    5    0    0 -0.10975610860E+02 -0.84211063774E+00 -0.18213181441E+02  0.21282755360E+02  0.25002681356E+00 0.  0.
        -13    1    4    4    0    0 -0.14143301391E+00  0.20238532157E+00  0.16577114844E+00  0.31538577880E+00  0.10500000000E+00 0. -1.
         13    1    4    4    0    0 -0.51870985523E+00  0.64292775042E+00  0.46612367852E+00  0.95431246971E+00  0.10500000000E+00 0.  1.
    3000001    1    5    5    0    0 -0.93463913516E+01 -0.71811550932E+01 -0.39483380738E+02  0.41217246078E+02  0.10000000000E+01 0.  1.
        -13    1    6    6    0    0 -0.48147010732E+01 -0.36305821733E+00 -0.78622379346E+01  0.92270779792E+01  0.10500000000E+00 0. -1.
         13    1    6    6    0    0 -0.61609097865E+01 -0.47905242041E+00 -0.10350943507E+02  0.12055677380E+02  0.10500000000E+00 0.  1.
</event>
<event>
11    0  0.3510903E-009  0.9118800E+02  0.7816531E-02  0.1126479E+00
         25   -1    0    0    0    0  0.00000000000E+00  0.00000000000E+00  0.99999998245E-14  0.12500000000E+03  0.12500000000E+03 0.  0.
    3000001    1    3    3    0    0 -0.37674354464E+02  0.72915526205E+01 -0.47579446235E+02  0.61133684888E+02  0.10000000000E+01 0. -1.
    1000022    2    1    0    0    0 -0.37241641531E+02  0.81645116870E+01 -0.48504127907E+02  0.62500003518E+02  0.10000045033E+02 0.  0.
    3000022    2    3    3    0    0  0.43271293300E+00  0.87295906647E+00 -0.92468167220E+00  0.13663186301E+01  0.24998477942E+00 0.  0.
    1000022    2    1    0    0    0  0.37241641531E+02 -0.81645116870E+01  0.48504127907E+02  0.62499996482E+02  0.10000001060E+02 0.  0.
    3000022    2    5    5    0    0  0.27504639683E+02 -0.19300581598E+01  0.30888067302E+02  0.41404897359E+02  0.24999010302E+00 0.  0.
        -13    1    4    4    0    0  0.29668871807E+00  0.47546415706E+00 -0.57423023753E+00  0.80923156499E+00  0.10500000000E+00 0.  1.
         13    1    4    4    0    0  0.13602421493E+00  0.39749490941E+00 -0.35045143467E+00  0.55708706511E+00  0.10500000000E+00 0. -1.
    3000001    1    5    5    0    0  0.97370018478E+01 -0.62344535271E+01  0.17616060605E+02  0.21095099123E+02  0.10000000000E+01 0. -1.
        -13    1    6    6    0    0  0.15477925480E+02 -0.10372391005E+01  0.17444674486E+02  0.23344586847E+02  0.10500000000E+00 0.  1.
         13    1    6    6    0    0  0.12026714203E+02 -0.89281905935E+00  0.13443392816E+02  0.18060310513E+02  0.10500000000E+00 0. -1.
</event>
<event>
11    0  0.3510903E-009  0.9118800E+02  0.7816531E-02  0.1126479E+00
         25   -1    0    0    0    0  0.00000000000E+00  0.00000000000E+00  0.99999998245E-14  0.12500000000E+03  0.12500000000E+03 0.  0.
    3000001    1    3    3    0    0  0.12513000428E+02  0.94335498388E+01 -0.22396095308E+02  0.27352369684E+02  0.10000000000E+01 0.  1.
    1000022    2    1    0    0    0  0.18097254359E+02  0.24625914924E+02 -0.53593877151E+02  0.62500000336E+02  0.10000003637E+02 0.  0.
    3000022    2    3    3    0    0  0.55842539307E+01  0.15192365086E+02 -0.31197781843E+02  0.35147630653E+02  0.24999937862E+00 0.  0.
    1000022    2    1    0    0    0 -0.18097254359E+02 -0.24625914924E+02  0.53593877151E+02  0.62499999664E+02  0.99999994344E+01 0.  0.
    3000022    2    5    5    0    0 -0.65537690713E+01 -0.53215416871E+01  0.23095751147E+02  0.24591602593E+02  0.25000421835E+00 0.  0.
        -13    1    4    4    0    0  0.16899401442E+01  0.44792638099E+01 -0.91894490489E+01  0.10362272955E+02  0.10500000000E+00 0. -1.
         13    1    4    4    0    0  0.38943137865E+01  0.10713101276E+02 -0.22008332795E+02  0.24785357698E+02  0.10500000000E+00 0.  1.
    3000001    1    5    5    0    0 -0.11543485287E+02 -0.19304373237E+02  0.30498126004E+02  0.37908397070E+02  0.10000000000E+01 0. -1.
        -13    1    6    6    0    0 -0.49198756083E+01 -0.40255210025E+01  0.17367928746E+02  0.18495025527E+02  0.10500000000E+00 0.  1.
         13    1    6    6    0    0 -0.16338934630E+01 -0.12960206846E+01  0.57278224014E+01  0.60965770663E+01  0.10500000000E+00 0. -1.
</event>
<event>
11    0  0.3510903E-009  0.9118800E+02  0.7816531E-02  0.1126479E+00
         25   -1    0    0    0    0  0.00000000000E+00  0.00000000000E+00  0.99999998245E-14  0.12500000000E+03  0.12500000000E+03 0.  0.
    3000001    1    3    3    0    0 -0.26715501490E+02  0.22380555509E+02  0.91818432626E+01  0.36054313618E+02  0.10000000000E+01 0. -1.
    1000022    2    1    0    0    0 -0.39840865438E+02  0.42805969230E+02  0.19662258792E+02  0.62499999771E+02  0.99999994955E+01 0.  0.
    3000022    2    3    3    0    0 -0.13125363949E+02  0.20425413721E+02  0.10480415529E+02  0.26445686153E+02  0.25000394023E+00 0.  0.
    1000022    2    1    0    0    0  0.39840865438E+02 -0.42805969230E+02 -0.19662258792E+02  0.62500000229E+02  0.10000002363E+02 0.  0.
    3000022    2    5    5    0    0  0.20542273866E+02 -0.26873296640E+02 -0.15093644952E+02  0.37041054356E+02  0.25000403316E+00 0.  0.
        -13    1    4    4    0    0 -0.95779996926E+01  0.14855539538E+02  0.76570768953E+01  0.19263099041E+02  0.10500000000E+00 0.  1.
         13    1    4    4    0    0 -0.35473642560E+01  0.55698741828E+01  0.28233386341E+01  0.71825871119E+01  0.10500000000E+00 0. -1.
    3000001    1    5    5    0    0  0.19298591573E+02 -0.15932672590E+02 -0.45686138404E+01  0.25458945873E+02  0.10000000000E+01 0.  1.
        -13    1    6    6    0    0  0.11825133894E+02 -0.15403242829E+02 -0.86088548895E+01  0.21241871122E+02  0.10500000000E+00 0. -1.
         13    1    6    6    0    0  0.87171399714E+01 -0.11470053811E+02 -0.64847900621E+01  0.15799183234E+02  0.10500000000E+00 0.  1.
</event>
<event>
11    0  0.3510903E-009  0.9118800E+02  0.7816531E-02  0.1126479E+00
         25   -1    0    0    0    0  0.00000000000E+00  0.00000000000E+00  0.99999998245E-14  0.12500000000E+03  0.12500000000E+03 0.  0.
    3000001    1    3    3    0    0 -0.15901184663E+01 -0.12274348581E+01  0.54848262287E+00  0.23099580636E+01  0.10000000000E+01 0. -1.
    1000022    2    1    0    0    0 -0.42412852538E+02 -0.34391125328E+02 -0.28716729614E+02  0.62499999861E+02  0.99999930583E+01 0.  0.
    3000022    2    3    3    0    0 -0.40822734071E+02 -0.33163690470E+02 -0.29265212236E+02  0.60190041797E+02  0.25000328095E+00 0.  0.
    1000022    2    1    0    0    0  0.42412852538E+02  0.34391125328E+02  0.28716729614E+02  0.62500000139E+02  0.99999947988E+01 0.  0.
    3000022    2    5    5    0    0  0.27178773366E+02  0.22688726998E+02  0.13200030229E+02  0.37785808777E+02  0.24998487168E+00 0.  0.
        -13    1    4    4    0    0 -0.26487867316E+02 -0.21546421064E+02 -0.18938708460E+02  0.39045372053E+02  0.10500000000E+00 0. -1.
         13    1    4    4    0    0 -0.14334866756E+02 -0.11617269406E+02 -0.10326503777E+02  0.21144669744E+02  0.10500000000E+00 0.  1.
    3000001    1    5    5    0    0  0.15234079172E+02  0.11702398331E+02  0.15516699384E+02  0.24714191362E+02  0.10000000000E+01 0. -1.
        -13    1    6    6    0    0  0.75997675739E+01  0.63138503257E+01  0.37176964101E+01  0.10557152301E+02  0.10500000000E+00 0.  1.
         13    1    6    6    0    0  0.19579005792E+02  0.16374876672E+02  0.94823338191E+01  0.27228656476E+02  0.10500000000E+00 0. -1.
</event>
<event>
11    0  0.3510903E-009  0.9118800E+02  0.7816531E-02  0.1126479E+00
         25   -1    0    0    0    0  0.00000000000E+00  0.00000000000E+00  0.99999998245E-14  0.12500000000E+03  0.12500000000E+03 0.  0.
    3000001    1    3    3    0    0  0.11349283581E+02  0.26396209269E+02 -0.14923964604E+02  0.32392758776E+02  0.10000000000E+01 0.  1.
    1000022    2    1    0    0    0  0.26180860385E+02  0.44252605614E+02 -0.34095739193E+02  0.62500000393E+02  0.10000003196E+02 0.  0.
    3000022    2    3    3    0    0  0.14831576804E+02  0.17856396344E+02 -0.19171774589E+02  0.30107241617E+02  0.24999206202E+00 0.  0.
    1000022    2    1    0    0    0 -0.26180860385E+02 -0.44252605614E+02  0.34095739193E+02  0.62499999607E+02  0.99999982819E+01 0.  0.
    3000022    2    5    5    0    0  0.47509605780E+00 -0.29129055832E+00 -0.25363727132E+00  0.66136363573E+00  0.25000707942E+00 0.  0.
        -13    1    4    4    0    0  0.80149359497E+01  0.95701580777E+01 -0.10366933085E+02  0.16226874329E+02  0.10500000000E+00 0.  1.
         13    1    4    4    0    0  0.68166408539E+01  0.82862382667E+01 -0.88048415037E+01  0.13880367288E+02  0.10500000000E+00 0. -1.
    3000001    1    5    5    0    0 -0.26655956443E+02 -0.43961315055E+02  0.34349376465E+02  0.61838635971E+02  0.10000000000E+01 0.  1.
        -13    1    6    6    0    0  0.34714697184E+00 -0.15000476027E+00 -0.14791361177E+00  0.41942327630E+00  0.10500000000E+00 0.  1.
         13    1    6    6    0    0  0.12794908597E+00 -0.14128579806E+00 -0.10572365955E+00  0.24194035943E+00  0.10500000000E+00 0. -1.
</event>
<event>
11    0  0.3510903E-009  0.9118800E+02  0.7816531E-02  0.1126479E+00
         25   -1    0    0    0    0  0.00000000000E+00  0.00000000000E+00  0.99999998245E-14  0.12500000000E+03  0.12500000000E+03 0.  0.
    3000001    1    3    3    0    0 -0.11980192780E+02 -0.16633865695E+02 -0.20020455872E+02  0.28671050911E+02  0.10000000000E+01 0. -1.
    1000022    2    1    0    0    0 -0.19380846454E+02 -0.43415673621E+02 -0.39315544569E+02  0.62500000916E+02  0.10000007226E+02 0.  0.
    3000022    2    3    3    0    0 -0.74006536734E+01 -0.26781807926E+02 -0.19295088697E+02  0.33828950005E+02  0.25000010816E+00 0.  0.
    1000022    2    1    0    0    0  0.19380846454E+02  0.43415673621E+02  0.39315544569E+02  0.62499999084E+02  0.99999957751E+01 0.  0.
    3000022    2    5    5    0    0  0.13544540871E+02  0.21894190510E+02  0.16489741761E+02  0.30574241897E+02  0.25003744512E+00 0.  0.
        -13    1    4    4    0    0 -0.28390889580E+01 -0.10506909161E+02 -0.75518407050E+01  0.13247523892E+02  0.10500000000E+00 0. -1.
         13    1    4    4    0    0 -0.45615647154E+01 -0.16274898765E+02 -0.11743247992E+02  0.20581426114E+02  0.10500000000E+00 0.  1.
    3000001    1    5    5    0    0  0.58363055832E+01  0.21521483111E+02  0.22825802807E+02  0.31925757187E+02  0.10000000000E+01 0.  1.
        -13    1    6    6    0    0  0.10316725380E+02  0.16685322738E+02  0.12544090059E+02  0.23285189238E+02  0.10500000000E+00 0.  1.
         13    1    6    6    0    0  0.32278154910E+01  0.52088677726E+01  0.39456517019E+01  0.72890526592E+01  0.10500000000E+00 0. -1.
</event>
<event>
11    0  0.3510903E-009  0.9118800E+02  0.7816531E-02  0.1126479E+00
         25   -1    0    0    0    0  0.00000000000E+00  0.00000000000E+00  0.99999998245E-14  0.12500000000E+03  0.12500000000E+03 0.  0.
    3000001    1    3    3    0    0 -0.20751873774E+02  0.54347166965E+01 -0.31264735852E+02  0.37929673325E+02  0.10000000000E+01 0. -1.
    1000022    2    1    0    0    0 -0.27174070811E+02  0.11681350684E+02 -0.54142091219E+02  0.62499999748E+02  0.99999924348E+01 0.  0.
    3000022    2    3    3    0    0 -0.64221970370E+01  0.62466339876E+01 -0.22877355367E+02  0.24570326423E+02  0.25000190020E+00 0.  0.
    1000022    2    1    0    0    0  0.27174070811E+02 -0.11681350684E+02  0.54142091219E+02  0.62500000252E+02  0.99999955829E+01 0.  0.
    3000022    2    5    5    0    0  0.81543870084E+01  0.71458513156E-01  0.92181877167E+01  0.12310021154E+02  0.25000444655E+00 0.  0.
        -13    1    4    4    0    0 -0.31868279964E+01  0.30073053498E+01 -0.11148633500E+02  0.11979265924E+02  0.10500000000E+00 0.  1.
         13    1    4    4    0    0 -0.32353690405E+01  0.32393286378E+01 -0.11728721867E+02  0.12591060499E+02  0.10500000000E+00 0. -1.
    3000001    1    5    5    0    0  0.19019683803E+02 -0.11752809197E+02  0.44923903502E+02  0.50189979098E+02  0.10000000000E+01 0. -1.
        -13    1    6    6    0    0  0.27183308886E+01 -0.25202343737E-01  0.31063568960E+01  0.41292173766E+01  0.10500000000E+00 0.  1.
         13    1    6    6    0    0  0.54360561198E+01  0.96660856893E-01  0.61118308207E+01  0.81808037771E+01  0.10500000000E+00 0. -1.
</event>
<event>
11    0  0.3510903E-009  0.9118800E+02  0.7816531E-02  0.1126479E+00
         25   -1    0    0    0    0  0.00000000000E+00  0.00000000000E+00  0.99999998245E-14  0.12500000000E+03  0.12500000000E+03 0.  0.
    3000001    1    3    3    0    0 -0.21842449243E+01  0.18956949655E+02 -0.48537863532E+02  0.52163790720E+02  0.10000000000E+01 0. -1.
    1000022    2    1    0    0    0  0.13816825777E+01  0.20841934481E+02 -0.58051314145E+02  0.62500001301E+02  0.99999904515E+01 0.  0.
    3000022    2    3    3    0    0  0.35659275020E+01  0.18849848264E+01 -0.95134506129E+01  0.10336210580E+02  0.24999970764E+00 0.  0.
    1000022    2    1    0    0    0 -0.13816825777E+01 -0.20841934481E+02  0.58051314145E+02  0.62499998699E+02  0.99999741912E+01 0.  0.
    3000022    2    5    5    0    0 -0.40629049198E+01 -0.56828591420E+01  0.26092446604E+02  0.27012596247E+02  0.25000352011E+00 0.  0.
        -13    1    4    4    0    0  0.27299045277E+01  0.14240630423E+01 -0.72522837865E+01  0.78795291356E+01  0.10500000000E+00 0.  1.
         13    1    4    4    0    0  0.83602297424E+00  0.46092178410E+00 -0.22611668265E+01  0.24566814449E+01  0.10500000000E+00 0. -1.
    3000001    1    5    5    0    0  0.26812223422E+01 -0.15159075339E+02  0.31958867540E+02  0.35487402453E+02  0.10000000000E+01 0.  1.
        -13    1    6    6    0    0 -0.27287988074E+01 -0.37276896250E+01  0.17182653356E+02  0.17793162008E+02  0.10500000000E+00 0.  1.
         13    1    6    6    0    0 -0.13341061124E+01 -0.19551695170E+01  0.89097932482E+01  0.92194342389E+01  0.10500000000E+00 0. -1.
</event>
<event>
11    0  0.3510903E-009  0.9118800E+02  0.7816531E-02  0.1126479E+00
         25   -1    0    0    0    0  0.00000000000E+00  0.00000000000E+00  0.99999998245E-14  0.12500000000E+03  0.12500000000E+03 0.  0.
    3000001    1    3    3    0    0 -0.33657514921E+01  0.42976435308E+01 -0.27297232877E+01  0.61846109216E+01  0.10000000000E+01 0.  1.
    1000022    2    1    0    0    0 -0.15191621854E+02  0.35953586801E+02 -0.47778702018E+02  0.62499999035E+02  0.99999867253E+01 0.  0.
    3000022    2    3    3    0    0 -0.11825870362E+02  0.31655943270E+02 -0.45048978730E+02  0.56315388114E+02  0.24999926894E+00 0.  0.
    1000022    2    1    0    0    0  0.15191621854E+02 -0.35953586801E+02  0.47778702018E+02  0.62500000965E+02  0.99999987852E+01 0.  0.
    3000022    2    5    5    0    0  0.13453442366E+02 -0.33558626061E+02  0.38995498652E+02  0.53177889281E+02  0.24999738899E+00 0.  0.
        -13    1    4    4    0    0 -0.29301362875E+01  0.77848134775E+01 -0.11109736433E+02  0.13878987288E+02  0.10500000000E+00 0.  1.
         13    1    4    4    0    0 -0.88957340743E+01  0.23871129792E+02 -0.33939242297E+02  0.42436400825E+02  0.10500000000E+00 0. -1.
    3000001    1    5    5    0    0  0.17381794881E+01 -0.23949607400E+01  0.87832033659E+01  0.93221116838E+01  0.10000000000E+01 0.  1.
        -13    1    6    6    0    0  0.86641188181E+01 -0.21744634996E+02  0.25204135949E+02  0.34397028941E+02  0.10500000000E+00 0. -1.
         13    1    6    6    0    0  0.47893235477E+01 -0.11813991064E+02  0.13791362703E+02  0.18780860340E+02  0.10500000000E+00 0.  1.
</event>
<event>
11    0  0.3510903E-009  0.9118800E+02  0.7816531E-02  0.1126479E+00
         25   -1    0    0    0    0  0.00000000000E+00  0.00000000000E+00  0.99999998245E-14  0.12500000000E+03  0.12500000000E+03 0.  0.
    3000001    1    3    3    0    0 -0.10621093795E+02 -0.17815568721E+02  0.34095621266E+01  0.21043460650E+02  0.10000000000E+01 0.  1.
    1000022    2    1    0    0    0 -0.30950366702E+02 -0.48123287827E+02  0.23075395962E+02  0.62500000555E+02  0.10000007016E+02 0.  0.
    3000022    2    3    3    0    0 -0.20329272907E+02 -0.30307719107E+02  0.19665833835E+02  0.41456539905E+02  0.25001218531E+00 0.  0.
    1000022    2    1    0    0    0  0.30950366702E+02  0.48123287827E+02 -0.23075395962E+02  0.62499999445E+02  0.10000000074E+02 0.  0.
    3000022    2    5    5    0    0  0.13066820703E+02  0.23843984496E+02 -0.60471260048E+01  0.27855118647E+02  0.25000398495E+00 0.  0.
        -13    1    4    4    0    0 -0.13123233443E+02 -0.19617991138E+02  0.12774027814E+02  0.26837877038E+02  0.10500000000E+00 0. -1.
         13    1    4    4    0    0 -0.72060394641E+01 -0.10689727968E+02  0.68918060213E+01  0.14618662867E+02  0.10500000000E+00 0.  1.
    3000001    1    5    5    0    0  0.17883545999E+02  0.24279303331E+02 -0.17028269957E+02  0.34644880798E+02  0.10000000000E+01 0.  1.
        -13    1    6    6    0    0  0.99517693936E+01  0.18193338772E+02 -0.46066423779E+01  0.21243056954E+02  0.10500000000E+00 0. -1.
         13    1    6    6    0    0  0.31150513093E+01  0.56506457240E+01 -0.14404836270E+01  0.66120616934E+01  0.10500000000E+00 0.  1.
</event>
<event>
11    0  0.3510903E-009  0.9118800E+02  0.7816531E-02  0.1126479E+00
         25   -1    0    0    0    0  0.00000000000E+00  0.00000000000E+00  0.99999998245E-14  0.12500000000E+03  0.12500000000E+03 0.  0.
    3000001    1    3    3    0    0  0.33261327274E+02  0.18862228446E+02  0.22143477704E+02  0.44197660106E+02  0.10000000000E+01 0. -1.
    1000022    2    1    0    0    0  0.43135200377E+02  0.25255810834E+02  0.36162811791E+02  0.62499996842E+02  0.99999578054E+01 0.  0.
    3000022    2    3    3    0    0  0.98738731028E+01  0.63935823888E+01  0.14019334087E+02  0.18302336736E+02  0.25007187617E+00 0.  0.
    1000022    2    1    0    0    0 -0.43135200377E+02 -0.25255810834E+02 -0.36162811791E+02  0.62500003158E+02  0.99999972825E+01 0.  0.
    3000022    2    5    5    0    0 -0.26193002387E+02 -0.13423770793E+02 -0.26739592014E+02  0.39766056838E+02  0.24999817292E+00 0.  0.
        -13    1    4    4    0    0  0.74953697325E+01  0.48517155204E+01  0.10671082374E+02  0.13914119985E+02  0.10500000000E+00 0.  1.
         13    1    4    4    0    0  0.23785033703E+01  0.15418668684E+01  0.33482517131E+01  0.43882167513E+01  0.10500000000E+00 0. -1.
    3000001    1    5    5    0    0 -0.16942197991E+02 -0.11832040042E+02 -0.94232197771E+01  0.22733946320E+02  0.10000000000E+01 0.  1.
        -13    1    6    6    0    0 -0.14014326152E+02 -0.71079938401E+01 -0.14292978302E+02  0.21242061286E+02  0.10500000000E+00 0. -1.
         13    1    6    6    0    0 -0.12178676235E+02 -0.63157769526E+01 -0.12446613711E+02  0.18523995552E+02  0.10500000000E+00 0.  1.
</event>
<event>
11    0  0.3510903E-009  0.9118800E+02  0.7816531E-02  0.1126479E+00
         25   -1    0    0    0    0  0.00000000000E+00  0.00000000000E+00  0.99999998245E-14  0.12500000000E+03  0.12500000000E+03 0.  0.
    3000001    1    3    3    0    0  0.21754055853E+01 -0.61941800673E+01  0.92458741625E+01  0.11383604227E+02  0.10000000000E+01 0. -1.
    1000022    2    1    0    0    0 -0.84639271280E+01 -0.31694479474E+02  0.52250090802E+02  0.62499999046E+02  0.99999900170E+01 0.  0.
    3000022    2    3    3    0    0 -0.10639332713E+02 -0.25500299407E+02  0.43004216640E+02  0.51116394819E+02  0.25000015373E+00 0.  0.
    1000022    2    1    0    0    0  0.84639271280E+01  0.31694479474E+02 -0.52250090802E+02  0.62500000954E+02  0.10000001942E+02 0.  0.
    3000022    2    5    5    0    0  0.94387591919E+01  0.19120450317E+02 -0.36787122805E+02  0.42521014842E+02  0.25000694827E+00 0.  0.
        -13    1    4    4    0    0 -0.39209118698E+01 -0.92947099048E+01  0.15620519552E+02  0.18595075643E+02  0.10500000000E+00 0.  1.
         13    1    4    4    0    0 -0.67184208434E+01 -0.16205589502E+02  0.27383697088E+02  0.32521319176E+02  0.10500000000E+00 0. -1.
    3000001    1    5    5    0    0 -0.97483206387E+00  0.12574029157E+02 -0.15462967997E+02  0.19978986112E+02  0.10000000000E+01 0.  1.
        -13    1    6    6    0    0  0.56993707669E+01  0.11482808929E+02 -0.22002980176E+02  0.25465268301E+02  0.10500000000E+00 0.  1.
         13    1    6    6    0    0  0.37393884250E+01  0.76376413884E+01 -0.14784142629E+02  0.17055746541E+02  0.10500000000E+00 0. -1.
</event>
<event>
11    0  0.3510903E-009  0.9118800E+02  0.7816531E-02  0.1126479E+00
         25   -1    0    0    0    0  0.00000000000E+00  0.00000000000E+00  0.99999998245E-14  0.12500000000E+03  0.12500000000E+03 0.  0.
    3000001    1    3    3    0    0  0.34271285967E+02 -0.49142150956E+02  0.54391820684E+01  0.60166907383E+02  0.10000000000E+01 0. -1.
    1000022    2    1    0    0    0  0.36378389059E+02 -0.49419662716E+02  0.63686610562E+01  0.62500000287E+02  0.99999969409E+01 0.  0.
    3000022    2    3    3    0    0  0.21071030920E+01 -0.27751175952E+00  0.92947898776E+00  0.23330929046E+01  0.24999019220E+00 0.  0.
    1000022    2    1    0    0    0 -0.36378389059E+02  0.49419662716E+02 -0.63686610562E+01  0.62499999713E+02  0.99999933515E+01 0.  0.
    3000022    2    5    5    0    0 -0.29221024161E+02  0.43227763172E+02 -0.81709355284E+01  0.52814149956E+02  0.24997264806E+00 0.  0.
        -13    1    4    4    0    0  0.51865368010E+00 -0.60030913926E-01  0.25694951576E+00  0.59131497880E+00  0.10500000000E+00 0.  1.
         13    1    4    4    0    0  0.15884494119E+01 -0.21748084560E+00  0.67252947201E+00  0.17417779259E+01  0.10500000000E+00 0. -1.
    3000001    1    5    5    0    0 -0.71573648972E+01  0.61918995439E+01  0.18022744722E+01  0.96858497565E+01  0.10000000000E+01 0.  1.
        -13    1    6    6    0    0 -0.10310054564E+02  0.15266843575E+02 -0.28278287984E+01  0.18638169937E+02  0.10500000000E+00 0. -1.
         13    1    6    6    0    0 -0.18910969597E+02  0.27960919596E+02 -0.53431067300E+01  0.34175980020E+02  0.10500000000E+00 0.  1.
</event>
<event>
11    0  0.3510903E-009  0.9118800E+02  0.7816531E-02  0.1126479E+00
         25   -1    0    0    0    0  0.00000000000E+00  0.00000000000E+00  0.99999998245E-14  0.12500000000E+03  0.12500000000E+03 0.  0.
    3000001    1    3    3    0    0 -0.24436060624E+02 -0.47944507519E+02 -0.30747918916E+02  0.61985735276E+02  0.10000000000E+01 0.  1.
    1000022    2    1    0    0    0 -0.24020757286E+02 -0.47774370305E+02 -0.30771137007E+02  0.62499999834E+02  0.99999933983E+01 0.  0.
    3000022    2    3    3    0    0  0.41530333811E+00  0.17013721434E+00 -0.23218091070E-01  0.51426455799E+00  0.25001084278E+00 0.  0.
    1000022    2    1    0    0    0  0.24020757286E+02  0.47774370305E+02  0.30771137007E+02  0.62500000166E+02  0.99999954675E+01 0.  0.
    3000022    2    5    5    0    0  0.83453462193E+01  0.10087751335E+02  0.40593169000E+01  0.13709416085E+02  0.25001035192E+00 0.  0.
        -13    1    4    4    0    0  0.12101961991E+00  0.11078974805E+00 -0.23632444201E-01  0.19622336531E+00  0.10500000000E+00 0. -1.
         13    1    4    4    0    0  0.29428371820E+00  0.59347466295E-01  0.41435313116E-03  0.31804119268E+00  0.10500000000E+00 0.  1.
    3000001    1    5    5    0    0  0.15675411067E+02  0.37686618970E+02  0.26711820107E+02  0.48790584081E+02  0.10000000000E+01 0. -1.
        -13    1    6    6    0    0  0.23587796259E+01  0.28616378764E+01  0.11923178077E+01  0.38968525009E+01  0.10500000000E+00 0. -1.
         13    1    6    6    0    0  0.59865665934E+01  0.72261134584E+01  0.28669990923E+01  0.98125635838E+01  0.10500000000E+00 0.  1.
</event>
<event>
11    0  0.3510903E-009  0.9118800E+02  0.7816531E-02  0.1126479E+00
         25   -1    0    0    0    0  0.00000000000E+00  0.00000000000E+00  0.99999998245E-14  0.12500000000E+03  0.12500000000E+03 0.  0.
    3000001    1    3    3    0    0  0.54431741151E+01  0.20974703398E+02  0.83781238726E+01  0.23254231587E+02  0.10000000000E+01 0.  1.
    1000022    2    1    0    0    0  0.21559376051E+02  0.49116828663E+02  0.30479180249E+02  0.62500000418E+02  0.10000003496E+02 0.  0.
    3000022    2    3    3    0    0  0.16116201935E+02  0.28142125266E+02  0.22101056377E+02  0.39245768831E+02  0.24999776015E+00 0.  0.
    1000022    2    1    0    0    0 -0.21559376051E+02 -0.49116828663E+02 -0.30479180249E+02  0.62499999582E+02  0.99999982711E+01 0.  0.
    3000022    2    5    5    0    0 -0.17078128290E+02 -0.43182340077E+02 -0.22688935878E+02  0.51683916943E+02  0.24999785138E+00 0.  0.
        -13    1    4    4    0    0  0.12294621420E+02  0.21496142722E+02  0.16865705734E+02  0.29961724294E+02  0.10500000000E+00 0. -1.
         13    1    4    4    0    0  0.38215805155E+01  0.66459825441E+01  0.52353506433E+01  0.92840445373E+01  0.10500000000E+00 0.  1.
    3000001    1    5    5    0    0 -0.44812477604E+01 -0.59344885865E+01 -0.77902443718E+01  0.10816082639E+02  0.10000000000E+01 0.  1.
        -13    1    6    6    0    0 -0.77808948824E+01 -0.19584144314E+02 -0.10360980330E+02  0.23482801623E+02  0.10500000000E+00 0.  1.
         13    1    6    6    0    0 -0.92972334078E+01 -0.23598195763E+02 -0.12327955547E+02  0.28201115320E+02  0.10500000000E+00 0. -1.
</event>
<event>
11    0  0.3510903E-009  0.9118800E+02  0.7816531E-02  0.1126479E+00
         25   -1    0    0    0    0  0.00000000000E+00  0.00000000000E+00  0.99999998245E-14  0.12500000000E+03  0.12500000000E+03 0.  0.
    3000001    1    3    3    0    0  0.47504585199E+02 -0.82158578970E+01  0.30269163176E+02  0.56933366099E+02  0.10000000000E+01 0.  1.
    1000022    2    1    0    0    0  0.52986678108E+02 -0.91491990600E+01  0.30248207686E+02  0.62499999643E+02  0.99999993398E+01 0.  0.
    3000022    2    3    3    0    0  0.54820929089E+01 -0.93334116302E+00 -0.20955489932E-01  0.55666335446E+01  0.25000299756E+00 0.  0.
    1000022    2    1    0    0    0 -0.52986678108E+02  0.91491990600E+01 -0.30248207686E+02  0.62500000357E+02  0.10000003797E+02 0.  0.
    3000022    2    5    5    0    0 -0.24457456829E+02  0.64207103899E+01 -0.19272895054E+02  0.31794648956E+02  0.25000410948E+00 0.  0.
        -13    1    4    4    0    0  0.37739339175E+01 -0.60801491594E+00 -0.49798589562E-01  0.38243645552E+01  0.10500000000E+00 0.  1.
         13    1    4    4    0    0  0.17081589914E+01 -0.32532624708E+00  0.28843099630E-01  0.17422689894E+01  0.10500000000E+00 0. -1.
    3000001    1    5    5    0    0 -0.28529221279E+02  0.27284886701E+01 -0.10975312633E+02  0.30705351400E+02  0.10000000000E+01 0.  1.
        -13    1    6    6    0    0 -0.17744438877E+02  0.46670355579E+01 -0.13937989427E+02  0.23041807790E+02  0.10500000000E+00 0.  1.
         13    1    6    6    0    0 -0.67130179526E+01  0.17536748320E+01 -0.53349056263E+01  0.87528411667E+01  0.10500000000E+00 0. -1.
</event>
<event>
11    0  0.3510903E-009  0.9118800E+02  0.7816531E-02  0.1126479E+00
         25   -1    0    0    0    0  0.00000000000E+00  0.00000000000E+00  0.99999998245E-14  0.12500000000E+03  0.12500000000E+03 0.  0.
    3000001    1    3    3    0    0 -0.27874849193E+02  0.45852477173E+01 -0.28178810460E+02  0.39913369603E+02  0.10000000000E+01 0.  1.
    1000022    2    1    0    0    0 -0.39695324499E+02  0.16553299303E+01 -0.47199472885E+02  0.62500006306E+02  0.10000082169E+02 0.  0.
    3000022    2    3    3    0    0 -0.11820475306E+02 -0.29299177870E+01 -0.19020662425E+02  0.22586636703E+02  0.25000751145E+00 0.  0.
    1000022    2    1    0    0    0  0.39695324499E+02 -0.16553299303E+01  0.47199472885E+02  0.62499993694E+02  0.10000003341E+02 0.  0.
    3000022    2    5    5    0    0  0.16268005912E+02 -0.51457829330E+01  0.22817522408E+02  0.28492611739E+02  0.24999304604E+00 0.  0.
        -13    1    4    4    0    0 -0.68334046398E+01 -0.17567434446E+01 -0.11059175985E+02  0.13118611397E+02  0.10500000000E+00 0. -1.
         13    1    4    4    0    0 -0.49870706662E+01 -0.11731743424E+01 -0.79614864396E+01  0.94680253061E+01  0.10500000000E+00 0.  1.
    3000001    1    5    5    0    0  0.23427318587E+02  0.34904530027E+01  0.24381950477E+02  0.34007381955E+02  0.10000000000E+01 0.  1.
        -13    1    6    6    0    0  0.73859958874E+01 -0.23346115318E+01  0.10470718573E+02  0.13024988242E+02  0.10500000000E+00 0. -1.
         13    1    6    6    0    0  0.88820100243E+01 -0.28111714012E+01  0.12346803835E+02  0.15467623497E+02  0.10500000000E+00 0.  1.
</event>
<event>
11    0  0.3510903E-009  0.9118800E+02  0.7816531E-02  0.1126479E+00
         25   -1    0    0    0    0  0.00000000000E+00  0.00000000000E+00  0.99999998245E-14  0.12500000000E+03  0.12500000000E+03 0.  0.
    3000001    1    3    3    0    0  0.26784321074E+02 -0.36895746753E+02  0.36684472546E+02  0.58527314220E+02  0.10000000000E+01 0. -1.
    1000022    2    1    0    0    0  0.27276263685E+02 -0.40758686691E+02  0.37429730236E+02  0.62499998070E+02  0.99999975931E+01 0.  0.
    3000022    2    3    3    0    0  0.49194261095E+00 -0.38629399380E+01  0.74525769048E+00  0.39726838504E+01  0.24999090493E+00 0.  0.
    1000022    2    1    0    0    0 -0.27276263685E+02  0.40758686691E+02 -0.37429730236E+02  0.62500001930E+02  0.10000021712E+02 0.  0.
    3000022    2    5    5    0    0 -0.78098093806E+01  0.15947219589E+02 -0.84817623382E+01  0.19680186559E+02  0.25003090369E+00 0.  0.
        -13    1    4    4    0    0  0.17430971879E+00 -0.18124447927E+01  0.38636725722E+00  0.18643080920E+01  0.10500000000E+00 0. -1.
         13    1    4    4    0    0  0.31763289215E+00 -0.20504951454E+01  0.35889043326E+00  0.21083757584E+01  0.10500000000E+00 0.  1.
    3000001    1    5    5    0    0 -0.19466454304E+02  0.24811467102E+02 -0.28947967898E+02  0.42819815370E+02  0.10000000000E+01 0. -1.
        -13    1    6    6    0    0 -0.46641603749E+01  0.94394726812E+01 -0.50864591357E+01  0.11693636220E+02  0.10500000000E+00 0.  1.
         13    1    6    6    0    0 -0.31456490057E+01  0.65077469079E+01 -0.33953032025E+01  0.79865503392E+01  0.10500000000E+00 0. -1.
</event>
<event>
11    0  0.3510903E-009  0.9118800E+02  0.7816531E-02  0.1126479E+00
         25   -1    0    0    0    0  0.00000000000E+00  0.00000000000E+00  0.99999998245E-14  0.12500000000E+03  0.12500000000E+03 0.  0.
    3000001    1    3    3    0    0  0.24098772210E+02  0.42420060221E+02 -0.74056963438E+01  0.49356424804E+02  0.10000000000E+01 0.  1.
    1000022    2    1    0    0    0  0.26142693666E+02  0.55401026608E+02 -0.73168372548E+01  0.62499997298E+02  0.99999686759E+01 0.  0.
    3000022    2    3    3    0    0  0.20439214557E+01  0.12980966388E+02  0.88859088924E-01  0.13143572494E+02  0.24999737187E+00 0.  0.
    1000022    2    1    0    0    0 -0.26142693666E+02 -0.55401026608E+02  0.73168372548E+01  0.62500002702E+02  0.10000002450E+02 0.  0.
    3000022    2    5    5    0    0 -0.20366081058E+02 -0.43044642744E+02  0.97515615906E+01  0.48608373639E+02  0.25001561897E+00 0.  0.
        -13    1    4    4    0    0  0.11155707392E+01  0.66496496137E+01  0.47536451307E-01  0.67435615792E+01  0.10500000000E+00 0.  1.
         13    1    4    4    0    0  0.92835071654E+00  0.63313167739E+01  0.41322637617E-01  0.64000109144E+01  0.10500000000E+00 0. -1.
    3000001    1    5    5    0    0 -0.57766126076E+01 -0.12356383865E+02 -0.24347243358E+01  0.13891629063E+02  0.10000000000E+01 0.  1.
        -13    1    6    6    0    0 -0.97348686994E+01 -0.20696033902E+02  0.46390646267E+01  0.23337211348E+02  0.10500000000E+00 0.  1.
         13    1    6    6    0    0 -0.10631212359E+02 -0.22348608841E+02  0.51124969639E+01  0.25271162292E+02  0.10500000000E+00 0. -1.
</event>
<event>
11    0  0.3510903E-009  0.9118800E+02  0.7816531E-02  0.1126479E+00
         25   -1    0    0    0    0  0.00000000000E+00  0.00000000000E+00  0.99999998245E-14  0.12500000000E+03  0.12500000000E+03 0.  0.
    3000001    1    3    3    0    0  0.16189908229E+02 -0.76907337134E+01  0.17234205778E+02  0.24885304144E+02  0.10000000000E+01 0. -1.
    1000022    2    1    0    0    0  0.31710501012E+02 -0.27234137849E+02  0.45376157918E+02  0.62500000892E+02  0.10000013259E+02 0.  0.
    3000022    2    3    3    0    0  0.15520592783E+02 -0.19543404136E+02  0.28141952140E+02  0.37614696748E+02  0.24999124743E+00 0.  0.
    1000022    2    1    0    0    0 -0.31710501012E+02  0.27234137849E+02 -0.45376157918E+02  0.62499999108E+02  0.10000002114E+02 0.  0.
    3000022    2    5    5    0    0 -0.46026722219E+01  0.42817384521E+01 -0.12939145943E+02  0.14387560325E+02  0.25003722180E+00 0.  0.
        -13    1    4    4    0    0  0.10809691560E+02 -0.13659144473E+02  0.19695406806E+02  0.26293378132E+02  0.10500000000E+00 0.  1.
         13    1    4    4    0    0  0.47109012226E+01 -0.58842596633E+01  0.84465453341E+01  0.11321318616E+02  0.10500000000E+00 0. -1.
    3000001    1    5    5    0    0 -0.27107828790E+02  0.22952399397E+02 -0.32437011975E+02  0.48112438783E+02  0.10000000000E+01 0.  1.
        -13    1    6    6    0    0 -0.19808308376E+01  0.18088166549E+01 -0.53843129461E+01  0.60164241373E+01  0.10500000000E+00 0.  1.
         13    1    6    6    0    0 -0.26218413844E+01  0.24729217972E+01 -0.75548329971E+01  0.83711361877E+01  0.10500000000E+00 0. -1.
</event>
<event>
11    0  0.3510903E-009  0.9118800E+02  0.7816531E-02  0.1126479E+00
         25   -1    0    0    0    0  0.00000000000E+00  0.00000000000E+00  0.99999998245E-14  0.12500000000E+03  0.12500000000E+03 0.  0.
    3000001    1    3    3    0    0 -0.33902447218E+01 -0.18647694629E-01  0.29859517804E+01  0.46270957462E+01  0.10000000000E+01 0.  1.
    1000022    2    1    0    0    0 -0.20219946283E+02  0.11870411639E+02  0.57065726027E+02  0.62500000153E+02  0.10000001597E+02 0.  0.
    3000022    2    3    3    0    0 -0.16829701561E+02  0.11889059334E+02  0.54079774247E+02  0.57872904407E+02  0.24999081213E+00 0.  0.
    1000022    2    1    0    0    0  0.20219946283E+02 -0.11870411639E+02 -0.57065726027E+02  0.62499999847E+02  0.99999996843E+01 0.  0.
    3000022    2    5    5    0    0  0.16381094743E+02 -0.10686173557E+02 -0.35420687069E+02  0.40462601804E+02  0.25000414605E+00 0.  0.
        -13    1    4    4    0    0 -0.12133296870E+02  0.85230411669E+01  0.38928516810E+02  0.41656927032E+02  0.10500000000E+00 0. -1.
         13    1    4    4    0    0 -0.46964046908E+01  0.33660181672E+01  0.15151257437E+02  0.16215977375E+02  0.10500000000E+00 0.  1.
    3000001    1    5    5    0    0  0.38388515401E+01 -0.11842380821E+01 -0.21645038959E+02  0.22037398043E+02  0.10000000000E+01 0.  1.
        -13    1    6    6    0    0  0.43478959529E+01 -0.28065751028E+01 -0.93263410070E+01  0.10666429797E+02  0.10500000000E+00 0.  1.
         13    1    6    6    0    0  0.12033198790E+02 -0.78795984546E+01 -0.26094346062E+02  0.29796172008E+02  0.10500000000E+00 0. -1.
</event>
<event>
11    0  0.3510903E-009  0.9118800E+02  0.7816531E-02  0.1126479E+00
         25   -1    0    0    0    0  0.00000000000E+00  0.00000000000E+00  0.99999998245E-14  0.12500000000E+03  0.12500000000E+03 0.  0.
    3000001    1    3    3    0    0 -0.35936932214E+01  0.26083825308E+01  0.25913753767E+01  0.52377014749E+01  0.10000000000E+01 0.  1.
    1000022    2    1    0    0    0 -0.16745651663E+02  0.36731653307E+02  0.46654247570E+02  0.62499999984E+02  0.99999988707E+01 0.  0.
    3000022    2    3    3    0    0 -0.13151958442E+02  0.34123270776E+02  0.44062872194E+02  0.57262298509E+02  0.25001067352E+00 0.  0.
    1000022    2    1    0    0    0  0.16745651663E+02 -0.36731653307E+02 -0.46654247570E+02  0.62500000016E+02  0.99999990668E+01 0.  0.
    3000022    2    5    5    0    0  0.94646037600E+01 -0.10210410859E+02 -0.13275781743E+02  0.19239025217E+02  0.24999234318E+00 0.  0.
        -13    1    4    4    0    0 -0.77550240536E+01  0.19960759098E+02  0.25756336769E+02  0.33495853633E+02  0.10500000000E+00 0. -1.
         13    1    4    4    0    0 -0.53969343881E+01  0.14162511678E+02  0.18306535425E+02  0.23766444877E+02  0.10500000000E+00 0.  1.
    3000001    1    5    5    0    0  0.72810479031E+01 -0.26521242447E+02 -0.33378465828E+02  0.43260974799E+02  0.10000000000E+01 0.  1.
        -13    1    6    6    0    0  0.56774589884E+01 -0.62052987591E+01 -0.80616030781E+01  0.11650739995E+02  0.10500000000E+00 0.  1.
         13    1    6    6    0    0  0.37871447716E+01 -0.40051121004E+01 -0.52141786646E+01  0.75882852216E+01  0.10500000000E+00 0. -1.
</event>
<event>
11    0  0.3510903E-009  0.9118800E+02  0.7816531E-02  0.1126479E+00
         25   -1    0    0    0    0  0.00000000000E+00  0.00000000000E+00  0.99999998245E-14  0.12500000000E+03  0.12500000000E+03 0.  0.
    3000001    1    3    3    0    0  0.56529771909E+00 -0.87103904000E+01  0.22651202056E+02  0.24295419671E+02  0.10000000000E+01 0. -1.
    1000022    2    1    0    0    0  0.99248807466E+01 -0.13460427946E+02  0.59384876523E+02  0.62500000517E+02  0.10000006333E+02 0.  0.
    3000022    2    3    3    0    0  0.93595830275E+01 -0.47500375462E+01  0.36733674467E+02  0.38204580846E+02  0.25001319820E+00 0.  0.
    1000022    2    1    0    0    0 -0.99248807466E+01  0.13460427946E+02 -0.59384876523E+02  0.62499999483E+02  0.99999998640E+01 0.  0.
    3000022    2    5    5    0    0 -0.50414577212E+01  0.64200721773E+01 -0.44934561255E+02  0.45670678607E+02  0.24993291019E+00 0.  0.
        -13    1    4    4    0    0  0.30663188253E+01 -0.16096165237E+01  0.12039373377E+02  0.12527997159E+02  0.10500000000E+00 0. -1.
         13    1    4    4    0    0  0.62932642021E+01 -0.31404210225E+01  0.24694301090E+02  0.25676583687E+02  0.10500000000E+00 0.  1.
    3000001    1    5    5    0    0 -0.48834230253E+01  0.70403557689E+01 -0.14450315268E+02  0.16829320876E+02  0.10000000000E+01 0. -1.
        -13    1    6    6    0    0 -0.25415924857E+01  0.31984894282E+01 -0.22843539108E+02  0.23206213198E+02  0.10500000000E+00 0.  1.
         13    1    6    6    0    0 -0.24998652355E+01  0.32215827492E+01 -0.22091022147E+02  0.22464465409E+02  0.10500000000E+00 0. -1.
</event>
<event>
11    0  0.3510903E-009  0.9118800E+02  0.7816531E-02  0.1126479E+00
         25   -1    0    0    0    0  0.00000000000E+00  0.00000000000E+00  0.99999998245E-14  0.12500000000E+03  0.12500000000E+03 0.  0.
    3000001    1    3    3    0    0  0.24564626545E+02 -0.28307124901E+01  0.78233096511E+01  0.25954536875E+02  0.10000000000E+01 0.  1.
    1000022    2    1    0    0    0  0.57225809428E+02 -0.17653692148E+02  0.14825788550E+02  0.62499999024E+02  0.99999880354E+01 0.  0.
    3000022    2    3    3    0    0  0.32661182883E+02 -0.14822979658E+02  0.70024788992E+01  0.36545462150E+02  0.24999938113E+00 0.  0.
    1000022    2    1    0    0    0 -0.57225809428E+02  0.17653692148E+02 -0.14825788550E+02  0.62500000976E+02  0.10000000232E+02 0.  0.
    3000022    2    5    5    0    0 -0.44319132508E+02  0.93574227913E+01 -0.12093293108E+02  0.46883441632E+02  0.24998716501E+00 0.  0.
        -13    1    4    4    0    0  0.23590649513E+02 -0.10720221982E+02  0.50962417853E+01  0.26408797950E+02  0.10500000000E+00 0. -1.
         13    1    4    4    0    0  0.90705333701E+01 -0.41027576758E+01  0.19062371139E+01  0.10136664200E+02  0.10500000000E+00 0.  1.
    3000001    1    5    5    0    0 -0.12906676921E+02  0.82962693570E+01 -0.27324954419E+01  0.15616559343E+02  0.10000000000E+01 0.  1.
        -13    1    6    6    0    0 -0.30006366264E+02  0.63767096936E+01 -0.81571613825E+01  0.31742632999E+02  0.10500000000E+00 0. -1.
         13    1    6    6    0    0 -0.14312766244E+02  0.29807130977E+01 -0.39361317259E+01  0.15140808634E+02  0.10500000000E+00 0.  1.
</event>
<event>
11    0  0.3510903E-009  0.9118800E+02  0.7816531E-02  0.1126479E+00
         25   -1    0    0    0    0  0.00000000000E+00  0.00000000000E+00  0.99999998245E-14  0.12500000000E+03  0.12500000000E+03 0.  0.
    3000001    1    3    3    0    0 -0.12102629548E+02  0.19597078951E+02 -0.74301294543E+01  0.24222426986E+02  0.10000000000E+01 0.  1.
    1000022    2    1    0    0    0 -0.28974302281E+02  0.53954842438E+02 -0.74575286807E+01  0.62499998805E+02  0.99999950729E+01 0.  0.
    3000022    2    3    3    0    0 -0.16871672733E+02  0.34357763487E+02 -0.27399226382E-01  0.38277571819E+02  0.25000203549E+00 0.  0.
    1000022    2    1    0    0    0  0.28974302281E+02 -0.53954842438E+02  0.74575286807E+01  0.62500001195E+02  0.10000010013E+02 0.  0.
    3000022    2    5    5    0    0  0.20133808716E+02 -0.32088182701E+02  0.48898552190E+00  0.37885661304E+02  0.25000634550E+00 0.  0.
        -13    1    4    4    0    0 -0.10743208408E+02  0.21880872133E+02 -0.75997987614E-01  0.24376338792E+02  0.10500000000E+00 0.  1.
         13    1    4    4    0    0 -0.61284643248E+01  0.12476891354E+02  0.48598761232E-01  0.13901233027E+02  0.10500000000E+00 0. -1.
    3000001    1    5    5    0    0  0.88404935649E+01 -0.21866659737E+02  0.69685431587E+01  0.24614339891E+02  0.10000000000E+01 0. -1.
        -13    1    6    6    0    0  0.14681127137E+02 -0.23357211069E+02  0.38567932422E+00  0.27590842257E+02  0.10500000000E+00 0.  1.
         13    1    6    6    0    0  0.54526815786E+01 -0.87309716319E+01  0.10330619768E+00  0.10294819047E+02  0.10500000000E+00 0. -1.
</event>
<event>
11    0  0.3510903E-009  0.9118800E+02  0.7816531E-02  0.1126479E+00
         25   -1    0    0    0    0  0.00000000000E+00  0.00000000000E+00  0.99999998245E-14  0.12500000000E+03  0.12500000000E+03 0.  0.
    3000001    1    3    3    0    0  0.21949028481E+01  0.22907336222E+02 -0.15974076954E+02  0.28030961200E+02  0.10000000000E+01 0.  1.
    1000022    2    1    0    0    0  0.15282743178E+02  0.50353558163E+02 -0.32205696597E+02  0.62500000044E+02  0.10000002673E+02 0.  0.
    3000022    2    3    3    0    0  0.13087840330E+02  0.27446221941E+02 -0.16231619643E+02  0.34469038843E+02  0.24999839922E+00 0.  0.
    1000022    2    1    0    0    0 -0.15282743178E+02 -0.50353558163E+02  0.32205696597E+02  0.62499999956E+02  0.10000002126E+02 0.  0.
    3000022    2    5    5    0    0 -0.95703701976E+01 -0.26742818366E+02  0.11797264534E+02  0.30757247427E+02  0.24999793259E+00 0.  0.
        -13    1    4    4    0    0  0.35794484225E+01  0.74301972948E+01 -0.44208569447E+01  0.93581666994E+01  0.10500000000E+00 0.  1.
         13    1    4    4    0    0  0.95083919078E+01  0.20016024646E+02 -0.11810762698E+02  0.25110872144E+02  0.10500000000E+00 0. -1.
    3000001    1    5    5    0    0 -0.57123729808E+01 -0.23610739797E+02  0.20408432062E+02  0.31742752529E+02  0.10000000000E+01 0. -1.
        -13    1    6    6    0    0 -0.26084868621E+01 -0.73408216860E+01  0.31998382281E+01  0.84226988798E+01  0.10500000000E+00 0.  1.
         13    1    6    6    0    0 -0.69618833355E+01 -0.19401996680E+02  0.85974263061E+01  0.22334548548E+02  0.10500000000E+00 0. -1.
</event>
<event>
11    0  0.3510903E-009  0.9118800E+02  0.7816531E-02  0.1126479E+00
         25   -1    0    0    0    0  0.00000000000E+00  0.00000000000E+00  0.99999998245E-14  0.12500000000E+03  0.12500000000E+03 0.  0.
    3000001    1    3    3    0    0 -0.38245133762E+01  0.63736925723E+01 -0.12774609932E+00  0.75011451550E+01  0.10000000000E+01 0.  1.
    1000022    2    1    0    0    0 -0.34415132843E+02  0.44478303349E+02 -0.25367876244E+02  0.62500000116E+02  0.10000001594E+02 0.  0.
    3000022    2    3    3    0    0 -0.30590619467E+02  0.38104610777E+02 -0.25240130144E+02  0.54998854961E+02  0.25003084705E+00 0.  0.
    1000022    2    1    0    0    0  0.34415132843E+02 -0.44478303349E+02  0.25367876244E+02  0.62499999884E+02  0.10000000150E+02 0.  0.
    3000022    2    5    5    0    0  0.11049485665E+02 -0.77861590288E+01  0.45502278273E+01  0.14264728469E+02  0.24999829490E+00 0.  0.
        -13    1    4    4    0    0 -0.10946014232E+02  0.13709260871E+02 -0.90229241982E+01  0.19727727879E+02  0.10500000000E+00 0. -1.
         13    1    4    4    0    0 -0.19644605235E+02  0.24395349906E+02 -0.16217205946E+02  0.35271127081E+02  0.10500000000E+00 0.  1.
    3000001    1    5    5    0    0  0.23365647178E+02 -0.36692144320E+02  0.20817648416E+02  0.48235271415E+02  0.10000000000E+01 0. -1.
        -13    1    6    6    0    0  0.43377421244E+01 -0.30869308613E+01  0.17318830112E+01  0.55996064723E+01  0.10500000000E+00 0. -1.
         13    1    6    6    0    0  0.67117435404E+01 -0.46992281675E+01  0.28183448160E+01  0.86651219971E+01  0.10500000000E+00 0.  1.
</event>
<event>
11    0  0.3510903E-009  0.9118800E+02  0.7816531E-02  0.1126479E+00
         25   -1    0    0    0    0  0.00000000000E+00  0.00000000000E+00  0.99999998245E-14  0.12500000000E+03  0.12500000000E+03 0.  0.
    3000001    1    3    3    0    0  0.97860303352E+01  0.16779785766E+02 -0.33583233362E+01  0.19738438026E+02  0.10000000000E+01 0.  1.
    1000022    2    1    0    0    0  0.41302216316E+02  0.45677486456E+02 -0.37342012767E+01  0.62499996308E+02  0.99999718847E+01 0.  0.
    3000022    2    3    3    0    0  0.31516185981E+02  0.28897700689E+02 -0.37587794047E+00  0.42761558281E+02  0.24999694958E+00 0.  0.
    1000022    2    1    0    0    0 -0.41302216316E+02 -0.45677486456E+02  0.37342012767E+01  0.62500003692E+02  0.10000018041E+02 0.  0.
    3000022    2    5    5    0    0 -0.21300554651E+02 -0.16279302833E+02  0.20591957164E+01  0.26889256532E+02  0.25000136392E+00 0.  0.
        -13    1    4    4    0    0  0.17935384709E+02  0.16510658488E+02 -0.16993339532E+00  0.24378674507E+02  0.10500000000E+00 0. -1.
         13    1    4    4    0    0  0.13580801272E+02  0.12387042201E+02 -0.20594454515E+00  0.18382883774E+02  0.10500000000E+00 0.  1.
    3000001    1    5    5    0    0 -0.20001661665E+02 -0.29398183623E+02  0.16750055602E+01  0.35610747160E+02  0.10000000000E+01 0. -1.
        -13    1    6    6    0    0 -0.10488370427E+02 -0.79399930565E+01  0.97939058318E+00  0.13191650195E+02  0.10500000000E+00 0. -1.
         13    1    6    6    0    0 -0.10812184224E+02 -0.83393097767E+01  0.10798051333E+01  0.13697606337E+02  0.10500000000E+00 0.  1.
</event>
<event>
11    0  0.3510903E-009  0.9118800E+02  0.7816531E-02  0.1126479E+00
         25   -1    0    0    0    0  0.00000000000E+00  0.00000000000E+00  0.99999998245E-14  0.12500000000E+03  0.12500000000E+03 0.  0.
    3000001    1    3    3    0    0  0.23267726964E+02  0.26547460293E+02 -0.10092336076E+02  0.36728871661E+02  0.10000000000E+01 0.  1.
    1000022    2    1    0    0    0  0.41823674993E+02  0.39316060802E+02 -0.22611449496E+02  0.62500000137E+02  0.99999970971E+01 0.  0.
    3000022    2    3    3    0    0  0.18555948030E+02  0.12768600509E+02 -0.12519113420E+02  0.25771128476E+02  0.24999171397E+00 0.  0.
    1000022    2    1    0    0    0 -0.41823674993E+02 -0.39316060802E+02  0.22611449496E+02  0.62499999863E+02  0.99999953843E+01 0.  0.
    3000022    2    5    5    0    0 -0.20504675688E+02 -0.22973171921E+02  0.76263570151E+01  0.31724315549E+02  0.25004510980E+00 0.  0.
        -13    1    4    4    0    0  0.90242754128E+01  0.62812751650E+01 -0.60727358201E+01  0.12561095086E+02  0.10500000000E+00 0.  1.
         13    1    4    4    0    0  0.95316726168E+01  0.64873253436E+01 -0.64463775998E+01  0.13210033389E+02  0.10500000000E+00 0. -1.
    3000001    1    5    5    0    0 -0.21318999305E+02 -0.16342888881E+02  0.14985092481E+02  0.30775684314E+02  0.10000000000E+01 0.  1.
        -13    1    6    6    0    0 -0.11262060218E+02 -0.12639126204E+02  0.42597953433E+01  0.17456757801E+02  0.10500000000E+00 0. -1.
         13    1    6    6    0    0 -0.92426154698E+01 -0.10334045717E+02  0.33665616718E+01  0.14267557748E+02  0.10500000000E+00 0.  1.
</event>
<event>
11    0  0.3510903E-009  0.9118800E+02  0.7816531E-02  0.1126479E+00
         25   -1    0    0    0    0  0.00000000000E+00  0.00000000000E+00  0.99999998245E-14  0.12500000000E+03  0.12500000000E+03 0.  0.
    3000001    1    3    3    0    0  0.16020071609E+02  0.83260338191E+01 -0.89540897252E+01  0.20177741606E+02  0.10000000000E+01 0. -1.
    1000022    2    1    0    0    0  0.48215800130E+02  0.14128455315E+02 -0.35803275000E+02  0.62500008591E+02  0.99999970646E+01 0.  0.
    3000022    2    3    3    0    0  0.32195728521E+02  0.58024214957E+01 -0.26849185275E+02  0.42322266984E+02  0.25000509083E+00 0.  0.
    1000022    2    1    0    0    0 -0.48215800130E+02 -0.14128455315E+02  0.35803275000E+02  0.62499991409E+02  0.99998896825E+01 0.  0.
    3000022    2    5    5    0    0 -0.11630462999E+02 -0.79525537643E+00  0.12569274652E+02  0.17144948847E+02  0.25001005627E+00 0.  0.
        -13    1    4    4    0    0  0.24742228812E+02  0.44547981451E+01 -0.20643800070E+02  0.32529995687E+02  0.10500000000E+00 0.  1.
         13    1    4    4    0    0  0.74534997099E+01  0.13476233506E+01 -0.62053852050E+01  0.97922712975E+01  0.10500000000E+00 0. -1.
    3000001    1    5    5    0    0 -0.36585337132E+02 -0.13333199938E+02  0.23234000348E+02  0.45355042562E+02  0.10000000000E+01 0. -1.
        -13    1    6    6    0    0 -0.47277929702E+01 -0.26031444522E+00  0.51204397284E+01  0.69749349812E+01  0.10500000000E+00 0. -1.
         13    1    6    6    0    0 -0.69026700285E+01 -0.53494093121E+00  0.74488349231E+01  0.10170013866E+02  0.10500000000E+00 0.  1.
</event>
<event>
11    0  0.3510903E-009  0.9118800E+02  0.7816531E-02  0.1126479E+00
         25   -1    0    0    0    0  0.00000000000E+00  0.00000000000E+00  0.99999998245E-14  0.12500000000E+03  0.12500000000E+03 0.  0.
    3000001    1    3    3    0    0  0.23941206226E+01 -0.29310736000E+02 -0.84254412384E+01  0.30607827732E+02  0.10000000000E+01 0. -1.
    1000022    2    1    0    0    0  0.11609373537E+02 -0.55820367479E+02 -0.23570299401E+02  0.62500000241E+02  0.10000001844E+02 0.  0.
    3000022    2    3    3    0    0  0.92152529147E+01 -0.26509631479E+02 -0.15144858163E+02  0.31892172509E+02  0.24998229521E+00 0.  0.
    1000022    2    1    0    0    0 -0.11609373537E+02  0.55820367479E+02  0.23570299401E+02  0.62499999759E+02  0.99999988276E+01 0.  0.
    3000022    2    5    5    0    0 -0.36025380286E+01  0.89043634319E+01  0.55842128978E+00  0.96249831173E+01  0.24999459305E+00 0.  0.
        -13    1    4    4    0    0  0.33932684729E+01 -0.99082359809E+01 -0.56111601473E+01  0.11882068607E+02  0.10500000000E+00 0. -1.
         13    1    4    4    0    0  0.58219844418E+01 -0.16601395498E+02 -0.95336980153E+01  0.20010103902E+02  0.10500000000E+00 0.  1.
    3000001    1    5    5    0    0 -0.80068355087E+01  0.46916004047E+02  0.23011878111E+02  0.52875016641E+02  0.10000000000E+01 0. -1.
        -13    1    6    6    0    0 -0.20159222641E+01  0.48570995817E+01  0.25830425361E+00  0.52662230307E+01  0.10500000000E+00 0.  1.
         13    1    6    6    0    0 -0.15866157645E+01  0.40472638502E+01  0.30011703617E+00  0.43587600866E+01  0.10500000000E+00 0. -1.
</event>
<event>
11    0  0.3510903E-009  0.9118800E+02  0.7816531E-02  0.1126479E+00
         25   -1    0    0    0    0  0.00000000000E+00  0.00000000000E+00  0.99999998245E-14  0.12500000000E+03  0.12500000000E+03 0.  0.
    3000001    1    3    3    0    0  0.11323173197E+02  0.30189775655E+01 -0.28187733388E+02  0.30543031781E+02  0.10000000000E+01 0.  1.
    1000022    2    1    0    0    0  0.25552754806E+02 -0.35180441553E+01 -0.56044000042E+02  0.62499998760E+02  0.99999995737E+01 0.  0.
    3000022    2    3    3    0    0  0.14229581609E+02 -0.65370217208E+01 -0.27856266653E+02  0.31956966979E+02  0.25000180431E+00 0.  0.
    1000022    2    1    0    0    0 -0.25552754806E+02  0.35180441553E+01  0.56044000042E+02  0.62500001240E+02  0.10000015072E+02 0.  0.
    3000022    2    5    5    0    0 -0.57212887935E+01  0.48681188232E-01  0.49363052537E+01  0.75607621647E+01  0.24999927404E+00 0.  0.
        -13    1    4    4    0    0  0.97911866124E+01 -0.44455272715E+01 -0.19151833068E+02  0.21964375312E+02  0.10500000000E+00 0. -1.
         13    1    4    4    0    0  0.44383949970E+01 -0.20914944493E+01 -0.87044335857E+01  0.99925916672E+01  0.10500000000E+00 0.  1.
    3000001    1    5    5    0    0 -0.19831466013E+02  0.34693629671E+01  0.51107694788E+02  0.54939239075E+02  0.10000000000E+01 0. -1.
        -13    1    6    6    0    0 -0.18134131636E+01  0.54963383242E-01  0.16072758305E+01  0.24260768476E+01  0.10500000000E+00 0.  1.
         13    1    6    6    0    0 -0.39078756299E+01 -0.62821950102E-02  0.33290294232E+01  0.51346853171E+01  0.10500000000E+00 0. -1.
</event>
<event>
11    0  0.3510903E-009  0.9118800E+02  0.7816531E-02  0.1126479E+00
         25   -1    0    0    0    0  0.00000000000E+00  0.00000000000E+00  0.99999998245E-14  0.12500000000E+03  0.12500000000E+03 0.  0.
    3000001    1    3    3    0    0  0.15679062689E+02 -0.12071158151E+02  0.13546750050E+02  0.24001256276E+02  0.10000000000E+01 0.  1.
    1000022    2    1    0    0    0  0.42946744858E+02 -0.19895931380E+02  0.39572452614E+02  0.62500000323E+02  0.10000002756E+02 0.  0.
    3000022    2    3    3    0    0  0.27267682169E+02 -0.78247732289E+01  0.26025702564E+02  0.38498744047E+02  0.25006456655E+00 0.  0.
    1000022    2    1    0    0    0 -0.42946744858E+02  0.19895931380E+02 -0.39572452614E+02  0.62499999677E+02  0.99999987198E+01 0.  0.
    3000022    2    5    5    0    0 -0.12416925623E+02  0.10748472955E+02 -0.11934559565E+02  0.20302855338E+02  0.25002018324E+00 0.  0.
        -13    1    4    4    0    0  0.13376850803E+02 -0.38573263438E+01  0.12683531215E+02  0.18833536391E+02  0.10500000000E+00 0. -1.
         13    1    4    4    0    0  0.13890831366E+02 -0.39674468851E+01  0.13342171349E+02  0.19665207655E+02  0.10500000000E+00 0.  1.
    3000001    1    5    5    0    0 -0.30529819235E+02  0.91474584247E+01 -0.27637893049E+02  0.42197144339E+02  0.10000000000E+01 0.  1.
        -13    1    6    6    0    0 -0.68568712907E+01  0.58786853594E+01 -0.66263611777E+01  0.11202469054E+02  0.10500000000E+00 0.  1.
         13    1    6    6    0    0 -0.55600543321E+01  0.48697875957E+01 -0.53081983874E+01  0.91003862843E+01  0.10500000000E+00 0. -1.
</event>
<event>
11    0  0.3510903E-009  0.9118800E+02  0.7816531E-02  0.1126479E+00
         25   -1    0    0    0    0  0.00000000000E+00  0.00000000000E+00  0.99999998245E-14  0.12500000000E+03  0.12500000000E+03 0.  0.
    3000001    1    3    3    0    0 -0.33036589872E+02 -0.17096061263E+02  0.30487063947E+02  0.48105640513E+02  0.10000000000E+01 0. -1.
    1000022    2    1    0    0    0 -0.41790900447E+02 -0.17426203070E+02  0.41905825447E+02  0.62499999287E+02  0.99999895446E+01 0.  0.
    3000022    2    3    3    0    0 -0.87543105745E+01 -0.33014180747E+00  0.11418761501E+02  0.14394358774E+02  0.25000612584E+00 0.  0.
    1000022    2    1    0    0    0  0.41790900447E+02  0.17426203070E+02 -0.41905825447E+02  0.62500000713E+02  0.99999984563E+01 0.  0.
    3000022    2    5    5    0    0  0.64367333359E+00  0.77956273748E+00  0.45379046157E+00  0.11359885120E+01  0.25002138793E+00 0.  0.
        -13    1    4    4    0    0 -0.28225272654E+01 -0.11707933773E+00  0.37661978234E+01  0.47091016957E+01  0.10500000000E+00 0.  1.
         13    1    4    4    0    0 -0.59317833091E+01 -0.21306246974E+00  0.76525636772E+01  0.96852570785E+01  0.10500000000E+00 0. -1.
    3000001    1    5    5    0    0  0.41147227113E+02  0.16646640333E+02 -0.42359615909E+02  0.61364012201E+02  0.10000000000E+01 0. -1.
        -13    1    6    6    0    0  0.19009812159E+00  0.24540333917E+00  0.91860773428E-01  0.34032851247E+00  0.10500000000E+00 0. -1.
         13    1    6    6    0    0  0.45357521200E+00  0.53415939831E+00  0.36192968814E+00  0.79565999956E+00  0.10500000000E+00 0.  1.
</event>
<event>
11    0  0.3510903E-009  0.9118800E+02  0.7816531E-02  0.1126479E+00
         25   -1    0    0    0    0  0.00000000000E+00  0.00000000000E+00  0.99999998245E-14  0.12500000000E+03  0.12500000000E+03 0.  0.
    3000001    1    3    3    0    0 -0.33025823207E+01  0.85741811603E+01 -0.62800003358E+01  0.11174168281E+02  0.10000000000E+01 0.  1.
    1000022    2    1    0    0    0 -0.28366170654E+02  0.51996229084E+02 -0.17262742160E+02  0.62499998304E+02  0.10000002228E+02 0.  0.
    3000022    2    3    3    0    0 -0.25063588333E+02  0.43422047924E+02 -0.10982741824E+02  0.51325830023E+02  0.25000703542E+00 0.  0.
    1000022    2    1    0    0    0  0.28366170654E+02 -0.51996229084E+02  0.17262742160E+02  0.62500001696E+02  0.10000023433E+02 0.  0.
    3000022    2    5    5    0    0  0.22676658431E+02 -0.47762152219E+02  0.15875831843E+02  0.55204696599E+02  0.24993552182E+00 0.  0.
        -13    1    4    4    0    0 -0.12069596899E+02  0.20953187453E+02 -0.53627024291E+01  0.24768545296E+02  0.10500000000E+00 0. -1.
         13    1    4    4    0    0 -0.12993991434E+02  0.22468860471E+02 -0.56200393947E+01  0.26557284727E+02  0.10500000000E+00 0.  1.
    3000001    1    5    5    0    0  0.56895122222E+01 -0.42340768655E+01  0.13869103169E+01  0.72953050969E+01  0.10000000000E+01 0.  1.
        -13    1    6    6    0    0  0.95432699335E+01 -0.20070647852E+02  0.66068787629E+01  0.23185486370E+02  0.10500000000E+00 0.  1.
         13    1    6    6    0    0  0.13133388498E+02 -0.27691504367E+02  0.92689530799E+01  0.32019210229E+02  0.10500000000E+00 0. -1.
</event>
<event>
11    0  0.3510903E-009  0.9118800E+02  0.7816531E-02  0.1126479E+00
         25   -1    0    0    0    0  0.00000000000E+00  0.00000000000E+00  0.99999998245E-14  0.12500000000E+03  0.12500000000E+03 0.  0.
    3000001    1    3    3    0    0 -0.38350542495E+01  0.15429681975E+02  0.15817176120E+02  0.22449182332E+02  0.10000000000E+01 0.  1.
    1000022    2    1    0    0    0 -0.23089022073E+02  0.40506578649E+02  0.40402525880E+02  0.62499999401E+02  0.99999986737E+01 0.  0.
    3000022    2    3    3    0    0 -0.19253967823E+02  0.25076896674E+02  0.24585349760E+02  0.40050817069E+02  0.25000267467E+00 0.  0.
    1000022    2    1    0    0    0  0.23089022073E+02 -0.40506578649E+02 -0.40402525880E+02  0.62500000599E+02  0.10000006161E+02 0.  0.
    3000022    2    5    5    0    0  0.17854252955E+02 -0.34222813473E+02 -0.37351506801E+02  0.53713805181E+02  0.24999218197E+00 0.  0.
        -13    1    4    4    0    0 -0.12392800257E+02  0.16160862149E+02  0.15765429699E+02  0.25754897829E+02  0.10500000000E+00 0.  1.
         13    1    4    4    0    0 -0.68611675666E+01  0.89160345250E+01  0.88199200616E+01  0.14295919240E+02  0.10500000000E+00 0. -1.
    3000001    1    5    5    0    0  0.52347691177E+01 -0.62837651758E+01 -0.30510190793E+01  0.87861954180E+01  0.10000000000E+01 0. -1.
        -13    1    6    6    0    0  0.87916044890E+01 -0.16820534654E+02 -0.18273392098E+02  0.26346737545E+02  0.10500000000E+00 0.  1.
         13    1    6    6    0    0  0.90626484662E+01 -0.17402278820E+02 -0.19078114703E+02  0.27367067636E+02  0.10500000000E+00 0. -1.
</event>
<event>
11    0  0.3510903E-009  0.9118800E+02  0.7816531E-02  0.1126479E+00
         25   -1    0    0    0    0  0.00000000000E+00  0.00000000000E+00  0.99999998245E-14  0.12500000000E+03  0.12500000000E+03 0.  0.
    3000001    1    3    3    0    0  0.60284103086E+01  0.38713167740E+00  0.30278600248E+00  0.61305204631E+01  0.10000000000E+01 0. -1.
    1000022    2    1    0    0    0  0.53446293107E+02  0.31241436392E+01  0.30659152430E+02  0.62500001010E+02  0.99999989106E+01 0.  0.
    3000022    2    3    3    0    0  0.47417882799E+02  0.27370119617E+01  0.30356366427E+02  0.56369480547E+02  0.25002186310E+00 0.  0.
    1000022    2    1    0    0    0 -0.53446293107E+02 -0.31241436392E+01 -0.30659152430E+02  0.62499998990E+02  0.99999862805E+01 0.  0.
    3000022    2    5    5    0    0 -0.14300759011E+02 -0.54740427970E-01 -0.13391187895E+02  0.19593394896E+02  0.25001093743E+00 0.  0.
        -13    1    4    4    0    0  0.19214127803E+02  0.10981937410E+01  0.12374671552E+02  0.22880827296E+02  0.10500000000E+00 0.  1.
         13    1    4    4    0    0  0.28203754995E+02  0.16388182207E+01  0.17981694875E+02  0.33488653251E+02  0.10500000000E+00 0. -1.
    3000001    1    5    5    0    0 -0.39145534096E+02 -0.30694032112E+01 -0.17267964534E+02  0.42906604094E+02  0.10000000000E+01 0.  1.
        -13    1    6    6    0    0 -0.87845654100E+01 -0.31842693655E-01 -0.81411196500E+01  0.11977414477E+02  0.10500000000E+00 0. -1.
         13    1    6    6    0    0 -0.55161936014E+01 -0.22897734316E-01 -0.52500682454E+01  0.76159804186E+01  0.10500000000E+00 0.  1.
</event>
<event>
11    0  0.3510903E-009  0.9118800E+02  0.7816531E-02  0.1126479E+00
         25   -1    0    0    0    0  0.00000000000E+00  0.00000000000E+00  0.99999998245E-14  0.12500000000E+03  0.12500000000E+03 0.  0.
    3000001    1    3    3    0    0 -0.53016126946E+01  0.21550477256E+02  0.26034683535E+02  0.34224770473E+02  0.10000000000E+01 0. -1.
    1000022    2    1    0    0    0 -0.18237885832E+02  0.37414817589E+02  0.45538568093E+02  0.62499997489E+02  0.99999723669E+01 0.  0.
    3000022    2    3    3    0    0 -0.12936273138E+02  0.15864340332E+02  0.19503884558E+02  0.28275227016E+02  0.24998619753E+00 0.  0.
    1000022    2    1    0    0    0  0.18237885832E+02 -0.37414817589E+02 -0.45538568093E+02  0.62500002511E+02  0.10000003754E+02 0.  0.
    3000022    2    5    5    0    0  0.78496718169E+01 -0.26628427837E+02 -0.30777793359E+02  0.41449072245E+02  0.25001847563E+00 0.  0.
        -13    1    4    4    0    0 -0.32147318592E+01  0.39331910187E+01  0.48746482634E+01  0.70411443110E+01  0.10500000000E+00 0.  1.
         13    1    4    4    0    0 -0.97215412785E+01  0.11931149313E+02  0.14629236294E+02  0.21234082705E+02  0.10500000000E+00 0. -1.
    3000001    1    5    5    0    0  0.10388214015E+02 -0.10786389752E+02 -0.14760774734E+02  0.21050930266E+02  0.10000000000E+01 0. -1.
        -13    1    6    6    0    0  0.27997933467E+01 -0.93067186910E+01 -0.10749967117E+02  0.14492297043E+02  0.10500000000E+00 0. -1.
         13    1    6    6    0    0  0.50498784701E+01 -0.17321709146E+02 -0.20027826242E+02  0.26956775202E+02  0.10500000000E+00 0.  1.
</event>
<event>
11    0  0.3510903E-009  0.9118800E+02  0.7816531E-02  0.1126479E+00
         25   -1    0    0    0    0  0.00000000000E+00  0.00000000000E+00  0.99999998245E-14  0.12500000000E+03  0.12500000000E+03 0.  0.
    3000001    1    3    3    0    0 -0.51495317583E+02  0.27174404216E+02  0.96506767775E+01  0.59028396045E+02  0.10000000000E+01 0. -1.
    1000022    2    1    0    0    0 -0.54506986725E+02  0.27758205834E+02  0.80448882580E+01  0.62499999400E+02  0.10000005248E+02 0.  0.
    3000022    2    3    3    0    0 -0.30116691424E+01  0.58380161868E+00 -0.16057885195E+01  0.34716033550E+01  0.24999546409E+00 0.  0.
    1000022    2    1    0    0    0  0.54506986725E+02 -0.27758205834E+02 -0.80448882580E+01  0.62500000600E+02  0.10000012744E+02 0.  0.
    3000022    2    5    5    0    0  0.56750589719E+01 -0.57195262532E+01 -0.32853143831E+01  0.87048882822E+01  0.25002902504E+00 0.  0.
        -13    1    4    4    0    0 -0.96652969343E+00  0.18375919327E+00 -0.45946970622E+00  0.10909099414E+01  0.10500000000E+00 0. -1.
         13    1    4    4    0    0 -0.20451394489E+01  0.40004242541E+00 -0.11463188132E+01  0.23806934135E+01  0.10500000000E+00 0.  1.
    3000001    1    5    5    0    0  0.48831927753E+02 -0.22038679581E+02 -0.47595738749E+01  0.53795112317E+02  0.10000000000E+01 0. -1.
        -13    1    6    6    0    0  0.41722359431E+01 -0.41565918864E+01 -0.24121319747E+01  0.63650777323E+01  0.10500000000E+00 0.  1.
         13    1    6    6    0    0  0.15028230288E+01 -0.15629343668E+01 -0.87318240839E+00  0.23398105498E+01  0.10500000000E+00 0. -1.
</event>
<event>
11    0  0.3510903E-009  0.9118800E+02  0.7816531E-02  0.1126479E+00
         25   -1    0    0    0    0  0.00000000000E+00  0.00000000000E+00  0.99999998245E-14  0.12500000000E+03  0.12500000000E+03 0.  0.
    3000001    1    3    3    0    0  0.47631808763E+01  0.22433267846E+01  0.13556543672E+02  0.14577389459E+02  0.10000000000E+01 0. -1.
    1000022    2    1    0    0    0  0.35284852008E+02  0.12750119498E+02  0.48976154144E+02  0.62499997992E+02  0.99999872909E+01 0.  0.
    3000022    2    3    3    0    0  0.30521671131E+02  0.10506792714E+02  0.35419610473E+02  0.47922608533E+02  0.25000157263E+00 0.  0.
    1000022    2    1    0    0    0 -0.35284852008E+02 -0.12750119498E+02 -0.48976154144E+02  0.62500002008E+02  0.10000012390E+02 0.  0.
    3000022    2    5    5    0    0 -0.83790232791E+01 -0.73097363284E+01 -0.11114951207E+02  0.15724024451E+02  0.25005654963E+00 0.  0.
        -13    1    4    4    0    0  0.84514759969E+01  0.28972790633E+01  0.98585554233E+01  0.13305029595E+02  0.10500000000E+00 0.  1.
         13    1    4    4    0    0  0.22070195135E+02  0.76095136503E+01  0.25561055049E+02  0.34617578938E+02  0.10500000000E+00 0. -1.
    3000001    1    5    5    0    0 -0.26905828729E+02 -0.54403831698E+01 -0.37861202937E+02  0.46775977557E+02  0.10000000000E+01 0.  1.
        -13    1    6    6    0    0 -0.43543535039E+01 -0.37185517832E+01 -0.56798820342E+01  0.80659845477E+01  0.10500000000E+00 0. -1.
         13    1    6    6    0    0 -0.40246697752E+01 -0.35911845453E+01 -0.54350691731E+01  0.76580399029E+01  0.10500000000E+00 0.  1.
</event>
<event>
11    0  0.3510903E-009  0.9118800E+02  0.7816531E-02  0.1126479E+00
         25   -1    0    0    0    0  0.00000000000E+00  0.00000000000E+00  0.99999998245E-14  0.12500000000E+03  0.12500000000E+03 0.  0.
    3000001    1    3    3    0    0 -0.56818706284E+01  0.22613002162E+02  0.45719887212E+02  0.51331662815E+02  0.10000000000E+01 0.  1.
    1000022    2    1    0    0    0 -0.30260154540E+01  0.29489946804E+02  0.54105788897E+02  0.62500000694E+02  0.99999981289E+01 0.  0.
    3000022    2    3    3    0    0  0.26558551744E+01  0.68769446423E+01  0.83859016846E+01  0.11168337880E+02  0.24997921405E+00 0.  0.
    1000022    2    1    0    0    0  0.30260154540E+01 -0.29489946804E+02 -0.54105788897E+02  0.62499999306E+02  0.99999894479E+01 0.  0.
    3000022    2    5    5    0    0  0.32596504543E+01 -0.18255621477E+02 -0.42215252167E+02  0.46109468057E+02  0.24998481277E+00 0.  0.
        -13    1    4    4    0    0  0.15363526240E+01  0.38038681411E+01  0.46332296837E+01  0.61893161594E+01  0.10500000000E+00 0. -1.
         13    1    4    4    0    0  0.11195025504E+01  0.30730765013E+01  0.37526720009E+01  0.49790217201E+01  0.10500000000E+00 0.  1.
    3000001    1    5    5    0    0 -0.23363500032E+00 -0.11234325327E+02 -0.11890536730E+02  0.16390531248E+02  0.10000000000E+01 0.  1.
        -13    1    6    6    0    0  0.17674270236E+01 -0.10128276758E+02 -0.23535430342E+02  0.25683327175E+02  0.10500000000E+00 0.  1.
         13    1    6    6    0    0  0.14922234307E+01 -0.81273447199E+01 -0.18679821824E+02  0.20426140883E+02  0.10500000000E+00 0. -1.
</event>
<event>
11    0  0.3510903E-009  0.9118800E+02  0.7816531E-02  0.1126479E+00
         25   -1    0    0    0    0  0.00000000000E+00  0.00000000000E+00  0.99999998245E-14  0.12500000000E+03  0.12500000000E+03 0.  0.
    3000001    1    3    3    0    0  0.61229743109E+00 -0.24621269512E+02 -0.30979059220E+02  0.39588936974E+02  0.10000000000E+01 0. -1.
    1000022    2    1    0    0    0 -0.63847053003E+01 -0.39149816895E+02 -0.47252284781E+02  0.62500006527E+02  0.99999887058E+01 0.  0.
    3000022    2    3    3    0    0 -0.69970027314E+01 -0.14528547383E+02 -0.16273225561E+02  0.22911069553E+02  0.25000325980E+00 0.  0.
    1000022    2    1    0    0    0  0.63847053003E+01  0.39149816895E+02  0.47252284781E+02  0.62499993473E+02  0.99999071154E+01 0.  0.
    3000022    2    5    5    0    0  0.82982958480E+01  0.20299013665E+02  0.24962542002E+02  0.33228040268E+02  0.24997427061E+00 0.  0.
        -13    1    4    4    0    0 -0.37653188375E+01 -0.79721829009E+01 -0.89001358163E+01  0.12528238851E+02  0.10500000000E+00 0. -1.
         13    1    4    4    0    0 -0.32316838939E+01 -0.65563644821E+01 -0.73730897448E+01  0.10382830703E+02  0.10500000000E+00 0.  1.
    3000001    1    5    5    0    0 -0.19135905477E+01  0.18850803231E+02  0.22289742780E+02  0.29271953204E+02  0.10000000000E+01 0.  1.
        -13    1    6    6    0    0  0.42944539839E+01  0.10390037563E+02  0.12718586379E+02  0.16975531804E+02  0.10500000000E+00 0. -1.
         13    1    6    6    0    0  0.40038418640E+01  0.99089761024E+01  0.12243955623E+02  0.16252508464E+02  0.10500000000E+00 0.  1.
</event>
<event>
11    0  0.3510903E-009  0.9118800E+02  0.7816531E-02  0.1126479E+00
         25   -1    0    0    0    0  0.00000000000E+00  0.00000000000E+00  0.99999998245E-14  0.12500000000E+03  0.12500000000E+03 0.  0.
    3000001    1    3    3    0    0 -0.32884110967E+02 -0.83521051751E+00  0.11808112785E+02  0.34964179645E+02  0.10000000000E+01 0. -1.
    1000022    2    1    0    0    0 -0.54541324101E+02 -0.13532376074E+01  0.28803866797E+02  0.62500000231E+02  0.99999999884E+01 0.  0.
    3000022    2    3    3    0    0 -0.21657213134E+02 -0.51802708985E+00  0.16995754012E+02  0.27535820587E+02  0.25005627912E+00 0.  0.
    1000022    2    1    0    0    0  0.54541324101E+02  0.13532376074E+01 -0.28803866797E+02  0.62499999769E+02  0.99999970987E+01 0.  0.
    3000022    2    5    5    0    0  0.40110617247E+02 -0.29669965605E+01 -0.18864851218E+02  0.44425328147E+02  0.24996991936E+00 0.  0.
        -13    1    4    4    0    0 -0.94087396202E+01 -0.21622824633E+00  0.73006425116E+01  0.11911403863E+02  0.10500000000E+00 0. -1.
         13    1    4    4    0    0 -0.12248473514E+02 -0.30179884352E+00  0.96951115003E+01  0.15624416724E+02  0.10500000000E+00 0.  1.
    3000001    1    5    5    0    0  0.14430706853E+02  0.43202341679E+01 -0.99390155786E+01  0.18074671621E+02  0.10000000000E+01 0.  1.
        -13    1    6    6    0    0  0.26667993971E+02 -0.19319253989E+01 -0.12580042989E+02  0.29549665731E+02  0.10500000000E+00 0. -1.
         13    1    6    6    0    0  0.13442623276E+02 -0.10350711616E+01 -0.62848082291E+01  0.14875662417E+02  0.10500000000E+00 0.  1.
</event>
<event>
11    0  0.3510903E-009  0.9118800E+02  0.7816531E-02  0.1126479E+00
         25   -1    0    0    0    0  0.00000000000E+00  0.00000000000E+00  0.99999998245E-14  0.12500000000E+03  0.12500000000E+03 0.  0.
    3000001    1    3    3    0    0 -0.11778027364E+02  0.42258977129E+01  0.23682970430E+02  0.26804164387E+02  0.10000000000E+01 0. -1.
    1000022    2    1    0    0    0 -0.16780934382E+02  0.81361229265E+01  0.58808619782E+02  0.62499999967E+02  0.99999990059E+01 0.  0.
    3000022    2    3    3    0    0 -0.50029070186E+01  0.39102252136E+01  0.35125649352E+02  0.35695835580E+02  0.24999100164E+00 0.  0.
    1000022    2    1    0    0    0  0.16780934382E+02 -0.81361229265E+01 -0.58808619782E+02  0.62500000033E+02  0.99999994197E+01 0.  0.
    3000022    2    5    5    0    0  0.13285842211E+02 -0.28660080556E+01 -0.48464537118E+02  0.50334893120E+02  0.25000379961E+00 0.  0.
        -13    1    4    4    0    0 -0.38133919821E+01  0.29994028507E+01  0.26852739648E+02  0.27287708359E+02  0.10500000000E+00 0. -1.
         13    1    4    4    0    0 -0.11895150365E+01  0.91082236293E+00  0.82729097040E+01  0.84081272213E+01  0.10500000000E+00 0.  1.
    3000001    1    5    5    0    0  0.34950921718E+01 -0.52701148709E+01 -0.10344082664E+02  0.12165106913E+02  0.10000000000E+01 0.  1.
        -13    1    6    6    0    0  0.49807761468E+01 -0.10303768103E+01 -0.18293126763E+02  0.18987346290E+02  0.10500000000E+00 0. -1.
         13    1    6    6    0    0  0.83050660639E+01 -0.18356312454E+01 -0.30171410356E+02  0.31347546830E+02  0.10500000000E+00 0.  1.
</event>
<event>
11    0  0.3510903E-009  0.9118800E+02  0.7816531E-02  0.1126479E+00
         25   -1    0    0    0    0  0.00000000000E+00  0.00000000000E+00  0.99999998245E-14  0.12500000000E+03  0.12500000000E+03 0.  0.
    3000001    1    3    3    0    0 -0.12939697421E+02  0.15115961345E+01  0.44633837567E+01  0.13807334528E+02  0.10000000000E+01 0.  1.
    1000022    2    1    0    0    0 -0.54844603237E+02 -0.10004750790E+02  0.26423934027E+02  0.62499999739E+02  0.10000006765E+02 0.  0.
    3000022    2    3    3    0    0 -0.41904905816E+02 -0.11516346925E+02  0.21960550270E+02  0.48692665210E+02  0.24999835314E+00 0.  0.
    1000022    2    1    0    0    0  0.54844603237E+02  0.10004750790E+02 -0.26423934027E+02  0.62500000261E+02  0.10000010032E+02 0.  0.
    3000022    2    5    5    0    0  0.92226237121E+01  0.29173032846E+01 -0.87743035533E+01  0.13062095939E+02  0.25000178852E+00 0.  0.
        -13    1    4    4    0    0 -0.15603900896E+02 -0.42265963487E+01  0.81760758829E+01  0.18116431263E+02  0.10500000000E+00 0.  1.
         13    1    4    4    0    0 -0.26301004920E+02 -0.72897505763E+01  0.13784474387E+02  0.30576233947E+02  0.10500000000E+00 0. -1.
    3000001    1    5    5    0    0  0.45621979525E+02  0.70874475058E+01 -0.17649630473E+02  0.49437904322E+02  0.10000000000E+01 0. -1.
        -13    1    6    6    0    0  0.63018770019E+01  0.19415309873E+01 -0.59931998680E+01  0.89113784556E+01  0.10500000000E+00 0.  1.
         13    1    6    6    0    0  0.29207467102E+01  0.97577229735E+00 -0.27811036853E+01  0.41507174837E+01  0.10500000000E+00 0. -1.
</event>
<event>
11    0  0.3510903E-009  0.9118800E+02  0.7816531E-02  0.1126479E+00
         25   -1    0    0    0    0  0.00000000000E+00  0.00000000000E+00  0.99999998245E-14  0.12500000000E+03  0.12500000000E+03 0.  0.
    3000001    1    3    3    0    0 -0.83619571443E+01  0.11278093791E+02  0.35369749682E+02  0.38067531040E+02  0.10000000000E+01 0. -1.
    1000022    2    1    0    0    0 -0.21084950794E+02  0.17881851247E+02  0.55153551709E+02  0.62499999250E+02  0.99999943096E+01 0.  0.
    3000022    2    3    3    0    0 -0.12722993649E+02  0.66037574552E+01  0.19783802026E+02  0.24432468210E+02  0.25000062215E+00 0.  0.
    1000022    2    1    0    0    0  0.21084950794E+02 -0.17881851247E+02 -0.55153551709E+02  0.62500000750E+02  0.10000003686E+02 0.  0.
    3000022    2    5    5    0    0  0.18057776776E+02 -0.13130666636E+02 -0.50161860183E+02  0.54906943261E+02  0.24998579503E+00 0.  0.
        -13    1    4    4    0    0 -0.32992506628E+01  0.16875995021E+01  0.50789213632E+01  0.62880453425E+01  0.10500000000E+00 0.  1.
         13    1    4    4    0    0 -0.94237429865E+01  0.49161579531E+01  0.14704880663E+02  0.18144422868E+02  0.10500000000E+00 0. -1.
    3000001    1    5    5    0    0  0.30271740174E+01 -0.47511846110E+01 -0.49916915255E+01  0.75930574886E+01  0.10000000000E+01 0.  1.
        -13    1    6    6    0    0  0.60098527991E+01 -0.43116150080E+01 -0.16558827303E+02  0.18135990221E+02  0.10500000000E+00 0.  1.
         13    1    6    6    0    0  0.12047923977E+02 -0.88190516276E+01 -0.33603032881E+02  0.36770953041E+02  0.10500000000E+00 0. -1.
</event>
<event>
11    0  0.3510903E-009  0.9118800E+02  0.7816531E-02  0.1126479E+00
         25   -1    0    0    0    0  0.00000000000E+00  0.00000000000E+00  0.99999998245E-14  0.12500000000E+03  0.12500000000E+03 0.  0.
    3000001    1    3    3    0    0  0.17385890397E+02  0.18813041514E+02 -0.25364601462E+02  0.36063315477E+02  0.10000000000E+01 0. -1.
    1000022    2    1    0    0    0  0.36089385544E+02  0.26817369370E+02 -0.42244939169E+02  0.62500000119E+02  0.10000004029E+02 0.  0.
    3000022    2    3    3    0    0  0.18703495146E+02  0.80043278566E+01 -0.16880337707E+02  0.26436684641E+02  0.24999717454E+00 0.  0.
    1000022    2    1    0    0    0 -0.36089385544E+02 -0.26817369370E+02  0.42244939169E+02  0.62499999881E+02  0.10000002544E+02 0.  0.
    3000022    2    5    5    0    0 -0.28991883856E+02 -0.16255926811E+02  0.31902045049E+02  0.46071547187E+02  0.24999177595E+00 0.  0.
        -13    1    4    4    0    0  0.11430983102E+02  0.49365272229E+01 -0.10391074694E+02  0.16217957146E+02  0.10500000000E+00 0. -1.
         13    1    4    4    0    0  0.72725120448E+01  0.30678006338E+01 -0.64892630134E+01  0.10218727496E+02  0.10500000000E+00 0.  1.
    3000001    1    5    5    0    0 -0.70975016877E+01 -0.10561442560E+02  0.10342894120E+02  0.16428452694E+02  0.10000000000E+01 0.  1.
        -13    1    6    6    0    0 -0.13036541561E+02 -0.72835129442E+01  0.14246187928E+02  0.20638940674E+02  0.10500000000E+00 0.  1.
         13    1    6    6    0    0 -0.15955342295E+02 -0.89724138664E+01  0.17655857121E+02  0.25432606513E+02  0.10500000000E+00 0. -1.
</event>
<event>
11    0  0.3510903E-009  0.9118800E+02  0.7816531E-02  0.1126479E+00
         25   -1    0    0    0    0  0.00000000000E+00  0.00000000000E+00  0.99999998245E-14  0.12500000000E+03  0.12500000000E+03 0.  0.
    3000001    1    3    3    0    0 -0.10893051655E+01 -0.13486636683E+02 -0.13626802288E+02  0.19229292638E+02  0.10000000000E+01 0.  1.
    1000022    2    1    0    0    0 -0.57828799814E+01 -0.52208379137E+02 -0.32358819945E+02  0.62499998335E+02  0.10000000528E+02 0.  0.
    3000022    2    3    3    0    0 -0.46935748159E+01 -0.38721742455E+02 -0.18732017657E+02  0.43270705697E+02  0.25000542698E+00 0.  0.
    1000022    2    1    0    0    0  0.57828799814E+01  0.52208379137E+02  0.32358819945E+02  0.62500001665E+02  0.10000021343E+02 0.  0.
    3000022    2    5    5    0    0  0.14340550633E+01  0.51508788168E+01  0.25239287991E+00  0.53585694684E+01  0.24999614326E+00 0.  0.
        -13    1    4    4    0    0 -0.14482150832E+01 -0.11599016095E+02 -0.56339515842E+01  0.12976399221E+02  0.10500000000E+00 0.  1.
         13    1    4    4    0    0 -0.32453597327E+01 -0.27122726360E+02 -0.13098066073E+02  0.30294306476E+02  0.10500000000E+00 0. -1.
    3000001    1    5    5    0    0  0.43488249180E+01  0.47057500321E+02  0.32106427065E+02  0.57141432197E+02  0.10000000000E+01 0. -1.
        -13    1    6    6    0    0  0.58014296014E+00  0.23001734488E+01  0.79815992615E-01  0.23758702282E+01  0.10500000000E+00 0. -1.
         13    1    6    6    0    0  0.85391210321E+00  0.28507053680E+01  0.17257688730E+00  0.29826992402E+01  0.10500000000E+00 0.  1.
</event>
<event>
11    0  0.3510903E-009  0.9118800E+02  0.7816531E-02  0.1126479E+00
         25   -1    0    0    0    0  0.00000000000E+00  0.00000000000E+00  0.99999998245E-14  0.12500000000E+03  0.12500000000E+03 0.  0.
    3000001    1    3    3    0    0  0.17094000161E+02 -0.81997324952E+01  0.50738454422E+02  0.54174082472E+02  0.10000000000E+01 0.  1.
    1000022    2    1    0    0    0  0.21882109286E+02 -0.64647382312E+01  0.57320417372E+02  0.62500001669E+02  0.10000020687E+02 0.  0.
    3000022    2    3    3    0    0  0.47881091246E+01  0.17349942640E+01  0.65819629499E+01  0.83259191975E+01  0.25000024691E+00 0.  0.
    1000022    2    1    0    0    0 -0.21882109286E+02  0.64647382312E+01 -0.57320417372E+02  0.62499998331E+02  0.99999998198E+01 0.  0.
    3000022    2    5    5    0    0 -0.92369879235E+01 -0.53489832423E+00 -0.13675373077E+02  0.16513218734E+02  0.25000405648E+00 0.  0.
        -13    1    4    4    0    0  0.13851587178E+01  0.45953739080E+00  0.18675898873E+01  0.23725000051E+01  0.10500000000E+00 0.  1.
         13    1    4    4    0    0  0.34029504068E+01  0.12754568732E+01  0.47143730627E+01  0.59534191924E+01  0.10500000000E+00 0. -1.
    3000001    1    5    5    0    0 -0.12645121362E+02  0.69996365554E+01 -0.43645044295E+02  0.45986779597E+02  0.10000000000E+01 0.  1.
        -13    1    6    6    0    0 -0.48014223323E+01 -0.22150548629E+00 -0.70369440438E+01  0.85224601829E+01  0.10500000000E+00 0. -1.
         13    1    6    6    0    0 -0.44355655912E+01 -0.31339283793E+00 -0.66384290332E+01  0.79907585506E+01  0.10500000000E+00 0.  1.
</event>
<event>
11    0  0.3510903E-009  0.9118800E+02  0.7816531E-02  0.1126479E+00
         25   -1    0    0    0    0  0.00000000000E+00  0.00000000000E+00  0.99999998245E-14  0.12500000000E+03  0.12500000000E+03 0.  0.
    3000001    1    3    3    0    0  0.76574462134E+01 -0.33522422551E+02 -0.43265783337E+01  0.34671437471E+02  0.10000000000E+01 0. -1.
    1000022    2    1    0    0    0  0.15258882155E+02 -0.57576735261E+02 -0.16072837508E+02  0.62499999761E+02  0.99999968297E+01 0.  0.
    3000022    2    3    3    0    0  0.76014359413E+01 -0.24054312710E+02 -0.11746259175E+02  0.27828562290E+02  0.24997243289E+00 0.  0.
    1000022    2    1    0    0    0 -0.15258882155E+02  0.57576735261E+02  0.16072837508E+02  0.62500000239E+02  0.99999998166E+01 0.  0.
    3000022    2    5    5    0    0 -0.52692387259E+01  0.36319706636E+02  0.12194130653E+02  0.38673573552E+02  0.25000400946E+00 0.  0.
        -13    1    4    4    0    0  0.23579725494E+01 -0.73482824869E+01 -0.36297597856E+01  0.85289783183E+01  0.10500000000E+00 0. -1.
         13    1    4    4    0    0  0.52434633919E+01 -0.16706030223E+02 -0.81164993891E+01  0.19299583972E+02  0.10500000000E+00 0.  1.
    3000001    1    5    5    0    0 -0.99896434288E+01  0.21257028625E+02  0.38787068558E+01  0.23826426687E+02  0.10000000000E+01 0.  1.
        -13    1    6    6    0    0 -0.29510966164E+01  0.20560858631E+02  0.68407842388E+01  0.21869276003E+02  0.10500000000E+00 0.  1.
         13    1    6    6    0    0 -0.23181421095E+01  0.15758848005E+02  0.53533464138E+01  0.16804297549E+02  0.10500000000E+00 0. -1.
</event>
<event>
11    0  0.3510903E-009  0.9118800E+02  0.7816531E-02  0.1126479E+00
         25   -1    0    0    0    0  0.00000000000E+00  0.00000000000E+00  0.99999998245E-14  0.12500000000E+03  0.12500000000E+03 0.  0.
    3000001    1    3    3    0    0 -0.27552896461E+02  0.84922739832E+01 -0.49402813704E+02  0.57209429491E+02  0.10000000000E+01 0.  1.
    1000022    2    1    0    0    0 -0.29677284012E+02  0.63051865019E+01 -0.53719208810E+02  0.62500000722E+02  0.10000006595E+02 0.  0.
    3000022    2    3    3    0    0 -0.21243875509E+01 -0.21870874813E+01 -0.43163951057E+01  0.52905712306E+01  0.25000624147E+00 0.  0.
    1000022    2    1    0    0    0  0.29677284012E+02 -0.63051865019E+01  0.53719208810E+02  0.62499999278E+02  0.99999975722E+01 0.  0.
    3000022    2    5    5    0    0  0.19528901126E+02 -0.78545443522E+01  0.30140237977E+02  0.36763681544E+02  0.24997843375E+00 0.  0.
        -13    1    4    4    0    0 -0.49172872144E+00 -0.53162377078E+00 -0.10373362437E+01  0.12694536036E+01  0.10500000000E+00 0.  1.
         13    1    4    4    0    0 -0.16326588294E+01 -0.16554637105E+01 -0.32790588620E+01  0.40211176270E+01  0.10500000000E+00 0. -1.
    3000001    1    5    5    0    0  0.10148382886E+02  0.15493578503E+01  0.23578970833E+02  0.25736317734E+02  0.10000000000E+01 0.  1.
        -13    1    6    6    0    0  0.63602574906E+01 -0.25062359430E+01  0.97559544825E+01  0.11913176185E+02  0.10500000000E+00 0.  1.
         13    1    6    6    0    0  0.13168643635E+02 -0.53483084092E+01  0.20384283494E+02  0.24850505359E+02  0.10500000000E+00 0. -1.
</event>
<event>
11    0  0.3510903E-009  0.9118800E+02  0.7816531E-02  0.1126479E+00
         25   -1    0    0    0    0  0.00000000000E+00  0.00000000000E+00  0.99999998245E-14  0.12500000000E+03  0.12500000000E+03 0.  0.
    3000001    1    3    3    0    0 -0.26123638669E+01  0.15383549124E+02 -0.10782796376E+02  0.18993333733E+02  0.10000000000E+01 0.  1.
    1000022    2    1    0    0    0  0.54115762384E+01  0.53017446443E+02 -0.31082395711E+02  0.62500000698E+02  0.99999989730E+01 0.  0.
    3000022    2    3    3    0    0  0.80239401054E+01  0.37633897319E+02 -0.20299599334E+02  0.43506666965E+02  0.24999002764E+00 0.  0.
    1000022    2    1    0    0    0 -0.54115762384E+01 -0.53017446443E+02  0.31082395711E+02  0.62499999302E+02  0.99999902457E+01 0.  0.
    3000022    2    5    5    0    0  0.12865641611E+00 -0.97770440537E+01  0.17223342059E+01  0.99315697248E+01  0.24999835859E+00 0.  0.
        -13    1    4    4    0    0  0.29733494594E+01  0.13838631943E+02 -0.75291601576E+01  0.16032710898E+02  0.10500000000E+00 0.  1.
         13    1    4    4    0    0  0.50505906459E+01  0.23795265376E+02 -0.12770439177E+02  0.27473956067E+02  0.10500000000E+00 0. -1.
    3000001    1    5    5    0    0 -0.55402326545E+01 -0.43240402389E+02  0.29360061505E+02  0.52568429577E+02  0.10000000000E+01 0. -1.
        -13    1    6    6    0    0  0.12114966786E+00 -0.53632154967E+01  0.98905072720E+00  0.54560062360E+01  0.10500000000E+00 0.  1.
         13    1    6    6    0    0  0.75067482478E-02 -0.44138285570E+01  0.73328347870E+00  0.44755634888E+01  0.10500000000E+00 0. -1.
</event>
<event>
11    0  0.3510903E-009  0.9118800E+02  0.7816531E-02  0.1126479E+00
         25   -1    0    0    0    0  0.00000000000E+00  0.00000000000E+00  0.99999998245E-14  0.12500000000E+03  0.12500000000E+03 0.  0.
    3000001    1    3    3    0    0  0.53322792836E+01  0.87486537259E+01 -0.59502322495E+01  0.11890223219E+02  0.10000000000E+01 0.  1.
    1000022    2    1    0    0    0  0.32656187997E+02  0.50862450520E+02 -0.12362636148E+02  0.62499997821E+02  0.99999733855E+01 0.  0.
    3000022    2    3    3    0    0  0.27323908713E+02  0.42113796794E+02 -0.64124038982E+01  0.50609774602E+02  0.24998744711E+00 0.  0.
    1000022    2    1    0    0    0 -0.32656187997E+02 -0.50862450520E+02  0.12362636148E+02  0.62500002179E+02  0.10000000622E+02 0.  0.
    3000022    2    5    5    0    0 -0.23226268985E+02 -0.42399394847E+02  0.11867801012E+02  0.49780271612E+02  0.24997296563E+00 0.  0.
        -13    1    4    4    0    0  0.11114450082E+02  0.17169421741E+02 -0.25519372613E+01  0.20611730939E+02  0.10500000000E+00 0. -1.
         13    1    4    4    0    0  0.16209458631E+02  0.24944375054E+02 -0.38604666369E+01  0.29998043663E+02  0.10500000000E+00 0.  1.
    3000001    1    5    5    0    0 -0.94299190116E+01 -0.84630556733E+01  0.49483513525E+00  0.12719730567E+02  0.10000000000E+01 0.  1.
        -13    1    6    6    0    0 -0.83602615778E+01 -0.15179551567E+02  0.42977539424E+01  0.17854816531E+02  0.10500000000E+00 0. -1.
         13    1    6    6    0    0 -0.14866007407E+02 -0.27219843280E+02  0.75700470701E+01  0.31925455080E+02  0.10500000000E+00 0.  1.
</event>
<event>
11    0  0.3510903E-009  0.9118800E+02  0.7816531E-02  0.1126479E+00
         25   -1    0    0    0    0  0.00000000000E+00  0.00000000000E+00  0.99999998245E-14  0.12500000000E+03  0.12500000000E+03 0.  0.
    3000001    1    3    3    0    0  0.19703607079E+02  0.12107991441E+02  0.37447080364E+02  0.44024077690E+02  0.10000000000E+01 0.  1.
    1000022    2    1    0    0    0  0.22767994634E+02  0.20950873367E+02  0.53375362092E+02  0.62499999718E+02  0.10000000592E+02 0.  0.
    3000022    2    3    3    0    0  0.30643875548E+01  0.88428819259E+01  0.15928281728E+02  0.18475922028E+02  0.25000829534E+00 0.  0.
    1000022    2    1    0    0    0 -0.22767994634E+02 -0.20950873367E+02 -0.53375362092E+02  0.62500000282E+02  0.10000004117E+02 0.  0.
    3000022    2    5    5    0    0 -0.23529023228E+02 -0.20307286269E+02 -0.50540321959E+02  0.59332853076E+02  0.25000140306E+00 0.  0.
        -13    1    4    4    0    0  0.23196855913E+01  0.67424859866E+01  0.12116766722E+02  0.14059485030E+02  0.10500000000E+00 0.  1.
         13    1    4    4    0    0  0.74470196351E+00  0.21003959392E+01  0.38115150063E+01  0.44164369982E+01  0.10500000000E+00 0. -1.
    3000001    1    5    5    0    0  0.76102859372E+00 -0.64358709787E+00 -0.28350401323E+01  0.31671472060E+01  0.10000000000E+01 0.  1.
        -13    1    6    6    0    0 -0.98804100968E+01 -0.85633535322E+01 -0.21148969641E+02  0.24864502193E+02  0.10500000000E+00 0. -1.
         13    1    6    6    0    0 -0.13648613131E+02 -0.11743932737E+02 -0.29391352318E+02  0.34468350883E+02  0.10500000000E+00 0.  1.
</event>
<event>
11    0  0.3510903E-009  0.9118800E+02  0.7816531E-02  0.1126479E+00
         25   -1    0    0    0    0  0.00000000000E+00  0.00000000000E+00  0.99999998245E-14  0.12500000000E+03  0.12500000000E+03 0.  0.
    3000001    1    3    3    0    0  0.80554539388E+01 -0.14263915708E+02  0.74350287238E+01  0.18017471565E+02  0.10000000000E+01 0.  1.
    1000022    2    1    0    0    0  0.38488357109E+02 -0.45774396509E+02  0.15152592057E+02  0.62499999296E+02  0.99999928640E+01 0.  0.
    3000022    2    3    3    0    0  0.30432903170E+02 -0.31510480801E+02  0.77175633328E+01  0.44482527731E+02  0.24998770202E+00 0.  0.
    1000022    2    1    0    0    0 -0.38488357109E+02  0.45774396509E+02 -0.15152592057E+02  0.62500000704E+02  0.10000001663E+02 0.  0.
    3000022    2    5    5    0    0 -0.19104891227E+02  0.24733673267E+02 -0.29870334465E+01  0.31396438200E+02  0.25000153912E+00 0.  0.
        -13    1    4    4    0    0  0.19902591806E+02 -0.20530193480E+02  0.50206257943E+01  0.29031357414E+02  0.10500000000E+00 0.  1.
         13    1    4    4    0    0  0.10530311364E+02 -0.10980287321E+02  0.26969375384E+01  0.15451170317E+02  0.10500000000E+00 0. -1.
    3000001    1    5    5    0    0 -0.19383465882E+02  0.21040723242E+02 -0.12165558610E+02  0.31103562504E+02  0.10000000000E+01 0. -1.
        -13    1    6    6    0    0 -0.12068339007E+02  0.15595475829E+02 -0.18276485058E+01  0.19804418618E+02  0.10500000000E+00 0.  1.
         13    1    6    6    0    0 -0.70365522198E+01  0.91381974382E+01 -0.11593849408E+01  0.11592019583E+02  0.10500000000E+00 0. -1.
</event>
<event>
11    0  0.3510903E-009  0.9118800E+02  0.7816531E-02  0.1126479E+00
         25   -1    0    0    0    0  0.00000000000E+00  0.00000000000E+00  0.99999998245E-14  0.12500000000E+03  0.12500000000E+03 0.  0.
    3000001    1    3    3    0    0  0.30305412493E+02  0.31130660827E+02  0.27847401445E+02  0.51614085646E+02  0.10000000000E+01 0. -1.
    1000022    2    1    0    0    0  0.33755718375E+02  0.36177211438E+02  0.36851197769E+02  0.62500000108E+02  0.10000004308E+02 0.  0.
    3000022    2    3    3    0    0  0.34503058820E+01  0.50465506109E+01  0.90037963236E+01  0.10885914462E+02  0.25000337697E+00 0.  0.
    1000022    2    1    0    0    0 -0.33755718375E+02 -0.36177211438E+02 -0.36851197769E+02  0.62499999892E+02  0.10000002952E+02 0.  0.
    3000022    2    5    5    0    0 -0.76666248255E+01 -0.33767573527E+01 -0.81758786243E+01  0.11708420684E+02  0.24999437875E+00 0.  0.
        -13    1    4    4    0    0  0.15437639120E+01  0.23366760474E+01  0.40356081531E+01  0.49132901535E+01  0.10500000000E+00 0.  1.
         13    1    4    4    0    0  0.19065419700E+01  0.27098745635E+01  0.49681881705E+01  0.59726243085E+01  0.10500000000E+00 0. -1.
    3000001    1    5    5    0    0 -0.26089093550E+02 -0.32800454085E+02 -0.28675319144E+02  0.50791579208E+02  0.10000000000E+01 0. -1.
        -13    1    6    6    0    0 -0.20313035376E+01 -0.89852713058E+00 -0.22166759260E+01  0.31397806017E+01  0.10500000000E+00 0. -1.
         13    1    6    6    0    0 -0.56353212879E+01 -0.24782302221E+01 -0.59592026984E+01  0.85686400818E+01  0.10500000000E+00 0.  1.
</event>
<event>
11    0  0.3510903E-009  0.9118800E+02  0.7816531E-02  0.1126479E+00
         25   -1    0    0    0    0  0.00000000000E+00  0.00000000000E+00  0.99999998245E-14  0.12500000000E+03  0.12500000000E+03 0.  0.
    3000001    1    3    3    0    0 -0.10672635122E+01  0.13512773077E+02  0.73966251030E+01  0.15473983022E+02  0.10000000000E+01 0. -1.
    1000022    2    1    0    0    0  0.12310976908E+02  0.51307673487E+02  0.31972061471E+02  0.62500001194E+02  0.99999961700E+01 0.  0.
    3000022    2    3    3    0    0  0.13378240420E+02  0.37794900410E+02  0.24575436368E+02  0.47026018172E+02  0.24999738707E+00 0.  0.
    1000022    2    1    0    0    0 -0.12310976908E+02 -0.51307673487E+02 -0.31972061471E+02  0.62499998806E+02  0.99999812461E+01 0.  0.
    3000022    2    5    5    0    0 -0.56600386369E+01 -0.94726892117E+01 -0.93587239512E+01  0.14471216571E+02  0.25003352466E+00 0.  0.
        -13    1    4    4    0    0  0.76377281116E+01  0.21413656783E+02  0.13978472185E+02  0.26688729777E+02  0.10500000000E+00 0. -1.
         13    1    4    4    0    0  0.57405123083E+01  0.16381243627E+02  0.10596964184E+02  0.20337288395E+02  0.10500000000E+00 0.  1.
    3000001    1    5    5    0    0 -0.66509382707E+01 -0.41834984276E+02 -0.22613337520E+02  0.48028782236E+02  0.10000000000E+01 0.  1.
        -13    1    6    6    0    0 -0.27388075651E+01 -0.45293603995E+01 -0.45699260911E+01  0.69936701370E+01  0.10500000000E+00 0.  1.
         13    1    6    6    0    0 -0.29212310718E+01 -0.49433288122E+01 -0.47887978601E+01  0.74775464335E+01  0.10500000000E+00 0. -1.
</event>
<event>
11    0  0.3510903E-009  0.9118800E+02  0.7816531E-02  0.1126479E+00
         25   -1    0    0    0    0  0.00000000000E+00  0.00000000000E+00  0.99999998245E-14  0.12500000000E+03  0.12500000000E+03 0.  0.
    3000001    1    3    3    0    0 -0.82989205444E+00 -0.13026188113E+01  0.30950401052E+01  0.36006679717E+01  0.10000000000E+01 0. -1.
    1000022    2    1    0    0    0 -0.16061610894E+02 -0.51116561269E+02  0.30583841619E+02  0.62499995879E+02  0.99999968068E+01 0.  0.
    3000022    2    3    3    0    0 -0.15231718840E+02 -0.49813942458E+02  0.27488801514E+02  0.58899327907E+02  0.24999440560E+00 0.  0.
    1000022    2    1    0    0    0  0.16061610894E+02  0.51116561269E+02 -0.30583841619E+02  0.62500004121E+02  0.10000048324E+02 0.  0.
    3000022    2    5    5    0    0  0.13692163483E+02  0.49108372684E+02 -0.27140450593E+02  0.57756161355E+02  0.25001522004E+00 0.  0.
        -13    1    4    4    0    0 -0.69917314025E+01 -0.23061306147E+02  0.12676821771E+02  0.27229046704E+02  0.10500000000E+00 0. -1.
         13    1    4    4    0    0 -0.82399874373E+01 -0.26752636311E+02  0.14811979743E+02  0.31670281202E+02  0.10500000000E+00 0.  1.
    3000001    1    5    5    0    0  0.23694474118E+01  0.20081885855E+01 -0.34433910261E+01  0.47438427663E+01  0.10000000000E+01 0. -1.
        -13    1    6    6    0    0  0.10333531120E+02  0.37068608000E+02 -0.20459752537E+02  0.43582979055E+02  0.10500000000E+00 0. -1.
         13    1    6    6    0    0  0.33586323626E+01  0.12039764683E+02 -0.66806980563E+01  0.14173182300E+02  0.10500000000E+00 0.  1.
</event>
<event>
11    0  0.3510903E-009  0.9118800E+02  0.7816531E-02  0.1126479E+00
         25   -1    0    0    0    0  0.00000000000E+00  0.00000000000E+00  0.99999998245E-14  0.12500000000E+03  0.12500000000E+03 0.  0.
    3000001    1    3    3    0    0 -0.53996787868E-01 -0.25359109514E+01 -0.11432973562E+01  0.29564994252E+01  0.10000000000E+01 0.  1.
    1000022    2    1    0    0    0 -0.27916893314E+02 -0.54760983804E+02  0.53039433706E+01  0.62500001605E+02  0.10000005294E+02 0.  0.
    3000022    2    3    3    0    0 -0.27862896527E+02 -0.52225072853E+02  0.64472407268E+01  0.59543502180E+02  0.25000314754E+00 0.  0.
    1000022    2    1    0    0    0  0.27916893314E+02  0.54760983804E+02 -0.53039433706E+01  0.62499998395E+02  0.99999852262E+01 0.  0.
    3000022    2    5    5    0    0  0.24893535457E+02  0.53158935292E+02 -0.47341815515E+01  0.58890028769E+02  0.25000891517E+00 0.  0.
        -13    1    4    4    0    0 -0.99459783741E+01 -0.18654415602E+02  0.23603131685E+01  0.21271854891E+02  0.10500000000E+00 0. -1.
         13    1    4    4    0    0 -0.17916918153E+02 -0.33570657251E+02  0.40869275583E+01  0.38271647289E+02  0.10500000000E+00 0.  1.
    3000001    1    5    5    0    0  0.30233578577E+01  0.16020485117E+01 -0.56976181917E+00  0.36099696260E+01  0.10000000000E+01 0.  1.
        -13    1    6    6    0    0  0.13256034331E+02  0.28148773142E+02 -0.25119951475E+01  0.31215333095E+02  0.10500000000E+00 0.  1.
         13    1    6    6    0    0  0.11637501126E+02  0.25010162150E+02 -0.22221864040E+01  0.27674695674E+02  0.10500000000E+00 0. -1.
</event>
<event>
11    0  0.3510903E-009  0.9118800E+02  0.7816531E-02  0.1126479E+00
         25   -1    0    0    0    0  0.00000000000E+00  0.00000000000E+00  0.99999998245E-14  0.12500000000E+03  0.12500000000E+03 0.  0.
    3000001    1    3    3    0    0  0.95580765054E+01 -0.41169504265E+01  0.18825020421E+01  0.10623084356E+02  0.10000000000E+01 0.  1.
    1000022    2    1    0    0    0  0.43980140088E+02 -0.41802216025E+02  0.11161188027E+02  0.62499998481E+02  0.99999852582E+01 0.  0.
    3000022    2    3    3    0    0  0.34422063583E+02 -0.37685265599E+02  0.92786859850E+01  0.51876914125E+02  0.25000196702E+00 0.  0.
    1000022    2    1    0    0    0 -0.43980140088E+02  0.41802216025E+02 -0.11161188027E+02  0.62500001519E+02  0.10000004245E+02 0.  0.
    3000022    2    5    5    0    0 -0.36566374489E+02  0.29207301482E+02 -0.74615828299E+01  0.47390968747E+02  0.24999450650E+00 0.  0.
        -13    1    4    4    0    0  0.10228553093E+02 -0.11139551033E+02  0.27279846168E+01  0.15367687551E+02  0.10500000000E+00 0.  1.
         13    1    4    4    0    0  0.24193510489E+02 -0.26545714566E+02  0.65507013682E+01  0.36509226574E+02  0.10500000000E+00 0. -1.
    3000001    1    5    5    0    0 -0.74137655987E+01  0.12594914543E+02 -0.36996051972E+01  0.15109032772E+02  0.10000000000E+01 0.  1.
        -13    1    6    6    0    0 -0.21172645264E+02  0.16852919260E+02 -0.43611132530E+01  0.27410438319E+02  0.10500000000E+00 0. -1.
         13    1    6    6    0    0 -0.15393729225E+02  0.12354382223E+02 -0.31004695770E+01  0.19980530427E+02  0.10500000000E+00 0.  1.
</event>
<event>
11    0  0.3510903E-009  0.9118800E+02  0.7816531E-02  0.1126479E+00
         25   -1    0    0    0    0  0.00000000000E+00  0.00000000000E+00  0.99999998245E-14  0.12500000000E+03  0.12500000000E+03 0.  0.
    3000001    1    3    3    0    0  0.39137822530E+02 -0.20759280257E+01 -0.73920211364E+01  0.39896373345E+02  0.10000000000E+01 0. -1.
    1000022    2    1    0    0    0  0.59237771153E+02 -0.99779771807E+01 -0.14056180809E+02  0.62499997829E+02  0.99999974977E+01 0.  0.
    3000022    2    3    3    0    0  0.20099948622E+02 -0.79020491550E+01 -0.66641596723E+01  0.22603624484E+02  0.25000044238E+00 0.  0.
    1000022    2    1    0    0    0 -0.59237771153E+02  0.99779771807E+01  0.14056180809E+02  0.62500002171E+02  0.10000024636E+02 0.  0.
    3000022    2    5    5    0    0 -0.36622345227E+02  0.38223967219E+01  0.42247681155E+01  0.37063702595E+02  0.24999559874E+00 0.  0.
        -13    1    4    4    0    0  0.11116431648E+02 -0.44298564223E+01 -0.36539738541E+01  0.12512443024E+02  0.10500000000E+00 0. -1.
         13    1    4    4    0    0  0.89835169747E+01 -0.34721927327E+01 -0.30101858182E+01  0.10091181460E+02  0.10500000000E+00 0.  1.
    3000001    1    5    5    0    0 -0.22615425926E+02  0.61555804588E+01  0.98314126932E+01  0.25436299576E+02  0.10000000000E+01 0. -1.
        -13    1    6    6    0    0 -0.20366322499E+02  0.21850731154E+01  0.23197251642E+01  0.20614407256E+02  0.10500000000E+00 0.  1.
         13    1    6    6    0    0 -0.16256022728E+02  0.16373236065E+01  0.19050429512E+01  0.16449295339E+02  0.10500000000E+00 0. -1.
</event>
<event>
11    0  0.3510903E-009  0.9118800E+02  0.7816531E-02  0.1126479E+00
         25   -1    0    0    0    0  0.00000000000E+00  0.00000000000E+00  0.99999998245E-14  0.12500000000E+03  0.12500000000E+03 0.  0.
    3000001    1    3    3    0    0  0.18618024400E+02  0.18508944235E+02  0.31080146819E+01  0.26455086553E+02  0.10000000000E+01 0. -1.
    1000022    2    1    0    0    0  0.43713763327E+02  0.39594531118E+02  0.18100532504E+02  0.62500005450E+02  0.10000070282E+02 0.  0.
    3000022    2    3    3    0    0  0.25095738927E+02  0.21085586883E+02  0.14992517823E+02  0.36044918897E+02  0.25000230581E+00 0.  0.
    1000022    2    1    0    0    0 -0.43713763327E+02 -0.39594531118E+02 -0.18100532504E+02  0.62499994550E+02  0.10000002157E+02 0.  0.
    3000022    2    5    5    0    0 -0.36441593928E+02 -0.36861163636E+02 -0.14170597994E+02  0.53736426166E+02  0.24999404688E+00 0.  0.
        -13    1    4    4    0    0  0.15899002165E+02  0.13301607053E+02  0.94372908061E+01  0.22776841370E+02  0.10500000000E+00 0. -1.
         13    1    4    4    0    0  0.91967367619E+01  0.77839798294E+01  0.55552270164E+01  0.13268077527E+02  0.10500000000E+00 0.  1.
    3000001    1    5    5    0    0 -0.72721693988E+01 -0.27333674823E+01 -0.39299345104E+01  0.87635683836E+01  0.10000000000E+01 0.  1.
        -13    1    6    6    0    0 -0.20578883452E+02 -0.20824431449E+02 -0.79359322607E+01  0.30333767243E+02  0.10500000000E+00 0.  1.
         13    1    6    6    0    0 -0.15862710476E+02 -0.16036732187E+02 -0.62346657333E+01  0.23402658924E+02  0.10500000000E+00 0. -1.
</event>
<event>
11    0  0.3510903E-009  0.9118800E+02  0.7816531E-02  0.1126479E+00
         25   -1    0    0    0    0  0.00000000000E+00  0.00000000000E+00  0.99999998245E-14  0.12500000000E+03  0.12500000000E+03 0.  0.
    3000001    1    3    3    0    0  0.33882334141E+01 -0.27000965022E+02  0.19567494492E+02  0.33532358678E+02  0.10000000000E+01 0. -1.
    1000022    2    1    0    0    0 -0.19629871272E+01 -0.47498248519E+02  0.39323190133E+02  0.62499999373E+02  0.99999854264E+01 0.  0.
    3000022    2    3    3    0    0 -0.53512205414E+01 -0.20497283497E+02  0.19755695641E+02  0.28967640695E+02  0.25001029582E+00 0.  0.
    1000022    2    1    0    0    0  0.19629871272E+01  0.47498248519E+02 -0.39323190133E+02  0.62500000627E+02  0.99999932636E+01 0.  0.
    3000022    2    5    5    0    0 -0.20043856179E+01  0.71516156775E+01 -0.99845540771E+01  0.12446565242E+02  0.24999542517E+00 0.  0.
        -13    1    4    4    0    0 -0.35731584978E+01 -0.13866590343E+02  0.13319868818E+02  0.19557088734E+02  0.10500000000E+00 0. -1.
         13    1    4    4    0    0 -0.17780620435E+01 -0.66306931537E+01  0.64358268226E+01  0.94105519615E+01  0.10500000000E+00 0.  1.
    3000001    1    5    5    0    0  0.39673727451E+01  0.40346632842E+02 -0.29338636056E+02  0.50053435385E+02  0.10000000000E+01 0. -1.
        -13    1    6    6    0    0 -0.11055321226E+01  0.38774530436E+01 -0.55277350998E+01  0.68427862536E+01  0.10500000000E+00 0.  1.
         13    1    6    6    0    0 -0.89885349524E+00  0.32741626339E+01 -0.44568189773E+01  0.56037789888E+01  0.10500000000E+00 0. -1.
</event>
<event>
11    0  0.3510903E-009  0.9118800E+02  0.7816531E-02  0.1126479E+00
         25   -1    0    0    0    0  0.00000000000E+00  0.00000000000E+00  0.99999998245E-14  0.12500000000E+03  0.12500000000E+03 0.  0.
    3000001    1    3    3    0    0  0.26279811989E+01 -0.31428791971E+01 -0.21101640130E+01  0.47155876613E+01  0.10000000000E+01 0. -1.
    1000022    2    1    0    0    0  0.39864346731E+02 -0.14252887908E+02 -0.44876932661E+02  0.62499999205E+02  0.99999930730E+01 0.  0.
    3000022    2    3    3    0    0  0.37236365532E+02 -0.11110008711E+02 -0.42766768648E+02  0.57784411543E+02  0.25001035576E+00 0.  0.
    1000022    2    1    0    0    0 -0.39864346731E+02  0.14252887908E+02  0.44876932661E+02  0.62500000795E+02  0.10000003015E+02 0.  0.
    3000022    2    5    5    0    0 -0.14815854887E+02  0.38519166218E+01  0.23050170564E+02  0.27671640354E+02  0.24999831954E+00 0.  0.
        -13    1    4    4    0    0  0.26498012946E+02 -0.79476831559E+01 -0.30425031162E+02  0.41121817857E+02  0.10500000000E+00 0. -1.
         13    1    4    4    0    0  0.10738352587E+02 -0.31623255554E+01 -0.12341737486E+02  0.16662593687E+02  0.10500000000E+00 0.  1.
    3000001    1    5    5    0    0 -0.25048491844E+02  0.10400971287E+02  0.21826762097E+02  0.34828360441E+02  0.10000000000E+01 0.  1.
        -13    1    6    6    0    0 -0.51013696925E+01  0.13353260426E+01  0.80401636538E+01  0.96157331993E+01  0.10500000000E+00 0.  1.
         13    1    6    6    0    0 -0.97144851943E+01  0.25165905791E+01  0.15010006910E+02  0.18055907155E+02  0.10500000000E+00 0. -1.
</event>
<event>
11    0  0.3510903E-009  0.9118800E+02  0.7816531E-02  0.1126479E+00
         25   -1    0    0    0    0  0.00000000000E+00  0.00000000000E+00  0.99999998245E-14  0.12500000000E+03  0.12500000000E+03 0.  0.
    3000001    1    3    3    0    0  0.17963426053E+01  0.13536646626E+02  0.73926867682E+01  0.15560188504E+02  0.10000000000E+01 0. -1.
    1000022    2    1    0    0    0  0.23071722004E+02  0.48297674232E+02  0.30680291355E+02  0.62499999375E+02  0.99999975913E+01 0.  0.
    3000022    2    3    3    0    0  0.21275379398E+02  0.34761027606E+02  0.23287604586E+02  0.46939810871E+02  0.25001688287E+00 0.  0.
    1000022    2    1    0    0    0 -0.23071722004E+02 -0.48297674232E+02 -0.30680291355E+02  0.62500000625E+02  0.10000005405E+02 0.  0.
    3000022    2    5    5    0    0 -0.10401072601E+02 -0.12770274017E+02 -0.66400807434E+01  0.17759937499E+02  0.24999593060E+00 0.  0.
        -13    1    4    4    0    0  0.56510507943E+01  0.91777616798E+01  0.61387907552E+01  0.12404090514E+02  0.10500000000E+00 0.  1.
         13    1    4    4    0    0  0.15624328604E+02  0.25583265926E+02  0.17148813831E+02  0.34535720357E+02  0.10500000000E+00 0. -1.
    3000001    1    5    5    0    0 -0.12670649403E+02 -0.35527400215E+02 -0.24040210611E+02  0.44740063127E+02  0.10000000000E+01 0.  1.
        -13    1    6    6    0    0 -0.75726227112E+01 -0.92778192462E+01 -0.48655459156E+01  0.12926991404E+02  0.10500000000E+00 0. -1.
         13    1    6    6    0    0 -0.28284498895E+01 -0.34924547707E+01 -0.17745348278E+01  0.48329460951E+01  0.10500000000E+00 0.  1.
</event>
<event>
11    0  0.3510903E-009  0.9118800E+02  0.7816531E-02  0.1126479E+00
         25   -1    0    0    0    0  0.00000000000E+00  0.00000000000E+00  0.99999998245E-14  0.12500000000E+03  0.12500000000E+03 0.  0.
    3000001    1    3    3    0    0 -0.85397575618E+00  0.43687935998E-01 -0.35080100366E+01  0.37466408481E+01  0.10000000000E+01 0. -1.
    1000022    2    1    0    0    0 -0.35673556723E+01  0.34432981704E+02 -0.51067539683E+02  0.62500000855E+02  0.10000012104E+02 0.  0.
    3000022    2    3    3    0    0 -0.27133799161E+01  0.34389293768E+02 -0.47559529647E+02  0.58753360007E+02  0.24999096860E+00 0.  0.
    1000022    2    1    0    0    0  0.35673556723E+01 -0.34432981704E+02  0.51067539683E+02  0.62499999145E+02  0.10000001412E+02 0.  0.
    3000022    2    5    5    0    0 -0.17176513936E+01 -0.67553549364E+01  0.16348951485E+02  0.17774584784E+02  0.25000596678E+00 0.  0.
        -13    1    4    4    0    0 -0.80263974761E+00  0.10053211946E+02 -0.13832296547E+02  0.17118842068E+02  0.10500000000E+00 0. -1.
         13    1    4    4    0    0 -0.19107401685E+01  0.24336081822E+02 -0.33727233100E+02  0.41634517939E+02  0.10500000000E+00 0.  1.
    3000001    1    5    5    0    0  0.52850070659E+01 -0.27677626768E+02  0.34718588199E+02  0.44725414360E+02  0.10000000000E+01 0.  1.
        -13    1    6    6    0    0 -0.89289850372E+00 -0.33873864447E+01  0.80619672107E+01  0.87907903496E+01  0.10500000000E+00 0. -1.
         13    1    6    6    0    0 -0.82475288985E+00 -0.33679684917E+01  0.82869842740E+01  0.89837944348E+01  0.10500000000E+00 0.  1.
</event>
<event>
11    0  0.3510903E-009  0.9118800E+02  0.7816531E-02  0.1126479E+00
         25   -1    0    0    0    0  0.00000000000E+00  0.00000000000E+00  0.99999998245E-14  0.12500000000E+03  0.12500000000E+03 0.  0.
    3000001    1    3    3    0    0 -0.84522320710E+01 -0.46929046451E+02 -0.39512316292E+02  0.61935440311E+02  0.10000000000E+01 0.  1.
    1000022    2    1    0    0    0 -0.87051780452E+01 -0.46499684762E+02 -0.39601121596E+02  0.62499998755E+02  0.10000010245E+02 0.  0.
    3000022    2    3    3    0    0 -0.25294597423E+00  0.42936168863E+00 -0.88805303991E-01  0.56455844371E+00  0.25001345725E+00 0.  0.
    1000022    2    1    0    0    0  0.87051780452E+01  0.46499684762E+02  0.39601121596E+02  0.62500001245E+02  0.10000025812E+02 0.  0.
    3000022    2    5    5    0    0  0.26547931921E+01  0.40321944256E+01  0.74582416684E+01  0.88878792730E+01  0.25002081634E+00 0.  0.
        -13    1    4    4    0    0 -0.10531254204E+00  0.10287790929E+00 -0.29076316428E-03  0.18083052916E+00  0.10500000000E+00 0.  1.
         13    1    4    4    0    0 -0.14763343219E+00  0.32648377934E+00 -0.88514540827E-01  0.38372791455E+00  0.10500000000E+00 0. -1.
    3000001    1    5    5    0    0  0.60503848532E+01  0.42467490336E+02  0.32142879927E+02  0.53612121972E+02  0.10000000000E+01 0.  1.
        -13    1    6    6    0    0  0.18296285852E+01  0.26935169631E+01  0.49852379520E+01  0.59553502691E+01  0.10500000000E+00 0.  1.
         13    1    6    6    0    0  0.82516460691E+00  0.13386774625E+01  0.24730037164E+01  0.29325290039E+01  0.10500000000E+00 0.  1.
</event>
<event>
11    0  0.3510903E-009  0.9118800E+02  0.7816531E-02  0.1126479E+00
         25   -1    0    0    0    0  0.00000000000E+00  0.00000000000E+00  0.99999998245E-14  0.12500000000E+03  0.12500000000E+03 0.  0.
    3000001    1    3    3    0    0 -0.84990627367E+01  0.20689690633E+02  0.20973643356E+01  0.22487692257E+02  0.10000000000E+01 0.  1.
    1000022    2    1    0    0    0 -0.33688049229E+02  0.51684357967E+02 -0.30428633502E+00  0.62500001089E+02  0.10000001335E+02 0.  0.
    3000022    2    3    3    0    0 -0.25188986492E+02  0.30994667333E+02 -0.24016506707E+01  0.40012308832E+02  0.24997699909E+00 0.  0.
    1000022    2    1    0    0    0  0.33688049229E+02 -0.51684357967E+02  0.30428633502E+00  0.62499998911E+02  0.99999877238E+01 0.  0.
    3000022    2    5    5    0    0  0.43770126766E+00 -0.36491077348E+01  0.16932902749E+01  0.40542955935E+01  0.25002228762E+00 0.  0.
        -13    1    4    4    0    0 -0.96906924508E+01  0.11854602745E+02 -0.87801167420E+00  0.15336983273E+02  0.10500000000E+00 0. -1.
         13    1    4    4    0    0 -0.15498294041E+02  0.19140064589E+02 -0.15236389965E+01  0.24675325559E+02  0.10500000000E+00 0.  1.
    3000001    1    5    5    0    0  0.33250347961E+02 -0.48035250232E+02 -0.13890039399E+01  0.58445703318E+02  0.10000000000E+01 0. -1.
        -13    1    6    6    0    0  0.24087920563E+00 -0.23665468563E+01  0.10529550838E+01  0.26035180474E+01  0.10500000000E+00 0.  1.
         13    1    6    6    0    0  0.19682206203E+00 -0.12825608785E+01  0.64033519109E+00  0.14507775460E+01  0.10500000000E+00 0. -1.
</event>
<event>
11    0  0.3510903E-009  0.9118800E+02  0.7816531E-02  0.1126479E+00
         25   -1    0    0    0    0  0.00000000000E+00  0.00000000000E+00  0.99999998245E-14  0.12500000000E+03  0.12500000000E+03 0.  0.
    3000001    1    3    3    0    0 -0.12130443998E+02 -0.20159662551E+02  0.24175165894E+02  0.33749049050E+02  0.10000000000E+01 0. -1.
    1000022    2    1    0    0    0 -0.17091685803E+02 -0.32008458814E+02  0.49895718474E+02  0.62500000648E+02  0.10000009985E+02 0.  0.
    3000022    2    3    3    0    0 -0.49612418051E+01 -0.11848796263E+02  0.25720552580E+02  0.28750951598E+02  0.24999928042E+00 0.  0.
    1000022    2    1    0    0    0  0.17091685803E+02  0.32008458814E+02 -0.49895718474E+02  0.62499999352E+02  0.10000001885E+02 0.  0.
    3000022    2    5    5    0    0  0.80449914735E+01  0.18170125364E+02 -0.19266522591E+02  0.27679175246E+02  0.25001199297E+00 0.  0.
        -13    1    4    4    0    0 -0.37146486803E+01 -0.88318565933E+01  0.19236288796E+02  0.21490605793E+02  0.10500000000E+00 0.  1.
         13    1    4    4    0    0 -0.12465931249E+01 -0.30169396695E+01  0.64842637841E+01  0.72603458051E+01  0.10500000000E+00 0. -1.
    3000001    1    5    5    0    0  0.90466943298E+01  0.13838333450E+02 -0.30629195883E+02  0.34820824106E+02  0.10000000000E+01 0. -1.
        -13    1    6    6    0    0  0.42300539763E+01  0.94914961971E+01 -0.10162315847E+02  0.14534976611E+02  0.10500000000E+00 0. -1.
         13    1    6    6    0    0  0.38149374972E+01  0.86786291666E+01 -0.91042067433E+01  0.13144198635E+02  0.10500000000E+00 0.  1.
</event>
<event>
11    0  0.3510903E-009  0.9118800E+02  0.7816531E-02  0.1126479E+00
         25   -1    0    0    0    0  0.00000000000E+00  0.00000000000E+00  0.99999998245E-14  0.12500000000E+03  0.12500000000E+03 0.  0.
    3000001    1    3    3    0    0  0.19165513795E+02  0.13963716046E+02  0.33352237948E+01  0.23967185955E+02  0.10000000000E+01 0.  1.
    1000022    2    1    0    0    0  0.45039672354E+02  0.42143619696E+02 -0.12621994171E+01  0.62500001132E+02  0.10000011367E+02 0.  0.
    3000022    2    3    3    0    0  0.25874158559E+02  0.28179903649E+02 -0.45974232119E+01  0.38532815177E+02  0.24998891112E+00 0.  0.
    1000022    2    1    0    0    0 -0.45039672354E+02 -0.42143619696E+02  0.12621994171E+01  0.62499998868E+02  0.99999972123E+01 0.  0.
    3000022    2    5    5    0    0 -0.15586266882E+01 -0.37640729627E+01  0.18748420493E+01  0.44916695464E+01  0.25000036491E+00 0.  0.
        -13    1    4    4    0    0  0.66312171418E+01  0.71787931959E+01 -0.11757091982E+01  0.98438523785E+01  0.10500000000E+00 0. -1.
         13    1    4    4    0    0  0.19242941418E+02  0.21001110453E+02 -0.34217140138E+01  0.28688962799E+02  0.10500000000E+00 0.  1.
    3000001    1    5    5    0    0 -0.43481045666E+02 -0.38379546733E+02 -0.61264263217E+00  0.58008329321E+02  0.10000000000E+01 0. -1.
        -13    1    6    6    0    0 -0.36893811149E+00 -0.88097651118E+00  0.42606603274E+00  0.10510909607E+01  0.10500000000E+00 0. -1.
         13    1    6    6    0    0 -0.11896885767E+01 -0.28830964515E+01  0.14487760165E+01  0.34405785857E+01  0.10500000000E+00 0.  1.
</event>
<event>
11    0  0.3510903E-009  0.9118800E+02  0.7816531E-02  0.1126479E+00
         25   -1    0    0    0    0  0.00000000000E+00  0.00000000000E+00  0.99999998245E-14  0.12500000000E+03  0.12500000000E+03 0.  0.
    3000001    1    3    3    0    0 -0.88728934048E+01  0.25052328734E+01  0.11270473587E+02  0.14595478889E+02  0.10000000000E+01 0.  1.
    1000022    2    1    0    0    0 -0.48356215236E+02  0.15906085516E+02  0.34855745938E+02  0.62499999858E+02  0.99999924496E+01 0.  0.
    3000022    2    3    3    0    0 -0.39483321831E+02  0.13400852642E+02  0.23585272350E+02  0.47904520969E+02  0.25000607819E+00 0.  0.
    1000022    2    1    0    0    0  0.48356215236E+02 -0.15906085516E+02 -0.34855745938E+02  0.62500000142E+02  0.99999942281E+01 0.  0.
    3000022    2    5    5    0    0  0.19062736195E+02 -0.12449783037E+01 -0.12747342352E+02  0.22967260697E+02  0.24988925494E+00 0.  0.
        -13    1    4    4    0    0 -0.22475520861E+02  0.76701767576E+01  0.13373259433E+02  0.27255013159E+02  0.10500000000E+00 0.  1.
         13    1    4    4    0    0 -0.17007800970E+02  0.57306758846E+01  0.10212012918E+02  0.20649507809E+02  0.10500000000E+00 0. -1.
    3000001    1    5    5    0    0  0.29293479040E+02 -0.14661107212E+02 -0.22108403586E+02  0.39532739446E+02  0.10000000000E+01 0. -1.
        -13    1    6    6    0    0  0.11092066240E+02 -0.75641485240E+00 -0.73510903556E+01  0.13328752804E+02  0.10500000000E+00 0.  1.
         13    1    6    6    0    0  0.79706699552E+01 -0.48856345130E+00 -0.53962519961E+01  0.96385078921E+01  0.10500000000E+00 0. -1.
</event>
<event>
11    0  0.3510903E-009  0.9118800E+02  0.7816531E-02  0.1126479E+00
         25   -1    0    0    0    0  0.00000000000E+00  0.00000000000E+00  0.99999998245E-14  0.12500000000E+03  0.12500000000E+03 0.  0.
    3000001    1    3    3    0    0 -0.72211289994E+01  0.44372114415E+02  0.24779932927E+02  0.51342714357E+02  0.10000000000E+01 0. -1.
    1000022    2    1    0    0    0 -0.12648470308E+02  0.53689549386E+02  0.27635093625E+02  0.62500002124E+02  0.10000017572E+02 0.  0.
    3000022    2    3    3    0    0 -0.54273413088E+01  0.93174349711E+01  0.28551606974E+01  0.11157287767E+02  0.24999916223E+00 0.  0.
    1000022    2    1    0    0    0  0.12648470308E+02 -0.53689549386E+02 -0.27635093625E+02  0.62499997876E+02  0.99999910252E+01 0.  0.
    3000022    2    5    5    0    0  0.75721303249E+01 -0.21999053491E+02 -0.16460775602E+02  0.28501142882E+02  0.24999995158E+00 0.  0.
        -13    1    4    4    0    0 -0.12615967144E+01  0.21889265648E+01  0.67706026957E+00  0.26177206468E+01  0.10500000000E+00 0. -1.
         13    1    4    4    0    0 -0.41657445945E+01  0.71285084063E+01  0.21781004278E+01  0.85395671201E+01  0.10500000000E+00 0.  1.
    3000001    1    5    5    0    0  0.50763399833E+01 -0.31690495895E+02 -0.11174318023E+02  0.33998854994E+02  0.10000000000E+01 0. -1.
        -13    1    6    6    0    0  0.47386659768E+01 -0.13945875041E+02 -0.10433262491E+02  0.18050107399E+02  0.10500000000E+00 0. -1.
         13    1    6    6    0    0  0.28334643481E+01 -0.80531784502E+01 -0.60275131109E+01  0.10451035483E+02  0.10500000000E+00 0.  1.
</event>
<event>
11    0  0.3510903E-009  0.9118800E+02  0.7816531E-02  0.1126479E+00
         25   -1    0    0    0    0  0.00000000000E+00  0.00000000000E+00  0.99999998245E-14  0.12500000000E+03  0.12500000000E+03 0.  0.
    3000001    1    3    3    0    0 -0.33481969717E+02  0.38593352351E+02 -0.59072874798E+01  0.51443028557E+02  0.10000000000E+01 0. -1.
    1000022    2    1    0    0    0 -0.40548182864E+02  0.46425439281E+02 -0.26025668162E+01  0.62500000494E+02  0.10000008086E+02 0.  0.
    3000022    2    3    3    0    0 -0.70662131475E+01  0.78320869301E+01  0.33047206637E+01  0.11056971937E+02  0.24999163618E+00 0.  0.
    1000022    2    1    0    0    0  0.40548182864E+02 -0.46425439281E+02  0.26025668162E+01  0.62499999506E+02  0.10000001911E+02 0.  0.
    3000022    2    5    5    0    0  0.38383978675E+02 -0.39505003880E+02  0.30524309660E+01  0.55166611226E+02  0.25001777031E+00 0.  0.
        -13    1    4    4    0    0 -0.40151636765E+01  0.43649802579E+01  0.18923846720E+01  0.62262939818E+01  0.10500000000E+00 0. -1.
         13    1    4    4    0    0 -0.30510494710E+01  0.34671066722E+01  0.14123359917E+01  0.48306779549E+01  0.10500000000E+00 0.  1.
    3000001    1    5    5    0    0  0.21642041888E+01 -0.69204354009E+01 -0.44986414982E+00  0.73333882798E+01  0.10000000000E+01 0. -1.
        -13    1    6    6    0    0  0.23837323586E+02 -0.24586034718E+02  0.18492988498E+01  0.34294635588E+02  0.10500000000E+00 0. -1.
         13    1    6    6    0    0  0.14546655090E+02 -0.14918969162E+02  0.12031321162E+01  0.20871975638E+02  0.10500000000E+00 0.  1.
</event>
<event>
11    0  0.3510903E-009  0.9118800E+02  0.7816531E-02  0.1126479E+00
         25   -1    0    0    0    0  0.00000000000E+00  0.00000000000E+00  0.99999998245E-14  0.12500000000E+03  0.12500000000E+03 0.  0.
    3000001    1    3    3    0    0 -0.11428975441E+01 -0.91108943415E+01 -0.15090501536E+02  0.17692875603E+02  0.10000000000E+01 0. -1.
    1000022    2    1    0    0    0  0.93585015469E+01 -0.37965802508E+02 -0.47720714595E+02  0.62500000161E+02  0.99999853711E+01 0.  0.
    3000022    2    3    3    0    0  0.10501399091E+02 -0.28854908166E+02 -0.32630213060E+02  0.44807124558E+02  0.24999747721E+00 0.  0.
    1000022    2    1    0    0    0 -0.93585015469E+01  0.37965802508E+02  0.47720714595E+02  0.62499999839E+02  0.99999833546E+01 0.  0.
    3000022    2    5    5    0    0 -0.39996043442E+01  0.37437300987E+01  0.89789154517E+01  0.10521205893E+02  0.25000157209E+00 0.  0.
        -13    1    4    4    0    0  0.56129489461E+01 -0.15555220043E+02 -0.17645149552E+02  0.24183308173E+02  0.10500000000E+00 0. -1.
         13    1    4    4    0    0  0.48884501449E+01 -0.13299688123E+02 -0.14985063507E+02  0.20623816386E+02  0.10500000000E+00 0.  1.
    3000001    1    5    5    0    0 -0.53588972027E+01  0.34222072409E+02  0.38741799144E+02  0.51978793946E+02  0.10000000000E+01 0.  1.
        -13    1    6    6    0    0 -0.17032012368E+01  0.15454857127E+01  0.36666168005E+01  0.43294946937E+01  0.10500000000E+00 0.  1.
         13    1    6    6    0    0 -0.22964031074E+01  0.21982443860E+01  0.53122986512E+01  0.61917111990E+01  0.10500000000E+00 0. -1.
</event>
